<?xml version="1.0"?>
<VTKFile type="UnstructuredGrid"  version="0.1"  >
<UnstructuredGrid>
<Piece  NumberOfPoints="4153" NumberOfCells="8064">
<Points>
<DataArray  type="Float64"  NumberOfComponents="3"  format="ascii">-0.4159429826850926 -0.5362613292543857 0  -0.04461515998251062 -0.6280348082762706 0  -0.09291428984836833 -0.6248792480575229 0  -0.1407982996019218 -0.618901853485424 0  -0.1881910085321505 -0.6106766836185991 0  -0.235316602351043 -0.6009707080160278 0  -0.2818360706034116 -0.5877060391915565 0  -0.3274736622475926 -0.5721058261278761 0  -0.3721972180870883 -0.5548887907648314 0  0.003893281950622444 -0.6280298655461553 0  -0.4590241115335823 -0.5183085575461835 0  -0.5015968041137807 -0.5004847468702706 0  -0.5437227974906877 -0.4830820832722665 0  -0.585442275410555 -0.4664570944767499 0  -0.6269006599541558 -0.4508143963165386 0  -0.6680510451370403 -0.4362064979604627 0  -0.7089963175948841 -0.4233486708498779 0  0.6940523730160658 -0.4345525778504145 0  0.05236010410679262 -0.6248573015766907 0  0.100540620001656 -0.6186250475167874 0  0.148215135910143 -0.6096035398262585 0  0.1952123328936305 -0.5981723192890057 0  0.2414636838259787 -0.5850190374775622 0  0.2869909480224117 -0.5705959545908673 0  0.3318324486081478 -0.5553064097295664 0  0.3760367441132214 -0.5395815998952004 0  0.4197057129847518 -0.5237388056059966 0  0.4629140429916035 -0.5080418125215012 0  0.5057238403533381 -0.4926690642473513 0  0.5481782394934532 -0.4779008286832832 0  0.5903078277971231 -0.4637590960938117 0  0.632123401681579 -0.4505974314457348 0  0.6737054219436844 -0.4389607656166137 0  0.6528612756919572 -0.4448050192744032 0  -0.6884349740823876 -0.4298348405777062 0  -0.6062118556586187 -0.4585497212019395 0  -0.5227071624744043 -0.4917282069075573 0  -0.4375370147983413 -0.527274657405038 0  -0.3499495892534314 -0.563614246915377 0  -0.258679508615476 -0.5946694483184725 0  -0.1645533982575963 -0.6150471989239792 0  -0.06880620374044261 -0.6268367455877057 0  0.6112500989538947 -0.4571009925513023 0  0.1244529820036456 -0.6144393436328625 0  0.2184295497219378 -0.5917808741432832 0  0.3094923162241439 -0.5630464535054746 0  0.3979348486493725 -0.5316565203457968 0  0.4843638302380022 -0.5003165968897707 0  0.5692867019652162 -0.4707329194004041 0  0.02814728077481279 -0.6268363948632077 0  -0.7289457352619393 -0.4182908145007171 0  0.5269810275878758 -0.4851932332545867 0  0.4413631814220284 -0.5158633733899521 0  0.3540032330149127 -0.5474606095362975 0  0.2643159463650355 -0.5779425986583334 0  0.1718094661484122 -0.6041510818382154 0  0.07650093951521533 -0.6221105127724401 0  -0.02037065264715221 -0.6284355621320554 0  -0.116916717646935 -0.6222144468928296 0  -0.2117428421046716 -0.6061769200016849 0  -0.3047681507412088 -0.5801433198460449 0  -0.3942544580146292 -0.5456532526999563 0  -0.4803683862628416 -0.5093608925342571 0  -0.5646181876213258 -0.474615226088358 0  -0.6475040631486044 -0.4434428565204367 0  0.8575494354376274 -0.2479528789384445 0  0.7577207739510519 -0.414245566961494 0  0.8118568555026972 -0.3731344901339065 0  0.8469746006226619 -0.3152663105798261 0  0.7261553156935441 -0.4248091979673959 0  0.7854970830941782 -0.3946756391326025 0  0.8283625418556295 -0.3434140230074283 0  0.8516225714139001 -0.2813046549256991 0  0.710302794029682 -0.4306104183458536 0  0.7418583976008793 -0.4191288007115438 0  0.771653694417445 -0.4046272248281342 0  0.7982735421278457 -0.3832032151611547 0  0.8209879233548898 -0.3587536027088237 0  0.8372356231399813 -0.3292285000637651 0  0.8489212690366253 -0.2981430704409755 0  0.8541814398100938 -0.2645488544549582 0  0.8570342689948465 -0.2261759343497603 0  0.8625725929318043 0.2531172552428917 0  0.8619339128399238 0.2099227518882956 0  0.8624057085236457 0.1666725670086672 0  0.8634245173256193 0.1232424884395145 0  0.8647518443296942 0.07951920061303813 0  0.86513694687025 0.03554115490662103 0  0.8646131416774065 -0.008502234917063794 0  0.8631831898657309 -0.0524884828077084 0  0.860849625877894 -0.09622427367266936 0  0.8588296269301521 -0.1396851602778048 0  0.8573619294533689 -0.1829655018356564 0  0.8636671610120914 0.2748803107742546 0  0.8620706079551407 0.2315153813839481 0  0.8628697203764707 0.1449855277314506 0  0.8650597480740062 0.05754672195740097 0  0.8640144858612028 -0.03051082250288349 0  0.8597962214478461 -0.1179825510612886 0  0.8570123196897892 -0.2045717142676724 0  0.8620848569445587 0.1883141268381412 0  0.8641305995154405 0.1014355391643367 0  0.8649849444681049 0.01352006201388233 0  0.8620508462036086 -0.07440854349412035 0  0.858010532542246 -0.1613430118188946 0  0.705870265850234 0.464416749392864 0  0.8548286573192522 0.3424715397811398 0  0.8212426250307004 0.401053283207366 0  0.7684715037104506 0.4432584612186911 0  0.858745139934463 0.3083676059500643 0  0.8372010445687044 0.3710779751398263 0  0.7956298697434709 0.4231121066800162 0  0.7374463535295559 0.4543661293921286 0  0.8608868210100511 0.2915529624123485 0  0.8564587278129661 0.3252810076656521 0  0.8456420398399974 0.3566681034823128 0  0.8300190024508409 0.386473274141738 0  0.8080439002090288 0.4113791449378583 0  0.7820898412789854 0.4333228493863273 0  0.7528887515343571 0.4484628517701967 0  0.721846370135469 0.4603175769714657 0  -0.03673596291810996 0.7140537202031813 0  0.6453088375077541 0.4832940722012126 0  0.604337903513035 0.4986912108526844 0  0.5630125292007087 0.5152800385149644 0  0.5213525199072503 0.5329938312400755 0  0.4792311905754524 0.5516150010264121 0  0.4365924108652557 0.5708760078639434 0  0.3933476241698658 0.5905525338417041 0  0.3493865505848889 0.6104756093081507 0  0.3045413132412412 0.6300877399822801 0  0.2587410130637683 0.6489500504076738 0  0.2119029358618847 0.6665496689629336 0  0.1639528540128622 0.6824014774553742 0  0.1149192225224304 0.6954764697113118 0  0.06497438945554893 0.7053275700782012 0  0.01435262550260734 0.7115195777499725 0  0.6860578495661713 0.4697618599124 0  -0.08787135202138087 0.7115984532282837 0  -0.1385270513533469 0.7046454273506476 0  -0.1882773909877485 0.6935433068592795 0  -0.2366383002313686 0.6783546988648972 0  -0.2836721954207749 0.6617384132271522 0  -0.3295878175045261 0.6438031655267681 0  -0.3744835777500894 0.6249547737376193 0  -0.4184179749257442 0.6055235467152796 0  -0.4616327772549907 0.5864131942176409 0  -0.504261749335002 0.5676343493333585 0  -0.5463950733557817 0.5493825132949469 0  -0.5881030811592053 0.5318573157321362 0  -0.6294251404455208 0.5152459652269857 0  -0.6704144561294744 0.4998763562196585 0  -0.7111934480395933 0.4863593860615137 0  -0.7310967502627156 0.481100394670452 0  -0.6907364551614326 0.4931401070835099 0  -0.608809733587151 0.5234237640114725 0  -0.5253857334685607 0.5584323878113863 0  -0.4401033463626399 0.5959423996067453 0  -0.3521563911413559 0.6344631862862111 0  -0.2603016558176761 0.6702517157369229 0  -0.1635397396168021 0.6995466053350254 0  -0.06233035409999341 0.7133775789347616 0  0.03973222653925156 0.7089137889371715 0  0.1395623791030735 0.6892956739124587 0  0.2354536701896006 0.6579416461938324 0  0.327075422596263 0.6203506043011948 0  0.4150500787905954 0.5806766891130619 0  0.5003488163410049 0.5422169601128569 0  0.5837215298052025 0.506873575260707 0  0.6656030344429709 0.4765686347993096 0  -0.6499552268953143 0.5074601430546879 0  -0.5672973294096766 0.540521603491653 0  -0.4830139035040062 0.5769688744660602 0  -0.3965747103701879 0.6152457749228366 0  -0.3067630458571228 0.6529098865543564 0  -0.2126995689305284 0.6863220784008072 0  -0.1132869410942777 0.7086608416602892 0  -0.01112019247664883 0.713356303407792 0  0.09004769589911352 0.7008348392131711 0  0.1880829468302442 0.6747778417940253 0  0.2817661473521234 0.639644506818641 0  0.3714733632294613 0.6005061246873881 0  0.4579811216771093 0.5611809313665503 0  0.5422316295701094 0.5239845158062651 0  0.6248612174361508 0.4909049127209888 0  -0.8895240203496186 0.2912123265691675 0  -0.7936705403167681 0.4595111753947698 0  -0.8465127887824722 0.4172468504436507 0  -0.8802653301378308 0.3587249914912248 0  -0.762642518046536 0.470728531142817 0  -0.8208285628880123 0.4393060265856262 0  -0.8624180650834212 0.3872077351930167 0  -0.8842957438320688 0.3246415400157315 0  -0.7470557099160622 0.4768266030262435 0  -0.7780782840987236 0.4647361830554462 0  -0.8072893855858183 0.4495466998309107 0  -0.8332622649234876 0.4275530322618067 0  -0.8553066060067367 0.4026634331943059 0  -0.8709356809938846 0.3728519308026103 0  -0.8819197490749363 0.3415371148306839 0  -0.8865394724484248 0.3078486780040305 0  -0.8886152970752325 0.2694521175871669 0  -0.8881500279392954 -0.209095445481878 0  -0.8879264190751426 -0.1659534194456536 0  -0.8888487037404802 -0.1227550461636022 0  -0.8903322114994147 -0.07937976506313039 0  -0.892137711464553 -0.03572502029115674 0  -0.893043815806045 0.008178774997245529 0  -0.8930751981457347 0.0521409439184861 0  -0.8922394823082892 0.09604275567373255 0  -0.8905237233083018 0.1397006045210186 0  -0.8891181972779456 0.1830813323011052 0  -0.8882803957054896 0.2262907057295204 0  -0.8890128037708674 -0.230839984898723 0  -0.8878507971421289 -0.1875213915117127 0  -0.8895457919764992 -0.1010950632824114 0  -0.892702803061066 -0.01378859160737515 0  -0.8927675775993489 0.07410742399743944 0  -0.8897750794385934 0.1614178822480848 0  -0.8882538676895175 0.2478663257047534 0  -0.8883000053378094 -0.1443708391627909 0  -0.8912706973119039 -0.05760547255937404 0  -0.8931648716612003 0.03016003984341225 0  -0.891418507891351 0.1179233539820021 0  -0.8886113951007556 0.2047015383370257 0  -0.8794278186338926 -0.2982353647357674 0  -0.8451637930530131 -0.3563714080265022 0  -0.7918847218772943 -0.3979674772889509 0  -0.8836900788378391 -0.2642383393959998 0  -0.8614094410384443 -0.3266075583573533 0  -0.8192656946542533 -0.3781662398120968 0  -0.7606498820643293 -0.4086847728494488 0  -0.8860075647297284 -0.2474655807403703 0  -0.88121994
[...]
<PointData  Vectors="f_48"> 
<DataArray  type="Float64"  Name="f_48"  NumberOfComponents="3" format="ascii">-1.8274311770005408e-06 -1.9161334398341437e-06 0.0000000000000000e+00  -3.7443873474190514e-09 -1.1728753545271066e-07 0.0000000000000000e+00  -1.0377400354282965e-07 -4.8484436290963375e-07 0.0000000000000000e+00  -2.7283677809038351e-07 -8.3656915488248380e-07 0.0000000000000000e+00  -4.9986353577075704e-07 -1.1704324998154724e-06 0.0000000000000000e+00  -6.3414650773391268e-07 -1.3948456662833969e-06 0.0000000000000000e+00  -1.0377638714432663e-06 -1.4908562909300066e-06 0.0000000000000000e+00  -1.3561921865962348e-06 -1.5787488198364099e-06 0.0000000000000000e+00  -1.4803257629874775e-06 -1.7912224551981739e-06 0.0000000000000000e+00  -5.8883138277752661e-09 2.5874388351999729e-07 0.0000000000000000e+00  -1.8172292027094758e-06 -2.1299115722217293e-06 0.0000000000000000e+00  -1.8343602879641558e-06 -2.3129567517882294e-06 0.0000000000000000e+00  -1.8251569871905227e-06 -2.4326190527524764e-06 0.0000000000000000e+00  -1.7226649517269705e-06 -2.5598816910015802e-06 0.0000000000000000e+00  -1.5769486746216344e-06 -2.6415399931775747e-06 0.0000000000000000e+00  -1.3516130831242928e-06 -2.7402691009571591e-06 0.0000000000000000e+00  -1.1209417098139141e-06 -2.6231368695992819e-06 0.0000000000000000e+00  -5.0876491320164529e-07 2.5623020211452166e-06 0.0000000000000000e+00  -1.1109643291374420e-07 6.2419176538268067e-07 0.0000000000000000e+00  -3.0905735341882314e-07 9.5855778954039167e-07 0.0000000000000000e+00  -5.6798766593313919e-07 1.2532285126634314e-06 0.0000000000000000e+00  -8.7281430039727616e-07 1.5127207790212453e-06 0.0000000000000000e+00  -1.1393293339332796e-06 1.7611184951307197e-06 0.0000000000000000e+00  -1.3871168270382918e-06 1.9843232066500240e-06 0.0000000000000000e+00  -1.6104877081133927e-06 2.1734450784146477e-06 0.0000000000000000e+00  -1.7529094765738971e-06 2.3661394406541212e-06 0.0000000000000000e+00  -1.8502415247508176e-06 2.5332311134099252e-06 0.0000000000000000e+00  -1.8869785242906694e-06 2.6700465289056714e-06 0.0000000000000000e+00  -1.8888841750265868e-06 2.7563599776991901e-06 0.0000000000000000e+00  -1.7528779496364535e-06 2.8494835447279393e-06 0.0000000000000000e+00  -1.6004007806702424e-06 2.9136614066208482e-06 0.0000000000000000e+00  -1.3507168662899386e-06 2.9742153035175803e-06 0.0000000000000000e+00  -1.0450792483985219e-06 2.9119162845142034e-06 0.0000000000000000e+00  -1.2698597995495231e-06 2.6255909579403070e-06 0.0000000000000000e+00  -1.1773343911584395e-06 -2.4535546164009907e-06 0.0000000000000000e+00  -1.7125111143154037e-06 -2.5014616417264190e-06 0.0000000000000000e+00  -1.8264578505460305e-06 -2.3822526803617973e-06 0.0000000000000000e+00  -1.6756972609742365e-06 -2.1454844614025388e-06 0.0000000000000000e+00  -1.4394969307038313e-06 -1.7051818870844321e-06 0.0000000000000000e+00  -9.3808015202526876e-07 -1.3866214018161802e-06 0.0000000000000000e+00  -3.8036718382328914e-07 -9.9049107120182126e-07 0.0000000000000000e+00  -4.3123221773958253e-08 -3.0252644115419415e-07 0.0000000000000000e+00  -1.6110527713692261e-06 2.7335431508785360e-06 0.0000000000000000e+00  -4.3367839139900820e-07 1.1117544153858282e-06 0.0000000000000000e+00  -1.0047302841797697e-06 1.6418531512995048e-06 0.0000000000000000e+00  -1.4966545412565245e-06 2.0823636533275950e-06 0.0000000000000000e+00  -1.8225821458294619e-06 2.4420742181892527e-06 0.0000000000000000e+00  -1.8877320282952622e-06 2.7103230227279354e-06 0.0000000000000000e+00  -1.7671925109543492e-06 2.7991795841545042e-06 0.0000000000000000e+00  -4.4625571342943587e-08 4.4461319076557531e-07 0.0000000000000000e+00  -5.0856030846023398e-07 -2.4996872615880084e-06 0.0000000000000000e+00  -1.8279164911604982e-06 2.8076847150214854e-06 0.0000000000000000e+00  -1.8808814607177909e-06 2.5956736120695130e-06 0.0000000000000000e+00  -1.6910130499527047e-06 2.2770118453011029e-06 0.0000000000000000e+00  -1.2708319399484081e-06 1.8704584234222252e-06 0.0000000000000000e+00  -7.3865522787707437e-07 1.3788409203858470e-06 0.0000000000000000e+00  -1.9935499240637734e-07 7.9636669992539463e-07 0.0000000000000000e+00  9.2667915752243551e-09 7.1067748876716552e-08 0.0000000000000000e+00  -1.9181944041963541e-07 -6.5871258973799204e-07 0.0000000000000000e+00  -2.1108493908031085e-07 -1.4191933422514279e-06 0.0000000000000000e+00  -1.1928316152775793e-06 -1.5497720790929894e-06 0.0000000000000000e+00  -1.9371166164214389e-06 -1.5427318555507860e-06 0.0000000000000000e+00  -1.8230075028316458e-06 -2.2326289407019120e-06 0.0000000000000000e+00  -1.8159013655419594e-06 -2.4805539599757862e-06 0.0000000000000000e+00  -1.5867540138815715e-06 -2.4408915833905108e-06 0.0000000000000000e+00  -7.2899478467433329e-08 -5.7244846582631459e-07 0.0000000000000000e+00  -1.2769199006950644e-06 1.0250513379435796e-06 0.0000000000000000e+00  -9.7560680731965398e-07 -3.9605568139084126e-08 0.0000000000000000e+00  -4.4776911909690086e-07 -7.1269530322962076e-07 0.0000000000000000e+00  -1.7315281346727530e-06 1.5462849148158997e-06 0.0000000000000000e+00  -1.5400890766227946e-06 2.0467394008948201e-07 0.0000000000000000e+00  -1.1379384368257708e-06 -9.1367635897003170e-07 0.0000000000000000e+00  -2.3464363163162480e-07 -7.9253321996935969e-07 0.0000000000000000e+00  -1.2322992371388041e-06 1.8967966596113478e-06 0.0000000000000000e+00  -7.9955711574099206e-07 2.2590876556267840e-06 0.0000000000000000e+00  -1.7056883200809363e-06 5.9810405569716427e-07 0.0000000000000000e+00  -1.7305646483476599e-06 7.5312620586346075e-07 0.0000000000000000e+00  -7.1420315501135097e-07 -1.1071797441501567e-06 0.0000000000000000e+00  -1.1184665958329648e-06 4.7392657181999322e-08 0.0000000000000000e+00  1.8602903765285502e-07 -8.8766407413175884e-07 0.0000000000000000e+00  -3.3494925998137913e-07 -7.1704589379450516e-07 0.0000000000000000e+00  4.2575786655633511e-07 -6.4926976450261430e-07 0.0000000000000000e+00  2.0374265400125280e-07 1.9012121745194248e-07 0.0000000000000000e+00  4.8427464651564057e-08 1.1002830425321538e-07 0.0000000000000000e+00  1.2259521140483453e-08 2.0451183747180509e-08 0.0000000000000000e+00  4.5496012982503911e-09 -6.3488231257543580e-08 0.0000000000000000e+00  7.4499093019239383e-09 -1.4928329772065864e-07 0.0000000000000000e+00  -4.3354707970131856e-10 -2.4216018704786952e-07 0.0000000000000000e+00  -1.4215121497997771e-08 -3.2975127173781387e-07 0.0000000000000000e+00  -3.7538693180023420e-08 -4.1503239557660946e-07 0.0000000000000000e+00  -3.1171824829771891e-08 -5.0467004155708591e-07 0.0000000000000000e+00  7.7173870613415518e-09 -5.6950495671243390e-07 0.0000000000000000e+00  9.8544330595952666e-08 -6.2569401899724567e-07 0.0000000000000000e+00  6.4186056853876860e-09 2.3412945444344919e-07 0.0000000000000000e+00  2.3366183346402066e-08 1.5771821566935195e-07 0.0000000000000000e+00  6.1161726837910795e-09 -2.3530175710586070e-08 0.0000000000000000e+00  3.2899340122700726e-09 -1.9795465069272210e-07 0.0000000000000000e+00  -2.1425871897577519e-08 -3.7253544641257241e-07 0.0000000000000000e+00  -1.2233523303336841e-08 -5.3483029334094657e-07 0.0000000000000000e+00  3.2111668982465664e-08 -6.4119286520677393e-07 0.0000000000000000e+00  1.5905784642991191e-08 6.5044209640837203e-08 0.0000000000000000e+00  8.2791988955880665e-09 -1.1101122840290306e-07 0.0000000000000000e+00  -6.3565238311994816e-09 -2.8654346332082166e-07 0.0000000000000000e+00  -4.7935558278484426e-08 -4.5513300809335355e-07 0.0000000000000000e+00  1.8411334694492361e-08 -5.9730874327350772e-07 0.0000000000000000e+00  -5.4621706894376552e-07 -2.2666451813581970e-06 0.0000000000000000e+00  -2.6296340192967522e-07 4.8256633286695685e-07 0.0000000000000000e+00  -7.5985863779723716e-07 8.1007898992691877e-08 0.0000000000000000e+00  -1.1226849300280478e-06 -8.0182814821085872e-07 0.0000000000000000e+00  -1.0956701792513988e-07 4.3670922007959100e-07 0.0000000000000000e+00  -7.9786666968446522e-07 6.7374573105371119e-07 0.0000000000000000e+00  -1.2643386016840978e-06 -1.1650315510687776e-07 0.0000000000000000e+00  -1.4956977720573862e-06 -1.2543704251165773e-06 0.0000000000000000e+00  -1.3607825921902578e-07 3.5558385713371455e-07 0.0000000000000000e+00  1.4721381114221470e-07 5.1844722613616635e-07 0.0000000000000000e+00  -7.8600070670314766e-07 4.2329045546752256e-08 0.0000000000000000e+00  -5.2801074790180251e-07 8.7006452327559339e-07 0.0000000000000000e+00  -1.4320398731613161e-06 -5.3420086062136394e-07 0.0000000000000000e+00  -1.4364103656134612e-06 -4.2586768366853081e-07 0.0000000000000000e+00  -7.2593365072839285e-07 -1.8850929977040452e-06 0.0000000000000000e+00  -1.0312437903812921e-06 -1.6139975542139683e-06 0.0000000000000000e+00  2.2669104180170138e-08 4.2027042831244966e-07 0.0000000000000000e+00  -1.3187927668373706e-06 -2.4502245061788438e-06 0.0000000000000000e+00  -1.5254632222335721e-06 -2.3440313675168916e-06 0.0000000000000000e+00  -1.6733779083941255e-06 -2.2400730058399994e-06 0.0000000000000000e+00  -1.7409546804298064e-06 -2.1288424638759568e-06 0.0000000000000000e+00  -1.7602215070425222e-06 -1.9875532517703381e-06 0.0000000000000000e+00  -1.7248638659007536e-06 -1.8166032484367107e-06 0.0000000000000000e+00  -1.6413626809745425e-06 -1.6225088829819898e-06 0.0000000000000000e+00  -1.4799329932936968e-06 -1.4259300058262699e-06 0.0000000000000000e+00  -1.2787644636449856e-06 -1.2365620355494078e-06 0.0000000000000000e+00  -1.0387816825975690e-06 -1.0414517054823035e-06 0.0000000000000000e+00  -7.8056818869295776e-07 -8.3861246282926294e-07 0.0000000000000000e+00  -4.8774675707941431e-07 -6.4272373378882581e-07 0.0000000000000000e+00  -2.4801219258674784e-07 -4.1467429018239779e-07 0.0000000000000000e+00  -6.0810625087144461e-08 -1.5370373909382983e-07 0.0000000000000000e+00  2.9950988817618210e-08 1.4152682668382817e-07 0.0000000000000000e+00  -1.0997157903491545e-06 -2.3596079839677090e-06 0.0000000000000000e+00  -1.3021210780697299e-07 6.7157620047944216e-07 0.0000000000000000e+00  -4.1348832556864825e-07 8.5651530671694649e-07 0.0000000000000000e+00  -7.0537609509780610e-07 9.8310839887280957e-07 0.0000000000000000e+00  -1.0365833916999067e-06 1.1595718217020324e-06 0.0000000000000000e+00  -1.2895699540626332e-06 1.3381903839431491e-06 0.0000000000000000e+00  -1.5137259962849339e-06 1.5185990675795279e-06 0.0000000000000000e+00  -1.7084912584126123e-06 1.6830639071985658e-06 0.0000000000000000e+00  -1.8995047502781729e-06 1.8611643392544205e-06 0.0000000000000000e+00  -1.9718605358552219e-06 2.0337119988452663e-06 0.0000000000000000e+00  -1.9978776671499235e-06 2.1881552427036643e-06 0.0000000000000000e+00  -1.9773131673049913e-06 2.3085136605462316e-06 0.0000000000000000e+00  -1.8761694028464535e-06 2.4220202121882445e-06 0.0000000000000000e+00  -1.6989707427069385e-06 2.5425866534791566e-06 0.0000000000000000e+00  -1.4513524155548426e-06 2.6561767156265342e-06 0.0000000000000000e+00  -1.1715939140532831e-06 2.5980457580770839e-06 0.0000000000000000e+00  -5.8306077279473817e-07 2.4080685698179464e-06 0.0000000000000000e+00  -1.3001704277424500e-06 2.3536173570075648e-06 0.0000000000000000e+00  -1.8541003785749268e-06 2.3946151691264813e-06 0.0000000000000000e+00  -1.9956030259827529e-06 2.2476753696203966e-06 0.0000000000000000e+00  -1.9107534039195242e-06 1.9742348497933232e-06 0.0000000000000000e+00  -1.6072728790442274e-06 1.6214089968137048e-06 0.0000000000000000e+00  -1.1041698410635971e-06 1.2923552291868718e-06 0.0000000000000000e+00  -5.2710410841037166e-07 9.5280412834506444e-07 0.0000000000000000e+00  -5.7136168335214047e-08 5.4656703874332272e-07 0.0000000000000000e+00  6.0720079225850712e-09 -1.5407093997002675e-08 0.0000000000000000e+00  -3.6477369212477436e-07 -5.3460192460313121e-07 0.0000000000000000e+00  -8.9638238519096491e-07 -9.5417727795851239e-07 0.0000000000000000e+00  -1.3805412477549871e-06 -1.3379745859593948e-06 0.0000000000000000e+00  -1.6820430972366219e-06 -1.7286923371994573e-06 0.0000000000000000e+00  -1.7555022227355092e-06 -2.0627825259481945e-06 0.0000000000000000e+00  -1.6445661512872412e-06 -2.2111247399539657e-06 0.0000000000000000e+00  -1.1484175177746790e-06 -2.2042002626891434e-06 0.0000000000000000e+00  -1.6909002011379281e-06 2.3610092761394527e-06 0.0000000000000000e+00  -1.9420773681375747e-06 2.3529093312765317e-06 0.0000000000000000e+00  -1.9863326732634639e-06 2.1195259262138894e-06 0.0000000000000000e+00  -1.8754279480804152e-06 1.7050241269836679e-06 0.0000000000000000e+00  -1.3763278574141693e-06 1.4568689517731815e-06 0.0000000000000000e+00  -1.1347726461568870e-06 8.9789740249149882e-07 0.0000000000000000e+00  -2.4923375450406743e-07 7.7639784188303237e-07 0.0000000000000000e+00  9.1786498589302228e-08 2.7058218858210410e-07 0.0000000000000000e+00  -1.3867947005692358e-07 -2.9265302541051571e-07 0.0000000000000000e+00  -6.6618632421141161e-07 -7.1866659989715524e-07 0.0000000000000000e+00  -1.1606605756854567e-06 -1.1409944399705596e-06 0.0000000000000000e+00  -1.5886820410697855e-06 -1.5052541469704000e-06 0.0000000000000000e+00  -1.7495043233510154e-06 -1.9029336884712184e-06 0.0000000000000000e+00  -1.7398457967474610e-06 -2.1651718349476852e-06 0.0000000000000000e+00  -1.5223354990338042e-06 -2.1716498805958828e-06 0.0000000000000000e+00  -2.0037541887048696e-08 -3.7655315756604929e-07 0.0000000000000000e+00  -1.2090678810793927e-06 8.6580700973249572e-07 0.0000000000000000e+00  -8.4401788645189945e-07 -7.8880096484635479e-08 0.0000000000000000e+00  -3.2744058434273894e-07 -5.8210879860408680e-07 0.0000000000000000e+00  -1.6373395992521964e-06 1.3405352316606966e-06 0.0000000000000000e+00  -1.3788171261791554e-06 1.1882460871440924e-07 0.0000000000000000e+00  -9.2134678893994767e-07 -7.9088720842040711e-07 0.0000000000000000e+00  -1.5084379208576998e-07 -5.8591346358473342e-07 0.0000000000000000e+00  -1.1781990629402466e-06 1.7073152256929807e-06 0.0000000000000000e+00  -8.0042045994746298e-07 2.0395440223918776e-06 0.0000000000000000e+00  -1.5610763171947684e-06 4.5875003601295084e-07 0.0000000000000000e+00  -1.5695722517247343e-06 5.9536145553730210e-07 0.0000000000000000e+00  -5.7688627432991490e-07 -9.7935090760823932e-07 0.0000000000000000e+00  -9.2371529571791976e-07 -1.3017140007578505e-08 0.0000000000000000e+00  1.7712773636015059e-07 -6.6632833086760414e-07 0.0000000000000000e+00  -2.1072069035063872e-07 -5.0934720126522238e-07 0.0000000000000000e+00  3.0922180114884326e-07 -3.7987169853890903e-07 0.0000000000000000e+00  3.3451985760866662e-07 4.2455813698007255e-07 0.0000000000000000e+00  8.5305101146846692e-08 3.7848967243562446e-07 0.0000000000000000e+00  1.8373410087051009e-08 3.0931804029387703e-07 0.0000000000000000e+00  -7.2844249548704716e-09 2.3808778809337255e-07 0.0000000000000000e+00  -9.6226006312244944e-09 1.5270118103615148e-07 0.0000000000000000e+00  -1.1974216957059039e-09 6.6255368734530036e-08 0.0000000000000000e+00  -1.5392056096078495e-10 -1.8605093582765467e-08 0.0000000000000000e+00  -5.9936186194404589e-09 -1.0508128206994108e-07 0.0000000000000000e+00  -5.4101397154461363e-09 -1.8910024173041490e-07 0.0000000000000000e+00  1.6904320975998210e-08 -2.6095088789991333e-07 0.0000000000000000e+00  7.7300008915036551e-08 -3.3154274375869807e-07 0.0000000000000000e+00  -2.4361969081928613e-08 4.0875771780262030e-07 0.0000000000000000e+00  3.6773952292652292e-08 4.0820692530648700e-07 0.0000000000000000e+00  4.5897870078792634e-09 2.7148760387435526e-07 0.0000000000000000e+00  -3.1467324048893785e-09 1.0844938737321498e-07 0.0000000000000000e+00  -1.3226568002913426e-09 -6.0702762956714179e-08 0.0000000000000000e+00  4.4623815707247908e-09 -2.2300745293006804e-07 0.0000000000000000e+00  3.4307577424405302e-08 -3.6397480622909331e-07 0.0000000000000000e+00  2.6248486618846749e-08 3.4385629196916515e-07 0.0000000000000000e+00  -1.4948147730034026e-08 1.9064245830889967e-07 0.0000000000000000e+00  2.9861709056395924e-10 2.3833620880851619e-08 0.0000000000000000e+00  -1.0437921458588488e-08 -1.4250281838534966e-07 0.0000000000000000e+00  2.3740086618988074e-08 -2.9632272270240749e-07 0.0000000000000000e+00  -3.5458699056097556e-07 5.9748920005023794e-07 0.0000000000000000e+00  -8.6761130380061193e-07 6.5698390235350337e-08 0.0000000000000000e+00  -1.2033227730712142e-06 -9.1266926354594456e-07 0.0000000000000000e+00  -1.6679471031742577e-07 6.1919620290838791e-07 0.0000000000000000e+00  -9.5994173336534563e-07 7.9237685845682196e-07 0.0000000000000000e+00  -1.3994037032925394e-06 -1.6062848880876090e-07 0.0000000000000000e+00  -1.6000291617948989e-06 -1.4132151873587451e-06 0.0000000000000000e+00  -2.2716617309624616e-07 5.4196283946862960e-07 0.0000000000000000e+00  1.6690003716361335e-07 7.0302916111514417e-07 0.0000000000000000e+00  -9.5407982267287383e-07 1.5645618605694302e-08 0.0000000000000000e+00  -6.2759255223063862e-07 9.8604844476935361e-07 0.0000000000000000e+00  -1.5916723911798497e-06 -6.4281900218468475e-07 0.0000000000000000e+00  -1.5722481523283813e-06 -5.1140520184747119e-07 0.0000000000000000e+00  -7.3053104477168978e-07 -2.0911645827392015e-06 0.0000000000000000e+00  -1.0721824846818787e-06 -1.7955784013240792e-06 0.0000000000000000e+00  -1.1403350972831865e+03 8.6026184995421386e+02 0.0000000000000000e+00  -1.1370933488474941e+03 9.2967944950840149e+02 0.0000000000000000e+00  -9.7026823881080446e+01 -3.6282197908758906e+02 0.0000000000000000e+00  -1.4421348908332141e+03 -2.8829553587886977e+02 0.0000000000000000e+00  -1.2445329607820979e+03 -1.9114856444867436e+02 0.0000000000000000e+00  -1.3962516967871233e+02 -3.4505140923261115e+02 0.0000000000000000e+00  -3.4886956491495323e+02 -5.2624715344115020e+02 0.0000000000000000e+00  -2.3295371464634349e+02 -3.9217614564049171e+02 0.0000000000000000e+00  -2.4767840677506899e+02 4.0485294179972561e+02 0.0000000000000000e+00  -1.4268693707336431e+02 2.5830634106134056e+02 0.0000000000000000e+00  -9.3895411467216047e+02 1.0273178223760161e+02 0.0000000000000000e+00  -4.6909245858192071e+02 4.9651393821689879e+02 0.0000000000000000e+00  -6.8172337149160251e+02 4.5231139248200589e+02 0.0000000000000000e+00  -6.8257731801711699e+01 -4.7876978361325075e+02 0.0000000000000000e+00  -1.7839307068977263e+02 -5.5109849197084304e+02 0.0000000000000000e+00  -1.2309467209462250e+01 -2.8690286794135034e+02 0.0000000000000000e+00  -6.3212788330043486e+02 2.6003497240638517e+01 0.0000000000000000e+00  -4.8155763477292373e+02 -2.5441878810502823e+02 0.0000000000000000e+00  4.2598060508407336e+01 1.4418306241864909e+02 0.0000000000000000e+00  -5.4045479382659067e+00 -2.6220709850117951e+00 0.0000000000000000e+00  -1.0112592439497047e+03 -7.1248787818275488e+01 0.0000000000000000e+00  -4.7893046835496784e+02 2.9107475295778067e+02 0.0000000000000000e+00  -6.8350843452620168e+01 -3.3640340202933578e+02 0.0000000000000000e+00  -1.1164684247571824e+03 7.0393305887761343e+01 0.0000000000000000e+00  -6.9391378404972193e+02 6.7193980332076308e+02 0.0000000000000000e+00  1.0903743925927800e+00 7.3219705251920955e+00 0.0000000000000000e+00  -7.8603070128090667e+02 -7.0749537715970337e+02 0.0000000000000000e+00  -1.2761022749161311e+03 7.5352875535999928e+01 0.0000000000000000e+00  -2.4526621366523199e+02 7.2070885714828307e+02 0.0000000000000000e+00  -1.1241391995730587e+03 -6.6867536763013817e+01 0.0000000000000000e+00  -1.4422967459586923e+03 3.6460944682114689e+02 0.0000000000000000e+00  -9.6458362295506902e+02 -5.9860427826053808e+02 0.0000000000000000e+00  -1.5315502231617781e+03 -5.1280094557292421e+02 0.0000000000000000e+00  -2.7564897316062894e+02 7.1301109181011861e+02 0.0000000000000000e+00  -1.1144810678672011e+03 -7.3062685960007650e+02 0.0000000000000000e+00  -1.1048214197633067e+03 -8.0174299836774492e+02 0.0000000000000000e+00  -8.7254441932990562e+02 5.8512783319949267e+02 0.0000000000000000e+00  -6.2340515122747009e+00 -1.4307350931670388e+02 0.0000000000000000e+00  -1.5114622977360693e+03 5.3089113635708816e+02 0.00