<?xml version="1.0"?>
<VTKFile type="UnstructuredGrid"  version="0.1"  >
<UnstructuredGrid>
<Piece  NumberOfPoints="4153" NumberOfCells="8064">
<Points>
<DataArray  type="Float64"  NumberOfComponents="3"  format="ascii">-0.4024463474789959 -0.4860560628867392 0  -0.0253207394150775 -0.5309207538296916 0  -0.07278929914081927 -0.5276492908451168 0  -0.1201057274593526 -0.5235459682508766 0  -0.1673028834980037 -0.5189642943336581 0  -0.2145197460636528 -0.5141063743843289 0  -0.261707732781702 -0.5080495637706728 0  -0.3087787706911932 -0.501234374182602 0  -0.355716218903075 -0.4938689867058357 0  0.02229109564320119 -0.5330492598538535 0  -0.4490784938702139 -0.4786263192414337 0  -0.4956034483433081 -0.4711320199277117 0  -0.5420085552614414 -0.4637214968670392 0  -0.5882730573243884 -0.4566814247683603 0  -0.6344182590151337 -0.4499633503282174 0  -0.6803871251120445 -0.4437079167514245 0  -0.7261627732920519 -0.4380488699841359 0  0.7502091094652482 -0.4505334884396514 0  0.07001531125972596 -0.5338283374648033 0  0.1178042246979836 -0.5330964772740333 0  0.1655929972502257 -0.5307931860007763 0  0.2133055012613935 -0.5269917055507195 0  0.2608931957296698 -0.521994417367026 0  0.3083344709181881 -0.5159952786517253 0  0.3556082954692912 -0.5092025009427724 0  0.4026980760443378 -0.5019149768277097 0  0.4496126029878055 -0.4943203908645171 0  0.4963568375371551 -0.486620959949393 0  0.5429322752112193 -0.478964161629223 0  0.5893397192269222 -0.4715718470351736 0  0.6355706172697001 -0.4644899690376185 0  0.6816127913705325 -0.4579855738018083 0  0.7274618851047667 -0.4522098783411606 0  0.7045468084501921 -0.4550752585041621 0  -0.7032764370264206 -0.4409339209054354 0  -0.61136560227045 -0.4532821902811663 0  -0.5188211513109275 -0.4674184843780554 0  -0.4257775630137648 -0.48239201886281 0  -0.3322642735639973 -0.4976130560236047 0  -0.2381252005976401 -0.5111794988160624 0  -0.1437150568456123 -0.5212924783015742 0  -0.04907448999528945 -0.5294101992349519 0  0.6586156598928655 -0.4611541495990518 0  0.1417030118422954 -0.5321407534405845 0  0.2371161040554955 -0.5246313802722895 0  0.3319930405412628 -0.5126888399858677 0  0.4261768044417415 -0.4981388403476809 0  0.5196654876851045 -0.4827817648073566 0  0.6124777360217466 -0.4679655173170516 0  0.04614153703136989 -0.5336189335274111 0  -0.7488138708379862 -0.4365025514294276 0  0.5661519244488591 -0.4752342218200137 0  0.4730057909298872 -0.49047440881135 0  0.3791729412782107 -0.5056016832145633 0  0.2846336052600999 -0.519107414660153 0  0.1894644228875169 -0.5290604679103379 0  0.09390549193905415 -0.5336577943739568 0  -0.001530914883008871 -0.5321435664065953 0  -0.09646551343655325 -0.5256804040618909 0  -0.1908895432952969 -0.5166583072668567 0  -0.2852592281305678 -0.5047208148676998 0  -0.3791267753305789 -0.4898954850132853 0  -0.4723551576994602 -0.4748782035307553 0  -0.5651512462682468 -0.4601310513147825 0  -0.6574259913137062 -0.4467687973645529 0  0.9319189035362496 -0.2586285802638616 0  0.8202698701145451 -0.4331240016884269 0  0.8798159081265544 -0.3913249043691217 0  0.9189461451962263 -0.330198378749016 0  0.7853338131205805 -0.4418980875979783 0  0.8504139075924028 -0.4127340628095042 0  0.8988281508806806 -0.3603575892447239 0  0.9250949465556453 -0.2942492255547217 0  0.7678488899248364 -0.4466163477431109 0  0.8027483573933224 -0.4373207418253095 0  0.835353233419093 -0.4230355287609015 0  0.8647932292175724 -0.4015290865882221 0  0.8896561539179264 -0.376007991872195 0  0.9087016168456087 -0.3452318543386987 0  0.9218589803261485 -0.3121526247719777 0  0.928314758636737 -0.2764048475469927 0  0.9317473230822559 -0.23538012261672 0  0.9388449467871262 0.2766612173899831 0  0.9380096809878996 0.2302890057431139 0  0.9378905315636719 0.1839174866566653 0  0.9381438555745062 0.1374596693773965 0  0.9385905125466205 0.09084280021998595 0  0.938507541913622 0.04408669790202979 0  0.9378924187028371 -0.002711221507996561 0  0.9367424630623907 -0.04948853669476543 0  0.9350502919407032 -0.0961440823644779 0  0.9335101436088868 -0.1426442815025873 0  0.9322968233332056 -0.1890384947976266 0  0.9396805770270483 0.2999724723487443 0  0.93830572560987 0.2534675887993624 0  0.9379843537852437 0.160703143605939 0  0.9386170316879358 0.06747414100371665 0  0.9373859162651021 -0.0261068253665481 0  0.9342529160966165 -0.1194096009329446 0  0.9319097380849771 -0.2122109771313211 0  0.9378930540593848 0.2071096812400733 0  0.9383908167243523 0.1141804697861373 0  0.938264719370707 0.02068912387443114 0  0.9359236808090113 -0.07284379060483465 0  0.9328513164773858 -0.1658521267072529 0  0.7639068922396508 0.4963539313936506 0  0.9286010760009291 0.3719869830691581 0  0.8910817447210024 0.4339941130768776 0  0.8329215265066059 0.4772608535360671 0  0.9338336075987542 0.3357696489782428 0  0.9093183005760709 0.4025416534965701 0  0.8624837995159436 0.4561999436706944 0  0.7985573063539561 0.4870084051759964 0  0.9365465435200406 0.3178218127714583 0  0.9310670584553106 0.3537968064978158 0  0.91877020941261 0.3872026149337212 0  0.9005722272167845 0.4184461772580815 0  0.8764498684045765 0.4445429106023507 0  0.8477202817457463 0.4668360606044917 0  0.8156980971387515 0.4819593863522451 0  0.7813180168027134 0.4921615913366104 0  -0.02125187734945076 0.6301231167689869 0  0.6961959383284807 0.5072102466125359 0  0.6505806451212856 0.5163559760457967 0  0.604674701388489 0.5263156493223285 0  0.5584979660288965 0.5369515012437264 0  0.5120053878689682 0.5481595974285935 0  0.4651879591603947 0.5596474885093177 0  0.4180281747578477 0.5712120427521892 0  0.370507183595894 0.5826833924729276 0  0.32258439400652 0.5936840747772772 0  0.2742830859696826 0.6038301961993708 0  0.2256225243434224 0.6128190375879923 0  0.1766219961685147 0.6204160433367649 0  0.127337148410238 0.6260289391384194 0  0.0778772224987538 0.6295142158191624 0  0.02833484609224465 0.6308210980155913 0  0.7415243290967535 0.4990128997015343 0  -0.07076847581343615 0.6267586273874204 0  -0.1200520273879609 0.6211621052695306 0  -0.1690096462555565 0.6136744087249441 0  -0.2175129071065785 0.6045145301656947 0  -0.2655839293890602 0.5951042318610251 0  -0.3133313283608422 0.5854057809766612 0  -0.3607928595013216 0.5755259185803006 0  -0.4079713269123097 0.5655983619195846 0  -0.4549222146399438 0.5559244680601141 0  -0.5016648997432336 0.5464449372386587 0  -0.5482037009727903 0.5372374708537178 0  -0.5945345850395769 0.5283957935003505 0  -0.6406400950504628 0.5200422843116871 0  -0.6865056467265849 0.5123766441583505 0  -0.7321237394473412 0.5055091934484125 0  -0.7546889799214185 0.5034364252587963 0  -0.7093261423854773 0.5089497286936145 0  -0.6176160876152876 0.5241424269254571 0  -0.5249599648207404 0.5418019492799664 0  -0.431474108057853 0.5607484584189805 0  -0.3370960866826234 0.5804848165293436 0  -0.2415934533182757 0.5998662875711549 0  -0.1445773825121695 0.6176253564142632 0  -0.04603143568005728 0.6287323569268692 0  0.05311188671740992 0.6304455333285519 0  0.1520077667140119 0.6234771681431917 0  0.2499964707410375 0.6084932133307588 0  0.3465935836471406 0.5882768877880414 0  0.4416523700691986 0.5654374995458686 0  0.5352907471259836 0.5425145402880526 0  0.6276637556658827 0.5212534422685493 0  0.7188724421845833 0.5031251085588528 0  -0.6636034508097524 0.5161138580332595 0  -0.5713952848195046 0.5327678852152451 0  -0.4783190879162236 0.551156038691433 0  -0.3844196143723943 0.5705287120739819 0  -0.2894952316672431 0.5902846216230653 0  -0.1933449600753188 0.6092010999954629 0  -0.09544579233135693 0.6242167797477283 0  0.003560409059397782 0.630770433796334 0  0.10262307378079 0.6280443442199366 0  0.2011700253673341 0.6168272319925526 0  0.2984800703815925 0.5988828155827233 0  0.3943167902636073 0.5769636315226256 0  0.4886383031616344 0.5538811128214015 0  0.5816209519951711 0.5315327604167527 0  0.67342427645947 0.5116716046767561 0  -0.9335656849083627 0.3100331169786126 0  -0.8243041243132808 0.485516252350923 0  -0.8832622827495448 0.4431830493395642 0  -0.9216239666531526 0.3817361031636439 0  -0.789623229300331 0.4946635850163892 0  -0.8542405744981949 0.4649466282684833 0  -0.9018642846187204 0.4120063233681689 0  -0.9272553032272207 0.3456828409970697 0  -0.7722417512508553 0.4995293219980879 0  -0.8069163237764199 0.4899164616273805 0  -0.8392880181414319 0.4753517247677357 0  -0.8684091002718044 0.4535153814033444 0  -0.8929446019435318 0.4277839579434357 0  -0.9115477063405905 0.3968182111753796 0  -0.9242821165534345 0.3636309433006469 0  -0.9301829064257778 0.3278108747549375 0  -0.9329902890923468 0.2867839964673838 0  -0.9303753589169976 -0.2235282829541766 0  -0.9306031616344866 -0.1773118670457787 0  -0.9314670683064731 -0.1310723156869963 0  -0.9326518964926288 -0.08474760601213532 0  -0.9340133326883123 -0.03827319173911945 0  -0.9347833164896313 0.008327171513371749 0  -0.9349812539054765 0.054950858518909 0  -0.9346168246791837 0.1015391922777064 0  -0.9336952489832842 0.1479952211822691 0  -0.9329785134412164 0.1943029137944069 0  -0.9326319339025463 0.2405389617122071 0  -0.930686200470354 -0.246730641330155 0  -0.930380468651934 -0.2004176047908479 0  -0.9320316250090379 -0.1079234827346078 0  -0.9344720778367044 -0.01498011631323475 0  -0.9348708504371164 0.07825341819241656 0  -0.9333034433290359 0.1711617826575758 0  -0.9326889329874645 0.2636541820355052 0  -0.9309853565676783 -0.1541996399408395 0  -0.9333606011572149 -0.06153941112635379 0  -0.9349509128424727 0.03163982090580084 0  -0.9341801732860885 0.1247959263632674 0  -0.9327495657282313 0.2174256774505862 0  -0.9178939152208956 -0.3181673364574172 0  -0.8786439377955702 -0.3789888133996797 0  -0.8189552868415032 -0.420271034066867 0  -0.924020553497383 -0.2822947632465142 0  -0.89777930156209 -0.3482314701211306 0  -0.8492307874231753 -0.4002608748517145 0  -0.78398374472675 -0.428675198907905 0  -0.9271753304639339 -0.2644792379995018 0  -0.9208104881010404 -
[...]
<PointData  Vectors="f_48"> 
<DataArray  type="Float64"  Name="f_48"  NumberOfComponents="3" format="ascii">-4.7392090893271489e-07 -3.0596146918380992e-06 0.0000000000000000e+00  7.2845881378161017e-08 6.2448094332576762e-07 0.0000000000000000e+00  3.0531510768060123e-09 3.0915358698672193e-08 0.0000000000000000e+00  -8.8798244909413983e-08 -5.6222682172061220e-07 0.0000000000000000e+00  -1.8825224585514022e-07 -1.1371171155867836e-06 0.0000000000000000e+00  -4.8785052125461534e-08 -1.6669303833227224e-06 0.0000000000000000e+00  -1.2508313708764608e-07 -2.1122309627801035e-06 0.0000000000000000e+00  -1.8006432912147963e-07 -2.5067309873025669e-06 0.0000000000000000e+00  -2.1948179671051583e-07 -2.8236302106096220e-06 0.0000000000000000e+00  9.5819972612817377e-08 1.2022111446694503e-06 0.0000000000000000e+00  -5.1674179830947817e-07 -3.2312608828612543e-06 0.0000000000000000e+00  -4.7345348417164554e-07 -3.3792317862327486e-06 0.0000000000000000e+00  -4.4150446480123612e-07 -3.4615282343252428e-06 0.0000000000000000e+00  -4.6414359108312583e-07 -3.4220754468656896e-06 0.0000000000000000e+00  -3.5199282413222623e-07 -3.3841119085424669e-06 0.0000000000000000e+00  -4.0674797074799114e-08 -3.3433022686048175e-06 0.0000000000000000e+00  4.7377215037734169e-07 -3.3249426958496669e-06 0.0000000000000000e+00  -2.9788461255972987e-07 2.6616839907499884e-06 0.0000000000000000e+00  5.2380411080259282e-08 1.7462658575877458e-06 0.0000000000000000e+00  -6.3270343782645245e-08 2.2420758998081863e-06 0.0000000000000000e+00  -2.3510888486224504e-07 2.6797325671342107e-06 0.0000000000000000e+00  -4.4524907824211948e-07 3.0631355176488403e-06 0.0000000000000000e+00  -6.1415837946818156e-07 3.3856850651941768e-06 0.0000000000000000e+00  -7.6156649403590864e-07 3.6497640949430723e-06 0.0000000000000000e+00  -8.8647541380641482e-07 3.8575268036742999e-06 0.0000000000000000e+00  -9.8364400088310357e-07 3.9926332879287511e-06 0.0000000000000000e+00  -1.0009756825908577e-06 4.0936964531528285e-06 0.0000000000000000e+00  -9.8224203856038590e-07 4.1362365668731370e-06 0.0000000000000000e+00  -9.3248252977932591e-07 4.1253747925045347e-06 0.0000000000000000e+00  -8.0936857571965896e-07 4.0454939442380320e-06 0.0000000000000000e+00  -6.3811547711148881e-07 3.9255940604524945e-06 0.0000000000000000e+00  -2.8824179943834924e-07 3.7850746210680326e-06 0.0000000000000000e+00  4.0833832282359789e-07 3.6915939112858512e-06 0.0000000000000000e+00  -6.8386153224409100e-07 3.3378928286659429e-06 0.0000000000000000e+00  -4.7283362078370954e-07 -2.9048993584994609e-06 0.0000000000000000e+00  -4.4951034656484884e-07 -3.3943778593778638e-06 0.0000000000000000e+00  -4.6979937375102000e-07 -3.4146086100073637e-06 0.0000000000000000e+00  -4.1192152410267466e-07 -3.1559411262731724e-06 0.0000000000000000e+00  -1.5864345942267484e-07 -2.7071345351799504e-06 0.0000000000000000e+00  -1.3763784772933225e-07 -1.8819909310690791e-06 0.0000000000000000e+00  -1.1623369858398014e-07 -8.5017907256224345e-07 0.0000000000000000e+00  4.3478924146267506e-08 3.2878594807226979e-07 0.0000000000000000e+00  -6.5524808129771315e-07 3.7739932427634101e-06 0.0000000000000000e+00  -1.4466755455525091e-07 2.4688298903452957e-06 0.0000000000000000e+00  -5.2807570802569744e-07 3.2322074661520474e-06 0.0000000000000000e+00  -8.3880604680334535e-07 3.7513362533547705e-06 0.0000000000000000e+00  -1.0055851152194180e-06 4.0503300766022822e-06 0.0000000000000000e+00  -9.7367388988838545e-07 4.1251569054387798e-06 0.0000000000000000e+00  -7.7339612929594306e-07 3.9825141389461687e-06 0.0000000000000000e+00  8.3724627276201007e-08 1.4796230882549252e-06 0.0000000000000000e+00  -7.7245431248793286e-08 -2.4103866456357312e-06 0.0000000000000000e+00  -8.7321444847753278e-07 4.0841009826729465e-06 0.0000000000000000e+00  -1.0052009354451322e-06 4.1177142868954789e-06 0.0000000000000000e+00  -9.4113108869689370e-07 3.9302702113849213e-06 0.0000000000000000e+00  -6.9583786614724863e-07 3.5226280057343274e-06 0.0000000000000000e+00  -3.6285297073492980e-07 2.8770129678141230e-06 0.0000000000000000e+00  2.7700247211345513e-09 2.0009386319962419e-06 0.0000000000000000e+00  9.1123053345343229e-08 9.1682332734345902e-07 0.0000000000000000e+00  -4.0800584527098408e-08 -2.6660306695007606e-07 0.0000000000000000e+00  -1.7234885546409086e-09 -1.3959522246359053e-06 0.0000000000000000e+00  -1.6333973723905099e-07 -2.3155517927282463e-06 0.0000000000000000e+00  -4.7759885609651514e-07 -2.9634098382149246e-06 0.0000000000000000e+00  -4.6450208151870719e-07 -3.3177818049343196e-06 0.0000000000000000e+00  -4.3594652886821575e-07 -3.4637483208516454e-06 0.0000000000000000e+00  -4.1035942305668630e-07 -3.2603208457410074e-06 0.0000000000000000e+00  -9.3553039414971221e-08 -8.6408605398094899e-07 0.0000000000000000e+00  -1.4381669295611272e-06 1.3598167894622431e-06 0.0000000000000000e+00  -1.2013792322565143e-06 -2.4370729433901928e-08 0.0000000000000000e+00  -6.6068168615217766e-07 -8.9747393868800420e-07 0.0000000000000000e+00  -1.4677939568539829e-06 2.3153265129749452e-06 0.0000000000000000e+00  -1.9417376760535764e-06 4.8903082023851240e-07 0.0000000000000000e+00  -1.5077370013589159e-06 -8.2656271707177505e-07 0.0000000000000000e+00  -3.7152782424232118e-07 -1.1098038552802519e-06 0.0000000000000000e+00  -1.4592765084851572e-06 2.2973419258023248e-06 0.0000000000000000e+00  -3.5371372110363470e-07 2.6625309241418415e-06 0.0000000000000000e+00  -1.9832204754670131e-06 6.0431529097059988e-07 0.0000000000000000e+00  -1.8501482709936258e-06 1.2618559863174080e-06 0.0000000000000000e+00  -1.0896126748668255e-06 -1.4231858560363414e-06 0.0000000000000000e+00  -1.3457784516584658e-06 -1.0536132729276992e-07 0.0000000000000000e+00  1.8803343115928431e-07 -1.2278009386071875e-06 0.0000000000000000e+00  -4.8830396666971818e-07 -9.6340269983986462e-07 0.0000000000000000e+00  5.8779110779170681e-07 -9.9479249875302847e-07 0.0000000000000000e+00  2.8235750546331040e-07 3.0846061925373806e-07 0.0000000000000000e+00  7.3747457991872638e-08 1.8634976206097704e-07 0.0000000000000000e+00  1.8616124880839117e-08 4.2777743661359714e-08 0.0000000000000000e+00  9.6935757031119484e-10 -1.0232369730713752e-07 0.0000000000000000e+00  3.7782082147150188e-09 -2.4730659248081596e-07 0.0000000000000000e+00  -5.7196870241935643e-09 -3.9437501284602442e-07 0.0000000000000000e+00  -1.9207435702555230e-08 -5.3226044818155131e-07 0.0000000000000000e+00  -4.2738791117780837e-08 -6.6208632595839706e-07 0.0000000000000000e+00  -3.5225729881809546e-09 -7.9119832380949562e-07 0.0000000000000000e+00  4.8773111858051054e-08 -8.8794024698070035e-07 0.0000000000000000e+00  1.6847775562675474e-07 -9.6113344868154896e-07 0.0000000000000000e+00  -5.0010195234553333e-09 3.6056693270713126e-07 0.0000000000000000e+00  4.1116036794552408e-08 2.5832635142589627e-07 0.0000000000000000e+00  6.7800566143656242e-09 -3.1271732686913827e-08 0.0000000000000000e+00  -1.6352775505376033e-09 -3.2347519061121548e-07 0.0000000000000000e+00  -2.4098687392640716e-08 -5.9817853695778453e-07 0.0000000000000000e+00  1.7371158913845164e-08 -8.3972034995232761e-07 0.0000000000000000e+00  6.0359374427051974e-08 -9.7551178077042155e-07 0.0000000000000000e+00  2.7435734815238870e-08 1.1606842528193994e-07 0.0000000000000000e+00  3.7862492833933690e-09 -1.8268944208111470e-07 0.0000000000000000e+00  -1.1421578532035273e-08 -4.6449032841106035e-07 0.0000000000000000e+00  -3.6506744465468085e-08 -7.2159874106856275e-07 0.0000000000000000e+00  6.1685022733846264e-08 -9.2702222599003511e-07 0.0000000000000000e+00  -2.5756670935872589e-07 -2.2574848033821199e-06 0.0000000000000000e+00  -3.8570243909483203e-07 6.0208641113886625e-07 0.0000000000000000e+00  -9.1326245798055126e-07 7.7000276066066303e-08 0.0000000000000000e+00  -1.2486962439780815e-06 -1.0448492325011047e-06 0.0000000000000000e+00  -1.6870935782752287e-07 6.0266497250878660e-07 0.0000000000000000e+00  -1.0443619659857355e-06 6.4170486200493830e-07 0.0000000000000000e+00  -1.5502293721839222e-06 -2.9637884534986553e-07 0.0000000000000000e+00  -1.3151312457781883e-06 -1.8206655716634944e-06 0.0000000000000000e+00  -2.0912557484250644e-07 4.7688279081854085e-07 0.0000000000000000e+00  1.6163281829384788e-07 7.0185357386560726e-07 0.0000000000000000e+00  -9.2564589528309696e-07 1.0748676135102090e-07 0.0000000000000000e+00  -7.4539560506422938e-07 1.0932609367990250e-06 0.0000000000000000e+00  -1.5317793368087054e-06 -8.9690925713912512e-07 0.0000000000000000e+00  -1.6207053529940390e-06 -4.3205189802632272e-07 0.0000000000000000e+00  -4.0267385940581874e-07 -2.1931147150370631e-06 0.0000000000000000e+00  -1.2536454901723630e-06 -1.8631155950420024e-06 0.0000000000000000e+00  2.0088598587745422e-08 -4.3030400313796901e-07 0.0000000000000000e+00  -4.0393856293285753e-07 -3.1667766610743236e-06 0.0000000000000000e+00  -7.6673572276275909e-07 -3.1934320220071770e-06 0.0000000000000000e+00  -9.4939288716896751e-07 -3.2508619192644307e-06 0.0000000000000000e+00  -1.0231410385431573e-06 -3.3136908049188900e-06 0.0000000000000000e+00  -1.1135499149867777e-06 -3.2913654236150022e-06 0.0000000000000000e+00  -1.1798831603798937e-06 -3.2239602356238836e-06 0.0000000000000000e+00  -1.1979682762308492e-06 -3.1240527223941843e-06 0.0000000000000000e+00  -1.1511296778477157e-06 -2.9890460588559053e-06 0.0000000000000000e+00  -1.0571151317513881e-06 -2.8209936181045968e-06 0.0000000000000000e+00  -9.3834062088074035e-07 -2.6066350999447946e-06 0.0000000000000000e+00  -7.6799272759563386e-07 -2.3594935446658749e-06 0.0000000000000000e+00  -5.6326572855402652e-07 -2.0544389650909556e-06 0.0000000000000000e+00  -3.4534269609575435e-07 -1.7257401532101867e-06 0.0000000000000000e+00  -1.6540048491051086e-07 -1.3385755333442055e-06 0.0000000000000000e+00  -4.5765361171095711e-08 -9.0067093915760599e-07 0.0000000000000000e+00  1.2463523882505011e-07 -3.1806761279924514e-06 0.0000000000000000e+00  -4.2718540113989266e-10 2.9828592184487625e-08 0.0000000000000000e+00  -9.9376663966827095e-08 4.9411882776564257e-07 0.0000000000000000e+00  -2.3686248758390964e-07 9.4066739711429677e-07 0.0000000000000000e+00  -4.5503855223865891e-07 1.3961988419319715e-06 0.0000000000000000e+00  -5.6885322446878118e-07 1.8362616038812402e-06 0.0000000000000000e+00  -6.5128758491925307e-07 2.2296467412683699e-06 0.0000000000000000e+00  -7.1703605572861986e-07 2.5596284783947743e-06 0.0000000000000000e+00  -8.6860237789856630e-07 2.7914740512297559e-06 0.0000000000000000e+00  -8.8304299741811237e-07 2.9948046383716931e-06 0.0000000000000000e+00  -8.7010446896970698e-07 3.1370497951377450e-06 0.0000000000000000e+00  -8.3413116191125906e-07 3.2179798659041480e-06 0.0000000000000000e+00  -7.4156065641242408e-07 3.2479683410815929e-06 0.0000000000000000e+00  -5.9908818107627978e-07 3.2220549444250454e-06 0.0000000000000000e+00  -2.8600668066625661e-07 3.1931616231865078e-06 0.0000000000000000e+00  2.5173511758645716e-07 3.1994650872889023e-06 0.0000000000000000e+00  -2.1212480053140152e-07 2.3097719789539485e-06 0.0000000000000000e+00  -6.4395399941798492e-07 2.7733136969355910e-06 0.0000000000000000e+00  -7.0637195416948826e-07 3.2277831172327955e-06 0.0000000000000000e+00  -8.5445776041360525e-07 3.1847920726305441e-06 0.0000000000000000e+00  -8.5609766259036411e-07 2.9069213122232384e-06 0.0000000000000000e+00  -6.8676157021513289e-07 2.4052692969177078e-06 0.0000000000000000e+00  -4.8243223553222857e-07 1.6324680622155121e-06 0.0000000000000000e+00  -1.6193857328059797e-07 7.3069215645181635e-07 0.0000000000000000e+00  2.2953061870358888e-08 -2.0637521225961620e-07 0.0000000000000000e+00  -7.7426084804849193e-08 -1.1272074748671961e-06 0.0000000000000000e+00  -4.4027964439206111e-07 -1.9035619241802088e-06 0.0000000000000000e+00  -8.4405703373442626e-07 -2.4902391147565666e-06 0.0000000000000000e+00  -1.1072106214320586e-06 -2.9082916019606782e-06 0.0000000000000000e+00  -1.1913503573497134e-06 -3.1771664396943639e-06 0.0000000000000000e+00  -1.0778750085793482e-06 -3.2996969041288499e-06 0.0000000000000000e+00  -8.8915894351221938e-07 -3.2074479289712611e-06 0.0000000000000000e+00  -7.4097789176250915e-07 -2.6885225340024348e-06 0.0000000000000000e+00  -6.2356665306734177e-07 3.1110877041611184e-06 0.0000000000000000e+00  -7.9576772563158958e-07 3.2358230713780820e-06 0.0000000000000000e+00  -8.7169229028541002e-07 3.0762800838856178e-06 0.0000000000000000e+00  -8.2048176704959500e-07 2.6879175839848377e-06 0.0000000000000000e+00  -5.9781137345383378e-07 2.0456701514134690e-06 0.0000000000000000e+00  -4.4747005996844948e-07 1.1583764129656504e-06 0.0000000000000000e+00  -3.9672269549262938e-08 2.6376068251229999e-07 0.0000000000000000e+00  -5.6378887982972397e-08 -6.8239935056997895e-07 0.0000000000000000e+00  -2.3448719544732222e-07 -1.5414731409234825e-06 0.0000000000000000e+00  -7.2592367457993468e-07 -2.1976504468509070e-06 0.0000000000000000e+00  -9.9917043103802680e-07 -2.7191054990264190e-06 0.0000000000000000e+00  -1.1980436738621151e-06 -3.0579940610563787e-06 0.0000000000000000e+00  -1.1528333535901871e-06 -3.2595653657493427e-06 0.0000000000000000e+00  -9.8203509545856523e-07 -3.2998135269909539e-06 0.0000000000000000e+00  -7.7407862826183610e-07 -3.0549160797394404e-06 0.0000000000000000e+00  -3.3654240872209091e-08 -4.9133394506474430e-07 0.0000000000000000e+00  -1.2608659296289150e-06 1.1311503310906543e-06 0.0000000000000000e+00  -9.8168776405269047e-07 -4.5526290268560524e-08 0.0000000000000000e+00  -4.6094932890199073e-07 -6.7565037173341027e-07 0.0000000000000000e+00  -1.3013369569352590e-06 1.9331134467606191e-06 0.0000000000000000e+00  -1.6264499982387279e-06 3.5939615517269856e-07 0.0000000000000000e+00  -1.1684335452093407e-06 -6.8147653237544106e-07 0.0000000000000000e+00  -2.2115568508473741e-07 -7.3187295483196568e-07 0.0000000000000000e+00  -1.2433447962288870e-06 1.9498041510025744e-06 0.0000000000000000e+00  -3.6015177369302275e-07 2.2718469081149558e-06 0.0000000000000000e+00  -1.6836689677914933e-06 5.1004852384815255e-07 0.0000000000000000e+00  -1.5890993605832508e-06 9.9753395003131978e-07 0.0000000000000000e+00  -8.3318506189145330e-07 -1.1666520674899222e-06 0.0000000000000000e+00  -1.0316346235691635e-06 -8.3139800721158324e-08 0.0000000000000000e+00  1.6881755003815172e-07 -8.3448523717488820e-07 0.0000000000000000e+00  -2.8634083270277303e-07 -6.0200384428169593e-07 0.0000000000000000e+00  3.7214814160821184e-07 -4.8675321323012249e-07 0.0000000000000000e+00  4.4261257172411351e-07 6.5399283892639630e-07 0.0000000000000000e+00  1.2758916798767937e-07 5.8061536685680521e-07 0.0000000000000000e+00  4.1137600405672963e-08 4.8567004705255611e-07 0.0000000000000000e+00  5.3131124557137191e-09 3.8392161273349748e-07 0.0000000000000000e+00  -1.3101769864330887e-08 2.6830021656524301e-07 0.0000000000000000e+00  -2.9653264073195308e-09 1.5367051580603895e-07 0.0000000000000000e+00  2.3464721940989962e-10 3.9662576672162492e-08 0.0000000000000000e+00  -1.9134454942228664e-09 -7.6929163332155602e-08 0.0000000000000000e+00  7.7337635844815928e-09 -1.9229500350406737e-07 0.0000000000000000e+00  3.5885873178569313e-08 -3.0001165317351842e-07 0.0000000000000000e+00  1.0700708425676418e-07 -4.0419965765110068e-07 0.0000000000000000e+00  -5.5845732661491568e-08 6.1063728868634950e-07 0.0000000000000000e+00  5.3412340218875370e-08 6.1937338626369265e-07 0.0000000000000000e+00  2.0071455363740546e-08 4.3350266533518999e-07 0.0000000000000000e+00  -4.5925069114851242e-09 2.1018380405459630e-07 0.0000000000000000e+00  8.2759056687001266e-10 -1.7277955591001340e-08 0.0000000000000000e+00  1.8761056219261771e-08 -2.4481448589858983e-07 0.0000000000000000e+00  5.3260716042520887e-08 -4.5487443004355684e-07 0.0000000000000000e+00  5.1326508363106946e-08 5.3430243153295084e-07 0.0000000000000000e+00  -1.1543648429997112e-08 3.2043954495483199e-07 0.0000000000000000e+00  -4.6750622329168551e-10 9.6806426090527768e-08 0.0000000000000000e+00  -9.8781318750864684e-10 -1.2897365499021920e-07 0.0000000000000000e+00  4.5571377036635878e-08 -3.5361777183028533e-07 0.0000000000000000e+00  -5.4189660937529048e-07 7.3427724994346464e-07 0.0000000000000000e+00  -1.0517739247305071e-06 1.9410043017711850e-08 0.0000000000000000e+00  -1.2706772485197975e-06 -1.2380482460274607e-06 0.0000000000000000e+00  -2.8441568206697427e-07 8.4745759766719871e-07 0.0000000000000000e+00  -1.2858432242365328e-06 6.9243961009344006e-07 0.0000000000000000e+00  -1.7035984652748930e-06 -4.5414200959078181e-07 0.0000000000000000e+00  -1.2413920060978883e-06 -2.0739456978701584e-06 0.0000000000000000e+00  -3.5388977018647744e-07 7.1302847277914203e-07 0.0000000000000000e+00  1.4954608007855445e-07 9.6180353837952367e-07 0.0000000000000000e+00  -1.1317622138855672e-06 8.7253083526838006e-08 0.0000000000000000e+00  -9.5459569731921336e-07 1.2162953667971042e-06 0.0000000000000000e+00  -1.6400550533705658e-06 -1.1264541296655344e-06 0.0000000000000000e+00  -1.7469169371735478e-06 -5.8808254612136598e-07 0.0000000000000000e+00  -2.5381307886493045e-07 -2.3813322129666606e-06 0.0000000000000000e+00  -1.1667750068509130e-06 -2.1009189902865721e-06 0.0000000000000000e+00  -8.6389693527254246e+02 5.8879662739622893e+02 0.0000000000000000e+00  -1.3283434423767478e+03 1.6738676606899426e+03 0.0000000000000000e+00  4.9699228352306086e+01 1.2479800684645372e+02 0.0000000000000000e+00  -1.4139505860683666e+03 -4.8344798192457927e+02 0.0000000000000000e+00  -1.5174518564116172e+03 -5.3318321762344158e+02 0.0000000000000000e+00  -1.7076453547015237e+02 -1.2102782914258719e+03 0.0000000000000000e+00  -5.4583956859485102e+02 -7.1837335194682646e+02 0.0000000000000000e+00  -2.7939878964444478e+02 -4.2725259004046404e+02 0.0000000000000000e+00  -3.5087558292858216e+02 5.0020068037536186e+02 0.0000000000000000e+00  -1.8202884159756286e+02 3.0372112510186537e+02 0.0000000000000000e+00  -1.1578047918114687e+03 -5.4675089291107746e+01 0.0000000000000000e+00  -5.5390641492800034e+02 5.2384788830959110e+02 0.0000000000000000e+00  -8.4956182204805282e+02 4.7382010139074623e+02 0.0000000000000000e+00  -1.9864855757231527e+02 -8.8952927327591169e+02 0.0000000000000000e+00  -7.2898470631956093e+02 -1.0815370153867304e+03 0.0000000000000000e+00  -3.6941476788732110e+01 -5.0998946709254295e+02 0.0000000000000000e+00  -1.1370084225237999e+03 -6.0378171259713338e+02 0.0000000000000000e+00  -9.4285640319047002e+02 9.7306836404138824e+02 0.0000000000000000e+00  2.7734202297916295e+02 -5.7646247072658139e+02 0.0000000000000000e+00  2.4537229756118145e+02 2.3622368435538800e+02 0.0000000000000000e+00  -5.0692560449416141e+02 -1.4071398374485705e+02 0.0000000000000000e+00  -2.2794115638258708e+02 1.9266608829270177e+02 0.0000000000000000e+00  -4.1484991883320568e+01 -2.2389863168111697e+02 0.0000000000000000e+00  -1.2774833586597831e+03 -1.5814490403643183e+02 0.0000000000000000e+00  -8.1463183185448963e+02 7.0363490165985377e+02 0.0000000000000000e+00  -2.7547960846802383e-01 7.4216901473656023e+01 0.0000000000000000e+00  -7.8665804201064043e+02 -6.5494983376555274e+02 0.0000000000000000e+00  -1.6110913603392644e+03 4.1577039759696697e+02 0.0000000000000000e+00  -6.4994762331955636e-01 3.1279439143732399e+00 0.0000000000000000e+00  -1.2047026548127535e+03 1.2834634019185441e+02 0.0000000000000000e+00  -1.3098511277886359e+03 5.0160786655735785e+02 0.0000000000000000e+00  -1.2549182684388595e+03 -1.2207096360644377e+03 0.0000000000000000e+00  -2.3983198586116960e+03 -3.2804192152813283e+02 0.0000000000000000e+00  -2.8620082577945340e+02 1.4407603142952082e+03 0.0000000000000000e+00  -8.9364715295291853e+02 -5.1328563435345472e+02 0.0000000000000000e+00  -1.7069190346945015e+03 -9.2290758175758481e+02 0.0000000000000000e+00  -7.5807986277492068e+02 5.5681319783967308e+02 0.0000000000000000e+00  -9.1701847030587869e-01 -6.0212541168702124e+01 0.0000000000000000e+00  -1.8001498283683852e+03 1.1441360493871680e+03 0.0000000000000