<?xml version="1.0"?>
<VTKFile type="UnstructuredGrid"  version="0.1"  >
<UnstructuredGrid>
<Piece  NumberOfPoints="4153" NumberOfCells="8064">
<Points>
<DataArray  type="Float64"  NumberOfComponents="3"  format="ascii">-0.4163753685666401 -0.6435472148367701 0  -0.03734872271974865 -0.8244257364521125 0  -0.09178551276391997 -0.818457751182717 0  -0.1449719966516075 -0.8064312853690808 0  -0.1963175907826206 -0.7889760074826598 0  -0.2457694888259481 -0.7677628906887681 0  -0.2926150226406318 -0.7409902186596657 0  -0.3366133360982396 -0.7107622522666999 0  -0.3777372529018833 -0.6779769935952153 0  0.01754512483808837 -0.8239562009864075 0  -0.4524390349539988 -0.6091280153345203 0  -0.4866108051806904 -0.5747722874907163 0  -0.5189661337940604 -0.540781612363038 0  -0.5498031651963317 -0.5076581060499683 0  -0.579522093563997 -0.4760068432936878 0  -0.608444217736704 -0.4461846357426474 0  -0.6366833024714916 -0.4189680036714009 0  0.6336706182154499 -0.4140575219202738 0  0.07205090415314452 -0.8171136992552734 0  0.1253606954773185 -0.8041785966427407 0  0.176781646352915 -0.7857389308268714 0  0.2257740700922893 -0.7624919997958085 0  0.2720997991638845 -0.73566480647598 0  0.3157007233271992 -0.7060655444835564 0  0.3566595941414945 -0.6745392243517886 0  0.39510403502786 -0.6417707327526879 0  0.4314170463840056 -0.6086243272988328 0  0.4658673056654709 -0.5755574913377168 0  0.4987551276015014 -0.5430010425438287 0  0.5303053974688163 -0.5113231369919823 0  0.5608621488041509 -0.4808491148543753 0  0.5905861927304319 -0.452042579758285 0  0.6197237952271477 -0.4257448942840699 0  0.6049455307691146 -0.4387654357150791 0  -0.6223461436360673 -0.4323535528639741 0  -0.5647578903877104 -0.4917536693667204 0  -0.5029883547541659 -0.5577071465982805 0  -0.4346338580879263 -0.6263155321443404 0  -0.3575586331092326 -0.6945308117889708 0  -0.2695129298455099 -0.7548465554410185 0  -0.1709083080509775 -0.7984726045434409 0  -0.06467717644977249 -0.822232558387667 0  0.5757424428688604 -0.4664311036474802 0  0.1513433389608576 -0.7955901525306166 0  0.2492796246526565 -0.7494863110066718 0  0.3364876346875806 -0.6904874070178696 0  0.4135155546476307 -0.6252288563505245 0  0.4824809531010391 -0.5592116962671674 0  0.5457174552853334 -0.4960502858093989 0  0.04489901476742201 -0.8213226993568578 0  -0.6502633888795999 -0.4068614472244637 0  0.5146832241734598 -0.5270523662621101 0  0.4488537717914799 -0.5920647329981126 0  0.3761870257035326 -0.6582466817923565 0  0.2942382297443316 -0.7211668182807367 0  0.2016204982923248 -0.7746643410285788 0  0.09890218746689414 -0.8113756809206831 0  -0.00990368141423548 -0.8250025490076383 0  -0.1185797318346781 -0.8131941948310752 0  -0.2211501247121334 -0.778832283332332 0  -0.3148955061364006 -0.7260694268788332 0  -0.3976844783218608 -0.6613536407760521 0  -0.4697713341183258 -0.5919530410491174 0  -0.5345868267989383 -0.5241291696192574 0  -0.593971717078429 -0.4610288986925113 0  0.750292183555639 -0.2249882238479857 0  0.6788587552616319 -0.3798811244208865 0  0.7185454318613526 -0.3366257923802148 0  0.7436237768372495 -0.2843455883331452 0  0.656833929598622 -0.3974435281902923 0  0.6998729529004246 -0.3595937872882278 0  0.7290310377272142 -0.3088942059117504 0  0.7456839953132969 -0.254281117662963 0  0.6450915740446754 -0.4059877368149003 0  0.6678312302527425 -0.3878334437104037 0  0.6895028189709489 -0.3698891300001739 0  0.7089244113805864 -0.3472569566525381 0  0.7266127245695497 -0.3241762178574223 0  0.7353392747686261 -0.2964177201547553 0  0.743416975749712 -0.2690313841800145 0  0.7472869458221733 -0.2394714218473038 0  0.7499687628458529 -0.2058020304837076 0  0.7530792185259553 0.2267639612716033 0  0.7542084224537686 0.1886220549809987 0  0.7565815022963948 0.1499691385831667 0  0.7592152813870696 0.1107373457225047 0  0.7618262835810258 0.07089126159998578 0  0.7628733196341911 0.03057327087113371 0  0.7624906919087944 -0.009858574940522793 0  0.760675700930845 -0.05014737874661712 0  0.7574070424313378 -0.08992165105860854 0  0.7542039826319644 -0.1290963672269103 0  0.7513530740567217 -0.1676872120149736 0  0.7539887717128617 0.2458614835436705 0  0.753438521753248 0.2077457220302638 0  0.7579085558550883 0.1304266042534054 0  0.7625255453211759 0.05076401268049823 0  0.7617661227699758 -0.03003774675218362 0  0.7558165843197868 -0.1095879903966027 0  0.7504391471291276 -0.1867993925622859 0  0.7553348364244031 0.1693667225283386 0  0.7606223716527953 0.09091289765803962 0  0.7628556869589823 0.01035575684338556 0  0.7591037299229073 -0.07013295247686006 0  0.7527084462094328 -0.1484653650050422 0  0.6438062672049731 0.4371503039150315 0  0.7488262031467776 0.305394513849398 0  0.7253249606945321 0.3585881875823749 0  0.6874279395458959 0.4026343138798418 0  0.750335944570564 0.2752532140031542 0  0.7355991124488885 0.3307948989712864 0  0.7074796819835109 0.3816986143087645 0  0.6659651847516258 0.4201017151580572 0  0.7516385639875937 0.2604582621265768 0  0.7487053594431405 0.2901003795759332 0  0.7414163421790739 0.3178741369041939 0  0.7324040808378947 0.3456085751686973 0  0.7160501941389461 0.3692678428466499 0  0.6975614769221701 0.3922567571962439 0  0.6766409922681424 0.4106148801471162 0  0.6546978389556498 0.428786254685643 0  -0.02958301617190242 0.8785070991175039 0  0.602882206227681 0.4767368771162703 0  0.5746719938995121 0.506967031341111 0  0.5456816765700756 0.539182674642292 0  0.5155726058580572 0.5730187482680958 0  0.483932145581728 0.6079363542898986 0  0.4504535582429336 0.643520028127213 0  0.4148193641018737 0.6793260224828789 0  0.3766697393093123 0.7149200403148687 0  0.3355828881878243 0.7492180950989696 0  0.291410517037835 0.7814743618717965 0  0.2440611388138036 0.8107265898707069 0  0.1936232247206215 0.8361625557811295 0  0.1403661825894055 0.8563210859403769 0  0.08488786984642001 0.8704305404424332 0  0.02796181370412762 0.8778189556465237 0  0.6305128134175811 0.4492645836219729 0  -0.08669246496800913 0.8714908949190379 0  -0.1423398881032928 0.8576669625499919 0  -0.1956889363452753 0.8376967037965238 0  -0.2459940128442147 0.811808952431623 0  -0.2934530735192058 0.783469224336347 0  -0.3377236999335121 0.7520322467406308 0  -0.3789894104366844 0.718559315349301 0  -0.4174508778837634 0.6837037814829618 0  -0.4534615372170382 0.6487521842070063 0  -0.4874829867952911 0.6140262167479068 0  -0.5197879315052346 0.5799027008210285 0  -0.5506663744343083 0.5467496688723321 0  -0.5804026335305703 0.5149080758835961 0  -0.6092553756554078 0.4849155622043727 0  -0.6374627317137431 0.4575895742244987 0  -0.6509797374410818 0.4454750711611183 0  -0.6231429906399297 0.4710655126636641 0  -0.5656744351772202 0.530767792198594 0  -0.5038346749048885 0.5968810219355291 0  -0.4357110316464007 0.6662123205024404 0  -0.3587118588562055 0.7354502268922082 0  -0.2701137297225963 0.798101841305948 0  -0.1693269318782544 0.8482204623951553 0  -0.05824909712044463 0.8758514734107959 0  0.05656216369608543 0.8750254218844072 0  0.1673159248102586 0.8469239216957312 0  0.2681346733723008 0.7965442899450776 0  0.3564883434630642 0.7322478064197439 0  0.4329253850111619 0.661427907523339 0  0.4999615247621758 0.5903768730333787 0  0.5602847822970223 0.5229699967032314 0  0.6164871506528747 0.4627893409969782 0  -0.5948399321101374 0.4998569583882095 0  -0.5353971860690105 0.563228282810445 0  -0.4707100890812204 0.6313457913214318 0  -0.3986256527278526 0.7013091050017622 0  -0.3159619538065223 0.7680280294208699 0  -0.2215347850760614 0.8258350266877744 0  -0.1147402443406166 0.8653268579266408 0  -0.0007456219629571829 0.8790559067428765 0  0.1128619964491926 0.8641767906561654 0  0.2192533971022474 0.8240726744523349 0  0.3138898740747279 0.765659139146559 0  0.3961208403378823 0.6972337989532476 0  0.467441532317857 0.6256757435180237 0  0.5308219807723853 0.5559784835112421 0  0.5887822282236992 0.4917671860449038 0  -0.7639983842007764 0.2544581756358305 0  -0.6951123879425449 0.4107399342962844 0  -0.7337299563563914 0.3668329323257417 0  -0.7579614817228393 0.3139631980233621 0  -0.6734770674282112 0.4283922381668334 0  -0.7155693589445747 0.3899839264998426 0  -0.7440792712205277 0.3390049473460316 0  -0.7597892172180888 0.2838319159879897 0  -0.6620227387517024 0.4370943043163289 0  -0.6842602206133576 0.4187804108985836 0  -0.7054628334875372 0.400475002602574 0  -0.724333215941754 0.3775374963466013 0  -0.7412690804395726 0.3540587522736253 0  -0.7501272970141207 0.3262715750910105 0  -0.7578242136792775 0.2986515071668486 0  -0.7612721124921104 0.2690174344593496 0  -0.7634051338329758 0.2352864078990245 0  -0.7631477162454183 -0.1978297206922362 0  -0.7644899008112026 -0.159697006756393 0  -0.7671804427039616 -0.12105347158586 0  -0.7701661345026696 -0.08181480832011157 0  -0.7731591359856796 -0.04196065137721095 0  -0.7746308630954951 -0.001605912528319474 0  -0.7746664141381344 0.03888209766020851 0  -0.773268581353585 0.07924691463664665 0  -0.7703580987272367 0.1191280179904678 0  -0.7674226615991783 0.1584058396411907 0  -0.7647510982602447 0.1970985210676894 0  -0.7637920881391683 -0.2169731763007086 0  -0.7636025383288221 -0.1788205029016122 0  -0.7686870738780008 -0.1015118798551232 0  -0.7740746902207569 -0.02181708626603303 0  -0.7741467185002633 0.05909692469942955 0  -0.7689067945576333 0.1388429717508528 0  -0.7638636615712456 0.216248141848591 0  -0.7657692164333747 -0.1404493185435562 0  -0.7717454647918278 -0.06198777606027634 0  -0.7748230635857332 0.01863750418451397 0  -0.7718988376551703 0.09928463931848643 0  -0.766026278179973 0.1778251177595779 0  -0.7576957305069127 -0.2763846020166443 0  -0.7332557923534324 -0.3290623595536034 0  -0.694510144378799 -0.3726480262564505 0  -0.7596257118594363 -0.2463137622533313 0  -0.7438355825521623 -0.3014228693871759 0  -0.7150298880930367 -0.3520927015405011 0  -0.6727420677522009 -0.3900480638816631 0  -0.7611086069084301 -0.2315198744868898 0  -0.75767
[...]
<PointData  Vectors="f_4336"> 
<DataArray  type="Float64"  Name="f_4336"  NumberOfComponents="3" format="ascii">7.2042235145337552e-01 -6.9389433928493482e-01 0.0000000000000000e+00  9.9894589605668305e-01 -5.0542615822335928e-02 0.0000000000000000e+00  9.8649619376906472e-01 -1.6513931424687578e-01 0.0000000000000000e+00  9.6309287672868438e-01 -2.6990844326511387e-01 0.0000000000000000e+00  9.2983371348291144e-01 -3.6838639089600389e-01 0.0000000000000000e+00  8.9613150857132451e-01 -4.4447430242734770e-01 0.0000000000000000e+00  8.4401184989551492e-01 -5.3679405554001391e-01 0.0000000000000000e+00  8.0571782453692298e-01 -5.9262507497789663e-01 0.0000000000000000e+00  7.7504999501052940e-01 -6.3200285370488463e-01 0.0000000000000000e+00  9.9795447885685140e-01 6.7127690501521911e-02 0.0000000000000000e+00  7.1448918391228911e-01 -6.9973316831714505e-01 0.0000000000000000e+00  6.9583629902868327e-01 -7.1825432007939516e-01 0.0000000000000000e+00  6.8568319246037168e-01 -7.2791673282770375e-01 0.0000000000000000e+00  6.8150895083386798e-01 -7.3181316034046850e-01 0.0000000000000000e+00  6.8830836418324903e-01 -7.2542469177937297e-01 0.0000000000000000e+00  7.0072116325742440e-01 -7.1346750042736917e-01 0.0000000000000000e+00  7.3592924407150562e-01 -6.7726173885921892e-01 0.0000000000000000e+00  7.8979534519863470e-01 6.1415396017478208e-01 0.0000000000000000e+00  9.8360555007027439e-01 1.8146650339806839e-01 0.0000000000000000e+00  9.5760535904157407e-01 2.8875261494389298e-01 0.0000000000000000e+00  9.2340441370863136e-01 3.8430924027179186e-01 0.0000000000000000e+00  8.8398670605457530e-01 4.6783844718490486e-01 0.0000000000000000e+00  8.4588140695135983e-01 5.3362878071251951e-01 0.0000000000000000e+00  8.0875791395875618e-01 5.8834040240019914e-01 0.0000000000000000e+00  7.7616181497975689e-01 6.3068285550712855e-01 0.0000000000000000e+00  7.4885659811260041e-01 6.6282615294818803e-01 0.0000000000000000e+00  7.2885627417666543e-01 6.8472861121099582e-01 0.0000000000000000e+00  7.1504717601054246e-01 6.9910639095565619e-01 0.0000000000000000e+00  7.0763875605494020e-01 7.0658269588575895e-01 0.0000000000000000e+00  7.0829395345247881e-01 7.0591823662848108e-01 0.0000000000000000e+00  7.1150227955727874e-01 7.0269211764421036e-01 0.0000000000000000e+00  7.2344804483085556e-01 6.9042358153175076e-01 0.0000000000000000e+00  7.5412713078971327e-01 6.5693925203713077e-01 0.0000000000000000e+00  7.4412616501856854e-01 6.6821934540240879e-01 0.0000000000000000e+00  7.2084362364651622e-01 -6.9323665547741475e-01 0.0000000000000000e+00  6.8430828470593885e-01 -7.2919428980343282e-01 0.0000000000000000e+00  6.8882089120891510e-01 -7.2497019047638478e-01 0.0000000000000000e+00  7.2642146336886093e-01 -6.8728116102886860e-01 0.0000000000000000e+00  7.7776869685338701e-01 -6.2905321809878556e-01 0.0000000000000000e+00  8.6705849401219692e-01 -4.9887225826577725e-01 0.0000000000000000e+00  9.4661690852056946e-01 -3.2311074914128374e-01 0.0000000000000000e+00  9.9420816053613248e-01 -1.0951074293083833e-01 0.0000000000000000e+00  7.1842455173341646e-01 6.9562795108139808e-01 0.0000000000000000e+00  9.4134718999680811e-01 3.3797642754488616e-01 0.0000000000000000e+00  8.6542493334120985e-01 5.0131475214163201e-01 0.0000000000000000e+00  7.9236944049751024e-01 6.1020063393935331e-01 0.0000000000000000e+00  7.3841935332357855e-01 6.7441810036523131e-01 0.0000000000000000e+00  7.1034140428602566e-01 7.0387634482455552e-01 0.0000000000000000e+00  7.0715134457331308e-01 7.0706313746976068e-01 0.0000000000000000e+00  9.9241538795126982e-01 1.2462887981345762e-01 0.0000000000000000e+00  7.6779855846143541e-01 -6.4132505196800516e-01 0.0000000000000000e+00  7.0453808370984838e-01 7.0967545747192162e-01 0.0000000000000000e+00  7.2118101890881026e-01 6.9279063047934120e-01 0.0000000000000000e+00  7.6029129663393991e-01 6.4972189879325659e-01 0.0000000000000000e+00  8.2727366037634187e-01 5.6201885234598481e-01 0.0000000000000000e+00  9.0306690273114354e-01 4.2993281093220204e-01 0.0000000000000000e+00  9.7194584544260532e-01 2.3605099149110972e-01 0.0000000000000000e+00  1.0001842115029074e+00 8.6699254739791409e-03 0.0000000000000000e+00  9.7527117917282358e-01 -2.2199145804312279e-01 0.0000000000000000e+00  9.2179484556161573e-01 -3.8799211467587202e-01 0.0000000000000000e+00  8.2389394532878979e-01 -5.6711411380323440e-01 0.0000000000000000e+00  7.4593138128564385e-01 -6.6640379296488472e-01 0.0000000000000000e+00  7.0521078594534603e-01 -7.0905510503962055e-01 0.0000000000000000e+00  6.8029271062220942e-01 -7.3296199942887208e-01 0.0000000000000000e+00  6.9703550123791802e-01 -7.1705866486196213e-01 0.0000000000000000e+00  8.8313181893897225e-02 1.1000787894943735e+00 0.0000000000000000e+00  7.7882227368797730e-01 6.2904450458373073e-01 0.0000000000000000e+00  6.7287260542808247e-01 7.5377299983312207e-01 0.0000000000000000e+00  2.6240075013053232e-01 9.6901707200205478e-01 0.0000000000000000e+00  7.6781558220794688e-01 6.4094040687899267e-01 0.0000000000000000e+00  6.4099889171333557e-01 7.6852493650916121e-01 0.0000000000000000e+00  2.1692689759370562e-01 9.8322074073856325e-01 0.0000000000000000e+00  1.4958094308952419e-01 9.8788338273505494e-01 0.0000000000000000e+00  8.3023078234930170e-01 5.6091177127031133e-01 0.0000000000000000e+00  7.8678993933566987e-01 6.1823313014686376e-01 0.0000000000000000e+00  7.2376628061474957e-01 6.9186857150209469e-01 0.0000000000000000e+00  6.1808993704787540e-01 7.8403220323163858e-01 0.0000000000000000e+00  3.1132420921005299e-01 9.5868570665587938e-01 0.0000000000000000e+00  6.3070549456690483e-01 8.0270343333200189e-01 0.0000000000000000e+00  6.5308056308803824e-03 1.0081508299450677e+00 0.0000000000000000e+00  1.7309144260470732e-01 9.7730546848619582e-01 0.0000000000000000e+00  -2.0847037748899316e-02 3.0744839749486014e-01 0.0000000000000000e+00  -1.7227271861819854e-02 7.2926357152184562e-01 0.0000000000000000e+00  4.7467316599721338e-02 -9.9678766977711342e-01 0.0000000000000000e+00  6.6381972754542565e-02 -9.9827453773929997e-01 0.0000000000000000e+00  6.8864617544997883e-02 -9.9731765534719552e-01 0.0000000000000000e+00  4.7573705064181820e-02 -1.0164844880170107e+00 0.0000000000000000e+00  6.0526033871400528e-03 -1.4239299094730982e+00 0.0000000000000000e+00  2.7156233578838014e-02 9.2224761922180032e-01 0.0000000000000000e+00  6.7041776170312289e-02 9.9844974976199008e-01 0.0000000000000000e+00  8.2812091501589746e-02 9.9665430448307268e-01 0.0000000000000000e+00  8.0168703519849796e-02 9.9703332870994288e-01 0.0000000000000000e+00  5.7954049106656594e-02 9.9678915872309182e-01 0.0000000000000000e+00  4.1782643090690269e-02 -1.0979921374708101e+00 0.0000000000000000e+00  4.1024908058583380e-02 -1.0843977195660659e+00 0.0000000000000000e+00  6.6660642740338727e-02 -9.9781874232713408e-01 0.0000000000000000e+00  2.5200178887674993e-02 -8.8449557917614374e-01 0.0000000000000000e+00  4.4022928648204923e-02 1.0069469750303071e+00 0.0000000000000000e+00  8.1489947977386970e-02 9.9663188366319511e-01 0.0000000000000000e+00  4.6222025799259693e-02 1.0441334441272425e+00 0.0000000000000000e+00  6.3492931689713011e-02 -9.9629336907130872e-01 0.0000000000000000e+00  6.8986923322200452e-02 -9.9688979293595525e-01 0.0000000000000000e+00  7.8046653633959831e-03 1.3610624066554353e+00 0.0000000000000000e+00  8.5407616204783599e-02 9.9597366010115895e-01 0.0000000000000000e+00  7.5975782945435166e-02 9.9636931083388836e-01 0.0000000000000000e+00  7.6362158478091569e-01 -6.4644481526611441e-01 0.0000000000000000e+00  2.4291293614808376e-01 -9.7382838372236147e-01 0.0000000000000000e+00  6.2067369214138768e-01 -7.9297459752107480e-01 0.0000000000000000e+00  7.5881749963123091e-01 -6.5318507962827266e-01 0.0000000000000000e+00  1.1367859653779751e-01 -9.9066979566383906e-01 0.0000000000000000e+00  2.4823628694367605e-01 -9.7221540088777658e-01 0.0000000000000000e+00  6.1414274825835558e-01 -7.8975975467536519e-01 0.0000000000000000e+00  7.5664023969992866e-01 -6.5399310423323964e-01 0.0000000000000000e+00  1.4514377698084116e-01 -9.8948099687422497e-01 0.0000000000000000e+00  -8.7919709072282557e-03 -1.0075511247911815e+00 0.0000000000000000e+00  5.6029545475825049e-01 -8.4402534685085440e-01 0.0000000000000000e+00  3.0512013586194869e-01 -9.5918041693420386e-01 0.0000000000000000e+00  6.0860971905110939e-01 -7.9250680114893501e-01 0.0000000000000000e+00  6.9380539949886999e-01 -7.2178564609530782e-01 0.0000000000000000e+00  7.8534389992242071e-01 -6.2099567500777852e-01 0.0000000000000000e+00  8.0954694824686524e-01 -5.9016832028143329e-01 0.0000000000000000e+00  9.9871772303400785e-01 5.6411138044744333e-02 0.0000000000000000e+00  6.8850917841768777e-01 -7.2526665185121164e-01 0.0000000000000000e+00  6.7378748004450462e-01 -7.3893319167208193e-01 0.0000000000000000e+00  6.6583010293032663e-01 -7.4610606951304059e-01 0.0000000000000000e+00  6.6804473583702784e-01 -7.4413799487962096e-01 0.0000000000000000e+00  6.7738625680389752e-01 -7.3567633165198509e-01 0.0000000000000000e+00  6.9421939372342867e-01 -7.1985155368224851e-01 0.0000000000000000e+00  7.1620530102018365e-01 -6.9802562010331326e-01 0.0000000000000000e+00  7.4965464286811723e-01 -6.6201952114456664e-01 0.0000000000000000e+00  7.8644352840668241e-01 -6.1792102505456070e-01 0.0000000000000000e+00  8.2846484546742150e-01 -5.6037032965258016e-01 0.0000000000000000e+00  8.7094621421704232e-01 -4.9175917063003355e-01 0.0000000000000000e+00  9.1573341364341898e-01 -4.0235043957862032e-01 0.0000000000000000e+00  9.5334749236272232e-01 -3.0266732552490561e-01 0.0000000000000000e+00  9.8201706356026486e-01 -1.9008593160785908e-01 0.0000000000000000e+00  9.9777285249290548e-01 -6.9509666041588827e-02 0.0000000000000000e+00  7.2580572863765525e-01 -6.8813099861940008e-01 0.0000000000000000e+00  9.8321597577030229e-01 1.8379079604900087e-01 0.0000000000000000e+00  9.5434140589717698e-01 2.9969197441961432e-01 0.0000000000000000e+00  9.2265517836047484e-01 3.8629100108377024e-01 0.0000000000000000e+00  8.6553327822206738e-01 5.0127701341332231e-01 0.0000000000000000e+00  8.3448667255022047e-01 5.5147381123686923e-01 0.0000000000000000e+00  7.9513053630505937e-01 6.0669850922737256e-01 0.0000000000000000e+00  7.6085766679244615e-01 6.4908331401124586e-01 0.0000000000000000e+00  7.2496146461009880e-01 6.8893042649441461e-01 0.0000000000000000e+00  7.0827364933162684e-01 7.0600783793047228e-01 0.0000000000000000e+00  6.9280586117284571e-01 7.2116065853281230e-01 0.0000000000000000e+00  6.8422247789307844e-01 7.2928451963021124e-01 0.0000000000000000e+00  6.8252382715503213e-01 7.3086299756924955e-01 0.0000000000000000e+00  6.8552102062445586e-01 7.2805875139970733e-01 0.0000000000000000e+00  6.9833124852520112e-01 7.1581156253561573e-01 0.0000000000000000e+00  7.3294226121304296e-01 6.8049559678813232e-01 0.0000000000000000e+00  7.6760924154363441e-01 6.4161066680332590e-01 0.0000000000000000e+00  7.1951412167969642e-01 6.9463118606498553e-01 0.0000000000000000e+00  6.8179122273244852e-01 7.3154763776853426e-01 0.0000000000000000e+00  6.8697490606194767e-01 7.2670851897564359e-01 0.0000000000000000e+00  7.1806515929086734e-01 6.9604662510391002e-01 0.0000000000000000e+00  7.7589961095573023e-01 6.3107846034921078e-01 0.0000000000000000e+00  8.6272058615190061e-01 5.0583636925788711e-01 0.0000000000000000e+00  9.3535332152574646e-01 3.5433323385184468e-01 0.0000000000000000e+00  9.9271015142339125e-01 1.2278726844562426e-01 0.0000000000000000e+00  9.9200174317698064e-01 -1.2811482262508730e-01 0.0000000000000000e+00  9.3523216205859971e-01 -3.5466375628914015e-01 0.0000000000000000e+00  8.5109665752690578e-01 -5.2533185499495849e-01 0.0000000000000000e+00  7.6744136632958526e-01 -6.4133274220511505e-01 0.0000000000000000e+00  7.0549255935486666e-01 -7.0881557014369834e-01 0.0000000000000000e+00  6.7085696417300911e-01 -7.4162510638592616e-01 0.0000000000000000e+00  6.6848200032949301e-01 -7.4373070947087017e-01 0.0000000000000000e+00  7.1009897251654730e-01 -7.0425178620786089e-01 0.0000000000000000e+00  6.9396611205744296e-01 7.2002876334663979e-01 0.0000000000000000e+00  6.8065245799519547e-01 7.3261737899554447e-01 0.0000000000000000e+00  6.9945431430220895e-01 7.1473171717142514e-01 0.0000000000000000e+00  7.3998146192268377e-01 6.7284860795953094e-01 0.0000000000000000e+00  8.1551574336960531e-01 5.7897612341752658e-01 0.0000000000000000e+00  8.8632942832401240e-01 4.6435436662787066e-01 0.0000000000000000e+00  9.7086645926774529e-01 2.4068441399371798e-01 0.0000000000000000e+00  1.0001565559379182e+00 -1.4687371311964547e-02 0.0000000000000000e+00  9.6939566177492908e-01 -2.4643778587309761e-01 0.0000000000000000e+00  8.9238711220063982e-01 -4.5183156405641106e-01 0.0000000000000000e+00  8.0756171573178281e-01 -5.9005781766084398e-01 0.0000000000000000e+00  7.3026248504657465e-01 -6.8336905748486687e-01 0.0000000000000000e+00  6.8494322040913158e-01 -7.2866271394736504e-01 0.0000000000000000e+00  6.6368376919033978e-01 -7.4803307332820024e-01 0.0000000000000000e+00  6.8282355489067681e-01 -7.3060448048139948e-01 0.0000000000000000e+00  6.7295003863140399e-02 1.1264781583546239e+00 0.0000000000000000e+00  7.6470525793882538e-01 6.4616322623935796e-01 0.0000000000000000e+00  6.4330102810657253e-01 7.7661825446895960e-01 0.0000000000000000e+00  2.5297370177678419e-01 9.7135771091477552e-01 0.0000000000000000e+00  7.5894025808606025e-01 6.5134022866763996e-01 0.0000000000000000e+00  6.2395557834997739e-01 7.8221623258705442e-01 0.0000000000000000e+00  2.3219317218405924e-01 9.7775925608251468e-01 0.0000000000000000e+00  1.3265531167826317e-01 9.8968834819694251e-01 0.0000000000000000e+00  8.1370625301381050e-01 5.8442130909670120e-01 0.0000000000000000e+00  7.8203803880099787e-01 6.2465521812369884e-01 0.0000000000000000e+00  7.0530205224465303e-01 7.1060076992054866e-01 0.0000000000000000e+00  6.0947575875526305e-01 7.9129052693941015e-01 0.0000000000000000e+00  3.0660229758904234e-01 9.5937532718407248e-01 0.0000000000000000e+00  5.9365736018356330e-01 8.2516069896041533e-01 0.0000000000000000e+00  4.4596599305151866e-04 1.0077967378516368e+00 0.0000000000000000e+00  1.6206392141693049e-01 9.7890726733090949e-01 0.0000000000000000e+00  -2.1309652268763100e-02 -1.0608154706800424e-01 0.0000000000000000e+00  -2.1409463440397493e-02 1.8292793430102536e-01 0.0000000000000000e+00  5.4749350580119684e-02 -9.9074093181262701e-01 0.0000000000000000e+00  7.5237006717772212e-02 -9.9759689824595210e-01 0.0000000000000000e+00  7.7181491202123184e-02 -9.9699791392216719e-01 0.0000000000000000e+00  5.8395081801951548e-02 -9.9166611635830371e-01 0.0000000000000000e+00  1.9400660625674453e-02 -1.0143574766108392e+00 0.0000000000000000e+00  1.7561466766420182e-02 1.1310265048063155e+00 0.0000000000000000e+00  5.6356021310227378e-02 9.9096911291492928e-01 0.0000000000000000e+00  7.5471453144192027e-02 9.9694774880854220e-01 0.0000000000000000e+00  7.4158042818224731e-02 9.9763690186452691e-01 0.0000000000000000e+00  5.4671898997599895e-02 9.9136379249395046e-01 0.0000000000000000e+00  6.3693150027744228e-02 -1.1336803161255720e+00 0.0000000000000000e+00  4.6556114921492982e-02 -1.1096549968746183e+00 0.0000000000000000e+00  7.5700570951977464e-02 -9.9703395726985755e-01 0.0000000000000000e+00  3.5260466462866000e-02 -1.0225718190640833e+00 0.0000000000000000e+00  3.3409291280625024e-02 1.0081744956949954e+00 0.0000000000000000e+00  7.4382679509433655e-02 9.9716533767095505e-01 0.0000000000000000e+00  4.6440333284936811e-02 1.0998416406953828e+00 0.0000000000000000e+00  7.1699628208044527e-02 -9.9661853245068788e-01 0.0000000000000000e+00  7.8462133612007434e-02 -9.9774512892969502e-01 0.0000000000000000e+00  -2.7763099076733369e-04 -2.1250338898289411e-01 0.0000000000000000e+00  7.6247567658355622e-02 9.9860335246169518e-01 0.0000000000000000e+00  7.1124838721993627e-02 9.9674450900299350e-01 0.0000000000000000e+00  2.5756603744883866e-01 -9.7011493617926969e-01 0.0000000000000000e+00  6.4536016455992284e-01 -7.7445778810790744e-01 0.0000000000000000e+00  7.6876697788682979e-01 -6.4133196372941070e-01 0.0000000000000000e+00  1.3154146508276604e-01 -9.8987370903410055e-01 0.0000000000000000e+00  2.4131743251693816e-01 -9.7531271843446821e-01 0.0000000000000000e+00  6.2919764428083946e-01 -7.7799499198738220e-01 0.0000000000000000e+00  7.6773374377509007e-01 -6.4094090680650340e-01 0.0000000000000000e+00  1.6130780041779053e-01 -9.7815383710295267e-01 0.0000000000000000e+00  4.6663381060038497e-03 -1.0076568649924109e+00 0.0000000000000000e+00  5.9019134031542786e-01 -8.2642814100496009e-01 0.0000000000000000e+00  3.1696723176536890e-01 -9.5566406831586781e-01 0.0000000000000000e+00  6.1270162256137939e-01 -7.8890029512343529e-01 0.0000000000000000e+00  7.0979390607151538e-01 -7.0612925926106518e-01 0.0000000000000000e+00  7.8828237915901445e-01 -6.1684874652775679e-01 0.0000000000000000e+00  8.1799021094764990e-01 -5.7848113005990220e-01 0.0000000000000000e+00  8.8351809840945961e-01 4.6858826028720396e-01 0.0000000000000000e+00  8.7890035715970083e-01 4.7716275383387585e-01 0.0000000000000000e+00  9.9056760390730414e-01 -1.3784203408760559e-01 0.0000000000000000e+00  7.1818232803870541e-01 -6.9598292824009900e-01 0.0000000000000000e+00  7.0593040266517115e-01 -7.0839915720214475e-01 0.0000000000000000e+00  9.8335767550724107e-01 -1.8230976694589382e-01 0.0000000000000000e+00  2.3907991634121659e-01 9.7111455568450189e-01 0.0000000000000000e+00  2.2220610848426564e-01 9.7506908760493138e-01 0.0000000000000000e+00  2.2708549495161265e-01 -9.7396053327366339e-01 0.0000000000000000e+00  2.0813368332891743e-01 -9.7818222209172156e-01 0.0000000000000000e+00  5.4644580664554931e-01 -8.3763257353785148e-01 0.0000000000000000e+00  3.6028489911784350e-01 -9.3310572861195917e-01 0.0000000000000000e+00  5.5326017534872829e-01 -8.3371057427745643e-01 0.0000000000000000e+00  7.6046233722611142e-02 1.2278336793229145e+00 0.0000000000000000e+00  2.0830586432257556e-01 9.0909799276660919e-01 0.0000000000000000e+00  1.2673470671646614e-02 1.1563734575217557e+00 0.0000000000000000e+00  8.0706762217262062e-01 -5.9141072199391431e-01 0.0000000000000000e+00  6.4602654943686577e-01 7.8055344701428886e-01 0.0000000000000000e+00  9.9679974234877611e-01 -9.0345320225837633e-02 0.0000000000000000e+00  9.4042994092499166e-01 -3.6539873159012776e-01 0.0000000000000000e+00  7.9326627661168314e-01 6.1192147803889918e-01 0.0000000000000000e+00  6.2093439534257511e-01 -7.8502305599596156e-01 0.0000000000000000e+00  1.3414123198349187e-01 1.0100304032167009e+00 0.0000000000000000e+00  5.6418041358542048e-01 -8.2579127418168785e-01 0.0000000000000000e+00  3.7671746515347532e-01 -9.2651514574254312e-01 0.0000000000000000e+00  1.7135102222857394e-03 -4.5681105004927486e-01 0.0000000000000000e+00  3.9048606989331974e-01 9.2084417355496373e-01 0.0000000000000000e+00  5.9650604725674283e-01 8.0274495325060757e-01 0.0000000000000000e+00  9.8735637239144713e-01 1.5926806571106786e-01 0.0000000000000000e+00  5.6631210260984377e-01 8.2432695131002376e-01 0.0000000000000000e+00  7.2480878792665127e-01 6.8905544362182813e-01 0.0000000000000000e+00  8.7004838640139215e-01 -4.9315993318174567e-01 0.0000000000000000e+00  6.3645757231895272e-01 7.7173362564124304e-01 0.0000000000000000e+00  9.8013949789038646e-01 1.9882517537491523e-01 0.0000000000000000e+00  8.8751459124712262e-01 -4.6104301881415005e-01 0.0000000000000000e+00  4.3031047437149000e-01 9.0293624079440504e-01 0.0000000000000000e+00  5.3826726479308562e-01 -8.4333176645301666e-01 0.0000000000000000e+00  2.0767329442945091e-02 1.1593861148365865e+00 0.0000000000000000e+00  7.3836354033463103e-01 6.7449499108514155e-01 0.0000000000000000e+00  4.4573143531496667e-01 8.9533933454898273e-01 0.0000000000000000e+00  8.6565199862845210e-01 5.0129255990549126e-01 0.0000000000000000e+00  4.3142864026400485e-01 -9.0231708320638970e-01 0.0000000000000000e+00  4.4