<?xml version="1.0"?>
<VTKFile type="UnstructuredGrid"  version="0.1"  >
<UnstructuredGrid>
<Piece  NumberOfPoints="4153" NumberOfCells="8064">
<Points>
<DataArray  type="Float64"  NumberOfComponents="3"  format="ascii">-0.4159429826850926 -0.5362613292543857 0  -0.04461515998251062 -0.6280348082762706 0  -0.09291428984836833 -0.6248792480575229 0  -0.1407982996019218 -0.618901853485424 0  -0.1881910085321505 -0.6106766836185991 0  -0.235316602351043 -0.6009707080160278 0  -0.2818360706034116 -0.5877060391915565 0  -0.3274736622475926 -0.5721058261278761 0  -0.3721972180870883 -0.5548887907648314 0  0.003893281950622444 -0.6280298655461553 0  -0.4590241115335823 -0.5183085575461835 0  -0.5015968041137807 -0.5004847468702706 0  -0.5437227974906877 -0.4830820832722665 0  -0.585442275410555 -0.4664570944767499 0  -0.6269006599541558 -0.4508143963165386 0  -0.6680510451370403 -0.4362064979604627 0  -0.7089963175948841 -0.4233486708498779 0  0.6940523730160658 -0.4345525778504145 0  0.05236010410679262 -0.6248573015766907 0  0.100540620001656 -0.6186250475167874 0  0.148215135910143 -0.6096035398262585 0  0.1952123328936305 -0.5981723192890057 0  0.2414636838259787 -0.5850190374775622 0  0.2869909480224117 -0.5705959545908673 0  0.3318324486081478 -0.5553064097295664 0  0.3760367441132214 -0.5395815998952004 0  0.4197057129847518 -0.5237388056059966 0  0.4629140429916035 -0.5080418125215012 0  0.5057238403533381 -0.4926690642473513 0  0.5481782394934532 -0.4779008286832832 0  0.5903078277971231 -0.4637590960938117 0  0.632123401681579 -0.4505974314457348 0  0.6737054219436844 -0.4389607656166137 0  0.6528612756919572 -0.4448050192744032 0  -0.6884349740823876 -0.4298348405777062 0  -0.6062118556586187 -0.4585497212019395 0  -0.5227071624744043 -0.4917282069075573 0  -0.4375370147983413 -0.527274657405038 0  -0.3499495892534314 -0.563614246915377 0  -0.258679508615476 -0.5946694483184725 0  -0.1645533982575963 -0.6150471989239792 0  -0.06880620374044261 -0.6268367455877057 0  0.6112500989538947 -0.4571009925513023 0  0.1244529820036456 -0.6144393436328625 0  0.2184295497219378 -0.5917808741432832 0  0.3094923162241439 -0.5630464535054746 0  0.3979348486493725 -0.5316565203457968 0  0.4843638302380022 -0.5003165968897707 0  0.5692867019652162 -0.4707329194004041 0  0.02814728077481279 -0.6268363948632077 0  -0.7289457352619393 -0.4182908145007171 0  0.5269810275878758 -0.4851932332545867 0  0.4413631814220284 -0.5158633733899521 0  0.3540032330149127 -0.5474606095362975 0  0.2643159463650355 -0.5779425986583334 0  0.1718094661484122 -0.6041510818382154 0  0.07650093951521533 -0.6221105127724401 0  -0.02037065264715221 -0.6284355621320554 0  -0.116916717646935 -0.6222144468928296 0  -0.2117428421046716 -0.6061769200016849 0  -0.3047681507412088 -0.5801433198460449 0  -0.3942544580146292 -0.5456532526999563 0  -0.4803683862628416 -0.5093608925342571 0  -0.5646181876213258 -0.474615226088358 0  -0.6475040631486044 -0.4434428565204367 0  0.8575494354376274 -0.2479528789384445 0  0.7577207739510519 -0.414245566961494 0  0.8118568555026972 -0.3731344901339065 0  0.8469746006226619 -0.3152663105798261 0  0.7261553156935441 -0.4248091979673959 0  0.7854970830941782 -0.3946756391326025 0  0.8283625418556295 -0.3434140230074283 0  0.8516225714139001 -0.2813046549256991 0  0.710302794029682 -0.4306104183458536 0  0.7418583976008793 -0.4191288007115438 0  0.771653694417445 -0.4046272248281342 0  0.7982735421278457 -0.3832032151611547 0  0.8209879233548898 -0.3587536027088237 0  0.8372356231399813 -0.3292285000637651 0  0.8489212690366253 -0.2981430704409755 0  0.8541814398100938 -0.2645488544549582 0  0.8570342689948465 -0.2261759343497603 0  0.8625725929318043 0.2531172552428917 0  0.8619339128399238 0.2099227518882956 0  0.8624057085236457 0.1666725670086672 0  0.8634245173256193 0.1232424884395145 0  0.8647518443296942 0.07951920061303813 0  0.86513694687025 0.03554115490662103 0  0.8646131416774065 -0.008502234917063794 0  0.8631831898657309 -0.0524884828077084 0  0.860849625877894 -0.09622427367266936 0  0.8588296269301521 -0.1396851602778048 0  0.8573619294533689 -0.1829655018356564 0  0.8636671610120914 0.2748803107742546 0  0.8620706079551407 0.2315153813839481 0  0.8628697203764707 0.1449855277314506 0  0.8650597480740062 0.05754672195740097 0  0.8640144858612028 -0.03051082250288349 0  0.8597962214478461 -0.1179825510612886 0  0.8570123196897892 -0.2045717142676724 0  0.8620848569445587 0.1883141268381412 0  0.8641305995154405 0.1014355391643367 0  0.8649849444681049 0.01352006201388233 0  0.8620508462036086 -0.07440854349412035 0  0.858010532542246 -0.1613430118188946 0  0.705870265850234 0.464416749392864 0  0.8548286573192522 0.3424715397811398 0  0.8212426250307004 0.401053283207366 0  0.7684715037104506 0.4432584612186911 0  0.858745139934463 0.3083676059500643 0  0.8372010445687044 0.3710779751398263 0  0.7956298697434709 0.4231121066800162 0  0.7374463535295559 0.4543661293921286 0  0.8608868210100511 0.2915529624123485 0  0.8564587278129661 0.3252810076656521 0  0.8456420398399974 0.3566681034823128 0  0.8300190024508409 0.386473274141738 0  0.8080439002090288 0.4113791449378583 0  0.7820898412789854 0.4333228493863273 0  0.7528887515343571 0.4484628517701967 0  0.721846370135469 0.4603175769714657 0  -0.03673596291810996 0.7140537202031813 0  0.6453088375077541 0.4832940722012126 0  0.604337903513035 0.4986912108526844 0  0.5630125292007087 0.5152800385149644 0  0.5213525199072503 0.5329938312400755 0  0.4792311905754524 0.5516150010264121 0  0.4365924108652557 0.5708760078639434 0  0.3933476241698658 0.5905525338417041 0  0.3493865505848889 0.6104756093081507 0  0.3045413132412412 0.6300877399822801 0  0.2587410130637683 0.6489500504076738 0  0.2119029358618847 0.6665496689629336 0  0.1639528540128622 0.6824014774553742 0  0.1149192225224304 0.6954764697113118 0  0.06497438945554893 0.7053275700782012 0  0.01435262550260734 0.7115195777499725 0  0.6860578495661713 0.4697618599124 0  -0.08787135202138087 0.7115984532282837 0  -0.1385270513533469 0.7046454273506476 0  -0.1882773909877485 0.6935433068592795 0  -0.2366383002313686 0.6783546988648972 0  -0.2836721954207749 0.6617384132271522 0  -0.3295878175045261 0.6438031655267681 0  -0.3744835777500894 0.6249547737376193 0  -0.4184179749257442 0.6055235467152796 0  -0.4616327772549907 0.5864131942176409 0  -0.504261749335002 0.5676343493333585 0  -0.5463950733557817 0.5493825132949469 0  -0.5881030811592053 0.5318573157321362 0  -0.6294251404455208 0.5152459652269857 0  -0.6704144561294744 0.4998763562196585 0  -0.7111934480395933 0.4863593860615137 0  -0.7310967502627156 0.481100394670452 0  -0.6907364551614326 0.4931401070835099 0  -0.608809733587151 0.5234237640114725 0  -0.5253857334685607 0.5584323878113863 0  -0.4401033463626399 0.5959423996067453 0  -0.3521563911413559 0.6344631862862111 0  -0.2603016558176761 0.6702517157369229 0  -0.1635397396168021 0.6995466053350254 0  -0.06233035409999341 0.7133775789347616 0  0.03973222653925156 0.7089137889371715 0  0.1395623791030735 0.6892956739124587 0  0.2354536701896006 0.6579416461938324 0  0.327075422596263 0.6203506043011948 0  0.4150500787905954 0.5806766891130619 0  0.5003488163410049 0.5422169601128569 0  0.5837215298052025 0.506873575260707 0  0.6656030344429709 0.4765686347993096 0  -0.6499552268953143 0.5074601430546879 0  -0.5672973294096766 0.540521603491653 0  -0.4830139035040062 0.5769688744660602 0  -0.3965747103701879 0.6152457749228366 0  -0.3067630458571228 0.6529098865543564 0  -0.2126995689305284 0.6863220784008072 0  -0.1132869410942777 0.7086608416602892 0  -0.01112019247664883 0.713356303407792 0  0.09004769589911352 0.7008348392131711 0  0.1880829468302442 0.6747778417940253 0  0.2817661473521234 0.639644506818641 0  0.3714733632294613 0.6005061246873881 0  0.4579811216771093 0.5611809313665503 0  0.5422316295701094 0.5239845158062651 0  0.6248612174361508 0.4909049127209888 0  -0.8895240203496186 0.2912123265691675 0  -0.7936705403167681 0.4595111753947698 0  -0.8465127887824722 0.4172468504436507 0  -0.8802653301378308 0.3587249914912248 0  -0.762642518046536 0.470728531142817 0  -0.8208285628880123 0.4393060265856262 0  -0.8624180650834212 0.3872077351930167 0  -0.8842957438320688 0.3246415400157315 0  -0.7470557099160622 0.4768266030262435 0  -0.7780782840987236 0.4647361830554462 0  -0.8072893855858183 0.4495466998309107 0  -0.8332622649234876 0.4275530322618067 0  -0.8553066060067367 0.4026634331943059 0  -0.8709356809938846 0.3728519308026103 0  -0.8819197490749363 0.3415371148306839 0  -0.8865394724484248 0.3078486780040305 0  -0.8886152970752325 0.2694521175871669 0  -0.8881500279392954 -0.209095445481878 0  -0.8879264190751426 -0.1659534194456536 0  -0.8888487037404802 -0.1227550461636022 0  -0.8903322114994147 -0.07937976506313039 0  -0.892137711464553 -0.03572502029115674 0  -0.893043815806045 0.008178774997245529 0  -0.8930751981457347 0.0521409439184861 0  -0.8922394823082892 0.09604275567373255 0  -0.8905237233083018 0.1397006045210186 0  -0.8891181972779456 0.1830813323011052 0  -0.8882803957054896 0.2262907057295204 0  -0.8890128037708674 -0.230839984898723 0  -0.8878507971421289 -0.1875213915117127 0  -0.8895457919764992 -0.1010950632824114 0  -0.892702803061066 -0.01378859160737515 0  -0.8927675775993489 0.07410742399743944 0  -0.8897750794385934 0.1614178822480848 0  -0.8882538676895175 0.2478663257047534 0  -0.8883000053378094 -0.1443708391627909 0  -0.8912706973119039 -0.05760547255937404 0  -0.8931648716612003 0.03016003984341225 0  -0.891418507891351 0.1179233539820021 0  -0.8886113951007556 0.2047015383370257 0  -0.8794278186338926 -0.2982353647357674 0  -0.8451637930530131 -0.3563714080265022 0  -0.7918847218772943 -0.3979674772889509 0  -0.8836900788378391 -0.2642383393959998 0  -0.8614094410384443 -0.3266075583573533 0  -0.8192656946542533 -0.3781662398120968 0  -0.7606498820643293 -0.4086847728494488 0  -0.8860075647297284 -0.2474655807403703 0  -0.88121994
[...]
<PointData  Vectors="f_2638"> 
<DataArray  type="Float64"  Name="f_2638"  NumberOfComponents="3" format="ascii">9.2013272447657990e-01 -3.9161370145213326e-01 0.0000000000000000e+00  9.9951919295199565e-01 -3.3153443026042770e-02 0.0000000000000000e+00  9.9544844609663807e-01 -9.5911087187628530e-02 0.0000000000000000e+00  9.8891836768031982e-01 -1.4872400944060229e-01 0.0000000000000000e+00  9.8279241624683000e-01 -1.8465762792481813e-01 0.0000000000000000e+00  9.7117830660263416e-01 -2.3883666648572766e-01 0.0000000000000000e+00  9.5370929946420935e-01 -3.0084462147410368e-01 0.0000000000000000e+00  9.3876139410049098e-01 -3.4462903688998442e-01 0.0000000000000000e+00  9.2716732739595253e-01 -3.7473384111445690e-01 0.0000000000000000e+00  9.9952096247264943e-01 3.3020318027138319e-02 0.0000000000000000e+00  9.2231010905585920e-01 -3.8656337543997643e-01 0.0000000000000000e+00  9.2315848768275133e-01 -3.8462993430138975e-01 0.0000000000000000e+00  9.2555640587539678e-01 -3.7891833168936617e-01 0.0000000000000000e+00  9.3344776933376616e-01 -3.5931495209231545e-01 0.0000000000000000e+00  9.3985040216581028e-01 -3.4248426330615428e-01 0.0000000000000000e+00  9.5010400552801011e-01 -3.1361256945109828e-01 0.0000000000000000e+00  9.6061102335487525e-01 -2.8065267361386231e-01 0.0000000000000000e+00  9.8177556441390745e-01 2.0151279548113754e-01 0.0000000000000000e+00  9.9530557208316717e-01 9.7434106226605297e-02 0.0000000000000000e+00  9.8744940844987750e-01 1.5827384598294653e-01 0.0000000000000000e+00  9.7718019619586016e-01 2.1261737469598199e-01 0.0000000000000000e+00  9.6644241782586982e-01 2.5696931479798835e-01 0.0000000000000000e+00  9.5733015926285514e-01 2.8904806952387579e-01 0.0000000000000000e+00  9.4963709644096395e-01 3.1339058529507813e-01 0.0000000000000000e+00  9.4358551708424643e-01 3.3117030113437668e-01 0.0000000000000000e+00  9.4096869521509574e-01 3.3858019210972956e-01 0.0000000000000000e+00  9.3980070690644324e-01 3.4187095242085153e-01 0.0000000000000000e+00  9.4048784794302809e-01 3.4006714367745466e-01 0.0000000000000000e+00  9.4231281232284725e-01 3.3506684632970662e-01 0.0000000000000000e+00  9.4650987819277810e-01 3.2324479941757417e-01 0.0000000000000000e+00  9.5173990633101502e-01 3.0783205528738022e-01 0.0000000000000000e+00  9.6019177347950901e-01 2.8109425972815860e-01 0.0000000000000000e+00  9.7072958929477748e-01 2.4363147713188241e-01 0.0000000000000000e+00  9.6238557280747850e-01 2.7326123918584860e-01 0.0000000000000000e+00  9.5414149047131458e-01 -3.0112759706174891e-01 0.0000000000000000e+00  9.3539685150490381e-01 -3.5418327040418618e-01 0.0000000000000000e+00  9.2431962544792035e-01 -3.8188800517508220e-01 0.0000000000000000e+00  9.2403508658024425e-01 -3.8246305124098573e-01 0.0000000000000000e+00  9.3333107969470308e-01 -3.5906268531472196e-01 0.0000000000000000e+00  9.6112499395308593e-01 -2.7635492154375679e-01 0.0000000000000000e+00  9.8492435442303483e-01 -1.7314561449453925e-01 0.0000000000000000e+00  9.9791574773968461e-01 -6.5526211956517852e-02 0.0000000000000000e+00  9.5317475327113610e-01 3.0321827725390738e-01 0.0000000000000000e+00  9.8256807618344988e-01 1.8615967830306979e-01 0.0000000000000000e+00  9.6180235319770213e-01 2.7380713422104053e-01 0.0000000000000000e+00  9.4642937749456557e-01 3.2295458899980245e-01 0.0000000000000000e+00  9.3992956085390411e-01 3.4147271172940008e-01 0.0000000000000000e+00  9.4117257890093942e-01 3.3821110515360620e-01 0.0000000000000000e+00  9.4772766732165226e-01 3.1964656858713197e-01 0.0000000000000000e+00  9.9792855502493039e-01 6.5350559286710616e-02 0.0000000000000000e+00  9.7792200214055813e-01 -2.2008257090694514e-01 0.0000000000000000e+00  9.4473156364063715e-01 3.2831595912348627e-01 0.0000000000000000e+00  9.3986604961164733e-01 3.4172694292000094e-01 0.0000000000000000e+00  9.4212910623060264e-01 3.3531017718994222e-01 0.0000000000000000e+00  9.5319165179371068e-01 3.0240693100804972e-01 0.0000000000000000e+00  9.7151678748236614e-01 2.3710939176235529e-01 0.0000000000000000e+00  9.9177166112702142e-01 1.2848089681278593e-01 0.0000000000000000e+00  1.0000706637027013e+00 1.7938178326280905e-04 0.0000000000000000e+00  9.9224955143802196e-01 -1.2464168672202945e-01 0.0000000000000000e+00  9.8060279590861388e-01 -1.9666210181745031e-01 0.0000000000000000e+00  9.4616312641940592e-01 -3.2379649777755681e-01 0.0000000000000000e+00  9.1823077728846025e-01 -3.9608488355245336e-01 0.0000000000000000e+00  9.2234720136920312e-01 -3.8651832174865025e-01 0.0000000000000000e+00  9.2888438797463568e-01 -3.7078116371332753e-01 0.0000000000000000e+00  9.4145586884739307e-01 -3.3789645310360999e-01 0.0000000000000000e+00  7.5948103027542929e-02 1.1646673306707278e+00 0.0000000000000000e+00  9.0176667535610411e-01 4.3789428769366212e-01 0.0000000000000000e+00  7.0697083385803960e-01 7.1426515504553367e-01 0.0000000000000000e+00  3.5029154502535587e-01 9.4121177374136866e-01 0.0000000000000000e+00  9.2874210283067637e-01 3.7068595965268414e-01 0.0000000000000000e+00  7.6809549178416126e-01 6.3985304642457397e-01 0.0000000000000000e+00  4.5850001026433079e-01 8.8837618406641627e-01 0.0000000000000000e+00  1.6160903836662724e-01 9.8500452720994203e-01 0.0000000000000000e+00  9.5724567424845131e-01 2.9235449404144309e-01 0.0000000000000000e+00  9.6608705348519031e-01 2.7577787935417902e-01 0.0000000000000000e+00  8.0788524833014363e-01 5.9146366801800110e-01 0.0000000000000000e+00  7.9289110585846667e-01 6.1236385170155871e-01 0.0000000000000000e+00  4.3954297105837342e-01 9.0676765110667235e-01 0.0000000000000000e+00  6.1846749163846837e-01 7.9457336252572941e-01 0.0000000000000000e+00  8.0476464501803249e-02 1.0047908528757674e+00 0.0000000000000000e+00  2.0182354337941563e-01 9.6892904200280594e-01 0.0000000000000000e+00  -2.0765549248514547e-02 -3.4237603577163833e-01 0.0000000000000000e+00  2.4987509146765195e-03 1.3451491773852682e+00 0.0000000000000000e+00  -1.8569769204917830e-03 -9.1130550235580721e-01 0.0000000000000000e+00  1.8337302148952669e-02 -9.9751622286776065e-01 0.0000000000000000e+00  2.9399228034504937e-02 -1.0006016733102916e+00 0.0000000000000000e+00  2.1422368522096277e-02 -1.0011446873291980e+00 0.0000000000000000e+00  7.6450544134245625e-05 4.9568396007581261e-01 0.0000000000000000e+00  2.1956298968959061e-02 1.0322366498614817e+00 0.0000000000000000e+00  4.5147162080118916e-02 1.0005689751636333e+00 0.0000000000000000e+00  5.2028391559627338e-02 9.9863628036224716e-01 0.0000000000000000e+00  4.1382271800282304e-02 9.9953603452752404e-01 0.0000000000000000e+00  2.1693708755894662e-02 1.0090501039591968e+00 0.0000000000000000e+00  3.9024843476900127e-02 -1.2160700545233998e+00 0.0000000000000000e+00  -2.4388229427243785e-05 -2.5567739276296952e-01 0.0000000000000000e+00  2.3239134108288144e-02 -9.9981335069023003e-01 0.0000000000000000e+00  8.3638479936316828e-03 -1.1590488264587020e+00 0.0000000000000000e+00  3.1945415323866515e-02 9.9015272923266029e-01 0.0000000000000000e+00  4.6289066798831838e-02 9.9896298660096960e-01 0.0000000000000000e+00  1.6023463599934916e-02 9.8669713627197553e-01 0.0000000000000000e+00  1.2154379188026429e-02 -1.0174102661686686e+00 0.0000000000000000e+00  3.2804037615898875e-02 -9.9534516018176489e-01 0.0000000000000000e+00  1.2558392095833818e-02 9.7297804766966067e-01 0.0000000000000000e+00  5.5629561558568533e-02 9.9835800122410268e-01 0.0000000000000000e+00  3.5086263735488482e-02 9.9736623241087918e-01 0.0000000000000000e+00  9.7452598560677961e-01 -2.3472830493742491e-01 0.0000000000000000e+00  3.2465956566102672e-01 -9.5014603612882331e-01 0.0000000000000000e+00  6.8695138862416971e-01 -7.3316851468159638e-01 0.0000000000000000e+00  8.8981233985661501e-01 -4.6178348706979788e-01 0.0000000000000000e+00  1.3749097907382243e-01 -9.8807114246686345e-01 0.0000000000000000e+00  4.4290364737958887e-01 -8.9611458680388678e-01 0.0000000000000000e+00  7.5266528686391965e-01 -6.5789279673437151e-01 0.0000000000000000e+00  9.2246542280158639e-01 -3.8612835329439393e-01 0.0000000000000000e+00  1.7190141900693295e-01 -9.7184360500231670e-01 0.0000000000000000e+00  6.0185495506963831e-02 -1.0058943687497564e+00 0.0000000000000000e+00  5.8885737119787418e-01 -8.1590846589617616e-01 0.0000000000000000e+00  4.2488417744915424e-01 -9.1296586661338042e-01 0.0000000000000000e+00  7.7680049528719330e-01 -6.3295003908479075e-01 0.0000000000000000e+00  7.9334438539316188e-01 -6.1078369916260533e-01 0.0000000000000000e+00  9.6052911088362392e-01 -2.9568889798249059e-01 0.0000000000000000e+00  9.5519017999044309e-01 -2.9975333084794697e-01 0.0000000000000000e+00  1.0001692673658698e+00 3.1750919016924905e-04 0.0000000000000000e+00  9.4451756549302479e-01 -3.3010697929914873e-01 0.0000000000000000e+00  9.3300061263820688e-01 -3.6076229958464412e-01 0.0000000000000000e+00  9.2496536313264666e-01 -3.8061726518234001e-01 0.0000000000000000e+00  9.1679732880165887e-01 -3.9967930571728066e-01 0.0000000000000000e+00  9.1272949207674958e-01 -4.0877085329125840e-01 0.0000000000000000e+00  9.1045910737748537e-01 -4.1371140118085931e-01 0.0000000000000000e+00  9.1013315776047643e-01 -4.1436081529915225e-01 0.0000000000000000e+00  9.1275811472645341e-01 -4.0851890331363638e-01 0.0000000000000000e+00  9.1989981989492287e-01 -3.9217072502215639e-01 0.0000000000000000e+00  9.2986935998667153e-01 -3.6793787681193224e-01 0.0000000000000000e+00  9.4203704450261860e-01 -3.3559685492386965e-01 0.0000000000000000e+00  9.5810096367092312e-01 -2.8666635529512352e-01 0.0000000000000000e+00  9.7384739024319777e-01 -2.2756012946870433e-01 0.0000000000000000e+00  9.8733357965287571e-01 -1.5927564347410894e-01 0.0000000000000000e+00  9.9625493751244854e-01 -8.7278086115238115e-02 0.0000000000000000e+00  9.5620878479391913e-01 -2.9537879396321620e-01 0.0000000000000000e+00  9.9587843401349219e-01 9.1997943114382488e-02 0.0000000000000000e+00  9.8389720636558331e-01 1.7936154106362320e-01 0.0000000000000000e+00  9.6598020222887759e-01 2.5919939902688377e-01 0.0000000000000000e+00  9.4718536567432943e-01 3.2074285862085994e-01 0.0000000000000000e+00  9.3654533162748665e-01 3.5061559888982996e-01 0.0000000000000000e+00  9.2622869760442428e-01 3.7698781895111361e-01 0.0000000000000000e+00  9.1767549533445025e-01 3.9735420823315709e-01 0.0000000000000000e+00  9.1407598559759240e-01 4.0556711821759667e-01 0.0000000000000000e+00  9.1445509407829761e-01 4.0476993060464173e-01 0.0000000000000000e+00  9.1616432974082751e-01 4.0096689026453047e-01 0.0000000000000000e+00  9.1958720849136499e-01 3.9315828949925469e-01 0.0000000000000000e+00  9.2480937624926907e-01 3.8087636169713446e-01 0.0000000000000000e+00  9.3304632538487353e-01 3.6055478993715029e-01 0.0000000000000000e+00  9.4480216671074491e-01 3.2919957142928147e-01 0.0000000000000000e+00  9.5777867367808878e-01 2.9035571874035804e-01 0.0000000000000000e+00  9.7413740416902972e-01 2.3612093209626422e-01 0.0000000000000000e+00  9.4882598895604664e-01 3.1732589128345517e-01 0.0000000000000000e+00  9.2754175084746704e-01 3.7420713428909075e-01 0.0000000000000000e+00  9.1758071183136569e-01 3.9776022411642531e-01 0.0000000000000000e+00  9.1475051748778269e-01 4.0408649529684126e-01 0.0000000000000000e+00  9.2205991039087842e-01 3.8706792208181473e-01 0.0000000000000000e+00  9.4336087552987657e-01 3.3183016782576535e-01 0.0000000000000000e+00  9.7627489565768222e-01 2.1703589558965919e-01 0.0000000000000000e+00  9.9893753517517181e-01 4.8843166485732711e-02 0.0000000000000000e+00  9.9280621743988262e-01 -1.2046622414535443e-01 0.0000000000000000e+00  9.6624152981275135e-01 -2.5790360496471693e-01 0.0000000000000000e+00  9.3612301990307034e-01 -3.5173373362248961e-01 0.0000000000000000e+00  9.1614327645764493e-01 -4.0086734063387125e-01 0.0000000000000000e+00  9.1021084254367290e-01 -4.1422493984008041e-01 0.0000000000000000e+00  9.1467991261581982e-01 -4.0444768756664740e-01 0.0000000000000000e+00  9.2784458909683221e-01 -3.7355346738003814e-01 0.0000000000000000e+00  9.4911178841589106e-01 -3.1668221939156671e-01 0.0000000000000000e+00  9.3539091414837805e-01 3.5430911385063629e-01 0.0000000000000000e+00  9.2196046160433953e-01 3.8762760004682822e-01 0.0000000000000000e+00  9.1512306289045153e-01 4.0329680458509304e-01 0.0000000000000000e+00  9.1387419277090143e-01 4.0600347815962129e-01 0.0000000000000000e+00  9.3146276902043190e-01 3.6386970106168676e-01 0.0000000000000000e+00  9.5268903565513330e-01 3.0450589213938828e-01 0.0000000000000000e+00  9.9082250374124281e-01 1.3610914065212301e-01 0.0000000000000000e+00  9.9877467410009557e-01 -5.2583398351461169e-02 0.0000000000000000e+00  9.8117887100021661e-01 -1.9353545980781800e-01 0.0000000000000000e+00  9.4907189649357782e-01 -3.1525520806468027e-01 0.0000000000000000e+00  9.2450762552771093e-01 -3.8119107235796040e-01 0.0000000000000000e+00  9.1052679284326199e-01 -4.1346922790260432e-01 0.0000000000000000e+00  9.1128847834694493e-01 -4.1192250985842466e-01 0.0000000000000000e+00  9.2016330351360864e-01 -3.9193741935370463e-01 0.0000000000000000e+00  9.3512411634024506e-01 -3.5508329936021371e-01 0.0000000000000000e+00  5.1553060645631366e-02 1.1889741905468629e+00 0.0000000000000000e+00  8.8948178944728595e-01 4.6236945052916162e-01 0.0000000000000000e+00  6.8938195198808916e-01 7.3110480610755824e-01 0.0000000000000000e+00  3.2946766308853986e-01 9.4856162051718829e-01 0.0000000000000000e+00  9.1992451735035297e-01 3.9210705909269894e-01 0.0000000000000000e+00  7.5193342513398365e-01 6.5875128120337578e-01 0.0000000000000000e+00  4.4164535052890669e-01 8.9681918761530643e-01 0.0000000000000000e+00  1.4298833793737825e-01 9.8671148215933502e-01 0.0000000000000000e+00  9.5132804495095025e-01 3.1132311420232667e-01 0.0000000000000000e+00  9.5960773041557634e-01 2.9838789062761018e-01 0.0000000000000000e+00  7.9235363038615736e-01 6.1207695708074283e-01 0.0000000000000000e+00  7.7771759713859412e-01 6.3166850433888633e-01 0.0000000000000000e+00  4.2177301505606829e-01 9.1482379001185798e-01 0.0000000000000000e+00  5.9725596827174199e-01 8.1030231214316739e-01 0.0000000000000000e+00  6.2815268336161606e-02 1.0059937109824411e+00 0.0000000000000000e+00  1.8130862229890110e-01 9.7494943088654995e-01 0.0000000000000000e+00  -7.2369007919975163e-03 -1.2315029483952395e+00 0.0000000000000000e+00  -1.0856033656240523e-02 1.1319825427739179e+00 0.0000000000000000e+00  8.6035036582734620e-03 -1.0462741026237501e+00 0.0000000000000000e+00  2.9025815868887282e-02 -9.9972067527961295e-01 0.0000000000000000e+00  4.0011882624670453e-02 -9.9917074993665833e-01 0.0000000000000000e+00  3.3071181667966798e-02 -9.9259356751456651e-01 0.0000000000000000e+00  1.1017924653329811e-02 -9.9181716343002724e-01 0.0000000000000000e+00  9.5423044585943514e-03 1.1735101508559060e+00 0.0000000000000000e+00  3.1177242734783721e-02 9.9326615950039154e-01 0.0000000000000000e+00  3.8177290604693562e-02 9.9902672395727676e-01 0.0000000000000000e+00  2.7102412988208077e-02 9.9981545647785253e-01 0.0000000000000000e+00  6.4413025648293988e-03 1.0453274876508176e+00 0.0000000000000000e+00  5.3453154185285977e-02 -1.2361950820571583e+00 0.0000000000000000e+00  5.2145061557548134e-03 -7.1083870719488829e-01 0.0000000000000000e+00  3.4010071982194676e-02 -9.9955679217793114e-01 0.0000000000000000e+00  1.9958318157616197e-02 -1.0264533583581610e+00 0.0000000000000000e+00  1.8339441186932429e-02 9.9915420640728847e-01 0.0000000000000000e+00  3.2250526854745422e-02 9.9963416814492412e-01 0.0000000000000000e+00  3.3322862748854610e-03 7.2409793096252573e-01 0.0000000000000000e+00  2.2586576446711894e-02 -9.9502711818914746e-01 0.0000000000000000e+00  4.3720497413998284e-02 -9.9982880037073785e-01 0.0000000000000000e+00  -1.2945614068056847e-04 -2.9238825181473593e-01 0.0000000000000000e+00  4.1574600867472333e-02 1.0006089179652746e+00 0.0000000000000000e+00  2.0649769767651420e-02 9.9495891937206016e-01 0.0000000000000000e+00  3.3641223698313794e-01 -9.4608198583567893e-01 0.0000000000000000e+00  6.9674256582467942e-01 -7.2396832943847123e-01 0.0000000000000000e+00  8.9577458853552894e-01 -4.5012287989176819e-01 0.0000000000000000e+00  1.4806252465975339e-01 -9.8647660748229737e-01 0.0000000000000000e+00  4.5105301612909060e-01 -8.9210506318591132e-01 0.0000000000000000e+00  7.6041046179689042e-01 -6.4894148130685947e-01 0.0000000000000000e+00  9.2739789097932857e-01 -3.7412670573982254e-01 0.0000000000000000e+00  1.8396509664503063e-01 -9.6788323530191467e-01 0.0000000000000000e+00  7.0214830688220334e-02 -1.0054611278135792e+00 0.0000000000000000e+00  6.0098569462212315e-01 -8.0725566901718515e-01 0.0000000000000000e+00  4.3418023166843650e-01 -9.0874799150914187e-01 0.0000000000000000e+00  7.8355844273559938e-01 -6.2439690954847404e-01 0.0000000000000000e+00  8.0063694335665259e-01 -6.0121014033982456e-01 0.0000000000000000e+00  9.6437898294811653e-01 -2.8279815381001006e-01 0.0000000000000000e+00  9.5928551034338272e-01 -2.8636333600010849e-01 0.0000000000000000e+00  8.9505514394247099e-01 4.4623506271299107e-01 0.0000000000000000e+00  9.0357076731585784e-01 4.2873423694473539e-01 0.0000000000000000e+00  9.9142135662042785e-01 -1.3148347651177200e-01 0.0000000000000000e+00  7.7340939222845417e-01 -6.3422353735564607e-01 0.0000000000000000e+00  7.5899412553451684e-01 -6.5139401734674807e-01 0.0000000000000000e+00  9.8144779036918595e-01 -1.9240317396895648e-01 0.0000000000000000e+00  2.8936258644993074e-01 9.5740937075349941e-01 0.0000000000000000e+00  2.6575072123638627e-01 9.6417813657334062e-01 0.0000000000000000e+00  2.7193219384754619e-01 -9.6246664427394502e-01 0.0000000000000000e+00  2.5091289900284031e-01 -9.6816879208463646e-01 0.0000000000000000e+00  6.6785803178579917e-01 -7.4465801297327028e-01 0.0000000000000000e+00  3.7068766456336671e-01 -9.2907343717923696e-01 0.0000000000000000e+00  4.7448102218863564e-01 -8.8086797998242372e-01 0.0000000000000000e+00  7.5592893214983761e-02 1.1435936641586872e+00 0.0000000000000000e+00  1.6341471296055954e-01 9.0345129428081561e-01 0.0000000000000000e+00  1.7154714735605085e-02 1.2194999077804833e+00 0.0000000000000000e+00  6.9454579509817038e-01 -7.2034987134359718e-01 0.0000000000000000e+00  5.1794151453718162e-01 8.7287725034884223e-01 0.0000000000000000e+00  9.9246060656650203e-01 -1.3483404551304257e-01 0.0000000000000000e+00  8.8720639141148050e-01 -4.8679033022687840e-01 0.0000000000000000e+00  6.8388334374814230e-01 7.3259612257799889e-01 0.0000000000000000e+00  4.9427507939438853e-01 -8.6972552888173016e-01 0.0000000000000000e+00  1.0825830151736478e-01 9.8892166528979353e-01 0.0000000000000000e+00  6.8473963123853321e-01 -7.2916455054682305e-01 0.0000000000000000e+00  3.9088756257771456e-01 -9.2065636897138070e-01 0.0000000000000000e+00  1.3813860634095949e-03 -4.1379317031139101e-01 0.0000000000000000e+00  4.0760680037728053e-01 9.1341869782780638e-01 0.0000000000000000e+00  7.2783373048907796e-01 6.8615523084131180e-01 0.0000000000000000e+00  9.8660330980544264e-01 1.6403677706552994e-01 0.0000000000000000e+00  6.8602255611860652e-01 7.2794077120456890e-01 0.0000000000000000e+00  7.8905390424062738e-01 6.1458374748481248e-01 0.0000000000000000e+00  8.7386690055652261e-01 -4.8649381176469436e-01 0.0000000000000000e+00  5.8473976609380662e-01 8.1163679032070790e-01 0.0000000000000000e+00  9.8301477737537291e-01 1.8410795052620602e-01 0.0000000000000000e+00  8.7992234481234144e-01 -4.7558664706507875e-01 0.0000000000000000e+00  4.5483494311887745e-01 8.9087237042216161e-01 0.0000000000000000e+00  4.7184724680361062e-01 -8.8218099644777259e-01 0.0000000000000000e+00  2.1939945031078913e-02 1.2162322922974151e+00 0.0000000000000000e+00  8.1592597345010032e-01 5.7845164106624891e-01 0.0000000000000000e+00  5.6767188561456106e-01 8.2363387528715482e-01 0.0000000000000000e+00  7.9281644162255704e-01 6.1020047503151864e-01 0.0000000000000000e+00  5.5842341419784502e-01 -8.2993604872573912e-01 0.0000000000000000e+00  5.7