<?xml version="1.0"?>
<VTKFile type="UnstructuredGrid"  version="0.1"  >
<UnstructuredGrid>
<Piece  NumberOfPoints="4153" NumberOfCells="8064">
<Points>
<DataArray  type="Float64"  NumberOfComponents="3"  format="ascii">-0.4165347785222364 -0.613401648226971 0  -0.04099304824422027 -0.7722407398746218 0  -0.09351244346023609 -0.767153817587131 0  -0.1450379289441212 -0.7568000196475065 0  -0.1951326841404628 -0.7417954016291269 0  -0.2438373838255105 -0.7236114516303235 0  -0.2905435463802378 -0.7002438557519499 0  -0.3348640832418084 -0.6734995366494188 0  -0.3768087057166181 -0.6443713556135343 0  0.01189058603598477 -0.7716934241257691 0  -0.4541235269658548 -0.5825679485661336 0  -0.4902823766968641 -0.5519065037295715 0  -0.5250647472872214 -0.5216695971066138 0  -0.5586812209912349 -0.49228480165377 0  -0.5915256567856094 -0.4643516274815465 0  -0.6238035137200834 -0.4381320469047573 0  -0.6556651658827182 -0.4145044435285733 0  0.6466955592935704 -0.4145090241506751 0  0.06445768824954931 -0.7655738279935532 0  0.1160594100188383 -0.7541228737499055 0  0.1661386275426046 -0.7378519142320641 0  0.2142657513404594 -0.7173791997841928 0  0.2602593469630198 -0.693801322701697 0  0.3041077735587658 -0.6678477430708101 0  0.3458936256180964 -0.6402472276869854 0  0.3857309335340235 -0.6116158600503823 0  0.4239313844403835 -0.5826818912593261 0  0.4607210063443541 -0.5538633167873374 0  0.4963360245331541 -0.5255290917229124 0  0.5309472708240284 -0.4980298995713341 0  0.5648033862231363 -0.4716040950557671 0  0.5980363568814769 -0.4467179452336343 0  0.6308757418266603 -0.4242223795380888 0  0.6142718727830243 -0.4354001793111896 0  -0.6394958130393239 -0.4261346552358352 0  -0.5751743594540566 -0.4782234309999394 0  -0.5078195966035699 -0.5367104134684134 0  -0.4354821002800561 -0.5979256864003961 0  -0.3561339137013718 -0.6590660458815746 0  -0.2674802454995649 -0.7124290573232606 0  -0.1702835653275308 -0.7499327798945455 0  -0.06734093501393207 -0.7703863915769058 0  0.5814432303889747 -0.4591342536281447 0  0.1413184051680378 -0.7465420106961951 0  0.2375326561688146 -0.705937804266121 0  0.3252419466040861 -0.654213952548011 0  0.4050258054130389 -0.5971683780177921 0  0.4786546501983402 -0.539632315271713 0  0.5479795353387531 -0.4847513635002508 0  0.03825568018500249 -0.7693225222464032 0  -0.6710512328722459 -0.4042237593191365 0  0.5137446643744001 -0.5116538012641479 0  0.442485703482461 -0.5682432835305702 0  0.3660419606152912 -0.6259985964269199 0  0.2824490113829434 -0.681083833929931 0  0.1904755346799469 -0.7280894225580855 0  0.0904170283711057 -0.7604876753532736 0  -0.01455208358912439 -0.7726778131791677 0  -0.1194331422271492 -0.7626180542271649 0  -0.219553793292917 -0.7331372909770525 0  -0.3129716228330164 -0.6871337691993371 0  -0.3971493785910579 -0.629307834398496 0  -0.4723924835512781 -0.5672274440338622 0  -0.5420192387654511 -0.50685457387291 0  -0.6076583402432415 -0.4511878491214101 0  0.7766154629012088 -0.2272903576533481 0  0.697564542596316 -0.3846744727550025 0  0.7413572430552453 -0.3422640518237636 0  0.7692333954795871 -0.28860834786875 0  0.6726422797992267 -0.4001220794286074 0  0.7205580916057128 -0.3648044037303279 0  0.7535398826920698 -0.3140645108491696 0  0.7718324838310978 -0.2575486536731529 0  0.6597158444154962 -0.4079299862797929 0  0.6850577129656196 -0.3916860036932824 0  0.7091766698950938 -0.374913392224858 0  0.7306170501074836 -0.3527036088608314 0  0.7496029796087015 -0.3292976094013341 0  0.7605393351263844 -0.301137395892741 0  0.7695976887406826 -0.2728303106768034 0  0.7735873672523597 -0.2422798578094874 0  0.7760712646763163 -0.2075049663017139 0  0.7803050580059998 0.234335394359604 0  0.7806081515234191 0.1950863049188685 0  0.7822723427338261 0.1554922355270436 0  0.7843859033504529 0.1154471459794722 0  0.7866441350734904 0.07487481134201075 0  0.7874932000009801 0.03388125488535482 0  0.7870325735279275 -0.00721368153836557 0  0.7852627047392156 -0.04818559845609714 0  0.7821744431677994 -0.08870560025175905 0  0.7792963504030711 -0.128714563631782 0  0.776928631162389 -0.1682715043711214 0  0.7814657550526649 0.2540596854360414 0  0.7802329554778001 0.2147415008830246 0  0.7833125010465614 0.1355295327172716 0  0.7872313336200799 0.05440597732189052 0  0.7863149405394207 -0.0277298702103711 0  0.7807197209868749 -0.1087730561039469 0  0.7762675290209439 -0.1879203087551275 0  0.781356658561285 0.1753419675581009 0  0.7855962147992885 0.0952492902986064 0  0.7874217696225927 0.01333260604749654 0  0.7837713179811605 -0.06853321589173965 0  0.7780240295257674 -0.1485469457922853 0  0.6582340161583807 0.4439939835219349 0  0.7758043450816653 0.3156051219125604 0  0.7496512299963529 0.3701356058923812 0  0.7075637685115674 0.4134919351037978 0  0.777726475770485 0.2844444037468305 0  0.7614180788764653 0.3417922110931352 0  0.7296751227778968 0.3929493554978569 0  0.6832615702129012 0.4291029468251844 0  0.7791174815959988 0.2691551604636752 0  0.7760531585698859 0.2998132927571079 0  0.7679204963029246 0.3285033210559975 0  0.7571591853376146 0.3567597808667604 0  0.7392900634693708 0.3807017057730069 0  0.7187099608376879 0.4033349174007947 0  0.6953463322756831 0.4206494659132184 0  0.6707175636830963 0.4369934245239554 0  -0.03136307512016401 0.8409898129547317 0  0.6117022314330041 0.4783718246240398 0  0.5799777622093381 0.505104552111626 0  0.5476966426853103 0.5337169087947958 0  0.5146149083844996 0.5639084831917278 0  0.4803540992211162 0.5951573644745357 0  0.4446681686139009 0.6270825597156896 0  0.4072903910050099 0.6592873433333324 0  0.3678861536822633 0.6913679522699044 0  0.3260794367483918 0.7223325941952219 0  0.2817410022438951 0.7515156103338283 0  0.2347799382186107 0.7780721419758524 0  0.1852244321003953 0.8012710127495389 0  0.1332773381641172 0.8197372593501424 0  0.07943462318583533 0.8328026865698853 0  0.02433162301807641 0.8398632102022759 0  0.6430797967886824 0.4543611311969697 0  -0.08675875159733484 0.834998425103636 0  -0.1409361993068957 0.8227418287940151 0  -0.1931923078079088 0.8049076094189171 0  -0.2428023030218499 0.7814852650373083 0  -0.2899015523829472 0.7558327695379344 0  -0.3344269876740434 0.7276039947967191 0  -0.376498955741213 0.6976008217296435 0  -0.4162398511629182 0.6663251666412628 0  -0.454012581135785 0.6350547386520589 0  -0.4902241008857354 0.6040529714760763 0  -0.5251006042720551 0.5736462515688279 0  -0.5588713890058463 0.544163706800903 0  -0.5917498878703729 0.5159023726505232 0  -0.6239781895170013 0.4894024515356565 0  -0.655802537729361 0.4655375193817794 0  -0.6711350744670199 0.4552086037967351 0  -0.6396734275258932 0.4773268045956061 0  -0.5754193875647049 0.529942761761762 0  -0.5078153691846297 0.5887631018535588 0  -0.4353241212177503 0.6506647587047029 0  -0.3557529706239537 0.7127428580518147 0  -0.2666678467498854 0.7690409980285591 0  -0.1673247596250553 0.8143196357605997 0  -0.05915303724348461 0.838781834433344 0  0.05200407738129541 0.837139700496459 0  0.1595229543895169 0.8111105147874726 0  0.2585886056955328 0.7651791539359167 0  0.3472815652819091 0.7070132706334589 0  0.4262059007044613 0.6431764592250626 0  0.4976415701699038 0.5794274528899187 0  0.5639164252866677 0.5192891193434646 0  0.6271662208948752 0.4661878594920294 0  -0.6078805369135132 0.502597123199327 0  -0.5421118506050725 0.5587928061585078 0  -0.472302359306969 0.6195040180659332 0  -0.3966967334388971 0.6820986437709571 0  -0.3124744021633633 0.7419715636228302 0  -0.2185227618713891 0.7939938628697656 0  -0.1140409142942533 0.8295786107006098 0  -0.003445371735515629 0.8412414801242921 0  0.106557463101767 0.8269855400917169 0  0.2103483564149291 0.7902239158275924 0  0.3042350318955694 0.7372006190404387 0  0.3878899325844585 0.6754117897493432 0  0.4627050972160832 0.611063473288031 0  0.531298804744333 0.548668811118724 0  0.5958450097149578 0.4916589103598087 0  -0.79692329743755 0.2656456132210128 0  -0.7208697041424521 0.424539650469257 0  -0.763532070381606 0.381344894817423 0  -0.7903734826876643 0.3271151254502979 0  -0.6964204368104269 0.440268273782525 0  -0.7432889577669076 0.4041538003879988 0  -0.7754048935839952 0.3529942048834069 0  -0.7926242348500957 0.295984278111479 0  -0.6837568056647222 0.4482240581979261 0  -0.7085873942424195 0.4317249625355563 0  -0.7321798100786451 0.4144803594440744 0  -0.7530517214467135 0.3919043121038697 0  -0.771354193359215 0.3681150029876283 0  -0.782119757479157 0.339858651029569 0  -0.7906696672575793 0.3113232634654883 0  -0.7942082546174063 0.2806988689813773 0  -0.7960914944176762 0.245875667157745 0  -0.7963088559534119 -0.1961758987594599 0  -0.7968826277053034 -0.1569480181560575 0  -0.7988970100921404 -0.117374572748406 0  -0.8013860770243092 -0.07733923375283121 0  -0.8040417657210419 -0.03677845780309889 0  -0.8053319298504781 0.004222823270635091 0  -0.8053194852364638 0.04533884144096395 0  -0.8040085730809505 0.08634657304505211 0  -0.8013454445901538 0.1269273526132856 0  -0.798819081048471 0.1669929341145585 0  -0.7967414290969385 0.2066047070576009 0  -0.7972203028390983 -0.2159233002663302 0  -0.7963642566168363 -0.1765950235996769 0  -0.8001275813638534 -0.09741950517948859 0  -0.8048508045707813 -0.01630714625196899 0  -0.8048272237906665 0.06587108680103011 0  -0.8000706526823077 0.1470214019711541 0  -0.7961853399478069 0.2262721735270306 0  -0.7978026023460465 -0.1372158793950715 0  -0.8027814648766846 -0.05714777479734999 0  -0.80548366157031 0.02478047280359788 0  -0.8027463309749653 0.106723303407288 0  -0.7976974102201192 0.1868524854080816 0  -0.7907020774021449 -0.2773251061444389 0  -0.7636982824604073 -0.3313657008973839 0  -0.7209183871522212 -0.3742213207622586 0  -0.7930128582801125 -0.2462430176247052 0  -0.7757700795095281 -0.3031975260414629 0  -0.7433980805172539 -0.354051128755688 0  -0.6963442583675128 -0.3896593415254953 0  -0.7945767329928318 -0.2309708669855075 0  -0.7910789368722534 -0.2
[...]
<PointData  Vectors="f_3770"> 
<DataArray  type="Float64"  Name="f_3770"  NumberOfComponents="3" format="ascii">7.7014268244013651e-01 -6.3809710640655759e-01 0.0000000000000000e+00  9.9923981777378723e-01 -4.3452035527098802e-02 0.0000000000000000e+00  9.8925386017902806e-01 -1.4743139391971147e-01 0.0000000000000000e+00  9.7059996842858098e-01 -2.4134217402068750e-01 0.0000000000000000e+00  9.4550218236741923e-01 -3.2586628792992406e-01 0.0000000000000000e+00  9.1844282357967166e-01 -3.9615863690971942e-01 0.0000000000000000e+00  8.7352357147848880e-01 -4.8715955167657810e-01 0.0000000000000000e+00  8.3856353647904303e-01 -5.4509296115615535e-01 0.0000000000000000e+00  8.1238899092182659e-01 -5.8323482692281170e-01 0.0000000000000000e+00  9.9815217828434799e-01 6.3534792439808502e-02 0.0000000000000000e+00  7.6886267225290972e-01 -6.3944729765065578e-01 0.0000000000000000e+00  7.5725837409865060e-01 -6.5312970404999693e-01 0.0000000000000000e+00  7.5346271434386192e-01 -6.5749061942323339e-01 0.0000000000000000e+00  7.5706309762624291e-01 -6.5335362345066261e-01 0.0000000000000000e+00  7.6863512669750667e-01 -6.3974399923127356e-01 0.0000000000000000e+00  7.8374874597279220e-01 -6.2120026708594900e-01 0.0000000000000000e+00  8.1725945224662244e-01 -5.7677390114082361e-01 0.0000000000000000e+00  8.7765337066512938e-01 4.8180875597115597e-01 0.0000000000000000e+00  9.8607896601650513e-01 1.6728615373114583e-01 0.0000000000000000e+00  9.6448703283803139e-01 2.6472055095800295e-01 0.0000000000000000e+00  9.3630687165031168e-01 3.5160115071725617e-01 0.0000000000000000e+00  9.0456951276509678e-01 4.2659645405546759e-01 0.0000000000000000e+00  8.7479634714409427e-01 4.8468773547886113e-01 0.0000000000000000e+00  8.4657954762260579e-01 5.3239986103597770e-01 0.0000000000000000e+00  8.2221506498326524e-01 5.6927396617880344e-01 0.0000000000000000e+00  8.0390816261781162e-01 5.9479851327539146e-01 0.0000000000000000e+00  7.9125915783925449e-01 6.1150059615362329e-01 0.0000000000000000e+00  7.8407163926267742e-01 6.2067315444657079e-01 0.0000000000000000e+00  7.8166255556774245e-01 6.2370235892682713e-01 0.0000000000000000e+00  7.8710345422333661e-01 6.1685452174784661e-01 0.0000000000000000e+00  7.9441101926928359e-01 6.0745590506009284e-01 0.0000000000000000e+00  8.0919446443576082e-01 5.8770511145426829e-01 0.0000000000000000e+00  8.3534060193504489e-01 5.5024944462557557e-01 0.0000000000000000e+00  8.2646539222778914e-01 5.6338885799756666e-01 0.0000000000000000e+00  8.0465620626720558e-01 -5.9412857552010712e-01 0.0000000000000000e+00  7.6123889431072755e-01 -6.4849343289087669e-01 0.0000000000000000e+00  7.5436233500060279e-01 -6.5646221390116244e-01 0.0000000000000000e+00  7.7501346144023897e-01 -6.3196201870162472e-01 0.0000000000000000e+00  8.1933370928806271e-01 -5.7360178392278394e-01 0.0000000000000000e+00  8.9321863245501010e-01 -4.5021178098984599e-01 0.0000000000000000e+00  9.5765680528550789e-01 -2.8852217957659437e-01 0.0000000000000000e+00  9.9547922800149413e-01 -9.6866661901085144e-02 0.0000000000000000e+00  7.9981232564176352e-01 6.0033764809497192e-01 0.0000000000000000e+00  9.5109806390787377e-01 3.0936162930758820e-01 0.0000000000000000e+00  8.8986232186260039e-01 4.5644991177802829e-01 0.0000000000000000e+00  8.3436222858514231e-01 5.5132357820441669e-01 0.0000000000000000e+00  7.9691604584473696e-01 6.0412300404829444e-01 0.0000000000000000e+00  7.8239815923382494e-01 6.2277845389364284e-01 0.0000000000000000e+00  7.8709143750101129e-01 6.1685652701669091e-01 0.0000000000000000e+00  9.9345831940962925e-01 1.1569821026312967e-01 0.0000000000000000e+00  8.5667058373710814e-01 -5.1773451968968465e-01 0.0000000000000000e+00  7.8225749563247604e-01 6.2295919829966617e-01 0.0000000000000000e+00  7.8699824170626564e-01 6.1696469865122083e-01 0.0000000000000000e+00  8.1149115799862903e-01 5.8444031731631874e-01 0.0000000000000000e+00  8.6040576869559404e-01 5.0977348699694169e-01 0.0000000000000000e+00  9.1987473389097152e-01 3.9257707540615999e-01 0.0000000000000000e+00  9.7636265420017632e-01 2.1689090472011255e-01 0.0000000000000000e+00  1.0001282404015481e+00 1.0489654420506431e-02 0.0000000000000000e+00  9.8032116500224620e-01 -1.9827024094321258e-01 0.0000000000000000e+00  9.3906924202521147e-01 -3.4403192282943573e-01 0.0000000000000000e+00  8.5620313991832508e-01 -5.1694256187682475e-01 0.0000000000000000e+00  7.8727751191144313e-01 -6.1692687567881488e-01 0.0000000000000000e+00  7.6250994782142567e-01 -6.4699931500952002e-01 0.0000000000000000e+00  7.5173162711247710e-01 -6.5947077647832875e-01 0.0000000000000000e+00  7.7622486822071146e-01 -6.3054274846176928e-01 0.0000000000000000e+00  7.7005269375768293e-02 1.1839624871498777e+00 0.0000000000000000e+00  8.2717678106895243e-01 5.6449552562716365e-01 0.0000000000000000e+00  6.8163363705974211e-01 7.4248921274230939e-01 0.0000000000000000e+00  2.9218715940987805e-01 9.6067428089013529e-01 0.0000000000000000e+00  8.2504528175648073e-01 5.6553196178550968e-01 0.0000000000000000e+00  6.8291145555804333e-01 7.3114074725443101e-01 0.0000000000000000e+00  2.9880308825401253e-01 9.5822317090856735e-01 0.0000000000000000e+00  1.4408557712292192e-01 9.8795577999912043e-01 0.0000000000000000e+00  8.8700796855796904e-01 4.6566585485555873e-01 0.0000000000000000e+00  8.6290994603335869e-01 5.0873979965614446e-01 0.0000000000000000e+00  7.5673506527940171e-01 6.5559770462965450e-01 0.0000000000000000e+00  6.7674148855310245e-01 7.3495631559541730e-01 0.0000000000000000e+00  3.5230063313339444e-01 9.4442469108906291e-01 0.0000000000000000e+00  6.2745877746136425e-01 7.9850125982515174e-01 0.0000000000000000e+00  2.2638089346911805e-02 1.0084235532401784e+00 0.0000000000000000e+00  1.7797577231939757e-01 9.7050820561300388e-01 0.0000000000000000e+00  -2.1640828420493714e-02 -4.7368440338620826e-01 0.0000000000000000e+00  -2.4102561618478194e-03 1.4279819865782937e+00 0.0000000000000000e+00  2.6781739729986653e-02 -1.0092774063657648e+00 0.0000000000000000e+00  4.9500373533749836e-02 -9.9921887104382512e-01 0.0000000000000000e+00  5.7041440468364166e-02 -9.9846186220089927e-01 0.0000000000000000e+00  4.0274374294949844e-02 -1.0266537699064215e+00 0.0000000000000000e+00  2.1846922689893931e-03 -1.0705281212599664e+00 0.0000000000000000e+00  2.6932911836289462e-02 9.5246312811879741e-01 0.0000000000000000e+00  6.2932255448271537e-02 9.9984879899834489e-01 0.0000000000000000e+00  7.5661065023067506e-02 9.9719517762661913e-01 0.0000000000000000e+00  6.8060688817651524e-02 9.9811095823517482e-01 0.0000000000000000e+00  4.3425955896692667e-02 1.0009501788574200e+00 0.0000000000000000e+00  3.1021708591640884e-02 -1.1195570554682335e+00 0.0000000000000000e+00  1.7692317764327246e-02 -1.0035486945091652e+00 0.0000000000000000e+00  5.2417187278527379e-02 -9.9868614227992425e-01 0.0000000000000000e+00  2.0273937901453633e-02 -8.9325801841639918e-01 0.0000000000000000e+00  4.2294203831688880e-02 9.9879556420332982e-01 0.0000000000000000e+00  7.1690398977820827e-02 9.9738615947607956e-01 0.0000000000000000e+00  3.0899305468990969e-02 1.0464813294239017e+00 0.0000000000000000e+00  4.3966124471874299e-02 -9.9635818113300945e-01 0.0000000000000000e+00  5.9032157915370656e-02 -9.9504945307778736e-01 0.0000000000000000e+00  1.0814505428143027e-02 1.3690485887862243e+00 0.0000000000000000e+00  7.9354589106885684e-02 9.9645147617573382e-01 0.0000000000000000e+00  6.1767070460793133e-02 9.9638908490958555e-01 0.0000000000000000e+00  8.5201485909988961e-01 -5.2559571132396155e-01 0.0000000000000000e+00  2.6513546383738285e-01 -9.6828154199724270e-01 0.0000000000000000e+00  6.4243797885309595e-01 -7.7439575438030950e-01 0.0000000000000000e+00  8.0868225911428360e-01 -5.9089062693594785e-01 0.0000000000000000e+00  1.1205690977868017e-01 -9.9071389165418300e-01 0.0000000000000000e+00  3.0654788318600784e-01 -9.5392419964096808e-01 0.0000000000000000e+00  6.6012958413138734e-01 -7.5150453738542078e-01 0.0000000000000000e+00  8.1745502577854989e-01 -5.7625745295238651e-01 0.0000000000000000e+00  1.4583116891603978e-01 -9.8763497258802935e-01 0.0000000000000000e+00  3.3775984785970087e-03 -1.0078595472088629e+00 0.0000000000000000e+00  5.7067971373752868e-01 -8.3458210082947137e-01 0.0000000000000000e+00  3.4000238901979080e-01 -9.4768768650337565e-01 0.0000000000000000e+00  6.6311058291690583e-01 -7.4825656083952108e-01 0.0000000000000000e+00  7.3110567398578175e-01 -6.8398389473874743e-01 0.0000000000000000e+00  8.5665896475922354e-01 -5.2028179073142300e-01 0.0000000000000000e+00  8.7281595584371952e-01 -4.9197445574727405e-01 0.0000000000000000e+00  9.9928012755615281e-01 4.4811322505844145e-02 0.0000000000000000e+00  7.7393608092740807e-01 -6.3340306085768305e-01 0.0000000000000000e+00  7.5627934906647132e-01 -6.5431119391569736e-01 0.0000000000000000e+00  7.4324943778578922e-01 -6.6902789061410783e-01 0.0000000000000000e+00  7.3826063897635696e-01 -6.7451501719453510e-01 0.0000000000000000e+00  7.4099957925391702e-01 -6.7151678179233276e-01 0.0000000000000000e+00  7.5050383276464028e-01 -6.6090322375397026e-01 0.0000000000000000e+00  7.6474501178207321e-01 -6.4441179746155275e-01 0.0000000000000000e+00  7.8919950694621432e-01 -6.1427312960309477e-01 0.0000000000000000e+00  8.1839189594311457e-01 -5.7485347712710666e-01 0.0000000000000000e+00  8.5229635426184114e-01 -5.2332165617122628e-01 0.0000000000000000e+00  8.8717506955598635e-01 -4.6175542527403296e-01 0.0000000000000000e+00  9.2526553553940927e-01 -3.7982499532928177e-01 0.0000000000000000e+00  9.5791074016368782e-01 -2.8777133298172430e-01 0.0000000000000000e+00  9.8316074386010599e-01 -1.8389490463148081e-01 0.0000000000000000e+00  9.9746970443713201e-01 -7.3247742898066168e-02 0.0000000000000000e+00  8.0920561707029348e-01 -5.8806417675062950e-01 0.0000000000000000e+00  9.8638310521650374e-01 1.6576779499322747e-01 0.0000000000000000e+00  9.6120536418418745e-01 2.7671402052068367e-01 0.0000000000000000e+00  9.3172660666836304e-01 3.6384886934275368e-01 0.0000000000000000e+00  8.8625602750011656e-01 4.6349452069922675e-01 0.0000000000000000e+00  8.5988712327734629e-01 5.1080891415791885e-01 0.0000000000000000e+00  8.2836757140748918e-01 5.6038338822599598e-01 0.0000000000000000e+00  8.0119455597968725e-01 5.9852993604282401e-01 0.0000000000000000e+00  7.7459871409827641e-01 6.3253539350447985e-01 0.0000000000000000e+00  7.6453308176517920e-01 6.4461399186893087e-01 0.0000000000000000e+00  7.5592738802317194e-01 6.5466260817949851e-01 0.0000000000000000e+00  7.5299192315339913e-01 6.5802950391936088e-01 0.0000000000000000e+00  7.5636340739016983e-01 6.5416662091264477e-01 0.0000000000000000e+00  7.6491027659897326e-01 6.4419114045389869e-01 0.0000000000000000e+00  7.8100114328355130e-01 6.2465925660472188e-01 0.0000000000000000e+00  8.1329179592386880e-01 5.8234928175927780e-01 0.0000000000000000e+00  8.5571102463629145e-01 5.1950103308863493e-01 0.0000000000000000e+00  8.0154581570950645e-01 5.9831119084780482e-01 0.0000000000000000e+00  7.5721966087590897e-01 6.5317380112807810e-01 0.0000000000000000e+00  7.5339933066291076e-01 6.5756537108543089e-01 0.0000000000000000e+00  7.7065527354175201e-01 6.3728534503547551e-01 0.0000000000000000e+00  8.1383044530934334e-01 5.8125547713194015e-01 0.0000000000000000e+00  8.8066399459670253e-01 4.7389199890603367e-01 0.0000000000000000e+00  9.4613190093295396e-01 3.2432258844358369e-01 0.0000000000000000e+00  9.9433340982636031e-01 1.0859253995489612e-01 0.0000000000000000e+00  9.9219499451766502e-01 -1.2631354096594649e-01 0.0000000000000000e+00  9.4225265029535066e-01 -3.3545874853913493e-01 0.0000000000000000e+00  8.7069129731130845e-01 -4.9209666191599150e-01 0.0000000000000000e+00  8.0343595517169419e-01 -5.9554478694975632e-01 0.0000000000000000e+00  7.5755593626844409e-01 -6.5281979678033220e-01 0.0000000000000000e+00  7.3843671234892527e-01 -6.7432653801638531e-01 0.0000000000000000e+00  7.4766893964958936e-01 -6.6409444417910490e-01 0.0000000000000000e+00  7.9551496695296575e-01 -6.0633172849339645e-01 0.0000000000000000e+00  7.7217971636268556e-01 6.3548268440772182e-01 0.0000000000000000e+00  7.5264079229752223e-01 6.5843202624832486e-01 0.0000000000000000e+00  7.5932900629227840e-01 6.5072443646652733e-01 0.0000000000000000e+00  7.8476279542137339e-01 6.1995639723994656e-01 0.0000000000000000e+00  8.4471289800703542e-01 5.3541241540078055e-01 0.0000000000000000e+00  9.0167749808355202e-01 4.3354492463934902e-01 0.0000000000000000e+00  9.7567103957227308e-01 2.2029418794532329e-01 0.0000000000000000e+00  9.9996945298915096e-01 -2.3248608358434925e-02 0.0000000000000000e+00  9.7201777138141421e-01 -2.3573615160807385e-01 0.0000000000000000e+00  9.0517470338319095e-01 -4.2553259496459894e-01 0.0000000000000000e+00  8.3520032128963939e-01 -5.5016213668465241e-01 0.0000000000000000e+00  7.7472358376397554e-01 -6.3243163968247518e-01 0.0000000000000000e+00  7.4504264030945389e-01 -6.6703866190835581e-01 0.0000000000000000e+00  7.3758408229350736e-01 -6.7525669534143251e-01 0.0000000000000000e+00  7.6454706123289706e-01 -6.4465739364438923e-01 0.0000000000000000e+00  5.5304225889701075e-02 1.1644061307224598e+00 0.0000000000000000e+00  8.1299191541889537e-01 5.8479804754842302e-01 0.0000000000000000e+00  6.5800355719539438e-01 7.6224979030353412e-01 0.0000000000000000e+00  2.7682852419951509e-01 9.6507226300807991e-01 0.0000000000000000e+00  8.1688072354913932e-01 5.7711308661998895e-01 0.0000000000000000e+00  6.6671542203301448e-01 7.4580103784491880e-01 0.0000000000000000e+00  2.9983121012247710e-01 9.5691099152793946e-01 0.0000000000000000e+00  1.2825622968497810e-01 9.8942149530273305e-01 0.0000000000000000e+00  8.7427296698624546e-01 4.8924025609445193e-01 0.0000000000000000e+00  8.5510310186578276e-01 5.2225951171575313e-01 0.0000000000000000e+00  7.3923150600577092e-01 6.7520638568195590e-01 0.0000000000000000e+00  6.6513400738292860e-01 7.4595117001870292e-01 0.0000000000000000e+00  3.4223631943628091e-01 9.4744470297391992e-01 0.0000000000000000e+00  5.9676097865604105e-01 8.1875012320245610e-01 0.0000000000000000e+00  1.2776826073252001e-02 1.0081440907148072e+00 0.0000000000000000e+00  1.6329986904847710e-01 9.7785607806086861e-01 0.0000000000000000e+00  -1.6346738394971496e-02 -7.3859472680205474e-01 0.0000000000000000e+00  -1.4410372412278757e-02 9.7472691335513573e-01 0.0000000000000000e+00  3.5033250125836718e-02 -1.0043701420973412e+00 0.0000000000000000e+00  5.8800719416586052e-02 -9.9872212975132457e-01 0.0000000000000000e+00  6.5974046927182062e-02 -9.9771121065799828e-01 0.0000000000000000e+00  5.1125890865067657e-02 -9.9169829494825867e-01 0.0000000000000000e+00  1.6152346930278290e-02 -1.0806052923501821e+00 0.0000000000000000e+00  1.6835409635278173e-02 1.0481103618121148e+00 0.0000000000000000e+00  5.1383444624907591e-02 9.9110204734568275e-01 0.0000000000000000e+00  6.6479328366414098e-02 9.9769892903850554e-01 0.0000000000000000e+00  5.9918203094557788e-02 9.9865690940639518e-01 0.0000000000000000e+00  3.6970921469280313e-02 1.0019760851294695e+00 0.0000000000000000e+00  4.9928284551088366e-02 -1.1427723511594357e+00 0.0000000000000000e+00  2.4257970801622675e-02 -1.0285505087407003e+00 0.0000000000000000e+00  6.1878464434825579e-02 -9.9803933311724757e-01 0.0000000000000000e+00  3.0361752540916102e-02 -1.0152151159175913e+00 0.0000000000000000e+00  3.0886009478512645e-02 1.0202092717319378e+00 0.0000000000000000e+00  6.2791532312080095e-02 9.9796541588146737e-01 0.0000000000000000e+00  2.6085425557277542e-02 1.0440398291182793e+00 0.0000000000000000e+00  5.2831463965969827e-02 -9.9652472827982796e-01 0.0000000000000000e+00  6.8745363267149501e-02 -9.9877619215629265e-01 0.0000000000000000e+00  -3.3159736350134750e-04 9.2870094040700027e-02 0.0000000000000000e+00  6.8780260259556539e-02 9.9878255071564914e-01 0.0000000000000000e+00  5.4377467254137037e-02 9.9665503227910190e-01 0.0000000000000000e+00  2.7953276556602819e-01 -9.6427555768632345e-01 0.0000000000000000e+00  6.6034526038306951e-01 -7.5991683940394938e-01 0.0000000000000000e+00  8.1711800024529613e-01 -5.7906261624794353e-01 0.0000000000000000e+00  1.2646597172964744e-01 -9.8901657759256467e-01 0.0000000000000000e+00  3.0694316757619311e-01 -9.5449959837587794e-01 0.0000000000000000e+00  6.7172071235457032e-01 -7.4128713886346209e-01 0.0000000000000000e+00  8.2593123467078489e-01 -5.6403834379378326e-01 0.0000000000000000e+00  1.6072064543862902e-01 -9.8277132540279766e-01 0.0000000000000000e+00  1.5449996026907963e-02 -1.0080156795318480e+00 0.0000000000000000e+00  5.9357736604129396e-01 -8.2018404200355488e-01 0.0000000000000000e+00  3.5118686764006846e-01 -9.4384872172206669e-01 0.0000000000000000e+00  6.6788266648075179e-01 -7.4357112205036602e-01 0.0000000000000000e+00  7.4362708024027646e-01 -6.7038116589993202e-01 0.0000000000000000e+00  8.6049159118096452e-01 -5.1344306914875182e-01 0.0000000000000000e+00  8.8034336298410720e-01 -4.7851451106850967e-01 0.0000000000000000e+00  8.8804846710273000e-01 4.5994207146550559e-01 0.0000000000000000e+00  8.8586235422406412e-01 4.6411421818232218e-01 0.0000000000000000e+00  9.9103429361716566e-01 -1.3440473871092715e-01 0.0000000000000000e+00  7.3005505732766207e-01 -6.8354367501624669e-01 0.0000000000000000e+00  7.1643508217724117e-01 -6.9779779937496356e-01 0.0000000000000000e+00  9.8295492314104793e-01 -1.8446579126829249e-01 0.0000000000000000e+00  2.5171052895358353e-01 9.6793573548530976e-01 0.0000000000000000e+00  2.3290606126611982e-01 9.7258440043246897e-01 0.0000000000000000e+00  2.3598670517920672e-01 -9.7185439060635592e-01 0.0000000000000000e+00  2.1625481528112031e-01 -9.7644603687913034e-01 0.0000000000000000e+00  5.7483236127855886e-01 -8.1845217725755082e-01 0.0000000000000000e+00  3.5751722663388724e-01 -9.3418063167384413e-01 0.0000000000000000e+00  5.2934457423854531e-01 -8.4908541837910101e-01 0.0000000000000000e+00  7.5832066766529246e-02 1.1808863191850227e+00 0.0000000000000000e+00  1.9487831195763144e-01 9.2026596960862206e-01 0.0000000000000000e+00  1.5156295989687596e-02 1.2458181184513148e+00 0.0000000000000000e+00  7.8052345419888913e-01 -6.2609798811909834e-01 0.0000000000000000e+00  6.1314102488969779e-01 8.0779882984168949e-01 0.0000000000000000e+00  9.9538759162044799e-01 -1.0612367478690023e-01 0.0000000000000000e+00  9.3143498853819984e-01 -3.8811864308215627e-01 0.0000000000000000e+00  7.7126251081641906e-01 6.3960199953860630e-01 0.0000000000000000e+00  5.9084227898466368e-01 -8.0768558662557732e-01 0.0000000000000000e+00  1.2722741933363158e-01 1.0033674917858539e+00 0.0000000000000000e+00  5.9291432222281237e-01 -8.0544898656739894e-01 0.0000000000000000e+00  3.7594698778552726e-01 -9.2683046641047173e-01 0.0000000000000000e+00  1.2119760224251249e-03 -4.2204944264694061e-01 0.0000000000000000e+00  3.9213323419000018e-01 9.2014664486413278e-01 0.0000000000000000e+00  6.3089195638893780e-01 7.7605711640649289e-01 0.0000000000000000e+00  9.8781173665023236e-01 1.5642735612645364e-01 0.0000000000000000e+00  5.9667177125235316e-01 8.0266342586988160e-01 0.0000000000000000e+00  7.4073796931961611e-01 6.7192002223864866e-01 0.0000000000000000e+00  8.7121922206335523e-01 -4.9110118163282895e-01 0.0000000000000000e+00  6.2052153516282949e-01 7.8461260479355810e-01 0.0000000000000000e+00  9.8115042889259307e-01 1.9375499045375980e-01 0.0000000000000000e+00  8.8695007833099637e-01 -4.6216096647022664e-01 0.0000000000000000e+00  4.3281388093836037e-01 9.0174289318021017e-01 0.0000000000000000e+00  5.1896900107062061e-01 -8.5533863694588230e-01 0.0000000000000000e+00  2.1560239126299091e-02 1.1671990612119165e+00 0.0000000000000000e+00  7.5752143450950493e-01 6.5292972420442352e-01 0.0000000000000000e+00  4.8050290382800975e-01 8.7721563667820990e-01 0.0000000000000000e+00  8.4995527546898453e-01 5.2754447275398519e-01 0.0000000000000000e+00  4.6562644197694558e-01 -8.8520223125528130e-01 0.0000000000000000e+00  4.81