<?xml version="1.0"?>
<VTKFile type="UnstructuredGrid"  version="0.1"  >
<UnstructuredGrid>
<Piece  NumberOfPoints="4153" NumberOfCells="8064">
<Points>
<DataArray  type="Float64"  NumberOfComponents="3"  format="ascii">-0.4249999999999999 -0.5 0  -0.02499999999999988 -0.5 0  -0.07499999999999987 -0.5 0  -0.1249999999999998 -0.5 0  -0.1749999999999998 -0.5 0  -0.2249999999999998 -0.5 0  -0.2749999999999998 -0.5 0  -0.3249999999999998 -0.5 0  -0.3749999999999999 -0.5 0  0.02500000000000016 -0.5 0  -0.4749999999999998 -0.5 0  -0.5249999999999998 -0.5 0  -0.5749999999999998 -0.5 0  -0.6249999999999999 -0.5 0  -0.6749999999999999 -0.5 0  -0.725 -0.5 0  -0.775 -0.5 0  0.8 -0.5 0  0.07500000000000025 -0.5 0  0.1250000000000003 -0.5 0  0.1750000000000004 -0.5 0  0.2250000000000004 -0.5 0  0.2750000000000004 -0.5 0  0.3250000000000003 -0.5 0  0.3750000000000001 -0.5 0  0.4250000000000002 -0.5 0  0.4750000000000002 -0.5 0  0.5250000000000001 -0.5 0  0.5750000000000002 -0.5 0  0.625 -0.5 0  0.675 -0.5 0  0.725 -0.5 0  0.775 -0.5 0  0.75 -0.5 0  -0.75 -0.5 0  -0.6499999999999999 -0.5 0  -0.5499999999999998 -0.5 0  -0.4499999999999998 -0.5 0  -0.3499999999999999 -0.5 0  -0.2499999999999998 -0.5 0  -0.1499999999999998 -0.5 0  -0.04999999999999988 -0.5 0  0.7 -0.5 0  0.1500000000000004 -0.5 0  0.2500000000000003 -0.5 0  0.3500000000000002 -0.5 0  0.4500000000000002 -0.5 0  0.5500000000000002 -0.5 0  0.65 -0.5 0  0.0500000000000002 -0.5 0  -0.8 -0.5 0  0.6000000000000001 -0.5 0  0.5000000000000002 -0.5 0  0.4000000000000001 -0.5 0  0.3000000000000003 -0.5 0  0.2000000000000004 -0.5 0  0.1000000000000003 -0.5 0  1.110223024625157e-16 -0.5 0  -0.09999999999999987 -0.5 0  -0.1999999999999998 -0.5 0  -0.2999999999999998 -0.5 0  -0.3999999999999999 -0.5 0  -0.4999999999999998 -0.5 0  -0.5999999999999999 -0.5 0  -0.7 -0.5 0  1 -0.3 0  0.8765366864730179 -0.4847759065022574 0  0.9414213562373094 -0.4414213562373097 0  0.9847759065022573 -0.3765366864730181 0  0.838268343236509 -0.4923879532511287 0  0.9089790213551636 -0.4630986313697836 0  0.9630986313697834 -0.4089790213551639 0  0.9923879532511286 -0.338268343236509 0  0.8191341716182545 -0.4961939766255644 0  0.8574025148547635 -0.488581929876693 0  0.8927578539140908 -0.4739372689360205 0  0.9252001887962364 -0.4522599938035466 0  0.9522599938035463 -0.4252001887962368 0  0.9739372689360204 -0.392757853914091 0  0.9885819298766929 -0.3574025148547635 0  0.9961939766255643 -0.3191341716182545 0  1 -0.275 0  1 0.275 0  1 0.225 0  1 0.175 0  1 0.125 0  1 0.07499999999999994 0  1 0.02499999999999987 0  1 -0.0250000000000002 0  1 -0.07500000000000026 0  1 -0.1250000000000003 0  1 -0.1750000000000002 0  1 -0.2250000000000001 0  1 0.3 0  1 0.25 0  1 0.15 0  1 0.04999999999999991 0  1 -0.05000000000000023 0  1 -0.1500000000000002 0  1 -0.2500000000000001 0  1 0.2 0  1 0.09999999999999998 0  1 -1.665334536937735e-16 0  1 -0.1000000000000003 0  1 -0.2000000000000002 0  0.8 0.5 0  0.9847759065022573 0.3765366864730181 0  0.9414213562373094 0.4414213562373097 0  0.8765366864730179 0.4847759065022574 0  0.9923879532511286 0.338268343236509 0  0.9630986313697834 0.4089790213551639 0  0.9089790213551636 0.4630986313697836 0  0.838268343236509 0.4923879532511287 0  0.9961939766255643 0.3191341716182545 0  0.9885819298766929 0.3574025148547635 0  0.9739372689360204 0.392757853914091 0  0.9522599938035463 0.4252001887962368 0  0.9252001887962364 0.4522599938035466 0  0.8927578539140908 0.4739372689360205 0  0.8574025148547635 0.488581929876693 0  0.8191341716182545 0.4961939766255644 0  -0.02500000000000016 0.5 0  0.725 0.5 0  0.6749999999999999 0.5 0  0.6249999999999999 0.5 0  0.5749999999999998 0.5 0  0.5249999999999998 0.5 0  0.4749999999999998 0.5 0  0.4249999999999999 0.5 0  0.3749999999999999 0.5 0  0.3249999999999998 0.5 0  0.2749999999999998 0.5 0  0.2249999999999998 0.5 0  0.1749999999999998 0.5 0  0.1249999999999998 0.5 0  0.07499999999999987 0.5 0  0.02499999999999988 0.5 0  0.775 0.5 0  -0.07500000000000025 0.5 0  -0.1250000000000003 0.5 0  -0.1750000000000004 0.5 0  -0.2250000000000004 0.5 0  -0.2750000000000004 0.5 0  -0.3250000000000003 0.5 0  -0.3750000000000001 0.5 0  -0.4250000000000002 0.5 0  -0.4750000000000002 0.5 0  -0.5250000000000001 0.5 0  -0.5750000000000002 0.5 0  -0.625 0.5 0  -0.675 0.5 0  -0.725 0.5 0  -0.775 0.5 0  -0.8 0.5 0  -0.75 0.5 0  -0.65 0.5 0  -0.5500000000000002 0.5 0  -0.4500000000000002 0.5 0  -0.3500000000000002 0.5 0  -0.2500000000000003 0.5 0  -0.1500000000000004 0.5 0  -0.0500000000000002 0.5 0  0.04999999999999988 0.5 0  0.1499999999999998 0.5 0  0.2499999999999998 0.5 0  0.3499999999999999 0.5 0  0.4499999999999998 0.5 0  0.5499999999999998 0.5 0  0.6499999999999999 0.5 0  0.75 0.5 0  -0.7 0.5 0  -0.6000000000000001 0.5 0  -0.5000000000000002 0.5 0  -0.4000000000000001 0.5 0  -0.3000000000000003 0.5 0  -0.2000000000000004 0.5 0  -0.1000000000000003 0.5 0  -1.110223024625157e-16 0.5 0  0.09999999999999987 0.5 0  0.1999999999999998 0.5 0  0.2999999999999998 0.5 0  0.3999999999999999 0.5 0  0.4999999999999998 0.5 0  0.5999999999999999 0.5 0  0.7 0.5 0  -1 0.3 0  -0.8765366864730181 0.4847759065022573 0  -0.9414213562373097 0.4414213562373094 0  -0.9847759065022574 0.3765366864730179 0  -0.838268343236509 0.4923879532511287 0  -0.9089790213551638 0.4630986313697834 0  -0.9630986313697836 0.4089790213551636 0  -0.9923879532511287 0.338268343236509 0  -0.8191341716182545 0.4961939766255643 0  -0.8574025148547635 0.488581929876693 0  -0.892757853914091 0.4739372689360203 0  -0.9252001887962368 0.4522599938035464 0  -0.9522599938035466 0.4252001887962365 0  -0.9739372689360205 0.3927578539140908 0  -0.9885819298766931 0.3574025148547634 0  -0.9961939766255643 0.3191341716182545 0  -1 0.275 0  -1 -0.275 0  -1 -0.225 0  -1 -0.175 0  -1 -0.125 0  -1 -0.07499999999999994 0  -1 -0.02499999999999987 0  -1 0.0250000000000002 0  -1 0.07500000000000026 0  -1 0.1250000000000003 0  -1 0.1750000000000002 0  -1 0.2250000000000001 0  -1 -0.3 0  -1 -0.25 0  -1 -0.15 0  -1 -0.04999999999999991 0  -1 0.05000000000000023 0  -1 0.1500000000000002 0  -1 0.2500000000000001 0  -1 -0.2 0  -1 -0.09999999999999998 0  -1 1.665334536937735e-16 0  -1 0.1000000000000003 0  -1 0.2000000000000002 0  -0.9847759065022574 -0.3765366864730179 0  -0.9414213562373096 -0.4414213562373094 0  -0.8765366864730181 -0.4847759065022573 0  -0.9923879532511287 -0.338268343236509 0  -0.9630986313697836 -0.4089790213551636 0  -0.9089790213551638 -0.4630986313697834 0  -0.838268343236509 -0.4923879532511287 0  -0.9961939766255643 -0.3191341716182545 0  -0.9885819298766931 -0.3574025148547634 0  -0.9739372689360205 -0.3927578539140908 0  -0.9522599938035465 -0.4252001887962365 0  -0.9252001887962367 -0.4522599938035464 0  -0.892757853914091 -0.4739372689360203 0  -0.8574025148547635 -0.488581929876693 0  -0.8191341716182545 -0.4961939766255643 0  -0.3000000000000003 0.3267949192431125 0  0.3181343990330772 -0.3439416921723297 0  -0.08257249764926196 -0.3383308877677023 0  -0.50979744334887 -0.3255818518047211 0  0.5060441378325211 0.3274561643884037 0  0.1037631564626732 0.3131559137665553 0  0.843149210446875 -0.1923130104173427 0  -0.8418263458721231 0.1927503215247096 0  -0.8408809410250262 -0.1897116835785854 0  0.8409071959036176 0.1896235182386696 0  0.705967194587281 0.3354524287114743 0  0.6276370409402552 0.1658336215477063 0  0.4215070288293651 0.1446794873901968 0  0.5369019087152576 -0.01677883310260353 0  0.3378219718963524 -0.0304857337078401 0  0.7359191653189867 -0.0003779706345871367 0  0.2206709281181736 0.1292871338121241 0  0.1390057666500616 -0.05482518983879574 0  0.02156604114872933 0.1091113821954512 0  -0.05991856886335568 -0.07544049830328706 0  -0.2091026540303009 0.113218101697482 0  -0.2557387210741711 -0.08957125969209863 0  -0.3742518736706093 0.02381865171750689 0  -0.7065883696935737 -0.3351547375041799 0  -0.6319769825415822 -0.1640183941417108 0  -0.7379485134301987 -0.0003221286420197649 0  -0.6263925638672921 0.1747922261462193 0  0.7000000000000003 -0.3471147448144379 0  -0.09731754444756222 0.2985839976753261 0  -0.7019016658227 0.339872535812372 0  -0.5036626740707574 0.3416097573515475 0  0.3086642085404555 0.31909644989288 0  0.4355889359290377 -0.1794947220360297 0  0.1233906847482294 -0.33992001942789 0  -0.2910439982708135 -0.2942818290560931 0  0.6252598700683595 -0.1832373653183336 0  -0.4390211493546888 -0.1414717198202583 0  -0.5445756908252299 0.01225332998817602 0  0.5094027625036279 -0.3483114655372777 0  -0.8570298735864267 0.3548088427148782 0  0.2432245006188761 -0.181388344807941 0  0.8576591493456415 0.3532994606374906 0  -0.8577781333911819 -0.3532575554640149 0  0.856914113336837 -0.3561698222938181 0  -0.4103395160999327 0.186370105143853 0  0.04059278020228735 -0.1932320619509051 0  -0.894759031223147 0.000141425932117211 0  0.8948577502800618 -0.0001596971477125707 0  -0.1430838089440986 -0.1942958300671257 0  -0.4774576034625814 0.09931171756601452 0  -0.5183660399836124 0.1805811656450362 0  -0.585484127346261 0.09352277806719765 0  -0.3551697580499665 0.2565825121934828 0  -0.3097210850651168 0.1497941034206675 0  -0.2545513270151506 0.2200065104702973 0  -0.3922956948852711 0.10509437843068 0  -0.4594137822479196 0.01803599085284146 0  -0.1532100992389315 0.205901049686404 0  -0.1986587722237813 0.3126894584592193 0  -0.1486587722237813 0.399291998837663 0  -0.04865877222378117 0.399291998837663 0  0.5673313162859936 -0.2657744154278056 0  0.6047013812518141 -0.3477131051758577 0  0.6626299350341799 -0.2651760550663858 0  0.4724958492163328 -0.2639030937866537 0  0.5304244029986986 -0.1813660436771817 0  -0.3650325738127511 -0.2178767744381757 0  -0.4744092963517794 -0.2335267858124897 0  -0.4004207208098418 -0.3099318404304071 0  -0.3473799352144299 -0.1155214897561785 0  -0.2733913596724923 -0.1919265443740958 0  0.06266459880570127 0.2111336479810033 0  0.1211184846334515 0.1191992580037876 0  0.1622170422904234 0.2212215237893397 0  
[...]
<PointData  Vectors="f_517"> 
<DataArray  type="Float64"  Name="f_517"  NumberOfComponents="3" format="ascii">-1.2594038547102196e-03 6.9970662513053920e-03 0.0000000000000000e+00  -3.0454759736384113e-04 9.2941004886525944e-02 0.0000000000000000e+00  -6.4703443981606247e-04 8.4894938658544042e-02 0.0000000000000000e+00  -9.2806262775909103e-04 7.5229284524076095e-02 0.0000000000000000e+00  -1.1479255354628756e-03 6.4296068250488253e-02 0.0000000000000000e+00  -1.5103382543521669e-03 5.5842848557209605e-02 0.0000000000000000e+00  -1.5885182838588695e-03 4.3625215412857354e-02 0.0000000000000000e+00  -1.5736470609458751e-03 3.3052840505180196e-02 0.0000000000000000e+00  -1.5009048168876801e-03 2.3689621865019436e-02 0.0000000000000000e+00  5.2211027769407852e-05 9.8528825428930308e-02 0.0000000000000000e+00  -1.1420118598441614e-03 8.3270788883903896e-04 0.0000000000000000e+00  -1.0405265866703841e-03 -1.0523737313523011e-02 0.0000000000000000e+00  -9.3406661324669648e-04 -2.3795248393986369e-02 0.0000000000000000e+00  -7.9244866576150849e-04 -3.4395150470103594e-02 0.0000000000000000e+00  -6.5582451393623596e-04 -4.7737147605443141e-02 0.0000000000000000e+00  -6.7390545482651917e-05 -6.1210518262783932e-02 0.0000000000000000e+00  1.4425310641664281e-02 -5.4045417921633469e-02 0.0000000000000000e+00  -3.5095572954496625e-03 -1.7060225922468342e-01 0.0000000000000000e+00  4.1308478613476750e-04 1.0060523729315768e-01 0.0000000000000000e+00  7.2788169741518636e-04 9.8914875267885533e-02 0.0000000000000000e+00  9.6870812750774339e-04 9.3502276386642783e-02 0.0000000000000000e+00  1.1121981765012414e-03 8.4944626539534260e-02 0.0000000000000000e+00  1.1874916240000376e-03 7.3904174621292909e-02 0.0000000000000000e+00  1.2018301349018075e-03 6.0943636413755421e-02 0.0000000000000000e+00  1.1683228720924706e-03 4.6234368545398308e-02 0.0000000000000000e+00  1.0827347445280231e-03 3.3410711013191673e-02 0.0000000000000000e+00  1.0011892457666017e-03 1.8273624471912244e-02 0.0000000000000000e+00  9.1430722512536404e-04 3.3610829005649907e-03 0.0000000000000000e+00  8.2525332044980154e-04 -1.2345024438854272e-02 0.0000000000000000e+00  7.3460523060835310e-04 -2.5277736570781098e-02 0.0000000000000000e+00  6.1813536924732360e-04 -4.1436555326195001e-02 0.0000000000000000e+00  9.5939272798135702e-05 -5.5802753239195167e-02 0.0000000000000000e+00  -1.3283201084519341e-02 -4.5258962767997089e-02 0.0000000000000000e+00  1.2370763027586156e-04 -7.8468740225315900e-02 0.0000000000000000e+00  -6.1944133999843111e-05 -8.2386925963074703e-02 0.0000000000000000e+00  -7.3622656873784359e-04 -4.0850760079326413e-02 0.0000000000000000e+00  -9.8910519580595120e-04 -1.6152982820428735e-02 0.0000000000000000e+00  -1.1951123682431633e-03 7.3570910618765651e-03 0.0000000000000000e+00  -1.5484106443913175e-03 2.8068792243810346e-02 0.0000000000000000e+00  -1.5681262510705302e-03 4.8600237571628548e-02 0.0000000000000000e+00  -1.0409780272843975e-03 7.0093704698874562e-02 0.0000000000000000e+00  -4.8127766721813193e-04 8.9194883878560935e-02 0.0000000000000000e+00  5.8944786028700732e-04 -5.0968291769316096e-02 0.0000000000000000e+00  8.5877699995623739e-04 9.6650670706355093e-02 0.0000000000000000e+00  1.1580948371891977e-03 7.9777265107464551e-02 0.0000000000000000e+00  1.1906062567376542e-03 5.4157092309366321e-02 0.0000000000000000e+00  1.0426171750162496e-03 2.5642802894065918e-02 0.0000000000000000e+00  8.6974024014655480e-04 -3.9968045189174338e-03 0.0000000000000000e+00  6.8772317741572241e-04 -3.4070879779027889e-02 0.0000000000000000e+00  2.3591339308091859e-04 9.9995424550730447e-02 0.0000000000000000e+00  3.6539896652716315e-03 -1.9867308523528074e-01 0.0000000000000000e+00  7.7924635746444925e-04 -1.8698670654755396e-02 0.0000000000000000e+00  9.5829948540974454e-04 1.0839169522055285e-02 0.0000000000000000e+00  1.1335651091500022e-03 3.9629982180170199e-02 0.0000000000000000e+00  1.2014709322141761e-03 6.7636648607533517e-02 0.0000000000000000e+00  1.0542285629247992e-03 8.9539901069666777e-02 0.0000000000000000e+00  5.7837163730575835e-04 1.0024277600970352e-01 0.0000000000000000e+00  -1.2834173483820553e-04 9.6126828671652301e-02 0.0000000000000000e+00  -7.9684609015770295e-04 8.0218553743405682e-02 0.0000000000000000e+00  -1.3175137500320423e-03 6.0596004308359673e-02 0.0000000000000000e+00  -1.5886120216347572e-03 3.8254415539859497e-02 0.0000000000000000e+00  -1.4684975682333968e-03 1.2258605925724976e-02 0.0000000000000000e+00  -1.0919709464323076e-03 -4.4931267591440272e-03 0.0000000000000000e+00  -8.9697847948845143e-04 -3.0283678745139982e-02 0.0000000000000000e+00  -6.2292981259767029e-04 -5.6431114017299326e-02 0.0000000000000000e+00  2.0111178173344405e-02 -6.8782055709368586e-04 0.0000000000000000e+00  1.8370481218123024e-03 -1.9472254561307289e-01 0.0000000000000000e+00  1.9874119065597554e-02 -2.0466422059126761e-02 0.0000000000000000e+00  -8.8275963293097601e-02 -4.9668510336447146e-04 0.0000000000000000e+00  2.4821042763887507e-02 -9.7114437000908563e-02 0.0000000000000000e+00  4.5727374266907386e-02 -5.3653817971667662e-02 0.0000000000000000e+00  5.9389976655790253e-02 -3.7493858386495549e-02 0.0000000000000000e+00  5.5836779596331300e-02 -8.8797136608651916e-03 0.0000000000000000e+00  1.9661747003129927e-02 -1.4959026701244862e-01 0.0000000000000000e+00  -2.5529054283056355e-02 4.6663012444736016e-02 0.0000000000000000e+00  1.1425013954699498e-01 -1.8261756349490274e-01 0.0000000000000000e+00  -1.7346268484560289e-02 -1.2621148474577413e-02 0.0000000000000000e+00  1.0981714273700177e-01 -8.0068260522690032e-02 0.0000000000000000e+00  -3.7614830892121906e-02 3.7545661940152951e-03 0.0000000000000000e+00  1.4426792975768149e-01 -1.7611619655272991e-02 0.0000000000000000e+00  2.9323396226735386e-02 -9.3533507296841636e-03 0.0000000000000000e+00  7.9941136729788781e-02 2.3643621474912727e-03 0.0000000000000000e+00  8.3093000644921408e-02 -1.6803774728967628e-03 0.0000000000000000e+00  5.2211480662813406e-02 1.2580597320788312e-04 0.0000000000000000e+00  4.0859463688182267e-02 2.4298452668331230e-04 0.0000000000000000e+00  3.3745412441334333e-02 1.8029328985323906e-04 0.0000000000000000e+00  2.7845939313887250e-02 9.0447477620477900e-05 0.0000000000000000e+00  2.5942618255693512e-02 2.8383477548076945e-05 0.0000000000000000e+00  2.5942205328003291e-02 -2.9656007010475715e-05 0.0000000000000000e+00  2.7820792285358050e-02 -9.1654564989736298e-05 0.0000000000000000e+00  3.3671474303516677e-02 -1.8154681535354419e-04 0.0000000000000000e+00  4.0727888375922137e-02 -2.4002256215229580e-04 0.0000000000000000e+00  5.1795319616649432e-02 -9.9955866102118072e-05 0.0000000000000000e+00  1.6925489291963521e-02 8.9368101124350505e-04 0.0000000000000000e+00  5.2727862147836223e-02 6.3833214155419678e-04 0.0000000000000000e+00  3.6633828068496105e-02 2.2041154531752066e-04 0.0000000000000000e+00  2.6904301951328737e-02 5.7815397064697014e-05 0.0000000000000000e+00  2.6913140211007831e-02 -5.9061286786054156e-05 0.0000000000000000e+00  3.6553935165727462e-02 -2.2044910206888443e-04 0.0000000000000000e+00  5.3286135623890125e-02 -6.4812140615938920e-04 0.0000000000000000e+00  4.4981004087247527e-02 3.1780580530328797e-04 0.0000000000000000e+00  3.0336889255387599e-02 1.4446341648434704e-04 0.0000000000000000e+00  2.5682272048685988e-02 -6.4081412422252726e-07 0.0000000000000000e+00  3.0306032436486871e-02 -1.4562785937556781e-04 0.0000000000000000e+00  4.4972658429390196e-02 -3.1571032890349144e-04 0.0000000000000000e+00  -3.4948389334251476e-03 2.0497508797073902e-01 0.0000000000000000e+00  -9.0899243365150179e-02 2.4807722680545022e-03 0.0000000000000000e+00  1.1885277716826717e-02 1.3766164814067658e-02 0.0000000000000000e+00  5.0899782252966739e-03 2.2417107475026163e-01 0.0000000000000000e+00  5.4976862443309432e-02 8.3395985843209685e-03 0.0000000000000000e+00  5.9542037574061894e-02 3.6718229063977197e-02 0.0000000000000000e+00  4.5172971358991502e-02 5.1407684465507315e-02 0.0000000000000000e+00  2.5678875084253233e-02 9.8092194910587432e-02 0.0000000000000000e+00  2.5026549038771950e-02 8.4384471371623075e-03 0.0000000000000000e+00  1.5315676738806197e-01 1.9650407335354562e-02 0.0000000000000000e+00  -4.4307676331309345e-02 -8.5925153842600667e-03 0.0000000000000000e+00  1.1296454895621393e-01 8.2084635119647864e-02 0.0000000000000000e+00  -2.2357799304102036e-02 6.6076456053406193e-03 0.0000000000000000e+00  1.2125961783353793e-01 1.9428769485403308e-01 0.0000000000000000e+00  -2.6354327605821633e-02 -5.4772100608628700e-02 0.0000000000000000e+00  1.9974150728208739e-02 1.5703862620472392e-01 0.0000000000000000e+00  -3.0268046100616119e-04 -1.1533750763406496e-01 0.0000000000000000e+00  5.1549395689073044e-05 5.8190153596489054e-02 0.0000000000000000e+00  6.5094461658025081e-04 4.3305070835994781e-02 0.0000000000000000e+00  7.8819505886906511e-04 2.8198625776758829e-02 0.0000000000000000e+00  9.2329285734894936e-04 1.3769048320295499e-02 0.0000000000000000e+00  1.0295930474600004e-03 -2.2730255530945742e-03 0.0000000000000000e+00  1.1300920359449214e-03 -1.7840216359071463e-02 0.0000000000000000e+00  1.2265526372129678e-03 -3.3114280395473851e-02 0.0000000000000000e+00  1.3438024820868724e-03 -4.8300563510855453e-02 0.0000000000000000e+00  1.3866152533962923e-03 -6.4391600923022416e-02 0.0000000000000000e+00  1.3757074782841201e-03 -7.9319009607621407e-02 0.0000000000000000e+00  1.2994904862195346e-03 -9.2150095149597225e-02 0.0000000000000000e+00  1.1708457044107446e-03 -1.0504278638135232e-01 0.0000000000000000e+00  9.1229426489337093e-04 -1.1277253797198766e-01 0.0000000000000000e+00  5.6198486311838229e-04 -1.1719056852903713e-01 0.0000000000000000e+00  1.5038953147989705e-04 -1.1610752757980987e-01 0.0000000000000000e+00  -1.4884553859512494e-02 5.0741002791503176e-02 0.0000000000000000e+00  -7.4059954133422017e-04 -1.0658625499705163e-01 0.0000000000000000e+00  -1.1005261541925722e-03 -9.6629363738156296e-02 0.0000000000000000e+00  -1.3454028246837626e-03 -8.6586109733795227e-02 0.0000000000000000e+00  -1.3284995601330609e-03 -6.9388604736270787e-02 0.0000000000000000e+00  -1.3663369234629061e-03 -5.8544779867442338e-02 0.0000000000000000e+00  -1.3593163701565260e-03 -4.5490937418866451e-02 0.0000000000000000e+00  -1.3010361130255839e-03 -3.2550818346878028e-02 0.0000000000000000e+00  -1.1415330143646359e-03 -1.8895919460736842e-02 0.0000000000000000e+00  -1.0442541221858911e-03 -7.3132636775249896e-03 0.0000000000000000e+00  -9.5032249637969426e-04 5.4482270148055924e-03 0.0000000000000000e+00  -8.5445031155378687e-04 1.8533331385408022e-02 0.0000000000000000e+00  -7.5881291459268608e-04 3.1720150506071847e-02 0.0000000000000000e+00  -6.2865535503082743e-04 4.5998694152573773e-02 0.0000000000000000e+00  -2.5592266121847559e-05 5.9176286169118859e-02 0.0000000000000000e+00  1.5086588073756513e-02 4.6466242751725867e-02 0.0000000000000000e+00  3.5004024689394195e-03 1.9787581735581969e-01 0.0000000000000000e+00  -1.3315478849057285e-04 8.2779387212934555e-02 0.0000000000000000e+00  -7.0837489428116150e-04 3.9177989583221544e-02 0.0000000000000000e+00  -9.0239039054749732e-04 1.1941800872162383e-02 0.0000000000000000e+00  -1.0909450559354640e-03 -1.3917764696276251e-02 0.0000000000000000e+00  -1.3377094219970745e-03 -3.9084201310416615e-02 0.0000000000000000e+00  -1.3497757231855671e-03 -6.5590642049468337e-02 0.0000000000000000e+00  -1.2414056503674705e-03 -9.0710234652479016e-02 0.0000000000000000e+00  -5.2937306635212071e-04 -1.1036919700006964e-01 0.0000000000000000e+00  3.6112995255032650e-04 -1.1813425389501904e-01 0.0000000000000000e+00  1.0547497370077064e-03 -1.0898918814680600e-01 0.0000000000000000e+00  1.3459321186225614e-03 -8.6465568563432307e-02 0.0000000000000000e+00  1.3720055135632739e-03 -5.6786905772795535e-02 0.0000000000000000e+00  1.1783541027079523e-03 -2.5825151229780723e-02 0.0000000000000000e+00  9.7806585322901670e-04 5.2051908425172636e-03 0.0000000000000000e+00  7.3173030294226610e-04 3.5452903062339523e-02 0.0000000000000000e+00  5.5452803792045778e-05 8.0895100124918434e-02 0.0000000000000000e+00  -6.0355062745778376e-04 5.5161255888743189e-02 0.0000000000000000e+00  -8.0402686580749092e-04 2.4899233871193530e-02 0.0000000000000000e+00  -9.9769550647819147e-04 -1.0042409128264754e-03 0.0000000000000000e+00  -1.2419673598849685e-03 -2.4824583253866880e-02 0.0000000000000000e+00  -1.3695119509038163e-03 -5.2115242221198614e-02 0.0000000000000000e+00  -1.3709675580551024e-03 -7.7799597533944498e-02 0.0000000000000000e+00  -9.3233507607896470e-04 -1.0176204285216939e-01 0.0000000000000000e+00  -5.9099807202773527e-05 -1.1623706469044964e-01 0.0000000000000000e+00  7.4706168004463555e-04 -1.1552499359327943e-01 0.0000000000000000e+00  1.2506038932252118e-03 -9.8810219966094445e-02 0.0000000000000000e+00  1.3887078883605380e-03 -7.2039943939547393e-02 0.0000000000000000e+00  1.3071686647786334e-03 -3.9952905492849501e-02 0.0000000000000000e+00  1.0807184624747326e-03 -1.0096514410862237e-02 0.0000000000000000e+00  8.8427358672983592e-04 2.2042654020052076e-02 0.0000000000000000e+00  6.1639117874567472e-04 5.2917591207335336e-02 0.0000000000000000e+00  -1.0961685313103117e-02 6.5166586296819956e-04 0.0000000000000000e+00  -4.5652131389500583e-03 2.2171441852659723e-01 0.0000000000000000e+00  -1.6649245636697049e-02 1.7619697984798885e-02 0.0000000000000000e+00  1.0340020439636780e-01 -2.3575141205381048e-04 0.0000000000000000e+00  -2.6083279790256913e-02 9.9791150676093704e-02 0.0000000000000000e+00  -4.6074963135084426e-02 5.2568291108814259e-02 0.0000000000000000e+00  -6.0292745284030273e-02 3.7141475433527221e-02 0.0000000000000000e+00  -5.4703574232469375e-02 8.1020191606754662e-03 0.0000000000000000e+00  -2.1169300546012786e-02 1.6043230173755207e-01 0.0000000000000000e+00  2.8081209625638686e-02 -5.9974693781993028e-02 0.0000000000000000e+00  -1.2399080132995051e-01 1.9820595178138922e-01 0.0000000000000000e+00  2.3758410088752090e-02 4.6601529829972087e-03 0.0000000000000000e+00  -1.1716458157821083e-01 8.5607572218246983e-02 0.0000000000000000e+00  5.0082965492723966e-02 -1.1742588227199287e-02 0.0000000000000000e+00  -1.5820381513929682e-01 2.0637512075880656e-02 0.0000000000000000e+00  -2.2296335508282139e-02 8.0673609063840173e-03 0.0000000000000000e+00  -8.5213650140274544e-02 -1.3107312771115135e-03 0.0000000000000000e+00  -8.1625620588064121e-02 2.4445089985843287e-03 0.0000000000000000e+00  -5.3551432737816568e-02 -8.5334524472986545e-05 0.0000000000000000e+00  -4.2931702614562667e-02 -2.3418589817082041e-04 0.0000000000000000e+00  -3.6359496171322538e-02 -1.7742207606343682e-04 0.0000000000000000e+00  -3.0571449747467030e-02 -9.1707178248239771e-05 0.0000000000000000e+00  -2.8959137256105726e-02 -2.9797582674906747e-05 0.0000000000000000e+00  -2.8977914029017650e-02 2.8195300132288373e-05 0.0000000000000000e+00  -3.0730406031395104e-02 9.0489264509613167e-05 0.0000000000000000e+00  -3.6368364089784971e-02 1.8372379541422405e-04 0.0000000000000000e+00  -4.3055690873705151e-02 2.4900038049730368e-04 0.0000000000000000e+00  -5.3990676383408875e-02 1.4303092598296272e-04 0.0000000000000000e+00  -2.3631823850980459e-02 -1.0393091148229584e-03 0.0000000000000000e+00  -5.4950916303730071e-02 -6.6079679337293403e-04 0.0000000000000000e+00  -3.8947759124690534e-02 -2.1577493495249862e-04 0.0000000000000000e+00  -2.9882701231291928e-02 -5.9161496636003648e-05 0.0000000000000000e+00  -2.9889702517615909e-02 5.7658682537948363e-05 0.0000000000000000e+00  -3.9027162807140942e-02 2.2516633996547743e-04 0.0000000000000000e+00  -5.3533573235433493e-02 6.5754167982873301e-04 0.0000000000000000e+00  -4.6964682200505363e-02 -3.1238035896562151e-04 0.0000000000000000e+00  -3.3033713031415050e-02 -1.4569487716354452e-04 0.0000000000000000e+00  -2.8732378337668889e-02 -8.1495966418187834e-07 0.0000000000000000e+00  -3.3111411031738744e-02 1.4565720752856697e-04 0.0000000000000000e+00  -4.6862275788362162e-02 3.2619958273467854e-04 0.0000000000000000e+00  8.0967448589131949e-02 -3.5155805795692684e-03 0.0000000000000000e+00  -1.2083905979616094e-02 -1.4171766374382628e-02 0.0000000000000000e+00  -3.9249739647004090e-03 -2.1410296800306602e-01 0.0000000000000000e+00  -5.6826260837809402e-02 -9.0095729248842373e-03 0.0000000000000000e+00  -5.9686429886778400e-02 -3.7272507542002294e-02 0.0000000000000000e+00  -4.5317860974621406e-02 -5.2209891046450581e-02 0.0000000000000000e+00  -2.5371191036858639e-02 -9.7913983681325104e-02 0.0000000000000000e+00  -3.0361248297844094e-02 -9.4709238791855031e-03 0.0000000000000000e+00  -1.4619404344534573e-01 -1.7993200459301046e-02 0.0000000000000000e+00  3.6699168919204439e-02 3.7216251420726892e-03 0.0000000000000000e+00  -1.0928329860652236e-01 -7.9121623430248714e-02 0.0000000000000000e+00  1.8938709182812145e-02 -1.1039621628320322e-02 0.0000000000000000e+00  -1.1723495483920872e-01 -1.8766397282128608e-01 0.0000000000000000e+00  2.4852388517436565e-02 4.7512446118672814e-02 0.0000000000000000e+00  -1.9442233420097137e-02 -1.5371705184351095e-01 0.0000000000000000e+00  2.6554557395436858e-05 5.5092379504922287e-05 0.0000000000000000e+00  -9.5855916146692658e-06 -5.3904934974537385e-05 0.0000000000000000e+00  2.4309309702101489e-05 -2.1378630096821329e-06 0.0000000000000000e+00  1.6469794770783116e-05 -9.0724873882801226e-05 0.0000000000000000e+00  -1.2912983715593210e-05 8.6580581874041857e-05 0.0000000000000000e+00  -6.3359158699683387e-06 6.9322759736314737e-06 0.0000000000000000e+00  -1.0504524157843492e-05 -1.4947734379414794e-05 0.0000000000000000e+00  1.2755325240599178e-05 1.6874956198487782e-05 0.0000000000000000e+00  9.2508101660020560e-06 -1.3561511638106381e-05 0.0000000000000000e+00  -1.0762234902119664e-05 1.4940153437420128e-05 0.0000000000000000e+00  -2.6564006356582414e-05 8.5346292386031774e-05 0.0000000000000000e+00  -8.5690807232163859e-06 4.1016586798528715e-05 0.0000000000000000e+00  -6.0443327153855822e-06 3.9873352673013598e-05 0.0000000000000000e+00  1.1155612386268537e-07 1.9867509566374954e-06 0.0000000000000000e+00  1.9777979882060702e-07 7.2963048952407882e-06 0.0000000000000000e+00  2.0940218338220333e-08 4.2911727873875508e-07 0.0000000000000000e+00  -6.6713203360782515e-06 2.0205291489860312e-05 0.0000000000000000e+00  5.8879933373590429e-06 3.6389585357285721e-05 0.0000000000000000e+00  1.2639702359002706e-04 -3.6079136884720686e-05 0.0000000000000000e+00  1.5599557605582302e-04 2.9611772717253165e-05 0.0000000000000000e+00  7.7582077974887469e-05 8.1136766161037408e-05 0.0000000000000000e+00  -6.9761474850935914e-06 -6.7554279678156987e-06 0.0000000000000000e+00  -2.6757617609517864e-06 1.6690198647031907e-05 0.0000000000000000e+00  2.6165309726198144e-05 -8.5336026546193382e-05 0.0000000000000000e+00  6.9696672088486432e-06 -3.6465383593898545e-05 0.0000000000000000e+00  5.7942293426151495e-08 3.4157607804880324e-06 0.0000000000000000e+00  1.2101532529778763e-05 4.8351884943118281e-05 0.0000000000000000e+00  -2.3937095450303556e-05 -8.7463445567191784e-05 0.0000000000000000e+00  3.3828971886115764e-05 8.8956395715722187e-06 0.0000000000000000e+00  2.7775143983522273e-05 8.5479684629215989e-05 0.0000000000000000e+00  1.7503522944350243e-05 8.3800812520478353e-05 0.0000000000000000e+00  -1.4312797448688187e-05 5.7538642262030740e-05 0.0000000000000000e+00  -3.7911491685830488e-06 -3.5641239129984050e-05 0.0000000000000000e+00  -4.0522083790987199e-06 -7.3300985841638893e-06 0.0000000000000000e+00  3.5003742357732791e-05 -6.6178953726548029e-05 0.0000000000000000e+00  -7.2522525540335176e-06 -3.9881331796868836e-05 0.0000000000000000e+00  4.7469221092521802e-06 -3.7175348392955675e-05 0.0000000000000000e+00  1.1730404699706741e-06 1.2881955060074253e-05 0.0000000000000000e+00  -9.9070966834965209e-06 -8.3368040069140055e-05 0.0000000000000000e+00  2.5579627867861754e-05 3.8391915025712961e-05 0.0000000000000000e+00  -1.4331866070