<?xml version="1.0"?>
<VTKFile type="UnstructuredGrid"  version="0.1"  >
<UnstructuredGrid>
<Piece  NumberOfPoints="4153" NumberOfCells="8064">
<Points>
<DataArray  type="Float64"  NumberOfComponents="3"  format="ascii">-0.4105971729232579 -0.6047210337508441 0  -0.02990166927853163 -0.7413687006237802 0  -0.08189616749154126 -0.7385771197129661 0  -0.1332252616802942 -0.7308408627470149 0  -0.1834984908942803 -0.7187376471661028 0  -0.232719705904615 -0.7034687597012371 0  -0.2803225595714795 -0.6831496128861965 0  -0.3258264944530659 -0.6593304582617397 0  -0.3692510140355209 -0.6330819282454438 0  0.02218365609941639 -0.7389184055070519 0  -0.4500200267067439 -0.5763634314995447 0  -0.4880924167960412 -0.5480171756743722 0  -0.5248821336254652 -0.5199619681719165 0  -0.5605642928237778 -0.4926328375114888 0  -0.5954962354272287 -0.466636938761186 0  -0.6298472899177764 -0.4422426289574947 0  -0.6637918406274834 -0.4203318266138185 0  0.659617410796742 -0.4098302449391787 0  0.0737444980356409 -0.7313329496572966 0  0.1242045963668633 -0.7189210543295295 0  0.1730847593578795 -0.7022404793871151 0  0.2200351501978463 -0.6819401555806365 0  0.2649779835397322 -0.6591422830337109 0  0.3079846426840902 -0.6345612350761124 0  0.3492178585538661 -0.6088867892479034 0  0.3888634111724304 -0.5826902829741039 0  0.4272681909610447 -0.5565854819598985 0  0.4646614336271319 -0.530897300163876 0  0.5012617053364196 -0.505892278309133 0  0.5372183572144457 -0.4818395689942749 0  0.5727060709663619 -0.4588629053740091 0  0.6078104109162452 -0.437344145949426 0  0.6427010250150592 -0.4180163814453252 0  0.6250953136230607 -0.4276499819618321 0  -0.6466271913576969 -0.4311439950422488 0  -0.5781029810712988 -0.4795345580711576 0  -0.5066265669934359 -0.5339304463684613 0  -0.4304512132432003 -0.5905089245679158 0  -0.3477948788916674 -0.6463615080066571 0  -0.2567780116592184 -0.6938388190310814 0  -0.1585054537185486 -0.7253662376923206 0  -0.05594943263330013 -0.7406191077875985 0  0.5902622650691735 -0.4480577919921344 0  0.1488658549946676 -0.7110639698399007 0  0.2427562894631331 -0.6708138662105118 0  0.3288035422706493 -0.6218295628882229 0  0.4082105407767753 -0.5696134281415233 0  0.4830429217857627 -0.5183113671034207 0  0.5550249850302911 -0.4702654914381246 0  0.0480669957445819 -0.7357535626924933 0  -0.6801955551744194 -0.4109222469306993 0  0.5192985799763838 -0.4937272083689779 0  0.4460747461482261 -0.5436788241426999 0  0.369218227350178 -0.5957931157059672 0  0.2867150994820045 -0.647038423196464 0  0.196822419661346 -0.6924830862483472 0  0.09914517710780647 -0.7257003416199548 0  -0.003830748476493989 -0.7408021449185164 0  -0.1076738712740898 -0.7353088064308417 0  -0.2081482144392589 -0.7115145010275792 0  -0.3033223417216461 -0.6715463747980306 0  -0.3903456920806329 -0.6192858276635491 0  -0.4692296675361796 -0.5621924720832618 0  -0.5428554838500799 -0.5061780939487879 0  -0.6126823897958824 -0.454371976185542 0  0.7967242844202833 -0.2246632418298483 0  0.7136910696393897 -0.383159087176704 0  0.7598848821323514 -0.3415073280763494 0  0.7892348483016162 -0.287118792755688 0  0.6871115272926503 -0.3971130120953923 0  0.7378183741369779 -0.3636561820076565 0  0.7729811674724544 -0.3130730914628908 0  0.7920205909433846 -0.2554875046167104 0  0.6735045706946553 -0.4042971583238041 0  0.7003449583593476 -0.3895060443172274 0  0.7258681262290723 -0.3736088979180928 0  0.7484990744543928 -0.3517996675657405 0  0.7682959120903887 -0.3282976292759566 0  0.7803487447167506 -0.2999108479991441 0  0.7898360360869402 -0.2710708757075982 0  0.7937903716374402 -0.2399470526284664 0  0.7959166781625219 -0.2045420834738726 0  0.7984587112923475 0.2407862819028636 0  0.7982891484245322 0.2010305498216852 0  0.7995517766300581 0.161067741664415 0  0.8014184649218595 0.120762353485099 0  0.8036333550106424 0.07999872442678632 0  0.8045656468771394 0.03883734555246188 0  0.8042944888777296 -0.002424973336052304 0  0.8028203866651127 -0.0435912314621085 0  0.8001257218210062 -0.08435931158012937 0  0.7978057097654213 -0.1247013479697407 0  0.7961114076851462 -0.1647152018510797 0  0.7996703468338757 0.260831670330949 0  0.798145144518702 0.2209213430681446 0  0.8004459960362337 0.1409638639778688 0  0.8042504641226362 0.05944411346190819 0  0.8037115577221612 -0.02303330628165224 0  0.7989293266750851 -0.1045788422416738 0  0.7957831799317459 -0.184642205296411 0  0.7988225652430111 0.1810864066517604 0  0.8025823640645736 0.1004639788661301 0  0.8045754408203535 0.01820661440105897 0  0.8015118663664942 -0.06405523956122761 0  0.7968599080386439 -0.1447447595416291 0  0.6671090382763607 0.447537346770581 0  0.7932833122988253 0.3233270476996717 0  0.7650449011397497 0.378165440602512 0  0.7200435931436702 0.4204243942694744 0  0.7956705718870255 0.2916930850956618 0  0.7779123954199216 0.3497260380843274 0  0.7435875464201667 0.4005189724732184 0  0.6939422402127428 0.4345356882592435 0  0.7972011396519982 0.2761616969996069 0  0.7938204767766273 0.3073026027921745 0  0.7849435587120277 0.3363500280357926 0  0.7730457572107485 0.3647579596389703 0  0.7539627956376235 0.3885713694921586 0  0.7319105454035336 0.4106276818041037 0  0.7069336375104444 0.426909866743608 0  0.6805753985424845 0.441661764410916 0  -0.02769631688837457 0.8169908457081876 0  0.6170242956372226 0.4771892812676271 0  0.5831173943316111 0.5004923328325405 0  0.5488736155106795 0.525571080318693 0  0.5141554815627755 0.5522396455395385 0  0.4786570866358761 0.5800946439591862 0  0.4421550359251523 0.6088364079512307 0  0.4043920956593926 0.6381674903765981 0  0.3650189815347344 0.6677461069450008 0  0.3236232667580712 0.6967121152355378 0  0.2799860045218191 0.7244464425978223 0  0.233933604652093 0.7501516044950338 0  0.1853977335542982 0.7730943616873078 0  0.1344809542842349 0.7918761099590995 0  0.08160386956730784 0.8057822675533718 0  0.0273394034883961 0.8141441131402926 0  0.6507365266906465 0.4564090200966483 0  -0.08265330568279472 0.8129480957404734 0  -0.1366289503267222 0.8028313415684895 0  -0.1889485286612868 0.7872827661750745 0  -0.2388958509167171 0.7662513763588912 0  -0.2865534614560314 0.7428929749104893 0  -0.3319291734440216 0.7170260615233094 0  -0.3750993254016148 0.6893390174921157 0  -0.4161280157708836 0.6602729234967317 0  -0.4553524788653608 0.6311096549822165 0  -0.4931203823266612 0.6021006386307408 0  -0.5296406776667659 0.5735820922928271 0  -0.5651257524905366 0.5459009499189915 0  -0.5997694416022471 0.5193679594789349 0  -0.6338002663746796 0.4945262813050644 0  -0.6674671846652804 0.4722328848049147 0  -0.6837588017622002 0.4627313647947004 0  -0.6504736325812079 0.4832661086896975 0  -0.5825454592987515 0.5325251291228658 0  -0.5115235717285409 0.5877653204433825 0  -0.4359261091056096 0.6456842984385318 0  -0.35377758502783 0.7033400846601359 0  -0.2630098116878664 0.7549432583981979 0  -0.1630221325718267 0.7955786076281499 0  -0.05523938882469027 0.815725800009049 0  0.05461149617214747 0.8107203356544649 0  0.1602149440729163 0.7830198501437985 0  0.2572670908542522 0.7376063674540111 0  0.3445818158953492 0.6823323250210446 0  0.4234480079443965 0.6234483278083056 0  0.4965127561351348 0.5660419608109004 0  0.5660375174803104 0.5129002808693158 0  0.6336787557138517 0.4666414965398793 0  -0.6168122213095868 0.5068626649990122 0  -0.5474990473580978 0.5596321002797535 0  -0.4744067507034411 0.6165672302566565 0  -0.3959102131115364 0.6749413872615768 0  -0.3095207119722671 0.7302207935546503 0  -0.2143624604479181 0.7774494509775791 0  -0.1098072029139633 0.8085967630666335 0  -8.573480333347316e-05 0.8163489264015694 0  0.1082556868026009 0.7994817673471246 0  0.2100010578479252 0.7621001775558869 0  0.3020981625918367 0.7107841254673429 0  0.3849479704503087 0.6529812280304831 0  0.4605462413545751 0.5943767989790614 0  0.5316015999653566 0.5387430799257739 0  0.6000543108689954 0.4887480677469154 0  -0.815733687953567 0.2711326128966374 0  -0.7362338554011181 0.4333593838498779 0  -0.7808202530987061 0.3898219396473078 0  -0.8088641911973907 0.3342072392211136 0  -0.7104014316791766 0.4484155900333076 0  -0.7595223352865829 0.4126687407807643 0  -0.7934704208945973 0.3609029301405122 0  -0.8113788428072102 0.3022889392421653 0  -0.6971713398101855 0.4562372991799681 0  -0.7232561544702693 0.4402734974456105 0  -0.7479835430566611 0.42315674673468 0  -0.7698033285793171 0.4004500870839569 0  -0.7887011281699663 0.3761379570028914 0  -0.8004937257132055 0.3473696733493321 0  -0.809419021378425 0.3180411807297698 0  -0.8130572439470372 0.2866098321179084 0  -0.8148218963247357 0.2508555890479185 0  -0.81358523467127 -0.2015103399826246 0  -0.8141416769736581 -0.1612939981768625 0  -0.8160999231312354 -0.1207663193304404 0  -0.8185480737126364 -0.07980908137356696 0  -0.8211574030662258 -0.03835963614716521 0  -0.8225135270627572 0.003504872634743117 0  -0.8226531492076175 0.04548610523663148 0  -0.821580119193482 0.08737623004965629 0  -0.8192468412759087 0.1288851302820492 0  -0.817022455876903 0.1699199868127527 0  -0.8152435641089113 0.2105412900270371 0  -0.8144079822464393 -0.2217542892187508 0  -0.813638926727331 -0.1814315543731625 0  -0.8173058984698377 -0.1003462826480177 0  -0.8219890113865073 -0.01745582807494989 0  -0.8222685941250441 0.06645639045252469 0  -0.818119326970056 0.149457896864084 0  -0.8148100458939662 0.2307254493732906 0  -0.81503164953829 -0.1410804485832692 0  -0.8199147911311282 -0.05916646059079337 0  -0.8227312101162754 0.02449395646938438 0  -0.8204845678887341 0.1082085405952919 0  -0.8160505177375239 0.1902789399072159 0  -0.8070039959517963 -0.2846059805516541 0  -0.7782457659849051 -0.3396868394839382 0  -0.7331114975897582 -0.3825272132039409 0  -0.8098371769125624 -0.2528201766125408 0  -0.7913062846569944 -0.3110934333089583 0  -0.7567020971621676 -0.3623022267010839 0  -0.7070267636828597 -0.397190232372355 0  -0.8116170781203728 -0.2371829037968218 0  -0.80773
[...]
<PointData  Vectors="f_3917"> 
<DataArray  type="Float64"  Name="f_3917"  NumberOfComponents="3" format="ascii">4.7336239583953311e-03 6.6302948893810672e-03 0.0000000000000000e+00  1.0857271377316319e-04 2.9424103682881897e-02 0.0000000000000000e+00  3.2526760521958088e-03 3.1611223776504174e-02 0.0000000000000000e+00  6.4449453513358646e-03 3.2897130652229635e-02 0.0000000000000000e+00  8.5170164630549924e-03 3.0505775999026142e-02 0.0000000000000000e+00  1.2272878088064265e-02 3.3422185989177879e-02 0.0000000000000000e+00  2.2596890285495205e-02 4.7260584181336183e-02 0.0000000000000000e+00  2.3178558891347043e-02 4.1018176042197332e-02 0.0000000000000000e+00  1.7644167770864069e-02 2.7600174884373180e-02 0.0000000000000000e+00  -2.8298051775734584e-03 2.9100570463704154e-02 0.0000000000000000e+00  9.0982841695289272e-03 1.2460804193194744e-02 0.0000000000000000e+00  6.3118375612845560e-03 8.3519052352149653e-03 0.0000000000000000e+00  4.5456553809833039e-03 5.9337782458313160e-03 0.0000000000000000e+00  5.6049938291857183e-03 7.4432875722145516e-03 0.0000000000000000e+00  5.9282809250034152e-03 8.2222643806354519e-03 0.0000000000000000e+00  4.8305371166875773e-03 7.2332521162216086e-03 0.0000000000000000e+00  2.2595974131497175e-03 3.5900119455161248e-03 0.0000000000000000e+00  -3.6179602328643465e-02 8.0573383171532773e-02 0.0000000000000000e+00  -5.8838075385512587e-03 2.9884603494603947e-02 0.0000000000000000e+00  -9.4295040978246425e-03 3.2027108354563322e-02 0.0000000000000000e+00  -1.3368321179243527e-02 3.4510762192495610e-02 0.0000000000000000e+00  -1.6469656381137086e-02 3.4927963681241715e-02 0.0000000000000000e+00  -1.8483048154626407e-02 3.4178989141340002e-02 0.0000000000000000e+00  -1.8809575556489207e-02 3.1411658427491489e-02 0.0000000000000000e+00  -1.8113523350376963e-02 2.8131295127316536e-02 0.0000000000000000e+00  -1.5804958522581482e-02 2.3542951793619926e-02 0.0000000000000000e+00  -1.3630660635160174e-02 1.9901268974934886e-02 0.0000000000000000e+00  -1.1464880457003180e-02 1.6709668668465950e-02 0.0000000000000000e+00  -8.9103124410144820e-03 1.3145220570111495e-02 0.0000000000000000e+00  -8.7709886341396145e-03 1.3376122963452971e-02 0.0000000000000000e+00  -8.3642544665909237e-03 1.3387638076950497e-02 0.0000000000000000e+00  -7.4933602361337863e-03 1.3121167559846136e-02 0.0000000000000000e+00  2.4175906802813805e-03 -4.5148262722450021e-03 0.0000000000000000e+00  -5.8963896208503606e-04 7.6791976656239802e-04 0.0000000000000000e+00  7.6169398621741286e-03 1.1779347554563193e-02 0.0000000000000000e+00  2.8830112450708022e-03 3.8309209493982946e-03 0.0000000000000000e+00  5.4486472828381835e-03 7.1459852673144914e-03 0.0000000000000000e+00  1.1515255958586063e-02 1.6002074305082471e-02 0.0000000000000000e+00  1.8960323630496087e-02 3.1389991354172926e-02 0.0000000000000000e+00  1.9535132961248529e-02 4.5871674059669257e-02 0.0000000000000000e+00  8.0102692135557794e-03 3.3390958172797615e-02 0.0000000000000000e+00  1.6566572156180516e-03 3.0783033776980471e-02 0.0000000000000000e+00  -1.2042241399198921e-03 1.7762614762088236e-03 0.0000000000000000e+00  -1.1304150764462758e-02 3.3105637902661848e-02 0.0000000000000000e+00  -1.7876179167387103e-02 3.5245319273818666e-02 0.0000000000000000e+00  -1.8445741594669534e-02 2.9625231895850628e-02 0.0000000000000000e+00  -1.4852820383970703e-02 2.1854106110297131e-02 0.0000000000000000e+00  -1.0355145197519419e-02 1.5156649672881172e-02 0.0000000000000000e+00  -4.1505348222172743e-03 6.3566846097354215e-03 0.0000000000000000e+00  -4.2977708193422262e-03 2.9209372771000268e-02 0.0000000000000000e+00  4.4053505973916600e-02 8.4454316248443698e-02 0.0000000000000000e+00  -8.3074539656182254e-03 1.2413423754077391e-02 0.0000000000000000e+00  -1.2564283152905947e-02 1.8290582534730697e-02 0.0000000000000000e+00  -1.6823672986979246e-02 2.5462728505758935e-02 0.0000000000000000e+00  -1.8925712449747559e-02 3.3122906439987582e-02 0.0000000000000000e+00  -1.5527564504284930e-02 3.5917053754212287e-02 0.0000000000000000e+00  -7.5733777441722629e-03 3.0774905481888697e-02 0.0000000000000000e+00  -1.3517286759593915e-03 2.8794781408482347e-02 0.0000000000000000e+00  5.0902640012600022e-03 3.3798491538342676e-02 0.0000000000000000e+00  5.7300135160034474e-03 1.8439534148971298e-02 0.0000000000000000e+00  2.0324161402358994e-02 3.8845735862490266e-02 0.0000000000000000e+00  3.3860738669070078e-02 4.9576769511639203e-02 0.0000000000000000e+00  7.7361600382152345e-03 1.0393499895451862e-02 0.0000000000000000e+00  3.3874386775232172e-03 4.4130288644075467e-03 0.0000000000000000e+00  8.9389255416428063e-04 1.1563310316204511e-03 0.0000000000000000e+00  3.8212261165770291e-02 -2.0683144584077826e-03 0.0000000000000000e+00  6.5516914466767981e-02 -9.9498183647787092e-02 0.0000000000000000e+00  5.8387436144882530e-02 -4.8451486753616178e-02 0.0000000000000000e+00  -1.3851619370361132e-01 4.9716299905405735e-02 0.0000000000000000e+00  2.3740455747712833e-02 -4.4523222458919383e-02 0.0000000000000000e+00  2.1341785239927972e-02 -2.0569439541417607e-02 0.0000000000000000e+00  1.9086197664989119e-01 -8.0627606002777186e-02 0.0000000000000000e+00  2.7278822830037276e-02 -3.4862700249617086e-03 0.0000000000000000e+00  4.3258064057692912e-02 -9.2347606035527760e-02 0.0000000000000000e+00  -4.8593071467665477e-02 8.8741104548651917e-02 0.0000000000000000e+00  3.5080846798071261e-02 -4.8051442880865207e-02 0.0000000000000000e+00  -8.4965195385705797e-03 4.5770945429208128e-03 0.0000000000000000e+00  -1.6286784647191394e-01 7.9686809855375768e-02 0.0000000000000000e+00  -2.0552582606150016e-01 1.1575024404945949e-01 0.0000000000000000e+00  1.7931791221757507e-01 -1.7342410198049982e-02 0.0000000000000000e+00  1.5898823790931244e-02 -2.8398377470285519e-03 0.0000000000000000e+00  7.0075130088976756e-02 1.0081173740051845e-03 0.0000000000000000e+00  5.2528270596711862e-02 -1.7324305360947427e-03 0.0000000000000000e+00  1.8279429567877422e-02 3.0742634081346509e-04 0.0000000000000000e+00  1.0318104744194563e-02 4.1625709987080185e-04 0.0000000000000000e+00  7.8494297114375649e-03 4.1237022423479394e-04 0.0000000000000000e+00  9.0803979405840729e-03 3.7162342613096847e-04 0.0000000000000000e+00  9.4086266130301421e-03 7.4780634025188862e-05 0.0000000000000000e+00  9.4251605540395123e-03 -1.9755678271926832e-04 0.0000000000000000e+00  8.9201295641036689e-03 -4.7786476691986024e-04 0.0000000000000000e+00  8.1048230583179760e-03 -5.1401055161588900e-04 0.0000000000000000e+00  1.1144251865627805e-02 -5.7170710157784365e-04 0.0000000000000000e+00  2.2048387570563641e-02 -5.8660423912544558e-04 0.0000000000000000e+00  3.0848854094345693e-02 1.2441986856267537e-03 0.0000000000000000e+00  2.1834990429735079e-02 -1.0824223016004286e-04 0.0000000000000000e+00  8.3570987750270966e-03 3.8735636288919471e-04 0.0000000000000000e+00  9.5830517753278041e-03 2.1534172062694882e-04 0.0000000000000000e+00  9.7242249803847838e-03 -3.4803865373643955e-04 0.0000000000000000e+00  8.8592904556840588e-03 -5.1075559546632870e-04 0.0000000000000000e+00  2.2828914389007870e-02 -1.1746630908368962e-04 0.0000000000000000e+00  1.2743320233209506e-02 3.9878595393486667e-04 0.0000000000000000e+00  8.3704830305145056e-03 4.5209794722958588e-04 0.0000000000000000e+00  9.4011735939204776e-03 -6.1961965474459358e-05 0.0000000000000000e+00  7.6711722462909368e-03 -5.0655089779407089e-04 0.0000000000000000e+00  1.3476097107526574e-02 -5.6679688478832762e-04 0.0000000000000000e+00  -3.6159194564653850e-02 -7.3573090435090666e-02 0.0000000000000000e+00  -6.1815715111874510e-02 -2.1200534027585965e-02 0.0000000000000000e+00  5.7018889355169924e-02 4.3310428652355071e-02 0.0000000000000000e+00  6.2836172772017515e-02 9.1571214420404987e-02 0.0000000000000000e+00  3.3247931182481053e-02 3.6055483911182694e-03 0.0000000000000000e+00  1.1809285179889069e-01 4.9165424704364059e-02 0.0000000000000000e+00  2.4988758785124961e-02 2.3747525611061283e-02 0.0000000000000000e+00  2.1396838079194645e-02 3.9032088882226382e-02 0.0000000000000000e+00  2.6489426387367905e-02 3.6307748619585248e-03 0.0000000000000000e+00  1.2308540476976003e-01 1.0112667761582024e-02 0.0000000000000000e+00  -1.0298612956603174e-01 -5.3185515014166150e-02 0.0000000000000000e+00  -9.0904844401763010e-02 -4.3770140463078880e-02 0.0000000000000000e+00  -2.6665213461899476e-03 3.1635821357281810e-04 0.0000000000000000e+00  3.5165995554997324e-02 4.5382950873633261e-02 0.0000000000000000e+00  -3.8419312498349706e-02 -6.7553175268153021e-02 0.0000000000000000e+00  3.4530886369415328e-02 7.1117974201632739e-02 0.0000000000000000e+00  2.4374993103294039e-04 -1.8196355525112562e-02 0.0000000000000000e+00  -7.8511976620091791e-03 -1.2127048648663536e-02 0.0000000000000000e+00  -9.9594386341572590e-03 -1.4119817038838611e-02 0.0000000000000000e+00  -1.0565813109052299e-02 -1.4119131398922784e-02 0.0000000000000000e+00  -1.0155014206624055e-02 -1.3058285602725405e-02 0.0000000000000000e+00  -1.1516302017085901e-02 -1.4619332023324152e-02 0.0000000000000000e+00  -1.3559570100000359e-02 -1.7304632391998146e-02 0.0000000000000000e+00  -1.5292036091794527e-02 -1.9941348453317992e-02 0.0000000000000000e+00  -1.8879556036371307e-02 -2.5978615943410575e-02 0.0000000000000000e+00  -1.9351000876266969e-02 -2.8908282056467803e-02 0.0000000000000000e+00  -1.8558725168047668e-02 -3.1028554709390643e-02 0.0000000000000000e+00  -1.5793686196264506e-02 -3.0501612594454015e-02 0.0000000000000000e+00  -1.2353411322625006e-02 -2.9380761331426714e-02 0.0000000000000000e+00  -8.0183150257494319e-03 -2.5296116144708242e-02 0.0000000000000000e+00  -4.4737147201217419e-03 -2.1351081887843903e-02 0.0000000000000000e+00  -2.0477256263109131e-03 -1.9884126807240238e-02 0.0000000000000000e+00  -3.4197506925969538e-03 -5.8430852532738442e-03 0.0000000000000000e+00  3.3221890533486438e-03 -2.5271200761681555e-02 0.0000000000000000e+00  8.4697794747384432e-03 -3.4628498197874315e-02 0.0000000000000000e+00  1.2624135643629771e-02 -3.5537726373389575e-02 0.0000000000000000e+00  1.1048675799510146e-02 -2.4063829052542215e-02 0.0000000000000000e+00  1.6222929192305422e-02 -3.0534299229221646e-02 0.0000000000000000e+00  1.6280412553824872e-02 -2.6830968776108743e-02 0.0000000000000000e+00  1.5199229630115356e-02 -2.2556088949867131e-02 0.0000000000000000e+00  1.0002990190094152e-02 -1.3687432824592331e-02 0.0000000000000000e+00  8.8769464182737300e-03 -1.1733254795119750e-02 0.0000000000000000e+00  6.5914849812694779e-03 -8.4941559377758567e-03 0.0000000000000000e+00  4.8029074057277105e-03 -6.1423497291213441e-03 0.0000000000000000e+00  4.2849257004554881e-03 -5.5519253010156977e-03 0.0000000000000000e+00  5.5312668864130870e-03 -7.4644289408788882e-03 0.0000000000000000e+00  5.7311569991773635e-03 -8.3964763012057270e-03 0.0000000000000000e+00  1.4381246000707388e-03 -2.3962662828510665e-03 0.0000000000000000e+00  4.1804447692624806e-02 -7.7613186686735669e-02 0.0000000000000000e+00  4.4171290626736940e-03 -6.5339760137731401e-03 0.0000000000000000e+00  1.6964518307802513e-03 -2.1809120395937954e-03 0.0000000000000000e+00  5.5507968020003162e-03 -7.1091268417051495e-03 0.0000000000000000e+00  1.0396741685071747e-02 -1.3984953258174240e-02 0.0000000000000000e+00  1.4942267663199586e-02 -2.3292171383491850e-02 0.0000000000000000e+00  1.4459701297053672e-02 -2.9444849918089357e-02 0.0000000000000000e+00  9.8985184163918553e-03 -3.3236524213865151e-02 0.0000000000000000e+00  1.6374986917331710e-03 -2.2281116609897383e-02 0.0000000000000000e+00  -3.0813219579831140e-03 -1.9938317008955705e-02 0.0000000000000000e+00  -1.0122763702322683e-02 -2.7419888643897893e-02 0.0000000000000000e+00  -1.7480094602600020e-02 -3.1311708384258403e-02 0.0000000000000000e+00  -1.8808988587278180e-02 -2.6882098414776179e-02 0.0000000000000000e+00  -1.4856232455894508e-02 -1.9129054107252831e-02 0.0000000000000000e+00  -1.0659359105439305e-02 -1.3584817085625697e-02 0.0000000000000000e+00  -7.2590957862568714e-03 -9.8594483473432547e-03 0.0000000000000000e+00  -8.4157665248521720e-03 -1.3631312482256457e-02 0.0000000000000000e+00  5.2803955122542544e-04 -6.0292625442622894e-04 0.0000000000000000e+00  3.7726656005978468e-03 -4.8324255466752194e-03 0.0000000000000000e+00  7.6907771049946581e-03 -1.0014462060064457e-02 0.0000000000000000e+00  1.5065704448460148e-02 -2.1304633436306397e-02 0.0000000000000000e+00  1.5594228737484462e-02 -2.7356323377742017e-02 0.0000000000000000e+00  2.6946156118383188e-02 -6.4374511250162136e-02 0.0000000000000000e+00  5.2186458668614022e-03 -2.7756004363165526e-02 0.0000000000000000e+00  -7.1285679515908267e-04 -1.3611537898982812e-02 0.0000000000000000e+00  -6.0872435264176126e-03 -2.3107028909387407e-02 0.0000000000000000e+00  -1.5299334901202151e-02 -3.2388654930165774e-02 0.0000000000000000e+00  -1.9123544185991305e-02 -3.0097129026920934e-02 0.0000000000000000e+00  -1.7475027923197099e-02 -2.3272014290334889e-02 0.0000000000000000e+00  -1.2546688005139504e-02 -1.5935529215228738e-02 0.0000000000000000e+00  -8.7342911861558545e-03 -1.1358946744984584e-02 0.0000000000000000e+00  -4.3329476216786940e-03 -6.1950250744308788e-03 0.0000000000000000e+00  -3.1062240067629570e-02 1.5181589482873706e-03 0.0000000000000000e+00  -6.8002723847836663e-02 9.3494723747053407e-02 0.0000000000000000e+00  -6.0276128407495327e-02 4.4333355303897128e-02 0.0000000000000000e+00  8.1790957946551279e-02 -2.7723398054090759e-02 0.0000000000000000e+00  -2.5089682822434737e-02 4.1961527484647890e-02 0.0000000000000000e+00  -2.3715531416924722e-02 2.1661517972495124e-02 0.0000000000000000e+00  -1.2944686427146646e-01 5.2615464160484425e-02 0.0000000000000000e+00  -3.0430122294455242e-02 3.5225868212680500e-03 0.0000000000000000e+00  -3.8554341934234848e-02 7.1382192975776054e-02 0.0000000000000000e+00  5.0488657811030027e-02 -8.3199244781344370e-02 0.0000000000000000e+00  -3.6239196794379175e-02 4.4579761512696409e-02 0.0000000000000000e+00  1.1033702365028486e-02 -7.3099587493649478e-03 0.0000000000000000e+00  1.0223382843066467e-01 -4.7546943390636205e-02 0.0000000000000000e+00  1.2990342215849204e-01 -6.6924266843167365e-02 0.0000000000000000e+00  -1.3959244469478874e-01 1.2114553496949513e-02 0.0000000000000000e+00  -2.1432467461264041e-02 3.2682307392494958e-03 0.0000000000000000e+00  -5.8875255182401783e-02 -9.5849571647813514e-04 0.0000000000000000e+00  -6.9560545527312403e-02 7.6377180810863296e-04 0.0000000000000000e+00  -2.0754690880554719e-02 -7.0795184717769178e-04 0.0000000000000000e+00  -1.1448297814627976e-02 -6.3725972049704423e-04 0.0000000000000000e+00  -9.2146181164351904e-03 -5.8236925828421683e-04 0.0000000000000000e+00  -9.8363014197415041e-03 -4.8995243045848417e-04 0.0000000000000000e+00  -1.0263700002015002e-02 -1.8185088085757365e-04 0.0000000000000000e+00  -1.0262672130109859e-02 1.1356952494069026e-04 0.0000000000000000e+00  -9.9248301875948016e-03 4.2592084199885837e-04 0.0000000000000000e+00  -9.3046520941910370e-03 5.3234898780283701e-04 0.0000000000000000e+00  -1.1327294836032054e-02 5.7262700221163694e-04 0.0000000000000000e+00  -1.9118229799005713e-02 5.8077491099824997e-04 0.0000000000000000e+00  -3.2844827925939492e-02 -1.6038206565261181e-03 0.0000000000000000e+00  -2.1555963003849887e-02 -2.9403412668082109e-04 0.0000000000000000e+00  -9.6315474525041720e-03 -5.7606840237719320e-04 0.0000000000000000e+00  -1.0519653290982650e-02 -3.4016850430644926e-04 0.0000000000000000e+00  -1.0477072030519763e-02 2.6721016434593360e-04 0.0000000000000000e+00  -9.6462577584595834e-03 5.2294268641985800e-04 0.0000000000000000e+00  -2.1127575292673745e-02 2.1087807235955331e-04 0.0000000000000000e+00  -1.3455240651397254e-02 -6.4654091320476596e-04 0.0000000000000000e+00  -9.0384069865982863e-03 -5.6726994230208068e-04 0.0000000000000000e+00  -1.0254687707114523e-02 -3.4182880441622758e-05 0.0000000000000000e+00  -9.3966636556792778e-03 5.2582374777984599e-04 0.0000000000000000e+00  -1.3289133324085357e-02 5.7844173033136338e-04 0.0000000000000000e+00  9.8848141558380190e-02 3.4836415624787780e-02 0.0000000000000000e+00  -5.9981968142784746e-02 -4.5784906059410622e-02 0.0000000000000000e+00  -7.1084720956848521e-02 -1.0102192257122766e-01 0.0000000000000000e+00  -2.8750845365826568e-02 -3.5867395331636454e-03 0.0000000000000000e+00  -1.4901165195270993e-01 -6.2739146709408541e-02 0.0000000000000000e+00  -2.3325076131436671e-02 -2.1679726342855796e-02 0.0000000000000000e+00  -2.2455753903278690e-02 -3.9328267901975376e-02 0.0000000000000000e+00  -1.7342092857541493e-02 -2.9364269891643019e-03 0.0000000000000000e+00  -1.5624914283388269e-01 -1.5333271849305143e-02 0.0000000000000000e+00  1.5726268394599621e-01 8.3817643728674451e-02 0.0000000000000000e+00  1.1967976652303948e-01 5.7920218347939555e-02 0.0000000000000000e+00  1.1447573799311862e-02 7.6573160772118540e-03 0.0000000000000000e+00  -3.5905996171815849e-02 -4.6137774924600916e-02 0.0000000000000000e+00  5.0370765829333010e-02 8.5940152702405251e-02 0.0000000000000000e+00  -3.5966734000682274e-02 -7.0278266445443008e-02 0.0000000000000000e+00  9.1949418528707231e-09 -1.6315621943126628e-08 0.0000000000000000e+00  -1.2485821604783567e-08 2.2020155479053934e-08 0.0000000000000000e+00  3.4083733917671050e-09 2.2788344895431727e-08 0.0000000000000000e+00  5.3129207344212548e-09 7.1936663477974241e-09 0.0000000000000000e+00  -8.8340642374008561e-09 -1.1262387666071589e-08 0.0000000000000000e+00  -4.4044584987320933e-09 -1.6479773205554878e-08 0.0000000000000000e+00  8.5024628384366521e-09 -2.8906346572333823e-10 0.0000000000000000e+00  -8.3750583351387227e-09 3.0299961457757414e-10 0.0000000000000000e+00  -8.8591226937062387e-09 -3.5510805359904338e-10 0.0000000000000000e+00  8.0270886045962587e-09 1.8923041875309645e-10 0.0000000000000000e+00  -3.5611126487244527e-09 -5.2799655257894861e-09 0.0000000000000000e+00  -7.3163278074244677e-15 -9.7478063132760967e-15 0.0000000000000000e+00  -1.4263975726236571e-14 -1.9320990273568516e-14 0.0000000000000000e+00  -1.3585105543749965e-20 -3.5554596803242491e-22 0.0000000000000000e+00  -3.7674522895854920e-20 -7.5279576358050507e-22 0.0000000000000000e+00  1.0649277295132190e-14 -7.0358377585139065e-17 0.0000000000000000e+00  -1.2315012237606453e-14 -2.6280928032711963e-14 0.0000000000000000e+00  -1.6449782522859249e-20 1.6930007178121648e-21 0.0000000000000000e+00  -7.8355978394465231e-16 -1.8315552118219279e-14 0.0000000000000000e+00  1.9974569001901739e-20 8.0109153801971131e-21 0.0000000000000000e+00  1.0665802794482948e-14 -2.6540037127257984e-14 0.0000000000000000e+00  2.0564185951253293e-16 3.9839968739799479e-16 0.0000000000000000e+00  3.3569054755407643e-20 -9.7371782175782735e-21 0.0000000000000000e+00  1.6720442377399827e-09 2.4752204540274127e-09 0.0000000000000000e+00  3.9087222712773170e-15 5.3510409842997338e-15 0.0000000000000000e+00  -1.2317192193375232e-14 -3.5659947926938893e-17 0.0000000000000000e+00  3.3326405048060550e-15 -4.4770541354499391e-15 0.0000000000000000e+00  -2.3198755915650829e-09 3.8924139361844019e-09 0.0000000000000000e+00  3.5412440609454062e-09 -1.8046111346609516e-08 0.0000000000000000e+00  1.5673782642046349e-09 -2.2699231846830856e-09 0.0000000000000000e+00  5.3280392725332270e-09 -6.9804828486012586e-09 0.0000000000000000e+00  -1.1980166750219054e-08 -1.8998192452101014e-08 0.0000000000000000e+00  -1.4378276501014297e-14 2.2071898398937751e-14 0.0000000000000000e+00  -5.5726623319646482e-09 2.2596114123514062e-08 0.0000000000000000e+00  1.0927313645376696e-08 2.1143862152320578e-08 0.0000000000000000e+00  -5.9728185108765611e-15 9.1552850402449230e-15 0.0000000000000000e+00  1.6126916629390590e-14 2.4409456942742387e-14 0.0000000000000000e+00  4.1872032136796176e-21 2.7216511870122770e-22 0.0000000000000000e+00  -8.7108587436585868e-09 1.2722245550642919e-08 0.0000000000000000e+00  -2.3447504982746313e-08 2.9637859511799394e-08 0.0000000000000000e+00  -1.3