<?xml version="1.0"?>
<VTKFile type="UnstructuredGrid"  version="0.1"  >
<UnstructuredGrid>
<Piece  NumberOfPoints="4153" NumberOfCells="8064">
<Points>
<DataArray  type="Float64"  NumberOfComponents="3"  format="ascii">-0.4135676068336139 -0.4922948331746483 0  -0.02510907671782429 -0.515096901339904 0  -0.07384097369094757 -0.5134274234042137 0  -0.1224945967407225 -0.5113274828578745 0  -0.1710852574266782 -0.5089783580963354 0  -0.2196820943803504 -0.5064865070018835 0  -0.2682602773935301 -0.503396185798938 0  -0.3167764417787173 -0.4999369683535544 0  -0.3652238501932316 -0.4962182760807402 0  0.02369528448850149 -0.5161791404746572 0  -0.4618641605617168 -0.4885757910320673 0  -0.5101093878777319 -0.4848350403146344 0  -0.5582974850355169 -0.4811441653750506 0  -0.6064183897849111 -0.4776438898194204 0  -0.6544827490365042 -0.4743065949013759 0  -0.7024618062753893 -0.4712007667640172 0  -0.7503468687358968 -0.4683917404703853 0  0.7750643498817686 -0.4748110146720621 0  0.07255548272198592 -0.5165726569172493 0  0.1214468928478131 -0.5161998198240405 0  0.1703367080176543 -0.5150339717496119 0  0.2191867954144054 -0.5131150589930702 0  0.2679731438358227 -0.5105976676532088 0  0.3166853936476115 -0.5075805232560605 0  0.3653134687628705 -0.5041688853027637 0  0.41384948321542 -0.5005129112996528 0  0.4622982307080545 -0.4967066885840652 0  0.5106625099458302 -0.4928511696496168 0  0.558943302034164 -0.4890197356182178 0  0.6071411692491492 -0.4853228617573807 0  0.6552519149635723 -0.4817829012405669 0  0.7032694637047544 -0.4785328377382716 0  0.7511916059719373 -0.4756476041787572 0  0.7272351233663555 -0.4770790060132669 0  -0.7264047801088076 -0.4698242105976736 0  -0.6304601684576895 -0.4759550058395216 0  -0.5342106381188876 -0.4829846457121922 0  -0.4377232117515569 -0.4904592448269544 0  -0.3410086550170962 -0.4981062906894058 0  -0.2439774295972692 -0.5049912829767276 0  -0.1467957693448783 -0.5101724102292555 0  -0.0494849523207521 -0.5143267268184937 0  0.6792725227112452 -0.4801159488713652 0  0.145894201503778 -0.5157155433628547 0  0.243588486245866 -0.5119254799864323 0  0.3410102886955323 -0.5059193439319057 0  0.4380845225242126 -0.4986199713579436 0  0.5348132462200341 -0.4909297365254466 0  0.6312076798633405 -0.4835200026365577 0  0.0481196525197868 -0.5164675390596087 0  -0.7741720970112815 -0.4676275896301738 0  0.5830500561489026 -0.4871541571900139 0  0.4864908044481042 -0.4947804241218166 0  0.3895913312359132 -0.5023619536282505 0  0.2923392382958828 -0.5091451462533331 0  0.1947695415966556 -0.5141587840796319 0  0.09699922528308974 -0.5164850694377933 0  -0.0007149631395041244 -0.5157192167614161 0  -0.09817714216671206 -0.5124204458094349 0  -0.1953732665700935 -0.5077944143440898 0  -0.2925267033215583 -0.5017042905627709 0  -0.3894182204894792 -0.4942207712964289 0  -0.4859935453632917 -0.486703764418161 0  -0.5823627426255362 -0.4793583751391113 0  -0.6784835847487093 -0.472720346651597 0  0.9659221608891553 -0.2788733328483001 0  0.8483621156262527 -0.4584993312701927 0  0.910578222351397 -0.4159265916738346 0  0.9518220601494899 -0.3529241292091901 0  0.8117602551436269 -0.4666902910568653 0  0.8796558250330828 -0.4374683105807135 0  0.9309233023178868 -0.3842232075851148 0  0.9587030459169111 -0.315816514480405 0  0.7934510078049641 -0.4709512603964788 0  0.8300343890691642 -0.4624997399681329 0  0.8640146280729226 -0.448037198568817 0  0.8949560299440891 -0.4264470920225292 0  0.9209180106838224 -0.400158410793108 0  0.9412798136964737 -0.3685506301054277 0  0.9551817309811813 -0.3343347226384094 0  0.9622162709454635 -0.2973278607113349 0  0.9658369609593586 -0.2547498364230756 0  0.9694687246675546 0.2762463934919024 0  0.9690369508586942 0.2280606335839244 0  0.9689640452110301 0.1798762509219159 0  0.9690786590506962 0.131649441132439 0  0.9692914993378057 0.08334357899447149 0  0.9692410608364039 0.03496836642048249 0  0.9689261204886379 -0.01342765155659692 0  0.968345271789391 -0.06181340302516979 0  0.9674947345057893 -0.1101384125016683 0  0.9667215080807464 -0.1583859854234543 0  0.9661128046848375 -0.2065808785544816 0  0.969894015938379 0.3004023513959171 0  0.9691919948917002 0.2521495962467344 0  0.9690047540257989 0.1557700548502241 0  0.9693000819491324 0.05916064617245886 0  0.9686697539846213 -0.03762398832735801 0  0.9670943179457988 -0.1342698732011599 0  0.965918592579165 -0.2306661478286342 0  0.9689718264051224 0.2039715533616502 0  0.9691966989470717 0.1075110857385521 0  0.9691157657963142 0.01077104672979204 0  0.9679334824181455 -0.08598962354413316 0  0.9663909550869391 -0.182488757848297 0  0.7820869531088539 0.4986598864607254 0  0.9567659744152481 0.3746831916084397 0  0.9163514498896709 0.438142027039074 0  0.8548480125036161 0.4814732642745438 0  0.9631766110142457 0.337437100495791 0  0.9362976491222053 0.4061874792249656 0  0.8858409302408563 0.4600926118205823 0  0.8185391542615538 0.4901657756446289 0  0.9664302127289006 0.3188949674210515 0  0.9598962429747415 0.3560191968025973 0  0.9464371487094094 0.3904042473743864 0  0.9265105969185883 0.4222535785177635 0  0.9009298982855091 0.4488401979842415 0  0.8703534418212452 0.47083548379808 0  0.8366729668685912 0.4857315983878813 0  0.8003560543657184 0.4946525126159144 0  -0.02300038625789577 0.5663231946545433 0  0.7107435272169956 0.5041209354826368 0  0.662944520832896 0.5087206472543537 0  0.6150005615479172 0.5137319757971635 0  0.5669213267708518 0.519086651233978 0  0.5186840075075043 0.524733003369962 0  0.4702837036802827 0.5305254027268815 0  0.4217111679216706 0.5363625653806779 0  0.3729562983628099 0.542159652897254 0  0.3239982121906252 0.5477261904930895 0  0.2748479284459285 0.5528692749427484 0  0.2255144507851229 0.557435381029564 0  0.1760067804257943 0.561304267028541 0  0.1263525295640163 0.5641740331589287 0  0.07660652792690041 0.5659683924517225 0  0.02681566339131599 0.5666569388516726 0  0.7583995520762176 0.499999600515961 0  -0.07278251322141936 0.564626032469641 0  -0.1224465544098064 0.5617842326678262 0  -0.1719437741355832 0.5579713390799866 0  -0.2212076030198672 0.5533055408420426 0  -0.2702492375137552 0.5485114561213594 0  -0.319123743270503 0.5435759145610565 0  -0.3678509130303881 0.5385570451632631 0  -0.41643320226987 0.5335266139302755 0  -0.4648999481095182 0.5286347459352753 0  -0.5132616701566511 0.523851311248509 0  -0.5615213157158159 0.5192139963129601 0  -0.6096774464528428 0.5147678701718148 0  -0.6577216595917355 0.5105723694572725 0  -0.7056468285345597 0.5067254675793109 0  -0.7534491815562943 0.503279858024124 0  -0.7772281423977543 0.5022399759221017 0  -0.7295535644373585 0.5050062503727765 0  -0.6337138145249921 0.5126311016523563 0  -0.5374043018255665 0.5215118541596413 0  -0.4406804170568148 0.5310727544727568 0  -0.3435047975571708 0.5410749345659472 0  -0.2457516527547013 0.5509370272908567 0  -0.1472190430258627 0.5599843330105518 0  -0.04790211334269252 0.565623915086228 0  0.05171443267952158 0.5664540525277147 0  0.1511943015904207 0.5628675865359626 0  0.250203506634067 0.5552365944784271 0  0.3485014822982645 0.5449888886731723 0  0.4460197548347155 0.5334470433166146 0  0.5428222461679004 0.521888568544239 0  0.6389905479100607 0.5111845075582807 0  0.7345776486550163 0.5020664765186843 0  -0.6816994152204033 0.5086006416069097 0  -0.5856123752416207 0.5169656525099032 0  -0.4890936359140275 0.5262273471270452 0  -0.392161061600959 0.5360233073448971 0  -0.2947059058824045 0.5460578345511532 0  -0.1966183787706262 0.5556926272021644 0  -0.09763264797063913 0.5633367869130613 0  0.001917569647756843 0.5666424521071551 0  0.1014879733820473 0.5652093706943369 0  0.2007850865353042 0.5594752166494783 0  0.2994466430343271 0.5503602102983089 0  0.3973585730322806 0.5392683854916762 0  0.4945047687754374 0.527617197230281 0  0.5909782622086833 0.5163582491958046 0  0.6868619597022007 0.5063644946348415 0  -0.966613190691744 0.3055236016767734 0  -0.8502951292702229 0.4856621492738066 0  -0.9122066727331476 0.4428128103344303 0  -0.9530507071158042 0.3796437205874351 0  -0.8138255441306183 0.4940468887479329 0  -0.8814815037219824 0.4645384066028803 0  -0.9323378422094583 0.4110001623176393 0  -0.9596616564554843 0.3424817871472109 0  -0.7955699691987839 0.4983851223970986 0  -0.83203669904074 0.4897680301013186 0  -0.8658963430200655 0.4751610426835672 0  -0.8966722567239049 0.4533996347309709 0  -0.922464243885459 0.4270017840824675 0  -0.9425956800192926 0.3952953305370764 0  -0.956277462641214 0.3610233021064423 0  -0.9630224968229188 0.3239788038341124 0  -0.9663174411620069 0.281399818234768 0  -0.9649516603124243 -0.2486821889624622 0  -0.9650605478370524 -0.2005777949144872 0  -0.9654875604522015 -0.1524632171761137 0  -0.9660769976935445 -0.1043073849018087 0  -0.9667585599660109 -0.05607754807665995 0  -0.9671457806117179 -0.007785205060076704 0  -0.9672489758374532 0.04051837120338469 0  -0.9670731865690408 0.08880413115043295 0  -0.9666210750982382 0.1370237624558638 0  -0.9662759876833735 0.1851698478040987 0  -0.9661193324097674 0.2332815607174938 0  -0.9651097028580338 -0.2727818631327137 0  -0.9649518256527023 -0.2246285877424495 0  -0.965768004423638 -0.128391913187271 0  -0.9669888224049323 -0.03193486276802333 0  -0.9671967291041428 0.06466544627764025 0  -0.9664313117961711 0.1611030234402086 0  -0.9661569696223707 0.2573367631178546 0  -0.9652490276048289 -0.1765241067232876 0  -0.9664314083050372 -0.08020695018427652 0  -0.9672314120254353 0.01636702278347859 0  -0.9668587284375053 0.1129283096135381 0  -0.9661695346355798 0.2092278503671041 0  -0.9511063180041686 -0.34676532281657 0  -0.9098034161108909 -0.4096135087746459 0  -0.8475132141808145 -0.451920514207048 0  -0.9579742867531476 -0.3096965090935035 0  -0.9302110271788878 -0.3780168644804207 0  -0.8788737190847687 -0.4310829124297465 0  -0.8108917419744772 -0.4599191163404517 0  -0.961453532113009 -0.2912224949971391 0  -0.9544671602254839
[...]
<PointData  Vectors="f_1798"> 
<DataArray  type="Float64"  Name="f_1798"  NumberOfComponents="3" format="ascii">1.2254931396866672e-03 3.7100891944499177e-02 0.0000000000000000e+00  2.9488813693708529e-03 1.0662808444768354e-01 0.0000000000000000e+00  3.8800224278976916e-03 1.0737115571195352e-01 0.0000000000000000e+00  4.1705274144584453e-03 1.0359748424058081e-01 0.0000000000000000e+00  3.5586124096479719e-03 9.3476563191009332e-02 0.0000000000000000e+00  3.9043977266735876e-03 7.6336635303201172e-02 0.0000000000000000e+00  3.4559815988488701e-03 6.4064928017864592e-02 0.0000000000000000e+00  2.9143516231086258e-03 5.2672346290992121e-02 0.0000000000000000e+00  1.9952746603969780e-03 3.6386297420466986e-02 0.0000000000000000e+00  1.5999706928067309e-03 1.0127416624788807e-01 0.0000000000000000e+00  4.8563443110034166e-04 2.0292365589951573e-02 0.0000000000000000e+00  -5.2156437751651097e-04 8.3760844914943424e-03 0.0000000000000000e+00  -1.6148967317987668e-03 -3.0891098016622947e-03 0.0000000000000000e+00  -2.4296970203252798e-03 -1.7847048533133351e-02 0.0000000000000000e+00  -3.2283665676351323e-03 -3.0227056763245174e-02 0.0000000000000000e+00  -2.5844131168406585e-03 -3.4562035970270300e-02 0.0000000000000000e+00  9.5405957653958307e-03 4.1538725068353856e-02 0.0000000000000000e+00  1.3342127258146498e-02 -2.3289367065975880e-01 0.0000000000000000e+00  2.0971619295595125e-04 9.1842084083249204e-02 0.0000000000000000e+00  -9.9140948158482666e-04 7.9474472718574676e-02 0.0000000000000000e+00  -1.7629148095142722e-03 6.5714588634735185e-02 0.0000000000000000e+00  -1.9596965805151294e-03 5.3695984636891680e-02 0.0000000000000000e+00  -1.7595440719592030e-03 4.1183977555168227e-02 0.0000000000000000e+00  -1.3066611182457218e-03 2.9886173040049476e-02 0.0000000000000000e+00  -6.2792184799297080e-04 1.9496904807395514e-02 0.0000000000000000e+00  -8.2134071898331442e-05 1.2214134105544807e-02 0.0000000000000000e+00  6.7383995911890102e-04 3.3284283456605124e-03 0.0000000000000000e+00  1.4313169563305473e-03 -5.6700173962418278e-03 0.0000000000000000e+00  2.2726502432616736e-03 -1.4955852361406740e-02 0.0000000000000000e+00  2.9543540523868789e-03 -2.4968518244437486e-02 0.0000000000000000e+00  3.6654191410040110e-03 -3.4739121901675177e-02 0.0000000000000000e+00  3.0785928935532650e-03 -3.9772477271598085e-02 0.0000000000000000e+00  -1.1264160902987822e-02 3.2318173984421203e-02 0.0000000000000000e+00  6.0325019658178675e-03 -6.5850381963295332e-02 0.0000000000000000e+00  -5.5089797221084987e-03 -6.2205332592328459e-02 0.0000000000000000e+00  -2.8792121567365542e-03 -2.4636059820204375e-02 0.0000000000000000e+00  -1.0961675847972769e-03 1.4722350843645372e-03 0.0000000000000000e+00  7.8884180241682524e-04 2.6095668751616542e-02 0.0000000000000000e+00  2.5693230678945477e-03 4.6179000083499976e-02 0.0000000000000000e+00  3.7496649410442492e-03 6.9305688691520345e-02 0.0000000000000000e+00  4.1363945433488163e-03 1.0044426938221886e-01 0.0000000000000000e+00  3.4870663910095824e-03 1.0757636796393721e-01 0.0000000000000000e+00  4.3194155135801429e-03 -4.2078984893299129e-02 0.0000000000000000e+00  -1.4368423559286661e-03 7.2782630138855650e-02 0.0000000000000000e+00  -1.8922554028387663e-03 4.7385608634292552e-02 0.0000000000000000e+00  -1.0016870251957652e-03 2.4565011133025425e-02 0.0000000000000000e+00  3.0450332209437637e-04 7.6079460277916370e-03 0.0000000000000000e+00  1.8757306850571004e-03 -1.0695253736230658e-02 0.0000000000000000e+00  3.3882083969613802e-03 -2.9771732391465189e-02 0.0000000000000000e+00  9.0518311251342853e-04 9.7032981410217975e-02 0.0000000000000000e+00  -1.4035314701442319e-02 -2.5216848740417203e-01 0.0000000000000000e+00  2.5360033517212491e-03 -1.9325595332503630e-02 0.0000000000000000e+00  1.0626311661661653e-03 -1.2777209111673872e-03 0.0000000000000000e+00  -3.7078117419723995e-04 1.6440627811492338e-02 0.0000000000000000e+00  -1.5556711987926893e-03 3.5346774486635764e-02 0.0000000000000000e+00  -1.9428049891067872e-03 5.9639009527965380e-02 0.0000000000000000e+00  -4.3411611924225720e-04 8.5931593577390095e-02 0.0000000000000000e+00  2.2950454638771202e-03 1.0452945106871218e-01 0.0000000000000000e+00  4.1242507821895027e-03 1.0610866401908557e-01 0.0000000000000000e+00  3.4391614488241684e-03 8.6804184340754528e-02 0.0000000000000000e+00  3.2318066544232485e-03 5.8179186468268126e-02 0.0000000000000000e+00  1.8175062972789918e-03 4.0686254917826910e-02 0.0000000000000000e+00  -6.3303834325922979e-05 1.4559349858986567e-02 0.0000000000000000e+00  -2.0260195716041113e-03 -8.4256060459230557e-03 0.0000000000000000e+00  -3.9579849016031779e-03 -3.7959996710921505e-02 0.0000000000000000e+00  1.9585737365778288e-02 -2.8187749069767676e-04 0.0000000000000000e+00  1.0269648778748332e-02 -1.7289489514328998e-01 0.0000000000000000e+00  3.3109025306294462e-02 -2.8147217425732198e-02 0.0000000000000000e+00  -1.1497230923339531e-01 4.8151560413135699e-03 0.0000000000000000e+00  2.8081288135914130e-02 -1.0004614239779179e-01 0.0000000000000000e+00  4.1125464784282743e-02 -5.3690443179672177e-02 0.0000000000000000e+00  6.1720950541830882e-02 -3.2268038235121706e-02 0.0000000000000000e+00  5.4757607228973063e-02 -7.5073937044308073e-03 0.0000000000000000e+00  1.8448631705949733e-02 -1.3347286730642918e-01 0.0000000000000000e+00  -4.2436239614270101e-02 8.9535855677156093e-02 0.0000000000000000e+00  1.0007222922196940e-01 -1.6216353482719001e-01 0.0000000000000000e+00  -6.0452723090248787e-02 5.0801138224473900e-02 0.0000000000000000e+00  7.7436401661976878e-02 -5.7374528157028745e-02 0.0000000000000000e+00  -6.9131512197975933e-02 2.0986440942334053e-02 0.0000000000000000e+00  1.7241600498421819e-01 -1.9741190111983616e-02 0.0000000000000000e+00  2.1508844963484923e-02 -7.9803604826905964e-03 0.0000000000000000e+00  9.3176791642522960e-02 1.6933186567330901e-03 0.0000000000000000e+00  9.1724215294145789e-02 -3.3024402369217216e-03 0.0000000000000000e+00  5.2932409501004120e-02 -7.0415386857197077e-06 0.0000000000000000e+00  4.0665024328387249e-02 3.4153980499806546e-04 0.0000000000000000e+00  3.4295030282407483e-02 3.6312092198164525e-04 0.0000000000000000e+00  2.9407295041499876e-02 1.4958562477275156e-04 0.0000000000000000e+00  2.8377743739297492e-02 -8.3513606337442140e-05 0.0000000000000000e+00  2.8458227359637649e-02 -2.7573972884448118e-04 0.0000000000000000e+00  2.9668428300461031e-02 -5.2465844303383282e-04 0.0000000000000000e+00  3.4519802963150374e-02 -7.9653542707718396e-04 0.0000000000000000e+00  4.0874682999061947e-02 -8.7405789365969380e-04 0.0000000000000000e+00  5.3050957238083070e-02 -7.1867089981321702e-04 0.0000000000000000e+00  2.5482763600076057e-02 1.4060814993544120e-04 0.0000000000000000e+00  5.4124473391483935e-02 2.9860631939378554e-04 0.0000000000000000e+00  3.6643819442658293e-02 3.5684570104356240e-04 0.0000000000000000e+00  2.9117137944029443e-02 5.9681247906669696e-07 0.0000000000000000e+00  2.9270844202048899e-02 -3.7151299610353386e-04 0.0000000000000000e+00  3.6900082629665633e-02 -8.2670333687283098e-04 0.0000000000000000e+00  5.3649278331265586e-02 -1.0673092701632308e-03 0.0000000000000000e+00  4.4755844889384513e-02 3.4920406233236690e-04 0.0000000000000000e+00  3.1176628703006134e-02 3.3472248894442626e-04 0.0000000000000000e+00  2.8229067030358764e-02 -1.7810111492946840e-04 0.0000000000000000e+00  3.1423267125252903e-02 -7.2739662529593217e-04 0.0000000000000000e+00  4.4876168119747081e-02 -9.4604473832568233e-04 0.0000000000000000e+00  2.2940103315087050e-02 2.7265907979459858e-01 0.0000000000000000e+00  -1.0043642037443054e-01 9.6502559208656166e-05 0.0000000000000000e+00  2.7163505281921501e-02 2.2479035603455627e-02 0.0000000000000000e+00  1.5118656385507738e-02 1.8374208100373104e-01 0.0000000000000000e+00  5.5698852557790085e-02 7.0935533772294055e-03 0.0000000000000000e+00  6.1763238312092024e-02 3.1019671058133018e-02 0.0000000000000000e+00  4.0126007736421276e-02 5.1316266814687178e-02 0.0000000000000000e+00  2.9520267056178821e-02 1.0181361835423154e-01 0.0000000000000000e+00  2.3875145120370745e-02 7.7305445634385274e-03 0.0000000000000000e+00  1.6746006886747317e-01 1.6405116567663101e-02 0.0000000000000000e+00  -6.5662773084426154e-02 -1.8708637409750300e-02 0.0000000000000000e+00  7.1364161562917333e-02 5.0891747829682595e-02 0.0000000000000000e+00  -6.5403141006903670e-02 -5.6187443129304557e-02 0.0000000000000000e+00  1.0017280518168512e-01 1.5891804219117581e-01 0.0000000000000000e+00  -4.2983432098312818e-02 -8.6796845276621751e-02 0.0000000000000000e+00  1.8177633972276515e-02 1.2962730662838862e-01 0.0000000000000000e+00  2.2532160142367031e-03 -1.0765456796327269e-01 0.0000000000000000e+00  3.4231962685523265e-03 2.8612418551826967e-02 0.0000000000000000e+00  4.4614283587784487e-03 2.8423885917055962e-02 0.0000000000000000e+00  3.5024701502617659e-03 1.8429447234163152e-02 0.0000000000000000e+00  2.5264972366036823e-03 8.4030678384989076e-03 0.0000000000000000e+00  1.3821121468929475e-03 5.7871076768068038e-04 0.0000000000000000e+00  3.5485573149228938e-04 -6.8835788512433575e-03 0.0000000000000000e+00  -7.3547150267015400e-04 -1.5382270700424609e-02 0.0000000000000000e+00  -1.4855439428690372e-03 -2.0106809836841752e-02 0.0000000000000000e+00  -2.5937325095539247e-03 -2.9927741286674865e-02 0.0000000000000000e+00  -3.5502773142693849e-03 -4.1304335061366007e-02 0.0000000000000000e+00  -4.2318791321875561e-03 -5.4643568630354231e-02 0.0000000000000000e+00  -4.3955563081970088e-03 -6.7613703633002356e-02 0.0000000000000000e+00  -3.6895365097216557e-03 -8.1850080175308454e-02 0.0000000000000000e+00  -2.2537791142466634e-03 -9.4291533263007501e-02 0.0000000000000000e+00  -3.0617336393399982e-04 -1.0123427738178140e-01 0.0000000000000000e+00  -1.2263973559976134e-02 -6.1448534399984323e-02 0.0000000000000000e+00  4.7173876403141905e-03 -1.0445349563833398e-01 0.0000000000000000e+00  6.5339889732114404e-03 -9.8978198840052017e-02 0.0000000000000000e+00  7.6779071580301726e-03 -9.1583896330953138e-02 0.0000000000000000e+00  7.5252234843903995e-03 -8.7424278641601363e-02 0.0000000000000000e+00  6.7760442547334983e-03 -7.7863805021324936e-02 0.0000000000000000e+00  5.5798112372159193e-03 -6.5524920411744930e-02 0.0000000000000000e+00  4.2606435827905985e-03 -5.2296697365954416e-02 0.0000000000000000e+00  2.8913880358766033e-03 -4.1395467319002836e-02 0.0000000000000000e+00  1.5261359657390485e-03 -2.7390501140018734e-02 0.0000000000000000e+00  1.3459210336511852e-04 -1.3862511832936381e-02 0.0000000000000000e+00  -1.1906876633067248e-03 -5.1137099529377061e-04 0.0000000000000000e+00  -2.4507634578028940e-03 1.2704378721121599e-02 0.0000000000000000e+00  -3.5420121194363443e-03 2.5490938885879912e-02 0.0000000000000000e+00  -3.0064164590224156e-03 3.0993983218871653e-02 0.0000000000000000e+00  1.0908211461277628e-02 -4.8360554706665310e-02 0.0000000000000000e+00  -1.7219400526599610e-02 2.5300938781463983e-01 0.0000000000000000e+00  -6.4913338569873615e-03 5.9047152210860473e-02 0.0000000000000000e+00  -3.0659311310095145e-03 1.9059732164184974e-02 0.0000000000000000e+00  -5.4185771837311541e-04 -7.1469424488248383e-03 0.0000000000000000e+00  2.2308231324710257e-03 -3.4407572243577940e-02 0.0000000000000000e+00  4.9327186287551417e-03 -5.9028851190546613e-02 0.0000000000000000e+00  7.1897335449337442e-03 -8.4457374528904852e-02 0.0000000000000000e+00  7.0168103224980136e-03 -9.4888173695531708e-02 0.0000000000000000e+00  3.6319515175002059e-03 -1.0535286506445631e-01 0.0000000000000000e+00  -1.2058414690869646e-03 -9.9816720082908927e-02 0.0000000000000000e+00  -4.1090450312366222e-03 -7.4780872531071838e-02 0.0000000000000000e+00  -3.9197261176244442e-03 -4.7943112703191688e-02 0.0000000000000000e+00  -2.0616173171111511e-03 -2.4748785249863844e-02 0.0000000000000000e+00  -1.4699731827394927e-04 -1.0538728967089942e-02 0.0000000000000000e+00  1.9769958126747336e-03 5.0579524685602619e-03 0.0000000000000000e+00  4.1083120917264010e-03 2.4314603441894043e-02 0.0000000000000000e+00  7.7423005672665980e-03 5.9557010075046539e-02 0.0000000000000000e+00  -4.3921156084871229e-03 3.3627995255231025e-02 0.0000000000000000e+00  -1.8150456268640489e-03 6.1522879683761286e-03 0.0000000000000000e+00  8.2664247854742450e-04 -2.0746027129645329e-02 0.0000000000000000e+00  3.5799442187383129e-03 -4.7170137089052808e-02 0.0000000000000000e+00  6.1796094580192033e-03 -7.2053656913819639e-02 0.0000000000000000e+00  8.2146910449972209e-03 -8.9250095329448165e-02 0.0000000000000000e+00  5.7198394826536592e-03 -1.0192504115892734e-01 0.0000000000000000e+00  4.3456800764515657e-04 -1.0517571889625248e-01 0.0000000000000000e+00  -3.0251188251054929e-03 -8.8546420131001793e-02 0.0000000000000000e+00  -4.4980434466415876e-03 -6.0672122108088200e-02 0.0000000000000000e+00  -3.0825768761246651e-03 -3.5408450345101435e-02 0.0000000000000000e+00  -1.1662869508486590e-03 -1.8617417390630983e-02 0.0000000000000000e+00  8.9315969677831325e-04 -3.0177648895135913e-03 0.0000000000000000e+00  2.9322477824231235e-03 1.1532443127459045e-02 0.0000000000000000e+00  5.3903012253661217e-03 3.5381622236437281e-02 0.0000000000000000e+00  -2.3636657341790213e-02 3.5344895834678048e-04 0.0000000000000000e+00  -1.0960123388810781e-02 1.7162765571262020e-01 0.0000000000000000e+00  -3.0760403930425988e-02 2.6791441863232408e-02 0.0000000000000000e+00  1.0767888225799326e-01 -2.2314748775622800e-03 0.0000000000000000e+00  -2.7878711409566118e-02 9.9785547480519640e-02 0.0000000000000000e+00  -3.9504891594006407e-02 5.1708643492751186e-02 0.0000000000000000e+00  -6.1391723959837517e-02 3.1049489110092549e-02 0.0000000000000000e+00  -5.4470679095736045e-02 7.0886663530113523e-03 0.0000000000000000e+00  -1.6739849638407661e-02 1.2701699727707794e-01 0.0000000000000000e+00  4.1208269577879868e-02 -8.2740631664686676e-02 0.0000000000000000e+00  -9.6205868190485863e-02 1.5560125352436094e-01 0.0000000000000000e+00  6.2571211292279119e-02 -5.3632298586169608e-02 0.0000000000000000e+00  -6.9363397383954278e-02 5.0844066570792136e-02 0.0000000000000000e+00  6.7265380843768457e-02 -1.9854308106402686e-02 0.0000000000000000e+00  -1.6717893430110639e-01 1.7117703834225634e-02 0.0000000000000000e+00  -2.1916586959815368e-02 7.6424278193011818e-03 0.0000000000000000e+00  -8.9407713772667291e-02 -2.6996550730306779e-03 0.0000000000000000e+00  -8.7514212902256736e-02 2.5733041788827556e-03 0.0000000000000000e+00  -4.9884009807150402e-02 -5.0749154610790401e-04 0.0000000000000000e+00  -3.7367854349676433e-02 -6.8829609100614579e-04 0.0000000000000000e+00  -3.0417549097653467e-02 -6.2427673710436149e-04 0.0000000000000000e+00  -2.5291786205615695e-02 -3.6544414627970475e-04 0.0000000000000000e+00  -2.3853023156497358e-02 -1.3482291609768745e-04 0.0000000000000000e+00  -2.3769085203190918e-02 3.8167698246516354e-05 0.0000000000000000e+00  -2.5084151926598235e-02 2.5569668243913333e-04 0.0000000000000000e+00  -3.0102507772254320e-02 4.8984018781625361e-04 0.0000000000000000e+00  -3.7179659434160850e-02 5.1222117383922046e-04 0.0000000000000000e+00  -5.0141295814758499e-02 2.5117236103191977e-04 0.0000000000000000e+00  -2.7015489953797538e-02 -5.3903161744281555e-04 0.0000000000000000e+00  -5.2131874307965800e-02 -8.8754283339406291e-04 0.0000000000000000e+00  -3.3116898399019649e-02 -6.4772298704974347e-04 0.0000000000000000e+00  -2.4743762204244991e-02 -2.1811574770356769e-04 0.0000000000000000e+00  -2.4574623080315584e-02 1.1759559973313989e-04 0.0000000000000000e+00  -3.2851494046454460e-02 5.0199174705141598e-04 0.0000000000000000e+00  -5.1554703915259625e-02 5.3326301387395198e-04 0.0000000000000000e+00  -4.1840292455192558e-02 -7.5722747751846202e-04 0.0000000000000000e+00  -2.7215217438944436e-02 -5.6532028980785557e-04 0.0000000000000000e+00  -2.3590571150823577e-02 -4.7037535772128320e-05 0.0000000000000000e+00  -2.6839760297715582e-02 4.3846529058355908e-04 0.0000000000000000e+00  -4.1586985384292910e-02 5.4152187725446709e-04 0.0000000000000000e+00  9.2689936026399328e-02 -1.2881275008772510e-04 0.0000000000000000e+00  -2.5576778895750246e-02 -2.2773510472598971e-02 0.0000000000000000e+00  -8.1670012856945862e-03 -1.7182589279600274e-01 0.0000000000000000e+00  -5.5265004047001062e-02 -7.9479986380013874e-03 0.0000000000000000e+00  -6.0164568305170009e-02 -3.2163906539444148e-02 0.0000000000000000e+00  -3.9283568332354545e-02 -5.2374920279894141e-02 0.0000000000000000e+00  -2.6067898204021351e-02 -1.0030545636166259e-01 0.0000000000000000e+00  -2.6876774911676293e-02 -8.6041001736360551e-03 0.0000000000000000e+00  -1.5962705845432482e-01 -1.7358056398520730e-02 0.0000000000000000e+00  5.6108145311670257e-02 1.3818264931424898e-02 0.0000000000000000e+00  -7.0130528814014687e-02 -5.1906521781218226e-02 0.0000000000000000e+00  5.5280581630052512e-02 4.4427124460743858e-02 0.0000000000000000e+00  -9.3804588604499167e-02 -1.5516979556332283e-01 0.0000000000000000e+00  3.6613940432729530e-02 7.1471219035366962e-02 0.0000000000000000e+00  -1.4167565233708400e-02 -1.2463209593548832e-01 0.0000000000000000e+00  1.4354785774761032e-05 4.3680777593292519e-05 0.0000000000000000e+00  -2.5172555389073038e-05 -4.5833818828653387e-05 0.0000000000000000e+00  2.1358700339543243e-06 -1.5310888747206486e-06 0.0000000000000000e+00  8.7866709782103238e-06 -7.6985377205182354e-05 0.0000000000000000e+00  -1.6213620565682204e-05 7.1090084099785687e-05 0.0000000000000000e+00  -3.3705986129332580e-05 5.3048285382075675e-06 0.0000000000000000e+00  -1.0103714970559910e-05 -1.4485097358423116e-05 0.0000000000000000e+00  8.6345873572201516e-06 1.2768358407782928e-05 0.0000000000000000e+00  8.1130836334281130e-06 -1.2230623738835758e-05 0.0000000000000000e+00  -8.3933183244063977e-06 1.2271346500304237e-05 0.0000000000000000e+00  -1.9881773287427142e-05 7.3534198161709160e-05 0.0000000000000000e+00  -9.6627863636742939e-06 3.9437690231198066e-05 0.0000000000000000e+00  -2.1434353108678607e-05 5.8530974559589899e-05 0.0000000000000000e+00  6.4906386944806049e-08 2.6496437101030919e-06 0.0000000000000000e+00  7.8391653271103908e-06 2.9016842143368530e-05 0.0000000000000000e+00  1.1673340159003851e-08 -6.6959179858554923e-07 0.0000000000000000e+00  -9.6896181510525999e-05 6.3076240527044480e-05 0.0000000000000000e+00  -2.2037901313406278e-04 -3.1058189916118549e-04 0.0000000000000000e+00  -8.8702093315081023e-05 -1.1648132849477683e-05 0.0000000000000000e+00  -8.4887711040617243e-07 -6.9066393356480180e-05 0.0000000000000000e+00  1.9755082009139378e-05 3.9430138660804105e-05 0.0000000000000000e+00  1.9896018802528830e-06 -2.7701345349644157e-06 0.0000000000000000e+00  -1.7562780195671271e-06 8.1516103299015511e-06 0.0000000000000000e+00  1.9192504009081203e-05 -7.6194573657472825e-05 0.0000000000000000e+00  5.4232239963006258e-06 -3.1695053049755737e-05 0.0000000000000000e+00  -3.5816551734846975e-08 9.4194589289268153e-07 0.0000000000000000e+00  6.9273311617238807e-06 3.7412999026374173e-05 0.0000000000000000e+00  -1.9837215581598857e-05 -7.7925548202796861e-05 0.0000000000000000e+00  6.1929778981291021e-06 5.1255892189109697e-06 0.0000000000000000e+00  1.7726098844824496e-05 7.5177220259936702e-05 0.0000000000000000e+00  7.9258344598292954e-06 7.0764154759379928e-05 0.0000000000000000e+00  -3.2402488487458958e-05 4.6568692012628792e-05 0.0000000000000000e+00  -1.5940071470658723e-05 -5.0046314718744001e-05 0.0000000000000000e+00  -2.6059693019684793e-05 -8.0552397729184017e-06 0.0000000000000000e+00  1.5090100176002096e-05 -4.8903099107384208e-05 0.0000000000000000e+00  -9.0978936915771605e-06 -4.0133676271752008e-05 0.0000000000000000e+00  2.1466869850815767e-06 -2.7875779084150180e-05 0.0000000000000000e+00  3.3675500258432815e-07 6.1716931055476657e-06 0.0000000000000000e+00  -1.4018331687945583e-05 -7.1546248791643248e-05 0.0000000000000000e+00  2.0615471762504528e-05 3.4785251157758179e-05 0.0000000000000000e+00  -5.8476709088