<?xml version="1.0"?>
<VTKFile type="UnstructuredGrid"  version="0.1"  >
<UnstructuredGrid>
<Piece  NumberOfPoints="4153" NumberOfCells="8064">
<Points>
<DataArray  type="Float64"  NumberOfComponents="3"  format="ascii">-0.4158300201032685 -0.5787319218089126 0  -0.04353056658204696 -0.7083137139595197 0  -0.0938538724769943 -0.704201147686642 0  -0.1434719319256795 -0.6958904584967327 0  -0.1921318228771157 -0.683990283250395 0  -0.2399899700355037 -0.6697129330691743 0  -0.2865399004058166 -0.6508232473836877 0  -0.331370309301768 -0.628846217922034 0  -0.3744656090304834 -0.6047167309536521 0  0.007071196238962633 -0.7078693484815504 0  -0.4557231565204216 -0.5531355195001034 0  -0.4946660886631702 -0.527760907472492 0  -0.532730024009717 -0.5028786026595428 0  -0.5700323715526271 -0.478855978226151 0  -0.6068814268752497 -0.4561790689244311 0  -0.6433273580379688 -0.4349676563006636 0  -0.6795173874973562 -0.4161071726067975 0  0.6663557230981256 -0.4220636939446554 0  0.05747413093514465 -0.7029077826014997 0  0.1072224142147701 -0.6936134680188152 0  0.1559209328303332 -0.6803927303622431 0  0.2032673837564556 -0.6637615342295893 0  0.249141080959909 -0.644642929513513 0  0.2935621148244403 -0.6236540478446833 0  0.3366007786776848 -0.6013775783175196 0  0.3783486063835345 -0.5783521973058084 0  0.4190217694845016 -0.5551244137758033 0  0.4587779212923153 -0.532048453475468 0  0.4977699072538257 -0.5094088447818765 0  0.5361078133070138 -0.4875365967558885 0  0.5739229131137268 -0.466555471449005 0  0.6112934014695254 -0.4469031502058395 0  0.6483863722496179 -0.4293304477346049 0  0.6297169673504164 -0.4381219681019433 0  -0.6612320530357837 -0.4254632874497306 0  -0.5885118107018067 -0.4674180874699876 0  -0.5137888666178794 -0.5152423057324005 0  -0.4358601383739385 -0.5658612317042679 0  -0.3531343725367239 -0.6169133552854821 0  -0.2634755447835411 -0.6607266159590135 0  -0.1679278845881527 -0.6904029633558109 0  -0.06875679599804867 -0.7068112641209648 0  0.5926386445602008 -0.4566776822463108 0  0.1317237402062864 -0.6874573782537649 0  0.226387718200158 -0.6544749385766697 0  0.3152434829521156 -0.6126522678638868 0  0.3988129153710182 -0.5667448858697984 0  0.4783564515250543 -0.5206738280943942 0  0.5550875276065517 -0.4769538675366897 0  0.03232676559417498 -0.7059474073529221 0  -0.6970194754202024 -0.4081659970107355 0  0.5169983031019552 -0.4983488214778342 0  0.4390036392632437 -0.5435550192948009 0  0.3576210500607749 -0.5899041376748613 0  0.2715303044287089 -0.6343511616272031 0  0.1797827852390276 -0.6724561856598887 0  0.08245691841944153 -0.6987814352278765 0  -0.01823308254303175 -0.7086680284866067 0  -0.1187721597024681 -0.7005452295010179 0  -0.2160830131847312 -0.677243894220505 0  -0.3091650523857785 -0.6401212566763159 0  -0.3954849766030805 -0.5919907552791073 0  -0.4753147869377815 -0.5404187054600342 0  -0.5514656177000363 -0.4907126271884815 0  -0.6251148007945022 -0.4455224969436369 0  0.8119767083788452 -0.2360126545380256 0  0.7234634476747804 -0.3970752750561254 0  0.7721156498973816 -0.3554491420895105 0  0.8033372069009753 -0.2999575568319361 0  0.6953198646043547 -0.4101030048429927 0  0.7487307742162913 -0.3774898012280339 0  0.7862920374382573 -0.3265951064160773 0  0.8067729601318488 -0.2676053528810858 0  0.6810359650280254 -0.41703650133901 0  0.7093215110382801 -0.4030192450647439 0  0.7361777678559502 -0.3874595216468238 0  0.7600352756287919 -0.3656810698144481 0  0.7806990980433861 -0.3418358526260122 0  0.7941540910126224 -0.3131077947541305 0  0.8044111369856165 -0.2835784652635047 0  0.8088325676867961 -0.2516954878850398 0  0.8113456856722473 -0.2153776056436995 0  0.816293814689989 0.2413255798053323 0  0.8159817333409148 0.2004464505714093 0  0.8169995530648149 0.1593845077749112 0  0.8185786188208689 0.1180110487581612 0  0.8204275910589489 0.07621877366844731 0  0.8210686140779699 0.03407733834496993 0  0.8205676491236625 -0.008149723440992076 0  0.8189271754419376 -0.05028357995191823 0  0.8161480182548821 -0.09205476133207478 0  0.8136780200637402 -0.1334270043160952 0  0.8118030589535929 -0.1744902310389636 0  0.8175311944497728 0.2619172943239571 0  0.8159202323015462 0.220895706427054 0  0.8177516161748921 0.1387418797070645 0  0.8208914181152688 0.05517095618530506 0  0.8198933522885568 -0.02924025006489369 0  0.8148768966547716 -0.1127859806638119 0  0.811351439262235 -0.1949464133052957 0  0.816397081779768 0.179948856630747 0  0.8195644514807822 0.09718878994707407 0  0.8209564225678351 0.01296345986111367 0  0.8175802273616724 -0.07124128278189379 0  0.8126449178394533 -0.1539925699253347 0  0.6782582318196682 0.4508230701891749 0  0.8106739210376064 0.326109139668075 0  0.7811374031275716 0.3823938045505135 0  0.7340361675037803 0.4250479815379543 0  0.813388517437607 0.2936425246069813 0  0.7948096764174656 0.3533439176671316 0  0.7585452758803403 0.4048251608068177 0  0.7064889074305086 0.4384315337852547 0  0.8150498101322469 0.2776920122725227 0  0.8115080046340371 0.3096915899171858 0  0.8021948943388579 0.3395689172257974 0  0.7892007743034686 0.3684895373123989 0  0.7694483805251687 0.3928201999442953 0  0.7463552729789171 0.4150655222212245 0  0.7201900733656444 0.4312289197823795 0  0.6925056768080152 0.445420910377665 0  -0.03357941707436909 0.7848272046265945 0  0.6250353152531285 0.4781942089989448 0  0.588932433383803 0.499950727230735 0  0.5524185730662917 0.5233374465978498 0  0.5153965818087359 0.5481783081497542 0  0.477593389858968 0.5740527666547691 0  0.4388513116591949 0.6006275002406616 0  0.3989784644078879 0.6275719034670331 0  0.3577261399609976 0.6545683545185136 0  0.3147916622098991 0.680781038175164 0  0.2700591174765223 0.7056337332294483 0  0.2234319591237147 0.7284263173875075 0  0.1748724029320101 0.7485261653559521 0  0.124498917004747 0.7646975333738724 0  0.07266297276439583 0.7763842031190958 0  0.01981736543357117 0.7830678917638207 0  0.6609122827949715 0.4589000257551411 0  -0.08685297327525565 0.7803476182719171 0  -0.1392440991310658 0.7703503649320381 0  -0.1901812404513515 0.7554277594504276 0  -0.2390238496173799 0.7354894788534632 0  -0.2858524977828071 0.7136350256418181 0  -0.3308063602521779 0.6898013235426952 0  -0.3739908883029718 0.6645747383701457 0  -0.4154840848278876 0.6383383793879648 0  -0.4556269165660748 0.6122748595774631 0  -0.4947068778766404 0.5865350390694969 0  -0.5328917723743348 0.5613879795013339 0  -0.5703357932344598 0.5371092694255131 0  -0.6071619779755673 0.5139402629745921 0  -0.6435367602844833 0.4923558306224051 0  -0.6796625979274143 0.4731683916588439 0  -0.6971351459413042 0.4651644326705205 0  -0.6614429398552961 0.4827128584115025 0  -0.58882254318337 0.525403505964901 0  -0.5139014590258567 0.5738750343538835 0  -0.4356905954266544 0.6252750857168209 0  -0.3526083448295376 0.6773064483837459 0  -0.2626723968277775 0.7248567583265716 0  -0.1649176834126888 0.7633650857020859 0  -0.06027897239241298 0.7832777752665009 0  0.04633923547736313 0.7803984100353273 0  0.1498932338059221 0.7571136564517483 0  0.2469832986239931 0.7173329804060784 0  0.3364707454733173 0.6678022325718141 0  0.4190662911488111 0.6140737108028239 0  0.4965959938628158 0.5610104045441231 0  0.5707344018710889 0.5115159159037211 0  0.6427979977194708 0.4684652055355156 0  -0.6253766466879321 0.5030754266000226 0  -0.5516958084832274 0.5491325716184878 0  -0.4752892786347431 0.599347953771254 0  -0.3949668461837121 0.6515335655491962 0  -0.3085562307772148 0.7019235794583094 0  -0.2149824845896673 0.7460274974046726 0  -0.1131960366429964 0.7759922909819759 0  -0.006806643537046079 0.7846561782048745 0  0.09873828806190432 0.7711366453954528 0  0.1994125280086612 0.7389227385541384 0  0.2926581833518703 0.6934228202706179 0  0.3785586136496158 0.6411130500983866 0  0.4583509820717819 0.587276429022826 0  0.5339962150907334 0.53559601510177 0  0.6070034659087387 0.4889946506170763 0  -0.8382126061877166 0.276510591119995 0  -0.753133583002456 0.4391977997833733 0  -0.800591547120697 0.3966613279445257 0  -0.8306188532410186 0.3405969675209888 0  -0.7254958992487517 0.4526522403437609 0  -0.7778107561765811 0.4190591714730148 0  -0.8143226938191596 0.3676005235584905 0  -0.8335919686405585 0.3081698806622998 0  -0.7114700834332894 0.4597605998283996 0  -0.7392402847350423 0.4453834703058918 0  -0.765540940503013 0.4292683559463348 0  -0.7888033698353225 0.40705797797599 0  -0.8088123573606099 0.3828303404553332 0  -0.8218686629995101 0.3539358518962427 0  -0.8315155156550544 0.324189571281431 0  -0.8354218401601868 0.2922407568134136 0  -0.8372616985316699 0.2559038072039048 0  -0.8377253637492711 -0.2004513102788956 0  -0.8376964094285292 -0.1596122252507284 0  -0.8390605184109146 -0.1185927493713935 0  -0.8410098480622858 -0.07725907502465018 0  -0.843252233328422 -0.03551523401494001 0  -0.8443350754527326 0.006585670128228681 0  -0.8442975584402634 0.04877633357237232 0  -0.8431456638700727 0.0908803587736919 0  -0.8408461632923703 0.1326382783047783 0  -0.8388097013923294 0.173991857265012 0  -0.8373404283079663 0.2150369634569756 0  -0.8387426506699222 -0.2210475589796944 0  -0.8374867514319521 -0.180042922102059 0  -0.8399991765783827 -0.0979711654783301 0  -0.8439359019607344 -0.01448794501314316 0  -0.8438623435306818 0.0698510021996339 0  -0.8397930014011953 0.1533591366054809 0  -0.8370744215775857 0.2354803390790689 0  -0.8382815273958097 -0.1391365999740338 0  -0.8421810570128777 -0.05646054155171973 0  -0.8444517962398154 0.02768086218617141 0  -0.8420493567730266 0.111830575721436 0  -0.8379812134077838 0.1945477106133711 0  -0.8311257031314951 -0.285072570325543 0  -0.8008504471284172 -0.340890967452915 0  -0.7531983640084412 -0.3830191051581803 0  -0.8341823095067873 -0.2526945338358664 0  -0.8147996770445064 -0.312029305366707 0  -0.7779861577387175 -0.3631537283794305 0  -0.7254328871271495 -0.3961527793801046 0  -0.8360022374126472 -0.2367731688841505 0  -0.832094847964
[...]
<PointData  Vectors="f_3170"> 
<DataArray  type="Float64"  Name="f_3170"  NumberOfComponents="3" format="ascii">7.0137591464934420e-03 1.0840936276400722e-02 0.0000000000000000e+00  1.3177802451165778e-03 3.5769361075670664e-02 0.0000000000000000e+00  4.6892827618464344e-03 3.7392455752265526e-02 0.0000000000000000e+00  7.8851365805353915e-03 3.8167552444598518e-02 0.0000000000000000e+00  9.1125088207141738e-03 3.3286840896412678e-02 0.0000000000000000e+00  1.1084630165939283e-02 3.1560931071811273e-02 0.0000000000000000e+00  1.8282717464846568e-02 4.0581300392858004e-02 0.0000000000000000e+00  1.9469508125654858e-02 3.6961219843910709e-02 0.0000000000000000e+00  1.6574567987804985e-02 2.8114565159748684e-02 0.0000000000000000e+00  -1.9001277651805126e-03 3.5327537057894064e-02 0.0000000000000000e+00  1.0296668857391281e-02 1.5968188273563073e-02 0.0000000000000000e+00  8.1485757440302418e-03 1.2452985206465718e-02 0.0000000000000000e+00  6.4966527042521075e-03 9.9807807344368272e-03 0.0000000000000000e+00  8.8539352105730367e-03 1.4122274427868998e-02 0.0000000000000000e+00  8.2299355601898432e-03 1.3868920346028732e-02 0.0000000000000000e+00  8.7264958926306108e-03 1.6058242478281748e-02 0.0000000000000000e+00  1.6146158549073157e-03 3.4831342832566149e-03 0.0000000000000000e+00  -2.8862753073998222e-02 7.4563930404868223e-02 0.0000000000000000e+00  -5.1213404256618793e-03 3.5815080010368754e-02 0.0000000000000000e+00  -8.4996820644888393e-03 3.6975773048715799e-02 0.0000000000000000e+00  -1.1832888776927635e-02 3.7920911608976121e-02 0.0000000000000000e+00  -1.4203330143557548e-02 3.6832095854937012e-02 0.0000000000000000e+00  -1.5213008094501166e-02 3.4132361359848158e-02 0.0000000000000000e+00  -1.4881517694952929e-02 2.9983535167569481e-02 0.0000000000000000e+00  -1.3710086842479556e-02 2.5552629063515870e-02 0.0000000000000000e+00  -1.1921243267643681e-02 2.1206529674353748e-02 0.0000000000000000e+00  -9.9443221462527966e-03 1.7234256281502654e-02 0.0000000000000000e+00  -8.0599434944521632e-03 1.3862789725668944e-02 0.0000000000000000e+00  -5.7285749284693944e-03 9.9184383581839633e-03 0.0000000000000000e+00  -5.2948440997547383e-03 9.4375591733350372e-03 0.0000000000000000e+00  -6.2463338011822783e-03 1.1683215684044115e-02 0.0000000000000000e+00  -7.9675975183909342e-03 1.6357378408637956e-02 0.0000000000000000e+00  1.9118688684616775e-03 -3.7162714603587890e-03 0.0000000000000000e+00  2.9344015298805367e-03 -6.7033697818710547e-03 0.0000000000000000e+00  3.3913850807000961e-03 6.2875709838338496e-03 0.0000000000000000e+00  4.0982949763736145e-03 6.5947393800903581e-03 0.0000000000000000e+00  7.5914207178748713e-03 1.1613995595663855e-02 0.0000000000000000e+00  1.3139151022009731e-02 2.0473648783145344e-02 0.0000000000000000e+00  1.6371043763250128e-02 2.9230972921167841e-02 0.0000000000000000e+00  1.6203648386273112e-02 4.0007131659653757e-02 0.0000000000000000e+00  9.3617743290338989e-03 3.8417101675789794e-02 0.0000000000000000e+00  2.9947611595867790e-03 3.6634253671383475e-02 0.0000000000000000e+00  1.0805704930908515e-03 -2.2814811048860605e-03 0.0000000000000000e+00  -1.0156082304519129e-02 3.7393901669761698e-02 0.0000000000000000e+00  -1.5010745135492280e-02 3.6025992456643757e-02 0.0000000000000000e+00  -1.4371062840870225e-02 2.7769268163317932e-02 0.0000000000000000e+00  -1.0876754396898676e-02 1.9048236081767710e-02 0.0000000000000000e+00  -6.9747672339194088e-03 1.2012422674484508e-02 0.0000000000000000e+00  -1.7019765370220419e-03 3.0205894289078799e-03 0.0000000000000000e+00  -3.4867762022712905e-03 3.5403255399488576e-02 0.0000000000000000e+00  3.8755952407275557e-02 9.3323631149147795e-02 0.0000000000000000e+00  -5.7860393374020635e-03 1.0140933972696775e-02 0.0000000000000000e+00  -8.9091400480284123e-03 1.5350397381140810e-02 0.0000000000000000e+00  -1.2838919220225011e-02 2.3277812603024747e-02 0.0000000000000000e+00  -1.5254774442111336e-02 3.2297760842417318e-02 0.0000000000000000e+00  -1.3579322473629630e-02 3.8668233439293799e-02 0.0000000000000000e+00  -6.7855675676643063e-03 3.6305528857380455e-02 0.0000000000000000e+00  -3.0843576710177720e-04 3.5236626932765566e-02 0.0000000000000000e+00  6.5047274057139911e-03 3.8869810317971487e-02 0.0000000000000000e+00  6.5046775005095153e-03 2.1842212635494931e-02 0.0000000000000000e+00  1.7493827524001256e-02 3.5686438557052280e-02 0.0000000000000000e+00  2.4566279864155823e-02 3.9241526323337744e-02 0.0000000000000000e+00  8.8851378498137276e-03 1.3636043109916972e-02 0.0000000000000000e+00  6.0604891475959360e-03 9.4019519190589353e-03 0.0000000000000000e+00  4.3035455891320422e-04 5.6407996334606524e-04 0.0000000000000000e+00  3.7495196799587252e-02 -2.2499789778726085e-03 0.0000000000000000e+00  6.1891067145701549e-02 -9.9486900882033047e-02 0.0000000000000000e+00  6.6632172321460709e-02 -5.3602609295559801e-02 0.0000000000000000e+00  -1.3207810083492022e-01 4.9447153046916097e-02 0.0000000000000000e+00  3.1660301507299711e-02 -6.6054701578600925e-02 0.0000000000000000e+00  1.7923845985997409e-02 -1.8210817270101525e-02 0.0000000000000000e+00  1.5725386319688217e-01 -7.2604087671106765e-02 0.0000000000000000e+00  2.8900429044442649e-02 -4.0297672788394238e-03 0.0000000000000000e+00  4.2054110236084241e-02 -9.9626152748233082e-02 0.0000000000000000e+00  -5.5922443164811833e-02 1.1469387832796153e-01 0.0000000000000000e+00  3.7585980701244574e-02 -5.3467673669999861e-02 0.0000000000000000e+00  -2.5297336166733551e-02 2.2381686007248065e-02 0.0000000000000000e+00  -1.4635661973398567e-01 7.5734035143197473e-02 0.0000000000000000e+00  -1.7970095714242582e-01 1.0374659796814797e-01 0.0000000000000000e+00  1.8308250737956461e-01 -2.1003968711334801e-02 0.0000000000000000e+00  1.2621040580783453e-02 -2.5935797296614506e-03 0.0000000000000000e+00  7.6258532497102752e-02 4.5685942117804307e-04 0.0000000000000000e+00  5.5497238642461623e-02 -1.9031404836515069e-03 0.0000000000000000e+00  2.1330816994968839e-02 2.4471141624157105e-04 0.0000000000000000e+00  1.3150437566064708e-02 4.3096245421305222e-04 0.0000000000000000e+00  1.0452434386202492e-02 4.5422010491335499e-04 0.0000000000000000e+00  1.0862538982866949e-02 3.4555943704398759e-04 0.0000000000000000e+00  1.1078705776995646e-02 1.7681250366245130e-05 0.0000000000000000e+00  1.1097978927914512e-02 -2.7966356050183953e-04 0.0000000000000000e+00  1.0727878912459589e-02 -5.9048811296839063e-04 0.0000000000000000e+00  1.0675887641161747e-02 -6.9227604961223806e-04 0.0000000000000000e+00  1.4038536073958593e-02 -7.5793957160696674e-04 0.0000000000000000e+00  2.5579389065668361e-02 -7.9967709717040231e-04 0.0000000000000000e+00  3.0707498473226440e-02 1.1739261137744584e-03 0.0000000000000000e+00  2.4823688316504156e-02 -2.0149652308146438e-04 0.0000000000000000e+00  1.1047182585686634e-02 4.2174194535027034e-04 0.0000000000000000e+00  1.1301358203176336e-02 1.7029343888827706e-04 0.0000000000000000e+00  1.1436293388601958e-02 -4.4511381003663826e-04 0.0000000000000000e+00  1.1548671178287192e-02 -6.9038052589202924e-04 0.0000000000000000e+00  2.5637352779961344e-02 -2.9568760611749532e-04 0.0000000000000000e+00  1.5749668004704450e-02 3.8664931855975776e-04 0.0000000000000000e+00  1.0593528711293126e-02 4.6555504988590502e-04 0.0000000000000000e+00  1.1056112482181442e-02 -1.3133416308831191e-04 0.0000000000000000e+00  9.8622108992468347e-03 -6.5511648807266981e-04 0.0000000000000000e+00  1.6513093853868736e-02 -7.4977958911203553e-04 0.0000000000000000e+00  -3.4776217564889481e-02 -8.0782817476734811e-02 0.0000000000000000e+00  -5.3328293084558609e-02 -1.8536846901154050e-02 0.0000000000000000e+00  6.1468923572874118e-02 4.4973657568575159e-02 0.0000000000000000e+00  5.8554144480316886e-02 8.8839425313271256e-02 0.0000000000000000e+00  3.5535359658413937e-02 3.9346919130180229e-03 0.0000000000000000e+00  9.4403177010487838e-02 4.1868810240112776e-02 0.0000000000000000e+00  2.2599501998779841e-02 2.2419272841501445e-02 0.0000000000000000e+00  2.8160204593945842e-02 5.6396407123497985e-02 0.0000000000000000e+00  2.7222914946433835e-02 3.7788376772795963e-03 0.0000000000000000e+00  1.2140959935557159e-01 1.0918498480772131e-02 0.0000000000000000e+00  -8.0634820013995342e-02 -4.1444951852578134e-02 0.0000000000000000e+00  -7.0308630811727571e-02 -3.5114514355581161e-02 0.0000000000000000e+00  -1.6184815206554647e-02 -1.3032551453624839e-02 0.0000000000000000e+00  3.7892140239561618e-02 4.9800970647801278e-02 0.0000000000000000e+00  -4.4467745123392306e-02 -8.6213826566338067e-02 0.0000000000000000e+00  3.9148278635921720e-02 8.7995372870806735e-02 0.0000000000000000e+00  6.4522728619456518e-04 -2.3893238703894933e-02 0.0000000000000000e+00  -9.6560294491705636e-03 -1.7180217397845653e-02 0.0000000000000000e+00  -8.9524445272862428e-03 -1.4525892021342543e-02 0.0000000000000000e+00  -8.9727513669626661e-03 -1.3726218075114094e-02 0.0000000000000000e+00  -7.9835828252197028e-03 -1.1752362103147361e-02 0.0000000000000000e+00  -9.4554355308878388e-03 -1.3768688974981774e-02 0.0000000000000000e+00  -1.1371630301245335e-02 -1.6671664442625068e-02 0.0000000000000000e+00  -1.3223386436661077e-02 -1.9813845309523809e-02 0.0000000000000000e+00  -1.6213456732316792e-02 -2.5581829558530503e-02 0.0000000000000000e+00  -1.7250084001426937e-02 -2.9511199109325384e-02 0.0000000000000000e+00  -1.7273487723416459e-02 -3.3007807410531310e-02 0.0000000000000000e+00  -1.5494385841328034e-02 -3.4168988101654078e-02 0.0000000000000000e+00  -1.2793023229188053e-02 -3.4816860645267560e-02 0.0000000000000000e+00  -8.7306332590387607e-03 -3.1842870949584545e-02 0.0000000000000000e+00  -5.0334226657532200e-03 -2.8476341267694834e-02 0.0000000000000000e+00  -2.1043201187773749e-03 -2.6335479714110120e-02 0.0000000000000000e+00  -2.3573812863603742e-03 -4.9820984138535494e-03 0.0000000000000000e+00  4.1013917071088674e-03 -2.9681507251608667e-02 0.0000000000000000e+00  9.3404623530890223e-03 -3.8281564445878685e-02 0.0000000000000000e+00  1.4741096395214443e-02 -4.2446404936318821e-02 0.0000000000000000e+00  1.3000419648358992e-02 -2.9429490268460909e-02 0.0000000000000000e+00  1.7043624763821250e-02 -3.4112244877739006e-02 0.0000000000000000e+00  1.6703784974605437e-02 -2.9913360135089620e-02 0.0000000000000000e+00  1.5669823844847518e-02 -2.5768767315371893e-02 0.0000000000000000e+00  1.1531102370213859e-02 -1.7884891939401962e-02 0.0000000000000000e+00  1.0392673055342038e-02 -1.5873663727074806e-02 0.0000000000000000e+00  8.4488176425806649e-03 -1.2807586572297063e-02 0.0000000000000000e+00  6.7914476460601610e-03 -1.0377899944185349e-02 0.0000000000000000e+00  6.1097008982907578e-03 -9.5792482216724741e-03 0.0000000000000000e+00  8.5031533924864924e-03 -1.4040682198310799e-02 0.0000000000000000e+00  1.0326968564625262e-02 -1.8697175355552216e-02 0.0000000000000000e+00  1.9016186853830391e-03 -4.2738724223595499e-03 0.0000000000000000e+00  3.9732116342213950e-02 -9.3067811333841843e-02 0.0000000000000000e+00  1.5798808264604097e-03 -2.6215195275859308e-03 0.0000000000000000e+00  3.1787806449422914e-03 -5.0036435939443593e-03 0.0000000000000000e+00  7.4465218810551527e-03 -1.1307343971970338e-02 0.0000000000000000e+00  1.1947083589590910e-02 -1.8401539637102945e-02 0.0000000000000000e+00  1.5555016353318353e-02 -2.6619255884300037e-02 0.0000000000000000e+00  1.6386528679627005e-02 -3.5076827340286193e-02 0.0000000000000000e+00  1.0781407840467733e-02 -3.6683354383318136e-02 0.0000000000000000e+00  2.2574576886242358e-03 -2.6863302289747329e-02 0.0000000000000000e+00  -3.4188283927977159e-03 -2.6935089979846189e-02 0.0000000000000000e+00  -1.0677118037337771e-02 -3.3235522355449208e-02 0.0000000000000000e+00  -1.6684300015892831e-02 -3.4131661877701572e-02 0.0000000000000000e+00  -1.6563106164501903e-02 -2.7130939237619049e-02 0.0000000000000000e+00  -1.2610640992530977e-02 -1.8663130371028840e-02 0.0000000000000000e+00  -8.7809927687755567e-03 -1.2830489668494807e-02 0.0000000000000000e+00  -5.0874770760601339e-03 -7.8858350736191740e-03 0.0000000000000000e+00  -3.2874876215873835e-03 -5.8667044404006469e-03 0.0000000000000000e+00  5.9282270831323674e-04 -7.9460768177242044e-04 0.0000000000000000e+00  5.7875470507658061e-03 -8.9207392430490258e-03 0.0000000000000000e+00  9.3527425722990561e-03 -1.4200602889272360e-02 0.0000000000000000e+00  1.4585802477392799e-02 -2.3088854243760986e-02 0.0000000000000000e+00  1.6610793782868824e-02 -3.1333695163791954e-02 0.0000000000000000e+00  2.5733984243508826e-02 -6.3375715016782755e-02 0.0000000000000000e+00  6.0827901342875718e-03 -3.1791142670796815e-02 0.0000000000000000e+00  -7.3022220574776452e-04 -2.1839451788928526e-02 0.0000000000000000e+00  -6.7317509114631089e-03 -2.9819210056288185e-02 0.0000000000000000e+00  -1.5373702197496588e-02 -3.7171963098758740e-02 0.0000000000000000e+00  -1.7435329499522367e-02 -3.1391842534873537e-02 0.0000000000000000e+00  -1.4918010851576716e-02 -2.2803849263070258e-02 0.0000000000000000e+00  -1.0375242792988862e-02 -1.5126553961141811e-02 0.0000000000000000e+00  -7.1075498566831605e-03 -1.0585749074915128e-02 0.0000000000000000e+00  -1.3584255841397072e-03 -2.0828578194221664e-03 0.0000000000000000e+00  -3.2468463938105693e-02 1.4790192821699901e-03 0.0000000000000000e+00  -6.2449014144053377e-02 9.5268785082715912e-02 0.0000000000000000e+00  -6.5885230628737856e-02 4.9680357419328573e-02 0.0000000000000000e+00  9.2431681559989695e-02 -3.2780225469774694e-02 0.0000000000000000e+00  -3.0592420912664099e-02 6.0880757533054740e-02 0.0000000000000000e+00  -1.9999617199279614e-02 1.9731626958156487e-02 0.0000000000000000e+00  -1.2402909700549865e-01 5.5239439490724573e-02 0.0000000000000000e+00  -3.1585172775037369e-02 3.8709959839776879e-03 0.0000000000000000e+00  -4.2418009952166894e-02 9.4548066681182527e-02 0.0000000000000000e+00  5.4652036859162069e-02 -1.0646623099712814e-01 0.0000000000000000e+00  -3.8151006020615275e-02 5.1189950363434662e-02 0.0000000000000000e+00  2.4156939465182922e-02 -2.0745236547851400e-02 0.0000000000000000e+00  1.0739056520699732e-01 -5.3580849727794103e-02 0.0000000000000000e+00  1.3167203953862375e-01 -7.1257315182540026e-02 0.0000000000000000e+00  -1.5353234143751673e-01 1.5289752454405529e-02 0.0000000000000000e+00  -1.8636130600793104e-02 3.1114436075959958e-03 0.0000000000000000e+00  -6.8525926530366446e-02 -1.3826990452612425e-03 0.0000000000000000e+00  -6.5119835931016043e-02 1.5463060155443803e-03 0.0000000000000000e+00  -2.2885313317895672e-02 -4.3871977663344078e-04 0.0000000000000000e+00  -1.3265509884989497e-02 -5.5169283282207476e-04 0.0000000000000000e+00  -1.0256579818315698e-02 -5.3713193109863032e-04 0.0000000000000000e+00  -1.0479765261446922e-02 -4.3951233502407275e-04 0.0000000000000000e+00  -1.0709692490622801e-02 -1.3141408786975905e-04 0.0000000000000000e+00  -1.0665134173916097e-02 1.4935167827259422e-04 0.0000000000000000e+00  -1.0350889380081796e-02 4.4792837352891391e-04 0.0000000000000000e+00  -1.0120924966067306e-02 5.4794621216390288e-04 0.0000000000000000e+00  -1.3095805293535207e-02 5.7416990348891684e-04 0.0000000000000000e+00  -2.3020888390399164e-02 5.0317781690110649e-04 0.0000000000000000e+00  -3.2533055254048968e-02 -1.4765441248342816e-03 0.0000000000000000e+00  -2.5172704612428237e-02 2.2014305940407153e-05 0.0000000000000000e+00  -1.1015286902203788e-02 -5.1990258546939642e-04 0.0000000000000000e+00  -1.1011829985906586e-02 -2.8222987197648380e-04 0.0000000000000000e+00  -1.0946283283986374e-02 2.9877742786632041e-04 0.0000000000000000e+00  -1.0859849366890204e-02 5.3528365075669322e-04 0.0000000000000000e+00  -2.4556754466220555e-02 4.5669344330300898e-05 0.0000000000000000e+00  -1.5880637090287784e-02 -5.2406788990487800e-04 0.0000000000000000e+00  -9.9927435260540372e-03 -5.3454069133550611e-04 0.0000000000000000e+00  -1.0660160148269470e-02 9.5041368876712836e-06 0.0000000000000000e+00  -9.7533772788915112e-03 5.3522508079565170e-04 0.0000000000000000e+00  -1.5575749440153107e-02 5.5361749009583941e-04 0.0000000000000000e+00  7.8254029006821019e-02 2.8160759036797309e-02 0.0000000000000000e+00  -6.3232992383998710e-02 -4.8268156539976619e-02 0.0000000000000000e+00  -6.0699629664044054e-02 -9.4557316260251711e-02 0.0000000000000000e+00  -3.3164790002742695e-02 -4.0710735728597958e-03 0.0000000000000000e+00  -1.1633238025781852e-01 -5.2720698523473469e-02 0.0000000000000000e+00  -2.1082776409300046e-02 -2.1158175758189447e-02 0.0000000000000000e+00  -2.7467309690505322e-02 -5.6807883512927017e-02 0.0000000000000000e+00  -2.1803039314077642e-02 -3.4835063916023360e-03 0.0000000000000000e+00  -1.4202038770083064e-01 -1.4458275795926243e-02 0.0000000000000000e+00  1.1525551733993343e-01 6.2445349136795225e-02 0.0000000000000000e+00  9.7483299240058371e-02 4.9753695042434015e-02 0.0000000000000000e+00  1.8547799971422325e-02 1.5404113570887907e-02 0.0000000000000000e+00  -3.7664673425099611e-02 -5.1359345234545141e-02 0.0000000000000000e+00  4.7788527585732953e-02 9.5330816220566272e-02 0.0000000000000000e+00  -4.1010493331658120e-02 -9.5685978465007496e-02 0.0000000000000000e+00  1.0288138615252271e-08 -1.9600526843208986e-08 0.0000000000000000e+00  -1.0171825485080010e-08 2.1736129341090455e-08 0.0000000000000000e+00  4.5062422414944718e-09 2.7232494937813707e-08 0.0000000000000000e+00  6.4539095801944262e-09 9.9469151774930102e-09 0.0000000000000000e+00  -7.3863074265182510e-09 -1.0810221158386393e-08 0.0000000000000000e+00  -4.6824773060353489e-09 -2.0570654595601634e-08 0.0000000000000000e+00  1.0234078385377223e-08 -3.9727475853035495e-10 0.0000000000000000e+00  -9.7645351899138998e-09 2.8039376569098648e-10 0.0000000000000000e+00  -1.0102220013169504e-08 -2.6605894737638481e-10 0.0000000000000000e+00  9.7668600849190523e-09 1.7961357238269222e-10 0.0000000000000000e+00  -2.4969887896645880e-09 -4.2966469920084587e-09 0.0000000000000000e+00  -5.7250872930889843e-15 -8.8141569149483795e-15 0.0000000000000000e+00  -1.2503017878872333e-14 -1.9445052890589359e-14 0.0000000000000000e+00  -4.9135066110864906e-21 -2.2885172586655565e-21 0.0000000000000000e+00  -3.2752832413252083e-20 -3.1127726033935287e-21 0.0000000000000000e+00  1.3424579902752412e-14 -1.5715165386574744e-16 0.0000000000000000e+00  -1.2201643678386835e-14 -2.9943089261669166e-14 0.0000000000000000e+00  -1.5641933029482457e-20 -8.3810736764667315e-22 0.0000000000000000e+00  -6.1640822481410327e-16 -2.3811325117617488e-14 0.0000000000000000e+00  2.1844945093825924e-20 6.0432797932484711e-21 0.0000000000000000e+00  1.1614348445411427e-14 -2.9850597404294035e-14 0.0000000000000000e+00  1.8985939080459144e-16 3.9226321404284662e-16 0.0000000000000000e+00  3.4685022172338746e-20 -1.6546564208992314e-20 0.0000000000000000e+00  2.0297748964497036e-09 3.6512724797878805e-09 0.0000000000000000e+00  5.2890193286983624e-15 8.5325113295474684e-15 0.0000000000000000e+00  -1.3373442704610592e-14 1.0720641765749481e-17 0.0000000000000000e+00  4.4339928303760283e-15 -7.1112068924257974e-15 0.0000000000000000e+00  -1.1670969211806439e-09 2.3591865829322590e-09 0.0000000000000000e+00  4.2118572654558854e-09 -2.1407209041680921e-08 0.0000000000000000e+00  2.2405834580375097e-09 -3.9671802921045921e-09 0.0000000000000000e+00  6.5360903026764318e-09 -9.9590473652612567e-09 0.0000000000000000e+00  -1.1090881526478303e-08 -2.0147793536895982e-08 0.0000000000000000e+00  -1.1028875664375900e-14 2.0298130436369023e-14 0.0000000000000000e+00  -4.8719734662616061e-09 2.6148161204399253e-08 0.0000000000000000e+00  1.0160809068360900e-08 2.0951883824964057e-08 0.0000000000000000e+00  -3.7472989835560763e-15 6.8790815345740233e-15 0.0000000000000000e+00  1.5233263653504034e-14 2.5088059274034510e-14 0.0000000000000000e+00  5.6658615360089210e-21 -3.2823835388783157e-22 0.0000000000000000e+00  -6.2964893813572617e-09 1.0889484254402750e-08 0.0000000000000000e+00  -2.0174636489418721e-08 3.0213890953645225e-08 0.0000000000000000e+00  -1.1