<?xml version="1.0"?>
<VTKFile type="UnstructuredGrid"  version="0.1"  >
<UnstructuredGrid>
<Piece  NumberOfPoints="4153" NumberOfCells="8064">
<Points>
<DataArray  type="Float64"  NumberOfComponents="3"  format="ascii">-0.4165347785222364 -0.613401648226971 0  -0.04099304824422027 -0.7722407398746218 0  -0.09351244346023609 -0.767153817587131 0  -0.1450379289441212 -0.7568000196475065 0  -0.1951326841404628 -0.7417954016291269 0  -0.2438373838255105 -0.7236114516303235 0  -0.2905435463802378 -0.7002438557519499 0  -0.3348640832418084 -0.6734995366494188 0  -0.3768087057166181 -0.6443713556135343 0  0.01189058603598477 -0.7716934241257691 0  -0.4541235269658548 -0.5825679485661336 0  -0.4902823766968641 -0.5519065037295715 0  -0.5250647472872214 -0.5216695971066138 0  -0.5586812209912349 -0.49228480165377 0  -0.5915256567856094 -0.4643516274815465 0  -0.6238035137200834 -0.4381320469047573 0  -0.6556651658827182 -0.4145044435285733 0  0.6466955592935704 -0.4145090241506751 0  0.06445768824954931 -0.7655738279935532 0  0.1160594100188383 -0.7541228737499055 0  0.1661386275426046 -0.7378519142320641 0  0.2142657513404594 -0.7173791997841928 0  0.2602593469630198 -0.693801322701697 0  0.3041077735587658 -0.6678477430708101 0  0.3458936256180964 -0.6402472276869854 0  0.3857309335340235 -0.6116158600503823 0  0.4239313844403835 -0.5826818912593261 0  0.4607210063443541 -0.5538633167873374 0  0.4963360245331541 -0.5255290917229124 0  0.5309472708240284 -0.4980298995713341 0  0.5648033862231363 -0.4716040950557671 0  0.5980363568814769 -0.4467179452336343 0  0.6308757418266603 -0.4242223795380888 0  0.6142718727830243 -0.4354001793111896 0  -0.6394958130393239 -0.4261346552358352 0  -0.5751743594540566 -0.4782234309999394 0  -0.5078195966035699 -0.5367104134684134 0  -0.4354821002800561 -0.5979256864003961 0  -0.3561339137013718 -0.6590660458815746 0  -0.2674802454995649 -0.7124290573232606 0  -0.1702835653275308 -0.7499327798945455 0  -0.06734093501393207 -0.7703863915769058 0  0.5814432303889747 -0.4591342536281447 0  0.1413184051680378 -0.7465420106961951 0  0.2375326561688146 -0.705937804266121 0  0.3252419466040861 -0.654213952548011 0  0.4050258054130389 -0.5971683780177921 0  0.4786546501983402 -0.539632315271713 0  0.5479795353387531 -0.4847513635002508 0  0.03825568018500249 -0.7693225222464032 0  -0.6710512328722459 -0.4042237593191365 0  0.5137446643744001 -0.5116538012641479 0  0.442485703482461 -0.5682432835305702 0  0.3660419606152912 -0.6259985964269199 0  0.2824490113829434 -0.681083833929931 0  0.1904755346799469 -0.7280894225580855 0  0.0904170283711057 -0.7604876753532736 0  -0.01455208358912439 -0.7726778131791677 0  -0.1194331422271492 -0.7626180542271649 0  -0.219553793292917 -0.7331372909770525 0  -0.3129716228330164 -0.6871337691993371 0  -0.3971493785910579 -0.629307834398496 0  -0.4723924835512781 -0.5672274440338622 0  -0.5420192387654511 -0.50685457387291 0  -0.6076583402432415 -0.4511878491214101 0  0.7766154629012088 -0.2272903576533481 0  0.697564542596316 -0.3846744727550025 0  0.7413572430552453 -0.3422640518237636 0  0.7692333954795871 -0.28860834786875 0  0.6726422797992267 -0.4001220794286074 0  0.7205580916057128 -0.3648044037303279 0  0.7535398826920698 -0.3140645108491696 0  0.7718324838310978 -0.2575486536731529 0  0.6597158444154962 -0.4079299862797929 0  0.6850577129656196 -0.3916860036932824 0  0.7091766698950938 -0.374913392224858 0  0.7306170501074836 -0.3527036088608314 0  0.7496029796087015 -0.3292976094013341 0  0.7605393351263844 -0.301137395892741 0  0.7695976887406826 -0.2728303106768034 0  0.7735873672523597 -0.2422798578094874 0  0.7760712646763163 -0.2075049663017139 0  0.7803050580059998 0.234335394359604 0  0.7806081515234191 0.1950863049188685 0  0.7822723427338261 0.1554922355270436 0  0.7843859033504529 0.1154471459794722 0  0.7866441350734904 0.07487481134201075 0  0.7874932000009801 0.03388125488535482 0  0.7870325735279275 -0.00721368153836557 0  0.7852627047392156 -0.04818559845609714 0  0.7821744431677994 -0.08870560025175905 0  0.7792963504030711 -0.128714563631782 0  0.776928631162389 -0.1682715043711214 0  0.7814657550526649 0.2540596854360414 0  0.7802329554778001 0.2147415008830246 0  0.7833125010465614 0.1355295327172716 0  0.7872313336200799 0.05440597732189052 0  0.7863149405394207 -0.0277298702103711 0  0.7807197209868749 -0.1087730561039469 0  0.7762675290209439 -0.1879203087551275 0  0.781356658561285 0.1753419675581009 0  0.7855962147992885 0.0952492902986064 0  0.7874217696225927 0.01333260604749654 0  0.7837713179811605 -0.06853321589173965 0  0.7780240295257674 -0.1485469457922853 0  0.6582340161583807 0.4439939835219349 0  0.7758043450816653 0.3156051219125604 0  0.7496512299963529 0.3701356058923812 0  0.7075637685115674 0.4134919351037978 0  0.777726475770485 0.2844444037468305 0  0.7614180788764653 0.3417922110931352 0  0.7296751227778968 0.3929493554978569 0  0.6832615702129012 0.4291029468251844 0  0.7791174815959988 0.2691551604636752 0  0.7760531585698859 0.2998132927571079 0  0.7679204963029246 0.3285033210559975 0  0.7571591853376146 0.3567597808667604 0  0.7392900634693708 0.3807017057730069 0  0.7187099608376879 0.4033349174007947 0  0.6953463322756831 0.4206494659132184 0  0.6707175636830963 0.4369934245239554 0  -0.03136307512016401 0.8409898129547317 0  0.6117022314330041 0.4783718246240398 0  0.5799777622093381 0.505104552111626 0  0.5476966426853103 0.5337169087947958 0  0.5146149083844996 0.5639084831917278 0  0.4803540992211162 0.5951573644745357 0  0.4446681686139009 0.6270825597156896 0  0.4072903910050099 0.6592873433333324 0  0.3678861536822633 0.6913679522699044 0  0.3260794367483918 0.7223325941952219 0  0.2817410022438951 0.7515156103338283 0  0.2347799382186107 0.7780721419758524 0  0.1852244321003953 0.8012710127495389 0  0.1332773381641172 0.8197372593501424 0  0.07943462318583533 0.8328026865698853 0  0.02433162301807641 0.8398632102022759 0  0.6430797967886824 0.4543611311969697 0  -0.08675875159733484 0.834998425103636 0  -0.1409361993068957 0.8227418287940151 0  -0.1931923078079088 0.8049076094189171 0  -0.2428023030218499 0.7814852650373083 0  -0.2899015523829472 0.7558327695379344 0  -0.3344269876740434 0.7276039947967191 0  -0.376498955741213 0.6976008217296435 0  -0.4162398511629182 0.6663251666412628 0  -0.454012581135785 0.6350547386520589 0  -0.4902241008857354 0.6040529714760763 0  -0.5251006042720551 0.5736462515688279 0  -0.5588713890058463 0.544163706800903 0  -0.5917498878703729 0.5159023726505232 0  -0.6239781895170013 0.4894024515356565 0  -0.655802537729361 0.4655375193817794 0  -0.6711350744670199 0.4552086037967351 0  -0.6396734275258932 0.4773268045956061 0  -0.5754193875647049 0.529942761761762 0  -0.5078153691846297 0.5887631018535588 0  -0.4353241212177503 0.6506647587047029 0  -0.3557529706239537 0.7127428580518147 0  -0.2666678467498854 0.7690409980285591 0  -0.1673247596250553 0.8143196357605997 0  -0.05915303724348461 0.838781834433344 0  0.05200407738129541 0.837139700496459 0  0.1595229543895169 0.8111105147874726 0  0.2585886056955328 0.7651791539359167 0  0.3472815652819091 0.7070132706334589 0  0.4262059007044613 0.6431764592250626 0  0.4976415701699038 0.5794274528899187 0  0.5639164252866677 0.5192891193434646 0  0.6271662208948752 0.4661878594920294 0  -0.6078805369135132 0.502597123199327 0  -0.5421118506050725 0.5587928061585078 0  -0.472302359306969 0.6195040180659332 0  -0.3966967334388971 0.6820986437709571 0  -0.3124744021633633 0.7419715636228302 0  -0.2185227618713891 0.7939938628697656 0  -0.1140409142942533 0.8295786107006098 0  -0.003445371735515629 0.8412414801242921 0  0.106557463101767 0.8269855400917169 0  0.2103483564149291 0.7902239158275924 0  0.3042350318955694 0.7372006190404387 0  0.3878899325844585 0.6754117897493432 0  0.4627050972160832 0.611063473288031 0  0.531298804744333 0.548668811118724 0  0.5958450097149578 0.4916589103598087 0  -0.79692329743755 0.2656456132210128 0  -0.7208697041424521 0.424539650469257 0  -0.763532070381606 0.381344894817423 0  -0.7903734826876643 0.3271151254502979 0  -0.6964204368104269 0.440268273782525 0  -0.7432889577669076 0.4041538003879988 0  -0.7754048935839952 0.3529942048834069 0  -0.7926242348500957 0.295984278111479 0  -0.6837568056647222 0.4482240581979261 0  -0.7085873942424195 0.4317249625355563 0  -0.7321798100786451 0.4144803594440744 0  -0.7530517214467135 0.3919043121038697 0  -0.771354193359215 0.3681150029876283 0  -0.782119757479157 0.339858651029569 0  -0.7906696672575793 0.3113232634654883 0  -0.7942082546174063 0.2806988689813773 0  -0.7960914944176762 0.245875667157745 0  -0.7963088559534119 -0.1961758987594599 0  -0.7968826277053034 -0.1569480181560575 0  -0.7988970100921404 -0.117374572748406 0  -0.8013860770243092 -0.07733923375283121 0  -0.8040417657210419 -0.03677845780309889 0  -0.8053319298504781 0.004222823270635091 0  -0.8053194852364638 0.04533884144096395 0  -0.8040085730809505 0.08634657304505211 0  -0.8013454445901538 0.1269273526132856 0  -0.798819081048471 0.1669929341145585 0  -0.7967414290969385 0.2066047070576009 0  -0.7972203028390983 -0.2159233002663302 0  -0.7963642566168363 -0.1765950235996769 0  -0.8001275813638534 -0.09741950517948859 0  -0.8048508045707813 -0.01630714625196899 0  -0.8048272237906665 0.06587108680103011 0  -0.8000706526823077 0.1470214019711541 0  -0.7961853399478069 0.2262721735270306 0  -0.7978026023460465 -0.1372158793950715 0  -0.8027814648766846 -0.05714777479734999 0  -0.80548366157031 0.02478047280359788 0  -0.8027463309749653 0.106723303407288 0  -0.7976974102201192 0.1868524854080816 0  -0.7907020774021449 -0.2773251061444389 0  -0.7636982824604073 -0.3313657008973839 0  -0.7209183871522212 -0.3742213207622586 0  -0.7930128582801125 -0.2462430176247052 0  -0.7757700795095281 -0.3031975260414629 0  -0.7433980805172539 -0.354051128755688 0  -0.6963442583675128 -0.3896593415254953 0  -0.7945767329928318 -0.2309708669855075 0  -0.7910789368722534 -0.2
[...]
<PointData  Vectors="f_3709"> 
<DataArray  type="Float64"  Name="f_3709"  NumberOfComponents="3" format="ascii">9.1491980721577909e-03 1.0098875541868127e-02 0.0000000000000000e+00  1.4185332871888155e-03 3.1041288386597869e-02 0.0000000000000000e+00  5.3794473778201821e-03 3.4465526236735634e-02 0.0000000000000000e+00  9.8124047496215162e-03 3.8015935625138046e-02 0.0000000000000000e+00  1.2995639706950961e-02 3.5981622200284807e-02 0.0000000000000000e+00  2.5790282740682829e-02 5.3129941669964431e-02 0.0000000000000000e+00  3.8172097773926363e-02 6.5936556683458949e-02 0.0000000000000000e+00  3.8940257810331759e-02 5.8080573826068023e-02 0.0000000000000000e+00  3.0823097118039541e-02 4.1059006006386511e-02 0.0000000000000000e+00  -2.0995715147370014e-03 3.0344590412004980e-02 0.0000000000000000e+00  1.5510359517742904e-02 1.8560065433042443e-02 0.0000000000000000e+00  1.1037989106001997e-02 1.2795643793899518e-02 0.0000000000000000e+00  8.2056071230908884e-03 9.8020926183405525e-03 0.0000000000000000e+00  7.6584023483243563e-03 1.0206503524029133e-02 0.0000000000000000e+00  7.1988865785752873e-03 1.0996164814315789e-02 0.0000000000000000e+00  6.6912172046913331e-04 5.7257694529674798e-03 0.0000000000000000e+00  -2.6466685030085034e-04 1.0813008492289786e-02 0.0000000000000000e+00  -5.4711018704244524e-02 1.1186406803941946e-01 0.0000000000000000e+00  -5.8077927651962319e-03 3.2105567715109938e-02 0.0000000000000000e+00  -1.0373822967558982e-02 3.5835672486129393e-02 0.0000000000000000e+00  -1.5555337897256317e-02 3.9695580538370225e-02 0.0000000000000000e+00  -1.9930941634699471e-02 4.0825106839509122e-02 0.0000000000000000e+00  -2.2708093061452089e-02 3.9657439119631419e-02 0.0000000000000000e+00  -2.3315522627801885e-02 3.5939187858546467e-02 0.0000000000000000e+00  -2.2348436374027739e-02 3.1439236780577515e-02 0.0000000000000000e+00  -1.8107459502683762e-02 2.4041333832461525e-02 0.0000000000000000e+00  -1.4658432298539890e-02 1.8810786693264026e-02 0.0000000000000000e+00  -1.1155106791137875e-02 1.4293504671390556e-02 0.0000000000000000e+00  -7.8246545961156086e-03 1.0403884237232573e-02 0.0000000000000000e+00  -8.6805364324279311e-03 1.2230392258988188e-02 0.0000000000000000e+00  -7.4362412531733006e-03 1.2240994665663986e-02 0.0000000000000000e+00  -2.1261990144176208e-03 8.8885374476374186e-03 0.0000000000000000e+00  8.9606189035495287e-03 -6.0989731692656602e-04 0.0000000000000000e+00  -4.7502591138325317e-03 1.1853244318692818e-02 0.0000000000000000e+00  1.4014511093622553e-02 2.5250395035386657e-02 0.0000000000000000e+00  4.8047952988955053e-03 6.9918894984774401e-03 0.0000000000000000e+00  9.3546155477222878e-03 1.0972868674817891e-02 0.0000000000000000e+00  1.7932713154486576e-02 2.2162243357702179e-02 0.0000000000000000e+00  3.3929917651851861e-02 4.7167587786144216e-02 0.0000000000000000e+00  3.2484755069431666e-02 6.1745226229835595e-02 0.0000000000000000e+00  1.2677309826273553e-02 4.0638141302947003e-02 0.0000000000000000e+00  3.3481812927404278e-03 3.2798781674082997e-02 0.0000000000000000e+00  1.5162341755055924e-04 2.1050092619514624e-03 0.0000000000000000e+00  -1.2894452940029218e-02 3.7755325298574595e-02 0.0000000000000000e+00  -2.1737852334795176e-02 4.0992356194043449e-02 0.0000000000000000e+00  -2.2643264211264676e-02 3.3261977862099820e-02 0.0000000000000000e+00  -1.6800729937300019e-02 2.1872336733299986e-02 0.0000000000000000e+00  -9.7428760730480339e-03 1.2635902995706039e-02 0.0000000000000000e+00  -2.5424552016059631e-03 4.5200970865581927e-03 0.0000000000000000e+00  -3.8541493961867235e-03 3.0804060255386203e-02 0.0000000000000000e+00  4.3364798888081750e-02 9.1973446126067629e-02 0.0000000000000000e+00  -6.3439347965053008e-03 8.8797443703971940e-03 0.0000000000000000e+00  -1.3012761154232723e-02 1.6634619332828549e-02 0.0000000000000000e+00  -2.0189060345396699e-02 2.7313617560719317e-02 0.0000000000000000e+00  -2.3349545988083812e-02 3.8180253793211313e-02 0.0000000000000000e+00  -1.8854034275194758e-02 4.2443492430812718e-02 0.0000000000000000e+00  -7.9391170574872327e-03 3.3714618536537073e-02 0.0000000000000000e+00  -3.7854755687000954e-04 3.0236166666782756e-02 0.0000000000000000e+00  8.0076129206498071e-03 3.7937919261403524e-02 0.0000000000000000e+00  1.0722301447555753e-02 2.7106511944723327e-02 0.0000000000000000e+00  3.3232538866811032e-02 5.3151494316915494e-02 0.0000000000000000e+00  5.5608156568403976e-02 6.9626042218482301e-02 0.0000000000000000e+00  1.3713955454691482e-02 1.6051857329591895e-02 0.0000000000000000e+00  5.5839883670262946e-03 7.0043077666675450e-03 0.0000000000000000e+00  2.5479861388629592e-03 5.3449543436494299e-03 0.0000000000000000e+00  5.4461226762114193e-02 1.4990817903761701e-03 0.0000000000000000e+00  8.1455494107886522e-02 -1.1958744762326853e-01 0.0000000000000000e+00  1.6624914158513235e-02 -5.5546771916552627e-02 0.0000000000000000e+00  -2.6864765491710108e-01 5.1105246653715353e-02 0.0000000000000000e+00  2.0058918639714745e-02 -3.9437476408370725e-02 0.0000000000000000e+00  3.0978139063037813e-02 -2.5085610802437222e-02 0.0000000000000000e+00  3.2506112363655520e-01 -7.5521838612550990e-02 0.0000000000000000e+00  3.4443478715426093e-02 -3.4288752324925114e-03 0.0000000000000000e+00  2.9461274526987456e-02 -8.3050623691119443e-02 0.0000000000000000e+00  -7.5537484551278719e-02 1.1053813629537577e-01 0.0000000000000000e+00  2.8798188996826610e-02 -6.4395519899253600e-02 0.0000000000000000e+00  -5.0371931806807791e-03 -1.3335642488230062e-03 0.0000000000000000e+00  -2.3579029161645138e-01 9.8489142470561203e-02 0.0000000000000000e+00  -4.1269110151718635e-01 1.8677540735092940e-01 0.0000000000000000e+00  2.5620197174327675e-01 -2.4162723301644133e-03 0.0000000000000000e+00  1.1176910551118123e-02 -4.2886704025868715e-03 0.0000000000000000e+00  1.0079291387308895e-01 1.1855982034824450e-03 0.0000000000000000e+00  5.7954381753128316e-02 -3.7876396626527089e-03 0.0000000000000000e+00  1.9386254018620347e-02 1.5112587827563393e-03 0.0000000000000000e+00  1.1402722905379963e-02 1.0109686269345317e-03 0.0000000000000000e+00  9.4810236758638838e-03 7.6727580671099888e-04 0.0000000000000000e+00  1.1324411701849665e-02 4.4872419338077023e-04 0.0000000000000000e+00  1.1806512570491130e-02 1.8150687065526608e-05 0.0000000000000000e+00  1.1789488765662123e-02 -3.3883718625644645e-04 0.0000000000000000e+00  1.0732721975404119e-02 -7.1846723020660343e-04 0.0000000000000000e+00  9.3062359026362448e-03 -8.6366824227344138e-04 0.0000000000000000e+00  1.2027803909725346e-02 -1.1827763697750404e-03 0.0000000000000000e+00  2.5995941972500460e-02 -1.9614923470364851e-03 0.0000000000000000e+00  3.5161600380113588e-02 -3.0804191745476971e-03 0.0000000000000000e+00  2.4637777282152946e-02 2.2086762964849847e-03 0.0000000000000000e+00  9.5764337853444272e-03 8.0354812661072707e-04 0.0000000000000000e+00  1.1878440923584676e-02 1.4496579451942786e-04 0.0000000000000000e+00  1.2084284572609400e-02 -4.9916197884175236e-04 0.0000000000000000e+00  9.8105633680482546e-03 -9.4551483861698884e-04 0.0000000000000000e+00  2.7253514287140325e-02 -1.9773261891775115e-03 0.0000000000000000e+00  1.3837536301735903e-02 1.3757889584488981e-03 0.0000000000000000e+00  1.0530129879772386e-02 7.6421790251461749e-04 0.0000000000000000e+00  1.1791245556608747e-02 -1.6622093491659758e-04 0.0000000000000000e+00  8.6680033635962613e-03 -8.6970829406637527e-04 0.0000000000000000e+00  1.4314751395605075e-02 -1.5176264773850807e-03 0.0000000000000000e+00  -4.3088936620839215e-02 -8.7234104759329467e-02 0.0000000000000000e+00  -8.2304083394923080e-02 -1.1011042645245946e-02 0.0000000000000000e+00  3.7886830771623317e-02 4.5698126187262385e-02 0.0000000000000000e+00  7.4919877634607820e-02 1.0527756280263638e-01 0.0000000000000000e+00  4.3279789973961973e-02 5.1195668987169766e-03 0.0000000000000000e+00  1.4463393734074748e-01 3.6003677236854964e-02 0.0000000000000000e+00  3.4589717677709061e-02 2.8378451814797458e-02 0.0000000000000000e+00  2.2586513989701681e-02 3.8172636699065871e-02 0.0000000000000000e+00  3.2468616369399489e-02 5.4452712240574720e-03 0.0000000000000000e+00  1.4251750327554599e-01 -4.6329845645840242e-03 0.0000000000000000e+00  -1.5442679395207620e-01 -4.6970678970075910e-02 0.0000000000000000e+00  -9.5940362210058347e-02 -3.5389690755493766e-02 0.0000000000000000e+00  -4.0709822309821474e-03 7.3610926298169782e-04 0.0000000000000000e+00  3.2983538806902378e-02 5.9009106052981070e-02 0.0000000000000000e+00  -6.4171447657157807e-02 -8.4800007253690510e-02 0.0000000000000000e+00  1.5234497988446035e-02 4.7930332866294272e-02 0.0000000000000000e+00  1.5915916512490161e-03 -2.1168854278922310e-02 0.0000000000000000e+00  -2.5687853933564465e-03 -8.0533872141737590e-03 0.0000000000000000e+00  -8.0218359314405633e-03 -1.1543125783845858e-02 0.0000000000000000e+00  -8.1114800582990608e-03 -1.0200332044133256e-02 0.0000000000000000e+00  -8.7323062016570526e-03 -9.9718879250839301e-03 0.0000000000000000e+00  -1.1403924974363435e-02 -1.2656562523237385e-02 0.0000000000000000e+00  -1.5207553236678412e-02 -1.7108000040898061e-02 0.0000000000000000e+00  -1.8317311351255302e-02 -2.1376227227499538e-02 0.0000000000000000e+00  -2.4519508891817147e-02 -3.0962902632021026e-02 0.0000000000000000e+00  -2.5040499318444081e-02 -3.4999419545876487e-02 0.0000000000000000e+00  -2.3422830785554852e-02 -3.7512861750421685e-02 0.0000000000000000e+00  -1.9284550083290872e-02 -3.6638476472218351e-02 0.0000000000000000e+00  -1.4623825728990873e-02 -3.5295935343075700e-02 0.0000000000000000e+00  -8.9015893553623660e-03 -2.9634857756812915e-02 0.0000000000000000e+00  -4.3803275033442290e-03 -2.4196981799638400e-02 0.0000000000000000e+00  -1.3292356975016242e-03 -2.1831859142798282e-02 0.0000000000000000e+00  2.7433388687309897e-04 -1.1053374928907046e-02 0.0000000000000000e+00  5.7476131064188880e-03 -3.1224678027620596e-02 0.0000000000000000e+00  1.3301591529997995e-02 -4.4119951700272497e-02 0.0000000000000000e+00  1.8408738066923985e-02 -4.4289718674375575e-02 0.0000000000000000e+00  1.5818941978866633e-02 -2.9903794729738229e-02 0.0000000000000000e+00  2.5928239170110029e-02 -4.2769369247468769e-02 0.0000000000000000e+00  2.6461115237039770e-02 -3.8291333692844223e-02 0.0000000000000000e+00  2.4837108339606857e-02 -3.2551946496268691e-02 0.0000000000000000e+00  1.5720912503330770e-02 -1.8785638387799765e-02 0.0000000000000000e+00  1.3997575017307454e-02 -1.6495728538482492e-02 0.0000000000000000e+00  1.0209706191608556e-02 -1.1899970095331943e-02 0.0000000000000000e+00  7.3262055928564208e-03 -8.8217215927363767e-03 0.0000000000000000e+00  6.6973184321284388e-03 -8.6629780407326048e-03 0.0000000000000000e+00  6.4488188548477146e-03 -9.9224229237704648e-03 0.0000000000000000e+00  1.0804382540114056e-03 -6.4115464179868549e-03 0.0000000000000000e+00  -2.5390294433614352e-03 -7.8238278556865583e-03 0.0000000000000000e+00  5.0486514785413043e-02 -1.0005036210509063e-01 0.0000000000000000e+00  1.0836498409506722e-02 -1.9903246575749024e-02 0.0000000000000000e+00  2.3804068440821200e-03 -3.8676093103899864e-03 0.0000000000000000e+00  8.5363179858570105e-03 -1.0042743264323698e-02 0.0000000000000000e+00  1.6053349206842961e-02 -1.9293410578708134e-02 0.0000000000000000e+00  2.4417322818769349e-02 -3.3343702236123297e-02 0.0000000000000000e+00  2.0955878038366380e-02 -3.8244576434838098e-02 0.0000000000000000e+00  1.5654275684627912e-02 -4.4224001578380724e-02 0.0000000000000000e+00  3.2212962301650847e-03 -2.5889764465663611e-02 0.0000000000000000e+00  -2.5944640918849891e-03 -2.1949603963499428e-02 0.0000000000000000e+00  -1.1673796293125148e-02 -3.2577461026344658e-02 0.0000000000000000e+00  -2.1544232120772045e-02 -3.7492709731467969e-02 0.0000000000000000e+00  -2.4212605955983766e-02 -3.2014932407182790e-02 0.0000000000000000e+00  -1.7400817281112639e-02 -1.9967501082822237e-02 0.0000000000000000e+00  -9.7176932131973811e-03 -1.0875380299625446e-02 0.0000000000000000e+00  -5.3281460309202158e-03 -7.2760627399188560e-03 0.0000000000000000e+00  -1.2239560107557841e-02 -2.1997633609890526e-02 0.0000000000000000e+00  1.1419210702418698e-03 -3.4743077832387155e-03 0.0000000000000000e+00  5.4555154391818534e-03 -6.8696837452113446e-03 0.0000000000000000e+00  1.2049570264678624e-02 -1.4037046757129292e-02 0.0000000000000000e+00  2.4890612838905854e-02 -3.0860580892888730e-02 0.0000000000000000e+00  2.4871550626257257e-02 -3.8312294971398833e-02 0.0000000000000000e+00  4.4468538528884882e-02 -9.1160738355703583e-02 0.0000000000000000e+00  8.2198118314714391e-03 -3.4493584028397806e-02 0.0000000000000000e+00  -1.3834235100374125e-04 -1.7594329541648378e-02 0.0000000000000000e+00  -6.3139161080406469e-03 -2.6309619332425777e-02 0.0000000000000000e+00  -1.9059341571859553e-02 -4.0084339748634998e-02 0.0000000000000000e+00  -2.4330292666510919e-02 -3.6259773286329559e-02 0.0000000000000000e+00  -2.2847832416205270e-02 -2.7473019686202825e-02 0.0000000000000000e+00  -1.3359388333350928e-02 -1.4871004723746278e-02 0.0000000000000000e+00  -6.4797639365404298e-03 -7.7049097336661394e-03 0.0000000000000000e+00  -3.1788142508937267e-03 -5.9707476091132965e-03 0.0000000000000000e+00  -4.1754835305790737e-02 -2.6379634744552196e-03 0.0000000000000000e+00  -8.0482568365195184e-02 1.1293417531995902e-01 0.0000000000000000e+00  -3.0041527100973818e-02 5.1229532042527434e-02 0.0000000000000000e+00  1.6448697594032879e-01 -2.7100554322957084e-02 0.0000000000000000e+00  -2.1406272680384884e-02 3.7212634687877111e-02 0.0000000000000000e+00  -3.2863472723472884e-02 2.6374418328600286e-02 0.0000000000000000e+00  -2.2155422269498942e-01 5.2077490204367513e-02 0.0000000000000000e+00  -3.8580379018706368e-02 4.4781513114083623e-03 0.0000000000000000e+00  -1.7509366106035977e-02 5.5204876757641269e-02 0.0000000000000000e+00  7.2470030474113156e-02 -9.9188831341039577e-02 0.0000000000000000e+00  -3.1115645258381182e-02 6.0914258203012023e-02 0.0000000000000000e+00  6.5397061334253265e-03 -1.1231199431935700e-03 0.0000000000000000e+00  1.6072884895850628e-01 -6.2956240391064497e-02 0.0000000000000000e+00  2.7100990835686822e-01 -1.0607807592113686e-01 0.0000000000000000e+00  -1.9495675909253740e-01 -1.2601187095956309e-03 0.0000000000000000e+00  -2.0487802152018571e-02 4.9549080762954396e-03 0.0000000000000000e+00  -8.1643023952677515e-02 -2.8427035325937090e-03 0.0000000000000000e+00  -8.4313357882148138e-02 3.0455683479442509e-03 0.0000000000000000e+00  -2.2551612310378735e-02 -1.7214582750387309e-03 0.0000000000000000e+00  -1.1577440538707665e-02 -1.0889849938915397e-03 0.0000000000000000e+00  -9.2936946260005048e-03 -8.0478664025261301e-04 0.0000000000000000e+00  -1.0985308951333192e-02 -5.7921973747229792e-04 0.0000000000000000e+00  -1.1725359955324779e-02 -1.7275865487601151e-04 0.0000000000000000e+00  -1.1718719431044822e-02 1.7962644858260656e-04 0.0000000000000000e+00  -1.0999848294446099e-02 5.8347870343829016e-04 0.0000000000000000e+00  -9.3856561334130263e-03 8.1306096038562855e-04 0.0000000000000000e+00  -1.1590139401293848e-02 1.0939626574397396e-03 0.0000000000000000e+00  -2.2116224154325521e-02 1.7389880013777546e-03 0.0000000000000000e+00  -4.1031301376267072e-02 3.0245005459619712e-03 0.0000000000000000e+00  -2.5722251299486430e-02 -2.0971805496049914e-03 0.0000000000000000e+00  -9.6597802656429900e-03 -8.6764673733592845e-04 0.0000000000000000e+00  -1.1937202933958575e-02 -3.1337615923380326e-04 0.0000000000000000e+00  -1.1917372985331761e-02 3.2069506828487539e-04 0.0000000000000000e+00  -9.7170250731522020e-03 8.7462151067323559e-04 0.0000000000000000e+00  -2.5297367007441181e-02 2.1198899421317869e-03 0.0000000000000000e+00  -1.3973115996110782e-02 -1.4480151147264974e-03 0.0000000000000000e+00  -9.5419002572405976e-03 -8.2010479824385252e-04 0.0000000000000000e+00  -1.1728628129309847e-02 4.0081314039392633e-06 0.0000000000000000e+00  -9.6572121074698525e-03 8.2410066884575973e-04 0.0000000000000000e+00  -1.3872074398514067e-02 1.4531752683207839e-03 0.0000000000000000e+00  1.5164077191539810e-01 2.5078204684450458e-02 0.0000000000000000e+00  -3.0222902453539952e-02 -4.9895958383071939e-02 0.0000000000000000e+00  -8.1825979955231026e-02 -1.1707393799220812e-01 0.0000000000000000e+00  -3.9192166686855830e-02 -4.5200285672584639e-03 0.0000000000000000e+00  -2.1315531024526621e-01 -5.2937311625067235e-02 0.0000000000000000e+00  -3.3877861403959937e-02 -2.7648268107929145e-02 0.0000000000000000e+00  -1.9708114537662511e-02 -3.5208405752679639e-02 0.0000000000000000e+00  -2.0964921269110825e-02 -4.9452185387359416e-03 0.0000000000000000e+00  -1.9049385695435159e-01 7.7452811774803509e-04 0.0000000000000000e+00  2.5737137820448719e-01 9.9975173235163459e-02 0.0000000000000000e+00  1.5128919971891089e-01 5.9989948107482219e-02 0.0000000000000000e+00  5.1189027451840168e-03 -1.5623687500330316e-05 0.0000000000000000e+00  -3.0977103710815735e-02 -6.1987786717853204e-02 0.0000000000000000e+00  7.0642677107098512e-02 9.7006917080379756e-02 0.0000000000000000e+00  -8.7497766223447355e-03 -4.2342295600284040e-02 0.0000000000000000e+00  3.7355483619559849e-05 1.2178406615918525e-05 0.0000000000000000e+00  -2.9092614194795851e-05 -9.9516372574203423e-06 0.0000000000000000e+00  1.7441215725730192e-05 -1.4283889168466177e-06 0.0000000000000000e+00  1.6476251714715812e-05 -2.0403145108894103e-05 0.0000000000000000e+00  -1.3725996209311111e-05 1.7990876405249563e-05 0.0000000000000000e+00  -2.8717402831375573e-05 3.0978317151322999e-06 0.0000000000000000e+00  -1.9576517395622836e-06 -3.3704184803311137e-06 0.0000000000000000e+00  5.8503255563396514e-07 1.2442510505711503e-06 0.0000000000000000e+00  8.9018896951841855e-07 -1.7263033312815065e-06 0.0000000000000000e+00  1.4061642102449634e-07 -1.3936274525174386e-07 0.0000000000000000e+00  -1.5374931255616003e-06 1.6917361951973311e-05 0.0000000000000000e+00  -4.0980619190026675e-06 1.4690445139096560e-05 0.0000000000000000e+00  -2.1400144296994972e-05 4.0188464487272526e-05 0.0000000000000000e+00  -4.6197146573337226e-07 -5.6027885060705820e-06 0.0000000000000000e+00  2.1642807914928420e-06 -1.2668163242981220e-05 0.0000000000000000e+00  -9.6484764438579311e-08 -2.6166026242492147e-06 0.0000000000000000e+00  -7.9096278289837643e-05 6.8191641491331922e-05 0.0000000000000000e+00  1.3027376120712140e-05 7.2162166894924331e-06 0.0000000000000000e+00  -2.3736957911501535e-05 4.3633540312333239e-07 0.0000000000000000e+00  1.6565392730905835e-04 -3.0850140785466582e-05 0.0000000000000000e+00  9.9172909184964760e-05 9.2181568318013571e-05 0.0000000000000000e+00  3.9315963186644862e-05 -6.5412985002141961e-05 0.0000000000000000e+00  -1.6011387150914347e-05 2.2124196807047107e-06 0.0000000000000000e+00  2.4930458170391526e-06 -1.8823220856047574e-05 0.0000000000000000e+00  5.5495041569663954e-06 -1.6977366689009164e-05 0.0000000000000000e+00  -5.2560921725170471e-09 -3.7256855422515968e-07 0.0000000000000000e+00  5.0689503915455725e-06 1.7462972931843377e-05 0.0000000000000000e+00  -2.1203002306794018e-06 -2.0810823506481254e-05 0.0000000000000000e+00  3.5259982052166525e-05 3.2828298543074639e-06 0.0000000000000000e+00  1.8645786052336728e-06 1.8030741903954898e-05 0.0000000000000000e+00  1.3913947285240294e-05 1.6080418944933007e-05 0.0000000000000000e+00  -3.6213736322950055e-05 1.4351136732775268e-05 0.0000000000000000e+00  -2.3895298792285033e-05 -3.5162558597421546e-05 0.0000000000000000e+00  -2.4044804691683068e-05 -1.8405869740847035e-06 0.0000000000000000e+00  4.9994234047476301e-05 -2.1639685012147809e-05 0.0000000000000000e+00  -6.9807676401762553e-06 -1.9840393034193028e-05 0.0000000000000000e+00  2.0749786181716402e-05 -3.6701772228415680e-05 0.0000000000000000e+00  5.2468115574133231e-07 2.9113841746380379e-06 0.0000000000000000e+00  -1.2840866937593808e-05 -1.6567530430980022e-05 0.0000000000000000e+00  2.5035072058360398e-06 8.9172401202876157e-06 0.0000000000000000e+00  -5.67