<?xml version="1.0"?>
<VTKFile type="UnstructuredGrid"  version="0.1"  >
<UnstructuredGrid>
<Piece  NumberOfPoints="4153" NumberOfCells="8064">
<Points>
<DataArray  type="Float64"  NumberOfComponents="3"  format="ascii">-0.4249999999999999 -0.5 0  -0.02499999999999988 -0.5 0  -0.07499999999999987 -0.5 0  -0.1249999999999998 -0.5 0  -0.1749999999999998 -0.5 0  -0.2249999999999998 -0.5 0  -0.2749999999999998 -0.5 0  -0.3249999999999998 -0.5 0  -0.3749999999999999 -0.5 0  0.02500000000000016 -0.5 0  -0.4749999999999998 -0.5 0  -0.5249999999999998 -0.5 0  -0.5749999999999998 -0.5 0  -0.6249999999999999 -0.5 0  -0.6749999999999999 -0.5 0  -0.725 -0.5 0  -0.775 -0.5 0  0.8 -0.5 0  0.07500000000000025 -0.5 0  0.1250000000000003 -0.5 0  0.1750000000000004 -0.5 0  0.2250000000000004 -0.5 0  0.2750000000000004 -0.5 0  0.3250000000000003 -0.5 0  0.3750000000000001 -0.5 0  0.4250000000000002 -0.5 0  0.4750000000000002 -0.5 0  0.5250000000000001 -0.5 0  0.5750000000000002 -0.5 0  0.625 -0.5 0  0.675 -0.5 0  0.725 -0.5 0  0.775 -0.5 0  0.75 -0.5 0  -0.75 -0.5 0  -0.6499999999999999 -0.5 0  -0.5499999999999998 -0.5 0  -0.4499999999999998 -0.5 0  -0.3499999999999999 -0.5 0  -0.2499999999999998 -0.5 0  -0.1499999999999998 -0.5 0  -0.04999999999999988 -0.5 0  0.7 -0.5 0  0.1500000000000004 -0.5 0  0.2500000000000003 -0.5 0  0.3500000000000002 -0.5 0  0.4500000000000002 -0.5 0  0.5500000000000002 -0.5 0  0.65 -0.5 0  0.0500000000000002 -0.5 0  -0.8 -0.5 0  0.6000000000000001 -0.5 0  0.5000000000000002 -0.5 0  0.4000000000000001 -0.5 0  0.3000000000000003 -0.5 0  0.2000000000000004 -0.5 0  0.1000000000000003 -0.5 0  1.110223024625157e-16 -0.5 0  -0.09999999999999987 -0.5 0  -0.1999999999999998 -0.5 0  -0.2999999999999998 -0.5 0  -0.3999999999999999 -0.5 0  -0.4999999999999998 -0.5 0  -0.5999999999999999 -0.5 0  -0.7 -0.5 0  1 -0.3 0  0.8765366864730179 -0.4847759065022574 0  0.9414213562373094 -0.4414213562373097 0  0.9847759065022573 -0.3765366864730181 0  0.838268343236509 -0.4923879532511287 0  0.9089790213551636 -0.4630986313697836 0  0.9630986313697834 -0.4089790213551639 0  0.9923879532511286 -0.338268343236509 0  0.8191341716182545 -0.4961939766255644 0  0.8574025148547635 -0.488581929876693 0  0.8927578539140908 -0.4739372689360205 0  0.9252001887962364 -0.4522599938035466 0  0.9522599938035463 -0.4252001887962368 0  0.9739372689360204 -0.392757853914091 0  0.9885819298766929 -0.3574025148547635 0  0.9961939766255643 -0.3191341716182545 0  1 -0.275 0  1 0.275 0  1 0.225 0  1 0.175 0  1 0.125 0  1 0.07499999999999994 0  1 0.02499999999999987 0  1 -0.0250000000000002 0  1 -0.07500000000000026 0  1 -0.1250000000000003 0  1 -0.1750000000000002 0  1 -0.2250000000000001 0  1 0.3 0  1 0.25 0  1 0.15 0  1 0.04999999999999991 0  1 -0.05000000000000023 0  1 -0.1500000000000002 0  1 -0.2500000000000001 0  1 0.2 0  1 0.09999999999999998 0  1 -1.665334536937735e-16 0  1 -0.1000000000000003 0  1 -0.2000000000000002 0  0.8 0.5 0  0.9847759065022573 0.3765366864730181 0  0.9414213562373094 0.4414213562373097 0  0.8765366864730179 0.4847759065022574 0  0.9923879532511286 0.338268343236509 0  0.9630986313697834 0.4089790213551639 0  0.9089790213551636 0.4630986313697836 0  0.838268343236509 0.4923879532511287 0  0.9961939766255643 0.3191341716182545 0  0.9885819298766929 0.3574025148547635 0  0.9739372689360204 0.392757853914091 0  0.9522599938035463 0.4252001887962368 0  0.9252001887962364 0.4522599938035466 0  0.8927578539140908 0.4739372689360205 0  0.8574025148547635 0.488581929876693 0  0.8191341716182545 0.4961939766255644 0  -0.02500000000000016 0.5 0  0.725 0.5 0  0.6749999999999999 0.5 0  0.6249999999999999 0.5 0  0.5749999999999998 0.5 0  0.5249999999999998 0.5 0  0.4749999999999998 0.5 0  0.4249999999999999 0.5 0  0.3749999999999999 0.5 0  0.3249999999999998 0.5 0  0.2749999999999998 0.5 0  0.2249999999999998 0.5 0  0.1749999999999998 0.5 0  0.1249999999999998 0.5 0  0.07499999999999987 0.5 0  0.02499999999999988 0.5 0  0.775 0.5 0  -0.07500000000000025 0.5 0  -0.1250000000000003 0.5 0  -0.1750000000000004 0.5 0  -0.2250000000000004 0.5 0  -0.2750000000000004 0.5 0  -0.3250000000000003 0.5 0  -0.3750000000000001 0.5 0  -0.4250000000000002 0.5 0  -0.4750000000000002 0.5 0  -0.5250000000000001 0.5 0  -0.5750000000000002 0.5 0  -0.625 0.5 0  -0.675 0.5 0  -0.725 0.5 0  -0.775 0.5 0  -0.8 0.5 0  -0.75 0.5 0  -0.65 0.5 0  -0.5500000000000002 0.5 0  -0.4500000000000002 0.5 0  -0.3500000000000002 0.5 0  -0.2500000000000003 0.5 0  -0.1500000000000004 0.5 0  -0.0500000000000002 0.5 0  0.04999999999999988 0.5 0  0.1499999999999998 0.5 0  0.2499999999999998 0.5 0  0.3499999999999999 0.5 0  0.4499999999999998 0.5 0  0.5499999999999998 0.5 0  0.6499999999999999 0.5 0  0.75 0.5 0  -0.7 0.5 0  -0.6000000000000001 0.5 0  -0.5000000000000002 0.5 0  -0.4000000000000001 0.5 0  -0.3000000000000003 0.5 0  -0.2000000000000004 0.5 0  -0.1000000000000003 0.5 0  -1.110223024625157e-16 0.5 0  0.09999999999999987 0.5 0  0.1999999999999998 0.5 0  0.2999999999999998 0.5 0  0.3999999999999999 0.5 0  0.4999999999999998 0.5 0  0.5999999999999999 0.5 0  0.7 0.5 0  -1 0.3 0  -0.8765366864730181 0.4847759065022573 0  -0.9414213562373097 0.4414213562373094 0  -0.9847759065022574 0.3765366864730179 0  -0.838268343236509 0.4923879532511287 0  -0.9089790213551638 0.4630986313697834 0  -0.9630986313697836 0.4089790213551636 0  -0.9923879532511287 0.338268343236509 0  -0.8191341716182545 0.4961939766255643 0  -0.8574025148547635 0.488581929876693 0  -0.892757853914091 0.4739372689360203 0  -0.9252001887962368 0.4522599938035464 0  -0.9522599938035466 0.4252001887962365 0  -0.9739372689360205 0.3927578539140908 0  -0.9885819298766931 0.3574025148547634 0  -0.9961939766255643 0.3191341716182545 0  -1 0.275 0  -1 -0.275 0  -1 -0.225 0  -1 -0.175 0  -1 -0.125 0  -1 -0.07499999999999994 0  -1 -0.02499999999999987 0  -1 0.0250000000000002 0  -1 0.07500000000000026 0  -1 0.1250000000000003 0  -1 0.1750000000000002 0  -1 0.2250000000000001 0  -1 -0.3 0  -1 -0.25 0  -1 -0.15 0  -1 -0.04999999999999991 0  -1 0.05000000000000023 0  -1 0.1500000000000002 0  -1 0.2500000000000001 0  -1 -0.2 0  -1 -0.09999999999999998 0  -1 1.665334536937735e-16 0  -1 0.1000000000000003 0  -1 0.2000000000000002 0  -0.9847759065022574 -0.3765366864730179 0  -0.9414213562373096 -0.4414213562373094 0  -0.8765366864730181 -0.4847759065022573 0  -0.9923879532511287 -0.338268343236509 0  -0.9630986313697836 -0.4089790213551636 0  -0.9089790213551638 -0.4630986313697834 0  -0.838268343236509 -0.4923879532511287 0  -0.9961939766255643 -0.3191341716182545 0  -0.9885819298766931 -0.3574025148547634 0  -0.9739372689360205 -0.3927578539140908 0  -0.9522599938035465 -0.4252001887962365 0  -0.9252001887962367 -0.4522599938035464 0  -0.892757853914091 -0.4739372689360203 0  -0.8574025148547635 -0.488581929876693 0  -0.8191341716182545 -0.4961939766255643 0  -0.3000000000000003 0.3267949192431125 0  0.3181343990330772 -0.3439416921723297 0  -0.08257249764926196 -0.3383308877677023 0  -0.50979744334887 -0.3255818518047211 0  0.5060441378325211 0.3274561643884037 0  0.1037631564626732 0.3131559137665553 0  0.843149210446875 -0.1923130104173427 0  -0.8418263458721231 0.1927503215247096 0  -0.8408809410250262 -0.1897116835785854 0  0.8409071959036176 0.1896235182386696 0  0.705967194587281 0.3354524287114743 0  0.6276370409402552 0.1658336215477063 0  0.4215070288293651 0.1446794873901968 0  0.5369019087152576 -0.01677883310260353 0  0.3378219718963524 -0.0304857337078401 0  0.7359191653189867 -0.0003779706345871367 0  0.2206709281181736 0.1292871338121241 0  0.1390057666500616 -0.05482518983879574 0  0.02156604114872933 0.1091113821954512 0  -0.05991856886335568 -0.07544049830328706 0  -0.2091026540303009 0.113218101697482 0  -0.2557387210741711 -0.08957125969209863 0  -0.3742518736706093 0.02381865171750689 0  -0.7065883696935737 -0.3351547375041799 0  -0.6319769825415822 -0.1640183941417108 0  -0.7379485134301987 -0.0003221286420197649 0  -0.6263925638672921 0.1747922261462193 0  0.7000000000000003 -0.3471147448144379 0  -0.09731754444756222 0.2985839976753261 0  -0.7019016658227 0.339872535812372 0  -0.5036626740707574 0.3416097573515475 0  0.3086642085404555 0.31909644989288 0  0.4355889359290377 -0.1794947220360297 0  0.1233906847482294 -0.33992001942789 0  -0.2910439982708135 -0.2942818290560931 0  0.6252598700683595 -0.1832373653183336 0  -0.4390211493546888 -0.1414717198202583 0  -0.5445756908252299 0.01225332998817602 0  0.5094027625036279 -0.3483114655372777 0  -0.8570298735864267 0.3548088427148782 0  0.2432245006188761 -0.181388344807941 0  0.8576591493456415 0.3532994606374906 0  -0.8577781333911819 -0.3532575554640149 0  0.856914113336837 -0.3561698222938181 0  -0.4103395160999327 0.186370105143853 0  0.04059278020228735 -0.1932320619509051 0  -0.894759031223147 0.000141425932117211 0  0.8948577502800618 -0.0001596971477125707 0  -0.1430838089440986 -0.1942958300671257 0  -0.4774576034625814 0.09931171756601452 0  -0.5183660399836124 0.1805811656450362 0  -0.585484127346261 0.09352277806719765 0  -0.3551697580499665 0.2565825121934828 0  -0.3097210850651168 0.1497941034206675 0  -0.2545513270151506 0.2200065104702973 0  -0.3922956948852711 0.10509437843068 0  -0.4594137822479196 0.01803599085284146 0  -0.1532100992389315 0.205901049686404 0  -0.1986587722237813 0.3126894584592193 0  -0.1486587722237813 0.399291998837663 0  -0.04865877222378117 0.399291998837663 0  0.5673313162859936 -0.2657744154278056 0  0.6047013812518141 -0.3477131051758577 0  0.6626299350341799 -0.2651760550663858 0  0.4724958492163328 -0.2639030937866537 0  0.5304244029986986 -0.1813660436771817 0  -0.3650325738127511 -0.2178767744381757 0  -0.4744092963517794 -0.2335267858124897 0  -0.4004207208098418 -0.3099318404304071 0  -0.3473799352144299 -0.1155214897561785 0  -0.2733913596724923 -0.1919265443740958 0  0.06266459880570127 0.2111336479810033 0  0.1211184846334515 0.1191992580037876 0  0.1622170422904234 0.2212215237893397 0  
[...]
<PointData  Vectors="f_503"> 
<DataArray  type="Float64"  Name="f_503"  NumberOfComponents="3" format="ascii">-1.2596904764893759e-03 6.3974154062847715e-03 0.0000000000000000e+00  -3.0572671519786776e-04 9.4144716498210601e-02 0.0000000000000000e+00  -6.4805140922463754e-04 8.5988494054520359e-02 0.0000000000000000e+00  -9.2870895790057287e-04 7.6082291860557677e-02 0.0000000000000000e+00  -1.1480483251185823e-03 6.4822761867860915e-02 0.0000000000000000e+00  -1.5098763716222263e-03 5.6001921545944251e-02 0.0000000000000000e+00  -1.5878582388608412e-03 4.3440415569347517e-02 0.0000000000000000e+00  -1.5730692303841537e-03 3.2618523008418165e-02 0.0000000000000000e+00  -1.5005955465002777e-03 2.3086442018496505e-02 0.0000000000000000e+00  5.0836975279264696e-05 9.9722306324758370e-02 0.0000000000000000e+00  -1.1423471853684568e-03 2.4623968100943009e-04 0.0000000000000000e+00  -1.0408584702525116e-03 -1.1046925058292157e-02 0.0000000000000000e+00  -9.3437489283182309e-04 -2.4237432999351525e-02 0.0000000000000000e+00  -7.9267263689392173e-04 -3.4740618854810446e-02 0.0000000000000000e+00  -6.5601427224565127e-04 -4.7999499134654233e-02 0.0000000000000000e+00  -6.7420199532816608e-05 -6.1394672720123125e-02 0.0000000000000000e+00  1.4419380179606912e-02 -5.4173319447536714e-02 0.0000000000000000e+00  -3.5002717923024395e-03 -1.7080484180069941e-01 0.0000000000000000e+00  4.1195293908092586e-04 1.0169603885183240e-01 0.0000000000000000e+00  7.2705770303487037e-04 9.9854412019399097e-02 0.0000000000000000e+00  9.6816501450677219e-04 9.4276619406235829e-02 0.0000000000000000e+00  1.1119155860240557e-03 8.5553338653318559e-02 0.0000000000000000e+00  1.1873259814105331e-03 7.4372461519321212e-02 0.0000000000000000e+00  1.2017421367101094e-03 6.1291232459441743e-02 0.0000000000000000e+00  1.1682887691643233e-03 4.6482767293950088e-02 0.0000000000000000e+00  1.0827256315680638e-03 3.3585538816278744e-02 0.0000000000000000e+00  1.0011959838803746e-03 1.8390279088329218e-02 0.0000000000000000e+00  9.1432533293254797e-04 3.4350610377432314e-03 0.0000000000000000e+00  8.2527432317038116e-04 -1.2301996854937077e-02 0.0000000000000000e+00  7.3458031618590903e-04 -2.5253961034616766e-02 0.0000000000000000e+00  6.1803509093834319e-04 -4.1426858485785395e-02 0.0000000000000000e+00  9.5105970178627084e-05 -5.5797189671029007e-02 0.0000000000000000e+00  -1.3300416084532311e-02 -4.5221914375148074e-02 0.0000000000000000e+00  1.2449881522438514e-04 -7.8490645866617012e-02 0.0000000000000000e+00  -6.3787272497771070e-05 -8.2522004226473961e-02 0.0000000000000000e+00  -7.3647901119987984e-04 -4.1156060818362032e-02 0.0000000000000000e+00  -9.8943021933398665e-04 -1.6635112687800043e-02 0.0000000000000000e+00  -1.1954500861519077e-03 6.7517613437433430e-03 0.0000000000000000e+00  -1.5479642997053239e-03 2.7557858973779284e-02 0.0000000000000000e+00  -1.5675188401826712e-03 4.8573063694100846e-02 0.0000000000000000e+00  -1.0413736194305509e-03 7.0783552944699679e-02 0.0000000000000000e+00  -4.8239569278443723e-04 9.0360709891141602e-02 0.0000000000000000e+00  5.8948138067779299e-04 -5.0966205272826290e-02 0.0000000000000000e+00  8.5809720956956780e-04 9.7506693362674854e-02 0.0000000000000000e+00  1.1578776981685500e-03 8.0314972660510103e-02 0.0000000000000000e+00  1.1905479971849662e-03 5.4453283295977047e-02 0.0000000000000000e+00  1.0426169188391830e-03 2.5786410616160930e-02 0.0000000000000000e+00  8.6976159173902457e-04 -3.9393925494946398e-03 0.0000000000000000e+00  6.8769520509019786e-04 -3.4055894511973508e-02 0.0000000000000000e+00  2.3463865698301461e-04 1.0114574892933008e-01 0.0000000000000000e+00  3.6561282320226457e-03 -1.9854204705617082e-01 0.0000000000000000e+00  7.7924437680198090e-04 -1.8666106017910675e-02 0.0000000000000000e+00  9.5831262283903665e-04 1.0932780254339391e-02 0.0000000000000000e+00  1.1335689255588240e-03 3.9838095413725072e-02 0.0000000000000000e+00  1.2013478855291528e-03 6.8041864757147436e-02 0.0000000000000000e+00  1.0538537462347465e-03 9.0229448693321210e-02 0.0000000000000000e+00  5.7739468550509893e-04 1.0126165458103414e-01 0.0000000000000000e+00  -1.2965601859830000e-04 9.7339016321532690e-02 0.0000000000000000e+00  -7.9770390857898134e-04 8.1206523885594212e-02 0.0000000000000000e+00  -1.3172299228513503e-03 6.0949701554424258e-02 0.0000000000000000e+00  -1.5879648832523049e-03 3.7932844159313139e-02 0.0000000000000000e+00  -1.4688652552422800e-03 1.1627651835310254e-02 0.0000000000000000e+00  -1.0923077224997330e-03 -5.0517753271655539e-03 0.0000000000000000e+00  -8.9723313177442166e-04 -3.0677968901355473e-02 0.0000000000000000e+00  -6.2337627247677826e-04 -5.6652385825281155e-02 0.0000000000000000e+00  2.0006300372177776e-02 -6.8605612674230143e-04 0.0000000000000000e+00  1.8706229167657405e-03 -1.9495766760560143e-01 0.0000000000000000e+00  1.9872402104449054e-02 -2.0455506045122526e-02 0.0000000000000000e+00  -8.8470798417482885e-02 -4.7407805491676163e-04 0.0000000000000000e+00  2.4832275700752398e-02 -9.7140290734712365e-02 0.0000000000000000e+00  4.5731709969262395e-02 -5.3647343241539573e-02 0.0000000000000000e+00  5.9394515595453543e-02 -3.7488514327892380e-02 0.0000000000000000e+00  5.5815260293875513e-02 -8.8696415066520581e-03 0.0000000000000000e+00  1.9679756516942218e-02 -1.4969225358868440e-01 0.0000000000000000e+00  -2.5565746917195247e-02 4.6815244398005579e-02 0.0000000000000000e+00  1.1434595375865428e-01 -1.8277184700876864e-01 0.0000000000000000e+00  -1.7416664709342607e-02 -1.2534923065159451e-02 0.0000000000000000e+00  1.0990069019460236e-01 -8.0132203659160489e-02 0.0000000000000000e+00  -3.7761734392265031e-02 3.8453428849451916e-03 0.0000000000000000e+00  1.4441328608481249e-01 -1.7643540166366437e-02 0.0000000000000000e+00  2.9236608343949991e-02 -9.3375594095173320e-03 0.0000000000000000e+00  7.9990707073318540e-02 2.3526229043855352e-03 0.0000000000000000e+00  8.3050814755831870e-02 -1.6912461784617566e-03 0.0000000000000000e+00  5.2208728058177396e-02 1.2531171623927071e-04 0.0000000000000000e+00  4.0862652720611278e-02 2.4286550789513238e-04 0.0000000000000000e+00  3.3752064172164344e-02 1.8024228227252442e-04 0.0000000000000000e+00  2.7853150985092220e-02 9.0445273597577705e-05 0.0000000000000000e+00  2.5952315758155570e-02 2.8383390274844051e-05 0.0000000000000000e+00  2.5952385303423860e-02 -2.9655953130542868e-05 0.0000000000000000e+00  2.7831198906613588e-02 -9.1656102603453340e-05 0.0000000000000000e+00  3.3679842213213074e-02 -1.8158323590329082e-04 0.0000000000000000e+00  4.0735243148726244e-02 -2.4012068415847409e-04 0.0000000000000000e+00  5.1804918687481168e-02 -1.0042614447472456e-04 0.0000000000000000e+00  1.7014042166639674e-02 8.9446191837159680e-04 0.0000000000000000e+00  5.2741848517695304e-02 6.3842513349245892e-04 0.0000000000000000e+00  3.6638674535119549e-02 2.2033860435127591e-04 0.0000000000000000e+00  2.6913686914336092e-02 5.7814793845461832e-05 0.0000000000000000e+00  2.6922979196473639e-02 -5.9061592475224063e-05 0.0000000000000000e+00  3.6561619842638705e-02 -2.2050543424499965e-04 0.0000000000000000e+00  5.3274931008333415e-02 -6.4799071994543420e-04 0.0000000000000000e+00  4.4985313484454996e-02 3.1770664728676603e-04 0.0000000000000000e+00  3.0343992335907507e-02 1.4445410163850997e-04 0.0000000000000000e+00  2.5692349196891107e-02 -6.4071687475730566e-07 0.0000000000000000e+00  3.0315391555311141e-02 -1.4563510282885372e-04 0.0000000000000000e+00  4.4976561356954825e-02 -3.1579137242915680e-04 0.0000000000000000e+00  -3.5035645262943616e-03 2.0476495150549351e-01 0.0000000000000000e+00  -9.0737238000951778e-02 2.4960756049891711e-03 0.0000000000000000e+00  1.1894448895811571e-02 1.3781353230015544e-02 0.0000000000000000e+00  5.0583543235878667e-03 2.2394640940863386e-01 0.0000000000000000e+00  5.4996138300308445e-02 8.3484671223827966e-03 0.0000000000000000e+00  5.9537800578657811e-02 3.6723142948976377e-02 0.0000000000000000e+00  4.5169196847068625e-02 5.1414222862419777e-02 0.0000000000000000e+00  2.5667951974873957e-02 9.8066297237813141e-02 0.0000000000000000e+00  2.5103510504513593e-02 8.4525974242158786e-03 0.0000000000000000e+00  1.5302701611331629e-01 1.9621553751406548e-02 0.0000000000000000e+00  -4.4179260080245329e-02 -8.5122382194506192e-03 0.0000000000000000e+00  1.1289127543691997e-01 8.2028942248467351e-02 0.0000000000000000e+00  -2.2294423579264609e-02 6.6852514118958773e-03 0.0000000000000000e+00  1.2117181858670203e-01 1.9414661838982006e-01 0.0000000000000000e+00  -2.6322926164773081e-02 -5.4638134355126766e-02 0.0000000000000000e+00  1.9957675087729367e-02 1.5694175544742461e-01 0.0000000000000000e+00  -3.0294920525635179e-04 -1.1727167825704773e-01 0.0000000000000000e+00  5.2335485701189147e-05 5.8171074192082436e-02 0.0000000000000000e+00  6.5098983118389172e-04 4.3268885092500715e-02 0.0000000000000000e+00  7.8815460050813129e-04 2.8141179655150343e-02 0.0000000000000000e+00  9.2321853603925298e-04 1.3674322141343568e-02 0.0000000000000000e+00  1.0294963397528474e-03 -2.4122981724599142e-03 0.0000000000000000e+00  1.1299730044430027e-03 -1.8045159107365691e-02 0.0000000000000000e+00  1.2264041871139623e-03 -3.3404912325467551e-02 0.0000000000000000e+00  1.3435829928958090e-03 -4.8723994065942168e-02 0.0000000000000000e+00  1.3863682290467018e-03 -6.4956319921923619e-02 0.0000000000000000e+00  1.3754293122676825e-03 -8.0065558999547301e-02 0.0000000000000000e+00  1.2991963095150968e-03 -9.3105621523630444e-02 0.0000000000000000e+00  1.1707946913056631e-03 -1.0624758902685447e-01 0.0000000000000000e+00  9.1222210859796219e-04 -1.1421051304512025e-01 0.0000000000000000e+00  5.6179866216326873e-04 -1.1884868277866760e-01 0.0000000000000000e+00  1.5013159391745576e-04 -1.1790378979202318e-01 0.0000000000000000e+00  -1.4868038265895465e-02 5.0758434202558676e-02 0.0000000000000000e+00  -7.4087241744142751e-04 -1.0844608389752723e-01 0.0000000000000000e+00  -1.1004579770552898e-03 -9.8311200859443074e-02 0.0000000000000000e+00  -1.3448504955524327e-03 -8.7954278674470018e-02 0.0000000000000000e+00  -1.3279716439778032e-03 -7.0387788973889753e-02 0.0000000000000000e+00  -1.3656921343398755e-03 -5.9176872777342529e-02 0.0000000000000000e+00  -1.3586654372854286e-03 -4.5785230835718387e-02 0.0000000000000000e+00  -1.3005168839284804e-03 -3.2549838180998471e-02 0.0000000000000000e+00  -1.1414358805373400e-03 -1.8755602136145976e-02 0.0000000000000000e+00  -1.0442436821831475e-03 -7.0609428398444082e-03 0.0000000000000000e+00  -9.5036571429613830e-04 5.7489993902956442e-03 0.0000000000000000e+00  -8.5449461665321517e-04 1.8837174422546149e-02 0.0000000000000000e+00  -7.5869405330169441e-04 3.2003287218308682e-02 0.0000000000000000e+00  -6.2801939949130772e-04 4.6240530515583501e-02 0.0000000000000000e+00  -1.9762706349479424e-05 5.9343262157990295e-02 0.0000000000000000e+00  1.5201095600446598e-02 4.6365087632286459e-02 0.0000000000000000e+00  3.4414575041314330e-03 1.9924004424621936e-01 0.0000000000000000e+00  -1.3962489814692302e-04 8.3073942603187026e-02 0.0000000000000000e+00  -7.0828396041902185e-04 3.9445932784158290e-02 0.0000000000000000e+00  -9.0244333381121517e-04 1.2250193422257142e-02 0.0000000000000000e+00  -1.0909107003051772e-03 -1.3711787146281287e-02 0.0000000000000000e+00  -1.3371180701318415e-03 -3.9244335618643218e-02 0.0000000000000000e+00  -1.3491885432316052e-03 -6.6413009133753739e-02 0.0000000000000000e+00  -1.2410970658882131e-03 -9.2265574751537030e-02 0.0000000000000000e+00  -5.2970072362729917e-04 -1.1226148678516035e-01 0.0000000000000000e+00  3.6087744275520263e-04 -1.1988981104364829e-01 0.0000000000000000e+00  1.0547014629895958e-03 -1.1030482338590883e-01 0.0000000000000000e+00  1.3456347093961669e-03 -8.7315738354348929e-02 0.0000000000000000e+00  1.3717685473292457e-03 -5.7271130707604360e-02 0.0000000000000000e+00  1.1782201658164502e-03 -2.6071742824420232e-02 0.0000000000000000e+00  9.7797835230553870e-04 5.0922833090084668e-03 0.0000000000000000e+00  7.3168992818569334e-04 3.5406633406748905e-02 0.0000000000000000e+00  5.4585651143834083e-05 8.0859097660866422e-02 0.0000000000000000e+00  -6.0404572868745304e-04 5.5398269052169088e-02 0.0000000000000000e+00  -8.0396617110465565e-04 2.5193243647453144e-02 0.0000000000000000e+00  -9.9771731447173594e-04 -7.2118403374873399e-04 0.0000000000000000e+00  -1.2420994009576685e-03 -2.4718938498836905e-02 0.0000000000000000e+00  -1.3688507968697701e-03 -5.2573188136251434e-02 0.0000000000000000e+00  -1.3706380324168110e-03 -7.8969700859524941e-02 0.0000000000000000e+00  -9.3247164034034719e-04 -1.0354896999245734e-01 0.0000000000000000e+00  -5.9004376604920107e-05 -1.1811350377593992e-01 0.0000000000000000e+00  7.4694051722586237e-04 -1.1707824824593281e-01 0.0000000000000000e+00  1.2503883850713796e-03 -9.9892832222031144e-02 0.0000000000000000e+00  1.3884455786008110e-03 -7.2691206162085187e-02 0.0000000000000000e+00  1.3068869441354473e-03 -4.0310773290913059e-02 0.0000000000000000e+00  1.0806100427803958e-03 -1.0265961807049745e-02 0.0000000000000000e+00  8.8415272072417405e-04 2.1965873070226436e-02 0.0000000000000000e+00  6.1627617692738010e-04 5.2886409356979310e-02 0.0000000000000000e+00  -1.0431934762205487e-02 6.4669418481233705e-04 0.0000000000000000e+00  -4.7645556331964815e-03 2.2314647723278835e-01 0.0000000000000000e+00  -1.6628332042598754e-02 1.7553674262820576e-02 0.0000000000000000e+00  1.0448432606377615e-01 -3.5227286627236465e-04 0.0000000000000000e+00  -2.6164345221118549e-02 1.0000648866365650e-01 0.0000000000000000e+00  -4.6122798605677869e-02 5.2558131117568532e-02 0.0000000000000000e+00  -6.0351904857196485e-02 3.7133815857802954e-02 0.0000000000000000e+00  -5.4640384090894327e-02 8.0578315333535155e-03 0.0000000000000000e+00  -2.1293436118995732e-02 1.6112162334712812e-01 0.0000000000000000e+00  2.8295187012502443e-02 -6.0846666794134786e-02 0.0000000000000000e+00  -1.2458682086719480e-01 1.9915165090848011e-01 0.0000000000000000e+00  2.4155477286917752e-02 4.1803926406308650e-03 0.0000000000000000e+00  -1.1767172040349140e-01 8.5989816719379816e-02 0.0000000000000000e+00  5.0891188429883862e-02 -1.2236943442050877e-02 0.0000000000000000e+00  -1.5906082627486806e-01 2.0819206147235609e-02 0.0000000000000000e+00  -2.1875579909554233e-02 7.9956196567772461e-03 0.0000000000000000e+00  -8.5565939818890088e-02 -1.2526120303065528e-03 0.0000000000000000e+00  -8.1646276727486103e-02 2.4729500394677019e-03 0.0000000000000000e+00  -5.3710919203056359e-02 -8.3448059895337216e-05 0.0000000000000000e+00  -4.3157231882747379e-02 -2.3366872657759003e-04 0.0000000000000000e+00  -3.6643594691618757e-02 -1.7713930154029752e-04 0.0000000000000000e+00  -3.0876770105670828e-02 -9.1698740591477808e-05 0.0000000000000000e+00  -2.9292372315502149e-02 -2.9794561860351515e-05 0.0000000000000000e+00  -2.9310679022908535e-02 2.8198363517192073e-05 0.0000000000000000e+00  -3.1041916973285427e-02 9.0503396610337898e-05 0.0000000000000000e+00  -3.6647883200244417e-02 1.8382822824019517e-04 0.0000000000000000e+00  -4.3284080178096762e-02 2.4937028345130096e-04 0.0000000000000000e+00  -5.4183150120520086e-02 1.4492662469416020e-04 0.0000000000000000e+00  -2.3846010434951902e-02 -1.0450955667674503e-03 0.0000000000000000e+00  -5.5119090687332721e-02 -6.6253650725249936e-04 0.0000000000000000e+00  -3.9199697154572152e-02 -2.1543915238964514e-04 0.0000000000000000e+00  -3.0210251234261437e-02 -5.9157282665995838e-05 0.0000000000000000e+00  -3.0214247624509357e-02 5.7664271573024128e-05 0.0000000000000000e+00  -3.9278054755831932e-02 2.2538026214220057e-04 0.0000000000000000e+00  -5.3594056446215364e-02 6.5832486855496510e-04 0.0000000000000000e+00  -4.7167528783555290e-02 -3.1216396820246315e-04 0.0000000000000000e+00  -3.3330886346164580e-02 -1.4567281565868831e-04 0.0000000000000000e+00  -2.9068335730960335e-02 -8.1238544920153200e-07 0.0000000000000000e+00  -3.3408634283104692e-02 1.4571804694756720e-04 0.0000000000000000e+00  -4.7050217733511340e-02 3.2670429047548523e-04 0.0000000000000000e+00  8.0720352732471093e-02 -3.5377480314605974e-03 0.0000000000000000e+00  -1.2107585226605716e-02 -1.4203419159523755e-02 0.0000000000000000e+00  -3.8858461751470619e-03 -2.1383522902460272e-01 0.0000000000000000e+00  -5.6922994120879596e-02 -9.0377119645839183e-03 0.0000000000000000e+00  -5.9717213828171446e-02 -3.7306711174327968e-02 0.0000000000000000e+00  -4.5340983317496773e-02 -5.2255741657836190e-02 0.0000000000000000e+00  -2.5374020479630024e-02 -9.7955249414797912e-02 0.0000000000000000e+00  -3.0561445621259401e-02 -9.5132243035282206e-03 0.0000000000000000e+00  -1.4602763516994885e-01 -1.7947384568244813e-02 0.0000000000000000e+00  3.6477658881061734e-02 3.5737928305548151e-03 0.0000000000000000e+00  -1.0921198855637745e-01 -7.9061202678516365e-02 0.0000000000000000e+00  1.8837014037901698e-02 -1.1173764105672926e-02 0.0000000000000000e+00  -1.1715633129291436e-01 -1.8752203742941956e-01 0.0000000000000000e+00  2.4816739628831741e-02 4.7319707456118631e-02 0.0000000000000000e+00  -1.9444592688852045e-02 -1.5369226036518105e-01 0.0000000000000000e+00  2.7043832473082336e-05 5.6097039690731674e-05 0.0000000000000000e+00  -9.6002820080340204e-06 -5.3989934532184549e-05 0.0000000000000000e+00  2.4542991033953615e-05 -2.1390724080030428e-06 0.0000000000000000e+00  1.6534655070742186e-05 -9.1011613996017237e-05 0.0000000000000000e+00  -1.2926553393551515e-05 8.6659728462071316e-05 0.0000000000000000e+00  -6.3838371494468604e-06 6.9806734594663123e-06 0.0000000000000000e+00  -1.0509255680961968e-05 -1.4954397832589286e-05 0.0000000000000000e+00  1.2781142003907099e-05 1.6916705725071398e-05 0.0000000000000000e+00  9.2585242718676980e-06 -1.3570930362651740e-05 0.0000000000000000e+00  -1.0763118008453695e-05 1.4940383243994356e-05 0.0000000000000000e+00  -2.6571772849306796e-05 8.5364343642521263e-05 0.0000000000000000e+00  -8.5828760928482041e-06 4.1079867267158958e-05 0.0000000000000000e+00  -6.0865923483610445e-06 4.0208014889777039e-05 0.0000000000000000e+00  1.1556941914038759e-07 2.0127739647953229e-06 0.0000000000000000e+00  2.3694626677364021e-07 7.4170017410843685e-06 0.0000000000000000e+00  2.0413681703438649e-08 4.3259423517925022e-07 0.0000000000000000e+00  -6.8912108627072310e-06 2.0936397771928870e-05 0.0000000000000000e+00  6.2136862172886432e-06 3.6048308148590281e-05 0.0000000000000000e+00  1.3583245489548284e-04 -3.8196806594851672e-05 0.0000000000000000e+00  1.8413559588540773e-04 1.1214153164558407e-05 0.0000000000000000e+00  9.1454785307134732e-05 9.3914618750441762e-05 0.0000000000000000e+00  -1.0054629380974918e-05 -7.8935627319558959e-06 0.0000000000000000e+00  -2.7287898216502937e-06 1.8052651615359038e-05 0.0000000000000000e+00  2.6182555875782796e-05 -8.5397129517572959e-05 0.0000000000000000e+00  7.0198128290481097e-06 -3.6698029532534750e-05 0.0000000000000000e+00  5.9115698083052402e-08 3.4462641612223430e-06 0.0000000000000000e+00  1.2208207813917579e-05 4.8828287236699541e-05 0.0000000000000000e+00  -2.3935772855408923e-05 -8.7475191294520289e-05 0.0000000000000000e+00  3.5058606803029402e-05 9.2542950348054953e-06 0.0000000000000000e+00  2.7767594359298317e-05 8.5530215795622422e-05 0.0000000000000000e+00  1.7578732157075012e-05 8.4191326635824759e-05 0.0000000000000000e+00  -1.4371426051349435e-05 5.7754428988229030e-05 0.0000000000000000e+00  -3.8103549921828721e-06 -3.5769211106976548e-05 0.0000000000000000e+00  -4.0439063010178100e-06 -7.3223518519331638e-06 0.0000000000000000e+00  3.5443401309068868e-05 -6.6973409814298854e-05 0.0000000000000000e+00  -7.2598143805306013e-06 -3.9928920969885181e-05 0.0000000000000000e+00  4.9472498298506465e-06 -3.8296589423012298e-05 0.0000000000000000e+00  1.2397110386946854e-06 1.3350751457425256e-05 0.0000000000000000e+00  -9.9104253338569935e-06 -8.3422257048954660e-05 0.0000000000000000e+00  2.5545261032451812e-05 3.8383749440508121e-05 0.0000000000000000e+00  -1.4358798836