<?xml version="1.0"?>
<VTKFile type="UnstructuredGrid"  version="0.1"  >
<UnstructuredGrid>
<Piece  NumberOfPoints="4153" NumberOfCells="8064">
<Points>
<DataArray  type="Float64"  NumberOfComponents="3"  format="ascii">-0.4024463474789959 -0.4860560628867392 0  -0.0253207394150775 -0.5309207538296916 0  -0.07278929914081927 -0.5276492908451168 0  -0.1201057274593526 -0.5235459682508766 0  -0.1673028834980037 -0.5189642943336581 0  -0.2145197460636528 -0.5141063743843289 0  -0.261707732781702 -0.5080495637706728 0  -0.3087787706911932 -0.501234374182602 0  -0.355716218903075 -0.4938689867058357 0  0.02229109564320119 -0.5330492598538535 0  -0.4490784938702139 -0.4786263192414337 0  -0.4956034483433081 -0.4711320199277117 0  -0.5420085552614414 -0.4637214968670392 0  -0.5882730573243884 -0.4566814247683603 0  -0.6344182590151337 -0.4499633503282174 0  -0.6803871251120445 -0.4437079167514245 0  -0.7261627732920519 -0.4380488699841359 0  0.7502091094652482 -0.4505334884396514 0  0.07001531125972596 -0.5338283374648033 0  0.1178042246979836 -0.5330964772740333 0  0.1655929972502257 -0.5307931860007763 0  0.2133055012613935 -0.5269917055507195 0  0.2608931957296698 -0.521994417367026 0  0.3083344709181881 -0.5159952786517253 0  0.3556082954692912 -0.5092025009427724 0  0.4026980760443378 -0.5019149768277097 0  0.4496126029878055 -0.4943203908645171 0  0.4963568375371551 -0.486620959949393 0  0.5429322752112193 -0.478964161629223 0  0.5893397192269222 -0.4715718470351736 0  0.6355706172697001 -0.4644899690376185 0  0.6816127913705325 -0.4579855738018083 0  0.7274618851047667 -0.4522098783411606 0  0.7045468084501921 -0.4550752585041621 0  -0.7032764370264206 -0.4409339209054354 0  -0.61136560227045 -0.4532821902811663 0  -0.5188211513109275 -0.4674184843780554 0  -0.4257775630137648 -0.48239201886281 0  -0.3322642735639973 -0.4976130560236047 0  -0.2381252005976401 -0.5111794988160624 0  -0.1437150568456123 -0.5212924783015742 0  -0.04907448999528945 -0.5294101992349519 0  0.6586156598928655 -0.4611541495990518 0  0.1417030118422954 -0.5321407534405845 0  0.2371161040554955 -0.5246313802722895 0  0.3319930405412628 -0.5126888399858677 0  0.4261768044417415 -0.4981388403476809 0  0.5196654876851045 -0.4827817648073566 0  0.6124777360217466 -0.4679655173170516 0  0.04614153703136989 -0.5336189335274111 0  -0.7488138708379862 -0.4365025514294276 0  0.5661519244488591 -0.4752342218200137 0  0.4730057909298872 -0.49047440881135 0  0.3791729412782107 -0.5056016832145633 0  0.2846336052600999 -0.519107414660153 0  0.1894644228875169 -0.5290604679103379 0  0.09390549193905415 -0.5336577943739568 0  -0.001530914883008871 -0.5321435664065953 0  -0.09646551343655325 -0.5256804040618909 0  -0.1908895432952969 -0.5166583072668567 0  -0.2852592281305678 -0.5047208148676998 0  -0.3791267753305789 -0.4898954850132853 0  -0.4723551576994602 -0.4748782035307553 0  -0.5651512462682468 -0.4601310513147825 0  -0.6574259913137062 -0.4467687973645529 0  0.9319189035362496 -0.2586285802638616 0  0.8202698701145451 -0.4331240016884269 0  0.8798159081265544 -0.3913249043691217 0  0.9189461451962263 -0.330198378749016 0  0.7853338131205805 -0.4418980875979783 0  0.8504139075924028 -0.4127340628095042 0  0.8988281508806806 -0.3603575892447239 0  0.9250949465556453 -0.2942492255547217 0  0.7678488899248364 -0.4466163477431109 0  0.8027483573933224 -0.4373207418253095 0  0.835353233419093 -0.4230355287609015 0  0.8647932292175724 -0.4015290865882221 0  0.8896561539179264 -0.376007991872195 0  0.9087016168456087 -0.3452318543386987 0  0.9218589803261485 -0.3121526247719777 0  0.928314758636737 -0.2764048475469927 0  0.9317473230822559 -0.23538012261672 0  0.9388449467871262 0.2766612173899831 0  0.9380096809878996 0.2302890057431139 0  0.9378905315636719 0.1839174866566653 0  0.9381438555745062 0.1374596693773965 0  0.9385905125466205 0.09084280021998595 0  0.938507541913622 0.04408669790202979 0  0.9378924187028371 -0.002711221507996561 0  0.9367424630623907 -0.04948853669476543 0  0.9350502919407032 -0.0961440823644779 0  0.9335101436088868 -0.1426442815025873 0  0.9322968233332056 -0.1890384947976266 0  0.9396805770270483 0.2999724723487443 0  0.93830572560987 0.2534675887993624 0  0.9379843537852437 0.160703143605939 0  0.9386170316879358 0.06747414100371665 0  0.9373859162651021 -0.0261068253665481 0  0.9342529160966165 -0.1194096009329446 0  0.9319097380849771 -0.2122109771313211 0  0.9378930540593848 0.2071096812400733 0  0.9383908167243523 0.1141804697861373 0  0.938264719370707 0.02068912387443114 0  0.9359236808090113 -0.07284379060483465 0  0.9328513164773858 -0.1658521267072529 0  0.7639068922396508 0.4963539313936506 0  0.9286010760009291 0.3719869830691581 0  0.8910817447210024 0.4339941130768776 0  0.8329215265066059 0.4772608535360671 0  0.9338336075987542 0.3357696489782428 0  0.9093183005760709 0.4025416534965701 0  0.8624837995159436 0.4561999436706944 0  0.7985573063539561 0.4870084051759964 0  0.9365465435200406 0.3178218127714583 0  0.9310670584553106 0.3537968064978158 0  0.91877020941261 0.3872026149337212 0  0.9005722272167845 0.4184461772580815 0  0.8764498684045765 0.4445429106023507 0  0.8477202817457463 0.4668360606044917 0  0.8156980971387515 0.4819593863522451 0  0.7813180168027134 0.4921615913366104 0  -0.02125187734945076 0.6301231167689869 0  0.6961959383284807 0.5072102466125359 0  0.6505806451212856 0.5163559760457967 0  0.604674701388489 0.5263156493223285 0  0.5584979660288965 0.5369515012437264 0  0.5120053878689682 0.5481595974285935 0  0.4651879591603947 0.5596474885093177 0  0.4180281747578477 0.5712120427521892 0  0.370507183595894 0.5826833924729276 0  0.32258439400652 0.5936840747772772 0  0.2742830859696826 0.6038301961993708 0  0.2256225243434224 0.6128190375879923 0  0.1766219961685147 0.6204160433367649 0  0.127337148410238 0.6260289391384194 0  0.0778772224987538 0.6295142158191624 0  0.02833484609224465 0.6308210980155913 0  0.7415243290967535 0.4990128997015343 0  -0.07076847581343615 0.6267586273874204 0  -0.1200520273879609 0.6211621052695306 0  -0.1690096462555565 0.6136744087249441 0  -0.2175129071065785 0.6045145301656947 0  -0.2655839293890602 0.5951042318610251 0  -0.3133313283608422 0.5854057809766612 0  -0.3607928595013216 0.5755259185803006 0  -0.4079713269123097 0.5655983619195846 0  -0.4549222146399438 0.5559244680601141 0  -0.5016648997432336 0.5464449372386587 0  -0.5482037009727903 0.5372374708537178 0  -0.5945345850395769 0.5283957935003505 0  -0.6406400950504628 0.5200422843116871 0  -0.6865056467265849 0.5123766441583505 0  -0.7321237394473412 0.5055091934484125 0  -0.7546889799214185 0.5034364252587963 0  -0.7093261423854773 0.5089497286936145 0  -0.6176160876152876 0.5241424269254571 0  -0.5249599648207404 0.5418019492799664 0  -0.431474108057853 0.5607484584189805 0  -0.3370960866826234 0.5804848165293436 0  -0.2415934533182757 0.5998662875711549 0  -0.1445773825121695 0.6176253564142632 0  -0.04603143568005728 0.6287323569268692 0  0.05311188671740992 0.6304455333285519 0  0.1520077667140119 0.6234771681431917 0  0.2499964707410375 0.6084932133307588 0  0.3465935836471406 0.5882768877880414 0  0.4416523700691986 0.5654374995458686 0  0.5352907471259836 0.5425145402880526 0  0.6276637556658827 0.5212534422685493 0  0.7188724421845833 0.5031251085588528 0  -0.6636034508097524 0.5161138580332595 0  -0.5713952848195046 0.5327678852152451 0  -0.4783190879162236 0.551156038691433 0  -0.3844196143723943 0.5705287120739819 0  -0.2894952316672431 0.5902846216230653 0  -0.1933449600753188 0.6092010999954629 0  -0.09544579233135693 0.6242167797477283 0  0.003560409059397782 0.630770433796334 0  0.10262307378079 0.6280443442199366 0  0.2011700253673341 0.6168272319925526 0  0.2984800703815925 0.5988828155827233 0  0.3943167902636073 0.5769636315226256 0  0.4886383031616344 0.5538811128214015 0  0.5816209519951711 0.5315327604167527 0  0.67342427645947 0.5116716046767561 0  -0.9335656849083627 0.3100331169786126 0  -0.8243041243132808 0.485516252350923 0  -0.8832622827495448 0.4431830493395642 0  -0.9216239666531526 0.3817361031636439 0  -0.789623229300331 0.4946635850163892 0  -0.8542405744981949 0.4649466282684833 0  -0.9018642846187204 0.4120063233681689 0  -0.9272553032272207 0.3456828409970697 0  -0.7722417512508553 0.4995293219980879 0  -0.8069163237764199 0.4899164616273805 0  -0.8392880181414319 0.4753517247677357 0  -0.8684091002718044 0.4535153814033444 0  -0.8929446019435318 0.4277839579434357 0  -0.9115477063405905 0.3968182111753796 0  -0.9242821165534345 0.3636309433006469 0  -0.9301829064257778 0.3278108747549375 0  -0.9329902890923468 0.2867839964673838 0  -0.9303753589169976 -0.2235282829541766 0  -0.9306031616344866 -0.1773118670457787 0  -0.9314670683064731 -0.1310723156869963 0  -0.9326518964926288 -0.08474760601213532 0  -0.9340133326883123 -0.03827319173911945 0  -0.9347833164896313 0.008327171513371749 0  -0.9349812539054765 0.054950858518909 0  -0.9346168246791837 0.1015391922777064 0  -0.9336952489832842 0.1479952211822691 0  -0.9329785134412164 0.1943029137944069 0  -0.9326319339025463 0.2405389617122071 0  -0.930686200470354 -0.246730641330155 0  -0.930380468651934 -0.2004176047908479 0  -0.9320316250090379 -0.1079234827346078 0  -0.9344720778367044 -0.01498011631323475 0  -0.9348708504371164 0.07825341819241656 0  -0.9333034433290359 0.1711617826575758 0  -0.9326889329874645 0.2636541820355052 0  -0.9309853565676783 -0.1541996399408395 0  -0.9333606011572149 -0.06153941112635379 0  -0.9349509128424727 0.03163982090580084 0  -0.9341801732860885 0.1247959263632674 0  -0.9327495657282313 0.2174256774505862 0  -0.9178939152208956 -0.3181673364574172 0  -0.8786439377955702 -0.3789888133996797 0  -0.8189552868415032 -0.420271034066867 0  -0.924020553497383 -0.2822947632465142 0  -0.89777930156209 -0.3482314701211306 0  -0.8492307874231753 -0.4002608748517145 0  -0.78398374472675 -0.428675198907905 0  -0.9271753304639339 -0.2644792379995018 0  -0.9208104881010404 -
[...]
<PointData  Vectors="f_2038"> 
<DataArray  type="Float64"  Name="f_2038"  NumberOfComponents="3" format="ascii">5.9504702739841386e-03 3.6945671086288795e-02 0.0000000000000000e+00  4.9197274598812056e-03 8.5605080164129807e-02 0.0000000000000000e+00  6.8251285991297516e-03 8.6760732293982762e-02 0.0000000000000000e+00  7.7840067998774303e-03 8.3850113346227828e-02 0.0000000000000000e+00  7.3400392671855597e-03 7.4629783922935830e-02 0.0000000000000000e+00  6.4404473219191218e-03 5.5440243870853126e-02 0.0000000000000000e+00  6.4521692904234004e-03 4.7092030004422178e-02 0.0000000000000000e+00  5.8759961096937026e-03 3.8870122413220673e-02 0.0000000000000000e+00  4.0142191197883835e-03 2.4403232490004267e-02 0.0000000000000000e+00  2.4939920467017024e-03 8.0605742180453036e-02 0.0000000000000000e+00  3.0850844678785160e-03 1.9116365044523950e-02 0.0000000000000000e+00  1.8701331215780078e-03 1.1650802195357204e-02 0.0000000000000000e+00  8.6724260655748182e-04 5.5289712114773744e-03 0.0000000000000000e+00  -9.3856204812962181e-04 -6.3463067110131723e-03 0.0000000000000000e+00  -1.9934778753866894e-03 -1.4054703856013767e-02 0.0000000000000000e+00  -1.4715588326409737e-03 -1.1349601887730364e-02 0.0000000000000000e+00  8.1805689740069472e-03 7.9179368691653457e-02 0.0000000000000000e+00  3.3545257209479588e-02 -2.1467821668660400e-01 0.0000000000000000e+00  5.9466805226323543e-05 7.2688841851610730e-02 0.0000000000000000e+00  -1.9979508493265887e-03 6.2987680916332514e-02 0.0000000000000000e+00  -3.4052770430125314e-03 5.2848651390653985e-02 0.0000000000000000e+00  -4.1165214040138186e-03 4.4299239271094734e-02 0.0000000000000000e+00  -4.0383392508940349e-03 3.4739441209764348e-02 0.0000000000000000e+00  -3.5327688470042609e-03 2.6057922362432474e-02 0.0000000000000000e+00  -2.7743669210674995e-03 1.8452951298543685e-02 0.0000000000000000e+00  -2.0505990882414798e-03 1.2916091395334717e-02 0.0000000000000000e+00  -1.1423308860804761e-03 6.9787154372607779e-03 0.0000000000000000e+00  -1.6072493904679817e-04 9.7441402232758244e-04 0.0000000000000000e+00  7.4677723418522157e-04 -4.5894796779397578e-03 0.0000000000000000e+00  1.9539091731083542e-03 -1.2454363012702297e-02 0.0000000000000000e+00  2.5892956634232050e-03 -1.7511514869135821e-02 0.0000000000000000e+00  2.2721258307963907e-03 -1.6913132362649078e-02 0.0000000000000000e+00  -8.2124559539290334e-03 7.4912972483399093e-02 0.0000000000000000e+00  5.0455975316470525e-03 -4.1463586537969332e-02 0.0000000000000000e+00  -4.5976460679639647e-03 -3.8679418222631726e-02 0.0000000000000000e+00  -1.5989506096003795e-03 -1.0990374630265106e-02 0.0000000000000000e+00  1.0427496934814382e-03 6.5265464624032279e-03 0.0000000000000000e+00  3.4094138329832813e-03 2.1394755183072281e-02 0.0000000000000000e+00  5.2900180366787300e-03 3.3680372271286604e-02 0.0000000000000000e+00  6.5613913299638399e-03 5.1123071299089974e-02 0.0000000000000000e+00  7.8923745735229901e-03 8.1343907858951542e-02 0.0000000000000000e+00  5.9680762511030126e-03 8.6640250985622058e-02 0.0000000000000000e+00  3.1516022759667866e-03 -2.2411673702107487e-02 0.0000000000000000e+00  -2.7929982390435758e-03 5.7964194685104886e-02 0.0000000000000000e+00  -4.1530073798534831e-03 3.9558765911163640e-02 0.0000000000000000e+00  -3.1523724403011212e-03 2.1949042343941686e-02 0.0000000000000000e+00  -1.6006389063803648e-03 9.8832648228768614e-03 0.0000000000000000e+00  4.3887142961006494e-04 -2.6748409252317835e-03 0.0000000000000000e+00  2.1969688199133673e-03 -1.4339782296687784e-02 0.0000000000000000e+00  1.2566656971030815e-03 7.7010908130641639e-02 0.0000000000000000e+00  -2.9267307819942728e-02 -2.1174398450012258e-01 0.0000000000000000e+00  1.2177537985216219e-03 -7.6522664426066506e-03 0.0000000000000000e+00  -6.2200184583013679e-04 3.7750823176871868e-03 0.0000000000000000e+00  -2.5675481441397884e-03 1.6591191854496458e-02 0.0000000000000000e+00  -3.8256834479798627e-03 3.0259718121108413e-02 0.0000000000000000e+00  -3.8966708828163128e-03 4.8907822019896879e-02 0.0000000000000000e+00  -1.0402097617797570e-03 6.7974841538372716e-02 0.0000000000000000e+00  3.7245747727331817e-03 8.3342216776616837e-02 0.0000000000000000e+00  7.4481977340010797e-03 8.5929889071189480e-02 0.0000000000000000e+00  6.7769050500490003e-03 6.5981683299595834e-02 0.0000000000000000e+00  6.1785208458220494e-03 4.2667244192134315e-02 0.0000000000000000e+00  5.9062784906113571e-03 3.5341852657329260e-02 0.0000000000000000e+00  2.4972256814039923e-03 1.5502963108367396e-02 0.0000000000000000e+00  5.2674270526971944e-04 3.4617069368594322e-03 0.0000000000000000e+00  -2.5831847643560768e-03 -1.9127635101246567e-02 0.0000000000000000e+00  1.4975087383546429e-02 -5.7569379837334915e-04 0.0000000000000000e+00  5.2929343958068115e-02 -1.1138466947302510e-01 0.0000000000000000e+00  6.0370323950642908e-02 -4.0353644813683351e-02 0.0000000000000000e+00  -8.8544875077288504e-02 3.6701457618862982e-02 0.0000000000000000e+00  2.1565041404173188e-02 -8.1812029635314282e-02 0.0000000000000000e+00  2.2442426217986196e-02 -3.0934267608560866e-02 0.0000000000000000e+00  5.9431446257742750e-02 -3.6233554080790771e-02 0.0000000000000000e+00  3.8554960192096650e-02 -6.9881712030830977e-03 0.0000000000000000e+00  1.6564628563094656e-02 -7.3884715672477966e-02 0.0000000000000000e+00  -2.6597110061227024e-02 9.1460943068480960e-02 0.0000000000000000e+00  6.5477177726965347e-02 -1.0069029138735427e-01 0.0000000000000000e+00  -5.5809883922169796e-02 6.9665551930933933e-02 0.0000000000000000e+00  1.7353953779006143e-02 -1.0896623708660342e-02 0.0000000000000000e+00  -6.0293319439380787e-02 3.6043459828819499e-02 0.0000000000000000e+00  1.5610180837965809e-01 -2.7699647461896616e-02 0.0000000000000000e+00  1.5200263527987432e-02 -3.6576279483954218e-03 0.0000000000000000e+00  8.3518426612116267e-02 -5.6396289508939593e-04 0.0000000000000000e+00  6.4710449509320575e-02 -1.6582906473290250e-03 0.0000000000000000e+00  3.7193972679743871e-02 -3.3281889762677529e-04 0.0000000000000000e+00  2.8360393198086590e-02 5.4868862514287569e-05 0.0000000000000000e+00  2.4193341177055652e-02 2.0960479016663322e-04 0.0000000000000000e+00  2.1377055339452181e-02 1.0436169287248390e-04 0.0000000000000000e+00  2.0967287576165134e-02 -1.5761702185748593e-04 0.0000000000000000e+00  2.1021016311912558e-02 -3.9486389971362523e-04 0.0000000000000000e+00  2.1587906119946740e-02 -6.7528738304064348e-04 0.0000000000000000e+00  2.4642215555238958e-02 -8.8236144086657872e-04 0.0000000000000000e+00  2.9434140542092920e-02 -8.8717844361066521e-04 0.0000000000000000e+00  4.0483759706991959e-02 -8.1892979830625837e-04 0.0000000000000000e+00  3.1778731340404036e-02 1.8384263552722929e-03 0.0000000000000000e+00  3.9817006597493598e-02 -7.0450941957980371e-04 0.0000000000000000e+00  2.5522750706023011e-02 1.3901698087552606e-04 0.0000000000000000e+00  2.1466979480736975e-02 -3.8699667772695284e-05 0.0000000000000000e+00  2.1578787059980654e-02 -5.3045757652058238e-04 0.0000000000000000e+00  2.6286960591220456e-02 -8.7057945137818820e-04 0.0000000000000000e+00  3.8958619081651158e-02 -4.8301509450645772e-04 0.0000000000000000e+00  3.1528356760351026e-02 -8.3143578959374989e-05 0.0000000000000000e+00  2.2670245273383394e-02 2.1464390756094432e-04 0.0000000000000000e+00  2.0884787834674293e-02 -2.7457139652587505e-04 0.0000000000000000e+00  2.2291445885073299e-02 -8.0665100155141343e-04 0.0000000000000000e+00  3.2361111768993284e-02 -8.4378251971570196e-04 0.0000000000000000e+00  3.7794840047145485e-02 2.0294463462081722e-01 0.0000000000000000e+00  -4.5374226734774141e-02 -1.7567081329310789e-02 0.0000000000000000e+00  5.3045452585267654e-02 3.5421684721544479e-02 0.0000000000000000e+00  4.9156026400362006e-02 9.7049974805568470e-02 0.0000000000000000e+00  4.3578720494106646e-02 6.6589797691055629e-03 0.0000000000000000e+00  5.4595301611316885e-02 3.1394436204931507e-02 0.0000000000000000e+00  2.3790153365982190e-02 3.0771741917444605e-02 0.0000000000000000e+00  2.3076464285292038e-02 7.8518688367101658e-02 0.0000000000000000e+00  2.9976892819092646e-02 5.2287944219311516e-03 0.0000000000000000e+00  1.1746296466185419e-01 1.7395930062954673e-02 0.0000000000000000e+00  -2.8941102907117593e-02 -1.5405636444936702e-02 0.0000000000000000e+00  1.5606934828923119e-02 8.7325304699001193e-03 0.0000000000000000e+00  -4.0500337766175482e-02 -4.6546038407824501e-02 0.0000000000000000e+00  5.8204360503616714e-02 8.4618035999153268e-02 0.0000000000000000e+00  -1.9921366977935659e-02 -5.9914102164907966e-02 0.0000000000000000e+00  1.6361596420529378e-02 6.5079577045483464e-02 0.0000000000000000e+00  2.7401841152214076e-03 -6.6331855177932775e-02 0.0000000000000000e+00  1.5814688633414827e-03 8.1606078887706286e-03 0.0000000000000000e+00  2.7902212999828635e-03 1.3273613183020097e-02 0.0000000000000000e+00  1.7137568586082232e-03 7.6840129378833305e-03 0.0000000000000000e+00  5.1775096963603659e-04 2.1757848894755146e-03 0.0000000000000000e+00  -2.1238535464297787e-04 -8.7395431488840780e-04 0.0000000000000000e+00  -9.7858483088332504e-04 -3.9779828188485182e-03 0.0000000000000000e+00  -2.0857349694538216e-03 -8.5655563972464027e-03 0.0000000000000000e+00  -2.4580492821417266e-03 -1.0362505385128767e-02 0.0000000000000000e+00  -3.6799192711295461e-03 -1.6690393123937837e-02 0.0000000000000000e+00  -4.8827130715825683e-03 -2.4632050321614155e-02 0.0000000000000000e+00  -5.7745461666437103e-03 -3.3838531681608282e-02 0.0000000000000000e+00  -5.8133075597809475e-03 -4.3044006381234422e-02 0.0000000000000000e+00  -4.7409689632238895e-03 -5.1298870790089914e-02 0.0000000000000000e+00  -2.8454132987162078e-03 -5.8688013354001423e-02 0.0000000000000000e+00  -4.0145566810043906e-04 -6.2743524799523692e-02 0.0000000000000000e+00  -1.2535472237234620e-02 -8.0727943252817888e-02 0.0000000000000000e+00  5.9547738313496220e-03 -6.5184353301589559e-02 0.0000000000000000e+00  8.5497993521001913e-03 -6.3773470767503462e-02 0.0000000000000000e+00  1.0645901916735010e-02 -6.1769762458029377e-02 0.0000000000000000e+00  1.1797002834359440e-02 -6.1003502992472307e-02 0.0000000000000000e+00  1.1145843280993006e-02 -5.5722489552630497e-02 0.0000000000000000e+00  9.9024199201080635e-03 -4.8100956866618479e-02 0.0000000000000000e+00  8.3355233570908335e-03 -3.9626393518513041e-02 0.0000000000000000e+00  7.1267152570676055e-03 -3.4285148072726618e-02 0.0000000000000000e+00  4.9995134650823976e-03 -2.4417249476535646e-02 0.0000000000000000e+00  3.1221359660051342e-03 -1.5568790243397683e-02 0.0000000000000000e+00  1.3442542281515775e-03 -6.9123440401540302e-03 0.0000000000000000e+00  -3.4994755677667319e-04 1.8689222795006328e-03 0.0000000000000000e+00  -1.7487748207233628e-03 9.9786853835506732e-03 0.0000000000000000e+00  -1.6645545392331156e-03 1.0392744113750602e-02 0.0000000000000000e+00  9.4295878740618729e-03 -7.3659977174450789e-02 0.0000000000000000e+00  -3.2979765104222916e-02 2.0089672172761028e-01 0.0000000000000000e+00  -5.0348317229177812e-03 3.4681878638668680e-02 0.0000000000000000e+00  -1.0063440254403032e-03 5.5587741520139169e-03 0.0000000000000000e+00  2.2165291805680710e-03 -1.1204069980115531e-02 0.0000000000000000e+00  5.9571234826444140e-03 -2.8909795029072462e-02 0.0000000000000000e+00  9.1420989047774973e-03 -4.3917176961783995e-02 0.0000000000000000e+00  1.1726845346057262e-02 -5.9901689900990450e-02 0.0000000000000000e+00  9.4552719788577946e-03 -6.1762414608423605e-02 0.0000000000000000e+00  4.3914481797075978e-03 -6.4830164038875371e-02 0.0000000000000000e+00  -1.6414078691652501e-03 -6.2059910616136797e-02 0.0000000000000000e+00  -5.3412733796357522e-03 -4.6877205937812472e-02 0.0000000000000000e+00  -5.4085276328534708e-03 -2.9296603592322456e-02 0.0000000000000000e+00  -3.0254514643947073e-03 -1.3180117118180299e-02 0.0000000000000000e+00  -1.3503504069198244e-03 -5.5062660611862515e-03 0.0000000000000000e+00  3.6427652528664135e-04 1.5115042757540534e-03 0.0000000000000000e+00  2.4988150924128271e-03 1.1526408457699144e-02 0.0000000000000000e+00  6.2225667622932976e-03 3.5553075310877105e-02 0.0000000000000000e+00  -2.5243134773255170e-03 1.5218458366062644e-02 0.0000000000000000e+00  4.6046174964277695e-04 -2.4114920066008239e-03 0.0000000000000000e+00  4.0806455993742585e-03 -2.0121856420864122e-02 0.0000000000000000e+00  7.8993112504316659e-03 -3.7549133740000074e-02 0.0000000000000000e+00  1.0613939438048002e-02 -5.2256694780021797e-02 0.0000000000000000e+00  1.1695298543991327e-02 -6.1898357749613532e-02 0.0000000000000000e+00  7.3099384780786637e-03 -6.4397374636649865e-02 0.0000000000000000e+00  9.2665210655859087e-04 -6.6152300424444893e-02 0.0000000000000000e+00  -3.8807377148371968e-03 -5.5075945104903351e-02 0.0000000000000000e+00  -6.0396133451145412e-03 -3.8962591123894982e-02 0.0000000000000000e+00  -4.3032567991520485e-03 -2.0490520526824048e-02 0.0000000000000000e+00  -2.5100309701520671e-03 -1.0391406362916883e-02 0.0000000000000000e+00  -5.4291994377160611e-04 -2.2123600631910804e-03 0.0000000000000000e+00  5.0079179505900778e-04 2.1660764753322699e-03 0.0000000000000000e+00  3.4735577676770703e-03 1.7453631512401094e-02 0.0000000000000000e+00  -2.8012181842855973e-02 1.7875520951619252e-03 0.0000000000000000e+00  -4.6365689623750241e-02 9.5351473747332161e-02 0.0000000000000000e+00  -5.5933235749669907e-02 3.8500098572803843e-02 0.0000000000000000e+00  6.0090593630192986e-02 -2.4026703451701541e-02 0.0000000000000000e+00  -2.1395065322902966e-02 7.7995752036384022e-02 0.0000000000000000e+00  -2.2309466180182411e-02 2.9862174306270087e-02 0.0000000000000000e+00  -5.5939593333916071e-02 3.3128398333064656e-02 0.0000000000000000e+00  -4.1177052125817661e-02 6.8040329339251757e-03 0.0000000000000000e+00  -1.4920888710238951e-02 6.4368710515154470e-02 0.0000000000000000e+00  1.9700025749105090e-02 -6.3248497885447078e-02 0.0000000000000000e+00  -5.7293812874007304e-02 8.6502880311528460e-02 0.0000000000000000e+00  4.3838802509669310e-02 -5.2481828867005864e-02 0.0000000000000000e+00  -1.1821266602599868e-02 6.8537593773397611e-03 0.0000000000000000e+00  3.9080284660955263e-02 -2.2196221156507795e-02 0.0000000000000000e+00  -1.2736721349243335e-01 2.0426108844613728e-02 0.0000000000000000e+00  -2.4100640405282241e-02 4.7149042863759670e-03 0.0000000000000000e+00  -6.7611700896112112e-02 -9.3172953679217989e-04 0.0000000000000000e+00  -7.3069265155430302e-02 6.0415675598614152e-05 0.0000000000000000e+00  -3.6882665545075147e-02 -4.8036882354267254e-04 0.0000000000000000e+00  -2.6304399738433865e-02 -5.9385663895000470e-04 0.0000000000000000e+00  -2.1190806475332613e-02 -6.0548367911828405e-04 0.0000000000000000e+00  -1.8053396816730634e-02 -4.3127069129202285e-04 0.0000000000000000e+00  -1.7271752924827913e-02 -1.7758126426899116e-04 0.0000000000000000e+00  -1.7144167706690541e-02 2.9628022756034827e-05 0.0000000000000000e+00  -1.7704472547020463e-02 2.6311952171254093e-04 0.0000000000000000e+00  -2.0552575827491069e-02 3.8695815502733739e-04 0.0000000000000000e+00  -2.5498335616304268e-02 3.0442995905357321e-04 0.0000000000000000e+00  -3.5633912598267987e-02 4.5008147874135124e-05 0.0000000000000000e+00  -2.3948412563705473e-02 -1.5626476969685193e-03 0.0000000000000000e+00  -3.7848263624563845e-02 -2.0306057774858324e-04 0.0000000000000000e+00  -2.3030139211396593e-02 -5.8911355047717236e-04 0.0000000000000000e+00  -1.7918122492263103e-02 -2.9582464602901645e-04 0.0000000000000000e+00  -1.7658069979912754e-02 1.3773631319911496e-04 0.0000000000000000e+00  -2.2298881826410617e-02 3.4510002024343072e-04 0.0000000000000000e+00  -3.7419261929300500e-02 -2.7478644203876980e-04 0.0000000000000000e+00  -2.9668773739760242e-02 -5.5222697072781482e-04 0.0000000000000000e+00  -1.9035094091491615e-02 -5.5563291843176556e-04 0.0000000000000000e+00  -1.7075987329938213e-02 -7.2526090369440978e-05 0.0000000000000000e+00  -1.8696074471455323e-02 3.6885046651742728e-04 0.0000000000000000e+00  -2.8884332889428283e-02 2.1435199465892767e-04 0.0000000000000000e+00  6.2259265944775093e-02 2.5947245232834246e-02 0.0000000000000000e+00  -5.3327190208884781e-02 -3.6413339912035346e-02 0.0000000000000000e+00  -4.7188579265697375e-02 -1.0229759286020890e-01 0.0000000000000000e+00  -4.0174819914853575e-02 -7.1944651667444808e-03 0.0000000000000000e+00  -5.5693674817895035e-02 -3.4279321956626772e-02 0.0000000000000000e+00  -2.1755516170935386e-02 -3.0319551037772719e-02 0.0000000000000000e+00  -2.0035823892949958e-02 -8.0993843570921237e-02 0.0000000000000000e+00  -2.2742233954953464e-02 -4.7922536355548767e-03 0.0000000000000000e+00  -1.3402507617221823e-01 -2.3586924579267175e-02 0.0000000000000000e+00  4.0853625165825469e-02 2.3948017069652085e-02 0.0000000000000000e+00  -1.4385893640650968e-02 -8.8184916437262784e-03 0.0000000000000000e+00  4.4561632283386006e-02 5.5160118946879555e-02 0.0000000000000000e+00  -5.8973584690372220e-02 -9.2570887293798809e-02 0.0000000000000000e+00  1.8385913051970629e-02 6.3915992639519414e-02 0.0000000000000000e+00  -1.3557523940917329e-02 -6.6644448979421136e-02 0.0000000000000000e+00  7.0287871283800122e-09 -3.4719987250619819e-08 0.0000000000000000e+00  -2.7631149461210688e-09 2.2304405320324202e-08 0.0000000000000000e+00  5.0126808313842680e-09 5.8807592823868378e-08 0.0000000000000000e+00  1.6947672658196998e-09 1.0526266236309143e-08 0.0000000000000000e+00  -4.3510250757059814e-10 -1.7717478704604478e-09 0.0000000000000000e+00  -2.4705895318019452e-09 -3.6131561943996956e-08 0.0000000000000000e+00  1.8968190185299283e-08 -4.6967610419821114e-10 0.0000000000000000e+00  -1.7263321759317389e-08 1.0786439400676335e-10 0.0000000000000000e+00  -1.8203409479098252e-08 -3.1819146571953725e-10 0.0000000000000000e+00  1.9031039796878799e-08 -7.0992183467229691e-11 0.0000000000000000e+00  2.4354601478802056e-09 1.2045080230652735e-08 0.0000000000000000e+00  1.4426419702713884e-15 5.0517610018950471e-15 0.0000000000000000e+00  -2.3112766331773071e-15 -9.7684320593125776e-15 0.0000000000000000e+00  3.1106059553800601e-20 1.2148837239978721e-21 0.0000000000000000e+00  -8.9402421608904694e-21 4.9783192018655695e-21 0.0000000000000000e+00  2.9147593428480793e-14 -3.9809964603252699e-16 0.0000000000000000e+00  -5.0205213709103837e-15 -3.4236919022342195e-14 0.0000000000000000e+00  -4.9664920425258607e-21 2.5309068251557292e-23 0.0000000000000000e+00  1.0313199387187757e-15 -5.4041191068940823e-14 0.0000000000000000e+00  1.8859296148900062e-20 6.8605779428369619e-21 0.0000000000000000e+00  8.4124769234252983e-15 -4.6781873783834758e-14 0.0000000000000000e+00  8.0038125535378395e-17 5.6341737103966826e-16 0.0000000000000000e+00  1.9374982546808886e-20 -3.6189126466210808e-20 0.0000000000000000e+00  -1.6406862546975939e-09 -1.1950469059439990e-08 0.0000000000000000e+00  -3.7005478473553447e-16 -6.1256707756626633e-16 0.0000000000000000e+00  -2.5526741278018554e-14 -1.2704803349962380e-16 0.0000000000000000e+00  -1.2029340125583319e-17 -1.3045530723412486e-15 0.0000000000000000e+00  2.0645406265501755e-09 -1.4477402591031329e-08 0.0000000000000000e+00  4.9803184087483932e-09 -4.4441634932472490e-08 0.0000000000000000e+00  -1.6889709105891717e-09 1.0044263505966843e-08 0.0000000000000000e+00  2.6412785800791977e-09 -1.2995895695770946e-08 0.0000000000000000e+00  -3.1993628631099496e-09 -1.5506771002584328e-08 0.0000000000000000e+00  -2.2427935709956983e-15 1.4849135704074576e-14 0.0000000000000000e+00  -6.6392165365689293e-10 4.7313031303749140e-08 0.0000000000000000e+00  4.4127100601705676e-09 3.0866449633535164e-08 0.0000000000000000e+00  1.3077026319389470e-15 -6.1997244082798703e-15 0.0000000000000000e+00  5.2140085966948510e-15 3.2090118971368921e-14 0.0000000000000000e+00  -2.3422925118410780e-20 -4.5028500310052163e-21 0.0000000000000000e+00  -5.4097932285380920e-10 3.3066437248304334e-09 0.0000000000000000e+00  -3.0706172867321933e-08 4.6751252616533042e-08 0.0000000000000000e+00  -3.30670