<?xml version="1.0"?>
<VTKFile type="UnstructuredGrid"  version="0.1"  >
<UnstructuredGrid>
<Piece  NumberOfPoints="4153" NumberOfCells="8064">
<Points>
<DataArray  type="Float64"  NumberOfComponents="3"  format="ascii">-0.3944714858287486 -0.6336837343728778 0  -0.01124329379618079 -0.7982242200270322 0  -0.06524450618719863 -0.7937332994818527 0  -0.1182359705579328 -0.7834532342586135 0  -0.1696830043259367 -0.7680122043026579 0  -0.2194854536127453 -0.7487979435668929 0  -0.2670517215135612 -0.7243450078701603 0  -0.3120019836794042 -0.6963781692175474 0  -0.3543856467583538 -0.6659265213916887 0  0.0430248482846413 -0.7965821880562201 0  -0.4321651908076791 -0.6013130614486287 0  -0.4681014041211216 -0.5689075023254462 0  -0.5023338952958315 -0.5367520062617323 0  -0.5351067917031311 -0.5053316363111885 0  -0.5667810116412443 -0.4752593740032455 0  -0.597648009518046 -0.4469115399683645 0  -0.6278569159090495 -0.4211118355186326 0  0.6583848492047197 -0.4071767894310271 0  0.09676045329782289 -0.7888757271907479 0  0.1491959077346866 -0.775415607194465 0  0.1996750038367657 -0.7568100793487523 0  0.2476900138808699 -0.7337633040758831 0  0.2930761493310651 -0.7075465851251527 0  0.3358311559712862 -0.6789504016401647 0  0.3761032323116569 -0.6487954208255 0  0.4140774669714125 -0.6177243234157307 0  0.450194572536005 -0.5865412566661493 0  0.4847491880067089 -0.5556405472701296 0  0.5180530711812342 -0.5253903321726553 0  0.5503386823456332 -0.4961137412815124 0  0.5819033476658416 -0.4680564149081818 0  0.6128998182077884 -0.4416405058743727 0  0.6435703448683527 -0.4176810747796569 0  0.6280304759848212 -0.429556129606577 0  -0.6125509298884033 -0.4338070787623847 0  -0.5510398763140435 -0.4902110352222195 0  -0.4854074182594298 -0.5527751265044452 0  -0.4135179938591292 -0.6174818393451945 0  -0.3335193123706199 -0.6812985605107287 0  -0.2435851622059357 -0.7371005272648284 0  -0.1441737212440121 -0.776435290476191 0  -0.03832755958687037 -0.7967358514876297 0  0.5974003199675072 -0.454815260358096 0  0.1747131323599625 -0.7666967789596368 0  0.2707184454533684 -0.7210136073777439 0  0.3562528932877672 -0.6640203247412045 0  0.4323546435591296 -0.602134106572128 0  0.5015325512501249 -0.5404331315966838 0  0.5662126072778014 -0.4820217473878148 0  0.07000861861113641 -0.793473787258191 0  -0.6423899111958826 -0.4097169051992294 0  0.5343026926113598 -0.5106231019783224 0  0.4676444026137188 -0.5710412676723332 0  0.3953603484529135 -0.6333074613669296 0  0.3147759579649917 -0.6935029952937271 0  0.2240238808363503 -0.7457789895402956 0  0.1231852208768289 -0.7828318524176011 0  0.01590829289945245 -0.7981755936436088 0  -0.09190692922360366 -0.7893067820222541 0  -0.1946729877375306 -0.7588275017367552 0  -0.289798354700874 -0.710592091399742 0  -0.3749989148638272 -0.6503777380489433 0  -0.4503621511927751 -0.5851237180553429 0  -0.5189084260387913 -0.5209559190022405 0  -0.5822212811707587 -0.4610180096086773 0  0.779966899809006 -0.2199412418515071 0  0.7062364931584723 -0.3756333265072548 0  0.7476526378488364 -0.3329832451531398 0  0.7736542510406198 -0.2801045465032297 0  0.6828407469041463 -0.3919702091402519 0  0.7280819107551827 -0.3556599200318408 0  0.7587704937874573 -0.3050631472720656 0  0.7756468319538823 -0.2496116057419532 0  0.6705720237636632 -0.4000179506929509 0  0.6945036407393806 -0.3830379861338233 0  0.7173004569559459 -0.3658328631346201 0  0.7375559702747035 -0.3435001544241589 0  0.7557130269239314 -0.320312713656776 0  0.7652969034974257 -0.29238133238435 0  0.7735701016248888 -0.2645879891980635 0  0.7771478642585745 -0.2346260991812261 0  0.779270067394235 -0.2005552904439706 0  0.7811250373378408 0.2326457539533606 0  0.7816047293025136 0.1942658357064256 0  0.7834956273245296 0.1555138529513319 0  0.7858403826889895 0.116282956694079 0  0.7883749898096956 0.07649650374286865 0  0.7894704847035243 0.03625315773052449 0  0.7892407092294903 -0.004104980931164247 0  0.7876840030750369 -0.04434330864211973 0  0.7847672039711904 -0.08411136998203374 0  0.7820891372552119 -0.1233524632236856 0  0.779912083449128 -0.1621249085971185 0  0.7822170450066899 0.2519425417434593 0  0.7811375205401681 0.2134903962525227 0  0.7846539669760422 0.1359622887703818 0  0.7890872438805745 0.0564051665959323 0  0.7886318878078304 -0.02425469561212251 0  0.7834164743115236 -0.1037975101179301 0  0.7793571274191062 -0.1813747205799566 0  0.7824678211191072 0.1749463682358687 0  0.7871832335745891 0.09648487569073486 0  0.7895159878965887 0.01607393919635635 0  0.7862750074801543 -0.06431989042666934 0  0.7809143398039559 -0.14279526271986 0  0.6651615157896672 0.4405097465565755 0  0.7768826699065585 0.3121267931683975 0  0.7519332368373819 0.3655145833650807 0  0.7117817972823756 0.4086826086438945 0  0.7785521561428584 0.2816412180712231 0  0.7629475334389453 0.3376350131111424 0  0.7329707605744858 0.388297718627433 0  0.688836383253965 0.4249910616163495 0  0.7798549993578124 0.2666832235990471 0  0.7768678803844002 0.2966532153102087 0  0.7691330384517193 0.324673271492834 0  0.7594052149549897 0.3525516084130031 0  0.7421181438184943 0.3760888790704405 0  0.7224936745142982 0.3986249102369443 0  0.7002582354036554 0.4161418205237781 0  0.6768777810815266 0.4330238873729662 0  -0.01040901532390088 0.8617885544095201 0  0.6215004691130086 0.4766844189122689 0  0.591777990684781 0.5045327340399195 0  0.5615345121437872 0.5343286812521648 0  0.5304920549183604 0.5657751969765085 0  0.4982393913970344 0.5983722599004325 0  0.464468075774357 0.6317619285291719 0  0.4288458742842859 0.6655722301096212 0  0.3909734507374819 0.6994049056103799 0  0.3503720127600338 0.7322543957425349 0  0.3068334685078473 0.7634291321492603 0  0.2602068478576908 0.7920072086662246 0  0.2105119149587859 0.817175034086053 0  0.1579510236056179 0.8374291028001326 0  0.1030975358849595 0.851968495003057 0  0.0467077253782717 0.8600872379076427 0  0.6508923900863052 0.4515349983171 0  -0.06719922075318344 0.855954582028277 0  -0.1226554267466406 0.843511626955465 0  -0.1760089369497839 0.825164105647312 0  -0.2265366871367193 0.8010454113648849 0  -0.2743929568067843 0.7744392859289903 0  -0.3193687062223338 0.7448805843489018 0  -0.3615856217779988 0.7132852793506901 0  -0.4011896691055249 0.6802346994980332 0  -0.4384977527687006 0.6470039472557401 0  -0.4739292578036794 0.6139112634799724 0  -0.5077313863759113 0.5813300979702294 0  -0.540166304661675 0.5496350116554879 0  -0.5714909438273444 0.5191695108018868 0  -0.6019616686826885 0.4904816844784893 0  -0.6318493886483386 0.4644347303919497 0  -0.6462274981586 0.453016530211776 0  -0.6167246011166305 0.4772960086055981 0  -0.5559614019644518 0.5343214449055516 0  -0.4910193465837854 0.5975453859394982 0  -0.4200825323745199 0.6636149483265372 0  -0.3408041033788398 0.7292452324968084 0  -0.2508197327514733 0.7881800669259861 0  -0.1496182218828797 0.8348681335880987 0  -0.03890227839350817 0.8597029437007123 0  0.07505205584589163 0.8568981391964043 0  0.1845602750870188 0.827937406984774 0  0.283910905672245 0.7781078453800577 0  0.3710162759849308 0.7159720391175061 0  0.4469107872912068 0.6486424345841947 0  0.5145334607935057 0.5819604332609002 0  0.5767217325165689 0.5193075830462052 0  0.635982115836026 0.4638866468334792 0  -0.5867564263745287 0.5047566787088186 0  -0.5241075619180726 0.5653820101955046 0  -0.4564367404641957 0.6304230882906785 0  -0.3817634112093601 0.696938210622207 0  -0.297226155124099 0.7599430199798881 0  -0.2018622341221788 0.8140340621901363 0  -0.09513700637942279 0.8504761630108155 0  0.01822372507091305 0.8617944331870999 0  0.1307693030383291 0.845460514793453 0  0.2357683401897589 0.8051663485543308 0  0.3289818612785459 0.7481080175061238 0  0.4102461188064435 0.6825573612199668 0  0.4815630102063802 0.6149951418671444 0  0.5461559668427038 0.5499124640334421 0  0.6066171618697942 0.4905042431992317 0  -0.7650853480461333 0.2607507045840481 0  -0.6929914336213485 0.4195689019298111 0  -0.7333914039781874 0.3755217252463785 0  -0.7587770513184422 0.3215473746443001 0  -0.6700560636778187 0.436580475092631 0  -0.7142875261026286 0.3986600801917387 0  -0.744492101257981 0.3472632944537073 0  -0.7608370201932668 0.2907776041488093 0  -0.6580505509905731 0.4451280067078775 0  -0.6814817804149209 0.4273443169541414 0  -0.7037756079796931 0.409251709956701 0  -0.7235072127337808 0.3862605093397714 0  -0.7409570012725922 0.362365298764599 0  -0.7508229179290635 0.3341955409951503 0  -0.7588907055813453 0.3059340342359697 0  -0.7623990406402136 0.2756531002815262 0  -0.7644068393796364 0.2411794520239343 0  -0.7630433751595821 -0.2000795656733475 0  -0.7643413619512421 -0.1611776129316403 0  -0.7670060092554539 -0.1217971679171049 0  -0.7700081363481289 -0.08184426647075263 0  -0.7730279244414939 -0.04129455492212511 0  -0.7745925515435331 -0.0002524224139604579 0  -0.7747552661858859 0.04093051004357168 0  -0.773519631206696 0.08200436182215171 0  -0.7708119818695421 0.1226268553098405 0  -0.7680598580419186 0.1626727874213584 0  -0.7655867946232612 0.2021647392095541 0  -0.7636163760055565 -0.2196210354442107 0  -0.7634748688692291 -0.1806823815025085 0  -0.7685149257182673 -0.1018961332269434 0  -0.7739864130241193 -0.0208076401356265 0  -0.7743115891517743 0.06149767211349794 0  -0.7694468167218146 0.1427210120133979 0  -0.7647838955816852 0.2217229790331186 0  -0.7656012042694991 -0.1415582071400749 0  -0.7715960421255053 -0.06166553582748661 0  -0.774844565292798 0.02033714473626145 0  -0.7722568094313148 0.1024069903913495 0  -0.766759780607862 0.1824871573267954 0  -0.7567160400907367 -0.2801803107194585 0  -0.7305758460751827 -0.3336035904049381 0  -0.6895829327418581 -0.377000962882352 0  -0.7591178961017303 -0.2495489540123538 0  -0.7420894785916232 -0.3056612779837526 0  -0.7112127219308521 -0.3565468389031206 0  -0.666388295772152 -0.3937156888947662 0  -0.7607862805171111 -0.2344650489663045 0  -0.7569971943667673 -0.26
[...]
<PointData  Vectors="f_4470"> 
<DataArray  type="Float64"  Name="f_4470"  NumberOfComponents="3" format="ascii">3.5246709744965392e-03 3.0217675791128114e-03 0.0000000000000000e+00  1.1877414826333066e-03 2.7133900465078874e-02 0.0000000000000000e+00  4.9622849820732369e-03 3.1938740697176414e-02 0.0000000000000000e+00  9.5026887930108016e-03 3.6420736104416353e-02 0.0000000000000000e+00  1.4211577098149219e-02 3.8296805219944732e-02 0.0000000000000000e+00  2.9721356792391278e-02 6.0133258183475632e-02 0.0000000000000000e+00  4.5012971742292365e-02 7.5635611699837277e-02 0.0000000000000000e+00  4.1148534568166306e-02 5.9546845127907415e-02 0.0000000000000000e+00  3.0274301600878614e-02 3.8981735693878757e-02 0.0000000000000000e+00  -1.8760333680412288e-03 2.5185286080813232e-02 0.0000000000000000e+00  1.4487371435255756e-02 1.6162111631539824e-02 0.0000000000000000e+00  9.9156191349245963e-03 1.0489200771832855e-02 0.0000000000000000e+00  6.0531904701213090e-03 6.4256351031814511e-03 0.0000000000000000e+00  2.8533141357232564e-03 3.6087944477806513e-03 0.0000000000000000e+00  1.7450168663317562e-03 3.2586757984766541e-03 0.0000000000000000e+00  -3.6079680695459818e-03 -1.1848382733234866e-03 0.0000000000000000e+00  -2.4945118743225111e-03 3.7027738413258895e-03 0.0000000000000000e+00  -3.8939340410950575e-02 7.5922263853728647e-02 0.0000000000000000e+00  -4.8983248615340914e-03 2.5435896101621298e-02 0.0000000000000000e+00  -8.8340234665922456e-03 2.8326744927108072e-02 0.0000000000000000e+00  -1.3762727021139832e-02 3.2312545170239834e-02 0.0000000000000000e+00  -1.8591443698098415e-02 3.4606064352991718e-02 0.0000000000000000e+00  -2.2493152393659777e-02 3.5385705011359812e-02 0.0000000000000000e+00  -2.4333846814143953e-02 3.3538416528207785e-02 0.0000000000000000e+00  -2.4535742559580374e-02 3.0698653529501147e-02 0.0000000000000000e+00  -2.0284964466462760e-02 2.3711834868225187e-02 0.0000000000000000e+00  -1.7294120929973355e-02 1.9415595275796577e-02 0.0000000000000000e+00  -1.3753464053622055e-02 1.5288745527650012e-02 0.0000000000000000e+00  -1.0513849095826339e-02 1.1941674197504781e-02 0.0000000000000000e+00  -1.0523227438937173e-02 1.2686194563274324e-02 0.0000000000000000e+00  -7.5165635766345478e-03 1.0577207505692960e-02 0.0000000000000000e+00  -1.3491512205943974e-03 5.9222211465948292e-03 0.0000000000000000e+00  5.9174610653143275e-03 9.3547602857192388e-04 0.0000000000000000e+00  -8.5701559239911521e-03 1.5151980997233576e-02 0.0000000000000000e+00  1.0131146842082614e-02 1.6351830817551566e-02 0.0000000000000000e+00  1.8979063010908105e-03 2.7625259731102864e-03 0.0000000000000000e+00  7.7249007181751659e-03 8.1428543538227902e-03 0.0000000000000000e+00  1.7136722370846433e-02 2.0091135494358647e-02 0.0000000000000000e+00  3.8900194682981365e-02 5.2391514038570348e-02 0.0000000000000000e+00  3.6771927793621914e-02 6.8383059724771059e-02 0.0000000000000000e+00  1.2462574719609555e-02 3.9316282598099966e-02 0.0000000000000000e+00  3.0179309641961104e-03 2.9967000389687311e-02 0.0000000000000000e+00  -2.9016581804797922e-03 5.1379292990155296e-03 0.0000000000000000e+00  -1.1157907903983098e-02 3.0185910435675270e-02 0.0000000000000000e+00  -2.0949567871800027e-02 3.5739014676060027e-02 0.0000000000000000e+00  -2.4011262540721386e-02 3.1439809441890669e-02 0.0000000000000000e+00  -1.9550517417454210e-02 2.2378113428140934e-02 0.0000000000000000e+00  -1.2275734444681233e-02 1.3728493889081759e-02 0.0000000000000000e+00  -5.3929539566021610e-03 6.9690824944255393e-03 0.0000000000000000e+00  -3.3007155940094498e-03 2.4843733782819805e-02 0.0000000000000000e+00  2.4547146975749817e-02 5.0347405608537142e-02 0.0000000000000000e+00  -8.5770069919827649e-03 1.0011399120515964e-02 0.0000000000000000e+00  -1.5741027382315018e-02 1.7537737458059477e-02 0.0000000000000000e+00  -2.2556512909622236e-02 2.6948555824478044e-02 0.0000000000000000e+00  -2.3674262153265204e-02 3.4754227837341181e-02 0.0000000000000000e+00  -1.7195654741107302e-02 3.5267316102012683e-02 0.0000000000000000e+00  -6.6853273318778833e-03 2.6539108717168594e-02 0.0000000000000000e+00  -3.8187578654399817e-04 2.5640623290131982e-02 0.0000000000000000e+00  7.6992370456640154e-03 3.6443903526913471e-02 0.0000000000000000e+00  1.2152870185733237e-02 2.9280209081545584e-02 0.0000000000000000e+00  3.4649676653136431e-02 5.3843388854666184e-02 0.0000000000000000e+00  6.6170872915626261e-02 8.0420387053389761e-02 0.0000000000000000e+00  1.2818970217884664e-02 1.3924205388106374e-02 0.0000000000000000e+00  3.9048197540894206e-03 4.2981991610354375e-03 0.0000000000000000e+00  1.0358326511063481e-03 2.5086681539143812e-03 0.0000000000000000e+00  5.0021004298337661e-02 2.0033426804718754e-03 0.0000000000000000e+00  7.7476792319621360e-02 -1.0732871176859815e-01 0.0000000000000000e+00  5.5931750896148109e-03 -4.9425998216448247e-02 0.0000000000000000e+00  -2.4877098035657325e-01 4.5849287379385165e-02 0.0000000000000000e+00  1.2445557823445896e-02 -2.1501706975865953e-02 0.0000000000000000e+00  3.7243937692054252e-02 -2.7478740116002161e-02 0.0000000000000000e+00  3.4171697183218253e-01 -6.9377222782295786e-02 0.0000000000000000e+00  3.3239560229898386e-02 -4.0945353202757832e-03 0.0000000000000000e+00  8.5203491277737638e-03 -4.3085709360501066e-02 0.0000000000000000e+00  -4.9041627660766487e-02 6.6470151580947101e-02 0.0000000000000000e+00  2.7487993391461987e-02 -5.8021175124473245e-02 0.0000000000000000e+00  1.8517943075668966e-02 -1.7945511787254828e-02 0.0000000000000000e+00  -2.1117750085623990e-01 8.5186104948455396e-02 0.0000000000000000e+00  -4.0707189939774147e-01 1.7497616192045692e-01 0.0000000000000000e+00  2.2709182767757280e-01 2.6502515528593934e-03 0.0000000000000000e+00  1.8600500375990744e-02 -4.6756720654850944e-03 0.0000000000000000e+00  8.5439428970751213e-02 2.0486370194107151e-03 0.0000000000000000e+00  5.9216955278844241e-02 -3.2023550879914189e-03 0.0000000000000000e+00  1.6357446280880813e-02 1.5568042236224556e-03 0.0000000000000000e+00  8.3256868167158760e-03 9.0106241860096194e-04 0.0000000000000000e+00  6.6106738840350700e-03 6.3920276187985658e-04 0.0000000000000000e+00  9.2335664170314462e-03 4.3813866345139991e-04 0.0000000000000000e+00  9.8358733681205152e-03 7.9567768559840775e-05 0.0000000000000000e+00  9.8249289542238060e-03 -2.2343900256683059e-04 0.0000000000000000e+00  8.7820996294587072e-03 -5.5107913299772102e-04 0.0000000000000000e+00  6.5829397722519927e-03 -6.5146043367956261e-04 0.0000000000000000e+00  8.8114852692546680e-03 -9.6217296071526316e-04 0.0000000000000000e+00  2.0736587735406393e-02 -1.7637353901183799e-03 0.0000000000000000e+00  3.4763346028180375e-02 -3.0542223416966012e-03 0.0000000000000000e+00  2.0946619753047461e-02 2.2278964244123616e-03 0.0000000000000000e+00  6.6940079678641283e-03 6.8716402854800812e-04 0.0000000000000000e+00  9.9092841952153638e-03 1.8319517582102051e-04 0.0000000000000000e+00  1.0059058468425475e-02 -3.5019333189392337e-04 0.0000000000000000e+00  6.9354159799447116e-03 -7.3248701703799816e-04 0.0000000000000000e+00  2.3218712128867725e-02 -1.9623404294529488e-03 0.0000000000000000e+00  1.0448955989743297e-02 1.2894556091176787e-03 0.0000000000000000e+00  7.8702156770926578e-03 6.7358027271267754e-04 0.0000000000000000e+00  9.8406904340763834e-03 -7.6694054704511409e-05 0.0000000000000000e+00  6.5620747308230689e-03 -6.7982406311140791e-04 0.0000000000000000e+00  1.0864611139357959e-02 -1.3310080145895237e-03 0.0000000000000000e+00  -3.1387193063244903e-02 -6.1822805805803176e-02 0.0000000000000000e+00  -1.0011480436376276e-01 -1.5558878411569124e-02 0.0000000000000000e+00  2.7657656217706258e-02 4.4710513849568298e-02 0.0000000000000000e+00  7.6949781184402766e-02 1.0182099105218607e-01 0.0000000000000000e+00  3.9345584007796877e-02 5.0323949278282352e-03 0.0000000000000000e+00  1.8300471276902541e-01 4.1453553719494128e-02 0.0000000000000000e+00  3.8414324000931949e-02 2.8891038912414523e-02 0.0000000000000000e+00  1.6765784171823117e-02 2.4817330157989873e-02 0.0000000000000000e+00  2.9533779205647249e-02 4.9511936755561176e-03 0.0000000000000000e+00  1.4887356725832071e-01 -5.0019996515917164e-03 0.0000000000000000e+00  -1.9505022469028704e-01 -6.4440144708179173e-02 0.0000000000000000e+00  -1.1305854236852168e-01 -4.2371735320745403e-02 0.0000000000000000e+00  1.2420868693545639e-02 1.1826075543090703e-02 0.0000000000000000e+00  3.0579510784388319e-02 5.4913679634460949e-02 0.0000000000000000e+00  -4.7784639797880994e-02 -5.9147377198423542e-02 0.0000000000000000e+00  -8.1526844352637941e-03 1.0026020302708058e-02 0.0000000000000000e+00  1.5768685551311166e-03 -1.8126136440781457e-02 0.0000000000000000e+00  -2.5711717955440600e-03 -6.1749772918199370e-03 0.0000000000000000e+00  -7.1935348001849839e-03 -9.1241614116848984e-03 0.0000000000000000e+00  -8.2334819356651417e-03 -9.0433858502307080e-03 0.0000000000000000e+00  -1.0209507913056250e-02 -1.0308280866249585e-02 0.0000000000000000e+00  -1.3227960055055650e-02 -1.3169729267437789e-02 0.0000000000000000e+00  -1.7084084660490717e-02 -1.7397819494105647e-02 0.0000000000000000e+00  -1.9817146425649645e-02 -2.1111210261021966e-02 0.0000000000000000e+00  -2.6159713661797281e-02 -3.0446589963046777e-02 0.0000000000000000e+00  -2.5703598785372230e-02 -3.3313777159371831e-02 0.0000000000000000e+00  -2.3008276247298658e-02 -3.4438121969533879e-02 0.0000000000000000e+00  -1.7952526307082110e-02 -3.2164450483325120e-02 0.0000000000000000e+00  -1.2778010238958748e-02 -2.9532654445766787e-02 0.0000000000000000e+00  -7.2418706599243592e-03 -2.3534288192283776e-02 0.0000000000000000e+00  -3.2921280013867827e-03 -1.8478003717156157e-02 0.0000000000000000e+00  -9.6683797481361602e-04 -1.7330741076896302e-02 0.0000000000000000e+00  -1.8736563399886987e-03 -1.0360069651317820e-02 0.0000000000000000e+00  5.3806815748309233e-03 -2.9008874653806391e-02 0.0000000000000000e+00  1.2433774638774311e-02 -4.1054034964218167e-02 0.0000000000000000e+00  1.5866596270349149e-02 -3.7934960135436027e-02 0.0000000000000000e+00  1.2891616530570034e-02 -2.4068783451887572e-02 0.0000000000000000e+00  2.5168874053258652e-02 -4.0415216590198241e-02 0.0000000000000000e+00  2.5776273392810682e-02 -3.5841954825034120e-02 0.0000000000000000e+00  2.3571675376274154e-02 -2.9323346657267067e-02 0.0000000000000000e+00  1.4693604725232279e-02 -1.6366257057620060e-02 0.0000000000000000e+00  1.2878765292578708e-02 -1.3873084951868885e-02 0.0000000000000000e+00  8.7705703102058039e-03 -9.1295895825282223e-03 0.0000000000000000e+00  5.3811658539961891e-03 -5.6589366961541992e-03 0.0000000000000000e+00  3.7622963083771680e-03 -4.3244960282159085e-03 0.0000000000000000e+00  1.5773175274830323e-03 -2.9558831085763101e-03 0.0000000000000000e+00  -2.7271519770148802e-03 -7.2171515686327500e-05 0.0000000000000000e+00  -4.2442986644560532e-03 -2.1422399816142545e-03 0.0000000000000000e+00  3.4767255619444840e-02 -6.1569040957161217e-02 0.0000000000000000e+00  7.4376793866823875e-03 -1.2327372071533796e-02 0.0000000000000000e+00  8.2268692763530472e-04 -1.4542949831913585e-03 0.0000000000000000e+00  7.0403602107309586e-03 -7.3143232594556594e-03 0.0000000000000000e+00  1.4988186088128757e-02 -1.6619856917056568e-02 0.0000000000000000e+00  2.3754633930506107e-02 -3.0946950379411749e-02 0.0000000000000000e+00  1.8050870284590577e-02 -3.2220441570190529e-02 0.0000000000000000e+00  1.5429744893871267e-02 -4.3360216703965594e-02 0.0000000000000000e+00  2.9745057463173748e-03 -2.3622605029520401e-02 0.0000000000000000e+00  -1.8594588628891330e-03 -1.6730915007279499e-02 0.0000000000000000e+00  -9.9432644917564171e-03 -2.6732286654489165e-02 0.0000000000000000e+00  -2.0629495691881054e-02 -3.3683929037363905e-02 0.0000000000000000e+00  -2.5173707451012828e-02 -3.0756311025059394e-02 0.0000000000000000e+00  -1.9386362260116197e-02 -2.0216714735619222e-02 0.0000000000000000e+00  -1.1428944407765304e-02 -1.1371798514029462e-02 0.0000000000000000e+00  -7.0459962497528249e-03 -8.0311110943149314e-03 0.0000000000000000e+00  -1.3880881953005807e-02 -2.1334521369792577e-02 0.0000000000000000e+00  -1.9316664585226868e-04 -1.0963612019961721e-03 0.0000000000000000e+00  3.6323123189897560e-03 -3.9787562072923751e-03 0.0000000000000000e+00  1.0943431253529914e-02 -1.1535062073771554e-02 0.0000000000000000e+00  2.5179804922734389e-02 -2.9544868057570700e-02 0.0000000000000000e+00  2.3565562526543311e-02 -3.5063595648035517e-02 0.0000000000000000e+00  4.5917689436951938e-02 -9.3015535301218366e-02 0.0000000000000000e+00  7.7172724034556724e-03 -3.2389224143178623e-02 0.0000000000000000e+00  1.2333101935600938e-04 -1.2654427485361030e-02 0.0000000000000000e+00  -4.9550906086005490e-03 -2.0513894086739412e-02 0.0000000000000000e+00  -1.7258401287199156e-02 -3.4415453608487030e-02 0.0000000000000000e+00  -2.4350974662114448e-02 -3.3788357248551545e-02 0.0000000000000000e+00  -2.4753792622645078e-02 -2.7300491784195854e-02 0.0000000000000000e+00  -1.5310582001361752e-02 -1.5368573837235146e-02 0.0000000000000000e+00  -8.1290244440408270e-03 -8.3557732847674461e-03 0.0000000000000000e+00  -6.1928508593746771e-03 -8.3077378547436465e-03 0.0000000000000000e+00  -3.8364396493908520e-02 -2.3131762306836715e-03 0.0000000000000000e+00  -7.9457678012610111e-02 1.0094597018191205e-01 0.0000000000000000e+00  -2.5342471157095998e-02 4.5867515994401656e-02 0.0000000000000000e+00  1.4617917662183952e-01 -2.5689073141302650e-02 0.0000000000000000e+00  -1.8067629396902398e-02 2.5091454619488543e-02 0.0000000000000000e+00  -3.6553046427887509e-02 2.6530156641447693e-02 0.0000000000000000e+00  -2.1876619854096874e-01 4.8142901936784381e-02 0.0000000000000000e+00  -3.6299198886709433e-02 5.0865111064864370e-03 0.0000000000000000e+00  1.4383382443626360e-03 1.9091642338466625e-02 0.0000000000000000e+00  5.4138095202424789e-02 -6.7150589767949118e-02 0.0000000000000000e+00  -3.0911015115886828e-02 5.4302944553951342e-02 0.0000000000000000e+00  -6.0160267659324536e-03 6.7285447550692141e-03 0.0000000000000000e+00  1.4006924826534781e-01 -5.3281143348076369e-02 0.0000000000000000e+00  2.5831293728441562e-01 -9.5395372556367944e-02 0.0000000000000000e+00  -1.7798191991081000e-01 -1.5100609885199952e-03 0.0000000000000000e+00  -2.2522517702820415e-02 4.9776593467436752e-03 0.0000000000000000e+00  -7.1438061788457935e-02 -1.7891020170785431e-03 0.0000000000000000e+00  -8.9657836022094373e-02 9.8852632698532487e-04 0.0000000000000000e+00  -2.0967134125629082e-02 -1.9208227385142896e-03 0.0000000000000000e+00  -1.0795393454043522e-02 -1.1151281117455017e-03 0.0000000000000000e+00  -9.4639835424199566e-03 -8.6206045017488326e-04 0.0000000000000000e+00  -1.1324638716817418e-02 -6.9545194442384667e-04 0.0000000000000000e+00  -1.2262964048040842e-02 -2.6018695075662082e-04 0.0000000000000000e+00  -1.2280229937955099e-02 1.4109166297053842e-04 0.0000000000000000e+00  -1.1571002345142273e-02 5.9134079478352641e-04 0.0000000000000000e+00  -9.7552930291830778e-03 8.3201765342651114e-04 0.0000000000000000e+00  -1.0958459829610615e-02 1.0695672964405661e-03 0.0000000000000000e+00  -1.8895985606802120e-02 1.7576980133334507e-03 0.0000000000000000e+00  -4.4413779197574277e-02 2.3356927523554903e-03 0.0000000000000000e+00  -2.2389157227850495e-02 -2.3488828590119632e-03 0.0000000000000000e+00  -9.4370303533978083e-03 -9.0040948615451597e-04 0.0000000000000000e+00  -1.2454844657224063e-02 -4.2690105894917175e-04 0.0000000000000000e+00  -1.2406952201274468e-02 2.9876847543894254e-04 0.0000000000000000e+00  -9.6674562450972962e-03 8.6489020617247004e-04 0.0000000000000000e+00  -2.1617029492627133e-02 2.3992642136174292e-03 0.0000000000000000e+00  -1.2393153097742818e-02 -1.4694242883266488e-03 0.0000000000000000e+00  -9.6614952612492713e-03 -9.0233504866856450e-04 0.0000000000000000e+00  -1.2293561888823223e-02 -6.0968987003261514e-05 0.0000000000000000e+00  -1.0404693719396719e-02 8.5585241867278561e-04 0.0000000000000000e+00  -1.2545199697769002e-02 1.4318849071527752e-03 0.0000000000000000e+00  1.9053895961777459e-01 3.7001811782061383e-02 0.0000000000000000e+00  -1.7138256595665518e-02 -4.6244090973385110e-02 0.0000000000000000e+00  -8.3005309873958141e-02 -1.0908819894171187e-01 0.0000000000000000e+00  -3.4206131157078580e-02 -4.8012598501566426e-03 0.0000000000000000e+00  -2.7319229591377242e-01 -6.4017004513845094e-02 0.0000000000000000e+00  -3.8335084252157273e-02 -2.7930270956144771e-02 0.0000000000000000e+00  -1.6353431200507768e-02 -2.2401228155773500e-02 0.0000000000000000e+00  -1.6137627768929876e-02 -4.6018761549892059e-03 0.0000000000000000e+00  -2.0771047696617057e-01 -1.9060853434159474e-03 0.0000000000000000e+00  3.2743720306275087e-01 1.3331880848300678e-01 0.0000000000000000e+00  1.6769095319691521e-01 6.7856269918241077e-02 0.0000000000000000e+00  -1.1525902268261596e-02 -1.1288712395235542e-02 0.0000000000000000e+00  -2.8626296207347211e-02 -5.6004239908930047e-02 0.0000000000000000e+00  5.1330878454797085e-02 6.4646692069454170e-02 0.0000000000000000e+00  2.1798461714709769e-02 9.0177582770632429e-03 0.0000000000000000e+00  3.9785518237586592e-05 1.1047233809281931e-05 0.0000000000000000e+00  -2.8213284330091504e-05 -8.1756386520815186e-06 0.0000000000000000e+00  2.0778934922398610e-05 -1.1950104135891309e-06 0.0000000000000000e+00  1.9205051420763186e-05 -1.8678669049665167e-05 0.0000000000000000e+00  -1.4381559437832427e-05 1.5466653049314323e-05 0.0000000000000000e+00  -2.8291967451409786e-05 2.7003846780095640e-06 0.0000000000000000e+00  -1.1152645147852944e-06 -1.9531474104806724e-06 0.0000000000000000e+00  1.6967450975578633e-07 4.3211058430235426e-07 0.0000000000000000e+00  8.7477668846149638e-07 -1.6575713404408000e-06 0.0000000000000000e+00  1.9111779053287024e-07 -2.6466293804720028e-07 0.0000000000000000e+00  -1.6663898478390361e-06 1.4016781000633539e-05 0.0000000000000000e+00  -4.4944333656992980e-06 1.4478322976277510e-05 0.0000000000000000e+00  -2.3776970201972649e-05 4.0812523098258585e-05 0.0000000000000000e+00  -3.9820407330101487e-07 -4.4703359859686506e-06 0.0000000000000000e+00  2.7068994402922627e-06 -1.1743444770380600e-05 0.0000000000000000e+00  -5.8007558945824740e-08 -1.8493742833006065e-06 0.0000000000000000e+00  -8.4821309673711797e-05 6.7949024995068199e-05 0.0000000000000000e+00  1.0774508776530416e-05 5.7827765290477623e-06 0.0000000000000000e+00  -2.9740527660094326e-05 7.6958509813630132e-07 0.0000000000000000e+00  1.6346931635750249e-04 -2.3062620817309876e-05 0.0000000000000000e+00  1.0519713311170870e-04 9.2499105796574988e-05 0.0000000000000000e+00  4.4870962331651306e-05 -7.0565655776818264e-05 0.0000000000000000e+00  -2.0099628860243025e-05 7.5980310369495310e-07 0.0000000000000000e+00  3.0780883292886397e-06 -1.6128889180729127e-05 0.0000000000000000e+00  6.4625545905882699e-06 -1.7439006524852097e-05 0.0000000000000000e+00  1.4808027128785273e-09 -7.9833545179116647e-07 0.0000000000000000e+00  5.4735843037294986e-06 1.6821900932226737e-05 0.0000000000000000e+00  -1.9310204393716636e-06 -1.6506911729431662e-05 0.0000000000000000e+00  3.7328301289372539e-05 3.0632015934268554e-06 0.0000000000000000e+00  2.3107491961864767e-06 1.4678056968798193e-05 0.0000000000000000e+00  1.5614731286442158e-05 1.4000017824061197e-05 0.0000000000000000e+00  -3.6800838226297753e-05 1.2559148035700444e-05 0.0000000000000000e+00  -2.4467532269593074e-05 -3.3676082253387851e-05 0.0000000000000000e+00  -2.1899270088898310e-05 -1.6191470537309265e-06 0.0000000000000000e+00  5.5026863342474007e-05 -1.9951838713822351e-05 0.0000000000000000e+00  -6.6682132279039593e-06 -1.7756307136690163e-05 0.0000000000000000e+00  2.4570866326025569e-05 -3.8789589130686696e-05 0.0000000000000000e+00  5.7869379174312497e-07 2.5082035374218313e-06 0.0000000000000000e+00  -1.2695034308606384e-05 -1.3268891071458257e-05 0.0000000000000000e+00  1.6705332211177719e-06 6.4379611250011125e-06 0.0000000000000000e+00  -5.7