<?xml version="1.0"?>
<VTKFile type="UnstructuredGrid"  version="0.1"  >
<UnstructuredGrid>
<Piece  NumberOfPoints="4153" NumberOfCells="8064">
<Points>
<DataArray  type="Float64"  NumberOfComponents="3"  format="ascii">-0.4163753685666401 -0.6435472148367701 0  -0.03734872271974865 -0.8244257364521125 0  -0.09178551276391997 -0.818457751182717 0  -0.1449719966516075 -0.8064312853690808 0  -0.1963175907826206 -0.7889760074826598 0  -0.2457694888259481 -0.7677628906887681 0  -0.2926150226406318 -0.7409902186596657 0  -0.3366133360982396 -0.7107622522666999 0  -0.3777372529018833 -0.6779769935952153 0  0.01754512483808837 -0.8239562009864075 0  -0.4524390349539988 -0.6091280153345203 0  -0.4866108051806904 -0.5747722874907163 0  -0.5189661337940604 -0.540781612363038 0  -0.5498031651963317 -0.5076581060499683 0  -0.579522093563997 -0.4760068432936878 0  -0.608444217736704 -0.4461846357426474 0  -0.6366833024714916 -0.4189680036714009 0  0.6336706182154499 -0.4140575219202738 0  0.07205090415314452 -0.8171136992552734 0  0.1253606954773185 -0.8041785966427407 0  0.176781646352915 -0.7857389308268714 0  0.2257740700922893 -0.7624919997958085 0  0.2720997991638845 -0.73566480647598 0  0.3157007233271992 -0.7060655444835564 0  0.3566595941414945 -0.6745392243517886 0  0.39510403502786 -0.6417707327526879 0  0.4314170463840056 -0.6086243272988328 0  0.4658673056654709 -0.5755574913377168 0  0.4987551276015014 -0.5430010425438287 0  0.5303053974688163 -0.5113231369919823 0  0.5608621488041509 -0.4808491148543753 0  0.5905861927304319 -0.452042579758285 0  0.6197237952271477 -0.4257448942840699 0  0.6049455307691146 -0.4387654357150791 0  -0.6223461436360673 -0.4323535528639741 0  -0.5647578903877104 -0.4917536693667204 0  -0.5029883547541659 -0.5577071465982805 0  -0.4346338580879263 -0.6263155321443404 0  -0.3575586331092326 -0.6945308117889708 0  -0.2695129298455099 -0.7548465554410185 0  -0.1709083080509775 -0.7984726045434409 0  -0.06467717644977249 -0.822232558387667 0  0.5757424428688604 -0.4664311036474802 0  0.1513433389608576 -0.7955901525306166 0  0.2492796246526565 -0.7494863110066718 0  0.3364876346875806 -0.6904874070178696 0  0.4135155546476307 -0.6252288563505245 0  0.4824809531010391 -0.5592116962671674 0  0.5457174552853334 -0.4960502858093989 0  0.04489901476742201 -0.8213226993568578 0  -0.6502633888795999 -0.4068614472244637 0  0.5146832241734598 -0.5270523662621101 0  0.4488537717914799 -0.5920647329981126 0  0.3761870257035326 -0.6582466817923565 0  0.2942382297443316 -0.7211668182807367 0  0.2016204982923248 -0.7746643410285788 0  0.09890218746689414 -0.8113756809206831 0  -0.00990368141423548 -0.8250025490076383 0  -0.1185797318346781 -0.8131941948310752 0  -0.2211501247121334 -0.778832283332332 0  -0.3148955061364006 -0.7260694268788332 0  -0.3976844783218608 -0.6613536407760521 0  -0.4697713341183258 -0.5919530410491174 0  -0.5345868267989383 -0.5241291696192574 0  -0.593971717078429 -0.4610288986925113 0  0.750292183555639 -0.2249882238479857 0  0.6788587552616319 -0.3798811244208865 0  0.7185454318613526 -0.3366257923802148 0  0.7436237768372495 -0.2843455883331452 0  0.656833929598622 -0.3974435281902923 0  0.6998729529004246 -0.3595937872882278 0  0.7290310377272142 -0.3088942059117504 0  0.7456839953132969 -0.254281117662963 0  0.6450915740446754 -0.4059877368149003 0  0.6678312302527425 -0.3878334437104037 0  0.6895028189709489 -0.3698891300001739 0  0.7089244113805864 -0.3472569566525381 0  0.7266127245695497 -0.3241762178574223 0  0.7353392747686261 -0.2964177201547553 0  0.743416975749712 -0.2690313841800145 0  0.7472869458221733 -0.2394714218473038 0  0.7499687628458529 -0.2058020304837076 0  0.7530792185259553 0.2267639612716033 0  0.7542084224537686 0.1886220549809987 0  0.7565815022963948 0.1499691385831667 0  0.7592152813870696 0.1107373457225047 0  0.7618262835810258 0.07089126159998578 0  0.7628733196341911 0.03057327087113371 0  0.7624906919087944 -0.009858574940522793 0  0.760675700930845 -0.05014737874661712 0  0.7574070424313378 -0.08992165105860854 0  0.7542039826319644 -0.1290963672269103 0  0.7513530740567217 -0.1676872120149736 0  0.7539887717128617 0.2458614835436705 0  0.753438521753248 0.2077457220302638 0  0.7579085558550883 0.1304266042534054 0  0.7625255453211759 0.05076401268049823 0  0.7617661227699758 -0.03003774675218362 0  0.7558165843197868 -0.1095879903966027 0  0.7504391471291276 -0.1867993925622859 0  0.7553348364244031 0.1693667225283386 0  0.7606223716527953 0.09091289765803962 0  0.7628556869589823 0.01035575684338556 0  0.7591037299229073 -0.07013295247686006 0  0.7527084462094328 -0.1484653650050422 0  0.6438062672049731 0.4371503039150315 0  0.7488262031467776 0.305394513849398 0  0.7253249606945321 0.3585881875823749 0  0.6874279395458959 0.4026343138798418 0  0.750335944570564 0.2752532140031542 0  0.7355991124488885 0.3307948989712864 0  0.7074796819835109 0.3816986143087645 0  0.6659651847516258 0.4201017151580572 0  0.7516385639875937 0.2604582621265768 0  0.7487053594431405 0.2901003795759332 0  0.7414163421790739 0.3178741369041939 0  0.7324040808378947 0.3456085751686973 0  0.7160501941389461 0.3692678428466499 0  0.6975614769221701 0.3922567571962439 0  0.6766409922681424 0.4106148801471162 0  0.6546978389556498 0.428786254685643 0  -0.02958301617190242 0.8785070991175039 0  0.602882206227681 0.4767368771162703 0  0.5746719938995121 0.506967031341111 0  0.5456816765700756 0.539182674642292 0  0.5155726058580572 0.5730187482680958 0  0.483932145581728 0.6079363542898986 0  0.4504535582429336 0.643520028127213 0  0.4148193641018737 0.6793260224828789 0  0.3766697393093123 0.7149200403148687 0  0.3355828881878243 0.7492180950989696 0  0.291410517037835 0.7814743618717965 0  0.2440611388138036 0.8107265898707069 0  0.1936232247206215 0.8361625557811295 0  0.1403661825894055 0.8563210859403769 0  0.08488786984642001 0.8704305404424332 0  0.02796181370412762 0.8778189556465237 0  0.6305128134175811 0.4492645836219729 0  -0.08669246496800913 0.8714908949190379 0  -0.1423398881032928 0.8576669625499919 0  -0.1956889363452753 0.8376967037965238 0  -0.2459940128442147 0.811808952431623 0  -0.2934530735192058 0.783469224336347 0  -0.3377236999335121 0.7520322467406308 0  -0.3789894104366844 0.718559315349301 0  -0.4174508778837634 0.6837037814829618 0  -0.4534615372170382 0.6487521842070063 0  -0.4874829867952911 0.6140262167479068 0  -0.5197879315052346 0.5799027008210285 0  -0.5506663744343083 0.5467496688723321 0  -0.5804026335305703 0.5149080758835961 0  -0.6092553756554078 0.4849155622043727 0  -0.6374627317137431 0.4575895742244987 0  -0.6509797374410818 0.4454750711611183 0  -0.6231429906399297 0.4710655126636641 0  -0.5656744351772202 0.530767792198594 0  -0.5038346749048885 0.5968810219355291 0  -0.4357110316464007 0.6662123205024404 0  -0.3587118588562055 0.7354502268922082 0  -0.2701137297225963 0.798101841305948 0  -0.1693269318782544 0.8482204623951553 0  -0.05824909712044463 0.8758514734107959 0  0.05656216369608543 0.8750254218844072 0  0.1673159248102586 0.8469239216957312 0  0.2681346733723008 0.7965442899450776 0  0.3564883434630642 0.7322478064197439 0  0.4329253850111619 0.661427907523339 0  0.4999615247621758 0.5903768730333787 0  0.5602847822970223 0.5229699967032314 0  0.6164871506528747 0.4627893409969782 0  -0.5948399321101374 0.4998569583882095 0  -0.5353971860690105 0.563228282810445 0  -0.4707100890812204 0.6313457913214318 0  -0.3986256527278526 0.7013091050017622 0  -0.3159619538065223 0.7680280294208699 0  -0.2215347850760614 0.8258350266877744 0  -0.1147402443406166 0.8653268579266408 0  -0.0007456219629571829 0.8790559067428765 0  0.1128619964491926 0.8641767906561654 0  0.2192533971022474 0.8240726744523349 0  0.3138898740747279 0.765659139146559 0  0.3961208403378823 0.6972337989532476 0  0.467441532317857 0.6256757435180237 0  0.5308219807723853 0.5559784835112421 0  0.5887822282236992 0.4917671860449038 0  -0.7639983842007764 0.2544581756358305 0  -0.6951123879425449 0.4107399342962844 0  -0.7337299563563914 0.3668329323257417 0  -0.7579614817228393 0.3139631980233621 0  -0.6734770674282112 0.4283922381668334 0  -0.7155693589445747 0.3899839264998426 0  -0.7440792712205277 0.3390049473460316 0  -0.7597892172180888 0.2838319159879897 0  -0.6620227387517024 0.4370943043163289 0  -0.6842602206133576 0.4187804108985836 0  -0.7054628334875372 0.400475002602574 0  -0.724333215941754 0.3775374963466013 0  -0.7412690804395726 0.3540587522736253 0  -0.7501272970141207 0.3262715750910105 0  -0.7578242136792775 0.2986515071668486 0  -0.7612721124921104 0.2690174344593496 0  -0.7634051338329758 0.2352864078990245 0  -0.7631477162454183 -0.1978297206922362 0  -0.7644899008112026 -0.159697006756393 0  -0.7671804427039616 -0.12105347158586 0  -0.7701661345026696 -0.08181480832011157 0  -0.7731591359856796 -0.04196065137721095 0  -0.7746308630954951 -0.001605912528319474 0  -0.7746664141381344 0.03888209766020851 0  -0.773268581353585 0.07924691463664665 0  -0.7703580987272367 0.1191280179904678 0  -0.7674226615991783 0.1584058396411907 0  -0.7647510982602447 0.1970985210676894 0  -0.7637920881391683 -0.2169731763007086 0  -0.7636025383288221 -0.1788205029016122 0  -0.7686870738780008 -0.1015118798551232 0  -0.7740746902207569 -0.02181708626603303 0  -0.7741467185002633 0.05909692469942955 0  -0.7689067945576333 0.1388429717508528 0  -0.7638636615712456 0.216248141848591 0  -0.7657692164333747 -0.1404493185435562 0  -0.7717454647918278 -0.06198777606027634 0  -0.7748230635857332 0.01863750418451397 0  -0.7718988376551703 0.09928463931848643 0  -0.766026278179973 0.1778251177595779 0  -0.7576957305069127 -0.2763846020166443 0  -0.7332557923534324 -0.3290623595536034 0  -0.694510144378799 -0.3726480262564505 0  -0.7596257118594363 -0.2463137622533313 0  -0.7438355825521623 -0.3014228693871759 0  -0.7150298880930367 -0.3520927015405011 0  -0.6727420677522009 -0.3900480638816631 0  -0.7611086069084301 -0.2315198744868898 0  -0.75767
[...]
<PointData  Vectors="f_4275"> 
<DataArray  type="Float64"  Name="f_4275"  NumberOfComponents="3" format="ascii">4.0420716958882892e-03 3.4169877271350798e-03 0.0000000000000000e+00  1.0705257774474538e-03 2.0961429026511151e-02 0.0000000000000000e+00  4.1082988369411160e-03 2.4337963510527718e-02 0.0000000000000000e+00  8.0580443273368697e-03 2.8569198174564412e-02 0.0000000000000000e+00  1.2317769436481558e-02 3.0302165084995145e-02 0.0000000000000000e+00  3.1053732815842932e-02 5.7984492489283064e-02 0.0000000000000000e+00  4.2225092380671674e-02 6.5021892281204155e-02 0.0000000000000000e+00  3.9118072018496181e-02 5.1750491065164175e-02 0.0000000000000000e+00  3.0315342124920538e-02 3.5647133322776949e-02 0.0000000000000000e+00  -1.4154802164745505e-03 2.0302944185275926e-02 0.0000000000000000e+00  1.6447379593913389e-02 1.6538952878093816e-02 0.0000000000000000e+00  1.2341818913136212e-02 1.1744469116006410e-02 0.0000000000000000e+00  8.1406662567780584e-03 7.6499933771039079e-03 0.0000000000000000e+00  3.5799513537156246e-03 3.7107720198108415e-03 0.0000000000000000e+00  1.4888796725495675e-03 2.3428925326934098e-03 0.0000000000000000e+00  -3.5031119028946312e-03 -1.7245041516776903e-03 0.0000000000000000e+00  -1.5759079891655712e-03 2.5815908797322397e-03 0.0000000000000000e+00  -1.7226718349000157e-02 3.6392451636694391e-02 0.0000000000000000e+00  -4.1858073886239053e-03 2.2184492627349221e-02 0.0000000000000000e+00  -8.0458381166460050e-03 2.6164396428709429e-02 0.0000000000000000e+00  -1.2847396905465217e-02 3.0381345994584804e-02 0.0000000000000000e+00  -1.7562169895261135e-02 3.2692392414943566e-02 0.0000000000000000e+00  -2.1296384103983140e-02 3.3148318814598711e-02 0.0000000000000000e+00  -2.3105103971902234e-02 3.1137789519928138e-02 0.0000000000000000e+00  -2.3048233446638873e-02 2.7855668319529191e-02 0.0000000000000000e+00  -1.8387489855495473e-02 2.0363283861433240e-02 0.0000000000000000e+00  -1.5247433073334600e-02 1.5926676281817924e-02 0.0000000000000000e+00  -1.1259899986092075e-02 1.1386349274084889e-02 0.0000000000000000e+00  -7.8534235339690062e-03 7.9361633094489174e-03 0.0000000000000000e+00  -6.9369840619478281e-03 7.4101412010980994e-03 0.0000000000000000e+00  -2.2710630868408846e-03 3.4477787374170218e-03 0.0000000000000000e+00  4.6562850580777653e-03 -2.4777347355472001e-03 0.0000000000000000e+00  6.6769757909148639e-03 -2.8529675865474492e-03 0.0000000000000000e+00  -8.5123780715495225e-03 1.2368748939883252e-02 0.0000000000000000e+00  9.6203516713019438e-03 1.3537070882317223e-02 0.0000000000000000e+00  3.7735673835102511e-03 4.0052182918196410e-03 0.0000000000000000e+00  9.9954262147803619e-03 9.3882727338764401e-03 0.0000000000000000e+00  1.8798822195455964e-02 1.9797112120146180e-02 0.0000000000000000e+00  4.3517154070499282e-02 5.3288403192806706e-02 0.0000000000000000e+00  3.2307311604545620e-02 5.5547962916747642e-02 0.0000000000000000e+00  1.1102094205923070e-02 3.2150128768584654e-02 0.0000000000000000e+00  2.5186847644318093e-03 2.2726386482431141e-02 0.0000000000000000e+00  -1.0936930981989012e-03 2.0933959393175223e-03 0.0000000000000000e+00  -1.0380133119633841e-02 2.8377273359479441e-02 0.0000000000000000e+00  -1.9772745687989667e-02 3.3537064232967179e-02 0.0000000000000000e+00  -2.2497951378348594e-02 2.8589028787901344e-02 0.0000000000000000e+00  -1.7742715294543746e-02 1.9102319567100946e-02 0.0000000000000000e+00  -9.6444789822940670e-03 9.7144888404167920e-03 0.0000000000000000e+00  -3.1261184706496410e-03 3.6029931718093463e-03 0.0000000000000000e+00  -2.6854092074507976e-03 2.0806144451579661e-02 0.0000000000000000e+00  9.3227853206691788e-03 2.4174995219314356e-02 0.0000000000000000e+00  -5.6000321080542795e-03 5.7402757995746569e-03 0.0000000000000000e+00  -1.3590788393335648e-02 1.3950814639540858e-02 0.0000000000000000e+00  -2.1297933116150983e-02 2.4373617401790351e-02 0.0000000000000000e+00  -2.2352235495320557e-02 3.2273558414386200e-02 0.0000000000000000e+00  -1.6430678917768598e-02 3.3894497014132809e-02 0.0000000000000000e+00  -5.9211054077530087e-03 2.3893107233460078e-02 0.0000000000000000e+00  -2.0319803233844499e-04 2.0203448446366613e-02 0.0000000000000000e+00  6.4716251939009308e-03 2.8121194507023505e-02 0.0000000000000000e+00  1.0861604348313250e-02 2.4579844692426894e-02 0.0000000000000000e+00  3.1665900026668456e-02 4.5177625216754960e-02 0.0000000000000000e+00  6.6246625686166571e-02 7.3235995213999774e-02 0.0000000000000000e+00  1.5343772697647005e-02 1.5047597637677513e-02 0.0000000000000000e+00  6.3657853754202926e-03 5.9997887524059464e-03 0.0000000000000000e+00  3.2968740336597017e-03 4.1171566259692056e-03 0.0000000000000000e+00  5.5926547000916378e-02 7.9465364026814881e-04 0.0000000000000000e+00  7.1005998763562103e-02 -9.1659998991839339e-02 0.0000000000000000e+00  -1.1230231992605080e-02 -4.3931346187535331e-02 0.0000000000000000e+00  -3.0657856889597268e-01 6.1182122537130526e-02 0.0000000000000000e+00  8.5543864936583804e-03 -8.9813801629099587e-03 0.0000000000000000e+00  4.1379749992366009e-02 -2.6341029449007430e-02 0.0000000000000000e+00  4.2400043610402294e-01 -7.8079064943799945e-02 0.0000000000000000e+00  2.7915912789223823e-02 -4.5359021142214436e-03 0.0000000000000000e+00  -2.6218041882027258e-02 1.0038356163735784e-02 0.0000000000000000e+00  -2.8428656737034638e-02 3.7622049871615472e-02 0.0000000000000000e+00  2.1990054512641855e-02 -4.8745871731480067e-02 0.0000000000000000e+00  3.6040039030415347e-02 -2.7826025501899495e-02 0.0000000000000000e+00  -2.1499386866765455e-01 8.8254861342704605e-02 0.0000000000000000e+00  -5.0534199740276464e-01 2.2200518371987735e-01 0.0000000000000000e+00  2.4493584235000182e-01 2.8917956056473079e-04 0.0000000000000000e+00  1.5471601493982301e-02 -4.6005106022366628e-03 0.0000000000000000e+00  8.9057100471482353e-02 -2.8425169193811869e-04 0.0000000000000000e+00  4.8653222280397715e-02 -1.9027270394065378e-03 0.0000000000000000e+00  1.3858900833130143e-02 1.5310831031398924e-03 0.0000000000000000e+00  8.2718895650390097e-03 8.8144091059571357e-04 0.0000000000000000e+00  7.5621089409177557e-03 6.8268212525246042e-04 0.0000000000000000e+00  1.0190405143038810e-02 4.6807599765963631e-04 0.0000000000000000e+00  1.0803862841545735e-02 5.1558597683305608e-05 0.0000000000000000e+00  1.0758225420022860e-02 -3.1252605972621430e-04 0.0000000000000000e+00  9.4901854159018546e-03 -6.7878204771843918e-04 0.0000000000000000e+00  7.1948595580737821e-03 -7.1968109933559954e-04 0.0000000000000000e+00  8.2553248540804883e-03 -9.6356366600612803e-04 0.0000000000000000e+00  1.9028843472042114e-02 -1.9330597412528542e-03 0.0000000000000000e+00  3.1728484113836213e-02 -2.4425641740014035e-03 0.0000000000000000e+00  1.7574825244883019e-02 2.4474635522667167e-03 0.0000000000000000e+00  7.1809632992828817e-03 6.9064205146070982e-04 0.0000000000000000e+00  1.0812193424934764e-02 1.7825016611203173e-04 0.0000000000000000e+00  1.0956124476488952e-02 -4.7099764928708196e-04 0.0000000000000000e+00  7.0196303192120403e-03 -7.5423893828374319e-04 0.0000000000000000e+00  1.9875164924944910e-02 -2.1965640421170623e-03 0.0000000000000000e+00  9.6465724319056787e-03 1.2536265724812853e-03 0.0000000000000000e+00  9.0547425558672647e-03 7.3383382651474687e-04 0.0000000000000000e+00  1.0800661397796542e-02 -1.3799618669988302e-04 0.0000000000000000e+00  7.1406544570010782e-03 -7.7586244906399681e-04 0.0000000000000000e+00  9.3495822193238112e-03 -1.3021959682216384e-03 0.0000000000000000e+00  -1.8003547897232776e-02 -3.3793460417128378e-02 0.0000000000000000e+00  -7.3446958615070015e-02 -1.2263734630840507e-02 0.0000000000000000e+00  2.9103950131430790e-02 4.1228800058642850e-02 0.0000000000000000e+00  7.2267360843324469e-02 8.5254798184446715e-02 0.0000000000000000e+00  3.7126799285716994e-02 5.3622143695017622e-03 0.0000000000000000e+00  1.6103765372238574e-01 3.4873066206048089e-02 0.0000000000000000e+00  3.8846947884454482e-02 2.5600308914415400e-02 0.0000000000000000e+00  1.5320801439051649e-02 1.7538884779282657e-02 0.0000000000000000e+00  2.9592562205402583e-02 4.8365176884047909e-03 0.0000000000000000e+00  1.3110882288637113e-01 -4.8129936789585411e-03 0.0000000000000000e+00  -1.6506105982670305e-01 -4.8541943180807928e-02 0.0000000000000000e+00  -8.4982765672262331e-02 -3.0471332473591597e-02 0.0000000000000000e+00  1.6868358699627727e-02 1.1957145427678176e-02 0.0000000000000000e+00  2.7499239236185438e-02 4.5934081226259985e-02 0.0000000000000000e+00  -3.9882481457162881e-02 -4.5737523123691767e-02 0.0000000000000000e+00  -2.4537744483691129e-02 -1.5403542447679058e-02 0.0000000000000000e+00  1.1385155515843534e-03 -1.4598649818933622e-02 0.0000000000000000e+00  2.4703467397407721e-03 5.3350489125204511e-04 0.0000000000000000e+00  -2.1945146589604329e-03 -2.8759453041675861e-03 0.0000000000000000e+00  -4.0906974920691067e-03 -3.9719369063895933e-03 0.0000000000000000e+00  -7.5234695314354951e-03 -6.7618268250930853e-03 0.0000000000000000e+00  -1.1223951052186074e-02 -1.0221337987130680e-02 0.0000000000000000e+00  -1.5453676372867729e-02 -1.4724415387623171e-02 0.0000000000000000e+00  -1.8030376732843793e-02 -1.8294048333396543e-02 0.0000000000000000e+00  -2.4489082543700302e-02 -2.7577837934899367e-02 0.0000000000000000e+00  -2.4359140497646221e-02 -3.0897139399936657e-02 0.0000000000000000e+00  -2.1562098778282048e-02 -3.1947071559698337e-02 0.0000000000000000e+00  -1.6527988935217324e-02 -2.9688374315345233e-02 0.0000000000000000e+00  -1.1811952013075834e-02 -2.7510891081320026e-02 0.0000000000000000e+00  -6.6762610074696657e-03 -2.1991473660252246e-02 0.0000000000000000e+00  -2.9475964335434739e-03 -1.6779979994256247e-02 0.0000000000000000e+00  -7.7432813479911622e-04 -1.4664733084770020e-02 0.0000000000000000e+00  1.5270583841459186e-03 -3.0772443176744165e-03 0.0000000000000000e+00  4.4369501522285686e-03 -2.3194948132957208e-02 0.0000000000000000e+00  1.0463058436149491e-02 -3.2930461043416924e-02 0.0000000000000000e+00  1.3347654719343557e-02 -3.0969937801804664e-02 0.0000000000000000e+00  9.4978027247065149e-03 -1.6638680161892669e-02 0.0000000000000000e+00  2.5628604166325303e-02 -3.8694899806870964e-02 0.0000000000000000e+00  2.6521439670510686e-02 -3.4469165902376170e-02 0.0000000000000000e+00  2.4594856802147534e-02 -2.8496722519396760e-02 0.0000000000000000e+00  1.5715123170029724e-02 -1.6190742689641730e-02 0.0000000000000000e+00  1.4288956196056317e-02 -1.4149884819919457e-02 0.0000000000000000e+00  1.0099091127832168e-02 -9.5854509477775168e-03 0.0000000000000000e+00  6.5580429484885733e-03 -6.1803368489268739e-03 0.0000000000000000e+00  4.4705052245786470e-03 -4.4673273285113849e-03 0.0000000000000000e+00  3.7942628595574008e-04 -1.2726710437219271e-03 0.0000000000000000e+00  -4.4997035278120847e-03 2.5340978115917976e-03 0.0000000000000000e+00  -3.2821187183210846e-03 -8.1035640518790214e-04 0.0000000000000000e+00  1.4435615861673251e-02 -3.0108183898348965e-02 0.0000000000000000e+00  9.1908688840127116e-03 -1.2616351709786255e-02 0.0000000000000000e+00  2.1876387757891733e-03 -2.4148655418172482e-03 0.0000000000000000e+00  8.4472184599311065e-03 -7.9428558153407190e-03 0.0000000000000000e+00  1.6309411815642220e-02 -1.6635995782283405e-02 0.0000000000000000e+00  2.4805283979657526e-02 -3.0104429555770869e-02 0.0000000000000000e+00  1.6119082139193844e-02 -2.7217782005068768e-02 0.0000000000000000e+00  1.4456767876372553e-02 -3.8419796687878517e-02 0.0000000000000000e+00  2.3012126089575246e-03 -1.8296503020474038e-02 0.0000000000000000e+00  -1.6380807022660189e-03 -1.4627716088914807e-02 0.0000000000000000e+00  -9.2419188308349026e-03 -2.5132226166248304e-02 0.0000000000000000e+00  -1.9089585716220263e-02 -3.0998698476294679e-02 0.0000000000000000e+00  -2.3601408484181477e-02 -2.8040308185667884e-02 0.0000000000000000e+00  -1.7758412286373603e-02 -1.7494895723110662e-02 0.0000000000000000e+00  -9.2538213392563580e-03 -8.3061115912518198e-03 0.0000000000000000e+00  -3.6684934694693086e-03 -3.6845268712452136e-03 0.0000000000000000e+00  -9.2416591518518464e-03 -1.2533294848341033e-02 0.0000000000000000e+00  1.5960488985061784e-03 -2.3731908046199564e-03 0.0000000000000000e+00  4.9370379748146249e-03 -4.7064607171748247e-03 0.0000000000000000e+00  1.2498327158635882e-02 -1.2072131437212729e-02 0.0000000000000000e+00  2.6911069928646145e-02 -2.9331557163073469e-02 0.0000000000000000e+00  2.3662811232434324e-02 -3.2999327223304342e-02 0.0000000000000000e+00  4.6224890123674083e-02 -8.7514530527087103e-02 0.0000000000000000e+00  6.4303822233226201e-03 -2.6184772970075362e-02 0.0000000000000000e+00  4.0425093857062682e-06 -1.2049968081551433e-02 0.0000000000000000e+00  -4.4868657877441690e-03 -1.8806277600946771e-02 0.0000000000000000e+00  -1.6301932250360571e-02 -3.2678677280659402e-02 0.0000000000000000e+00  -2.2756065795533940e-02 -3.1076808262629863e-02 0.0000000000000000e+00  -2.3864486974230447e-02 -2.5307921450573485e-02 0.0000000000000000e+00  -1.3529507471791644e-02 -1.2570473800256662e-02 0.0000000000000000e+00  -5.8539096332343001e-03 -5.2743984569307836e-03 0.0000000000000000e+00  -2.9253883383356105e-03 -3.5937003900728313e-03 0.0000000000000000e+00  -3.9631883428009156e-02 -2.0424598631810943e-03 0.0000000000000000e+00  -7.2736757575905725e-02 8.8093494933647210e-02 0.0000000000000000e+00  -1.3198512031918122e-02 4.4122463638970329e-02 0.0000000000000000e+00  1.6625157312866523e-01 -3.0626600855153962e-02 0.0000000000000000e+00  -1.3141659278805562e-02 1.4180299991794950e-02 0.0000000000000000e+00  -3.9791452825486691e-02 2.5509819294829709e-02 0.0000000000000000e+00  -2.6504751730648990e-01 5.2549705881032395e-02 0.0000000000000000e+00  -3.2425837117197147e-02 5.1646120655647124e-03 0.0000000000000000e+00  3.1412407629983749e-02 -2.1748218024188585e-02 0.0000000000000000e+00  3.5440615469202970e-02 -4.2431984894888544e-02 0.0000000000000000e+00  -2.4810878720202285e-02 4.6587177502455529e-02 0.0000000000000000e+00  -2.4669411565702608e-02 1.7808225784797019e-02 0.0000000000000000e+00  1.4552124806527658e-01 -5.5667080106157549e-02 0.0000000000000000e+00  3.0395734849662687e-01 -1.1521530835947232e-01 0.0000000000000000e+00  -1.7968773785087064e-01 -2.2750619317483123e-03 0.0000000000000000e+00  -2.0623148589601840e-02 4.6583718411300594e-03 0.0000000000000000e+00  -7.0059865170655558e-02 -1.2051872523365357e-03 0.0000000000000000e+00  -7.6302252300242498e-02 1.0768961345372890e-03 0.0000000000000000e+00  -1.6311000721694887e-02 -1.7471053576857414e-03 0.0000000000000000e+00  -8.0571112159742737e-03 -9.1762051567940593e-04 0.0000000000000000e+00  -7.2186085047582062e-03 -6.9451433172197283e-04 0.0000000000000000e+00  -9.7851101432919665e-03 -5.8750424227624299e-04 0.0000000000000000e+00  -1.0718440900849007e-02 -1.9444458679650380e-04 0.0000000000000000e+00  -1.0737373310887432e-02 1.6915579323514984e-04 0.0000000000000000e+00  -9.8986647450122339e-03 5.6959017428605296e-04 0.0000000000000000e+00  -7.4731024922326519e-03 7.0347043135618828e-04 0.0000000000000000e+00  -8.3242358281276352e-03 9.2600845376532011e-04 0.0000000000000000e+00  -1.5890019039561193e-02 1.7208694197522285e-03 0.0000000000000000e+00  -3.9839880747924557e-02 2.4953289555485719e-03 0.0000000000000000e+00  -1.8075994342997174e-02 -2.3438204072578957e-03 0.0000000000000000e+00  -7.0208077085754991e-03 -7.1976684798687283e-04 0.0000000000000000e+00  -1.0849066567021063e-02 -3.3701271082363132e-04 0.0000000000000000e+00  -1.0857826008357654e-02 3.1066672564784809e-04 0.0000000000000000e+00  -7.2765655722731391e-03 7.2949666560116538e-04 0.0000000000000000e+00  -1.8106155516235185e-02 2.3458490262094687e-03 0.0000000000000000e+00  -9.2823373914719398e-03 -1.2778508559954001e-03 0.0000000000000000e+00  -7.9712630583467416e-03 -7.6627341077913807e-04 0.0000000000000000e+00  -1.0762336933753780e-02 -1.2600699746255217e-05 0.0000000000000000e+00  -8.2963863182338275e-03 7.6598667763374422e-04 0.0000000000000000e+00  -9.5314396172602924e-03 1.2872735107108614e-03 0.0000000000000000e+00  1.6165730456667560e-01 3.0928732148686074e-02 0.0000000000000000e+00  -1.3185804140996901e-02 -4.3145287236156744e-02 0.0000000000000000e+00  -7.5383326502837245e-02 -9.2139195737116555e-02 0.0000000000000000e+00  -3.2368758959412547e-02 -5.0757928694157711e-03 0.0000000000000000e+00  -2.6419268678356761e-01 -5.5929754892506914e-02 0.0000000000000000e+00  -4.0701009359162078e-02 -2.6406413433684009e-02 0.0000000000000000e+00  -1.3880375042094485e-02 -1.4853718001021778e-02 0.0000000000000000e+00  -1.9108179904378707e-02 -4.5183203429605377e-03 0.0000000000000000e+00  -1.8233945232401033e-01 1.2400118792119568e-03 0.0000000000000000e+00  3.0255080729924327e-01 1.1558753598213338e-01 0.0000000000000000e+00  1.4091091625594454e-01 5.4990485993745647e-02 0.0000000000000000e+00  -2.5144290654942499e-02 -1.8318458717995791e-02 0.0000000000000000e+00  -2.4199528059479829e-02 -4.7159739326520615e-02 0.0000000000000000e+00  3.7199110792388433e-02 4.4195338109447986e-02 0.0000000000000000e+00  4.3444233502093380e-02 3.9260605788639942e-02 0.0000000000000000e+00  3.9933464555363530e-05 9.5756686462687335e-06 0.0000000000000000e+00  -3.1708481649082314e-05 -7.1263918467520123e-06 0.0000000000000000e+00  1.8243677688553747e-05 -1.0684056699940134e-06 0.0000000000000000e+00  1.9179773270885407e-05 -1.5918303248307730e-05 0.0000000000000000e+00  -1.6450635649467260e-05 1.4083152439831990e-05 0.0000000000000000e+00  -3.0965602461365815e-05 2.5909503482656864e-06 0.0000000000000000e+00  -1.0967793118893137e-06 -1.8752317771491750e-06 0.0000000000000000e+00  4.1574440399082306e-08 1.5957468271061192e-07 0.0000000000000000e+00  3.9946700628093384e-07 -7.8591326151824874e-07 0.0000000000000000e+00  4.6072525001117533e-07 -8.4059054827796494e-07 0.0000000000000000e+00  -2.1347490721774655e-06 1.1305884142283821e-05 0.0000000000000000e+00  -4.9825956518461393e-06 1.4276685562866632e-05 0.0000000000000000e+00  -2.7162075790683295e-05 4.2685742344317055e-05 0.0000000000000000e+00  -5.3725465471666438e-07 -5.5176760244270113e-06 0.0000000000000000e+00  3.7260451933013425e-06 -1.4320266090395484e-05 0.0000000000000000e+00  -8.1966312292818444e-08 -2.2622341739330317e-06 0.0000000000000000e+00  -9.1780549043094509e-05 6.8452955608313117e-05 0.0000000000000000e+00  2.0353863072336553e-05 1.3527063798925799e-05 0.0000000000000000e+00  -3.4165023207138098e-05 3.8511321390070127e-07 0.0000000000000000e+00  1.9341560956373391e-04 -3.5539647229211537e-05 0.0000000000000000e+00  1.1183188663380162e-04 9.2195255790612426e-05 0.0000000000000000e+00  4.7455746503627440e-05 -7.1601662478271928e-05 0.0000000000000000e+00  -2.1052188848151040e-05 1.2347005454731212e-06 0.0000000000000000e+00  2.9217034546237427e-06 -1.2920023598087763e-05 0.0000000000000000e+00  6.3435341844268392e-06 -1.6098715563798848e-05 0.0000000000000000e+00  -2.4300543628665190e-09 -4.8026773107001598e-07 0.0000000000000000e+00  5.7358277076687808e-06 1.6205411022045072e-05 0.0000000000000000e+00  -2.6757842449145507e-06 -1.3781353699783969e-05 0.0000000000000000e+00  3.6394901325842579e-05 2.6150623609099484e-06 0.0000000000000000e+00  2.3710311275918319e-06 1.2145250483386812e-05 0.0000000000000000e+00  1.5948679839644856e-05 1.1901548648924813e-05 0.0000000000000000e+00  -4.0089938790050040e-05 1.1722984574326142e-05 0.0000000000000000e+00  -2.8828126074269076e-05 -3.4879585167090743e-05 0.0000000000000000e+00  -2.5389820367420639e-05 -1.2727076029047480e-06 0.0000000000000000e+00  5.4731492039512672e-05 -1.8000288858028660e-05 0.0000000000000000e+00  -7.8408194261171899e-06 -1.8154260719522085e-05 0.0000000000000000e+00  2.5439269648170957e-05 -3.8027778443128039e-05 0.0000000000000000e+00  6.2786284929400066e-07 3.0501943516273681e-06 0.0000000000000000e+00  -1.5128196709219397e-05 -1.1630917541064191e-05 0.0000000000000000e+00  1.1632893164164210e-06 4.9194137507609795e-06 0.0000000000000000e+00  -6.3