<?xml version="1.0"?>
<VTKFile type="UnstructuredGrid"  version="0.1"  >
<UnstructuredGrid>
<Piece  NumberOfPoints="4153" NumberOfCells="8064">
<Points>
<DataArray  type="Float64"  NumberOfComponents="3"  format="ascii">-0.4249999999999999 -0.5 0  -0.02499999999999988 -0.5 0  -0.07499999999999987 -0.5 0  -0.1249999999999998 -0.5 0  -0.1749999999999998 -0.5 0  -0.2249999999999998 -0.5 0  -0.2749999999999998 -0.5 0  -0.3249999999999998 -0.5 0  -0.3749999999999999 -0.5 0  0.02500000000000016 -0.5 0  -0.4749999999999998 -0.5 0  -0.5249999999999998 -0.5 0  -0.5749999999999998 -0.5 0  -0.6249999999999999 -0.5 0  -0.6749999999999999 -0.5 0  -0.725 -0.5 0  -0.775 -0.5 0  0.8 -0.5 0  0.07500000000000025 -0.5 0  0.1250000000000003 -0.5 0  0.1750000000000004 -0.5 0  0.2250000000000004 -0.5 0  0.2750000000000004 -0.5 0  0.3250000000000003 -0.5 0  0.3750000000000001 -0.5 0  0.4250000000000002 -0.5 0  0.4750000000000002 -0.5 0  0.5250000000000001 -0.5 0  0.5750000000000002 -0.5 0  0.625 -0.5 0  0.675 -0.5 0  0.725 -0.5 0  0.775 -0.5 0  0.75 -0.5 0  -0.75 -0.5 0  -0.6499999999999999 -0.5 0  -0.5499999999999998 -0.5 0  -0.4499999999999998 -0.5 0  -0.3499999999999999 -0.5 0  -0.2499999999999998 -0.5 0  -0.1499999999999998 -0.5 0  -0.04999999999999988 -0.5 0  0.7 -0.5 0  0.1500000000000004 -0.5 0  0.2500000000000003 -0.5 0  0.3500000000000002 -0.5 0  0.4500000000000002 -0.5 0  0.5500000000000002 -0.5 0  0.65 -0.5 0  0.0500000000000002 -0.5 0  -0.8 -0.5 0  0.6000000000000001 -0.5 0  0.5000000000000002 -0.5 0  0.4000000000000001 -0.5 0  0.3000000000000003 -0.5 0  0.2000000000000004 -0.5 0  0.1000000000000003 -0.5 0  1.110223024625157e-16 -0.5 0  -0.09999999999999987 -0.5 0  -0.1999999999999998 -0.5 0  -0.2999999999999998 -0.5 0  -0.3999999999999999 -0.5 0  -0.4999999999999998 -0.5 0  -0.5999999999999999 -0.5 0  -0.7 -0.5 0  1 -0.3 0  0.8765366864730179 -0.4847759065022574 0  0.9414213562373094 -0.4414213562373097 0  0.9847759065022573 -0.3765366864730181 0  0.838268343236509 -0.4923879532511287 0  0.9089790213551636 -0.4630986313697836 0  0.9630986313697834 -0.4089790213551639 0  0.9923879532511286 -0.338268343236509 0  0.8191341716182545 -0.4961939766255644 0  0.8574025148547635 -0.488581929876693 0  0.8927578539140908 -0.4739372689360205 0  0.9252001887962364 -0.4522599938035466 0  0.9522599938035463 -0.4252001887962368 0  0.9739372689360204 -0.392757853914091 0  0.9885819298766929 -0.3574025148547635 0  0.9961939766255643 -0.3191341716182545 0  1 -0.275 0  1 0.275 0  1 0.225 0  1 0.175 0  1 0.125 0  1 0.07499999999999994 0  1 0.02499999999999987 0  1 -0.0250000000000002 0  1 -0.07500000000000026 0  1 -0.1250000000000003 0  1 -0.1750000000000002 0  1 -0.2250000000000001 0  1 0.3 0  1 0.25 0  1 0.15 0  1 0.04999999999999991 0  1 -0.05000000000000023 0  1 -0.1500000000000002 0  1 -0.2500000000000001 0  1 0.2 0  1 0.09999999999999998 0  1 -1.665334536937735e-16 0  1 -0.1000000000000003 0  1 -0.2000000000000002 0  0.8 0.5 0  0.9847759065022573 0.3765366864730181 0  0.9414213562373094 0.4414213562373097 0  0.8765366864730179 0.4847759065022574 0  0.9923879532511286 0.338268343236509 0  0.9630986313697834 0.4089790213551639 0  0.9089790213551636 0.4630986313697836 0  0.838268343236509 0.4923879532511287 0  0.9961939766255643 0.3191341716182545 0  0.9885819298766929 0.3574025148547635 0  0.9739372689360204 0.392757853914091 0  0.9522599938035463 0.4252001887962368 0  0.9252001887962364 0.4522599938035466 0  0.8927578539140908 0.4739372689360205 0  0.8574025148547635 0.488581929876693 0  0.8191341716182545 0.4961939766255644 0  -0.02500000000000016 0.5 0  0.725 0.5 0  0.6749999999999999 0.5 0  0.6249999999999999 0.5 0  0.5749999999999998 0.5 0  0.5249999999999998 0.5 0  0.4749999999999998 0.5 0  0.4249999999999999 0.5 0  0.3749999999999999 0.5 0  0.3249999999999998 0.5 0  0.2749999999999998 0.5 0  0.2249999999999998 0.5 0  0.1749999999999998 0.5 0  0.1249999999999998 0.5 0  0.07499999999999987 0.5 0  0.02499999999999988 0.5 0  0.775 0.5 0  -0.07500000000000025 0.5 0  -0.1250000000000003 0.5 0  -0.1750000000000004 0.5 0  -0.2250000000000004 0.5 0  -0.2750000000000004 0.5 0  -0.3250000000000003 0.5 0  -0.3750000000000001 0.5 0  -0.4250000000000002 0.5 0  -0.4750000000000002 0.5 0  -0.5250000000000001 0.5 0  -0.5750000000000002 0.5 0  -0.625 0.5 0  -0.675 0.5 0  -0.725 0.5 0  -0.775 0.5 0  -0.8 0.5 0  -0.75 0.5 0  -0.65 0.5 0  -0.5500000000000002 0.5 0  -0.4500000000000002 0.5 0  -0.3500000000000002 0.5 0  -0.2500000000000003 0.5 0  -0.1500000000000004 0.5 0  -0.0500000000000002 0.5 0  0.04999999999999988 0.5 0  0.1499999999999998 0.5 0  0.2499999999999998 0.5 0  0.3499999999999999 0.5 0  0.4499999999999998 0.5 0  0.5499999999999998 0.5 0  0.6499999999999999 0.5 0  0.75 0.5 0  -0.7 0.5 0  -0.6000000000000001 0.5 0  -0.5000000000000002 0.5 0  -0.4000000000000001 0.5 0  -0.3000000000000003 0.5 0  -0.2000000000000004 0.5 0  -0.1000000000000003 0.5 0  -1.110223024625157e-16 0.5 0  0.09999999999999987 0.5 0  0.1999999999999998 0.5 0  0.2999999999999998 0.5 0  0.3999999999999999 0.5 0  0.4999999999999998 0.5 0  0.5999999999999999 0.5 0  0.7 0.5 0  -1 0.3 0  -0.8765366864730181 0.4847759065022573 0  -0.9414213562373097 0.4414213562373094 0  -0.9847759065022574 0.3765366864730179 0  -0.838268343236509 0.4923879532511287 0  -0.9089790213551638 0.4630986313697834 0  -0.9630986313697836 0.4089790213551636 0  -0.9923879532511287 0.338268343236509 0  -0.8191341716182545 0.4961939766255643 0  -0.8574025148547635 0.488581929876693 0  -0.892757853914091 0.4739372689360203 0  -0.9252001887962368 0.4522599938035464 0  -0.9522599938035466 0.4252001887962365 0  -0.9739372689360205 0.3927578539140908 0  -0.9885819298766931 0.3574025148547634 0  -0.9961939766255643 0.3191341716182545 0  -1 0.275 0  -1 -0.275 0  -1 -0.225 0  -1 -0.175 0  -1 -0.125 0  -1 -0.07499999999999994 0  -1 -0.02499999999999987 0  -1 0.0250000000000002 0  -1 0.07500000000000026 0  -1 0.1250000000000003 0  -1 0.1750000000000002 0  -1 0.2250000000000001 0  -1 -0.3 0  -1 -0.25 0  -1 -0.15 0  -1 -0.04999999999999991 0  -1 0.05000000000000023 0  -1 0.1500000000000002 0  -1 0.2500000000000001 0  -1 -0.2 0  -1 -0.09999999999999998 0  -1 1.665334536937735e-16 0  -1 0.1000000000000003 0  -1 0.2000000000000002 0  -0.9847759065022574 -0.3765366864730179 0  -0.9414213562373096 -0.4414213562373094 0  -0.8765366864730181 -0.4847759065022573 0  -0.9923879532511287 -0.338268343236509 0  -0.9630986313697836 -0.4089790213551636 0  -0.9089790213551638 -0.4630986313697834 0  -0.838268343236509 -0.4923879532511287 0  -0.9961939766255643 -0.3191341716182545 0  -0.9885819298766931 -0.3574025148547634 0  -0.9739372689360205 -0.3927578539140908 0  -0.9522599938035465 -0.4252001887962365 0  -0.9252001887962367 -0.4522599938035464 0  -0.892757853914091 -0.4739372689360203 0  -0.8574025148547635 -0.488581929876693 0  -0.8191341716182545 -0.4961939766255643 0  -0.3000000000000003 0.3267949192431125 0  0.3181343990330772 -0.3439416921723297 0  -0.08257249764926196 -0.3383308877677023 0  -0.50979744334887 -0.3255818518047211 0  0.5060441378325211 0.3274561643884037 0  0.1037631564626732 0.3131559137665553 0  0.843149210446875 -0.1923130104173427 0  -0.8418263458721231 0.1927503215247096 0  -0.8408809410250262 -0.1897116835785854 0  0.8409071959036176 0.1896235182386696 0  0.705967194587281 0.3354524287114743 0  0.6276370409402552 0.1658336215477063 0  0.4215070288293651 0.1446794873901968 0  0.5369019087152576 -0.01677883310260353 0  0.3378219718963524 -0.0304857337078401 0  0.7359191653189867 -0.0003779706345871367 0  0.2206709281181736 0.1292871338121241 0  0.1390057666500616 -0.05482518983879574 0  0.02156604114872933 0.1091113821954512 0  -0.05991856886335568 -0.07544049830328706 0  -0.2091026540303009 0.113218101697482 0  -0.2557387210741711 -0.08957125969209863 0  -0.3742518736706093 0.02381865171750689 0  -0.7065883696935737 -0.3351547375041799 0  -0.6319769825415822 -0.1640183941417108 0  -0.7379485134301987 -0.0003221286420197649 0  -0.6263925638672921 0.1747922261462193 0  0.7000000000000003 -0.3471147448144379 0  -0.09731754444756222 0.2985839976753261 0  -0.7019016658227 0.339872535812372 0  -0.5036626740707574 0.3416097573515475 0  0.3086642085404555 0.31909644989288 0  0.4355889359290377 -0.1794947220360297 0  0.1233906847482294 -0.33992001942789 0  -0.2910439982708135 -0.2942818290560931 0  0.6252598700683595 -0.1832373653183336 0  -0.4390211493546888 -0.1414717198202583 0  -0.5445756908252299 0.01225332998817602 0  0.5094027625036279 -0.3483114655372777 0  -0.8570298735864267 0.3548088427148782 0  0.2432245006188761 -0.181388344807941 0  0.8576591493456415 0.3532994606374906 0  -0.8577781333911819 -0.3532575554640149 0  0.856914113336837 -0.3561698222938181 0  -0.4103395160999327 0.186370105143853 0  0.04059278020228735 -0.1932320619509051 0  -0.894759031223147 0.000141425932117211 0  0.8948577502800618 -0.0001596971477125707 0  -0.1430838089440986 -0.1942958300671257 0  -0.4774576034625814 0.09931171756601452 0  -0.5183660399836124 0.1805811656450362 0  -0.585484127346261 0.09352277806719765 0  -0.3551697580499665 0.2565825121934828 0  -0.3097210850651168 0.1497941034206675 0  -0.2545513270151506 0.2200065104702973 0  -0.3922956948852711 0.10509437843068 0  -0.4594137822479196 0.01803599085284146 0  -0.1532100992389315 0.205901049686404 0  -0.1986587722237813 0.3126894584592193 0  -0.1486587722237813 0.399291998837663 0  -0.04865877222378117 0.399291998837663 0  0.5673313162859936 -0.2657744154278056 0  0.6047013812518141 -0.3477131051758577 0  0.6626299350341799 -0.2651760550663858 0  0.4724958492163328 -0.2639030937866537 0  0.5304244029986986 -0.1813660436771817 0  -0.3650325738127511 -0.2178767744381757 0  -0.4744092963517794 -0.2335267858124897 0  -0.4004207208098418 -0.3099318404304071 0  -0.3473799352144299 -0.1155214897561785 0  -0.2733913596724923 -0.1919265443740958 0  0.06266459880570127 0.2111336479810033 0  0.1211184846334515 0.1191992580037876 0  0.1622170422904234 0.2212215237893397 0  
[...]
<PointData  Vectors="f_528"> 
<DataArray  type="Float64"  Name="f_528"  NumberOfComponents="3" format="ascii">8.2301240500105886e-18 5.3855828984881943e-03 0.0000000000000000e+00  2.5913271974762471e-32 7.3299969135711851e-02 0.0000000000000000e+00  1.7004111722939980e-30 6.6897969857962508e-02 0.0000000000000000e+00  1.1012839615658884e-28 5.9168777182450144e-02 0.0000000000000000e+00  7.1065373951345377e-27 5.0413326862056025e-02 0.0000000000000000e+00  4.1645359827727697e-25 4.3794640711405701e-02 0.0000000000000000e+00  2.7337162450030172e-23 3.4091300730394028e-02 0.0000000000000000e+00  1.7741665886715465e-21 2.5772777384750284e-02 0.0000000000000000e+00  1.1964082213591208e-19 1.8694469366124254e-02 0.0000000000000000e+00  -2.5270614711416264e-32 7.7753127475491332e-02 0.0000000000000000e+00  6.2871527234536044e-16 8.5045178506995393e-04 0.0000000000000000e+00  3.2747874876800156e-14 -7.8703225882042014e-03 0.0000000000000000e+00  3.6608275024392010e-12 -1.8110631063181129e-02 0.0000000000000000e+00  5.6026748841654311e-11 -2.6156851893589537e-02 0.0000000000000000e+00  3.4951818008201525e-08 -3.6430273181136973e-02 0.0000000000000000e+00  -2.6045000731449277e-06 -4.6859909185468972e-02 0.0000000000000000e+00  7.5241227750586068e-04 -4.5133795321363808e-02 0.0000000000000000e+00  1.4129581350668396e-02 -1.2831911123001150e-01 0.0000000000000000e+00  -1.6650526529621325e-30 7.9413068933140971e-02 0.0000000000000000e+00  -1.0787270684514646e-28 7.8100000908766121e-02 0.0000000000000000e+00  -7.0489939567918710e-27 7.3854261383892991e-02 0.0000000000000000e+00  -4.6274217419068272e-25 6.7114183129146535e-02 0.0000000000000000e+00  -3.0502216613128861e-23 5.8461458319945661e-02 0.0000000000000000e+00  -1.9771053461221482e-21 4.8322864966201320e-02 0.0000000000000000e+00  -1.3499013492444095e-19 3.6776955431306720e-02 0.0000000000000000e+00  -8.5683931583800000e-18 2.6811057209313583e-02 0.0000000000000000e+00  -6.4278226565499156e-16 1.4959304733907646e-02 0.0000000000000000e+00  -3.4243544790338013e-14 3.3520449895739074e-03 0.0000000000000000e+00  -3.6923868162601683e-12 -8.9244938437710863e-03 0.0000000000000000e+00  -6.7528658759443722e-11 -1.8841852086655564e-02 0.0000000000000000e+00  -3.2975080504451737e-08 -3.1397412658091255e-02 0.0000000000000000e+00  2.2742350647683388e-06 -4.2575388337138351e-02 0.0000000000000000e+00  -6.9671642689835445e-04 -3.8617949254571633e-02 0.0000000000000000e+00  4.8731676820112508e-06 -5.9425361627876122e-02 0.0000000000000000e+00  -6.1378823692920807e-06 -6.1993519112687863e-02 0.0000000000000000e+00  1.3160218089331310e-09 -3.1127295367400248e-02 0.0000000000000000e+00  3.1127350764863680e-13 -1.2121834327683155e-02 0.0000000000000000e+00  6.9902459608481233e-17 6.1028752236758797e-03 0.0000000000000000e+00  1.4533761171550920e-20 2.1911518502048522e-02 0.0000000000000000e+00  3.3643116585438297e-24 3.7957123967993084e-02 0.0000000000000000e+00  8.8800557217946003e-28 5.5059636047536220e-02 0.0000000000000000e+00  2.1161249878282940e-31 7.0328184300321922e-02 0.0000000000000000e+00  -1.6553957338324212e-07 -3.8714497238302517e-02 0.0000000000000000e+00  -8.6977788052383646e-28 7.6327383592561332e-02 0.0000000000000000e+00  -3.7462945641699862e-24 6.3065803062755582e-02 0.0000000000000000e+00  -1.6156983323134400e-20 4.3046302878129494e-02 0.0000000000000000e+00  -7.1966519117409785e-17 2.0692387433204371e-02 0.0000000000000000e+00  -3.2037620607452207e-13 -2.3434094948366919e-03 0.0000000000000000e+00  -1.3213118308013688e-09 -2.5742225075282364e-02 0.0000000000000000e+00  -2.0671874097178001e-31 7.8919074576873000e-02 0.0000000000000000e+00  -1.6404322413940936e-02 -1.5005058209026240e-01 0.0000000000000000e+00  -2.5799867920848072e-11 -1.3837357399346464e-02 0.0000000000000000e+00  -5.0265169067873175e-15 9.1717078211726432e-03 0.0000000000000000e+00  -1.0946088666315159e-18 3.1726985819232882e-02 0.0000000000000000e+00  -2.4655427849974400e-22 5.3560201823599975e-02 0.0000000000000000e+00  -5.7120237888632310e-26 7.0856597850982153e-02 0.0000000000000000e+00  -1.3407690078811565e-29 7.9136656827368007e-02 0.0000000000000000e+00  1.0723935681870761e-34 7.5659659115151628e-02 0.0000000000000000e+00  1.3664401804245356e-29 6.3161627898603731e-02 0.0000000000000000e+00  5.6625534550602133e-26 4.7440264123469550e-02 0.0000000000000000e+00  2.2053365156719287e-22 2.9854685866193765e-02 0.0000000000000000e+00  9.4662266989266989e-19 9.3955878706197642e-03 0.0000000000000000e+00  4.8876037107545582e-15 -3.2141192499188409e-03 0.0000000000000000e+00  2.4958243814875129e-11 -2.3179593737420474e-02 0.0000000000000000e+00  1.6848325806165058e-07 -4.3006923731697518e-02 0.0000000000000000e+00  1.9344382627097544e-02 -1.5456839143110331e-03 0.0000000000000000e+00  5.4021887930155069e-02 -1.2654033054694427e-01 0.0000000000000000e+00  3.1596263087178680e-02 -1.6371208989092847e-02 0.0000000000000000e+00  -4.6469113958538526e-02 1.9862928875707984e-02 0.0000000000000000e+00  1.4775839055006920e-02 -7.4601581182294333e-02 0.0000000000000000e+00  2.5716405875362721e-02 -3.8511947013132590e-02 0.0000000000000000e+00  5.0992314301694604e-02 -3.4062222629220963e-02 0.0000000000000000e+00  4.3495483946860376e-02 -8.6953903457258480e-03 0.0000000000000000e+00  1.8650052468568729e-02 -1.0072022007707698e-01 0.0000000000000000e+00  -6.9474339696078699e-03 2.6584161060092419e-02 0.0000000000000000e+00  8.2562664282393422e-02 -1.2668443498889606e-01 0.0000000000000000e+00  1.0811915066038392e-02 -2.0497764275558560e-02 0.0000000000000000e+00  7.2150429447420700e-02 -4.9688189939519740e-02 0.0000000000000000e+00  -9.6682689654768866e-03 4.5779604068263233e-03 0.0000000000000000e+00  1.0831405740085576e-01 -2.1841011847216363e-02 0.0000000000000000e+00  2.9637046678336582e-02 -6.3029538665586929e-03 0.0000000000000000e+00  6.1217969214578540e-02 -1.8969617467392915e-04 0.0000000000000000e+00  6.3188157540515974e-02 2.4123338084768099e-04 0.0000000000000000e+00  4.0319400067132707e-02 3.4374189006640490e-07 0.0000000000000000e+00  3.1647555958804773e-02 1.1109069054845598e-08 0.0000000000000000e+00  2.6201485496287993e-02 9.5913719588608388e-11 0.0000000000000000e+00  2.1676249546224328e-02 2.0811691590471939e-12 0.0000000000000000e+00  2.0202948842453248e-02 2.6481798644680109e-14 0.0000000000000000e+00  2.0203653080527136e-02 -2.0261463537872488e-14 0.0000000000000000e+00  2.1659314365766388e-02 -1.5713845205923405e-12 0.0000000000000000e+00  2.6161081279529486e-02 -7.7342664761143011e-11 0.0000000000000000e+00  3.1570664341438320e-02 -8.2374163935258062e-09 0.0000000000000000e+00  4.0047942365469713e-02 -3.7795562081041500e-07 0.0000000000000000e+00  1.7004086626584845e-02 1.2283048972591892e-03 0.0000000000000000e+00  4.0684600583162013e-02 1.6817642332034826e-05 0.0000000000000000e+00  2.8387122650936306e-02 1.2118316067951250e-09 0.0000000000000000e+00  2.0963987018577768e-02 2.4515771658865520e-13 0.0000000000000000e+00  2.0974013248669782e-02 -1.9177141557146740e-13 0.0000000000000000e+00  2.8346930531220962e-02 -1.0110921568046021e-09 0.0000000000000000e+00  4.1138715590501328e-02 -1.5897672900467531e-05 0.0000000000000000e+00  3.4780480005368007e-02 3.7948497364900960e-08 0.0000000000000000e+00  2.3701257651983956e-02 1.4227690102439984e-11 0.0000000000000000e+00  2.0005479379041950e-02 7.9951689691129144e-16 0.0000000000000000e+00  2.3668781584363165e-02 -1.0352675320614872e-11 0.0000000000000000e+00  3.4802604313485322e-02 -2.0211208701337667e-08 0.0000000000000000e+00  1.6892766622985930e-02 1.5441776714851549e-01 0.0000000000000000e+00  -4.7372321399417397e-02 -2.0304757119921017e-02 0.0000000000000000e+00  2.7503385876936976e-02 1.1384782738399371e-02 0.0000000000000000e+00  6.1508058995971969e-02 1.4492797116373382e-01 0.0000000000000000e+00  4.2657874409630724e-02 8.5336322147524912e-03 0.0000000000000000e+00  5.0912825962137392e-02 3.4000845631225872e-02 0.0000000000000000e+00  2.4278569462177459e-02 3.6376033070488513e-02 0.0000000000000000e+00  1.4834886555870650e-02 7.4920097031803273e-02 0.0000000000000000e+00  2.7075144513135641e-02 5.8591712030582202e-03 0.0000000000000000e+00  1.1424281563102177e-01 2.3105470663311138e-02 0.0000000000000000e+00  -1.4162380398004819e-02 -7.4920519538988033e-03 0.0000000000000000e+00  7.3633831779205752e-02 5.0558412232484924e-02 0.0000000000000000e+00  8.2204617896909724e-03 1.7196660310424283e-02 0.0000000000000000e+00  8.7275860964289867e-02 1.3392708341681667e-01 0.0000000000000000e+00  -8.0753569284246294e-03 -3.2664746675528732e-02 0.0000000000000000e+00  1.9230389268219482e-02 1.0451054163602595e-01 0.0000000000000000e+00  2.5678208513696857e-32 -9.1468757771842282e-02 0.0000000000000000e+00  2.6703226360320496e-06 4.4364872382820275e-02 0.0000000000000000e+00  -3.6059739674116617e-08 3.2756409467200140e-02 0.0000000000000000e+00  -5.8175873179298909e-11 2.1059170269306440e-02 0.0000000000000000e+00  -3.7852048864413975e-12 9.8714539517775358e-03 0.0000000000000000e+00  -3.3920015741810747e-14 -2.6003183188234146e-03 0.0000000000000000e+00  -6.5067117375404663e-16 -1.4721140034557864e-02 0.0000000000000000e+00  -8.5739328020915617e-18 -2.6653705565749017e-02 0.0000000000000000e+00  -1.3398796325793826e-19 -3.8535393643418688e-02 0.0000000000000000e+00  -1.9640897395191844e-21 -5.1131220250101604e-02 0.0000000000000000e+00  -3.0310149055946654e-23 -6.2833235966492554e-02 0.0000000000000000e+00  -4.5880310120180479e-25 -7.2872221641904017e-02 0.0000000000000000e+00  -6.9284520207035347e-27 -8.3085098306598298e-02 0.0000000000000000e+00  -1.0669302685202469e-28 -8.9171624520200624e-02 0.0000000000000000e+00  -1.6466214916649904e-30 -9.2708193119012003e-02 0.0000000000000000e+00  -2.4995438868228432e-32 -9.1834767965848246e-02 0.0000000000000000e+00  -7.8075325706314781e-04 4.2607112249943423e-02 0.0000000000000000e+00  1.6815169273893792e-30 -8.4504310910311867e-02 0.0000000000000000e+00  1.0880023217709662e-28 -7.6623484486583168e-02 0.0000000000000000e+00  7.0594481406971027e-27 -6.8702925860942884e-02 0.0000000000000000e+00  4.9445374646292737e-25 -5.4853537278443089e-02 0.0000000000000000e+00  3.2689418936546946e-23 -4.6315570619864500e-02 0.0000000000000000e+00  2.1206357054607858e-21 -3.5971105176199412e-02 0.0000000000000000e+00  1.4386824435120610e-19 -2.5777325174918233e-02 0.0000000000000000e+00  9.4672213357973001e-18 -1.5041679922010864e-02 0.0000000000000000e+00  7.1469755607503992e-16 -6.0228206715514003e-03 0.0000000000000000e+00  3.7869080137305925e-14 3.8827529714908562e-03 0.0000000000000000e+00  4.1136288692525442e-12 1.4015173145508186e-02 0.0000000000000000e+00  7.1620154539468538e-11 2.4159446226137853e-02 0.0000000000000000e+00  3.7226158719996947e-08 3.5140284045256424e-02 0.0000000000000000e+00  -2.6084240948819445e-06 4.5349889163384748e-02 0.0000000000000000e+00  7.9718434760041887e-04 3.9711416845200208e-02 0.0000000000000000e+00  -1.6460688798103099e-02 1.4986055059849679e-01 0.0000000000000000e+00  -4.5551296160233888e-06 6.2677475629183479e-02 0.0000000000000000e+00  1.5000738892600186e-09 2.9919841391403613e-02 0.0000000000000000e+00  3.5757582363657551e-13 8.9117518929563988e-03 0.0000000000000000e+00  7.9968376970132957e-17 -1.1224148634222665e-02 0.0000000000000000e+00  1.7352314885471109e-20 -3.0935090784040234e-02 0.0000000000000000e+00  4.0188205246981851e-24 -5.2008935715534693e-02 0.0000000000000000e+00  8.7670806938252425e-28 -7.1878376489758825e-02 0.0000000000000000e+00  2.0912121994529134e-31 -8.7421644997096301e-02 0.0000000000000000e+00  -2.0465770481043931e-31 -9.3542437844756979e-02 0.0000000000000000e+00  -8.6050224824446342e-28 -8.6149388182560044e-02 0.0000000000000000e+00  -3.7226358539945491e-24 -6.8474514092166885e-02 0.0000000000000000e+00  -1.6075102445741096e-20 -4.5205224846460862e-02 0.0000000000000000e+00  -7.2433503325144142e-17 -2.0975594274097578e-02 0.0000000000000000e+00  -3.2346817807569359e-13 3.1720461826254690e-03 0.0000000000000000e+00  -1.3827720487248558e-09 2.6652667519095542e-02 0.0000000000000000e+00  5.4379015404852306e-06 6.0678957507253405e-02 0.0000000000000000e+00  1.8020029499732345e-07 4.2133671406300276e-02 0.0000000000000000e+00  2.8180172821807466e-11 1.8912894215522853e-02 0.0000000000000000e+00  5.5669997827066740e-15 -1.1249046686752182e-03 0.0000000000000000e+00  1.1529359683937139e-18 -1.9592196497867493e-02 0.0000000000000000e+00  2.6396350589749963e-22 -4.1225252259525565e-02 0.0000000000000000e+00  5.6738556292559262e-26 -6.1567606541719888e-02 0.0000000000000000e+00  1.3520007975612200e-29 -8.0683802578030858e-02 0.0000000000000000e+00  3.0979642327766733e-34 -9.2033633967164657e-02 0.0000000000000000e+00  -1.3246550353339899e-29 -9.1369431785898056e-02 0.0000000000000000e+00  -5.5643125086049161e-26 -7.7985046336177408e-02 0.0000000000000000e+00  -2.4483257821062694e-22 -5.7128973308206557e-02 0.0000000000000000e+00  -1.0786669920685552e-18 -3.1979818409964680e-02 0.0000000000000000e+00  -5.0507899687407510e-15 -8.6956905532867470e-03 0.0000000000000000e+00  -2.5605134556621006e-11 1.6365688905919495e-02 0.0000000000000000e+00  -1.7083094276065118e-07 4.0084140496882824e-02 0.0000000000000000e+00  -1.2377526634952622e-02 7.1740695391394650e-04 0.0000000000000000e+00  -6.1454508454705126e-02 1.4440947544995153e-01 0.0000000000000000e+00  -3.0529285162782492e-02 1.3721944648381104e-02 0.0000000000000000e+00  5.6355731097511456e-02 -2.4078958481598613e-02 0.0000000000000000e+00  -1.5169772474059540e-02 7.6623771960245654e-02 0.0000000000000000e+00  -2.4846068632295285e-02 3.7219014742258846e-02 0.0000000000000000e+00  -5.1964627472237512e-02 3.4710001317639357e-02 0.0000000000000000e+00  -4.2531316397196248e-02 8.5112861037516356e-03 0.0000000000000000e+00  -1.9793206559350348e-02 1.0747537911895105e-01 0.0000000000000000e+00  9.0208240852603146e-03 -3.6768744576390906e-02 0.0000000000000000e+00  -8.9432417245442014e-02 1.3734647470222455e-01 0.0000000000000000e+00  -7.3530568866982966e-03 1.5841430300302231e-02 0.0000000000000000e+00  -7.6545361942970361e-02 5.2751819931716598e-02 0.0000000000000000e+00  1.8222163623850110e-02 -1.0054215541599899e-02 0.0000000000000000e+00  -1.1872577981685814e-01 2.4026841261297057e-02 0.0000000000000000e+00  -2.5355312348108908e-02 5.5800524009089565e-03 0.0000000000000000e+00  -6.5077848301769159e-02 2.6538261477589305e-04 0.0000000000000000e+00  -6.2391727172604626e-02 -1.9887462004307071e-04 0.0000000000000000e+00  -4.1515040065668168e-02 -4.2890750433865695e-07 0.0000000000000000e+00  -3.3451011692404581e-02 -9.0763227954452507e-09 0.0000000000000000e+00  -2.8473324640568804e-02 -8.7902440387041248e-11 0.0000000000000000e+00  -2.4032057921534625e-02 -1.7748839243727718e-12 0.0000000000000000e+00  -2.2807959783706200e-02 -2.3123901714209087e-14 0.0000000000000000e+00  -2.2821376943487019e-02 2.6946633835506527e-14 0.0000000000000000e+00  -2.4163879921635260e-02 2.1629916210117753e-12 0.0000000000000000e+00  -2.8460212393144585e-02 9.5551151975542339e-11 0.0000000000000000e+00  -3.3541714368438912e-02 1.1953788303213336e-08 0.0000000000000000e+00  -4.1868393188105368e-02 2.7025800268180217e-07 0.0000000000000000e+00  -2.2057429462524338e-02 -1.8091735233699184e-03 0.0000000000000000e+00  -4.2538213231855512e-02 -1.6320771775408250e-05 0.0000000000000000e+00  -3.0394909832077825e-02 -1.0944292375385328e-09 0.0000000000000000e+00  -2.3541590981683222e-02 -2.1530745718032105e-13 0.0000000000000000e+00  -2.3537288361789765e-02 2.5198633133519554e-13 0.0000000000000000e+00  -3.0447528986978743e-02 1.2541299199030351e-09 0.0000000000000000e+00  -4.1406325954253510e-02 1.7334247327999508e-05 0.0000000000000000e+00  -3.6498520815210385e-02 -2.8136928200058283e-08 0.0000000000000000e+00  -2.6052087617099116e-02 -1.2083042899362353e-11 0.0000000000000000e+00  -2.2638182816982492e-02 5.2548904089171048e-16 0.0000000000000000e+00  -2.6079399628058473e-02 1.4538141879998150e-11 0.0000000000000000e+00  -3.6399863655242809e-02 3.8507952676336844e-08 0.0000000000000000e+00  4.1000408625667992e-02 1.7595765208357754e-02 0.0000000000000000e+00  -2.7353081652781865e-02 -1.2026478239561508e-02 0.0000000000000000e+00  -5.8807711979692444e-02 -1.3854402920016209e-01 0.0000000000000000e+00  -4.4157350617563838e-02 -8.8276957305540634e-03 0.0000000000000000e+00  -5.0873435847689913e-02 -3.3973536994009915e-02 0.0000000000000000e+00  -2.4862003815929835e-02 -3.7247259002031186e-02 0.0000000000000000e+00  -1.4829630809937412e-02 -7.4875610739589232e-02 0.0000000000000000e+00  -3.0486554468288865e-02 -6.4588320697391158e-03 0.0000000000000000e+00  -1.0930042145209305e-01 -2.2060301129500210e-02 0.0000000000000000e+00  9.0764445491424567e-03 4.2317837475742519e-03 0.0000000000000000e+00  -7.1614383122453315e-02 -4.9096558046029096e-02 0.0000000000000000e+00  -1.0102306149292202e-02 -1.9824758570525382e-02 0.0000000000000000e+00  -8.4612399440694444e-02 -1.2974539414565370e-01 0.0000000000000000e+00  6.9754456702362660e-03 2.7378940468063349e-02 0.0000000000000000e+00  -1.8954466809686894e-02 -1.0279101109184953e-01 0.0000000000000000e+00  8.9315991767031289e-23 -2.6714940105396153e-08 0.0000000000000000e+00  -8.4624630034104075e-23 3.5939216901236635e-08 0.0000000000000000e+00  6.3971326930915079e-30 4.2695582245209176e-08 0.0000000000000000e+00  3.3519319673647952e-16 -1.4506444275848710e-09 0.0000000000000000e+00  -3.4538214100102984e-16 -6.4258882361203319e-09 0.0000000000000000e+00  -6.1414819105766493e-30 -5.8208429217059428e-08 0.0000000000000000e+00  2.0311342693050810e-08 -1.5708629596064479e-11 0.0000000000000000e+00  -2.1724299070358725e-08 1.4419088712616428e-11 0.0000000000000000e+00  -2.2289692017117094e-08 -1.7548868388185873e-11 0.0000000000000000e+00  2.1051729369223136e-08 1.5954737148761791e-11 0.0000000000000000e+00  6.1631646120830335e-11 2.7072841392992148e-08 0.0000000000000000e+00  3.5621868477909468e-16 1.0879974567963953e-14 0.0000000000000000e+00  1.7843006333857061e-22 -2.6662309073780297e-14 0.0000000000000000e+00  3.6428886226978099e-20 -8.9398096214968065e-22 0.0000000000000000e+00  3.4021769592023373e-27 -1.1902173139859157e-20 0.0000000000000000e+00  3.0761574141169581e-14 -1.8522044429067008e-21 0.0000000000000000e+00  -1.6438228807741077e-28 -6.4421177590576893e-14 0.0000000000000000e+00  7.1363443476272294e-34 -2.9950241986963312e-20 0.0000000000000000e+00  2.1063066884066758e-35 -7.2787829997004409e-14 0.0000000000000000e+00  1.2640644705776447e-34 -3.5547401403135257e-20 0.0000000000000000e+00  1.7118208831120081e-28 -4.4167538838126541e-14 0.0000000000000000e+00  2.0000667268137718e-28 3.5834932045001548e-16 0.0000000000000000e+00  -4.4059852592130400e-27 -3.2727197907264027e-20 0.0000000000000000e+00  -6.0682796431022856e-11 -2.9455701764341832e-08 0.0000000000000000e+00  -3.8644008650146939e-16 -1.6688297687461889e-14 0.0000000000000000e+00  -3.4721338032464335e-14 -7.2291041742780097e-20 0.0000000000000000e+00  -3.7884251263514735e-16 1.3323402091986076e-14 0.0000000000000000e+00  5.4363746476812765e-11 -2.5360374189867058e-08 0.0000000000000000e+00  6.3545119647050804e-30 -5.3131219492502769e-08 0.0000000000000000e+00  -6.0972441516452365e-11 2.8284108967035650e-08 0.0000000000000000e+00  4.0494210925371781e-16 -1.2607111143705410e-09 0.0000000000000000e+00  -8.3336862519000288e-23 -3.7691987834222338e-08 0.0000000000000000e+00  1.6015782159936010e-22 2.6140023435102049e-14 0.0000000000000000e+00  -6.3597838941779012e-30 5.3188541714179763e-08 0.0000000000000000e+00  7.7578996755205769e-23 1.9768680329613253e-08 0.0000000000000000e+00  3.7347754069805553e-16 -9.1916341690458434e-15 0.0000000000000000e+00  -1.8487289610658905e-22 1.1628357068937632e-14 0.0000000000000000e+00  -3.9845816111805905e-20 -4.5640642219157095e-21 0.0000000000000000e+00  -3.8896426108762352e-16 6.6357219629321331e-09 0.0000000000000000e+00  -3.9840296879548312e-08 6.7383643437424310e-08 0.0000000000000000e+00  -2.38181