<?xml version="1.0"?>
<VTKFile type="UnstructuredGrid"  version="0.1"  >
<UnstructuredGrid>
<Piece  NumberOfPoints="4153" NumberOfCells="8064">
<Points>
<DataArray  type="Float64"  NumberOfComponents="3"  format="ascii">-0.3913179581977312 -0.6395051161400832 0  -0.007525290989849878 -0.8091330959084142 0  -0.0619361235888829 -0.8043464892274446 0  -0.1152686888108857 -0.7936130543280309 0  -0.1669589897684838 -0.7775712038655828 0  -0.2168909902591331 -0.7576510226243579 0  -0.2644516448088226 -0.7324396525080006 0  -0.3092993393049083 -0.7037098184207348 0  -0.3514727366017347 -0.6724577269013425 0  0.04718775007934444 -0.8076209451614456 0  -0.4286966352129144 -0.6064121056601317 0  -0.4642191087813452 -0.5732621738600818 0  -0.497955022461838 -0.540363926315607 0  -0.5301686335198647 -0.5082195251489183 0  -0.5612126666010844 -0.4774304265375527 0  -0.5913935037415238 -0.4483847144445697 0  -0.6208451784293406 -0.4218773475705048 0  0.6584096339198426 -0.4073447563171564 0  0.1013677342068624 -0.7998721712149726 0  0.1542103139856457 -0.7862006089426917 0  0.2050257616093815 -0.7672265116447459 0  0.2532772098190878 -0.74366821974749 0  0.2987826717806635 -0.7168238418359705 0  0.3415240210684259 -0.6874997935217173 0  0.3816460796002461 -0.6565422905574182 0  0.4193332133304115 -0.6246084970802048 0  0.4550404944555521 -0.5925332020175502 0  0.4890688552254304 -0.5607182182821591 0  0.5217447172231847 -0.5295471681456903 0  0.5533154361073543 -0.4993516657599498 0  0.5840995103772966 -0.4703962617107701 0  0.6142600810111886 -0.4431060218654244 0  0.6440441612346643 -0.4182918578596326 0  0.6289463263636821 -0.4305834783292429 0  -0.6059273189517603 -0.4349213945478015 0  -0.5457921478001918 -0.4927439562629806 0  -0.4812879358501915 -0.556760251046673 0  -0.4102223298996432 -0.6229512765861015 0  -0.3307412704092056 -0.6882512340004633 0  -0.2409891472977583 -0.7455567375420135 0  -0.141342836024048 -0.7863190503341256 0  -0.03482097299584867 -0.8075179222274768 0  0.5991793284198021 -0.4567196445573177 0  0.1799063626204568 -0.7773153584801071 0  0.2763818901217639 -0.7306197925243207 0  0.3618863225552409 -0.6721737041037246 0  0.4374208289492797 -0.6085766580178159 0  0.5055502498013239 -0.5450516360520962 0  0.5688064948707071 -0.4848167903082415 0  0.07439610582131022 -0.8045128835482623 0  -0.6349904454436015 -0.410114718206266 0  0.5376497839828609 -0.5143255997445747 0  0.4722409015893168 -0.5765784923063043 0  0.4007785749778978 -0.6406305175053737 0  0.3204923522572314 -0.7024269197342914 0  0.2295079222113702 -0.7559574492907523 0  0.128002894775948 -0.7937429052489933 0  0.01984654445921756 -0.8091706032092799 0  -0.0887800195335257 -0.7997155101291152 0  -0.1920219273814034 -0.7680365301236721 0  -0.2871429833926354 -0.7182781828720132 0  -0.3720079214606245 -0.6566088096512732 0  -0.4466975257727017 -0.5898514849766987 0  -0.5142597854214357 -0.5242114173303457 0  -0.5763097211830855 -0.4628364975407747 0  0.7768186342090171 -0.2195870203774274 0  0.7048903348404845 -0.374793186088461 0  0.7453214058560013 -0.3319184324883671 0  0.7706500792247158 -0.2793251745095207 0  0.6821849558488116 -0.3916100093779821 0  0.7262490019932901 -0.3546935980120752 0  0.7560348213779577 -0.3040955044787819 0  0.7725270771744343 -0.2490505897994522 0  0.6702107051061358 -0.3998420788465112 0  0.6935088202614528 -0.3824126027428235 0  0.7157129633049807 -0.3649206335518896 0  0.7354839611597853 -0.3424784997869627 0  0.7533252333967554 -0.3193506594894783 0  0.7624005982082738 -0.2915092208325836 0  0.7704401799469984 -0.2639118890762008 0  0.7740015472244892 -0.2341641898367043 0  0.7761828251408154 -0.2003294102811482 0  0.7778222956505019 0.231044130270959 0  0.7785089130394814 0.1928935994497175 0  0.7805682142369702 0.1543306156426463 0  0.7830284989695624 0.1152582452284649 0  0.7856319429398584 0.07561118160731765 0  0.7867661596962595 0.03549701096936475 0  0.786552709382659 -0.004734792622850708 0  0.7849893459621453 -0.04484322240261827 0  0.7820379082321729 -0.08446969930918706 0  0.7792810484009083 -0.1235496854049465 0  0.7769771925084975 -0.1621298280757115 0  0.7788432394240112 0.2502081689011716 0  0.777944331621905 0.2120090168151339 0  0.7817917258245256 0.1348615395531896 0  0.7863659374740104 0.05558522188737207 0  0.7859433692441381 -0.02482040358185111 0  0.7806551434408999 -0.1040789208777702 0  0.7763502069475351 -0.1812699223855208 0  0.7794629176673415 0.1736731048029392 0  0.7844103294150403 0.09553188620536769 0  0.7868226009099324 0.0153809248868617 0  0.7835661322580423 -0.06475110451076069 0  0.7780486942077711 -0.1429010369067758 0  0.6648449423569025 0.4392016930708605 0  0.7735929451588243 0.3099551811728019 0  0.7492640322926359 0.3630593721893516 0  0.7101008323790065 0.4064214692881851 0  0.7751809677927626 0.2796933724686025 0  0.7599254224407284 0.3352929757855241 0  0.7307974802365242 0.3859202840432003 0  0.6878289656403032 0.4231661890752517 0  0.776471686005582 0.2648413281846422 0  0.7734954181418634 0.294591177375357 0  0.7659538070437718 0.3224118572552201 0  0.7566407424154382 0.3501818600918412 0  0.739702189766004 0.3736648083835392 0  0.7205689264569809 0.3962976526085595 0  0.6989179391862294 0.4140763554476724 0  0.6761811956899495 0.4313956413838846 0  -0.007270861102284155 0.8697460278756566 0  0.6224969155925456 0.476560537816421 0  0.5935848957699558 0.5051923497421857 0  0.5640882132750095 0.535784799370463 0  0.5337101169048579 0.5680296824667178 0  0.5020316135083003 0.6014217900737679 0  0.468732904121076 0.6355957039935538 0  0.433469998776276 0.6701668150268812 0  0.3958454940188092 0.7047355033187229 0  0.3553693590579736 0.738273804116737 0  0.3118327188125896 0.7700750945249221 0  0.2650857333883903 0.7991918973075341 0  0.2151640357433029 0.8247921501946395 0  0.1622878265864298 0.8453568690724645 0  0.1070550325854244 0.8600639531690901 0  0.05025418557565136 0.8681970826841645 0  0.6510158375652485 0.4506272492231826 0  -0.06442965270974736 0.8636461005875089 0  -0.120195083559406 0.8508273886525853 0  -0.1737678615755029 0.8319802150893905 0  -0.2244280526090952 0.8073099073379303 0  -0.2723489485251087 0.7801151366767259 0  -0.3172484120342943 0.7498557217613872 0  -0.3592722300922486 0.7175167809844557 0  -0.3985914977282722 0.6837195562635479 0  -0.4355183247545507 0.6497318438233185 0  -0.4704806512508547 0.6158818950554521 0  -0.5037364181585317 0.5825539669707062 0  -0.5355599106955176 0.5501292341106958 0  -0.5662205484806201 0.5189579348650115 0  -0.5959730885909537 0.4895814642363804 0  -0.6250803755235158 0.4628453930919442 0  -0.6390568277827846 0.4510658308055065 0  -0.6103499115458612 0.4760454785854787 0  -0.5510294071213279 0.5344678139383182 0  -0.4873072848932939 0.5991429160758929 0  -0.4173056050452001 0.6667225330736913 0  -0.3386017581793594 0.7338511057156082 0  -0.248760521246284 0.7941674636161441 0  -0.1472814317010229 0.8419478328301846 0  -0.03595313709454255 0.8675402822589978 0  0.07880625876014188 0.8650197963201484 0  0.1890649254275268 0.8357272805319661 0  0.2888657463776973 0.7850368702900804 0  0.3759648126558378 0.7216507194874529 0  0.4513705101277743 0.6528612982010016 0  0.5180517675971529 0.584615211291646 0  0.5789098696440849 0.5203691959481404 0  0.6365502712902551 0.4633661249547251 0  -0.5811276828581555 0.5042010079518141 0  -0.5198164191020697 0.5662441037746438 0  -0.4532338605669662 0.6327728234897597 0  -0.3793240081915377 0.7008047544808378 0  -0.2951568153713379 0.765270397885128 0  -0.1997335888750916 0.8206546173889063 0  -0.09252904259595286 0.8579867350346805 0  0.02156334020298939 0.8698436053230538 0  0.1349228291979009 0.8534909672431346 0  0.2405474719126339 0.8125839889129369 0  0.3339951281533872 0.7544490284431195 0  0.4150117942178623 0.6875268722216491 0  0.4856051017230663 0.618439160603967 0  0.5490547426814301 0.5517734823081505 0  0.6080216432078948 0.4907704483070293 0  -0.7551654027615534 0.2585455205094211 0  -0.6845619802146963 0.41676586611817 0  -0.7240746622694041 0.3725772248552375 0  -0.7489118288721561 0.3189101344374992 0  -0.6622564180745668 0.4341780886160652 0  -0.7054230570231113 0.3957781248227333 0  -0.7348550216335906 0.3444413903504728 0  -0.7509089689204783 0.2883631170816013 0  -0.6505270959322957 0.4428882968817285 0  -0.6733738264222994 0.4247200172092747 0  -0.69513221399448 0.4064030572713784 0  -0.7144261374377693 0.3833417045207324 0  -0.7315829601242774 0.3595212916459286 0  -0.7410455427746799 0.3314626316797891 0  -0.7489455535395633 0.3034048293178266 0  -0.7524640478454288 0.2733411826515242 0  -0.7545578891960214 0.2391025199073378 0  -0.7530910360545383 -0.2003314367997462 0  -0.7545836466490681 -0.161659516792592 0  -0.7574104736420508 -0.1224711371881125 0  -0.7605295556276264 -0.08268051663300501 0  -0.7636303281991229 -0.04227371195828848 0  -0.7652390238908077 -0.00136086299373605 0  -0.7654133128146093 0.03969702050062669 0  -0.7641567518139026 0.08064280288823743 0  -0.7613891411990035 0.1211250531258253 0  -0.7585397662131352 0.1610116495010633 0  -0.7559216628578266 0.2003150320949137 0  -0.7535808533390258 -0.2197458185825269 0  -0.7536254355341413 -0.1810552758992453 0  -0.7589845359433568 -0.1026546836141098 0  -0.7646147797086099 -0.02185243005649842 0  -0.7649629613246832 0.06020100855582942 0  -0.7599819841421598 0.1411427319945752 0  -0.7550332416514457 0.2197653980704565 0  -0.7559302606992332 -0.1421406407698687 0  -0.7621610184532278 -0.06257572187931447 0  -0.7655007977936108 0.01916610797558055 0  -0.7628679538381044 0.100977726798543 0  -0.7571733918616018 0.1807360954670681 0  -0.7467021978196098 -0.2798684961170365 0  -0.7210861556878317 -0.3329761164219018 0  -0.680942752792704 -0.3765125447301385 0  -0.7490555923023604 -0.2494624934876405 0  -0.7322853050005259 -0.3051553327013802 0  -0.7021564478735953 -0.3559818921260122 0  -0.6583634353901979 -0.3936368590844569 0  -0.7507241745443382 -0.2344805313432518 0  -0
[...]
<PointData  Vectors="f_5522"> 
<DataArray  type="Float64"  Name="f_5522"  NumberOfComponents="3" format="ascii">7.1929601904058282e-04 -2.6362968961569130e-04 0.0000000000000000e+00  1.1949902865701220e-03 2.5212826298653856e-02 0.0000000000000000e+00  4.8182441851293773e-03 3.0076077236431867e-02 0.0000000000000000e+00  9.3230179120194785e-03 3.4797287429467472e-02 0.0000000000000000e+00  1.4347753659675541e-02 3.7562018380565505e-02 0.0000000000000000e+00  3.1782001551286979e-02 6.2872849401138631e-02 0.0000000000000000e+00  4.6802195102866082e-02 7.6587023321212450e-02 0.0000000000000000e+00  4.0462637281344915e-02 5.6970356149730804e-02 0.0000000000000000e+00  3.0858838036295303e-02 3.8696077365006736e-02 0.0000000000000000e+00  -1.6596647790132657e-03 2.3162374132387219e-02 0.0000000000000000e+00  1.4899424413382555e-02 1.6051897361737004e-02 0.0000000000000000e+00  1.0301291077137453e-02 1.0494047163640420e-02 0.0000000000000000e+00  6.0869178107096833e-03 6.1619981138515151e-03 0.0000000000000000e+00  2.2046015453021021e-03 2.6813001499200392e-03 0.0000000000000000e+00  6.0287516517356136e-04 1.7542214541001787e-03 0.0000000000000000e+00  -4.3736973960546953e-03 -2.3682963079811703e-03 0.0000000000000000e+00  -3.2570843029936058e-03 1.6676884335185323e-03 0.0000000000000000e+00  -3.0964885144156094e-02 5.9469771239060644e-02 0.0000000000000000e+00  -4.4473245436228376e-03 2.3298302462751802e-02 0.0000000000000000e+00  -8.1456018462539061e-03 2.6083111076248583e-02 0.0000000000000000e+00  -1.2874659810286808e-02 2.9994085471932792e-02 0.0000000000000000e+00  -1.7684111892354835e-02 3.2457575997603128e-02 0.0000000000000000e+00  -2.1720951127997806e-02 3.3503604291999618e-02 0.0000000000000000e+00  -2.3813863408891169e-02 3.2005583163502049e-02 0.0000000000000000e+00  -2.4233119614060369e-02 2.9421028507076556e-02 0.0000000000000000e+00  -1.9994926748117092e-02 2.2499294388460926e-02 0.0000000000000000e+00  -1.7162923983278337e-02 1.8427266080170531e-02 0.0000000000000000e+00  -1.3563942666540698e-02 1.4307457739963420e-02 0.0000000000000000e+00  -1.0317678195804973e-02 1.1030316233458211e-02 0.0000000000000000e+00  -9.8739710902501897e-03 1.1175276794990772e-02 0.0000000000000000e+00  -6.2978570180233012e-03 8.4169189362461438e-03 0.0000000000000000e+00  1.2572769358558946e-05 3.4626977339013349e-03 0.0000000000000000e+00  5.4831827398993827e-03 2.1343457254819516e-04 0.0000000000000000e+00  -9.0947806722024571e-03 1.4586034164266209e-02 0.0000000000000000e+00  8.5821712452612779e-03 1.3424714565407231e-02 0.0000000000000000e+00  1.7331136130206881e-03 2.3585166509350864e-03 0.0000000000000000e+00  8.0499093112104732e-03 8.1324035790259989e-03 0.0000000000000000e+00  1.7314205565398224e-02 1.9687082365043806e-02 0.0000000000000000e+00  4.3976272487294070e-02 5.7596941667487522e-02 0.0000000000000000e+00  3.6673710441246329e-02 6.6606453351128275e-02 0.0000000000000000e+00  1.2350825996387297e-02 3.7913182328007042e-02 0.0000000000000000e+00  2.9479991463851056e-03 2.8106224407802121e-02 0.0000000000000000e+00  -3.1093891192465629e-03 4.8510416220957329e-03 0.0000000000000000e+00  -1.0376445721712892e-02 2.7932879762779778e-02 0.0000000000000000e+00  -2.0075965528407822e-02 3.3670982414309152e-02 0.0000000000000000e+00  -2.3515427664008409e-02 2.9935479356812483e-02 0.0000000000000000e+00  -1.9455404396036290e-02 2.1386534022127951e-02 0.0000000000000000e+00  -1.2057474227935121e-02 1.2743735097560520e-02 0.0000000000000000e+00  -5.4018137905947113e-03 6.4474858015271504e-03 0.0000000000000000e+00  -2.9709486632133633e-03 2.2767674243193845e-02 0.0000000000000000e+00  1.6027893363686242e-02 3.5156411894966148e-02 0.0000000000000000e+00  -8.2934968031424996e-03 9.0448108235961621e-03 0.0000000000000000e+00  -1.5627474610783391e-02 1.6590593522190378e-02 0.0000000000000000e+00  -2.2440200074442133e-02 2.5906794962779527e-02 0.0000000000000000e+00  -2.2966778224239200e-02 3.2970122175090634e-02 0.0000000000000000e+00  -1.6297149118062886e-02 3.3042964827341502e-02 0.0000000000000000e+00  -6.1140224879951679e-03 2.4348453775351050e-02 0.0000000000000000e+00  -2.7586274940498087e-04 2.3694525406255700e-02 0.0000000000000000e+00  7.5454525875368501e-03 3.4718181024691069e-02 0.0000000000000000e+00  1.2437847009435352e-02 2.9201090143832320e-02 0.0000000000000000e+00  3.3967371637392975e-02 5.1418734663052489e-02 0.0000000000000000e+00  6.9057949802480617e-02 8.1803839359621322e-02 0.0000000000000000e+00  1.3263877053915917e-02 1.3918105245175673e-02 0.0000000000000000e+00  4.1936646173075087e-03 4.3550672014550495e-03 0.0000000000000000e+00  1.0771917646795364e-03 2.2655021713588902e-03 0.0000000000000000e+00  4.9612929270508033e-02 1.8411051438279144e-03 0.0000000000000000e+00  7.4920508381118411e-02 -1.0022645539756186e-01 0.0000000000000000e+00  3.4518815740073379e-04 -4.6986887157152234e-02 0.0000000000000000e+00  -2.5276084224284606e-01 4.6900514208038341e-02 0.0000000000000000e+00  1.0648843476047895e-02 -1.5991327082101662e-02 0.0000000000000000e+00  3.9243415719398073e-02 -2.7448928612940897e-02 0.0000000000000000e+00  3.5689517920686614e-01 -6.8317473656658079e-02 0.0000000000000000e+00  3.1691488186077942e-02 -4.3663184386161253e-03 0.0000000000000000e+00  -3.2214587049964548e-03 -2.3053672837208238e-02 0.0000000000000000e+00  -3.9722262735641008e-02 5.2412193394285517e-02 0.0000000000000000e+00  2.6205251551743240e-02 -5.4349022057029794e-02 0.0000000000000000e+00  2.6299739646586773e-02 -2.2363910683981948e-02 0.0000000000000000e+00  -2.0435401549049911e-01 8.1826717813478847e-02 0.0000000000000000e+00  -4.2013061295890958e-01 1.7842363989557097e-01 0.0000000000000000e+00  2.2268632145937861e-01 2.9694081668871853e-03 0.0000000000000000e+00  1.9211052203188340e-02 -4.6790511918288775e-03 0.0000000000000000e+00  8.2448217904780755e-02 1.6452764087751424e-03 0.0000000000000000e+00  5.7074170161182054e-02 -2.7139277947596037e-03 0.0000000000000000e+00  1.5037453958450141e-02 1.5535924972305223e-03 0.0000000000000000e+00  7.6150410444980055e-03 8.5962509577345127e-04 0.0000000000000000e+00  6.1855134534404364e-03 6.1002504895481713e-04 0.0000000000000000e+00  8.9467895917294225e-03 4.3507237634204796e-04 0.0000000000000000e+00  9.5640756774554754e-03 8.4134322407387766e-05 0.0000000000000000e+00  9.5458859574569736e-03 -2.1641060348452355e-04 0.0000000000000000e+00  8.4800381744297090e-03 -5.3729276970858938e-04 0.0000000000000000e+00  6.1098333299345574e-03 -6.1550805888143680e-04 0.0000000000000000e+00  7.9616199319511027e-03 -9.0981464265564561e-04 0.0000000000000000e+00  1.9061521275049929e-02 -1.7601020916512746e-03 0.0000000000000000e+00  3.3990088990625791e-02 -2.8818538521171839e-03 0.0000000000000000e+00  1.9230831991727527e-02 2.2839882098518445e-03 0.0000000000000000e+00  6.1646078070402323e-03 6.5112335813161842e-04 0.0000000000000000e+00  9.6289792008236626e-03 1.8649655753193568e-04 0.0000000000000000e+00  9.7590093278950921e-03 -3.4104495622486446e-04 0.0000000000000000e+00  6.3134426529020213e-03 -6.8594279285816978e-04 0.0000000000000000e+00  2.1396292225112020e-02 -2.0280522293175699e-03 0.0000000000000000e+00  9.4741090744477584e-03 1.2483966793872228e-03 0.0000000000000000e+00  7.5236055556679006e-03 6.5595872526219296e-04 0.0000000000000000e+00  9.5704336547915800e-03 -7.1085416207872449e-05 0.0000000000000000e+00  6.2233233985999397e-03 -6.5334323451038943e-04 0.0000000000000000e+00  9.7302158946326271e-03 -1.2806518511330324e-03 0.0000000000000000e+00  -2.5406154289756549e-02 -4.9045964458048243e-02 0.0000000000000000e+00  -9.8451059155265946e-02 -1.5951799497032241e-02 0.0000000000000000e+00  2.5225472537564089e-02 4.3403289065749841e-02 0.0000000000000000e+00  7.5549538854840184e-02 9.5887447150394003e-02 0.0000000000000000e+00  3.7791198106566046e-02 5.1302514480334642e-03 0.0000000000000000e+00  1.8767154532752550e-01 4.0985593044617484e-02 0.0000000000000000e+00  3.9417216757655048e-02 2.8160754673622789e-02 0.0000000000000000e+00  1.5823827166495649e-02 2.1024357682957920e-02 0.0000000000000000e+00  2.8804015224303071e-02 4.8252299428986744e-03 0.0000000000000000e+00  1.4602053597745251e-01 -4.9160880549597823e-03 0.0000000000000000e+00  -1.9829710617807328e-01 -6.4891188978412825e-02 0.0000000000000000e+00  -1.0921709766957148e-01 -4.0640927517720374e-02 0.0000000000000000e+00  1.7200530424994868e-02 1.4102836398588980e-02 0.0000000000000000e+00  2.9394758278920550e-02 5.1639357065123119e-02 0.0000000000000000e+00  -4.2167198076812233e-02 -5.0488752430714448e-02 0.0000000000000000e+00  -1.7660465318336024e-02 -4.8214591060756580e-03 0.0000000000000000e+00  1.4972421930015095e-03 -1.6927979947144203e-02 0.0000000000000000e+00  -1.4536113164372215e-03 -4.1619523022282138e-03 0.0000000000000000e+00  -5.7810505955589184e-03 -6.9929227683320962e-03 0.0000000000000000e+00  -7.1452912303801453e-03 -7.3957458511105358e-03 0.0000000000000000e+00  -9.7624845270859652e-03 -9.3487042976874019e-03 0.0000000000000000e+00  -1.3022654746850357e-02 -1.2414679255353885e-02 0.0000000000000000e+00  -1.6965190221329186e-02 -1.6670882675569720e-02 0.0000000000000000e+00  -1.9513393521028207e-02 -2.0190642631890767e-02 0.0000000000000000e+00  -2.5880191916307426e-02 -2.9440718843425688e-02 0.0000000000000000e+00  -2.5286901277515771e-02 -3.2171773972862847e-02 0.0000000000000000e+00  -2.2356193728324633e-02 -3.3005510043718329e-02 0.0000000000000000e+00  -1.7162223254179754e-02 -3.0499405972106184e-02 0.0000000000000000e+00  -1.2045736266057655e-02 -2.7769424976298387e-02 0.0000000000000000e+00  -6.7002387353995545e-03 -2.1893129761654410e-02 0.0000000000000000e+00  -2.9660757307458608e-03 -1.6986504029568465e-02 0.0000000000000000e+00  -8.3374565984186192e-04 -1.5938042260351164e-02 0.0000000000000000e+00  -1.2892159083780421e-03 -8.0151186379524321e-03 0.0000000000000000e+00  5.1485631243956831e-03 -2.7378282664802273e-02 0.0000000000000000e+00  1.1810950706362830e-02 -3.8435193602842546e-02 0.0000000000000000e+00  1.4766418343187579e-02 -3.5023161108563322e-02 0.0000000000000000e+00  1.1151373944001541e-02 -2.0430891531873888e-02 0.0000000000000000e+00  2.5338007594147737e-02 -3.9892873982216893e-02 0.0000000000000000e+00  2.5825090216205111e-02 -3.5093669081082954e-02 0.0000000000000000e+00  2.3475028227259730e-02 -2.8459826440001643e-02 0.0000000000000000e+00  1.4680819426570626e-02 -1.5868661808494076e-02 0.0000000000000000e+00  1.2975285290691300e-02 -1.3499618638231247e-02 0.0000000000000000e+00  8.7948228492414401e-03 -8.7881552223524791e-03 0.0000000000000000e+00  5.2749449040389376e-03 -5.2732904705474230e-03 0.0000000000000000e+00  3.3276381659926350e-03 -3.6279363503118798e-03 0.0000000000000000e+00  4.7830231914756054e-04 -1.5467678908004494e-03 0.0000000000000000e+00  -3.8388905755951724e-03 1.5159048493479997e-03 0.0000000000000000e+00  -4.8042412907393526e-03 -3.9673150177641831e-04 0.0000000000000000e+00  2.6686885235636264e-02 -4.7087880933170762e-02 0.0000000000000000e+00  6.7046051699753417e-03 -1.0582375244472086e-02 0.0000000000000000e+00  8.0607296062671025e-04 -1.2751476100114068e-03 0.0000000000000000e+00  7.0932824979122126e-03 -7.0466925784299604e-03 0.0000000000000000e+00  1.5087101042620630e-02 -1.6188746323044817e-02 0.0000000000000000e+00  2.3959896717744081e-02 -3.0443403456043797e-02 0.0000000000000000e+00  1.6825068370907637e-02 -2.9520872808159328e-02 0.0000000000000000e+00  1.5482644876746750e-02 -4.2824307970193522e-02 0.0000000000000000e+00  2.8083375162953951e-03 -2.2081654256881710e-02 0.0000000000000000e+00  -1.6439910647669466e-03 -1.5293312424664316e-02 0.0000000000000000e+00  -9.3212045765764320e-03 -2.5071650183183424e-02 0.0000000000000000e+00  -1.9870849355428967e-02 -3.2075762500813440e-02 0.0000000000000000e+00  -2.4757244559286944e-02 -2.9618556093712198e-02 0.0000000000000000e+00  -1.9303052532704465e-02 -1.9496501798607478e-02 0.0000000000000000e+00  -1.1207217562860410e-02 -1.0623344434519878e-02 0.0000000000000000e+00  -6.4872908434660806e-03 -6.9200629987795506e-03 0.0000000000000000e+00  -1.2709432492603111e-02 -1.8343077817351665e-02 0.0000000000000000e+00  -2.2885056971685245e-04 -8.3327293199572867e-04 0.0000000000000000e+00  3.6034393487467575e-03 -3.7169566582305716e-03 0.0000000000000000e+00  1.1087405637582048e-02 -1.1260748704549888e-02 0.0000000000000000e+00  2.5590867871094318e-02 -2.9245580866702446e-02 0.0000000000000000e+00  2.3374165128087768e-02 -3.4029606087697437e-02 0.0000000000000000e+00  4.7085776737184414e-02 -9.3533157053080046e-02 0.0000000000000000e+00  7.4014990377790548e-03 -3.0751455705085425e-02 0.0000000000000000e+00  1.5117462979755668e-04 -1.1775027097694766e-02 0.0000000000000000e+00  -4.5256731920101942e-03 -1.8947929433754399e-02 0.0000000000000000e+00  -1.6477249003190954e-02 -3.2662726877809842e-02 0.0000000000000000e+00  -2.3732398780903066e-02 -3.2404578268146758e-02 0.0000000000000000e+00  -2.4765790053816548e-02 -2.6619054925992990e-02 0.0000000000000000e+00  -1.5197006111337024e-02 -1.4666288282808675e-02 0.0000000000000000e+00  -7.8412154219545272e-03 -7.5894963066794512e-03 0.0000000000000000e+00  -5.8616440518376844e-03 -7.2901968197426857e-03 0.0000000000000000e+00  -3.7934950635654274e-02 -2.1279311274684763e-03 0.0000000000000000e+00  -7.6806181652497668e-02 9.4457760233419188e-02 0.0000000000000000e+00  -2.1780316284759835e-02 4.4461304936960627e-02 0.0000000000000000e+00  1.4656049745538396e-01 -2.6586178997710135e-02 0.0000000000000000e+00  -1.6556124584875469e-02 2.0853770908862652e-02 0.0000000000000000e+00  -3.7793915119840656e-02 2.6140703310207774e-02 0.0000000000000000e+00  -2.2734095424704559e-01 4.8309105739024819e-02 0.0000000000000000e+00  -3.4907935969230613e-02 5.2569222785486206e-03 0.0000000000000000e+00  1.1058708091614288e-02 4.5824644611282290e-03 0.0000000000000000e+00  4.5964173768343691e-02 -5.5375132922587007e-02 0.0000000000000000e+00  -2.9478101799235209e-02 5.1048384683324913e-02 0.0000000000000000e+00  -1.2523736129623925e-02 1.0532022001934408e-02 0.0000000000000000e+00  1.3737297397279796e-01 -5.2092170699589130e-02 0.0000000000000000e+00  2.6466173704692408e-01 -9.7118881946021834e-02 0.0000000000000000e+00  -1.7468421645384241e-01 -1.5028413389181444e-03 0.0000000000000000e+00  -2.2359356961295790e-02 4.9197867090312519e-03 0.0000000000000000e+00  -6.8914772522840062e-02 -1.3929748464629752e-03 0.0000000000000000e+00  -8.8158224130270968e-02 4.6396413452913943e-04 0.0000000000000000e+00  -1.9748793847196182e-02 -1.9270643149110151e-03 0.0000000000000000e+00  -1.0181793734317796e-02 -1.0869635302150253e-03 0.0000000000000000e+00  -9.1585968856792172e-03 -8.5131545587111880e-04 0.0000000000000000e+00  -1.1178922349008753e-02 -7.0764795941941322e-04 0.0000000000000000e+00  -1.2160177913608178e-02 -2.6868916403397739e-04 0.0000000000000000e+00  -1.2180192688501696e-02 1.4075062728008189e-04 0.0000000000000000e+00  -1.1443088380872612e-02 5.9660368778891807e-04 0.0000000000000000e+00  -9.4688146458587023e-03 8.2060001670092037e-04 0.0000000000000000e+00  -1.0409691255858096e-02 1.0440073759492802e-03 0.0000000000000000e+00  -1.7719593556528926e-02 1.7503040164211874e-03 0.0000000000000000e+00  -4.4737392629826463e-02 2.1319724186506439e-03 0.0000000000000000e+00  -2.0822243597915797e-02 -2.3972104673479892e-03 0.0000000000000000e+00  -9.0129481003746459e-03 -8.7950479101563030e-04 0.0000000000000000e+00  -1.2338899916422251e-02 -4.3846177627279373e-04 0.0000000000000000e+00  -1.2289294525425062e-02 3.0068938575362564e-04 0.0000000000000000e+00  -9.2801404782447017e-03 8.4529447272641857e-04 0.0000000000000000e+00  -2.0171755491057014e-02 2.4417865723026003e-03 0.0000000000000000e+00  -1.1523671175374712e-02 -1.4357878225400649e-03 0.0000000000000000e+00  -9.4399283621916050e-03 -9.0419285731059855e-04 0.0000000000000000e+00  -1.2197590868058236e-02 -6.5621773965943080e-05 0.0000000000000000e+00  -1.0224614527705671e-02 8.5615409673389447e-04 0.0000000000000000e+00  -1.1774398852593411e-02 1.4028503566399055e-03 0.0000000000000000e+00  1.9764208876866554e-01 3.9630210592199670e-02 0.0000000000000000e+00  -1.1918911159207329e-02 -4.4387172378166265e-02 0.0000000000000000e+00  -7.9780747827501552e-02 -1.0159107113097852e-01 0.0000000000000000e+00  -3.2592877641689215e-02 -4.9975636359588013e-03 0.0000000000000000e+00  -2.9095758074816624e-01 -6.5722308093057763e-02 0.0000000000000000e+00  -3.9993905363574188e-02 -2.7767880647041932e-02 0.0000000000000000e+00  -1.5883124439946560e-02 -1.9290780360983577e-02 0.0000000000000000e+00  -1.5821170991880521e-02 -4.5609703160140666e-03 0.0000000000000000e+00  -2.0711050806245071e-01 -2.0694778826852974e-03 0.0000000000000000e+00  3.4390197885873669e-01 1.3987227137927108e-01 0.0000000000000000e+00  1.6658349319778201e-01 6.7500579547246684e-02 0.0000000000000000e+00  -1.9211504498533177e-02 -1.6023282887670805e-02 0.0000000000000000e+00  -2.6975114961242580e-02 -5.2452447400503005e-02 0.0000000000000000e+00  4.2898167643677522e-02 5.2423236811589904e-02 0.0000000000000000e+00  3.3075821568803114e-02 2.5555890351240527e-02 0.0000000000000000e+00  4.0276301724863971e-05 1.0460380491763047e-05 0.0000000000000000e+00  -2.8774306953809219e-05 -7.7032870817424833e-06 0.0000000000000000e+00  2.0904843457581179e-05 -1.0573296662522234e-06 0.0000000000000000e+00  1.9742642963577238e-05 -1.7726809221959616e-05 0.0000000000000000e+00  -1.4986472255771105e-05 1.4658682644034545e-05 0.0000000000000000e+00  -2.8785224875001571e-05 2.6396001468919532e-06 0.0000000000000000e+00  -9.3173389139859520e-07 -1.6257452371175191e-06 0.0000000000000000e+00  7.2605066387684765e-08 2.3405171006164575e-07 0.0000000000000000e+00  7.8092434534553451e-07 -1.4798114984892528e-06 0.0000000000000000e+00  2.7038364499632118e-07 -4.3537099534905044e-07 0.0000000000000000e+00  -1.8252913858445339e-06 1.2759309198743572e-05 0.0000000000000000e+00  -4.6960079223054818e-06 1.4365676393110103e-05 0.0000000000000000e+00  -2.5037695476000440e-05 4.1334166285453690e-05 0.0000000000000000e+00  -4.1497316233282222e-07 -4.4623966548354817e-06 0.0000000000000000e+00  3.0241154593379084e-06 -1.2096809655770747e-05 0.0000000000000000e+00  -5.5960340867252148e-08 -1.7814012494408749e-06 0.0000000000000000e+00  -8.7488715985812983e-05 6.7998224872802110e-05 0.0000000000000000e+00  1.2092119534363966e-05 7.0636525455492762e-06 0.0000000000000000e+00  -3.1686422131490415e-05 7.4923381560373535e-07 0.0000000000000000e+00  1.6970587258662679e-04 -2.4061617393367440e-05 0.0000000000000000e+00  1.0797134002160544e-04 9.2441661370115782e-05 0.0000000000000000e+00  4.6605759698067480e-05 -7.1855312041704198e-05 0.0000000000000000e+00  -2.1256317183205686e-05 5.6351172212054353e-07 0.0000000000000000e+00  3.1718019681192328e-06 -1.4949631677370881e-05 0.0000000000000000e+00  6.6341615372452004e-06 -1.7257690329544546e-05 0.0000000000000000e+00  1.9552254873885172e-09 -8.1286825313044923e-07 0.0000000000000000e+00  5.6247280756229021e-06 1.6581709755415460e-05 0.0000000000000000e+00  -2.0977957115760195e-06 -1.4950931312560420e-05 0.0000000000000000e+00  3.7537219285547894e-05 2.8790238038107130e-06 0.0000000000000000e+00  2.4201207566354588e-06 1.3500565272861576e-05 0.0000000000000000e+00  1.6007476161855602e-05 1.3132793302917679e-05 0.0000000000000000e+00  -3.7632935968789921e-05 1.2076808424150408e-05 0.0000000000000000e+00  -2.5542486547472308e-05 -3.3653874691156932e-05 0.0000000000000000e+00  -2.2197908386745955e-05 -1.5791487910362339e-06 0.0000000000000000e+00  5.5974521908302765e-05 -1.9068828905236009e-05 0.0000000000000000e+00  -6.8672996396960446e-06 -1.7394015125701896e-05 0.0000000000000000e+00  2.5579601537831658e-05 -3.9028255392188957e-05 0.0000000000000000e+00  6.0217748283262172e-07 2.5652305826162467e-06 0.0000000000000000e+00  -1.3209222500419112e-05 -1.2274337220316688e-05 0.0000000000000000e+00  1.4142777389268993e-06 5.6371421551576679e-06 0.0000000000000000e+00  -5.