<?xml version="1.0"?>
<VTKFile type="UnstructuredGrid"  version="0.1"  >
<UnstructuredGrid>
<Piece  NumberOfPoints="4153" NumberOfCells="8064">
<Points>
<DataArray  type="Float64"  NumberOfComponents="3"  format="ascii">-0.410268752874238 -0.5141607647060427 0  -0.03361971556130505 -0.5765307192875234 0  -0.08166024047628093 -0.5754743585679711 0  -0.1295188604751051 -0.5722874930828957 0  -0.1771482530803959 -0.5673737330823057 0  -0.2247222025754275 -0.5612184574239271 0  -0.2719892235698427 -0.5520291895598235 0  -0.3187100736469087 -0.5407950571030919 0  -0.3648311995194642 -0.5280842370872577 0  0.01447343547710881 -0.5752642660745506 0  -0.4552472773822557 -0.500724670677841 0  -0.4998488785614401 -0.4873065527786051 0  -0.5441152488276088 -0.4741697882102199 0  -0.5880770839522347 -0.4616581881922258 0  -0.631820678644582 -0.4498880776932053 0  -0.6753123934719968 -0.4389552372035682 0  -0.7185837451440115 -0.4293323380854144 0  0.7202475704630048 -0.4331496084730834 0  0.06246934075435216 -0.571740862020515 0  0.1102284690780818 -0.5661171778269205 0  0.1576301784694595 -0.5586546945634571 0  0.2045858104741866 -0.5496915815717784 0  0.2510746667082989 -0.5397357066379536 0  0.297131022358323 -0.5291022181952998 0  0.342792301581901 -0.5180399871362736 0  0.3881006587918368 -0.5068416200471851 0  0.4331187494371094 -0.4956355994465043 0  0.4778889277595204 -0.4845781534162113 0  0.5224404438045795 -0.4737607433128019 0  0.5667919734756799 -0.4633789323833998 0  0.610944501302929 -0.4534236020167383 0  0.6548907919658334 -0.4441796531080441 0  0.6986450622291969 -0.4359919056197348 0  0.6767438074709584 -0.4400808151628324 0  -0.696905411991934 -0.4341584678838566 0  -0.6099803624940918 -0.4556997093556659 0  -0.5220191810849442 -0.4806996357346362 0  -0.4328061528500649 -0.507470912912123 0  -0.3418491811119799 -0.5345711193379408 0  -0.2484154803350529 -0.5569049898623655 0  -0.1533596844426498 -0.570025969172962 0  -0.05765617264492787 -0.5762862748896587 0  0.6329399595748217 -0.4487294690133103 0  0.13398028017017 -0.5625961053758316 0  0.2278861100948106 -0.5448156023356387 0  0.3200072898058252 -0.5236183573430362 0  0.4106434681545784 -0.5012258474696644 0  0.5001896315689929 -0.4791409790160403 0  0.588894226931126 -0.4583268299797749 0  0.03849239106330062 -0.5737769921738085 0  -0.7398630390724601 -0.4257911210261058 0  0.544632708416987 -0.4685106036172665 0  0.4555325178352747 -0.490083942636953 0  0.3654819316526164 -0.5124376458882931 0  0.2741546255577288 -0.5344882081330584 0  0.1811688711051414 -0.554329644953639 0  0.08638676833626546 -0.5691775148941781 0  -0.009569775633591383 -0.5761896019495002 0  -0.1056176880042297 -0.5741279527468564 0  -0.200907408826105 -0.5646087200819495 0  -0.2954223994689431 -0.5466249881910545 0  -0.3876733237887841 -0.521151528403631 0  -0.4775918233579617 -0.4939961697354547 0  -0.5661231452709066 -0.4677931091252073 0  -0.653590361615215 -0.4443447153563575 0  0.8932626638945269 -0.2448171374082925 0  0.7872675361021803 -0.4147907043220657 0  0.8442660025306232 -0.3736085863950557 0  0.8814941133990221 -0.3142126170174153 0  0.7539327953852079 -0.424243270131678 0  0.8162992318574167 -0.3949565788069755 0  0.862096246139731 -0.3433332031528959 0  0.8869096978633172 -0.2792827763665089 0  0.7372286344381548 -0.4293834609588681 0  0.7705313756263483 -0.4192243310338135 0  0.8018168749603607 -0.4050198341663653 0  0.8299274438047979 -0.3837026378993835 0  0.8537775756860154 -0.3587922751447883 0  0.8714911844238293 -0.3286960753894659 0  0.8839390217068661 -0.2966415980612728 0  0.8897986485818536 -0.2619948861069198 0  0.8928965736695763 -0.2223240610482955 0  0.8984304298150955 0.27231323130465 0  0.8977276856176353 0.2276187771696176 0  0.8979482432043815 0.1829101188280685 0  0.8986441844673824 0.1380783037427751 0  0.8996236538798876 0.09302388831127568 0  0.8998689371744135 0.047768220595303 0  0.8993898347991862 0.002455385600334769 0  0.8981853654892129 -0.04282448259387521 0  0.8962427134093579 -0.08792496504637452 0  0.8945447487169712 -0.132821753236299 0  0.8932825034892671 -0.1775942225627684 0  0.8993434793648026 0.294817142813708 0  0.8979271611020888 0.2499585574784189 0  0.8982551045131453 0.160514715748579 0  0.8998389182308235 0.07040930069731149 0  0.8988804984619302 -0.02019493232069213 0  0.8953573540651717 -0.1103926909627441 0  0.8929443257313097 -0.199958005026637 0  0.897766483102183 0.2052744041146437 0  0.8991630254195078 0.1155937477224095 0  0.8997170806465241 0.02511337806704791 0  0.8972459194638237 -0.06541412157618696 0  0.893846558202696 -0.1552196463900435 0  0.7316279686296081 0.4864064732735671 0  0.8891446841374758 0.3644649801875733 0  0.8532802988885304 0.424472230600159 0  0.7975931390182279 0.4668290050031538 0  0.8938362381062001 0.3293849956344489 0  0.8705120338736538 0.3939042552772716 0  0.8260716039462671 0.4464577655098703 0  0.7648290164367194 0.4770662868085539 0  0.8963108874650374 0.3120395773965943 0  0.891241561595824 0.3468143885544395 0  0.8795324848326862 0.3791007816402023 0  0.8625157188747858 0.4095116883472795 0  0.8393307849215228 0.4348719225257293 0  0.811867975265959 0.4567775388164659 0  0.7811542703180353 0.4716812746907804 0  0.748381115332165 0.4825231233946027 0  -0.03097166007687515 0.6840515503520073 0  0.6674710857463785 0.5008634355362093 0  0.6241927061491683 0.5127612120502673 0  0.5806299660503974 0.5256000098191527 0  0.536806350332919 0.5393045314748418 0  0.4926483067425779 0.5537401973916192 0  0.4481155228566123 0.568676227713323 0  0.4031516472372469 0.5839566043802001 0  0.3576827368977585 0.5994733140450625 0  0.3115918763870818 0.6148530773137262 0  0.2648194024404362 0.6297635983422224 0  0.2173032637709556 0.6438459722311184 0  0.1689786101598906 0.6567241759497389 0  0.1198545520219979 0.6675641284567168 0  0.07005003111360161 0.6759483110225759 0  0.01972877976277402 0.6814700743071419 0  0.7105049870233063 0.4903773517484848 0  -0.08173520458913569 0.6824609399034461 0  -0.1321520773097278 0.6770444902325112 0  -0.1819037606138552 0.6680725391576252 0  -0.2306343150990683 0.6556702246834993 0  -0.2783952051868399 0.6421219025358887 0  -0.3253600584077727 0.6275289187618913 0  -0.3715972798793428 0.61220769843501 0  -0.4171430494818959 0.5964504676649554 0  -0.4621568423293049 0.5809833096094876 0  -0.506728472806441 0.5658080986660586 0  -0.5509185618632096 0.5510893697880457 0  -0.5947724777426234 0.5369930404262895 0  -0.6383129115611905 0.5236817740724293 0  -0.6815680906368963 0.5114270476964144 0  -0.7245836621435815 0.5006536119543046 0  -0.7457467675438365 0.4966183574280659 0  -0.7030428777470705 0.5060181698818084 0  -0.6165796468029329 0.5302249533489061 0  -0.5288681095416492 0.5583826724904785 0  -0.4397096514063183 0.5886958486830964 0  -0.3485658063046201 0.6199380391806864 0  -0.2546203800474505 0.6490599759875693 0  -0.1571309300805445 0.6729554736285448 0  -0.05637227830633289 0.6837270452682256 0  0.04494296606070459 0.6790986212584662 0  0.1445107805213636 0.6624135618337603 0  0.2411568277684796 0.6369335372855692 0  0.3347173166491192 0.6072058852765021 0  0.425690981228741 0.5762835751765124 0  0.5147696617719758 0.5464552682496395 0  0.6024467911713065 0.5190909281489845 0  0.6889445321079222 0.4956286778344254 0  -0.6599696968153316 0.5174490147734935 0  -0.5728844649712271 0.5439573793439473 0  -0.4844935965327293 0.5733482651217864 0  -0.3944588758255103 0.6043233790512597 0  -0.3019723603418392 0.6349362156474836 0  -0.2064471911208436 0.6621700045494682 0  -0.1070079952559689 0.6802135587758025 0  -0.005561292713398874 0.6832221992835235 0  0.0950282410865709 0.6720909193799128 0  0.1932536190523399 0.6504970959195523 0  0.2882947513469151 0.6223885799974818 0  0.3804897908188317 0.5916970369981809 0  0.470431561232932 0.5611564065314214 0  0.5587530066397265 0.5323298160730124 0  0.6458602438760009 0.5067273795207301 0  -0.9129416230811112 0.3034885533161376 0  -0.8115401060044712 0.4762094967988814 0  -0.8670350995427003 0.4334501069485751 0  -0.9027088176430547 0.373215637860367 0  -0.7788474523180302 0.4867216276724073 0  -0.8398784734130901 0.4555601418718302 0  -0.8840995767101508 0.4027025023557267 0  -0.9073543510848272 0.3380793135422708 0  -0.7624443110515395 0.492400195613798 0  -0.7951319716942766 0.4811675660741427 0  -0.8257478392500728 0.4660109577033998 0  -0.853104652859981 0.4439009186568086 0  -0.8761903184664466 0.4183960909563966 0  -0.8930950742564492 0.3878672748205857 0  -0.9047653495128855 0.3555305697822675 0  -0.9098487544569176 0.3207188577916377 0  -0.9120982128737135 0.2809621335971441 0  -0.9094876513165923 -0.2137726098397746 0  -0.9094870084670822 -0.1690768994015387 0  -0.9103958868219758 -0.1243394017809425 0  -0.9117602412935063 -0.07946727120853957 0  -0.913377252899967 -0.03437834461129645 0  -0.9142801151726992 0.01089994020116337 0  -0.9144908950665482 0.05622216097771509 0  -0.9140172724073655 0.1014980714307358 0  -0.9128588772260539 0.146587593516135 0  -0.9119644945521843 0.1914661362517558 0  -0.9115517527197182 0.2362225342398602 0  -0.9100956881864795 -0.2362520848262714 0  -0.9093373767635632 -0.1914218728748958 0  -0.9110403331470032 -0.1019242978913065 0  -0.9139172728244446 -0.01175096423283353 0  -0.9143413109471944 0.07887196095952759 0  -0.9123713018146243 0.1690468382239036 0  -0.9116661289963645 0.2585852883741333 0  -0.9098702954992565 -0.1467206231357124 0  -0.9125992937227118 -0.05696366659618086 0  -0.9144688166832091 0.03356124788321019 0  -0.9134657756601966 0.1240824088678341 0  -0.911684502076492 0.2138544632933401 0  -0.8990450728439058 -0.3057233452530386 0  -0.8624902654487919 -0.3653556789993461 0  -0.8062397524846527 -0.4070765578482217 0  -0.9041675668665412 -0.2707568332780048 0  -0.8800878993878318 -0.335013220792689 0  -0.834930933556588 -0.3869877257491752 0  -0.7732215078377329 -0.4168357361922724 0  -0.9068757587859789 -0.2534508465952058 0  -0.901361797166287
[...]
<PointData  Vectors="f_2708"> 
<DataArray  type="Float64"  Name="f_2708"  NumberOfComponents="3" format="ascii">1.3413439510861063e-02 4.9422131994067475e-02 0.0000000000000000e+00  -3.4709695063187479e-04 9.2389917449999207e-02 0.0000000000000000e+00  4.1169434506191779e-03 8.9949625941440112e-02 0.0000000000000000e+00  7.4092334066158099e-03 8.5218394039869985e-02 0.0000000000000000e+00  8.1553781721571787e-03 7.3796011365086109e-02 0.0000000000000000e+00  7.9276866096386778e-03 3.3110247654773765e-02 0.0000000000000000e+00  9.3374283139630761e-03 3.6011174155218130e-02 0.0000000000000000e+00  9.2697293477809542e-03 3.1671707965185307e-02 0.0000000000000000e+00  7.0732265631388942e-03 2.1496732477516118e-02 0.0000000000000000e+00  -5.0783745740517455e-03 9.1929378199961276e-02 0.0000000000000000e+00  8.3991672614933607e-03 3.0679239849812658e-02 0.0000000000000000e+00  6.7321482819490885e-03 2.6996399425244143e-02 0.0000000000000000e+00  4.2828856164861973e-03 2.1403009775635140e-02 0.0000000000000000e+00  2.1687089498072338e-03 1.5752434623838425e-02 0.0000000000000000e+00  -3.6636173165842341e-04 8.0305446481248113e-03 0.0000000000000000e+00  2.4898679352598476e-03 2.6434494333419909e-02 0.0000000000000000e+00  6.5126517213783689e-03 6.8304095417622890e-02 0.0000000000000000e+00  2.4739928662366354e-02 -2.1729156186383597e-01 0.0000000000000000e+00  -9.1198187668204908e-03 8.8654804086393285e-02 0.0000000000000000e+00  -1.1944818424761222e-02 8.1803081558679283e-02 0.0000000000000000e+00  -1.3128935531262010e-02 7.2102157344003340e-02 0.0000000000000000e+00  -1.2084007561105543e-02 5.8631608513064301e-02 0.0000000000000000e+00  -1.0126843252394220e-02 4.6198594339048896e-02 0.0000000000000000e+00  -7.6462341745772494e-03 3.4205388857944372e-02 0.0000000000000000e+00  -4.8759968383639274e-03 2.2876093641978384e-02 0.0000000000000000e+00  -2.9328817327660848e-03 1.5624036817212581e-02 0.0000000000000000e+00  -9.4250535544480342e-04 8.3886330341930923e-03 0.0000000000000000e+00  9.0412999889794845e-04 1.4441202418578481e-03 0.0000000000000000e+00  2.8463423431124269e-03 -5.2759573846007648e-03 0.0000000000000000e+00  4.6243797436285672e-03 -1.3533220955158009e-02 0.0000000000000000e+00  4.9737265191850070e-03 -1.3747353156763243e-02 0.0000000000000000e+00  2.2854089919171349e-03 -5.2016840010216785e-05 0.0000000000000000e+00  -8.8678595608705987e-03 7.1957806692345000e-02 0.0000000000000000e+00  1.1829168639752070e-02 -4.0817586386700674e-02 0.0000000000000000e+00  -9.8554673578213105e-03 -2.3413694296868941e-02 0.0000000000000000e+00  -8.7914740255524678e-04 5.0298189879927138e-03 0.0000000000000000e+00  5.2806225551116828e-03 2.3001788636557757e-02 0.0000000000000000e+00  1.0085834641439329e-02 3.8201624076487535e-02 0.0000000000000000e+00  9.3381989331578416e-03 3.0886365692075202e-02 0.0000000000000000e+00  9.5864456501082856e-03 3.7737679385395004e-02 0.0000000000000000e+00  8.6697467575577707e-03 8.1345208607250280e-02 0.0000000000000000e+00  1.9877065811395719e-03 9.1389973279536421e-02 0.0000000000000000e+00  8.1463613609240454e-03 -2.5938733240200233e-02 0.0000000000000000e+00  -1.2727148659885652e-02 7.7127597905711234e-02 0.0000000000000000e+00  -1.1262995409640217e-02 5.2820157204084256e-02 0.0000000000000000e+00  -6.2782864751200033e-03 2.8318380901280138e-02 0.0000000000000000e+00  -1.7643436871385648e-03 1.1227767607654657e-02 0.0000000000000000e+00  2.1971199699079643e-03 -3.4931376291580905e-03 0.0000000000000000e+00  5.7096358494614649e-03 -1.6774282118422339e-02 0.0000000000000000e+00  -7.2019993086483262e-03 9.0791001907021704e-02 0.0000000000000000e+00  -1.8550614786993047e-02 -1.5174102545523779e-01 0.0000000000000000e+00  3.0464340132612872e-03 -6.4766616643480747e-03 0.0000000000000000e+00  1.6340345717883104e-04 4.1957082857373438e-03 0.0000000000000000e+00  -4.2106218336333259e-03 2.0843779096961172e-02 0.0000000000000000e+00  -8.8901082866940633e-03 3.9890970330890500e-02 0.0000000000000000e+00  -1.2911075041727536e-02 6.5599791005231750e-02 0.0000000000000000e+00  -1.0723840579866830e-02 8.5656829227554118e-02 0.0000000000000000e+00  -2.7747101531426176e-03 9.2712707003150124e-02 0.0000000000000000e+00  6.0439697978860842e-03 8.8127843008101239e-02 0.0000000000000000e+00  6.3816627972835731e-03 4.9099544937516997e-02 0.0000000000000000e+00  9.5080678779255173e-03 3.4075176448778159e-02 0.0000000000000000e+00  1.0266650704162706e-02 3.1994334846902714e-02 0.0000000000000000e+00  7.6634775217876263e-03 2.9398441622235351e-02 0.0000000000000000e+00  4.3453868421373595e-03 2.3733107744514099e-02 0.0000000000000000e+00  -4.8443360341481924e-03 -6.5744117654087273e-03 0.0000000000000000e+00  2.6001678571971328e-02 7.2737640352673347e-04 0.0000000000000000e+00  3.2724762577495702e-02 -1.4634642633313574e-01 0.0000000000000000e+00  5.0798071979678686e-02 -4.6433994196173986e-02 0.0000000000000000e+00  -1.8317826992120606e-01 1.9373779656728502e-02 0.0000000000000000e+00  3.9668072118532009e-02 -1.2384385305327066e-01 0.0000000000000000e+00  2.3722699280679195e-02 -3.6795019051990549e-02 0.0000000000000000e+00  9.6725454631858609e-02 -3.4205737451882809e-02 0.0000000000000000e+00  5.0533549706666868e-02 -4.3925341483015993e-03 0.0000000000000000e+00  1.5270121947126914e-02 -1.0488032065741305e-01 0.0000000000000000e+00  -8.0087325715832311e-02 1.7710814101059819e-01 0.0000000000000000e+00  7.2067725478072719e-02 -1.2814897257808161e-01 0.0000000000000000e+00  -1.0899228591911914e-01 1.1199499546251830e-01 0.0000000000000000e+00  -4.0034384253261203e-02 1.1168467679494273e-02 0.0000000000000000e+00  -1.6857991639796671e-01 7.4667208573581542e-02 0.0000000000000000e+00  2.3926210409002474e-01 -2.1449233819637079e-02 0.0000000000000000e+00  4.2059611494245797e-03 -4.9066936744234469e-03 0.0000000000000000e+00  1.2355248447177870e-01 1.0161380403167939e-03 0.0000000000000000e+00  9.3631437981435958e-02 -5.9816086580494520e-03 0.0000000000000000e+00  4.8812111669471366e-02 3.4691097742938051e-04 0.0000000000000000e+00  3.6516662478623708e-02 8.5696919286168643e-04 0.0000000000000000e+00  3.1681996815510628e-02 9.5219341816518493e-04 0.0000000000000000e+00  2.8933804397963621e-02 5.1399519660234037e-04 0.0000000000000000e+00  2.8938346513070468e-02 -8.0648535958833186e-05 0.0000000000000000e+00  2.8999234255450007e-02 -5.4747043050803036e-04 0.0000000000000000e+00  2.8980910583591528e-02 -1.1175750186018295e-03 0.0000000000000000e+00  3.2409734894482699e-02 -1.5729573047841700e-03 0.0000000000000000e+00  3.8336773218869302e-02 -1.6189641827691658e-03 0.0000000000000000e+00  5.4378778564505764e-02 -1.4281803038020738e-03 0.0000000000000000e+00  3.9778559109866017e-02 -1.3862456488227407e-03 0.0000000000000000e+00  5.2250322800381617e-02 4.3122788827808093e-04 0.0000000000000000e+00  3.3045510577067470e-02 8.6870647211135306e-04 0.0000000000000000e+00  2.9390368294547414e-02 1.1290134295164010e-04 0.0000000000000000e+00  2.9610543116703528e-02 -7.6646396785619362e-04 0.0000000000000000e+00  3.4373426737200952e-02 -1.5564862474736791e-03 0.0000000000000000e+00  5.2903546567837356e-02 -1.2314195503113758e-03 0.0000000000000000e+00  4.0491549453802740e-02 8.5502350252918634e-04 0.0000000000000000e+00  2.9962261836757150e-02 9.7045112189003148e-04 0.0000000000000000e+00  2.8872674547292677e-02 -3.1365386437425604e-04 0.0000000000000000e+00  2.8995975912841906e-02 -1.5046989112403547e-03 0.0000000000000000e+00  4.2174528090891152e-02 -1.6432932379147637e-03 0.0000000000000000e+00  1.6320393738400708e-02 1.3188405384336294e-01 0.0000000000000000e+00  -1.1038273205229152e-01 -5.5660462399706534e-03 0.0000000000000000e+00  4.3471680269168110e-02 3.9230106339578033e-02 0.0000000000000000e+00  3.1072423775119470e-02 1.3086917076291313e-01 0.0000000000000000e+00  5.5992014141880701e-02 5.9532780783103046e-03 0.0000000000000000e+00  8.3474043139355969e-02 3.1120818898403867e-02 0.0000000000000000e+00  2.7667926168936246e-02 3.8756373143164574e-02 0.0000000000000000e+00  4.0016237308312594e-02 1.2016727494447378e-01 0.0000000000000000e+00  2.8252364993424664e-02 7.6446641324308586e-03 0.0000000000000000e+00  1.7794857881734283e-01 8.4357717556446648e-03 0.0000000000000000e+00  -1.0656130075318745e-01 -3.5823280573389904e-02 0.0000000000000000e+00  -2.5792772195493790e-02 -6.4404049049069535e-03 0.0000000000000000e+00  -7.9446309066174434e-02 -7.2558383245457242e-02 0.0000000000000000e+00  6.4749643556947845e-02 1.1122799708974875e-01 0.0000000000000000e+00  -6.7221884639053861e-02 -1.2935295841979563e-01 0.0000000000000000e+00  1.9459446599670940e-02 1.0697160320589862e-01 0.0000000000000000e+00  -6.0424209835260032e-04 -7.6253467580892006e-02 0.0000000000000000e+00  -6.2605877092920174e-04 -1.7746788611221375e-02 0.0000000000000000e+00  3.9315472412657917e-03 4.8849242274877072e-03 0.0000000000000000e+00  2.6583761456176326e-03 1.3129388163273499e-03 0.0000000000000000e+00  2.0972830762495983e-03 3.0971839450274441e-05 0.0000000000000000e+00  4.3828886523672721e-04 -3.5462665032914647e-03 0.0000000000000000e+00  -1.0191104652300506e-03 -6.9107175825577722e-03 0.0000000000000000e+00  -3.2411974759560536e-03 -1.2791160828335387e-02 0.0000000000000000e+00  -5.2438784438658403e-03 -1.7386210238005243e-02 0.0000000000000000e+00  -8.8650680517703365e-03 -2.8073694687250964e-02 0.0000000000000000e+00  -1.2667278761209119e-02 -4.0962889679890431e-02 0.0000000000000000e+00  -1.5555453289120813e-02 -5.3690789476105664e-02 0.0000000000000000e+00  -1.8600092843539678e-02 -7.3258021010436686e-02 0.0000000000000000e+00  -1.6477684781240787e-02 -8.0178215508266287e-02 0.0000000000000000e+00  -1.2206452889019132e-02 -8.2277123863970042e-02 0.0000000000000000e+00  -6.5082568117065445e-03 -7.6197003885453585e-02 0.0000000000000000e+00  -3.5960808730066715e-03 -5.1916773894551543e-02 0.0000000000000000e+00  4.8185980095483737e-03 -6.3091501109060033e-02 0.0000000000000000e+00  9.1643179495270281e-03 -5.7015724632430945e-02 0.0000000000000000e+00  1.3260460526418515e-02 -5.5865348771683879e-02 0.0000000000000000e+00  1.6488764584544249e-02 -5.9524679124158639e-02 0.0000000000000000e+00  1.7102298115532027e-02 -5.6492885428178194e-02 0.0000000000000000e+00  1.6310443752060262e-02 -5.0610147781326983e-02 0.0000000000000000e+00  1.4826780165254580e-02 -4.4148804750442472e-02 0.0000000000000000e+00  1.4349569267393497e-02 -4.4515127444723794e-02 0.0000000000000000e+00  1.1271134596821856e-02 -3.6033502063425309e-02 0.0000000000000000e+00  8.3902471157389445e-03 -2.8946593350263897e-02 0.0000000000000000e+00  5.3307204259030426e-03 -2.1438342992656356e-02 0.0000000000000000e+00  2.1551587982194444e-03 -1.3419796959100684e-02 0.0000000000000000e+00  2.5675498964337673e-04 -9.9692854659296799e-03 0.0000000000000000e+00  1.9325565475552947e-03 -2.1704662532865009e-02 0.0000000000000000e+00  6.8815637576583790e-03 -5.9584979518575325e-02 0.0000000000000000e+00  -2.1798233265410152e-02 1.4695371771814619e-01 0.0000000000000000e+00  -9.6070728032541831e-03 1.9803448059017060e-02 0.0000000000000000e+00  2.5186809021850669e-04 -8.7888268999614400e-03 0.0000000000000000e+00  6.8207508403016221e-03 -2.5051776077195668e-02 0.0000000000000000e+00  1.2874413019234952e-02 -4.0632081368390381e-02 0.0000000000000000e+00  1.5694163289919114e-02 -4.7726118335329491e-02 0.0000000000000000e+00  1.6962439218423976e-02 -6.0105407621737952e-02 0.0000000000000000e+00  1.0869424418064903e-02 -5.5021042272294110e-02 0.0000000000000000e+00  2.4021761514249934e-03 -6.6979477561495582e-02 0.0000000000000000e+00  -9.3515034645046454e-03 -8.1706556852573789e-02 0.0000000000000000e+00  -1.7514587238089224e-02 -7.5861792638107647e-02 0.0000000000000000e+00  -1.4513500791334941e-02 -4.8610684339792459e-02 0.0000000000000000e+00  -7.0895436586473097e-03 -2.2673457676770446e-02 0.0000000000000000e+00  -2.0551553461536859e-03 -9.6125223790019445e-03 0.0000000000000000e+00  1.2946668698482354e-03 -1.4304316260626497e-03 0.0000000000000000e+00  5.3617364318342825e-03 9.9780681518631138e-03 0.0000000000000000e+00  1.2577698929499915e-02 3.1635919971766076e-02 0.0000000000000000e+00  -4.2651448266539382e-03 3.4644228096688402e-03 0.0000000000000000e+00  3.6926887756534780e-03 -1.7242374807858420e-02 0.0000000000000000e+00  9.9298452192016808e-03 -3.2831209438513365e-02 0.0000000000000000e+00  1.4593012879130510e-02 -4.3481271668450922e-02 0.0000000000000000e+00  1.6783836204082216e-02 -5.3870689674173321e-02 0.0000000000000000e+00  1.7368889361225753e-02 -6.1817995826093430e-02 0.0000000000000000e+00  7.0331090563909033e-03 -5.9014125749284871e-02 0.0000000000000000e+00  -4.8846915898383362e-03 -8.3048024458550751e-02 0.0000000000000000e+00  -1.4427097957166641e-02 -8.1478329779891293e-02 0.0000000000000000e+00  -1.8223961245709887e-02 -6.5709205825656550e-02 0.0000000000000000e+00  -1.0785350656334305e-02 -3.4309179581715095e-02 0.0000000000000000e+00  -4.0444791903404874e-03 -1.4510865877139009e-02 0.0000000000000000e+00  -1.4624158766398786e-04 -4.7927100207723833e-03 0.0000000000000000e+00  1.8587747376174839e-03 -1.7258739723239134e-03 0.0000000000000000e+00  8.6446804305743349e-03 1.9021145386467146e-02 0.0000000000000000e+00  -3.7639590573289708e-02 -1.3330458481364252e-03 0.0000000000000000e+00  -2.9558880023270378e-02 1.2175031993908536e-01 0.0000000000000000e+00  -4.3843169700950431e-02 4.0034831226477600e-02 0.0000000000000000e+00  1.0507600184195211e-01 -5.4740935082688508e-03 0.0000000000000000e+00  -3.7866270081015570e-02 1.0778319496535307e-01 0.0000000000000000e+00  -2.7189136989365814e-02 3.7262326901363545e-02 0.0000000000000000e+00  -7.9514624545567097e-02 2.8681872491486408e-02 0.0000000000000000e+00  -5.2715526852449755e-02 5.6274539857070361e-03 0.0000000000000000e+00  -1.6974456556092754e-02 9.2559565324324133e-02 0.0000000000000000e+00  6.5753394558355091e-02 -1.2636659076401974e-01 0.0000000000000000e+00  -6.2556258849060034e-02 1.0501289807380919e-01 0.0000000000000000e+00  7.4085729450895518e-02 -6.6191884779017426e-02 0.0000000000000000e+00  2.2861541356678970e-02 -5.1625088896194108e-03 0.0000000000000000e+00  1.0107836829649035e-01 -3.3108284524375441e-02 0.0000000000000000e+00  -1.6898756377174801e-01 7.2846557004484494e-03 0.0000000000000000e+00  -2.6522510346682758e-02 7.2159672472222524e-03 0.0000000000000000e+00  -8.4463131170713177e-02 -5.2016980230566575e-03 0.0000000000000000e+00  -9.9186911494920205e-02 3.3231821475739613e-03 0.0000000000000000e+00  -4.2427114235990673e-02 -9.7260585764926300e-04 0.0000000000000000e+00  -2.6972215092652779e-02 -1.0932854608624906e-03 0.0000000000000000e+00  -2.0140950636027846e-02 -9.3609430304782452e-04 0.0000000000000000e+00  -1.6986738438838599e-02 -5.4315138377758032e-04 0.0000000000000000e+00  -1.6254259235733395e-02 -2.0276488288733103e-04 0.0000000000000000e+00  -1.6128744889336476e-02 4.7803565988907593e-05 0.0000000000000000e+00  -1.6711948174763999e-02 3.7907975316997159e-04 0.0000000000000000e+00  -1.9436149315636666e-02 7.5724246218910403e-04 0.0000000000000000e+00  -2.5736601682627668e-02 8.4891404691381657e-04 0.0000000000000000e+00  -3.9503789020876569e-02 5.8942873306317128e-04 0.0000000000000000e+00  -3.2867250205065320e-02 1.1093131508563164e-03 0.0000000000000000e+00  -4.5323755560643046e-02 -9.9044552893937749e-04 0.0000000000000000e+00  -2.2668583785366191e-02 -9.9093730522476289e-04 0.0000000000000000e+00  -1.6980525009004838e-02 -3.2154764312296752e-04 0.0000000000000000e+00  -1.6686965734409125e-02 1.5496205604914311e-04 0.0000000000000000e+00  -2.1684085011692847e-02 7.8707637716641122e-04 0.0000000000000000e+00  -4.4097673150400397e-02 6.2923507410427113e-04 0.0000000000000000e+00  -3.1741086963598751e-02 -1.1919227348036216e-03 0.0000000000000000e+00  -1.7481905570272405e-02 -8.3373575074606162e-04 0.0000000000000000e+00  -1.6038401824203682e-02 -7.5545364995569707e-05 0.0000000000000000e+00  -1.7496702663001875e-02 6.7824082011699925e-04 0.0000000000000000e+00  -3.0431169864428686e-02 9.2213943785084671e-04 0.0000000000000000e+00  1.1799192407857080e-01 6.9454612694833514e-03 0.0000000000000000e+00  -4.1863468185535026e-02 -3.7629528777607821e-02 0.0000000000000000e+00  -2.8356986267831667e-02 -1.3355884020358250e-01 0.0000000000000000e+00  -5.0950694369176208e-02 -5.4914663192945088e-03 0.0000000000000000e+00  -8.0751208280885431e-02 -3.0640334882828763e-02 0.0000000000000000e+00  -2.5122528818010529e-02 -3.6922254556090765e-02 0.0000000000000000e+00  -3.6124755889811976e-02 -1.1401951110002202e-01 0.0000000000000000e+00  -1.9441580055467589e-02 -6.4860490359472129e-03 0.0000000000000000e+00  -1.8829204595827412e-01 -1.3254720184307192e-02 0.0000000000000000e+00  1.1466524034487845e-01 4.2835493246582264e-02 0.0000000000000000e+00  2.2285607165088862e-02 3.9173694085875991e-03 0.0000000000000000e+00  8.5678156557308649e-02 8.2004267609044793e-02 0.0000000000000000e+00  -6.5344467089816852e-02 -1.1471213998809031e-01 0.0000000000000000e+00  6.7038225799946505e-02 1.3769211705592566e-01 0.0000000000000000e+00  -1.5810655677725865e-02 -9.9948751758571777e-02 0.0000000000000000e+00  1.4508359991488148e-05 2.7061389220746742e-05 0.0000000000000000e+00  -3.0878962611140807e-05 -2.2065642409935645e-05 0.0000000000000000e+00  2.5234837024291332e-06 -1.4584891873379072e-06 0.0000000000000000e+00  6.6577465389048462e-06 -5.0618133848745424e-05 0.0000000000000000e+00  -1.7478126308823478e-05 4.8756150660836765e-05 0.0000000000000000e+00  -4.5792613005557236e-05 -8.8043416824597567e-06 0.0000000000000000e+00  -1.0045683802179962e-05 -1.3741247769307495e-05 0.0000000000000000e+00  3.4583632524898077e-06 6.1546560698362573e-06 0.0000000000000000e+00  5.3464126769919027e-06 -8.5986847241001883e-06 0.0000000000000000e+00  -3.8654994372997760e-06 6.9063493856110980e-06 0.0000000000000000e+00  -9.5454848625026639e-06 5.3912729115389654e-05 0.0000000000000000e+00  -7.3247964647707361e-06 3.0771167000249967e-05 0.0000000000000000e+00  -4.0158678885703937e-05 6.9535136032047379e-05 0.0000000000000000e+00  -1.7025475889752945e-06 -1.3778985186597439e-05 0.0000000000000000e+00  6.8203833009355366e-05 -2.9367091582682930e-05 0.0000000000000000e+00  -3.7124530218242988e-07 -6.0143259702557253e-06 0.0000000000000000e+00  -1.5968890932619692e-04 2.0729999618751853e-05 0.0000000000000000e+00  -8.6056405229522075e-05 -2.9440227288192108e-06 0.0000000000000000e+00  -1.4563605576690342e-04 -3.6121888948712562e-05 0.0000000000000000e+00  1.4365137244898134e-04 -9.0443900050413974e-05 0.0000000000000000e+00  1.3820409992275522e-05 2.6482331406392544e-05 0.0000000000000000e+00  9.3532142580674140e-06 -2.1221383717305582e-05 0.0000000000000000e+00  -2.3753489254165990e-06 7.4360437528491505e-07 0.0000000000000000e+00  8.3677244112281433e-06 -5.4034630650617487e-05 0.0000000000000000e+00  4.6357278974787475e-06 -2.4803934972291984e-05 0.0000000000000000e+00  9.4228558082835932e-09 -1.5389235176559689e-06 0.0000000000000000e+00  3.1007127169699558e-06 2.2886330214716462e-05 0.0000000000000000e+00  -1.3763953657030566e-05 -6.0003111068644870e-05 0.0000000000000000e+00  1.8517128281147924e-06 1.5085357917603238e-06 0.0000000000000000e+00  5.0492297675656901e-06 5.0904125456211438e-05 0.0000000000000000e+00  3.1993256220966769e-06 4.3004069318777264e-05 0.0000000000000000e+00  -4.4994836659298262e-05 2.3795317182201048e-05 0.0000000000000000e+00  -3.9886760211118493e-05 -5.5260659394861016e-05 0.0000000000000000e+00  -2.9914190120711748e-05 3.4882697094492504e-06 0.0000000000000000e+00  1.9970085436812004e-05 -3.7226219887143757e-05 0.0000000000000000e+00  -1.4523123568053315e-05 -4.0995256095224599e-05 0.0000000000000000e+00  5.2146203430811244e-06 -2.7416993683570455e-05 0.0000000000000000e+00  6.7239647120450946e-08 -9.8289627421869986e-08 0.0000000000000000e+00  -1.6210636838749279e-05 -4.7945188882228085e-05 0.0000000000000000e+00  1.1860302752595277e-05 2.5596091805339139e-05 0.0000000000000000e+00  -8.29785489