<?xml version="1.0"?>
<VTKFile type="UnstructuredGrid"  version="0.1"  >
<UnstructuredGrid>
<Piece  NumberOfPoints="4153" NumberOfCells="8064">
<Points>
<DataArray  type="Float64"  NumberOfComponents="3"  format="ascii">-0.4159429826850926 -0.5362613292543857 0  -0.04461515998251062 -0.6280348082762706 0  -0.09291428984836833 -0.6248792480575229 0  -0.1407982996019218 -0.618901853485424 0  -0.1881910085321505 -0.6106766836185991 0  -0.235316602351043 -0.6009707080160278 0  -0.2818360706034116 -0.5877060391915565 0  -0.3274736622475926 -0.5721058261278761 0  -0.3721972180870883 -0.5548887907648314 0  0.003893281950622444 -0.6280298655461553 0  -0.4590241115335823 -0.5183085575461835 0  -0.5015968041137807 -0.5004847468702706 0  -0.5437227974906877 -0.4830820832722665 0  -0.585442275410555 -0.4664570944767499 0  -0.6269006599541558 -0.4508143963165386 0  -0.6680510451370403 -0.4362064979604627 0  -0.7089963175948841 -0.4233486708498779 0  0.6940523730160658 -0.4345525778504145 0  0.05236010410679262 -0.6248573015766907 0  0.100540620001656 -0.6186250475167874 0  0.148215135910143 -0.6096035398262585 0  0.1952123328936305 -0.5981723192890057 0  0.2414636838259787 -0.5850190374775622 0  0.2869909480224117 -0.5705959545908673 0  0.3318324486081478 -0.5553064097295664 0  0.3760367441132214 -0.5395815998952004 0  0.4197057129847518 -0.5237388056059966 0  0.4629140429916035 -0.5080418125215012 0  0.5057238403533381 -0.4926690642473513 0  0.5481782394934532 -0.4779008286832832 0  0.5903078277971231 -0.4637590960938117 0  0.632123401681579 -0.4505974314457348 0  0.6737054219436844 -0.4389607656166137 0  0.6528612756919572 -0.4448050192744032 0  -0.6884349740823876 -0.4298348405777062 0  -0.6062118556586187 -0.4585497212019395 0  -0.5227071624744043 -0.4917282069075573 0  -0.4375370147983413 -0.527274657405038 0  -0.3499495892534314 -0.563614246915377 0  -0.258679508615476 -0.5946694483184725 0  -0.1645533982575963 -0.6150471989239792 0  -0.06880620374044261 -0.6268367455877057 0  0.6112500989538947 -0.4571009925513023 0  0.1244529820036456 -0.6144393436328625 0  0.2184295497219378 -0.5917808741432832 0  0.3094923162241439 -0.5630464535054746 0  0.3979348486493725 -0.5316565203457968 0  0.4843638302380022 -0.5003165968897707 0  0.5692867019652162 -0.4707329194004041 0  0.02814728077481279 -0.6268363948632077 0  -0.7289457352619393 -0.4182908145007171 0  0.5269810275878758 -0.4851932332545867 0  0.4413631814220284 -0.5158633733899521 0  0.3540032330149127 -0.5474606095362975 0  0.2643159463650355 -0.5779425986583334 0  0.1718094661484122 -0.6041510818382154 0  0.07650093951521533 -0.6221105127724401 0  -0.02037065264715221 -0.6284355621320554 0  -0.116916717646935 -0.6222144468928296 0  -0.2117428421046716 -0.6061769200016849 0  -0.3047681507412088 -0.5801433198460449 0  -0.3942544580146292 -0.5456532526999563 0  -0.4803683862628416 -0.5093608925342571 0  -0.5646181876213258 -0.474615226088358 0  -0.6475040631486044 -0.4434428565204367 0  0.8575494354376274 -0.2479528789384445 0  0.7577207739510519 -0.414245566961494 0  0.8118568555026972 -0.3731344901339065 0  0.8469746006226619 -0.3152663105798261 0  0.7261553156935441 -0.4248091979673959 0  0.7854970830941782 -0.3946756391326025 0  0.8283625418556295 -0.3434140230074283 0  0.8516225714139001 -0.2813046549256991 0  0.710302794029682 -0.4306104183458536 0  0.7418583976008793 -0.4191288007115438 0  0.771653694417445 -0.4046272248281342 0  0.7982735421278457 -0.3832032151611547 0  0.8209879233548898 -0.3587536027088237 0  0.8372356231399813 -0.3292285000637651 0  0.8489212690366253 -0.2981430704409755 0  0.8541814398100938 -0.2645488544549582 0  0.8570342689948465 -0.2261759343497603 0  0.8625725929318043 0.2531172552428917 0  0.8619339128399238 0.2099227518882956 0  0.8624057085236457 0.1666725670086672 0  0.8634245173256193 0.1232424884395145 0  0.8647518443296942 0.07951920061303813 0  0.86513694687025 0.03554115490662103 0  0.8646131416774065 -0.008502234917063794 0  0.8631831898657309 -0.0524884828077084 0  0.860849625877894 -0.09622427367266936 0  0.8588296269301521 -0.1396851602778048 0  0.8573619294533689 -0.1829655018356564 0  0.8636671610120914 0.2748803107742546 0  0.8620706079551407 0.2315153813839481 0  0.8628697203764707 0.1449855277314506 0  0.8650597480740062 0.05754672195740097 0  0.8640144858612028 -0.03051082250288349 0  0.8597962214478461 -0.1179825510612886 0  0.8570123196897892 -0.2045717142676724 0  0.8620848569445587 0.1883141268381412 0  0.8641305995154405 0.1014355391643367 0  0.8649849444681049 0.01352006201388233 0  0.8620508462036086 -0.07440854349412035 0  0.858010532542246 -0.1613430118188946 0  0.705870265850234 0.464416749392864 0  0.8548286573192522 0.3424715397811398 0  0.8212426250307004 0.401053283207366 0  0.7684715037104506 0.4432584612186911 0  0.858745139934463 0.3083676059500643 0  0.8372010445687044 0.3710779751398263 0  0.7956298697434709 0.4231121066800162 0  0.7374463535295559 0.4543661293921286 0  0.8608868210100511 0.2915529624123485 0  0.8564587278129661 0.3252810076656521 0  0.8456420398399974 0.3566681034823128 0  0.8300190024508409 0.386473274141738 0  0.8080439002090288 0.4113791449378583 0  0.7820898412789854 0.4333228493863273 0  0.7528887515343571 0.4484628517701967 0  0.721846370135469 0.4603175769714657 0  -0.03673596291810996 0.7140537202031813 0  0.6453088375077541 0.4832940722012126 0  0.604337903513035 0.4986912108526844 0  0.5630125292007087 0.5152800385149644 0  0.5213525199072503 0.5329938312400755 0  0.4792311905754524 0.5516150010264121 0  0.4365924108652557 0.5708760078639434 0  0.3933476241698658 0.5905525338417041 0  0.3493865505848889 0.6104756093081507 0  0.3045413132412412 0.6300877399822801 0  0.2587410130637683 0.6489500504076738 0  0.2119029358618847 0.6665496689629336 0  0.1639528540128622 0.6824014774553742 0  0.1149192225224304 0.6954764697113118 0  0.06497438945554893 0.7053275700782012 0  0.01435262550260734 0.7115195777499725 0  0.6860578495661713 0.4697618599124 0  -0.08787135202138087 0.7115984532282837 0  -0.1385270513533469 0.7046454273506476 0  -0.1882773909877485 0.6935433068592795 0  -0.2366383002313686 0.6783546988648972 0  -0.2836721954207749 0.6617384132271522 0  -0.3295878175045261 0.6438031655267681 0  -0.3744835777500894 0.6249547737376193 0  -0.4184179749257442 0.6055235467152796 0  -0.4616327772549907 0.5864131942176409 0  -0.504261749335002 0.5676343493333585 0  -0.5463950733557817 0.5493825132949469 0  -0.5881030811592053 0.5318573157321362 0  -0.6294251404455208 0.5152459652269857 0  -0.6704144561294744 0.4998763562196585 0  -0.7111934480395933 0.4863593860615137 0  -0.7310967502627156 0.481100394670452 0  -0.6907364551614326 0.4931401070835099 0  -0.608809733587151 0.5234237640114725 0  -0.5253857334685607 0.5584323878113863 0  -0.4401033463626399 0.5959423996067453 0  -0.3521563911413559 0.6344631862862111 0  -0.2603016558176761 0.6702517157369229 0  -0.1635397396168021 0.6995466053350254 0  -0.06233035409999341 0.7133775789347616 0  0.03973222653925156 0.7089137889371715 0  0.1395623791030735 0.6892956739124587 0  0.2354536701896006 0.6579416461938324 0  0.327075422596263 0.6203506043011948 0  0.4150500787905954 0.5806766891130619 0  0.5003488163410049 0.5422169601128569 0  0.5837215298052025 0.506873575260707 0  0.6656030344429709 0.4765686347993096 0  -0.6499552268953143 0.5074601430546879 0  -0.5672973294096766 0.540521603491653 0  -0.4830139035040062 0.5769688744660602 0  -0.3965747103701879 0.6152457749228366 0  -0.3067630458571228 0.6529098865543564 0  -0.2126995689305284 0.6863220784008072 0  -0.1132869410942777 0.7086608416602892 0  -0.01112019247664883 0.713356303407792 0  0.09004769589911352 0.7008348392131711 0  0.1880829468302442 0.6747778417940253 0  0.2817661473521234 0.639644506818641 0  0.3714733632294613 0.6005061246873881 0  0.4579811216771093 0.5611809313665503 0  0.5422316295701094 0.5239845158062651 0  0.6248612174361508 0.4909049127209888 0  -0.8895240203496186 0.2912123265691675 0  -0.7936705403167681 0.4595111753947698 0  -0.8465127887824722 0.4172468504436507 0  -0.8802653301378308 0.3587249914912248 0  -0.762642518046536 0.470728531142817 0  -0.8208285628880123 0.4393060265856262 0  -0.8624180650834212 0.3872077351930167 0  -0.8842957438320688 0.3246415400157315 0  -0.7470557099160622 0.4768266030262435 0  -0.7780782840987236 0.4647361830554462 0  -0.8072893855858183 0.4495466998309107 0  -0.8332622649234876 0.4275530322618067 0  -0.8553066060067367 0.4026634331943059 0  -0.8709356809938846 0.3728519308026103 0  -0.8819197490749363 0.3415371148306839 0  -0.8865394724484248 0.3078486780040305 0  -0.8886152970752325 0.2694521175871669 0  -0.8881500279392954 -0.209095445481878 0  -0.8879264190751426 -0.1659534194456536 0  -0.8888487037404802 -0.1227550461636022 0  -0.8903322114994147 -0.07937976506313039 0  -0.892137711464553 -0.03572502029115674 0  -0.893043815806045 0.008178774997245529 0  -0.8930751981457347 0.0521409439184861 0  -0.8922394823082892 0.09604275567373255 0  -0.8905237233083018 0.1397006045210186 0  -0.8891181972779456 0.1830813323011052 0  -0.8882803957054896 0.2262907057295204 0  -0.8890128037708674 -0.230839984898723 0  -0.8878507971421289 -0.1875213915117127 0  -0.8895457919764992 -0.1010950632824114 0  -0.892702803061066 -0.01378859160737515 0  -0.8927675775993489 0.07410742399743944 0  -0.8897750794385934 0.1614178822480848 0  -0.8882538676895175 0.2478663257047534 0  -0.8883000053378094 -0.1443708391627909 0  -0.8912706973119039 -0.05760547255937404 0  -0.8931648716612003 0.03016003984341225 0  -0.891418507891351 0.1179233539820021 0  -0.8886113951007556 0.2047015383370257 0  -0.8794278186338926 -0.2982353647357674 0  -0.8451637930530131 -0.3563714080265022 0  -0.7918847218772943 -0.3979674772889509 0  -0.8836900788378391 -0.2642383393959998 0  -0.8614094410384443 -0.3266075583573533 0  -0.8192656946542533 -0.3781662398120968 0  -0.7606498820643293 -0.4086847728494488 0  -0.8860075647297284 -0.2474655807403703 0  -0.88121994
[...]
<PointData  Vectors="f_2604"> 
<DataArray  type="Float64"  Name="f_2604"  NumberOfComponents="3" format="ascii">1.0710088392460499e-02 2.5253485587906663e-02 0.0000000000000000e+00  1.7753498512929461e-03 5.3746496722435373e-02 0.0000000000000000e+00  5.2063807411534564e-03 5.4194277577379657e-02 0.0000000000000000e+00  7.9124316085110915e-03 5.2574448727284631e-02 0.0000000000000000e+00  8.4951118053919385e-03 4.5099053498161672e-02 0.0000000000000000e+00  6.8647871240667012e-03 2.7884300327066278e-02 0.0000000000000000e+00  1.0009756529515086e-02 3.1772196586942109e-02 0.0000000000000000e+00  1.0087112420927911e-02 2.7616217478007007e-02 0.0000000000000000e+00  8.1622186465876104e-03 2.0190904155057542e-02 0.0000000000000000e+00  -1.7413632761120027e-03 5.2882076614120602e-02 0.0000000000000000e+00  7.5104095147593289e-03 1.7955493386011604e-02 0.0000000000000000e+00  6.7768904271004807e-03 1.6275298208016979e-02 0.0000000000000000e+00  4.9519727891598900e-03 1.2133178033964874e-02 0.0000000000000000e+00  4.8708859323673710e-03 1.2615627325329514e-02 0.0000000000000000e+00  3.1868166010164548e-03 8.8202637092760459e-03 0.0000000000000000e+00  8.9741596575033614e-03 2.7551437852177042e-02 0.0000000000000000e+00  4.7182437341968348e-03 1.7987472339211091e-02 0.0000000000000000e+00  1.4044940593933391e-02 -6.2226992627186353e-02 0.0000000000000000e+00  -5.0368495500634379e-03 5.1544800639737626e-02 0.0000000000000000e+00  -7.9586886020128478e-03 4.9760404206916041e-02 0.0000000000000000e+00  -1.0298023402284183e-02 4.7425521683528309e-02 0.0000000000000000e+00  -1.1704308768929210e-02 4.4125634057629752e-02 0.0000000000000000e+00  -1.1879051822267218e-02 3.9393683914035395e-02 0.0000000000000000e+00  -1.1237868942457929e-02 3.4079257986940954e-02 0.0000000000000000e+00  -1.0011611454154166e-02 2.8592614861820513e-02 0.0000000000000000e+00  -8.8854722010497517e-03 2.4702181690337423e-02 0.0000000000000000e+00  -7.3657998480465741e-03 2.0255672525873673e-02 0.0000000000000000e+00  -5.6253563025499944e-03 1.5562181114533519e-02 0.0000000000000000e+00  -3.5494557546970834e-03 1.0011798878126605e-02 0.0000000000000000e+00  -1.4211402896004734e-03 4.1596836939825068e-03 0.0000000000000000e+00  -1.2130335675667684e-03 3.8214307154202012e-03 0.0000000000000000e+00  -3.9463475107826265e-03 1.3847649132855983e-02 0.0000000000000000e+00  -4.5987599292574349e-03 1.9831942474989043e-02 0.0000000000000000e+00  5.8149598247148708e-03 -2.1784005297991210e-02 0.0000000000000000e+00  -5.9505420668765586e-03 -1.9785167752561970e-02 0.0000000000000000e+00  1.2661435079723768e-03 3.3067188888052539e-03 0.0000000000000000e+00  5.7972301416016033e-03 1.4034981038338218e-02 0.0000000000000000e+00  1.0489338471896684e-02 2.5143151920447145e-02 0.0000000000000000e+00  9.5070680528401945e-03 2.4643742648013701e-02 0.0000000000000000e+00  9.3042898677478929e-03 3.2606733274446714e-02 0.0000000000000000e+00  8.7551003947576814e-03 5.0574418536343917e-02 0.0000000000000000e+00  3.5339211593431621e-03 5.4109783640596529e-02 0.0000000000000000e+00  2.7459049101132608e-03 -8.9566333390219046e-03 0.0000000000000000e+00  -9.1969972108185381e-03 4.8599020304409053e-02 0.0000000000000000e+00  -1.1984381762415890e-02 4.2149019804243924e-02 0.0000000000000000e+00  -1.0662639726062829e-02 3.1278543842942111e-02 0.0000000000000000e+00  -8.0139423039488535e-03 2.2089947396019584e-02 0.0000000000000000e+00  -4.3296377111158805e-03 1.2054400045407655e-02 0.0000000000000000e+00  -5.0735133012332527e-05 1.2927430739812228e-04 0.0000000000000000e+00  -3.4210310342077015e-03 5.2268812847350861e-02 0.0000000000000000e+00  -6.9554944446268742e-05 -3.2863008124580048e-03 0.0000000000000000e+00  -3.3360986541293249e-03 9.5889609626291748e-03 0.0000000000000000e+00  -6.3481504029939033e-03 1.7474576031966695e-02 0.0000000000000000e+00  -9.8003570486745635e-03 2.7548354731441283e-02 0.0000000000000000e+00  -1.1634978343623616e-02 3.6735055438981319e-02 0.0000000000000000e+00  -1.1302153287521471e-02 4.6474325452346948e-02 0.0000000000000000e+00  -6.5574987949809996e-03 5.0700747520924676e-02 0.0000000000000000e+00  -4.5195190311286099e-06 5.3170007809434795e-02 0.0000000000000000e+00  6.7553539754649965e-03 5.4168580548329348e-02 0.0000000000000000e+00  5.4037602184727404e-03 2.6453184494857764e-02 0.0000000000000000e+00  9.9398747817785061e-03 2.9066371517015650e-02 0.0000000000000000e+00  9.8325666934361150e-03 2.3061358760133766e-02 0.0000000000000000e+00  7.2329914039059862e-03 1.7277287512362485e-02 0.0000000000000000e+00  6.0584961811610020e-03 1.5219543687541859e-02 0.0000000000000000e+00  -2.0713258204999620e-03 -6.0934475583877858e-03 0.0000000000000000e+00  3.0932520322040517e-02 -1.8449386837421462e-03 0.0000000000000000e+00  5.1164715942453885e-02 -9.5292461627291616e-02 0.0000000000000000e+00  6.9345551453154811e-02 -5.3114072196142753e-02 0.0000000000000000e+00  -1.0598911899839591e-01 4.2074694029311431e-02 0.0000000000000000e+00  3.2372760909095660e-02 -9.1110361596008466e-02 0.0000000000000000e+00  1.6782228806172621e-02 -2.0182918586097068e-02 0.0000000000000000e+00  9.4905462925717499e-02 -5.1082492249685578e-02 0.0000000000000000e+00  3.4370947192835719e-02 -5.3977897284442399e-03 0.0000000000000000e+00  2.2701608081985101e-02 -7.3727335578767247e-02 0.0000000000000000e+00  -4.3934246503798187e-02 1.1986009467177215e-01 0.0000000000000000e+00  4.6544267273282751e-02 -7.0724289115764463e-02 0.0000000000000000e+00  -4.7740700720245180e-02 5.2606621047535988e-02 0.0000000000000000e+00  -7.7618805326735610e-02 4.5097166372586407e-02 0.0000000000000000e+00  -1.1098997584225916e-01 6.6222255012345133e-02 0.0000000000000000e+00  1.7008050565269331e-01 -2.4512347477344040e-02 0.0000000000000000e+00  1.2801876210653967e-02 -2.9106111129619397e-03 0.0000000000000000e+00  8.0411863226582059e-02 3.2966136695357698e-04 0.0000000000000000e+00  6.1808720959309095e-02 -1.9821992760873670e-03 0.0000000000000000e+00  2.8526534342406481e-02 6.1872696218144042e-06 0.0000000000000000e+00  1.9120980647288170e-02 3.4509069456369518e-04 0.0000000000000000e+00  1.5248380141096592e-02 4.3931513570648177e-04 0.0000000000000000e+00  1.4158743691771771e-02 3.0151794276047348e-04 0.0000000000000000e+00  1.4054238663930312e-02 -2.3400739342795783e-05 0.0000000000000000e+00  1.4094627498238010e-02 -3.1077316037430273e-04 0.0000000000000000e+00  1.4175127932041351e-02 -6.3381696630243189e-04 0.0000000000000000e+00  1.5691287997195713e-02 -8.0919550403742851e-04 0.0000000000000000e+00  2.0259995550318086e-02 -8.3237399223332054e-04 0.0000000000000000e+00  3.2463928816708280e-02 -7.4434894829744321e-04 0.0000000000000000e+00  3.1909412874659322e-02 1.4746396846251819e-03 0.0000000000000000e+00  3.1947091205876715e-02 -4.7045381304868238e-04 0.0000000000000000e+00  1.6400324969885131e-02 3.8482970868025613e-04 0.0000000000000000e+00  1.4415935483106856e-02 1.2508572984590410e-04 0.0000000000000000e+00  1.4561441703532957e-02 -4.7325031708686006e-04 0.0000000000000000e+00  1.7152092253152857e-02 -7.9778634220119618e-04 0.0000000000000000e+00  3.2214024268953756e-02 -2.5892573564280282e-04 0.0000000000000000e+00  2.2337602365964285e-02 2.4041961343116992e-04 0.0000000000000000e+00  1.4559401921522020e-02 4.3874997023170232e-04 0.0000000000000000e+00  1.3996634285072872e-02 -1.6656273858988089e-04 0.0000000000000000e+00  1.4019542252661388e-02 -7.4636860352945554e-04 0.0000000000000000e+00  2.3333169983554766e-02 -7.8712266428385027e-04 0.0000000000000000e+00  1.0032259743211363e-03 6.3765905263542056e-03 0.0000000000000000e+00  -5.1610273661610792e-02 -1.9166976483438892e-02 0.0000000000000000e+00  6.0854681499008502e-02 4.4410237191788965e-02 0.0000000000000000e+00  4.7893433495448938e-02 8.4666340978553745e-02 0.0000000000000000e+00  3.9442821869387391e-02 5.1904720312189621e-03 0.0000000000000000e+00  7.1301351100081109e-02 3.6736053643720228e-02 0.0000000000000000e+00  2.0736519629338198e-02 2.3971453077073775e-02 0.0000000000000000e+00  3.0691304251244257e-02 8.2281741854194429e-02 0.0000000000000000e+00  2.8202554642532240e-02 4.4399956978463245e-03 0.0000000000000000e+00  1.2309322258067096e-01 1.4760890221779678e-02 0.0000000000000000e+00  -5.4953342804968552e-02 -2.9603755747244470e-02 0.0000000000000000e+00  -3.9243224305929428e-02 -2.2266473033305503e-02 0.0000000000000000e+00  -3.2202146635728922e-02 -3.2863695226767221e-02 0.0000000000000000e+00  4.4949125785985450e-02 6.4239348282282588e-02 0.0000000000000000e+00  -3.4368338775814307e-02 -8.6954969789558939e-02 0.0000000000000000e+00  2.6676444559454626e-02 8.1914148610485238e-02 0.0000000000000000e+00  7.2545804410547917e-06 -3.4169949283718332e-02 0.0000000000000000e+00  -8.5084230662910605e-03 -2.4680088686754954e-02 0.0000000000000000e+00  -3.5542200669192265e-03 -9.2579809096094180e-03 0.0000000000000000e+00  -5.3105238146344399e-03 -1.2892019881858015e-02 0.0000000000000000e+00  -6.2786212462633073e-03 -1.4428728382445166e-02 0.0000000000000000e+00  -8.2408057049874264e-03 -1.8414481634835909e-02 0.0000000000000000e+00  -9.7943769607531372e-03 -2.1569624731734443e-02 0.0000000000000000e+00  -1.1641516849389050e-02 -2.5585070525459535e-02 0.0000000000000000e+00  -1.2655676435460535e-02 -2.8320152058511995e-02 0.0000000000000000e+00  -1.4077286987461610e-02 -3.3062926001439806e-02 0.0000000000000000e+00  -1.4970028996310504e-02 -3.7898865660719018e-02 0.0000000000000000e+00  -1.4757177239731143e-02 -4.1540937660547970e-02 0.0000000000000000e+00  -1.3272839604317459e-02 -4.4377068258338426e-02 0.0000000000000000e+00  -1.0237805404896591e-02 -4.3943307082842283e-02 0.0000000000000000e+00  -6.7465643266082474e-03 -4.2029011035729334e-02 0.0000000000000000e+00  -3.4037203506650042e-03 -3.9072485425651657e-02 0.0000000000000000e+00  -3.9923177818687091e-03 -1.4465486581200872e-02 0.0000000000000000e+00  3.3314135140232993e-03 -3.5901561513313723e-02 0.0000000000000000e+00  7.3689979811479697e-03 -4.0647924714822627e-02 0.0000000000000000e+00  1.2957809460666398e-02 -4.8265768885190539e-02 0.0000000000000000e+00  1.2161876897350004e-02 -3.6100582914795537e-02 0.0000000000000000e+00  1.3192391631829274e-02 -3.5348975246788678e-02 0.0000000000000000e+00  1.2322254449061881e-02 -3.0331999867180343e-02 0.0000000000000000e+00  1.1062249507319575e-02 -2.5585706667450157e-02 0.0000000000000000e+00  1.0592692374624589e-02 -2.3889325313091906e-02 0.0000000000000000e+00  8.5344341175550512e-03 -1.9302407764615594e-02 0.0000000000000000e+00  6.8804785495274389e-03 -1.5729880800499755e-02 0.0000000000000000e+00  5.1355894042619367e-03 -1.2023048751760898e-02 0.0000000000000000e+00  3.3352234885248994e-03 -8.1144474699648764e-03 0.0000000000000000e+00  3.6296954871802615e-03 -9.4577508802361800e-03 0.0000000000000000e+00  8.5666114782190668e-03 -2.4926007051790263e-02 0.0000000000000000e+00  7.0358278367034016e-03 -2.4995026044368731e-02 0.0000000000000000e+00  -7.0305992691629560e-03 2.8567758486312975e-02 0.0000000000000000e+00  -5.1850500989578741e-03 1.6526955955822265e-02 0.0000000000000000e+00  1.9900947948919409e-03 -4.9221008965769971e-03 0.0000000000000000e+00  5.9289590418183276e-03 -1.3687831982086542e-02 0.0000000000000000e+00  9.8552038296966776e-03 -2.2284976160097874e-02 0.0000000000000000e+00  1.1693292008378067e-02 -2.7844265433150023e-02 0.0000000000000000e+00  1.3722718748372649e-02 -3.8845299425285286e-02 0.0000000000000000e+00  8.9694453651935346e-03 -4.0002520171138388e-02 0.0000000000000000e+00  1.6886650896451270e-03 -3.5227790086210020e-02 0.0000000000000000e+00  -5.0104512825499842e-03 -4.0866281624971051e-02 0.0000000000000000e+00  -1.1754429024227674e-02 -4.4067878023911544e-02 0.0000000000000000e+00  -1.5147471798573653e-02 -4.0318767816148911e-02 0.0000000000000000e+00  -1.3393403091985940e-02 -3.0626677804013309e-02 0.0000000000000000e+00  -1.0784717296605789e-02 -2.3703569607009596e-02 0.0000000000000000e+00  -7.3166392966453834e-03 -1.6553448886455976e-02 0.0000000000000000e+00  -2.2046417888184028e-03 -5.4466900091725626e-03 0.0000000000000000e+00  5.7607558402162744e-03 1.8089252932015125e-02 0.0000000000000000e+00  -1.4169460847226498e-03 4.0181373841915932e-03 0.0000000000000000e+00  4.1652937137835692e-03 -9.9112374980994036e-03 0.0000000000000000e+00  7.8102794608059288e-03 -1.7731134392065785e-02 0.0000000000000000e+00  1.0437974195020508e-02 -2.3597008708242856e-02 0.0000000000000000e+00  1.2849041529639768e-02 -3.2899373519348442e-02 0.0000000000000000e+00  1.7119506278299265e-02 -5.4690987011639623e-02 0.0000000000000000e+00  5.1125287250613502e-03 -3.7172783203609894e-02 0.0000000000000000e+00  -1.6763271182975673e-03 -3.3497106132533580e-02 0.0000000000000000e+00  -8.4824916213320865e-03 -4.2987242285946164e-02 0.0000000000000000e+00  -1.4677651318115728e-02 -4.4425578268101368e-02 0.0000000000000000e+00  -1.4633191996367471e-02 -3.5538182288964652e-02 0.0000000000000000e+00  -1.2122639943693569e-02 -2.6749800100744802e-02 0.0000000000000000e+00  -8.9500389832398320e-03 -1.9814982064192264e-02 0.0000000000000000e+00  -6.1574601018335911e-03 -1.4489297442694182e-02 0.0000000000000000e+00  1.6337262185838917e-03 4.5783498701849577e-03 0.0000000000000000e+00  -3.1141782360958527e-02 1.5315840849726070e-03 0.0000000000000000e+00  -5.1093702335386230e-02 8.9755711359457951e-02 0.0000000000000000e+00  -6.6060285978184516e-02 4.8477881189412791e-02 0.0000000000000000e+00  7.5161344940049002e-02 -2.8130415364931449e-02 0.0000000000000000e+00  -3.2715254673630283e-02 8.5864890797994073e-02 0.0000000000000000e+00  -1.8777940485875229e-02 2.1604083261633791e-02 0.0000000000000000e+00  -8.1552571886094133e-02 4.1892203888266352e-02 0.0000000000000000e+00  -3.6933577435211765e-02 5.0750355384476418e-03 0.0000000000000000e+00  -2.5773846266951738e-02 7.6900256818135115e-02 0.0000000000000000e+00  4.2528307230168698e-02 -1.0765185789858812e-01 0.0000000000000000e+00  -4.6437912119967242e-02 6.6471624933110721e-02 0.0000000000000000e+00  4.2104018313928460e-02 -4.4002135507462486e-02 0.0000000000000000e+00  5.6073247685737876e-02 -3.1346424952942091e-02 0.0000000000000000e+00  8.1343535251189383e-02 -4.5458595716925780e-02 0.0000000000000000e+00  -1.4330012055483030e-01 1.7824464647275978e-02 0.0000000000000000e+00  -2.1123863092337759e-02 3.7391344289991043e-03 0.0000000000000000e+00  -6.9901389217868259e-02 -1.5936664492667313e-03 0.0000000000000000e+00  -7.2873134384622312e-02 1.4631577580992506e-03 0.0000000000000000e+00  -3.0519031958490261e-02 -3.1283533296784017e-04 0.0000000000000000e+00  -1.9452440326731969e-02 -5.5824162959152649e-04 0.0000000000000000e+00  -1.5131739426213153e-02 -5.9767747356838190e-04 0.0000000000000000e+00  -1.3715690406298511e-02 -4.4897494325245454e-04 0.0000000000000000e+00  -1.3558135478483679e-02 -1.4282811630728342e-04 0.0000000000000000e+00  -1.3488609834141223e-02 1.2221416339327958e-04 0.0000000000000000e+00  -1.3547786683763652e-02 4.1794231311907334e-04 0.0000000000000000e+00  -1.4805229178022548e-02 5.5708802817518773e-04 0.0000000000000000e+00  -1.8951311081653207e-02 5.0789485367087406e-04 0.0000000000000000e+00  -2.9607080007616599e-02 2.4084311573738292e-04 0.0000000000000000e+00  -3.0660708943148662e-02 -1.5022241768920157e-03 0.0000000000000000e+00  -3.2209053767367032e-02 1.5910162944671099e-04 0.0000000000000000e+00  -1.6495312964378030e-02 -5.6456158096182465e-04 0.0000000000000000e+00  -1.4022986689416529e-02 -2.8884832313751043e-04 0.0000000000000000e+00  -1.3877969323333487e-02 2.6353548063153470e-04 0.0000000000000000e+00  -1.6085660288647503e-02 5.2142269827315513e-04 0.0000000000000000e+00  -3.1545143241197941e-02 -2.3765605755198687e-04 0.0000000000000000e+00  -2.2683891583799784e-02 -4.8050488728545212e-04 0.0000000000000000e+00  -1.3855884492199141e-02 -5.7076309246539489e-04 0.0000000000000000e+00  -1.3448560535585392e-02 -9.6207805080496585e-06 0.0000000000000000e+00  -1.3694582494272850e-02 5.3586552874948490e-04 0.0000000000000000e+00  -2.2094171303087828e-02 4.2462529911216351e-04 0.0000000000000000e+00  7.2426997224672579e-02 2.7806207867219230e-02 0.0000000000000000e+00  -6.4201279283394405e-02 -4.7728788824968837e-02 0.0000000000000000e+00  -5.0362117646357049e-02 -9.1422374918236474e-02 0.0000000000000000e+00  -3.6947961385997055e-02 -5.2772881930703598e-03 0.0000000000000000e+00  -8.1097474967848943e-02 -4.2755020974765287e-02 0.0000000000000000e+00  -1.8456123982271727e-02 -2.1707621365562566e-02 0.0000000000000000e+00  -3.1199363139428327e-02 -8.7256998643944872e-02 0.0000000000000000e+00  -2.1211595882370333e-02 -3.8449713305580844e-03 0.0000000000000000e+00  -1.4411741182936152e-01 -1.9002786109404191e-02 0.0000000000000000e+00  7.9969598567699737e-02 4.5351597443374629e-02 0.0000000000000000e+00  5.5972839264679955e-02 3.2226075694511559e-02 0.0000000000000000e+00  4.1249755321036169e-02 4.3838098021593587e-02 0.0000000000000000e+00  -4.6421657680404509e-02 -6.8379872798434702e-02 0.0000000000000000e+00  3.9435370934726537e-02 1.0446308808376481e-01 0.0000000000000000e+00  -2.7190734454938848e-02 -8.7544234008901864e-02 0.0000000000000000e+00  8.5600371529248210e-09 -2.2109624537248990e-08 0.0000000000000000e+00  -8.1626801804744404e-09 2.6015532484123401e-08 0.0000000000000000e+00  4.6324048903779611e-09 3.8002581205408701e-08 0.0000000000000000e+00  4.9435811744360485e-09 1.1834806024999695e-08 0.0000000000000000e+00  -6.0277467860412600e-09 -1.3367218774282124e-08 0.0000000000000000e+00  -5.7281605771593173e-09 -2.9070441398260363e-08 0.0000000000000000e+00  1.3911242469265452e-08 -4.1807133748770840e-10 0.0000000000000000e+00  -1.3383912452526779e-08 2.0532475348510916e-10 0.0000000000000000e+00  -1.4067094543783887e-08 -2.4432474983135473e-10 0.0000000000000000e+00  1.3622192512004185e-08 9.9056472526383023e-11 0.0000000000000000e+00  -2.8804539969757613e-10 -8.9069509936822553e-10 0.0000000000000000e+00  -3.4473921309713081e-15 -8.5612772817956185e-15 0.0000000000000000e+00  -1.0559363704027735e-14 -2.3579278968191989e-14 0.0000000000000000e+00  6.8249506090543390e-21 -4.6824289036995104e-21 0.0000000000000000e+00  -2.7783441294563117e-20 -4.4987652993007123e-21 0.0000000000000000e+00  1.8785347964149626e-14 -2.2598151577183359e-16 0.0000000000000000e+00  -1.2248790265360382e-14 -3.7930945932701793e-14 0.0000000000000000e+00  -1.6616493585867269e-20 -2.2814757222696231e-21 0.0000000000000000e+00  -1.4922788391271036e-15 -3.3250200294360429e-14 0.0000000000000000e+00  1.7823221591185953e-20 8.8230239147360754e-21 0.0000000000000000e+00  9.5864031814935905e-15 -3.2281319541830556e-14 0.0000000000000000e+00  1.2630042765037377e-16 3.7628464945349661e-16 0.0000000000000000e+00  2.6287981772325421e-20 -2.2444836587615361e-20 0.0000000000000000e+00  1.9368301928446032e-10 7.1749858583983995e-10 0.0000000000000000e+00  3.0697877666555135e-15 8.2359368934734201e-15 0.0000000000000000e+00  -1.8708422534795061e-14 -2.0860985548089072e-17 0.0000000000000000e+00  2.5099074189200300e-15 -6.4656356441685247e-15 0.0000000000000000e+00  7.0454652229602417e-10 -2.1819939054527161e-09 0.0000000000000000e+00  3.6141521112692653e-09 -2.6037713781226169e-08 0.0000000000000000e+00  3.5548643381818175e-10 -1.1010990698551243e-09 0.0000000000000000e+00  5.1615889503247228e-09 -1.1733326831450656e-08 0.0000000000000000e+00  -1.0015403937112296e-08 -2.4527229066136933e-08 0.0000000000000000e+00  -8.2849861705070424e-15 2.3555024888113235e-14 0.0000000000000000e+00  -4.6115249656771746e-09 3.6125524913245535e-08 0.0000000000000000e+00  6.8492425071471492e-09 2.0303641138611475e-08 0.0000000000000000e+00  -1.4936818267587383e-15 4.9178192753714044e-15 0.0000000000000000e+00  1.0403737448326778e-14 2.5234924950504096e-14 0.0000000000000000e+00  -6.1329586665830849e-21 -3.1847833737022946e-22 0.0000000000000000e+00  -4.3754260460398716e-09 1.2070936360126744e-08 0.0000000000000000e+00  -2.4924970422965939e-08 3.6235264381857552e-08 0.0000000000000000e+00  