<?xml version="1.0"?>
<VTKFile type="UnstructuredGrid"  version="0.1"  >
<UnstructuredGrid>
<Piece  NumberOfPoints="4153" NumberOfCells="8064">
<Points>
<DataArray  type="Float64"  NumberOfComponents="3"  format="ascii">-0.4024463474789959 -0.4860560628867392 0  -0.0253207394150775 -0.5309207538296916 0  -0.07278929914081927 -0.5276492908451168 0  -0.1201057274593526 -0.5235459682508766 0  -0.1673028834980037 -0.5189642943336581 0  -0.2145197460636528 -0.5141063743843289 0  -0.261707732781702 -0.5080495637706728 0  -0.3087787706911932 -0.501234374182602 0  -0.355716218903075 -0.4938689867058357 0  0.02229109564320119 -0.5330492598538535 0  -0.4490784938702139 -0.4786263192414337 0  -0.4956034483433081 -0.4711320199277117 0  -0.5420085552614414 -0.4637214968670392 0  -0.5882730573243884 -0.4566814247683603 0  -0.6344182590151337 -0.4499633503282174 0  -0.6803871251120445 -0.4437079167514245 0  -0.7261627732920519 -0.4380488699841359 0  0.7502091094652482 -0.4505334884396514 0  0.07001531125972596 -0.5338283374648033 0  0.1178042246979836 -0.5330964772740333 0  0.1655929972502257 -0.5307931860007763 0  0.2133055012613935 -0.5269917055507195 0  0.2608931957296698 -0.521994417367026 0  0.3083344709181881 -0.5159952786517253 0  0.3556082954692912 -0.5092025009427724 0  0.4026980760443378 -0.5019149768277097 0  0.4496126029878055 -0.4943203908645171 0  0.4963568375371551 -0.486620959949393 0  0.5429322752112193 -0.478964161629223 0  0.5893397192269222 -0.4715718470351736 0  0.6355706172697001 -0.4644899690376185 0  0.6816127913705325 -0.4579855738018083 0  0.7274618851047667 -0.4522098783411606 0  0.7045468084501921 -0.4550752585041621 0  -0.7032764370264206 -0.4409339209054354 0  -0.61136560227045 -0.4532821902811663 0  -0.5188211513109275 -0.4674184843780554 0  -0.4257775630137648 -0.48239201886281 0  -0.3322642735639973 -0.4976130560236047 0  -0.2381252005976401 -0.5111794988160624 0  -0.1437150568456123 -0.5212924783015742 0  -0.04907448999528945 -0.5294101992349519 0  0.6586156598928655 -0.4611541495990518 0  0.1417030118422954 -0.5321407534405845 0  0.2371161040554955 -0.5246313802722895 0  0.3319930405412628 -0.5126888399858677 0  0.4261768044417415 -0.4981388403476809 0  0.5196654876851045 -0.4827817648073566 0  0.6124777360217466 -0.4679655173170516 0  0.04614153703136989 -0.5336189335274111 0  -0.7488138708379862 -0.4365025514294276 0  0.5661519244488591 -0.4752342218200137 0  0.4730057909298872 -0.49047440881135 0  0.3791729412782107 -0.5056016832145633 0  0.2846336052600999 -0.519107414660153 0  0.1894644228875169 -0.5290604679103379 0  0.09390549193905415 -0.5336577943739568 0  -0.001530914883008871 -0.5321435664065953 0  -0.09646551343655325 -0.5256804040618909 0  -0.1908895432952969 -0.5166583072668567 0  -0.2852592281305678 -0.5047208148676998 0  -0.3791267753305789 -0.4898954850132853 0  -0.4723551576994602 -0.4748782035307553 0  -0.5651512462682468 -0.4601310513147825 0  -0.6574259913137062 -0.4467687973645529 0  0.9319189035362496 -0.2586285802638616 0  0.8202698701145451 -0.4331240016884269 0  0.8798159081265544 -0.3913249043691217 0  0.9189461451962263 -0.330198378749016 0  0.7853338131205805 -0.4418980875979783 0  0.8504139075924028 -0.4127340628095042 0  0.8988281508806806 -0.3603575892447239 0  0.9250949465556453 -0.2942492255547217 0  0.7678488899248364 -0.4466163477431109 0  0.8027483573933224 -0.4373207418253095 0  0.835353233419093 -0.4230355287609015 0  0.8647932292175724 -0.4015290865882221 0  0.8896561539179264 -0.376007991872195 0  0.9087016168456087 -0.3452318543386987 0  0.9218589803261485 -0.3121526247719777 0  0.928314758636737 -0.2764048475469927 0  0.9317473230822559 -0.23538012261672 0  0.9388449467871262 0.2766612173899831 0  0.9380096809878996 0.2302890057431139 0  0.9378905315636719 0.1839174866566653 0  0.9381438555745062 0.1374596693773965 0  0.9385905125466205 0.09084280021998595 0  0.938507541913622 0.04408669790202979 0  0.9378924187028371 -0.002711221507996561 0  0.9367424630623907 -0.04948853669476543 0  0.9350502919407032 -0.0961440823644779 0  0.9335101436088868 -0.1426442815025873 0  0.9322968233332056 -0.1890384947976266 0  0.9396805770270483 0.2999724723487443 0  0.93830572560987 0.2534675887993624 0  0.9379843537852437 0.160703143605939 0  0.9386170316879358 0.06747414100371665 0  0.9373859162651021 -0.0261068253665481 0  0.9342529160966165 -0.1194096009329446 0  0.9319097380849771 -0.2122109771313211 0  0.9378930540593848 0.2071096812400733 0  0.9383908167243523 0.1141804697861373 0  0.938264719370707 0.02068912387443114 0  0.9359236808090113 -0.07284379060483465 0  0.9328513164773858 -0.1658521267072529 0  0.7639068922396508 0.4963539313936506 0  0.9286010760009291 0.3719869830691581 0  0.8910817447210024 0.4339941130768776 0  0.8329215265066059 0.4772608535360671 0  0.9338336075987542 0.3357696489782428 0  0.9093183005760709 0.4025416534965701 0  0.8624837995159436 0.4561999436706944 0  0.7985573063539561 0.4870084051759964 0  0.9365465435200406 0.3178218127714583 0  0.9310670584553106 0.3537968064978158 0  0.91877020941261 0.3872026149337212 0  0.9005722272167845 0.4184461772580815 0  0.8764498684045765 0.4445429106023507 0  0.8477202817457463 0.4668360606044917 0  0.8156980971387515 0.4819593863522451 0  0.7813180168027134 0.4921615913366104 0  -0.02125187734945076 0.6301231167689869 0  0.6961959383284807 0.5072102466125359 0  0.6505806451212856 0.5163559760457967 0  0.604674701388489 0.5263156493223285 0  0.5584979660288965 0.5369515012437264 0  0.5120053878689682 0.5481595974285935 0  0.4651879591603947 0.5596474885093177 0  0.4180281747578477 0.5712120427521892 0  0.370507183595894 0.5826833924729276 0  0.32258439400652 0.5936840747772772 0  0.2742830859696826 0.6038301961993708 0  0.2256225243434224 0.6128190375879923 0  0.1766219961685147 0.6204160433367649 0  0.127337148410238 0.6260289391384194 0  0.0778772224987538 0.6295142158191624 0  0.02833484609224465 0.6308210980155913 0  0.7415243290967535 0.4990128997015343 0  -0.07076847581343615 0.6267586273874204 0  -0.1200520273879609 0.6211621052695306 0  -0.1690096462555565 0.6136744087249441 0  -0.2175129071065785 0.6045145301656947 0  -0.2655839293890602 0.5951042318610251 0  -0.3133313283608422 0.5854057809766612 0  -0.3607928595013216 0.5755259185803006 0  -0.4079713269123097 0.5655983619195846 0  -0.4549222146399438 0.5559244680601141 0  -0.5016648997432336 0.5464449372386587 0  -0.5482037009727903 0.5372374708537178 0  -0.5945345850395769 0.5283957935003505 0  -0.6406400950504628 0.5200422843116871 0  -0.6865056467265849 0.5123766441583505 0  -0.7321237394473412 0.5055091934484125 0  -0.7546889799214185 0.5034364252587963 0  -0.7093261423854773 0.5089497286936145 0  -0.6176160876152876 0.5241424269254571 0  -0.5249599648207404 0.5418019492799664 0  -0.431474108057853 0.5607484584189805 0  -0.3370960866826234 0.5804848165293436 0  -0.2415934533182757 0.5998662875711549 0  -0.1445773825121695 0.6176253564142632 0  -0.04603143568005728 0.6287323569268692 0  0.05311188671740992 0.6304455333285519 0  0.1520077667140119 0.6234771681431917 0  0.2499964707410375 0.6084932133307588 0  0.3465935836471406 0.5882768877880414 0  0.4416523700691986 0.5654374995458686 0  0.5352907471259836 0.5425145402880526 0  0.6276637556658827 0.5212534422685493 0  0.7188724421845833 0.5031251085588528 0  -0.6636034508097524 0.5161138580332595 0  -0.5713952848195046 0.5327678852152451 0  -0.4783190879162236 0.551156038691433 0  -0.3844196143723943 0.5705287120739819 0  -0.2894952316672431 0.5902846216230653 0  -0.1933449600753188 0.6092010999954629 0  -0.09544579233135693 0.6242167797477283 0  0.003560409059397782 0.630770433796334 0  0.10262307378079 0.6280443442199366 0  0.2011700253673341 0.6168272319925526 0  0.2984800703815925 0.5988828155827233 0  0.3943167902636073 0.5769636315226256 0  0.4886383031616344 0.5538811128214015 0  0.5816209519951711 0.5315327604167527 0  0.67342427645947 0.5116716046767561 0  -0.9335656849083627 0.3100331169786126 0  -0.8243041243132808 0.485516252350923 0  -0.8832622827495448 0.4431830493395642 0  -0.9216239666531526 0.3817361031636439 0  -0.789623229300331 0.4946635850163892 0  -0.8542405744981949 0.4649466282684833 0  -0.9018642846187204 0.4120063233681689 0  -0.9272553032272207 0.3456828409970697 0  -0.7722417512508553 0.4995293219980879 0  -0.8069163237764199 0.4899164616273805 0  -0.8392880181414319 0.4753517247677357 0  -0.8684091002718044 0.4535153814033444 0  -0.8929446019435318 0.4277839579434357 0  -0.9115477063405905 0.3968182111753796 0  -0.9242821165534345 0.3636309433006469 0  -0.9301829064257778 0.3278108747549375 0  -0.9329902890923468 0.2867839964673838 0  -0.9303753589169976 -0.2235282829541766 0  -0.9306031616344866 -0.1773118670457787 0  -0.9314670683064731 -0.1310723156869963 0  -0.9326518964926288 -0.08474760601213532 0  -0.9340133326883123 -0.03827319173911945 0  -0.9347833164896313 0.008327171513371749 0  -0.9349812539054765 0.054950858518909 0  -0.9346168246791837 0.1015391922777064 0  -0.9336952489832842 0.1479952211822691 0  -0.9329785134412164 0.1943029137944069 0  -0.9326319339025463 0.2405389617122071 0  -0.930686200470354 -0.246730641330155 0  -0.930380468651934 -0.2004176047908479 0  -0.9320316250090379 -0.1079234827346078 0  -0.9344720778367044 -0.01498011631323475 0  -0.9348708504371164 0.07825341819241656 0  -0.9333034433290359 0.1711617826575758 0  -0.9326889329874645 0.2636541820355052 0  -0.9309853565676783 -0.1541996399408395 0  -0.9333606011572149 -0.06153941112635379 0  -0.9349509128424727 0.03163982090580084 0  -0.9341801732860885 0.1247959263632674 0  -0.9327495657282313 0.2174256774505862 0  -0.9178939152208956 -0.3181673364574172 0  -0.8786439377955702 -0.3789888133996797 0  -0.8189552868415032 -0.420271034066867 0  -0.924020553497383 -0.2822947632465142 0  -0.89777930156209 -0.3482314701211306 0  -0.8492307874231753 -0.4002608748517145 0  -0.78398374472675 -0.428675198907905 0  -0.9271753304639339 -0.2644792379995018 0  -0.9208104881010404 -
[...]
<PointData  Vectors="f_45"> 
<DataArray  type="Float64"  Name="f_45"  NumberOfComponents="3" format="ascii">2.1255121722962375e-01 -6.9437813468277793e-02 0.0000000000000000e+00  2.2212699971703648e-01 -2.5731774185965329e-02 0.0000000000000000e+00  2.2083700803264006e-01 -3.5106481532106201e-02 0.0000000000000000e+00  2.1976947349919934e-01 -4.1256849199580163e-02 0.0000000000000000e+00  2.1937901112695415e-01 -4.3267744271962852e-02 0.0000000000000000e+00  2.1761491082162893e-01 -5.1404157417959992e-02 0.0000000000000000e+00  2.1536572725104672e-01 -6.0135833746595688e-02 0.0000000000000000e+00  2.1356533245666029e-01 -6.6246532633549751e-02 0.0000000000000000e+00  2.1165901601305689e-01 -7.2083594760885869e-02 0.0000000000000000e+00  2.2318276861154257e-01 -1.3891097802567635e-02 0.0000000000000000e+00  2.1216193438683753e-01 -7.0626121414786566e-02 0.0000000000000000e+00  2.1236157018802823e-01 -7.0017935327258030e-02 0.0000000000000000e+00  2.1271309847113393e-01 -6.8947143593068652e-02 0.0000000000000000e+00  2.1404604741189989e-01 -6.4687517816154186e-02 0.0000000000000000e+00  2.1487318511505901e-01 -6.1844970030878826e-02 0.0000000000000000e+00  2.1687755381515048e-01 -5.4184317218068087e-02 0.0000000000000000e+00  2.2033528813529510e-01 -3.7946278410227248e-02 0.0000000000000000e+00  2.1449607637646897e-01 5.4870648230322540e-02 0.0000000000000000e+00  2.2361574933810760e-01 -4.0998181852885588e-04 0.0000000000000000e+00  2.2316618997451987e-01 1.4183555881922589e-02 0.0000000000000000e+00  2.2175166556614059e-01 2.8806860244664091e-02 0.0000000000000000e+00  2.1976787109817206e-01 4.1290902123268101e-02 0.0000000000000000e+00  2.1762993719219717e-01 5.1375054324966828e-02 0.0000000000000000e+00  2.1553106871434252e-01 5.9565389696418607e-02 0.0000000000000000e+00  2.1368406582950947e-01 6.5877922091958988e-02 0.0000000000000000e+00  2.1258842860747060e-01 6.9326073180078968e-02 0.0000000000000000e+00  2.1193014506921939e-01 7.1313043046253244e-02 0.0000000000000000e+00  2.1176892926793719e-01 7.1790306356859249e-02 0.0000000000000000e+00  2.1208536333048736e-01 7.0849550214096099e-02 0.0000000000000000e+00  2.1282243408433721e-01 6.8605426625942281e-02 0.0000000000000000e+00  2.1410158348161742e-01 6.4480919445381188e-02 0.0000000000000000e+00  2.1626084481993771e-01 5.6672256049758063e-02 0.0000000000000000e+00  2.2087632378460934e-01 3.7338938284085271e-02 0.0000000000000000e+00  2.1564707265571717e-01 5.9678954196588856e-02 0.0000000000000000e+00  2.1600501842244518e-01 -5.8649619941454394e-02 0.0000000000000000e+00  2.1425596497982402e-01 -6.4000382063023914e-02 0.0000000000000000e+00  2.1246001256437513e-01 -6.9719256624688641e-02 0.0000000000000000e+00  2.1262152818243862e-01 -6.9216668100860260e-02 0.0000000000000000e+00  2.1297836322431879e-01 -6.8151347896948447e-02 0.0000000000000000e+00  2.1628047068543624e-01 -5.6819281712852179e-02 0.0000000000000000e+00  2.1935881106496136e-01 -4.3380762744604069e-02 0.0000000000000000e+00  2.2147916972879594e-01 -3.0802308877017483e-02 0.0000000000000000e+00  2.1468706460597084e-01 6.2619322379137948e-02 0.0000000000000000e+00  2.2258133726158777e-01 2.1504120446459895e-02 0.0000000000000000e+00  2.1872162062219169e-01 4.6504984931958857e-02 0.0000000000000000e+00  2.1452653508128963e-01 6.3077248616024539e-02 0.0000000000000000e+00  2.1214944580817979e-01 7.0660589936273679e-02 0.0000000000000000e+00  2.1179417263577499e-01 7.1717744107862857e-02 0.0000000000000000e+00  2.1329493156414617e-01 6.7129175935508115e-02 0.0000000000000000e+00  2.2349354094733512e-01 -7.3726536307158119e-03 0.0000000000000000e+00  2.1697483599654838e-01 -4.7723165765623465e-02 0.0000000000000000e+00  2.1258225393976868e-01 6.9347178145744440e-02 0.0000000000000000e+00  2.1176623511102799e-01 7.1799186284407124e-02 0.0000000000000000e+00  2.1314919089565593e-01 6.7585392162174809e-02 0.0000000000000000e+00  2.1654701380470490e-01 5.5754369469847936e-02 0.0000000000000000e+00  2.2076581859469199e-01 3.5580794391477759e-02 0.0000000000000000e+00  2.2351267493232166e-01 6.8249515565913625e-03 0.0000000000000000e+00  2.2271485621937773e-01 -2.0022206751345601e-02 0.0000000000000000e+00  2.2024292717683983e-01 -3.8648325135503758e-02 0.0000000000000000e+00  2.1911902392530427e-01 -4.4620209462423011e-02 0.0000000000000000e+00  2.1439649588849288e-01 -6.3533191486917537e-02 0.0000000000000000e+00  2.1111254755581746e-01 -7.3722963407767544e-02 0.0000000000000000e+00  2.1231366303693919e-01 -7.0162648737021702e-02 0.0000000000000000e+00  2.1353350397353668e-01 -6.6357262575601525e-02 0.0000000000000000e+00  2.1527221331152568e-01 -6.0614142258012378e-02 0.0000000000000000e+00  -2.1510885707751920e-01 3.6930287955398142e-02 0.0000000000000000e+00  1.4159732365800942e-01 1.5324947455257645e-01 0.0000000000000000e+00  2.0301156743989615e-03 2.0490924747562222e-01 0.0000000000000000e+00  -1.4692050183488942e-01 1.3767837215548695e-01 0.0000000000000000e+00  1.8871787603627460e-01 1.1586491674437970e-01 0.0000000000000000e+00  6.1564950437611579e-02 2.1011469914733469e-01 0.0000000000000000e+00  -1.0101083022219788e-01 1.9328298970599936e-01 0.0000000000000000e+00  -2.0555778749221498e-01 7.9323849943701202e-02 0.0000000000000000e+00  1.9607763236265408e-01 1.1266211482884522e-01 0.0000000000000000e+00  2.1296244225228689e-01 9.1158918304442810e-02 0.0000000000000000e+00  7.4089285922493336e-02 2.2041804369339629e-01 0.0000000000000000e+00  8.6828777125125892e-02 2.1477313231128708e-01 0.0000000000000000e+00  -1.2694967748309888e-01 1.9930163180655328e-01 0.0000000000000000e+00  -6.6786327641600862e-02 2.2692771175067636e-01 0.0000000000000000e+00  -2.2820213522650176e-01 5.7172373121519085e-02 0.0000000000000000e+00  -2.0642327951806999e-01 9.4871050625114042e-02 0.0000000000000000e+00  -2.2586674402976770e-01 -1.1561240668121317e-02 0.0000000000000000e+00  -2.2487344303757970e-01 2.4967396282330630e-02 0.0000000000000000e+00  -2.2369534056894080e-01 4.5989119161186391e-03 0.0000000000000000e+00  -2.2361265099885336e-01 -9.1578629947325926e-04 0.0000000000000000e+00  -2.2356896332278428e-01 -4.0430650613466085e-03 0.0000000000000000e+00  -2.2359377335743613e-01 -2.2669143465898472e-03 0.0000000000000000e+00  -2.2358168410386337e-01 3.3524644625553147e-03 0.0000000000000000e+00  -2.2344867462543222e-01 8.4085405775609443e-03 0.0000000000000000e+00  -2.2316257681721682e-01 1.4065767557327880e-02 0.0000000000000000e+00  -2.2302111308270106e-01 1.6158185675762132e-02 0.0000000000000000e+00  -2.2320498776920539e-01 1.3521272591926758e-02 0.0000000000000000e+00  -2.2357677490050698e-01 8.4231906944369165e-03 0.0000000000000000e+00  -2.1668308253979618e-01 -2.5221156818774702e-02 0.0000000000000000e+00  -2.2303192552643886e-01 4.6846635749836427e-03 0.0000000000000000e+00  -2.2359352112247557e-01 -2.4175002631407843e-03 0.0000000000000000e+00  -2.2360854769743696e-01 9.1841539110543787e-04 0.0000000000000000e+00  -2.2334643470360632e-01 1.0862689165763122e-02 0.0000000000000000e+00  -2.2311771829746593e-01 1.4773729117267881e-02 0.0000000000000000e+00  -2.2293933286041859e-01 8.7366906864553423e-03 0.0000000000000000e+00  -2.2357471164621595e-01 8.0320121968918354e-04 0.0000000000000000e+00  -2.2355722053452798e-01 -4.8498830100404886e-03 0.0000000000000000e+00  -2.2353160316065884e-01 5.8753960332353526e-03 0.0000000000000000e+00  -2.2298196499701764e-01 1.6742858634694328e-02 0.0000000000000000e+00  -2.2325296456682961e-01 1.2044621002904588e-02 0.0000000000000000e+00  2.1170154598284360e-01 -6.7958352974160377e-02 0.0000000000000000e+00  -1.5374041638030311e-01 -1.2989071424335949e-01 0.0000000000000000e+00  -8.0449082965191338e-03 -2.0523174192081478e-01 0.0000000000000000e+00  1.3283702448918139e-01 -1.6159101468938564e-01 0.0000000000000000e+00  -2.0965073304107198e-01 -6.7642042965427515e-02 0.0000000000000000e+00  -1.1158842427077022e-01 -1.8740964073139374e-01 0.0000000000000000e+00  4.8889722688830253e-02 -2.1340838632912559e-01 0.0000000000000000e+00  1.8164289772293704e-01 -1.2705334457985187e-01 0.0000000000000000e+00  -2.1130664468212235e-01 -8.3467380504696376e-02 0.0000000000000000e+00  -2.3084224951353233e-01 -4.5487640117175605e-02 0.0000000000000000e+00  -7.7944323369809276e-02 -2.2340942673377601e-01 0.0000000000000000e+00  -1.3659913527751844e-01 -1.9262436557765186e-01 0.0000000000000000e+00  7.2606753819224865e-02 -2.1947161512187247e-01 0.0000000000000000e+00  6.4180220830751256e-02 -2.2320948068125337e-01 0.0000000000000000e+00  2.0677216524341402e-01 -1.0391820492858247e-01 0.0000000000000000e+00  1.9117783253911549e-01 -1.1962255512129999e-01 0.0000000000000000e+00  2.2285091581736038e-01 1.8475549260084771e-02 0.0000000000000000e+00  2.0890920938646432e-01 -7.9464453299133792e-02 0.0000000000000000e+00  2.0485979477070282e-01 -8.9586757434562861e-02 0.0000000000000000e+00  2.0243292688228956e-01 -9.4980977156867472e-02 0.0000000000000000e+00  1.9970204404291858e-01 -1.0059796493814459e-01 0.0000000000000000e+00  1.9852522703584546e-01 -1.0289657284070108e-01 0.0000000000000000e+00  1.9805241665808981e-01 -1.0380383714719911e-01 0.0000000000000000e+00  1.9858627436121684e-01 -1.0277868605551800e-01 0.0000000000000000e+00  1.9968911982091875e-01 -1.0062185697499135e-01 0.0000000000000000e+00  2.0284686509958993e-01 -9.4101491551921893e-02 0.0000000000000000e+00  2.0664690595950444e-01 -8.5445520364735281e-02 0.0000000000000000e+00  2.1093132836052333e-01 -7.4248429384567952e-02 0.0000000000000000e+00  2.1555724072820312e-01 -5.9495754978506794e-02 0.0000000000000000e+00  2.1981208772854263e-01 -4.1105915993233530e-02 0.0000000000000000e+00  2.2257445632163878e-01 -2.1741017727815677e-02 0.0000000000000000e+00  2.2361234881822323e-01 -2.9026407134751433e-03 0.0000000000000000e+00  2.1501496627123351e-01 -6.0819015903850991e-02 0.0000000000000000e+00  2.1990233022108646e-01 4.0562842506888144e-02 0.0000000000000000e+00  2.1564016599190969e-01 5.9159191059688802e-02 0.0000000000000000e+00  2.1058624152182018e-01 7.5162504226578233e-02 0.0000000000000000e+00  2.0746009259841566e-01 8.3418089432884285e-02 0.0000000000000000e+00  2.0632596434252956e-01 8.6201738259394686e-02 0.0000000000000000e+00  2.0539466824793676e-01 8.8392644580846016e-02 0.0000000000000000e+00  2.0457878523235576e-01 9.0262899891487891e-02 0.0000000000000000e+00  2.0514206447474334e-01 8.8975786078628979e-02 0.0000000000000000e+00  2.0557576581049011e-01 8.7968830071747633e-02 0.0000000000000000e+00  2.0629955997097066e-01 8.6258402490978534e-02 0.0000000000000000e+00  2.0728702472396021e-01 8.3857936678121997e-02 0.0000000000000000e+00  2.0852451171606701e-01 8.0730433136235208e-02 0.0000000000000000e+00  2.1041772691819560e-01 7.5627854699436892e-02 0.0000000000000000e+00  2.1335071582802734e-01 6.6692828458948389e-02 0.0000000000000000e+00  2.1838911967945168e-01 4.8038675856835689e-02 0.0000000000000000e+00  2.1422501026104099e-01 5.8511404560244375e-02 0.0000000000000000e+00  2.1260983619563031e-01 7.0063888036564825e-02 0.0000000000000000e+00  2.0934867169484797e-01 7.8583888708944616e-02 0.0000000000000000e+00  2.0674406305578286e-01 8.5188734102306096e-02 0.0000000000000000e+00  2.0541183402229354e-01 8.8352366658666553e-02 0.0000000000000000e+00  2.0505458862171128e-01 8.9178405384767054e-02 0.0000000000000000e+00  2.0720104504833986e-01 8.4066276716015284e-02 0.0000000000000000e+00  2.1347327662194648e-01 6.6659153087222742e-02 0.0000000000000000e+00  2.2154688557666274e-01 3.0598706648937886e-02 0.0000000000000000e+00  2.2331277852829237e-01 -1.1517674313040387e-02 0.0000000000000000e+00  2.1790886196561110e-01 -5.0252747316993682e-02 0.0000000000000000e+00  2.0884883336688570e-01 -7.9894684421743259e-02 0.0000000000000000e+00  2.0118672728406325e-01 -9.7594872349938480e-02 0.0000000000000000e+00  1.9819950021566801e-01 -1.0352290162341528e-01 0.0000000000000000e+00  1.9900875872644261e-01 -1.0195913154752960e-01 0.0000000000000000e+00  2.0342589520423135e-01 -9.2849659234819845e-02 0.0000000000000000e+00  2.0818551225744039e-01 -8.2398761257212266e-02 0.0000000000000000e+00  2.1123109932590128e-01 7.3481645329457293e-02 0.0000000000000000e+00  2.0788355606544751e-01 8.2370272827276464e-02 0.0000000000000000e+00  2.0594088330824725e-01 8.7112120694452400e-02 0.0000000000000000e+00  2.0453583050352914e-01 9.0361938257868243e-02 0.0000000000000000e+00  2.0589845659601116e-01 8.7209631169196833e-02 0.0000000000000000e+00  2.0778111855204529e-01 8.2676632682881099e-02 0.0000000000000000e+00  2.1791280287737494e-01 5.0261250911761673e-02 0.0000000000000000e+00  2.2356481443949325e-01 5.5396412256601421e-03 0.0000000000000000e+00  2.2141846254201702e-01 -3.1313114289671061e-02 0.0000000000000000e+00  2.1299335218765961e-01 -6.8113218349433263e-02 0.0000000000000000e+00  2.0466939536704104e-01 -9.0064053196315247e-02 0.0000000000000000e+00  1.9890265633881779e-01 -1.0216689836934462e-01 0.0000000000000000e+00  1.9816980789390762e-01 -1.0357999732506819e-01 0.0000000000000000e+00  2.0107410415936183e-01 -9.7823173163632204e-02 0.0000000000000000e+00  2.0603426187216417e-01 -8.7025727351150287e-02 0.0000000000000000e+00  -2.1580061741037351e-01 3.0776915180936403e-02 0.0000000000000000e+00  1.3872736521744952e-01 1.5650801409070556e-01 0.0000000000000000e+00  -1.5425998126370960e-03 2.0513198037906724e-01 0.0000000000000000e+00  -1.4987938323993164e-01 1.3368459039456040e-01 0.0000000000000000e+00  1.8613857973550210e-01 1.2025363270963510e-01 0.0000000000000000e+00  5.5790497811111138e-02 2.1167639284884376e-01 0.0000000000000000e+00  -1.0649724925525181e-01 1.9021865814165478e-01 0.0000000000000000e+00  -2.0793378507202340e-01 7.2639293236273661e-02 0.0000000000000000e+00  1.9510797054730664e-01 1.1351545322204629e-01 0.0000000000000000e+00  2.1050396440314240e-01 9.6200921717152263e-02 0.0000000000000000e+00  7.1698178759507403e-02 2.2099424026343012e-01 0.0000000000000000e+00  8.0109844944087308e-02 2.1696225010255654e-01 0.0000000000000000e+00  -1.3215599730161806e-01 1.9600393476124359e-01 0.0000000000000000e+00  -7.0809412212075540e-02 2.2605761985543127e-01 0.0000000000000000e+00  -2.2996914047076492e-01 5.0640525069706552e-02 0.0000000000000000e+00  -2.0899346824927234e-01 8.9239020300678665e-02 0.0000000000000000e+00  -2.2543880581632753e-01 -2.0365721271572542e-02 0.0000000000000000e+00  -2.2573310916030881e-01 1.4487179340539535e-02 0.0000000000000000e+00  -2.2367902498166298e-01 -5.1968988207156596e-03 0.0000000000000000e+00  -2.2338431487420826e-01 -1.0140744052668746e-02 0.0000000000000000e+00  -2.2323090215900440e-01 -1.2931866175782986e-02 0.0000000000000000e+00  -2.2334536826780715e-01 -1.0768273826354176e-02 0.0000000000000000e+00  -2.2355922971858216e-01 -4.6069126931347513e-03 0.0000000000000000e+00  -2.2360542317187432e-01 7.8408279379695673e-04 0.0000000000000000e+00  -2.2350330281426881e-01 6.7445956194320178e-03 0.0000000000000000e+00  -2.2344022572235778e-01 8.5908523648778115e-03 0.0000000000000000e+00  -2.2355015817306609e-01 5.3870028572988622e-03 0.0000000000000000e+00  -2.2375012672957315e-01 -1.6349098892153237e-05 0.0000000000000000e+00  -2.1545641481175440e-01 -3.4549859248217712e-02 0.0000000000000000e+00  -2.2302595273032061e-01 -5.6292582339609936e-03 0.0000000000000000e+00  -2.2331693363654109e-01 -1.1377453792093716e-02 0.0000000000000000e+00  -2.2349420515389909e-01 -7.2373963439391256e-03 0.0000000000000000e+00  -2.2358557708702398e-01 3.3652875198160472e-03 0.0000000000000000e+00  -2.2350057279433758e-01 6.8852911406112830e-03 0.0000000000000000e+00  -2.2305382707217197e-01 -1.0028862084247122e-04 0.0000000000000000e+00  -2.2340722509387601e-01 -8.6937757819934552e-03 0.0000000000000000e+00  -2.2318988920608956e-01 -1.3709935841374697e-02 0.0000000000000000e+00  -2.2360113090469538e-01 -1.8920467931018469e-03 0.0000000000000000e+00  -2.2340965349066208e-01 9.4688946416776922e-03 0.0000000000000000e+00  -2.2354356411741977e-01 3.6850792292041188e-03 0.0000000000000000e+00  -1.4673140250891903e-01 -1.3791521208814131e-01 0.0000000000000000e+00  4.5762881909441229e-03 -2.0518139357439419e-01 0.0000000000000000e+00  1.4453964147070342e-01 -1.5088151949426407e-01 0.0000000000000000e+00  -2.0584227466112573e-01 -7.8374360013776193e-02 0.0000000000000000e+00  -9.9798183524418729e-02 -1.9389982293882471e-01 0.0000000000000000e+00  6.4171792559812077e-02 -2.0921552256355594e-01 0.0000000000000000e+00  1.9193935568997916e-01 -1.1064327973559088e-01 0.0000000000000000e+00  -2.0725759398077723e-01 -9.3207022702737591e-02 0.0000000000000000e+00  -2.2824147033331019e-01 -5.7198916249801363e-02 0.0000000000000000e+00  -6.6281917928980763e-02 -2.2707810588258728e-01 0.0000000000000000e+00  -1.2431035611974257e-01 -2.0082720037296756e-01 0.0000000000000000e+00  8.7592393271515759e-02 -2.1424005573911545e-01 0.0000000000000000e+00  7.9345711205906722e-02 -2.1847989165791673e-01 0.0000000000000000e+00  2.1462983167751920e-01 -8.6993664463484027e-02 0.0000000000000000e+00  2.0109064245233010e-01 -1.0241978005853698e-01 0.0000000000000000e+00  1.2591425207320253e-01 1.8494593215143690e-01 0.0000000000000000e+00  1.7515026690096733e-01 1.3916329670908603e-01 0.0000000000000000e+00  2.0836701051159562e-01 -8.1300898705990332e-02 0.0000000000000000e+00  7.2367929848338841e-02 -2.1179173106170718e-01 0.0000000000000000e+00  7.4185764571637988e-02 -2.1113895995566800e-01 0.0000000000000000e+00  2.2146301964764309e-01 -3.1403667041568571e-02 0.0000000000000000e+00  -1.7792692866098281e-01 1.3567097865830940e-01 0.0000000000000000e+00  -1.8698868810556230e-01 1.2285443164181299e-01 0.0000000000000000e+00  -1.8293664736024284e-01 -1.2879927088478629e-01 0.0000000000000000e+00  -1.9155448173204345e-01 -1.1559130893465797e-01 0.0000000000000000e+00  1.0649114316619817e-02 -2.2359035670846986e-01 0.0000000000000000e+00  -1.5326927443973329e-01 -1.6309000259659329e-01 0.0000000000000000e+00  -1.0813746891651310e-01 -1.9619885686454919e-01 0.0000000000000000e+00  -2.1828453974873291e-01 4.9709227502130485e-02 0.0000000000000000e+00  -1.8532462756069992e-01 1.2640814420380053e-01 0.0000000000000000e+00  -2.2310191800699694e-01 1.7008381832305294e-02 0.0000000000000000e+00  1.0573721598482980e-01 -1.9776817955607112e-01 0.0000000000000000e+00  1.6080259258108084e-01 1.5585615454086665e-01 0.0000000000000000e+00  2.0216923445136745e-01 9.6238894289901483e-02 0.0000000000000000e+00  1.5732885939730445e-01 -1.5967970136065385e-01 0.0000000000000000e+00  -5.9745714502267462e-02 2.1609722627803227e-01 0.0000000000000000e+00  -1.4324835690648230e-01 -1.7242423541781324e-01 0.0000000000000000e+00  -2.1975919686911519e-01 4.2587477096482758e-02 0.0000000000000000e+00  2.7519592393330242e-02 -2.2215527593736228e-01 0.0000000000000000e+00  -1.4603355086246866e-01 -1.6956263721982356e-01 0.0000000000000000e+00  -2.2367264640545073e-01 -5.2141871520339639e-03 0.0000000000000000e+00  -1.4291665666426934e-01 1.7220839349501887e-01 0.0000000000000000e+00  5.5894060285222834e-02 2.1674569514487640e-01 0.0000000000000000e+00  1.9152365195630860e-01 1.1563830877693973e-01 0.0000000000000000e+00  2.3745519690397270e-02 2.2257706402258687e-01 0.0000000000000000e+00  7.9966118486030996e-02 2.0899530682338852e-01 0.0000000000000000e+00  1.5595900322061654e-01 -1.6042653566623222e-01 0.0000000000000000e+00  -3.0173381925707794e-02 2.2180880954287294e-01 0.0000000000000000e+00  2.1934263617532271e-01 4.3757815073651243e-02 0.0000000000000000e+00  1.1140190250439047e-01 -1.9414376095649477e-01 0.0000000000000000e+00  -1.0625178714045137e-01 1.9698433725203268e-01 0.0000000000000000e+00  -1.3215468800920827e-01 -1.8069034330654180e-01 0.0000000000000000e+00  -2.2347557100516238e-01 1.2369168930513466e-02 0.0000000000000000e+00  1.1992941977244244e-01 1.8889832730068290e-01 0.0000000000000000e+00  -5.4446452954901498e-02 2.1704509401685870e-01 0.0000000000000000e+00  1.1869715142452641e-01 1.8977515628669470e-01 0.000000