<?xml version="1.0"?>
<VTKFile type="UnstructuredGrid"  version="0.1"  >
<UnstructuredGrid>
<Piece  NumberOfPoints="4153" NumberOfCells="8064">
<Points>
<DataArray  type="Float64"  NumberOfComponents="3"  format="ascii">-0.4165347785222364 -0.613401648226971 0  -0.04099304824422027 -0.7722407398746218 0  -0.09351244346023609 -0.767153817587131 0  -0.1450379289441212 -0.7568000196475065 0  -0.1951326841404628 -0.7417954016291269 0  -0.2438373838255105 -0.7236114516303235 0  -0.2905435463802378 -0.7002438557519499 0  -0.3348640832418084 -0.6734995366494188 0  -0.3768087057166181 -0.6443713556135343 0  0.01189058603598477 -0.7716934241257691 0  -0.4541235269658548 -0.5825679485661336 0  -0.4902823766968641 -0.5519065037295715 0  -0.5250647472872214 -0.5216695971066138 0  -0.5586812209912349 -0.49228480165377 0  -0.5915256567856094 -0.4643516274815465 0  -0.6238035137200834 -0.4381320469047573 0  -0.6556651658827182 -0.4145044435285733 0  0.6466955592935704 -0.4145090241506751 0  0.06445768824954931 -0.7655738279935532 0  0.1160594100188383 -0.7541228737499055 0  0.1661386275426046 -0.7378519142320641 0  0.2142657513404594 -0.7173791997841928 0  0.2602593469630198 -0.693801322701697 0  0.3041077735587658 -0.6678477430708101 0  0.3458936256180964 -0.6402472276869854 0  0.3857309335340235 -0.6116158600503823 0  0.4239313844403835 -0.5826818912593261 0  0.4607210063443541 -0.5538633167873374 0  0.4963360245331541 -0.5255290917229124 0  0.5309472708240284 -0.4980298995713341 0  0.5648033862231363 -0.4716040950557671 0  0.5980363568814769 -0.4467179452336343 0  0.6308757418266603 -0.4242223795380888 0  0.6142718727830243 -0.4354001793111896 0  -0.6394958130393239 -0.4261346552358352 0  -0.5751743594540566 -0.4782234309999394 0  -0.5078195966035699 -0.5367104134684134 0  -0.4354821002800561 -0.5979256864003961 0  -0.3561339137013718 -0.6590660458815746 0  -0.2674802454995649 -0.7124290573232606 0  -0.1702835653275308 -0.7499327798945455 0  -0.06734093501393207 -0.7703863915769058 0  0.5814432303889747 -0.4591342536281447 0  0.1413184051680378 -0.7465420106961951 0  0.2375326561688146 -0.705937804266121 0  0.3252419466040861 -0.654213952548011 0  0.4050258054130389 -0.5971683780177921 0  0.4786546501983402 -0.539632315271713 0  0.5479795353387531 -0.4847513635002508 0  0.03825568018500249 -0.7693225222464032 0  -0.6710512328722459 -0.4042237593191365 0  0.5137446643744001 -0.5116538012641479 0  0.442485703482461 -0.5682432835305702 0  0.3660419606152912 -0.6259985964269199 0  0.2824490113829434 -0.681083833929931 0  0.1904755346799469 -0.7280894225580855 0  0.0904170283711057 -0.7604876753532736 0  -0.01455208358912439 -0.7726778131791677 0  -0.1194331422271492 -0.7626180542271649 0  -0.219553793292917 -0.7331372909770525 0  -0.3129716228330164 -0.6871337691993371 0  -0.3971493785910579 -0.629307834398496 0  -0.4723924835512781 -0.5672274440338622 0  -0.5420192387654511 -0.50685457387291 0  -0.6076583402432415 -0.4511878491214101 0  0.7766154629012088 -0.2272903576533481 0  0.697564542596316 -0.3846744727550025 0  0.7413572430552453 -0.3422640518237636 0  0.7692333954795871 -0.28860834786875 0  0.6726422797992267 -0.4001220794286074 0  0.7205580916057128 -0.3648044037303279 0  0.7535398826920698 -0.3140645108491696 0  0.7718324838310978 -0.2575486536731529 0  0.6597158444154962 -0.4079299862797929 0  0.6850577129656196 -0.3916860036932824 0  0.7091766698950938 -0.374913392224858 0  0.7306170501074836 -0.3527036088608314 0  0.7496029796087015 -0.3292976094013341 0  0.7605393351263844 -0.301137395892741 0  0.7695976887406826 -0.2728303106768034 0  0.7735873672523597 -0.2422798578094874 0  0.7760712646763163 -0.2075049663017139 0  0.7803050580059998 0.234335394359604 0  0.7806081515234191 0.1950863049188685 0  0.7822723427338261 0.1554922355270436 0  0.7843859033504529 0.1154471459794722 0  0.7866441350734904 0.07487481134201075 0  0.7874932000009801 0.03388125488535482 0  0.7870325735279275 -0.00721368153836557 0  0.7852627047392156 -0.04818559845609714 0  0.7821744431677994 -0.08870560025175905 0  0.7792963504030711 -0.128714563631782 0  0.776928631162389 -0.1682715043711214 0  0.7814657550526649 0.2540596854360414 0  0.7802329554778001 0.2147415008830246 0  0.7833125010465614 0.1355295327172716 0  0.7872313336200799 0.05440597732189052 0  0.7863149405394207 -0.0277298702103711 0  0.7807197209868749 -0.1087730561039469 0  0.7762675290209439 -0.1879203087551275 0  0.781356658561285 0.1753419675581009 0  0.7855962147992885 0.0952492902986064 0  0.7874217696225927 0.01333260604749654 0  0.7837713179811605 -0.06853321589173965 0  0.7780240295257674 -0.1485469457922853 0  0.6582340161583807 0.4439939835219349 0  0.7758043450816653 0.3156051219125604 0  0.7496512299963529 0.3701356058923812 0  0.7075637685115674 0.4134919351037978 0  0.777726475770485 0.2844444037468305 0  0.7614180788764653 0.3417922110931352 0  0.7296751227778968 0.3929493554978569 0  0.6832615702129012 0.4291029468251844 0  0.7791174815959988 0.2691551604636752 0  0.7760531585698859 0.2998132927571079 0  0.7679204963029246 0.3285033210559975 0  0.7571591853376146 0.3567597808667604 0  0.7392900634693708 0.3807017057730069 0  0.7187099608376879 0.4033349174007947 0  0.6953463322756831 0.4206494659132184 0  0.6707175636830963 0.4369934245239554 0  -0.03136307512016401 0.8409898129547317 0  0.6117022314330041 0.4783718246240398 0  0.5799777622093381 0.505104552111626 0  0.5476966426853103 0.5337169087947958 0  0.5146149083844996 0.5639084831917278 0  0.4803540992211162 0.5951573644745357 0  0.4446681686139009 0.6270825597156896 0  0.4072903910050099 0.6592873433333324 0  0.3678861536822633 0.6913679522699044 0  0.3260794367483918 0.7223325941952219 0  0.2817410022438951 0.7515156103338283 0  0.2347799382186107 0.7780721419758524 0  0.1852244321003953 0.8012710127495389 0  0.1332773381641172 0.8197372593501424 0  0.07943462318583533 0.8328026865698853 0  0.02433162301807641 0.8398632102022759 0  0.6430797967886824 0.4543611311969697 0  -0.08675875159733484 0.834998425103636 0  -0.1409361993068957 0.8227418287940151 0  -0.1931923078079088 0.8049076094189171 0  -0.2428023030218499 0.7814852650373083 0  -0.2899015523829472 0.7558327695379344 0  -0.3344269876740434 0.7276039947967191 0  -0.376498955741213 0.6976008217296435 0  -0.4162398511629182 0.6663251666412628 0  -0.454012581135785 0.6350547386520589 0  -0.4902241008857354 0.6040529714760763 0  -0.5251006042720551 0.5736462515688279 0  -0.5588713890058463 0.544163706800903 0  -0.5917498878703729 0.5159023726505232 0  -0.6239781895170013 0.4894024515356565 0  -0.655802537729361 0.4655375193817794 0  -0.6711350744670199 0.4552086037967351 0  -0.6396734275258932 0.4773268045956061 0  -0.5754193875647049 0.529942761761762 0  -0.5078153691846297 0.5887631018535588 0  -0.4353241212177503 0.6506647587047029 0  -0.3557529706239537 0.7127428580518147 0  -0.2666678467498854 0.7690409980285591 0  -0.1673247596250553 0.8143196357605997 0  -0.05915303724348461 0.838781834433344 0  0.05200407738129541 0.837139700496459 0  0.1595229543895169 0.8111105147874726 0  0.2585886056955328 0.7651791539359167 0  0.3472815652819091 0.7070132706334589 0  0.4262059007044613 0.6431764592250626 0  0.4976415701699038 0.5794274528899187 0  0.5639164252866677 0.5192891193434646 0  0.6271662208948752 0.4661878594920294 0  -0.6078805369135132 0.502597123199327 0  -0.5421118506050725 0.5587928061585078 0  -0.472302359306969 0.6195040180659332 0  -0.3966967334388971 0.6820986437709571 0  -0.3124744021633633 0.7419715636228302 0  -0.2185227618713891 0.7939938628697656 0  -0.1140409142942533 0.8295786107006098 0  -0.003445371735515629 0.8412414801242921 0  0.106557463101767 0.8269855400917169 0  0.2103483564149291 0.7902239158275924 0  0.3042350318955694 0.7372006190404387 0  0.3878899325844585 0.6754117897493432 0  0.4627050972160832 0.611063473288031 0  0.531298804744333 0.548668811118724 0  0.5958450097149578 0.4916589103598087 0  -0.79692329743755 0.2656456132210128 0  -0.7208697041424521 0.424539650469257 0  -0.763532070381606 0.381344894817423 0  -0.7903734826876643 0.3271151254502979 0  -0.6964204368104269 0.440268273782525 0  -0.7432889577669076 0.4041538003879988 0  -0.7754048935839952 0.3529942048834069 0  -0.7926242348500957 0.295984278111479 0  -0.6837568056647222 0.4482240581979261 0  -0.7085873942424195 0.4317249625355563 0  -0.7321798100786451 0.4144803594440744 0  -0.7530517214467135 0.3919043121038697 0  -0.771354193359215 0.3681150029876283 0  -0.782119757479157 0.339858651029569 0  -0.7906696672575793 0.3113232634654883 0  -0.7942082546174063 0.2806988689813773 0  -0.7960914944176762 0.245875667157745 0  -0.7963088559534119 -0.1961758987594599 0  -0.7968826277053034 -0.1569480181560575 0  -0.7988970100921404 -0.117374572748406 0  -0.8013860770243092 -0.07733923375283121 0  -0.8040417657210419 -0.03677845780309889 0  -0.8053319298504781 0.004222823270635091 0  -0.8053194852364638 0.04533884144096395 0  -0.8040085730809505 0.08634657304505211 0  -0.8013454445901538 0.1269273526132856 0  -0.798819081048471 0.1669929341145585 0  -0.7967414290969385 0.2066047070576009 0  -0.7972203028390983 -0.2159233002663302 0  -0.7963642566168363 -0.1765950235996769 0  -0.8001275813638534 -0.09741950517948859 0  -0.8048508045707813 -0.01630714625196899 0  -0.8048272237906665 0.06587108680103011 0  -0.8000706526823077 0.1470214019711541 0  -0.7961853399478069 0.2262721735270306 0  -0.7978026023460465 -0.1372158793950715 0  -0.8027814648766846 -0.05714777479734999 0  -0.80548366157031 0.02478047280359788 0  -0.8027463309749653 0.106723303407288 0  -0.7976974102201192 0.1868524854080816 0  -0.7907020774021449 -0.2773251061444389 0  -0.7636982824604073 -0.3313657008973839 0  -0.7209183871522212 -0.3742213207622586 0  -0.7930128582801125 -0.2462430176247052 0  -0.7757700795095281 -0.3031975260414629 0  -0.7433980805172539 -0.354051128755688 0  -0.6963442583675128 -0.3896593415254953 0  -0.7945767329928318 -0.2309708669855075 0  -0.7910789368722534 -0.2
[...]
<PointData  Vectors="f_45"> 
<DataArray  type="Float64"  Name="f_45"  NumberOfComponents="3" format="ascii">4.1594837571611608e-02 -2.1983356618037733e-01 0.0000000000000000e+00  2.2287844106159338e-01 -1.9420746444725832e-02 0.0000000000000000e+00  2.1402391879089702e-01 -6.5242789634182077e-02 0.0000000000000000e+00  1.9774413033024288e-01 -1.0481963780809256e-01 0.0000000000000000e+00  1.7618413019915086e-01 -1.3781117254898029e-01 0.0000000000000000e+00  1.5334398644522990e-01 -1.6252701708826048e-01 0.0000000000000000e+00  1.1745258075487454e-01 -1.9015551985307716e-01 0.0000000000000000e+00  9.0746309266042186e-02 -2.0431053336074448e-01 0.0000000000000000e+00  7.1559199676740640e-02 -2.1203565286028866e-01 0.0000000000000000e+00  2.2191184811415099e-01 2.8365348450812424e-02 0.0000000000000000e+00  4.0754736496669892e-02 -2.1987564013934460e-01 0.0000000000000000e+00  3.2839307608562809e-02 -2.2118643058445744e-01 0.0000000000000000e+00  3.0278741999895890e-02 -2.2154478340005129e-01 0.0000000000000000e+00  3.2703469740484277e-02 -2.2117530575487776e-01 0.0000000000000000e+00  4.0579822080999049e-02 -2.1984481544779508e-01 0.0000000000000000e+00  5.1066061296540004e-02 -2.1773081663567548e-01 0.0000000000000000e+00  7.5116176715506369e-02 -2.1124162605698671e-01 0.0000000000000000e+00  1.1978333574559143e-01 1.8812363038436544e-01 0.0000000000000000e+00  2.1118831312587596e-01 7.3778774626854768e-02 0.0000000000000000e+00  1.9234368219790376e-01 1.1418661127962343e-01 0.0000000000000000e+00  1.6839151499647573e-01 1.4723079865847893e-01 0.0000000000000000e+00  1.4228245391456196e-01 1.7258601590595077e-01 0.0000000000000000e+00  1.1859109537712059e-01 1.8962347770895543e-01 0.0000000000000000e+00  9.6873347847762067e-02 2.0156039896024908e-01 0.0000000000000000e+00  7.8695978140310402e-02 2.0931081354484701e-01 0.0000000000000000e+00  6.5399587643131793e-02 2.1383613162857046e-01 0.0000000000000000e+00  5.6384319902932099e-02 2.1638695325244647e-01 0.0000000000000000e+00  5.1325458154946116e-02 2.1763865684188671e-01 0.0000000000000000e+00  4.9638384091061805e-02 2.1802562190647401e-01 0.0000000000000000e+00  5.3441491930272783e-02 2.1711155853632230e-01 0.0000000000000000e+00  5.8581445812935493e-02 2.1572362719459251e-01 0.0000000000000000e+00  6.9148136028008914e-02 2.1256383316666916e-01 0.0000000000000000e+00  8.8481885063671342e-02 2.0591185407189216e-01 0.0000000000000000e+00  8.1712495084406520e-02 2.0811013287825825e-01 0.0000000000000000e+00  6.5786358722056543e-02 -2.1358408548008714e-01 0.0000000000000000e+00  3.5544938326608662e-02 -2.2080050695654882e-01 0.0000000000000000e+00  3.0884388410208043e-02 -2.2146370773634386e-01 0.0000000000000000e+00  4.4998568986440238e-02 -2.1900482707891869e-01 0.0000000000000000e+00  7.6522297599601261e-02 -2.1013560216182434e-01 0.0000000000000000e+00  1.3320457996337123e-01 -1.8000377067930493e-01 0.0000000000000000e+00  1.8633611477593501e-01 -1.2349132563617013e-01 0.0000000000000000e+00  2.1949225864896543e-01 -4.3124656884250503e-02 0.0000000000000000e+00  6.2465461689235481e-02 2.1478054000095148e-01 0.0000000000000000e+00  1.8088843902582757e-01 1.3159754789733150e-01 0.0000000000000000e+00  1.3046239697553583e-01 1.8162966769010805e-01 0.0000000000000000e+00  8.7697165237043795e-02 2.0571559880295021e-01 0.0000000000000000e+00  6.0396365957664455e-02 2.1529683134562755e-01 0.0000000000000000e+00  5.0153605894481777e-02 2.1790949486613917e-01 0.0000000000000000e+00  5.3449015105219967e-02 2.1716004085136090e-01 0.0000000000000000e+00  2.1771692570233167e-01 5.1408016038787405e-02 0.0000000000000000e+00  1.0363232012870720e-01 -1.9718116579299019e-01 0.0000000000000000e+00  5.0055726545266618e-02 2.1794088193605390e-01 0.0000000000000000e+00  5.3378693572597259e-02 2.1714104091937189e-01 0.0000000000000000e+00  7.0869326938273830e-02 2.1209267607947749e-01 0.0000000000000000e+00  1.0741916284036185e-01 1.9613952354338432e-01 0.0000000000000000e+00  1.5473634080435947e-01 1.6148764229147627e-01 0.0000000000000000e+00  2.0266358764780995e-01 9.4714228757052876e-02 0.0000000000000000e+00  2.2365676712852781e-01 4.6919956539300265e-03 0.0000000000000000e+00  2.0603831978309828e-01 -8.6898282845780356e-02 0.0000000000000000e+00  1.7084146640989842e-01 -1.4458586703577231e-01 0.0000000000000000e+00  1.0421242418752726e-01 -1.9802102196804319e-01 0.0000000000000000e+00  5.3407804649134430e-02 -2.1691465042597879e-01 0.0000000000000000e+00  3.6404655101908129e-02 -2.2062116916688768e-01 0.0000000000000000e+00  2.9115017953029780e-02 -2.2171651080814467e-01 0.0000000000000000e+00  4.5827690676367550e-02 -2.1889370840550690e-01 0.0000000000000000e+00  -2.1381764321104696e-01 3.4278573020070924e-02 0.0000000000000000e+00  7.9998700412964197e-02 2.0315500323871907e-01 0.0000000000000000e+00  -2.0375651142576817e-02 2.2828830908221842e-01 0.0000000000000000e+00  -1.5118804215502785e-01 9.8988979351934750e-02 0.0000000000000000e+00  8.0947482927867534e-02 2.0924483330180807e-01 0.0000000000000000e+00  -1.5108623610683420e-02 2.1978912266294995e-01 0.0000000000000000e+00  -1.8065103583021636e-01 1.2380331182729040e-01 0.0000000000000000e+00  -2.1167537233593309e-01 6.2731403264370461e-02 0.0000000000000000e+00  1.2714446968950555e-01 1.8424715145927723e-01 0.0000000000000000e+00  1.0842711734504103e-01 1.9614850744552065e-01 0.0000000000000000e+00  3.2425431832463748e-02 2.2600043170413944e-01 0.0000000000000000e+00  -1.7920068772785732e-02 2.2048400775027321e-01 0.0000000000000000e+00  -1.6798953613316375e-01 1.4458584301036026e-01 0.0000000000000000e+00  -6.6926809635669049e-02 2.4225820872038539e-01 0.0000000000000000e+00  -2.3773045840494381e-01 1.4799197330510525e-02 0.0000000000000000e+00  -2.1153616011975232e-01 7.8809643629341383e-02 0.0000000000000000e+00  -2.2597964171536170e-01 -1.8096894772225328e-02 0.0000000000000000e+00  -2.2421924132189816e-01 2.7162707523236643e-02 0.0000000000000000e+00  -2.2325825618265280e-01 -1.1961281652411200e-02 0.0000000000000000e+00  -2.2249829488254214e-01 -2.2115271039953845e-02 0.0000000000000000e+00  -2.2213853705789777e-01 -2.5465539548644511e-02 0.0000000000000000e+00  -2.2286488545870700e-01 -1.8011862998612269e-02 0.0000000000000000e+00  -2.2359321575111421e-01 -2.1580498035233269e-03 0.0000000000000000e+00  -2.2327779071882209e-01 1.2089761189284311e-02 0.0000000000000000e+00  -2.2181924644267503e-01 2.8089570459383317e-02 0.0000000000000000e+00  -2.2103419398905019e-01 3.3737705451923491e-02 0.0000000000000000e+00  -2.2152611303102107e-01 3.0367652007990874e-02 0.0000000000000000e+00  -2.2281964582484384e-01 1.9384064152786838e-02 0.0000000000000000e+00  -2.1671020439446109e-01 -1.5736842580282351e-02 0.0000000000000000e+00  -2.2341430841622428e-01 -8.9628534784098116e-03 0.0000000000000000e+00  -2.2238746231772552e-01 -2.3409456792338416e-02 0.0000000000000000e+00  -2.2346532316545595e-01 -8.8486894058988144e-03 0.0000000000000000e+00  -2.2284101511386062e-01 1.8879283411867984e-02 0.0000000000000000e+00  -2.2131680653333810e-01 3.1978783158857813e-02 0.0000000000000000e+00  -2.2279826393187685e-01 1.4308790521380958e-02 0.0000000000000000e+00  -2.2277734040817004e-01 -1.9618466517099458e-02 0.0000000000000000e+00  -2.2207489268324543e-01 -2.6359135179093156e-02 0.0000000000000000e+00  -2.2356808403256062e-01 5.0342415680068812e-03 0.0000000000000000e+00  -2.2081621083398584e-01 3.5379902266377709e-02 0.0000000000000000e+00  -2.2191764703613906e-01 2.7561671215103067e-02 0.0000000000000000e+00  1.0004772443455294e-01 -1.9909572780757476e-01 0.0000000000000000e+00  -1.6257337477050901e-01 -9.4741688014469236e-02 0.0000000000000000e+00  -4.0997401857827867e-02 -2.1931400572581078e-01 0.0000000000000000e+00  6.6480431293443679e-02 -2.0671959139634438e-01 0.0000000000000000e+00  -2.1523369193094335e-01 -4.8934790122053325e-02 0.0000000000000000e+00  -1.7874325672779648e-01 -1.2736729166549002e-01 0.0000000000000000e+00  -2.8394078276215227e-02 -2.1797258382571230e-01 0.0000000000000000e+00  7.5240813276840665e-02 -2.1081402862184093e-01 0.0000000000000000e+00  -2.1675943998487027e-01 -6.4969768592443120e-02 0.0000000000000000e+00  -2.3712758864901903e-01 -5.0031268802173861e-03 0.0000000000000000e+00  -9.3818095136483010e-02 -2.2641111064789118e-01 0.0000000000000000e+00  -1.7514458036833203e-01 -1.4455222359265360e-01 0.0000000000000000e+00  -2.6758499697603213e-02 -2.2114949546151616e-01 0.0000000000000000e+00  1.5130722486487192e-02 -2.2826678044294813e-01 0.0000000000000000e+00  1.0353332557862428e-01 -1.9965232436675001e-01 0.0000000000000000e+00  1.1610535191052468e-01 -1.9187305257286832e-01 0.0000000000000000e+00  2.2274277535528586e-01 2.0017042737142776e-02 0.0000000000000000e+00  4.4219169305552745e-02 -2.1919773733760964e-01 0.0000000000000000e+00  3.2152753919673545e-02 -2.2122679980269344e-01 0.0000000000000000e+00  2.3435731251889746e-02 -2.2234882743827183e-01 0.0000000000000000e+00  2.0137332418672389e-02 -2.2269463828447991e-01 0.0000000000000000e+00  2.1945815925754439e-02 -2.2252863546587603e-01 0.0000000000000000e+00  2.8277279264265195e-02 -2.2181752890426207e-01 0.0000000000000000e+00  3.7914922822884403e-02 -2.2038256009161430e-01 0.0000000000000000e+00  5.4890721107506667e-02 -2.1678163321372562e-01 0.0000000000000000e+00  7.5862583840631381e-02 -2.1037071824294823e-01 0.0000000000000000e+00  1.0119047731683724e-01 -1.9946677576228530e-01 0.0000000000000000e+00  1.2833921867089812e-01 -1.8323287529343144e-01 0.0000000000000000e+00  1.5918438981623181e-01 -1.5717967615371586e-01 0.0000000000000000e+00  1.8666426715766957e-01 -1.2328049910578216e-01 0.0000000000000000e+00  2.0864100641796401e-01 -8.0879634693641969e-02 0.0000000000000000e+00  2.2135643121115042e-01 -3.2686997459081435e-02 0.0000000000000000e+00  6.9229905664651856e-02 -2.1323848076810284e-01 0.0000000000000000e+00  2.1130050131714273e-01 7.3086870468291112e-02 0.0000000000000000e+00  1.8933130260495129e-01 1.1886644095425498e-01 0.0000000000000000e+00  1.6462311320158973e-01 1.5171358598590595e-01 0.0000000000000000e+00  1.2767716829892825e-01 1.8381312035934300e-01 0.0000000000000000e+00  1.0701421208298854e-01 1.9647347078161612e-01 0.0000000000000000e+00  8.3205289664858004e-02 2.0756788852116037e-01 0.0000000000000000e+00  6.3429409607789769e-02 2.1445044424883219e-01 0.0000000000000000e+00  4.4699530224680734e-02 2.1911716847439675e-01 0.0000000000000000e+00  3.7785440233096684e-02 2.2039717686465296e-01 0.0000000000000000e+00  3.1940660401462123e-02 2.2131571626850549e-01 0.0000000000000000e+00  2.9961732085584225e-02 2.2158849083743540e-01 0.0000000000000000e+00  3.2230371644471262e-02 2.2125495788982305e-01 0.0000000000000000e+00  3.8024362680481504e-02 2.2028742516696900e-01 0.0000000000000000e+00  4.9130243658802877e-02 2.1812504214534004e-01 0.0000000000000000e+00  7.2212366959589630e-02 2.1222463535516498e-01 0.0000000000000000e+00  1.0288297790661491e-01 1.9767847297379920e-01 0.0000000000000000e+00  6.3568453053156684e-02 2.1430282739390458e-01 0.0000000000000000e+00  3.2817577261652270e-02 2.2121903105553276e-01 0.0000000000000000e+00  3.0235642942225648e-02 2.2155309669745307e-01 0.0000000000000000e+00  4.1985185978710322e-02 2.1962385548905225e-01 0.0000000000000000e+00  7.2549124146072771e-02 2.1154407085180346e-01 0.0000000000000000e+00  1.2313138876831319e-01 1.8652883123092298e-01 0.0000000000000000e+00  1.7670688674274682e-01 1.3727333883812542e-01 0.0000000000000000e+00  2.1861171326266934e-01 4.8325672900477019e-02 0.0000000000000000e+00  2.1651397122733915e-01 -5.6036150237629506e-02 0.0000000000000000e+00  1.7337500545563506e-01 -1.4136796987427799e-01 0.0000000000000000e+00  1.1534354827056238e-01 -1.9157602658760134e-01 0.0000000000000000e+00  6.5029287904449007e-02 -2.1397332386547616e-01 0.0000000000000000e+00  3.3028230906264833e-02 -2.2115373465501600e-01 0.0000000000000000e+00  2.0252610974189816e-02 -2.2268870935470744e-01 0.0000000000000000e+00  2.6386753631574583e-02 -2.2208613082993570e-01 0.0000000000000000e+00  5.9251792071706888e-02 -2.1551717545945931e-01 0.0000000000000000e+00  4.3032904100840839e-02 2.1948213280043305e-01 0.0000000000000000e+00  2.9726234414730476e-02 2.2162963798097213e-01 0.0000000000000000e+00  3.4241974346286411e-02 2.2096965723020687e-01 0.0000000000000000e+00  5.1754300327493181e-02 2.1753084623656430e-01 0.0000000000000000e+00  9.5439305855092582e-02 2.0223731624466046e-01 0.0000000000000000e+00  1.3950976454037942e-01 1.7452778843987043e-01 0.0000000000000000e+00  2.0216241357902781e-01 9.6194748289935947e-02 0.0000000000000000e+00  2.2353523923137925e-01 -1.0398588102168066e-02 0.0000000000000000e+00  1.9884640629514652e-01 -1.0247798292819121e-01 0.0000000000000000e+00  1.4268064005376585e-01 -1.7221391886043891e-01 0.0000000000000000e+00  8.8289057844463462e-02 -2.0547369209423808e-01 0.0000000000000000e+00  4.4766366657197833e-02 -2.1909120424683431e-01 0.0000000000000000e+00  2.4629163698246519e-02 -2.2224709532888109e-01 0.0000000000000000e+00  1.9691714238937612e-02 -2.2275171640126259e-01 0.0000000000000000e+00  3.7781764750081645e-02 -2.2044165162399221e-01 0.0000000000000000e+00  -2.1535467729584959e-01 2.5622897582940306e-02 0.0000000000000000e+00  6.9710097786354910e-02 2.0632025499343667e-01 0.0000000000000000e+00  -3.3259701711568807e-02 2.2364431995373546e-01 0.0000000000000000e+00  -1.5753286249297291e-01 9.6599221477996669e-02 0.0000000000000000e+00  7.4849460203216714e-02 2.1109139202206972e-01 0.0000000000000000e+00  -2.4639586496498465e-02 2.1868324568272549e-01 0.0000000000000000e+00  -1.8046909107709183e-01 1.2454656093258001e-01 0.0000000000000000e+00  -2.1361226523009005e-01 5.5961753072094216e-02 0.0000000000000000e+00  1.1725980859347990e-01 1.9109031716224342e-01 0.0000000000000000e+00  1.0240548476073943e-01 1.9980378995071332e-01 0.0000000000000000e+00  2.0543665895044336e-02 2.2756516819195405e-01 0.0000000000000000e+00  -2.5186039713518966e-02 2.2052014128112774e-01 0.0000000000000000e+00  -1.7289314478160356e-01 1.4337975465112207e-01 0.0000000000000000e+00  -8.1954320644788761e-02 2.3403723952115507e-01 0.0000000000000000e+00  -2.3735124612653064e-01 9.7177846012773163e-03 0.0000000000000000e+00  -2.1405464750338962e-01 7.2508674284568961e-02 0.0000000000000000e+00  -2.2520721849747283e-01 -2.2095427560532416e-02 0.0000000000000000e+00  -2.2500563539867000e-01 2.3381444014111668e-02 0.0000000000000000e+00  -2.2306234456865412e-01 -1.5630885517596643e-02 0.0000000000000000e+00  -2.2204909248739113e-01 -2.6254005701172731e-02 0.0000000000000000e+00  -2.2164729396864688e-01 -2.9438802697362036e-02 0.0000000000000000e+00  -2.2242285669223918e-01 -2.2822399588895044e-02 0.0000000000000000e+00  -2.2349586701251439e-01 -6.9541023030662945e-03 0.0000000000000000e+00  -2.2348826591566018e-01 7.2072544009605249e-03 0.0000000000000000e+00  -2.2241259421419243e-01 2.2936347160713383e-02 0.0000000000000000e+00  -2.2161848142288723e-01 2.9663501786401536e-02 0.0000000000000000e+00  -2.2199094125403873e-01 2.6750796105865855e-02 0.0000000000000000e+00  -2.2301004302221494e-01 1.6494276566984167e-02 0.0000000000000000e+00  -2.1562017879590131e-01 -2.3434710290599244e-02 0.0000000000000000e+00  -2.2315766490773223e-01 -1.1726547015106238e-02 0.0000000000000000e+00  -2.2190329455142796e-01 -2.7619750665163336e-02 0.0000000000000000e+00  -2.2322343564121958e-01 -1.3645270413234991e-02 0.0000000000000000e+00  -2.2320706340344731e-01 1.3888315835923370e-02 0.0000000000000000e+00  -2.2185139531860443e-01 2.8025706515101317e-02 0.0000000000000000e+00  -2.2308079184457041e-01 1.2478685092188045e-02 0.0000000000000000e+00  -2.2238736232625519e-01 -2.3577747305694147e-02 0.0000000000000000e+00  -2.2151977009625179e-01 -3.0674444929897363e-02 0.0000000000000000e+00  -2.2362450343754631e-01 1.3965551870204901e-04 0.0000000000000000e+00  -2.2151599894301158e-01 3.0689654412253114e-02 0.0000000000000000e+00  -2.2230947049663252e-01 2.4268348465181621e-02 0.0000000000000000e+00  -1.5780245766459849e-01 -9.8146757202811546e-02 0.0000000000000000e+00  -3.1682584440983944e-02 -2.2349914908921750e-01 0.0000000000000000e+00  7.2547007335194397e-02 -2.0506879206362710e-01 0.0000000000000000e+00  -2.1368044924172358e-01 -5.5150312222328052e-02 0.0000000000000000e+00  -1.7883648671468660e-01 -1.2749837772802314e-01 0.0000000000000000e+00  -2.1661974172820050e-02 -2.1878095176829965e-01 0.0000000000000000e+00  8.1408751504333424e-02 -2.0831859658326515e-01 0.0000000000000000e+00  -2.1457941186978960e-01 -7.1429302964074279e-02 0.0000000000000000e+00  -2.3728542970959204e-01 -1.0904017877548570e-02 0.0000000000000000e+00  -8.2863742937252780e-02 -2.3264943797278650e-01 0.0000000000000000e+00  -1.7023321174286804e-01 -1.4683501290382639e-01 0.0000000000000000e+00  -2.3626541338417534e-02 -2.2090050252692528e-01 0.0000000000000000e+00  2.3518056236010693e-02 -2.2741602992408880e-01 0.0000000000000000e+00  1.0657729053005509e-01 -1.9783626844307808e-01 0.0000000000000000e+00  1.2204634041948172e-01 -1.8838130357738911e-01 0.0000000000000000e+00  1.2904517545803329e-01 1.8267236315179267e-01 0.0000000000000000e+00  1.2731688761537088e-01 1.8387708715473183e-01 0.0000000000000000e+00  2.1558636140616619e-01 -5.9571618805391496e-02 0.0000000000000000e+00  1.4703780426154618e-02 -2.2319907053205662e-01 0.0000000000000000e+00  5.8945127025040065e-03 -2.2360040502824613e-01 0.0000000000000000e+00  2.0844932987053225e-01 -8.1092971390775745e-02 0.0000000000000000e+00  -1.9534720708378378e-01 1.0896955073346190e-01 0.0000000000000000e+00  -1.9941641082999875e-01 1.0131567059671837e-01 0.0000000000000000e+00  -1.9876670447893036e-01 -1.0257612461553493e-01 0.0000000000000000e+00  -2.0275612860517364e-01 -9.4441537942123510e-02 0.0000000000000000e+00  -7.5910999824364639e-02 -2.1043464777276114e-01 0.0000000000000000e+00  -1.6658204257645129e-01 -1.4939224041301533e-01 0.0000000000000000e+00  -9.8570435586084207e-02 -2.0110768080230970e-01 0.0000000000000000e+00  -2.2140465599238596e-01 3.3128101081122054e-02 0.0000000000000000e+00  -2.0833411720333039e-01 8.3473739211442174e-02 0.0000000000000000e+00  -2.2350151386013647e-01 9.4617379361427601e-03 0.0000000000000000e+00  4.8525419111248989e-02 -2.1889322378279760e-01 0.0000000000000000e+00  -5.4976714414553603e-02 2.1956599266394911e-01 0.0000000000000000e+00  2.1897957330569193e-01 -4.6917819199552929e-02 0.0000000000000000e+00  1.6218833879590575e-01 -1.5675596521683652e-01 0.0000000000000000e+00  4.2073289107934363e-02 2.2049228025093964e-01 0.0000000000000000e+00  -6.8062655826431798e-02 -2.1394739873243904e-01 0.0000000000000000e+00  -2.1736041420592228e-01 5.4520530351933480e-02 0.0000000000000000e+00  -6.6466337183287719e-02 -2.1360550529186673e-01 0.0000000000000000e+00  -1.6052946487714712e-01 -1.5586846044930899e-01 0.0000000000000000e+00  -2.2368204557176546e-01 -2.6268054393159689e-03 0.0000000000000000e+00  -1.5498409475046526e-01 1.6140900590037080e-01 0.0000000000000000e+00  -4.5676269858886537e-02 2.1899339985881267e-01 0.0000000000000000e+00  2.1272885686755677e-01 6.9107373642344733e-02 0.0000000000000000e+00  -6.4464521331493371e-02 2.1421471598520919e-01 0.0000000000000000e+00  2.1740622727170568e-02 2.2260898852353300e-01 0.0000000000000000e+00  1.1580162514342740e-01 -1.9135736551031224e-01 0.0000000000000000e+00  -5.1578666337092065e-02 2.1782606893184872e-01 0.0000000000000000e+00  2.0687042806505723e-01 8.5020045715285972e-02 0.0000000000000000e+00  1.2816250319912498e-01 -1.8334200235118420e-01 0.0000000000000000e+00  -1.3996957109570596e-01 1.7458690062247403e-01 0.0000000000000000e+00  -1.0340821902265698e-01 -1.9861460065338807e-01 0.0000000000000000e+00  -2.2342255753643095e-01 1.4184229327877841e-02 0.0000000000000000e+00  3.2989804924991338e-02 2.2121490925699358e-01 0.0000000000000000e+00  -1.2042735430075233e-01 1.8848272921488715e-01 0.0000000000000000e+00  9.9342692876135244e-02 2.005967901776572