<?xml version="1.0"?>
<VTKFile type="UnstructuredGrid"  version="0.1"  >
<UnstructuredGrid>
<Piece  NumberOfPoints="4153" NumberOfCells="8064">
<Points>
<DataArray  type="Float64"  NumberOfComponents="3"  format="ascii">-0.3913179581753189 -0.6395051161811333 0  -0.007525290963527997 -0.8091330959848908 0  -0.06193612356545004 -0.8043464893018712 0  -0.1152686887898575 -0.7936130543993061 0  -0.1669589897491683 -0.7775712039326771 0  -0.2168909902407385 -0.7576510226865656 0  -0.2644516447903786 -0.7324396525649383 0  -0.309299339285703 -0.7037098184723072 0  -0.3514727365810341 -0.6724577269473269 0  0.0471877501088051 -0.8076209452388139 0  -0.4286966351883205 -0.6064121056961954 0  -0.4642191087538235 -0.5732621738909592 0  -0.49795502243081 -0.5403639263413275 0  -0.5301686334848964 -0.5082195251696334 0  -0.5612126665616844 -0.4774304265533295 0  -0.5913935036972858 -0.4483847144555383 0  -0.6208451783797505 -0.4218773475765915 0  0.6584096339202981 -0.4073447563193426 0  0.1013677342394595 -0.7998721712920297 0  0.1542103140211185 -0.7862006090182588 0  0.205025761647234 -0.7672265117177297 0  0.2532772098586201 -0.743668219816901 0  0.2987826718210541 -0.7168238419010052 0  0.3415240211087401 -0.6874997935816873 0  0.3816460796395257 -0.6565422906118155 0  0.4193332133676971 -0.6246084971286295 0  0.4550404944899833 -0.5925332020598133 0  0.4890688552561849 -0.5607182183181193 0  0.5217447172495412 -0.5295471681753123 0  0.5533154361286958 -0.4993516657832585 0  0.5840995103931472 -0.4703962617279143 0  0.6142600810211393 -0.4431060218765658 0  0.6440441612383219 -0.4182918578648785 0  0.6289463263704913 -0.4305834783373676 0  -0.6059273189049263 -0.4349213945563015 0  -0.5457921477630457 -0.4927439562812482 0  -0.481287935820997 -0.5567602510749882 0  -0.4102223298762555 -0.6229512766247357 0  -0.3307412703895251 -0.6882512340494816 0  -0.2409891472793134 -0.7455567376014082 0  -0.1413428360039813 -0.7863190504034818 0  -0.03482097297101804 -0.8075179223030762 0  0.5991793284327106 -0.4567196445714687 0  0.1799063626571943 -0.777315358554507 0  0.2763818901618423 -0.7306197925916482 0  0.3618863225951466 -0.6721737041609419 0  0.4374208289852465 -0.6085766580631901 0  0.5055502498299665 -0.5450516360848973 0  0.568806494889356 -0.4848167903285107 0  0.0743961058523558 -0.804512883625625 0  -0.634990445391259 -0.410114718209821 0  0.5376497840068037 -0.5143255997710791 0  0.472240901622007 -0.5765784923454319 0  0.4007785750163147 -0.6406305175568368 0  0.3204923522977004 -0.7024269197968648 0  0.2295079222501686 -0.7559574493620733 0  0.1280028948100308 -0.7937429053254469 0  0.0198465444870932 -0.8091706032863506 0  -0.08878001951137281 -0.7997155102021229 0  -0.1920219273625989 -0.7680365301883336 0  -0.2871429833737711 -0.7182781829260597 0  -0.3720079214393889 -0.6566088096952152 0  -0.4466975257467201 -0.5898514850101743 0  -0.5142597853885039 -0.5242114173536006 0  -0.5763097211412676 -0.4628364975541169 0  0.7768186341870059 -0.2195870203758774 0  0.7048903348311008 -0.3747931860835634 0  0.745321405839623 -0.3319184324818602 0  0.770650079203587 -0.2793251745050144 0  0.682184955844361 -0.3916100093764344 0  0.7262490019804203 -0.3546935980062455 0  0.7560348213587096 -0.3040955044729572 0  0.7725270771525532 -0.2490505897964755 0  0.6702107051038213 -0.3998420788462913 0  0.6935088202545825 -0.3824126027394275 0  0.7157129632938602 -0.3649206335464513 0  0.7354839611452342 -0.3424784997807535 0  0.7533252333799976 -0.3193506594836892 0  0.7624005981879062 -0.2915092208274354 0  0.7704401799249976 -0.2639118890724192 0  0.7740015472024616 -0.2341641898344103 0  0.7761828251192913 -0.2003294102804793 0  0.7778222956273685 0.2310441302594452 0  0.7785089130179048 0.1928935994397677 0  0.7805682142166288 0.1543306156339671 0  0.7830284989500559 0.1152582452208384 0  0.7856319429208427 0.07561118160061005 0  0.7867661596775247 0.03549701096350598 0  0.78655270936405 -0.00473479262788103 0  0.7849893459435027 -0.04484322240679719 0  0.7820379082132993 -0.08446969931243666 0  0.7792810483814732 -0.1235496854071314 0  0.7769771924881327 -0.1621298280766094 0  0.77884323940031 0.2502081688887422 0  0.7779443315996024 0.2120090168044428 0  0.7817917258046566 0.1348615395450597 0  0.7863659374551515 0.05558522188109438 0  0.7859433692255317 -0.0248204035864613 0  0.7806551434218003 -0.1040789208805131 0  0.7763502069266274 -0.1812699223856773 0  0.7794629176464346 0.173673104793657 0  0.7844103293958118 0.09553188619821457 0  0.7868226008912798 0.01538092488141706 0  0.7835661322393073 -0.06475110451448905 0  0.778048694187917 -0.1429010369083511 0  0.6648449423546878 0.439201693061429 0  0.7735929451355301 0.3099551811573162 0  0.7492640322736623 0.3630593721718668 0  0.7101008323670368 0.4064214692720795 0  0.775180967768988 0.2796933724546904 0  0.7599254224192921 0.3352929757688428 0  0.7307974802210452 0.3859202840262498 0  0.6878289656331389 0.4231661890621924 0  0.7764716859817694 0.2648413281714664 0  0.7734954181180274 0.2945911773606446 0  0.7659538070212444 0.3224118572391061 0  0.75664074239581 0.3501818600749571 0  0.7397021897488175 0.373664808366269 0  0.7205689264432682 0.396297652591968 0  0.6989179391766934 0.4140763554329353 0  0.676181195685028 0.4313956413722287 0  -0.007270861080349363 0.8697460279302961 0  0.6224969155995959 0.4765605378151161 0  0.5935848957826719 0.5051923497462287 0  0.5640882132929187 0.535784799379934 0  0.5337101169273756 0.5680296824816365 0  0.5020316135348013 0.6014217900941307 0  0.4687329041508576 0.6355957040193043 0  0.4334699988085492 0.670166815057871 0  0.3958454940528098 0.7047355033548018 0  0.3553693590928556 0.7382738041576 0  0.3118327188474944 0.7700750945701521 0  0.2650857334224645 0.7991918973565355 0  0.2151640357758033 0.8247921502466824 0  0.1622878266167377 0.8453568691267168 0  0.1070550326130887 0.8600639532245662 0  0.05025418560044484 0.8681970827398043 0  0.6510158375661547 0.4506272492165051 0  -0.0644296526904017 0.8636461006403617 0  -0.120195083542239 0.8508273887028679 0  -0.1737678615598773 0.8319802151362118 0  -0.2244280525944007 0.8073099073809351 0  -0.2723489485108985 0.7801151367156709 0  -0.3172484120195293 0.7498557217954331 0  -0.3592722300761041 0.7175167810133113 0  -0.3985914977101036 0.6837195562872035 0  -0.4355183247336804 0.6497318438417089 0  -0.4704806512266552 0.615881895068577 0  -0.5037364181304576 0.5825539669786477 0  -0.5355599106631141 0.5501292341135864 0  -0.5662205484435192 0.5189579348630309 0  -0.5959730885487705 0.4895814642296553 0  -0.6250803754757966 0.4628453930804637 0  -0.639056827732208 0.4510658307915341 0  -0.6103499115009501 0.4760454785763404 0  -0.5510294070866182 0.5344678139388056 0  -0.4873072848672271 0.5991429160864296 0  -0.4173056050257665 0.6667225330947244 0  -0.338601758164011 0.733851105747082 0  -0.2487605212319595 0.7941674636572479 0  -0.1472814316847345 0.8419478328788601 0  -0.03595313707393354 0.867540282312833 0  0.07880625878638697 0.8650197963758368 0  0.1890649254590028 0.8357272805852348 0  0.2888657464122978 0.7850368703372902 0  0.3759648126903744 0.7216507195259458 0  0.4513705101589083 0.6528612982294033 0  0.5180517676217552 0.5846152113093064 0  0.5789098696594543 0.520369195954923 0  0.6365502712943035 0.4633661249507083 0  -0.581127682818519 0.5042010079474578 0  -0.5198164190718991 0.5662441037800834 0  -0.4532338605445109 0.6327728235055211 0  -0.3793240081744983 0.7008047545071537 0  -0.2951568153569387 0.7652703979216307 0  -0.1997335888602965 0.820654617434454 0  -0.09252904257774533 0.8579867350863011 0  0.02156334022633545 0.8698436053783033 0  0.1349228292269322 0.8534909672981289 0  0.2405474719460167 0.8125839889635748 0  0.3339951281883838 0.7544490284862201 0  0.4150117942511236 0.687526872255232 0  0.4856051017513023 0.6184391606270387 0  0.549054742701734 0.551773482320385 0  0.6080216432178022 0.4907704483083857 0  -0.7551654026914227 0.2585455204936035 0  -0.6845619801550861 0.4167658660982051 0  -0.7240746622034565 0.3725772248342376 0  -0.748911828802317 0.3189101344186526 0  -0.6622564180194628 0.4341780885989041 0  -0.7054230569603713 0.3957781248021691 0  -0.7348550215653684 0.3444413903303327 0  -0.7509089688502437 0.288363117064324 0  -0.6505270958791981 0.4428882968657389 0  -0.6733738263649927 0.424720017190563 0  -0.6951322139333235 0.4064030572510607 0  -0.7144261373734956 0.3833417044999128 0  -0.7315829600579334 0.3595212916256328 0  -0.7410455427054667 0.3314626316602747 0  -0.7489455534691759 0.3034048292997422 0  -0.7524640477751717 0.2733411826349618 0  -0.7545578891264308 0.2391025198924118 0  -0.7530910359841756 -0.2003314368022255 0  -0.7545836465801342 -0.1616595167966573 0  -0.7574104735742802 -0.1224711371934907 0  -0.7605295555606816 -0.08268051663948545 0  -0.763630328132743 -0.04227371196573746 0  -0.7652390238247372 -0.001360863002060247 0  -0.7654133127486249 0.03969702049145615 0  -0.7641567517477811 0.08064280287820005 0  -0.7613891411324736 0.121125053114838 0  -0.7585397661459267 0.1610116494889939 0  -0.7559216627895834 0.2003150320815553 0  -0.7535808532680279 -0.2197458185841254 0  -0.7536254354645386 -0.1810552759025617 0  -0.7589845358760479 -0.1026546836200634 0  -0.7646147796424116 -0.02185243006439175 0  -0.764962961258656 0.06020100854623132 0  -0.759981984075339 0.1411427319830692 0  -0.7550332415825809 0.2197653980563561 0  -0.7559302606309241 -0.1421406407746226 0  -0.7621610183865866 -0.06257572188629622 0  -0.7655007977276106 0.01916610796683269 0  -0.7628679537718069 0.1009777267880473 0  -0.7571733917939233 0.1807360954543853 0  -0.7467021977486531 -0.2798684961155759 0  -0.7210861556205822 -0.3329761164182238 0  -0.6809427527314823 -0.3765125447274696 0  -0.7490555922311147 -0.2494624934877676 0  -0.7322853049310404 -0.3051553326985514 0  -0.7021564478093957 -0.3559818921227637 0  -0.6583634353333623 -0.3936368590846474 0  -0.7507241744731266 -0.2344805313440868 0  -0.7469037285953704 -0.2
[...]
<PointData  Vectors="f_12710"> 
<DataArray  type="Float64"  Name="f_12710"  NumberOfComponents="3" format="ascii">7.4526354495703528e-01 -6.6711026709681942e-01 0.0000000000000000e+00  9.9975771666570146e-01 -3.0211119842474994e-02 0.0000000000000000e+00  9.8994166644947723e-01 -1.4297370141661314e-01 0.0000000000000000e+00  9.6932803151903479e-01 -2.4653474710638840e-01 0.0000000000000000e+00  9.3937752294433285e-01 -3.4333830791649228e-01 0.0000000000000000e+00  9.0941805124902253e-01 -4.1649934931200577e-01 0.0000000000000000e+00  8.6015478657167255e-01 -5.1051155135405812e-01 0.0000000000000000e+00  8.2497132815825569e-01 -5.6548084411237354e-01 0.0000000000000000e+00  7.9790204918113916e-01 -6.0287303868366382e-01 0.0000000000000000e+00  9.9656538119186300e-01 8.5232636686370905e-02 0.0000000000000000e+00  7.4007088389256093e-01 -6.7260251275669114e-01 0.0000000000000000e+00  7.2226250913132883e-01 -6.9165936227841063e-01 0.0000000000000000e+00  7.1190085155508986e-01 -7.0229048339498779e-01 0.0000000000000000e+00  7.0760438837574957e-01 -7.0660872898412075e-01 0.0000000000000000e+00  7.1367266410512242e-01 -7.0048789910396814e-01 0.0000000000000000e+00  7.2540542179355005e-01 -6.8836197629725404e-01 0.0000000000000000e+00  7.5765136640040576e-01 -6.5289600962562511e-01 0.0000000000000000e+00  8.2063955633268204e-01 5.7270938087404244e-01 0.0000000000000000e+00  9.8054912045159848e-01 1.9727623398725241e-01 0.0000000000000000e+00  9.5340266156764364e-01 3.0231417954331347e-01 0.0000000000000000e+00  9.1862998510893201e-01 3.9557335512436531e-01 0.0000000000000000e+00  8.7951281622385202e-01 4.7617447482093234e-01 0.0000000000000000e+00  8.4231565463330260e-01 5.3922492678360701e-01 0.0000000000000000e+00  8.0692218552990425e-01 5.9084006667058675e-01 0.0000000000000000e+00  7.7649899108203047e-01 6.3025508907810723e-01 0.0000000000000000e+00  7.5250832802538858e-01 6.5866177870161846e-01 0.0000000000000000e+00  7.3597333732502002e-01 6.7705927221565465e-01 0.0000000000000000e+00  7.2604133858021935e-01 6.8767027433209249e-01 0.0000000000000000e+00  7.2234035120681639e-01 6.9154032467259940e-01 0.0000000000000000e+00  7.2679063591232707e-01 6.8686489150086794e-01 0.0000000000000000e+00  7.3394726304831093e-01 6.7923083851752886e-01 0.0000000000000000e+00  7.4949316349642736e-01 6.6209197603546877e-01 0.0000000000000000e+00  7.8053413500819480e-01 6.2543470284813074e-01 0.0000000000000000e+00  7.6995055717992056e-01 6.3835923823203888e-01 0.0000000000000000e+00  7.4415839545573415e-01 -6.6816531486606545e-01 0.0000000000000000e+00  7.0971209335401197e-01 -7.0449311974972828e-01 0.0000000000000000e+00  7.1535768884812223e-01 -6.9878549727757155e-01 0.0000000000000000e+00  7.5177989014663971e-01 -6.5943155267134634e-01 0.0000000000000000e+00  7.9951042888317370e-01 -6.0110783927829448e-01 0.0000000000000000e+00  8.8265705273423778e-01 -4.7067017855197923e-01 0.0000000000000000e+00  9.5509577987782412e-01 -2.9703321252946990e-01 0.0000000000000000e+00  9.9632359761509715e-01 -8.8128051639321414e-02 0.0000000000000000e+00  7.4141865278365082e-01 6.7108687584914983e-01 0.0000000000000000e+00  9.3687658536827845e-01 3.5015700602759303e-01 0.0000000000000000e+00  8.6133846169667372e-01 5.0828913136589438e-01 0.0000000000000000e+00  7.9167186548377189e-01 6.1109074195079638e-01 0.0000000000000000e+00  7.4376189970340323e-01 6.6850736573872305e-01 0.0000000000000000e+00  7.2326187818630616e-01 6.9058404318215627e-01 0.0000000000000000e+00  7.2744000480767568e-01 6.8617572750652400e-01 0.0000000000000000e+00  9.9011741264027853e-01 1.4167909687900201e-01 0.0000000000000000e+00  7.9049930440646410e-01 -6.1321818054105359e-01 0.0000000000000000e+00  7.2173182119944723e-01 6.9217600967662540e-01 0.0000000000000000e+00  7.3018932867979036e-01 6.8327675526478182e-01 0.0000000000000000e+00  7.6213493187623504e-01 6.4754316772362641e-01 0.0000000000000000e+00  8.2447022690866023e-01 5.6610820536879736e-01 0.0000000000000000e+00  8.9813352693045412e-01 4.4013045299710840e-01 0.0000000000000000e+00  9.6825568077036528e-01 2.5073120144846067e-01 0.0000000000000000e+00  9.9983119950531729e-01 2.7665395455878063e-02 0.0000000000000000e+00  9.8031116630141824e-01 -1.9851109378636678e-01 0.0000000000000000e+00  9.3081923073420314e-01 -3.6575537217967119e-01 0.0000000000000000e+00  8.4176275066513573e-01 -5.4019276210095912e-01 0.0000000000000000e+00  7.6999976393786063e-01 -6.3840418925523945e-01 0.0000000000000000e+00  7.3104261653377089e-01 -6.8237746005643840e-01 0.0000000000000000e+00  7.0691828398823819e-01 -7.0730711889873554e-01 0.0000000000000000e+00  7.2103441712157468e-01 -6.9292762948251041e-01 0.0000000000000000e+00  7.0191758142343422e-02 1.1885188681828984e+00 0.0000000000000000e+00  7.9381266202432321e-01 6.1028424547711213e-01 0.0000000000000000e+00  6.7194303958557478e-01 7.5372203828586137e-01 0.0000000000000000e+00  2.6140469016918871e-01 9.6935246984454482e-01 0.0000000000000000e+00  7.8547046283359045e-01 6.1923889282681577e-01 0.0000000000000000e+00  6.5016492465337428e-01 7.6067473036575162e-01 0.0000000000000000e+00  2.3187799006270235e-01 9.7888998981721553e-01 0.0000000000000000e+00  1.3737016982433967e-01 9.8891441662125057e-01 0.0000000000000000e+00  8.5023620113957121e-01 5.3021227225260603e-01 0.0000000000000000e+00  8.1136325488837291e-01 5.8612763332386097e-01 0.0000000000000000e+00  7.3084831461280941e-01 6.8438449225165321e-01 0.0000000000000000e+00  6.3300083233836524e-01 7.7225440913803300e-01 0.0000000000000000e+00  3.1629271359853661e-01 9.5716978902938410e-01 0.0000000000000000e+00  6.2404804459463770e-01 8.0609377047379305e-01 0.0000000000000000e+00  4.1962427938149424e-05 1.0086372790280265e+00 0.0000000000000000e+00  1.6331148034955184e-01 9.7277985258604505e-01 0.0000000000000000e+00  -1.9313019059259647e-02 -5.0260890423549442e-01 0.0000000000000000e+00  -1.0868380436868596e-02 1.0585062834228003e+00 0.0000000000000000e+00  3.7924333980076899e-02 -1.0016960893291089e+00 0.0000000000000000e+00  6.0342466208405873e-02 -9.9861096890192824e-01 0.0000000000000000e+00  6.6690273492314170e-02 -9.9729996886756267e-01 0.0000000000000000e+00  4.9282712152753684e-02 -1.0000094274561580e+00 0.0000000000000000e+00  1.0911365369916867e-02 -1.4142825174553997e+00 0.0000000000000000e+00  2.2411833603633944e-02 8.9938291246253943e-01 0.0000000000000000e+00  6.0190113708405865e-02 9.9505739383247449e-01 0.0000000000000000e+00  7.3661394070492006e-02 9.9737154364470459e-01 0.0000000000000000e+00  6.7457929853409676e-02 9.9814288435867649e-01 0.0000000000000000e+00  4.3078058786876795e-02 9.9986465413547554e-01 0.0000000000000000e+00  3.9074549933687586e-02 -1.1602455622783225e+00 0.0000000000000000e+00  2.8072964558684688e-02 -1.0452406706028361e+00 0.0000000000000000e+00  6.2500381707412705e-02 -9.9807524868934649e-01 0.0000000000000000e+00  2.7111584601864070e-02 -9.4009402241790629e-01 0.0000000000000000e+00  3.7864086477607424e-02 1.0236976239661963e+00 0.0000000000000000e+00  7.0268464392840749e-02 9.9745810229163556e-01 0.0000000000000000e+00  2.9897921839431931e-02 1.0526051963058347e+00 0.0000000000000000e+00  5.5470791103114939e-02 -9.9660632483660461e-01 0.0000000000000000e+00  6.9315339108059856e-02 -9.9913102440513690e-01 0.0000000000000000e+00  2.7305699190720242e-03 1.0976053498154059e+00 0.0000000000000000e+00  7.7964584966963693e-02 9.9699223426342531e-01 0.0000000000000000e+00  6.1800078076738353e-02 9.9650488844210550e-01 0.0000000000000000e+00  7.9610183299001103e-01 -6.0624291583736556e-01 0.0000000000000000e+00  2.4992905367357582e-01 -9.7217778427830626e-01 0.0000000000000000e+00  6.3745445942568513e-01 -7.8001428742443712e-01 0.0000000000000000e+00  7.8003318765434582e-01 -6.2790534851878987e-01 0.0000000000000000e+00  1.1486227080799906e-01 -9.9057106054970401e-01 0.0000000000000000e+00  2.5490091946958393e-01 -9.7078331579247157e-01 0.0000000000000000e+00  6.3375382193522045e-01 -7.7413668923467016e-01 0.0000000000000000e+00  7.8180461339927887e-01 -6.2373653442316335e-01 0.0000000000000000e+00  1.4509363756740304e-01 -9.8306925902537967e-01 0.0000000000000000e+00  -6.9240829257064367e-03 -1.0079724421094007e+00 0.0000000000000000e+00  5.7545416584311893e-01 -8.3478892354547352e-01 0.0000000000000000e+00  3.1693816621461274e-01 -9.5564927826581114e-01 0.0000000000000000e+00  6.2535495092972160e-01 -7.7929448363480569e-01 0.0000000000000000e+00  7.1171349573747966e-01 -7.0418391556500004e-01 0.0000000000000000e+00  8.0938854028945206e-01 -5.8955821428391153e-01 0.0000000000000000e+00  8.3666257548076906e-01 -5.5140912156596700e-01 0.0000000000000000e+00  9.9948033608915932e-01 4.0654057760564258e-02 0.0000000000000000e+00  7.1900047403342715e-01 -6.9507656487083569e-01 0.0000000000000000e+00  7.0072809848037931e-01 -7.1344724175380747e-01 0.0000000000000000e+00  6.8891584686220086e-01 -7.2484363986188771e-01 0.0000000000000000e+00  6.8657798043187912e-01 -7.2706520619150017e-01 0.0000000000000000e+00  6.9206394519422021e-01 -7.2187177486284182e-01 0.0000000000000000e+00  7.0483320417453654e-01 -7.0944603035619758e-01 0.0000000000000000e+00  7.2325399949584901e-01 -6.9070213699429173e-01 0.0000000000000000e+00  7.5310541295310029e-01 -6.5807806619230802e-01 0.0000000000000000e+00  7.8752288139778426e-01 -6.1652658771796831e-01 0.0000000000000000e+00  8.2739345688946253e-01 -5.6193327790872860e-01 0.0000000000000000e+00  8.6833476076956639e-01 -4.9634087048012943e-01 0.0000000000000000e+00  9.1247152312464963e-01 -4.0967966947823015e-01 0.0000000000000000e+00  9.5018701593183308e-01 -3.1242891906879533e-01 0.0000000000000000e+00  9.7959623363501391e-01 -2.0215778913815918e-01 0.0000000000000000e+00  9.9671891509758004e-01 -8.3190252658070812e-02 0.0000000000000000e+00  7.5686823228074684e-01 -6.5389792290828896e-01 0.0000000000000000e+00  9.8620181709744181e-01 1.6696689330322173e-01 0.0000000000000000e+00  9.5972604892836821e-01 2.8190936810336709e-01 0.0000000000000000e+00  9.2959210143140902e-01 3.6925968693041528e-01 0.0000000000000000e+00  8.7737579374229047e-01 4.8018363855277113e-01 0.0000000000000000e+00  8.4737157578856737e-01 5.3141394598038816e-01 0.0000000000000000e+00  8.1004944623331554e-01 5.8660512002819321e-01 0.0000000000000000e+00  7.7736604753676608e-01 6.2920011432286549e-01 0.0000000000000000e+00  7.4300753663278407e-01 6.6940710452871954e-01 0.0000000000000000e+00  7.2664462876315583e-01 6.8707363414672218e-01 0.0000000000000000e+00  7.1157684734345739e-01 7.0263697651407186e-01 0.0000000000000000e+00  7.0292287863634906e-01 7.1127344107755874e-01 0.0000000000000000e+00  7.0111184646652092e-01 7.1305081695233696e-01 0.0000000000000000e+00  7.0470505195829647e-01 7.0950892817224087e-01 0.0000000000000000e+00  7.1800801576515572e-01 6.9608256898545551e-01 0.0000000000000000e+00  7.5033893265247431e-01 6.6131028664197922e-01 0.0000000000000000e+00  7.8913662860087341e-01 6.1515927920580482e-01 0.0000000000000000e+00  7.3761709280686938e-01 6.7539132432962889e-01 0.0000000000000000e+00  7.0041536383046366e-01 7.1373618055499011e-01 0.0000000000000000e+00  7.0587490365010819e-01 7.0835655932344654e-01 0.0000000000000000e+00  7.3625498417955326e-01 6.7676382045507266e-01 0.0000000000000000e+00  7.9185633583281512e-01 6.1090964512062429e-01 0.0000000000000000e+00  8.7325012168636573e-01 4.8742972971432164e-01 0.0000000000000000e+00  9.4244112786259393e-01 3.3497957560459385e-01 0.0000000000000000e+00  9.9450719319197134e-01 1.0721387870997555e-01 0.0000000000000000e+00  9.9021680353088171e-01 -1.4122043335053408e-01 0.0000000000000000e+00  9.3197540917417887e-01 -3.6311714249626087e-01 0.0000000000000000e+00  8.4913541272704995e-01 -5.2848048411071713e-01 0.0000000000000000e+00  7.6981284502289382e-01 -6.3846749746769704e-01 0.0000000000000000e+00  7.1409168269594003e-01 -7.0013802664714586e-01 0.0000000000000000e+00  6.8771295078664141e-01 -7.2600808941440753e-01 0.0000000000000000e+00  6.9374703590356224e-01 -7.2022474565836903e-01 0.0000000000000000e+00  7.4080808526108699e-01 -6.7193708004731045e-01 0.0000000000000000e+00  7.1172059140997290e-01 7.0248760176746650e-01 0.0000000000000000e+00  6.9967808440025381e-01 7.1446375944911711e-01 0.0000000000000000e+00  7.1809261395338131e-01 6.9599225831356537e-01 0.0000000000000000e+00  7.5737671321060285e-01 6.5318181038726886e-01 0.0000000000000000e+00  8.2943256708300861e-01 5.5883434879668381e-01 0.0000000000000000e+00  8.9649463497905069e-01 4.4428394087893963e-01 0.0000000000000000e+00  9.7490129018503913e-01 2.2375197076786360e-01 0.0000000000000000e+00  9.9981496476256748e-01 -2.9750471865980409e-02 0.0000000000000000e+00  9.6657911436746469e-01 -2.5723714800571990e-01 0.0000000000000000e+00  8.8927392751517387e-01 -4.5791372708250283e-01 0.0000000000000000e+00  8.0744393644809798e-01 -5.9020276322289345e-01 0.0000000000000000e+00  7.3545545074326157e-01 -6.7775769534037777e-01 0.0000000000000000e+00  6.9758825497676147e-01 -7.1655094292745614e-01 0.0000000000000000e+00  6.8472119386979247e-01 -7.2881541759420954e-01 0.0000000000000000e+00  7.1089549162480747e-01 -7.0334156118682611e-01 0.0000000000000000e+00  6.3950824552686886e-02 1.1125828547138887e+00 0.0000000000000000e+00  7.7251899281266467e-01 6.3694619736533464e-01 0.0000000000000000e+00  6.3732855636062258e-01 7.8015196741908632e-01 0.0000000000000000e+00  2.5807194505656206e-01 9.7002215607900122e-01 0.0000000000000000e+00  7.6847382708575696e-01 6.4008096124249181e-01 0.0000000000000000e+00  6.2966879780001606e-01 7.7745630027873935e-01 0.0000000000000000e+00  2.5540467893840024e-01 9.7083474751168042e-01 0.0000000000000000e+00  1.3229579585852627e-01 9.8973347352503749e-01 0.0000000000000000e+00  8.2410605782523538e-01 5.6942872876353068e-01 0.0000000000000000e+00  7.9794519532610442e-01 6.0461125257455339e-01 0.0000000000000000e+00  7.0636667551339927e-01 7.0943044886693485e-01 0.0000000000000000e+00  6.2363983491140562e-01 7.8056976951913715e-01 0.0000000000000000e+00  3.1574584673663775e-01 9.5613299547164743e-01 0.0000000000000000e+00  5.8431363043791229e-01 8.2921619534981938e-01 0.0000000000000000e+00  5.9440192693024935e-03 1.0075642634976949e+00 0.0000000000000000e+00  1.6219372347889835e-01 9.8025811153144105e-01 0.0000000000000000e+00  -2.0968358362883476e-02 -2.8264739623793441e-02 0.0000000000000000e+00  -2.1036449012934774e-02 -2.2175084658961441e-01 0.0000000000000000e+00  5.7517204756052216e-02 -9.9541521731323279e-01 0.0000000000000000e+00  7.7630281037072396e-02 -9.9727033172036106e-01 0.0000000000000000e+00  7.9031312097508064e-02 -9.9693920088488508e-01 0.0000000000000000e+00  6.0683561992529528e-02 -9.9342810117251679e-01 0.0000000000000000e+00  2.2332474510754655e-02 -9.2389425352632482e-01 0.0000000000000000e+00  1.3121544276106489e-02 1.3480704666141583e+00 0.0000000000000000e+00  5.1726053725919471e-02 9.9669051339134873e-01 0.0000000000000000e+00  7.1861828991935661e-02 9.9701712755727878e-01 0.0000000000000000e+00  7.1198529153664494e-02 9.9783212355180606e-01 0.0000000000000000e+00  5.3130713721132102e-02 9.9331142042140497e-01 0.0000000000000000e+00  7.3554773613299276e-02 -1.0987142130457590e+00 0.0000000000000000e+00  4.9911904877319439e-02 -1.0573045160125176e+00 0.0000000000000000e+00  7.8055163436816649e-02 -9.9688117203106485e-01 0.0000000000000000e+00  3.8275407841707750e-02 -1.0268929711894799e+00 0.0000000000000000e+00  2.9620913241984993e-02 9.6069421378826936e-01 0.0000000000000000e+00  7.1117736114004612e-02 9.9746179608885399e-01 0.0000000000000000e+00  4.6494661916797908e-02 1.0856973089639244e+00 0.0000000000000000e+00  7.4134506952714729e-02 -9.9652603791338235e-01 0.0000000000000000e+00  7.9862213020388942e-02 -9.9709323741632239e-01 0.0000000000000000e+00  1.5075015775986968e-03 -7.9421904356807793e-01 0.0000000000000000e+00  7.1438533100344301e-02 9.9907462464691887e-01 0.0000000000000000e+00  6.8626436452978515e-02 9.9679147531404289e-01 0.0000000000000000e+00  2.7117606684679990e-01 -9.6645763063645085e-01 0.0000000000000000e+00  6.5385240840322334e-01 -7.6677085560118097e-01 0.0000000000000000e+00  7.8211880069383666e-01 -6.2504525486233420e-01 0.0000000000000000e+00  1.4238588754755260e-01 -9.8860627396196255e-01 0.0000000000000000e+00  2.6119310969119147e-01 -9.6984915893856327e-01 0.0000000000000000e+00  6.4365368980826387e-01 -7.6602180467551717e-01 0.0000000000000000e+00  7.8325863383228744e-01 -6.2188581976157964e-01 0.0000000000000000e+00  1.7118179296486799e-01 -9.7903976216969524e-01 0.0000000000000000e+00  1.8213498928995941e-02 -1.0073223456555715e+00 0.0000000000000000e+00  5.9868241663460864e-01 -8.1959867843897871e-01 0.0000000000000000e+00  3.3341493464604638e-01 -9.4995553357659446e-01 0.0000000000000000e+00  6.2921352017180521e-01 -7.7591410087809920e-01 0.0000000000000000e+00  7.2093940868365358e-01 -6.9468674077588921e-01 0.0000000000000000e+00  8.0457868075707195e-01 -5.9556116776190438e-01 0.0000000000000000e+00  8.3329910468384094e-01 -5.5608277375231430e-01 0.0000000000000000e+00  8.8721107336724814e-01 4.6155826642118608e-01 0.0000000000000000e+00  8.7300452031613174e-01 4.8786267147442147e-01 0.0000000000000000e+00  9.9274982528466793e-01 -1.2112555380414429e-01 0.0000000000000000e+00  7.2900013638133176e-01 -6.8465225932249296e-01 0.0000000000000000e+00  7.0633733994947101e-01 -7.0799484652008837e-01 0.0000000000000000e+00  9.8187207433878743e-01 -1.9014784575834409e-01 0.0000000000000000e+00  2.3586328742313556e-01 9.7190162730380181e-01 0.0000000000000000e+00  2.2292342928736381e-01 9.7490925218425173e-01 0.0000000000000000e+00  2.3453293174241943e-01 -9.7220482531123165e-01 0.0000000000000000e+00  2.1283214225331656e-01 -9.7716420805323057e-01 0.0000000000000000e+00  5.5522140795805408e-01 -8.3185067256052037e-01 0.0000000000000000e+00  3.6062948554465063e-01 -9.3295038892722282e-01 0.0000000000000000e+00  5.4565385096047081e-01 -8.3869891101212768e-01 0.0000000000000000e+00  6.7823637657535726e-02 1.2916073178487957e+00 0.0000000000000000e+00  1.9545460686722915e-01 9.4364702129041256e-01 0.0000000000000000e+00  8.0798995992153733e-03 9.3224225534094962e-01 0.0000000000000000e+00  7.9862942479850241e-01 -6.0280439311909628e-01 0.0000000000000000e+00  6.2688767028679437e-01 7.8489817808920770e-01 0.0000000000000000e+00  9.9640812709383919e-01 -9.4937243982571098e-02 0.0000000000000000e+00  9.4119190532122432e-01 -3.6293972540853886e-01 0.0000000000000000e+00  7.8800455610626075e-01 6.1872740911855917e-01 0.0000000000000000e+00  6.2007354277360138e-01 -7.8594136024924399e-01 0.0000000000000000e+00  1.2944711090839653e-01 1.0257100241052288e+00 0.0000000000000000e+00  5.7789994506428644e-01 -8.1625976261835742e-01 0.0000000000000000e+00  3.8285485031063499e-01 -9.2400508160271622e-01 0.0000000000000000e+00  3.6340355884221295e-03 -7.4725102609744898e-01 0.0000000000000000e+00  3.9053726960665019e-01 9.2082133105861297e-01 0.0000000000000000e+00  5.9934669842283128e-01 8.0063813809274909e-01 0.0000000000000000e+00  9.8838550511155687e-01 1.5275907252959006e-01 0.0000000000000000e+00  5.7383470466066755e-01 8.1911830428895394e-01 0.0000000000000000e+00  7.3113031398738648e-01 6.8235028406291576e-01 0.0000000000000000e+00  8.6698617966362113e-01 -4.9852164465204679e-01 0.0000000000000000e+00  6.2140853732431311e-01 7.8389956133053462e-01 0.0000000000000000e+00  9.7688646826186831e-01 2.1423156485172301e-01 0.0000000000000000e+00  8.9348132253777723e-01 -4.4938224613080729e-01 0.0000000000000000e+00  4.2211531754479525e-01 9.0679123817850937e-01 0.0000000000000000e+00  5.4085610805238671e-01 -8.4167003688879682e-01 0.0000000000000000e+00  1.7152643900314960e-02 1.1092726000767985e+00 0.0000000000000000e+00  7.3498194242123405e-01 6.7818085141759810e-01 0.0000000000000000e+00  4.5228209142854991e-01 8.9205758530887558e-01 0.0000000000000000e+00  8.5394701308304599e-01 5.2100294787859758e-01 0.0000000000000000e+00  4.4383815091606044e-01 -8.9629292911345815e-01 0.0000000000000000e+00  