<?xml version="1.0"?>
<VTKFile type="UnstructuredGrid"  version="0.1"  >
<UnstructuredGrid>
<Piece  NumberOfPoints="4153" NumberOfCells="8064">
<Points>
<DataArray  type="Float64"  NumberOfComponents="3"  format="ascii">-0.4163753685666401 -0.6435472148367701 0  -0.03734872271974865 -0.8244257364521125 0  -0.09178551276391997 -0.818457751182717 0  -0.1449719966516075 -0.8064312853690808 0  -0.1963175907826206 -0.7889760074826598 0  -0.2457694888259481 -0.7677628906887681 0  -0.2926150226406318 -0.7409902186596657 0  -0.3366133360982396 -0.7107622522666999 0  -0.3777372529018833 -0.6779769935952153 0  0.01754512483808837 -0.8239562009864075 0  -0.4524390349539988 -0.6091280153345203 0  -0.4866108051806904 -0.5747722874907163 0  -0.5189661337940604 -0.540781612363038 0  -0.5498031651963317 -0.5076581060499683 0  -0.579522093563997 -0.4760068432936878 0  -0.608444217736704 -0.4461846357426474 0  -0.6366833024714916 -0.4189680036714009 0  0.6336706182154499 -0.4140575219202738 0  0.07205090415314452 -0.8171136992552734 0  0.1253606954773185 -0.8041785966427407 0  0.176781646352915 -0.7857389308268714 0  0.2257740700922893 -0.7624919997958085 0  0.2720997991638845 -0.73566480647598 0  0.3157007233271992 -0.7060655444835564 0  0.3566595941414945 -0.6745392243517886 0  0.39510403502786 -0.6417707327526879 0  0.4314170463840056 -0.6086243272988328 0  0.4658673056654709 -0.5755574913377168 0  0.4987551276015014 -0.5430010425438287 0  0.5303053974688163 -0.5113231369919823 0  0.5608621488041509 -0.4808491148543753 0  0.5905861927304319 -0.452042579758285 0  0.6197237952271477 -0.4257448942840699 0  0.6049455307691146 -0.4387654357150791 0  -0.6223461436360673 -0.4323535528639741 0  -0.5647578903877104 -0.4917536693667204 0  -0.5029883547541659 -0.5577071465982805 0  -0.4346338580879263 -0.6263155321443404 0  -0.3575586331092326 -0.6945308117889708 0  -0.2695129298455099 -0.7548465554410185 0  -0.1709083080509775 -0.7984726045434409 0  -0.06467717644977249 -0.822232558387667 0  0.5757424428688604 -0.4664311036474802 0  0.1513433389608576 -0.7955901525306166 0  0.2492796246526565 -0.7494863110066718 0  0.3364876346875806 -0.6904874070178696 0  0.4135155546476307 -0.6252288563505245 0  0.4824809531010391 -0.5592116962671674 0  0.5457174552853334 -0.4960502858093989 0  0.04489901476742201 -0.8213226993568578 0  -0.6502633888795999 -0.4068614472244637 0  0.5146832241734598 -0.5270523662621101 0  0.4488537717914799 -0.5920647329981126 0  0.3761870257035326 -0.6582466817923565 0  0.2942382297443316 -0.7211668182807367 0  0.2016204982923248 -0.7746643410285788 0  0.09890218746689414 -0.8113756809206831 0  -0.00990368141423548 -0.8250025490076383 0  -0.1185797318346781 -0.8131941948310752 0  -0.2211501247121334 -0.778832283332332 0  -0.3148955061364006 -0.7260694268788332 0  -0.3976844783218608 -0.6613536407760521 0  -0.4697713341183258 -0.5919530410491174 0  -0.5345868267989383 -0.5241291696192574 0  -0.593971717078429 -0.4610288986925113 0  0.750292183555639 -0.2249882238479857 0  0.6788587552616319 -0.3798811244208865 0  0.7185454318613526 -0.3366257923802148 0  0.7436237768372495 -0.2843455883331452 0  0.656833929598622 -0.3974435281902923 0  0.6998729529004246 -0.3595937872882278 0  0.7290310377272142 -0.3088942059117504 0  0.7456839953132969 -0.254281117662963 0  0.6450915740446754 -0.4059877368149003 0  0.6678312302527425 -0.3878334437104037 0  0.6895028189709489 -0.3698891300001739 0  0.7089244113805864 -0.3472569566525381 0  0.7266127245695497 -0.3241762178574223 0  0.7353392747686261 -0.2964177201547553 0  0.743416975749712 -0.2690313841800145 0  0.7472869458221733 -0.2394714218473038 0  0.7499687628458529 -0.2058020304837076 0  0.7530792185259553 0.2267639612716033 0  0.7542084224537686 0.1886220549809987 0  0.7565815022963948 0.1499691385831667 0  0.7592152813870696 0.1107373457225047 0  0.7618262835810258 0.07089126159998578 0  0.7628733196341911 0.03057327087113371 0  0.7624906919087944 -0.009858574940522793 0  0.760675700930845 -0.05014737874661712 0  0.7574070424313378 -0.08992165105860854 0  0.7542039826319644 -0.1290963672269103 0  0.7513530740567217 -0.1676872120149736 0  0.7539887717128617 0.2458614835436705 0  0.753438521753248 0.2077457220302638 0  0.7579085558550883 0.1304266042534054 0  0.7625255453211759 0.05076401268049823 0  0.7617661227699758 -0.03003774675218362 0  0.7558165843197868 -0.1095879903966027 0  0.7504391471291276 -0.1867993925622859 0  0.7553348364244031 0.1693667225283386 0  0.7606223716527953 0.09091289765803962 0  0.7628556869589823 0.01035575684338556 0  0.7591037299229073 -0.07013295247686006 0  0.7527084462094328 -0.1484653650050422 0  0.6438062672049731 0.4371503039150315 0  0.7488262031467776 0.305394513849398 0  0.7253249606945321 0.3585881875823749 0  0.6874279395458959 0.4026343138798418 0  0.750335944570564 0.2752532140031542 0  0.7355991124488885 0.3307948989712864 0  0.7074796819835109 0.3816986143087645 0  0.6659651847516258 0.4201017151580572 0  0.7516385639875937 0.2604582621265768 0  0.7487053594431405 0.2901003795759332 0  0.7414163421790739 0.3178741369041939 0  0.7324040808378947 0.3456085751686973 0  0.7160501941389461 0.3692678428466499 0  0.6975614769221701 0.3922567571962439 0  0.6766409922681424 0.4106148801471162 0  0.6546978389556498 0.428786254685643 0  -0.02958301617190242 0.8785070991175039 0  0.602882206227681 0.4767368771162703 0  0.5746719938995121 0.506967031341111 0  0.5456816765700756 0.539182674642292 0  0.5155726058580572 0.5730187482680958 0  0.483932145581728 0.6079363542898986 0  0.4504535582429336 0.643520028127213 0  0.4148193641018737 0.6793260224828789 0  0.3766697393093123 0.7149200403148687 0  0.3355828881878243 0.7492180950989696 0  0.291410517037835 0.7814743618717965 0  0.2440611388138036 0.8107265898707069 0  0.1936232247206215 0.8361625557811295 0  0.1403661825894055 0.8563210859403769 0  0.08488786984642001 0.8704305404424332 0  0.02796181370412762 0.8778189556465237 0  0.6305128134175811 0.4492645836219729 0  -0.08669246496800913 0.8714908949190379 0  -0.1423398881032928 0.8576669625499919 0  -0.1956889363452753 0.8376967037965238 0  -0.2459940128442147 0.811808952431623 0  -0.2934530735192058 0.783469224336347 0  -0.3377236999335121 0.7520322467406308 0  -0.3789894104366844 0.718559315349301 0  -0.4174508778837634 0.6837037814829618 0  -0.4534615372170382 0.6487521842070063 0  -0.4874829867952911 0.6140262167479068 0  -0.5197879315052346 0.5799027008210285 0  -0.5506663744343083 0.5467496688723321 0  -0.5804026335305703 0.5149080758835961 0  -0.6092553756554078 0.4849155622043727 0  -0.6374627317137431 0.4575895742244987 0  -0.6509797374410818 0.4454750711611183 0  -0.6231429906399297 0.4710655126636641 0  -0.5656744351772202 0.530767792198594 0  -0.5038346749048885 0.5968810219355291 0  -0.4357110316464007 0.6662123205024404 0  -0.3587118588562055 0.7354502268922082 0  -0.2701137297225963 0.798101841305948 0  -0.1693269318782544 0.8482204623951553 0  -0.05824909712044463 0.8758514734107959 0  0.05656216369608543 0.8750254218844072 0  0.1673159248102586 0.8469239216957312 0  0.2681346733723008 0.7965442899450776 0  0.3564883434630642 0.7322478064197439 0  0.4329253850111619 0.661427907523339 0  0.4999615247621758 0.5903768730333787 0  0.5602847822970223 0.5229699967032314 0  0.6164871506528747 0.4627893409969782 0  -0.5948399321101374 0.4998569583882095 0  -0.5353971860690105 0.563228282810445 0  -0.4707100890812204 0.6313457913214318 0  -0.3986256527278526 0.7013091050017622 0  -0.3159619538065223 0.7680280294208699 0  -0.2215347850760614 0.8258350266877744 0  -0.1147402443406166 0.8653268579266408 0  -0.0007456219629571829 0.8790559067428765 0  0.1128619964491926 0.8641767906561654 0  0.2192533971022474 0.8240726744523349 0  0.3138898740747279 0.765659139146559 0  0.3961208403378823 0.6972337989532476 0  0.467441532317857 0.6256757435180237 0  0.5308219807723853 0.5559784835112421 0  0.5887822282236992 0.4917671860449038 0  -0.7639983842007764 0.2544581756358305 0  -0.6951123879425449 0.4107399342962844 0  -0.7337299563563914 0.3668329323257417 0  -0.7579614817228393 0.3139631980233621 0  -0.6734770674282112 0.4283922381668334 0  -0.7155693589445747 0.3899839264998426 0  -0.7440792712205277 0.3390049473460316 0  -0.7597892172180888 0.2838319159879897 0  -0.6620227387517024 0.4370943043163289 0  -0.6842602206133576 0.4187804108985836 0  -0.7054628334875372 0.400475002602574 0  -0.724333215941754 0.3775374963466013 0  -0.7412690804395726 0.3540587522736253 0  -0.7501272970141207 0.3262715750910105 0  -0.7578242136792775 0.2986515071668486 0  -0.7612721124921104 0.2690174344593496 0  -0.7634051338329758 0.2352864078990245 0  -0.7631477162454183 -0.1978297206922362 0  -0.7644899008112026 -0.159697006756393 0  -0.7671804427039616 -0.12105347158586 0  -0.7701661345026696 -0.08181480832011157 0  -0.7731591359856796 -0.04196065137721095 0  -0.7746308630954951 -0.001605912528319474 0  -0.7746664141381344 0.03888209766020851 0  -0.773268581353585 0.07924691463664665 0  -0.7703580987272367 0.1191280179904678 0  -0.7674226615991783 0.1584058396411907 0  -0.7647510982602447 0.1970985210676894 0  -0.7637920881391683 -0.2169731763007086 0  -0.7636025383288221 -0.1788205029016122 0  -0.7686870738780008 -0.1015118798551232 0  -0.7740746902207569 -0.02181708626603303 0  -0.7741467185002633 0.05909692469942955 0  -0.7689067945576333 0.1388429717508528 0  -0.7638636615712456 0.216248141848591 0  -0.7657692164333747 -0.1404493185435562 0  -0.7717454647918278 -0.06198777606027634 0  -0.7748230635857332 0.01863750418451397 0  -0.7718988376551703 0.09928463931848643 0  -0.766026278179973 0.1778251177595779 0  -0.7576957305069127 -0.2763846020166443 0  -0.7332557923534324 -0.3290623595536034 0  -0.694510144378799 -0.3726480262564505 0  -0.7596257118594363 -0.2463137622533313 0  -0.7438355825521623 -0.3014228693871759 0  -0.7150298880930367 -0.3520927015405011 0  -0.6727420677522009 -0.3900480638816631 0  -0.7611086069084301 -0.2315198744868898 0  -0.75767
[...]
<PointData  Vectors="PointNormal"> 
<DataArray  type="Float64"  Name="PointNormal"  NumberOfComponents="3" format="ascii">-6.8806686067551515e-01 -7.2564729396597438e-01 0.0000000000000000e+00  -5.0525894692215176e-02 -9.9872275130065558e-01 0.0000000000000000e+00  -1.6540287131589440e-01 -9.8622608470900708e-01 0.0000000000000000e+00  -2.7086455966956463e-01 -9.6261746832010731e-01 0.0000000000000000e+00  -3.6416394197053248e-01 -9.3133486102930918e-01 0.0000000000000000e+00  -4.4428897904054648e-01 -8.9588353210844807e-01 0.0000000000000000e+00  -5.3556306581357316e-01 -8.4449523535444904e-01 0.0000000000000000e+00  -5.9447664628869545e-01 -8.0411287579378132e-01 0.0000000000000000e+00  -6.3722848654503372e-01 -7.7067493532326958e-01 0.0000000000000000e+00  6.6990261698725725e-02 -9.9775362932817058e-01 0.0000000000000000e+00  -6.9921148260332944e-01 -7.1491489185472545e-01 0.0000000000000000e+00  -7.1783843497545696e-01 -6.9620972506277623e-01 0.0000000000000000e+00  -7.2825728216950192e-01 -6.8530382383807742e-01 0.0000000000000000e+00  -7.3153409503223765e-01 -6.8180486050288980e-01 0.0000000000000000e+00  -7.2461186131891797e-01 -6.8915720299212813e-01 0.0000000000000000e+00  -7.1067769233339917e-01 -7.0351774506381459e-01 0.0000000000000000e+00  -6.7398544921580517e-01 -7.3874462045105227e-01 0.0000000000000000e+00  6.1019355955850330e-01 -7.9225237132704318e-01 0.0000000000000000e+00  1.8115544522080559e-01 -9.8345447513692852e-01 0.0000000000000000e+00  2.8826429045862589e-01 -9.5755088577390235e-01 0.0000000000000000e+00  3.8429067195695638e-01 -9.2321215299998660e-01 0.0000000000000000e+00  4.6717367109947994e-01 -8.8416557331273371e-01 0.0000000000000000e+00  5.3303862917734135e-01 -8.4609090516607055e-01 0.0000000000000000e+00  5.8763931898676713e-01 -8.0912300102071533e-01 0.0000000000000000e+00  6.3047220077740063e-01 -7.7621182936547750e-01 0.0000000000000000e+00  6.6257256247115315e-01 -7.4899772994342906e-01 0.0000000000000000e+00  6.8435315148176656e-01 -7.2915071422647193e-01 0.0000000000000000e+00  6.9884649836215962e-01 -7.1527167686617366e-01 0.0000000000000000e+00  7.0664354753510639e-01 -7.0756971156699444e-01 0.0000000000000000e+00  7.0671001155014301e-01 -7.0750332831358242e-01 0.0000000000000000e+00  7.0216963629955853e-01 -7.1200969225070643e-01 0.0000000000000000e+00  6.8750187524191086e-01 -7.2618260206290819e-01 0.0000000000000000e+00  6.5173342470982421e-01 -7.5844811497953102e-01 0.0000000000000000e+00  6.7003506906689381e-01 -7.4232944588001015e-01 0.0000000000000000e+00  -6.9395293938976410e-01 -7.2002035937347386e-01 0.0000000000000000e+00  -7.2901260133623635e-01 -6.8450027545134973e-01 0.0000000000000000e+00  -7.2433888587583328e-01 -6.8944410825545288e-01 0.0000000000000000e+00  -6.9045038781465684e-01 -7.2337974948611194e-01 0.0000000000000000e+00  -6.2345613708185088e-01 -7.8185832804605748e-01 0.0000000000000000e+00  -4.9622253652493842e-01 -8.6819536640364303e-01 0.0000000000000000e+00  -3.2186805221071213e-01 -9.4678453566061282e-01 0.0000000000000000e+00  -1.0900306660829256e-01 -9.9404141335760665e-01 0.0000000000000000e+00  6.9593695801004807e-01 -7.1810288293232771e-01 0.0000000000000000e+00  3.3759166724982731e-01 -9.4129265704321841e-01 0.0000000000000000e+00  5.0119305646682799e-01 -8.6533549571795509e-01 0.0000000000000000e+00  6.0999956450553050e-01 -7.9240174867491497e-01 0.0000000000000000e+00  6.7420991638746552e-01 -7.3853976781538755e-01 0.0000000000000000e+00  7.0353330685527071e-01 -7.1066228698678491e-01 0.0000000000000000e+00  7.0616021861733125e-01 -7.0805207834051509e-01 0.0000000000000000e+00  1.2456169540077847e-01 -9.9221186449209708e-01 0.0000000000000000e+00  -6.3488254833300195e-01 -7.7260866538124806e-01 0.0000000000000000e+00  7.0854085569782921e-01 -7.0566979232994509e-01 0.0000000000000000e+00  6.9250042281381019e-01 -7.2141746887824532e-01 0.0000000000000000e+00  6.4874558972171326e-01 -7.6100536122725615e-01 0.0000000000000000e+00  5.6172696941043043e-01 -8.2732267697493533e-01 0.0000000000000000e+00  4.2874722800145160e-01 -9.0342449296057459e-01 0.0000000000000000e+00  2.3581666587669239e-01 -9.7179756127230554e-01 0.0000000000000000e+00  8.5437078562211263e-03 -9.9996350186197669e-01 0.0000000000000000e+00  -2.2058197270888702e-01 -9.7536843977845411e-01 0.0000000000000000e+00  -3.9417445792044126e-01 -9.1903563408777911e-01 0.0000000000000000e+00  -5.6630839426573221e-01 -8.2419342546769203e-01 0.0000000000000000e+00  -6.6535077076730786e-01 -7.4653087802136442e-01 0.0000000000000000e+00  -7.0903887083632233e-01 -7.0516939783512511e-01 0.0000000000000000e+00  -7.3194047689271891e-01 -6.8136857741317880e-01 0.0000000000000000e+00  -7.1785331016346232e-01 -6.9619438742879858e-01 0.0000000000000000e+00  9.9559746814864225e-01 -9.3731965817501386e-02 0.0000000000000000e+00  6.3598920199437758e-01 -7.7169795577450817e-01 0.0000000000000000e+00  7.9288727269032178e-01 -6.0936833918878941e-01 0.0000000000000000e+00  9.5710180938683531e-01 -2.8975183600530613e-01 0.0000000000000000e+00  6.2381138595470065e-01 -7.8157491947559021e-01 0.0000000000000000e+00  7.5770946380275905e-01 -6.5259203830857104e-01 0.0000000000000000e+00  9.5155720023783008e-01 -3.0747177866520070e-01 0.0000000000000000e+00  9.9154133413756151e-01 -1.2979130439557379e-01 0.0000000000000000e+00  5.8272797815048660e-01 -8.1266727723013810e-01 0.0000000000000000e+00  6.2214237474602507e-01 -7.8290412283074384e-01 0.0000000000000000e+00  6.9455025804560855e-01 -7.1944418758426176e-01 0.0000000000000000e+00  7.7487926117227313e-01 -6.3210927109568027e-01 0.0000000000000000e+00  9.3378236122431735e-01 -3.5784144794355316e-01 0.0000000000000000e+00  8.6037982192440721e-01 -5.0965337438824554e-01 0.0000000000000000e+00  9.9758594724045113e-01 -6.9442622850608204e-02 0.0000000000000000e+00  9.8782465232324801e-01 -1.5557138638726034e-01 0.0000000000000000e+00  9.9999221213934475e-01 -3.9466011528652544e-03 0.0000000000000000e+00  9.9989703700512977e-01 -1.4349752205599775e-02 0.0000000000000000e+00  9.9878328714766285e-01 4.9314757573258351e-02 0.0000000000000000e+00  9.9782336152667883e-01 6.5943454501556933e-02 0.0000000000000000e+00  9.9765037737422535e-01 6.8510762111260379e-02 0.0000000000000000e+00  9.9887715467981308e-01 4.7375414074820876e-02 0.0000000000000000e+00  9.9996658244902092e-01 8.1752055157910519e-03 0.0000000000000000e+00  9.9963625537744061e-01 -2.6969555705799331e-02 0.0000000000000000e+00  9.9780082320035957e-01 -6.6283612006926007e-02 0.0000000000000000e+00  9.9654803920964030e-01 -8.3018103732989124e-02 0.0000000000000000e+00  9.9682027930621175e-01 -7.9682687981052991e-02 0.0000000000000000e+00  9.9825474595371666e-01 -5.9054738852022795e-02 0.0000000000000000e+00  9.9843107215011651e-01 5.5994590499160918e-02 0.0000000000000000e+00  9.9956302217442172e-01 2.9559511185683156e-02 0.0000000000000000e+00  9.9775392637776972e-01 6.6985837292252923e-02 0.0000000000000000e+00  9.9966265805484567e-01 2.5972487187805392e-02 0.0000000000000000e+00  9.9898627197303591e-01 -4.5015868417875464e-02 0.0000000000000000e+00  9.9667374950652199e-01 -8.1495012391009439e-02 0.0000000000000000e+00  9.9934247411116595e-01 -3.6257681081031633e-02 0.0000000000000000e+00  9.9812134274064368e-01 6.1268141522446147e-02 0.0000000000000000e+00  9.9785835965897907e-01 6.5411727226022426e-02 0.0000000000000000e+00  9.9995522407960635e-01 -9.4630775070425801e-03 0.0000000000000000e+00  9.9663887073306134e-01 -8.1920457420159964e-02 0.0000000000000000e+00  9.9728333843267680e-01 -7.3660999752752712e-02 0.0000000000000000e+00  6.4188352758956291e-01 7.6680214984647688e-01 0.0000000000000000e+00  9.6536500186443208e-01 2.6090307237609323e-01 0.0000000000000000e+00  8.2124418269376875e-01 5.7057689437239190e-01 0.0000000000000000e+00  6.5722373271498913e-01 7.5369553876626905e-01 0.0000000000000000e+00  9.9514272566171413e-01 9.8442651135442261e-02 0.0000000000000000e+00  9.4994596148145793e-01 3.1241426066213501e-01 0.0000000000000000e+00  7.7827257299750363e-01 6.2792658975380677e-01 0.0000000000000000e+00  6.3775481632830378e-01 7.7023943955762963e-01 0.0000000000000000e+00  9.9235538956990432e-01 1.2341304951893607e-01 0.0000000000000000e+00  9.9871287180185464e-01 5.0720801425965321e-02 0.0000000000000000e+00  8.8725892220200231e-01 4.6127172574626912e-01 0.0000000000000000e+00  9.3734473877887714e-01 3.4840327306665581e-01 0.0000000000000000e+00  7.9038265367074367e-01 6.1261346767467761e-01 0.0000000000000000e+00  7.2219296965771451e-01 6.9169163257695354e-01 0.0000000000000000e+00  6.3013778921772068e-01 7.7648333311140894e-01 0.0000000000000000e+00  6.0977174192103489e-01 7.9257707685409806e-01 0.0000000000000000e+00  -5.5673774467145665e-02 9.9844901263739128e-01 0.0000000000000000e+00  7.2261504513213504e-01 6.9125067562258669e-01 0.0000000000000000e+00  7.3829282227388615e-01 6.7448032482709230e-01 0.0000000000000000e+00  7.4599881635372445e-01 6.6594726968345019e-01 0.0000000000000000e+00  7.4435721293190593e-01 6.6778165560027580e-01 0.0000000000000000e+00  7.3549177443599134e-01 6.7753365210666616e-01 0.0000000000000000e+00  7.1947425194105774e-01 6.9451911477932371e-01 0.0000000000000000e+00  6.9736322687037866e-01 7.1671788718360641e-01 0.0000000000000000e+00  6.6215344377152530e-01 7.4936827855301524e-01 0.0000000000000000e+00  6.1721970758092859e-01 7.8679084423607326e-01 0.0000000000000000e+00  5.5954801872522741e-01 8.2879793360062892e-01 0.0000000000000000e+00  4.9077264357856137e-01 8.7128767483243463e-01 0.0000000000000000e+00  4.0275614933244891e-01 9.1530731679305288e-01 0.0000000000000000e+00  3.0206697975266666e-01 9.5328670385309688e-01 0.0000000000000000e+00  1.8922889684399388e-01 9.8193300412971418e-01 0.0000000000000000e+00  7.0156072461997093e-02 9.9753602716729339e-01 0.0000000000000000e+00  6.8391836444090615e-01 7.2955854513567020e-01 0.0000000000000000e+00  -1.8318622309140109e-01 9.8307823069657452e-01 0.0000000000000000e+00  -2.9906789244274590e-01 9.5423183540995637e-01 0.0000000000000000e+00  -3.9405599700639615e-01 9.1908643294485370e-01 0.0000000000000000e+00  -4.9577199327524119e-01 8.6845272219269032e-01 0.0000000000000000e+00  -5.4855580971030005e-01 8.3611394177652432e-01 0.0000000000000000e+00  -6.0618600909339015e-01 7.9532290447303755e-01 0.0000000000000000e+00  -6.5006327555676624e-01 7.5988008117887118e-01 0.0000000000000000e+00  -6.8740704723139212e-01 7.2627236724015509e-01 0.0000000000000000e+00  -7.0580031748335770e-01 7.0841083549053052e-01 0.0000000000000000e+00  -7.2100896140588189e-01 6.9292573741520935e-01 0.0000000000000000e+00  -7.2940217932892026e-01 6.8408512685938561e-01 0.0000000000000000e+00  -7.3124337175644794e-01 6.8211665517143139e-01 0.0000000000000000e+00  -7.2723995079831139e-01 6.8638331416408249e-01 0.0000000000000000e+00  -7.1293718603060641e-01 7.0122790073895414e-01 0.0000000000000000e+00  -6.7642107694207243e-01 7.3651512317706469e-01 0.0000000000000000e+00  -6.3650670872500270e-01 7.7127116486230984e-01 0.0000000000000000e+00  -6.9580995566025883e-01 7.1822594328252209e-01 0.0000000000000000e+00  -7.3086778717656753e-01 6.8251906762201719e-01 0.0000000000000000e+00  -7.2621421379474504e-01 6.8746848341031641e-01 0.0000000000000000e+00  -6.9651285918653805e-01 7.1754431012153796e-01 0.0000000000000000e+00  -6.3003128539157949e-01 7.7656975181102317e-01 0.0000000000000000e+00  -5.1275501408137858e-01 8.5853497047843397e-01 0.0000000000000000e+00  -3.5064853229997928e-01 9.3650713120395968e-01 0.0000000000000000e+00  -1.2194538282239074e-01 9.9253681221821721e-01 0.0000000000000000e+00  1.2873231916057243e-01 9.9167937863179367e-01 0.0000000000000000e+00  3.5405404497004056e-01 9.3522496397409782e-01 0.0000000000000000e+00  5.2565260829678628e-01 8.5069932137670445e-01 0.0000000000000000e+00  6.4089953860519389e-01 7.6762476602546481e-01 0.0000000000000000e+00  7.0885131804621471e-01 7.0535792963866506e-01 0.0000000000000000e+00  7.4104791077892784e-01 6.7145215312052298e-01 0.0000000000000000e+00  7.4333946325089573e-01 6.6891437596591563e-01 0.0000000000000000e+00  7.0507238562147001e-01 7.0913534042102921e-01 0.0000000000000000e+00  -7.2066526208260850e-01 6.9328318891157681e-01 0.0000000000000000e+00  -7.3177814105745520e-01 6.8154292034360919e-01 0.0000000000000000e+00  -7.1434827137604684e-01 6.9979035945206747e-01 0.0000000000000000e+00  -6.7159812557039078e-01 7.4091562119470633e-01 0.0000000000000000e+00  -5.7905156271408686e-01 8.1529092213661625e-01 0.0000000000000000e+00  -4.5775167930383753e-01 8.8908008643457803e-01 0.0000000000000000e+00  -2.4112632856315339e-01 9.7049373706049968e-01 0.0000000000000000e+00  1.2016075243664999e-02 9.9992780436176421e-01 0.0000000000000000e+00  2.4650739129294608e-01 9.6914091134259028e-01 0.0000000000000000e+00  4.5035463636184514e-01 8.9284976424222129e-01 0.0000000000000000e+00  5.8980552676569042e-01 8.0754531798323648e-01 0.0000000000000000e+00  6.8226465485694954e-01 7.3110528703663979e-01 0.0000000000000000e+00  7.2835661586537870e-01 6.8519824877558833e-01 0.0000000000000000e+00  7.4707064892474162e-01 6.6474464684957435e-01 0.0000000000000000e+00  7.3110508558062992e-01 6.8226487073433573e-01 0.0000000000000000e+00  -9.9703020305114531e-01 7.7011519942096998e-02 0.0000000000000000e+00  -6.5141962582761270e-01 7.5871764912028583e-01 0.0000000000000000e+00  -8.0990888874621203e-01 5.8655570232491638e-01 0.0000000000000000e+00  -9.6135114377329178e-01 2.7532522290154166e-01 0.0000000000000000e+00  -6.3565799091557285e-01 7.7197080164030651e-01 0.0000000000000000e+00  -7.7117583781086518e-01 6.3662220129108782e-01 0.0000000000000000e+00  -9.5110885621002539e-01 3.0885586223812755e-01 0.0000000000000000e+00  -9.9330316690738696e-01 1.1553708760288167e-01 0.0000000000000000e+00  -6.0473980557117657e-01 7.9642310837753538e-01 0.0000000000000000e+00  -6.3100152098735951e-01 7.7578159330551200e-01 0.0000000000000000e+00  -7.1222151198880013e-01 7.0195478334461636e-01 0.0000000000000000e+00  -7.8570647713892039e-01 6.1859949222574295e-01 0.0000000000000000e+00  -9.3629723503288842e-01 3.5120860990267322e-01 0.0000000000000000e+00  -8.7511445375221997e-01 4.8391599770409893e-01 0.0000000000000000e+00  -9.9811372974928880e-01 6.1392039271910621e-02 0.0000000000000000e+00  -9.8987290809579365e-01 1.4195642224984609e-01 0.0000000000000000e+00  -9.9999412748245864e-01 -3.4270979846436934e-03 0.0000000000000000e+00  -9.9998817653883110e-01 4.8627957538306781e-03 0.0000000000000000e+00  -9.9841172386858446e-01 -5.6338527152931570e-02 0.0000000000000000e+00  -9.9720461793993309e-01 -7.4719140514810684e-02 0.0000000000000000e+00  -9.9702012130655282e-01 -7.7141932240946662e-02 0.0000000000000000e+00  -9.9832162552505188e-01 -5.7913141937025535e-02 0.0000000000000000e+00  -9.9982883058065464e-01 -1.8501609111660045e-02 0.0000000000000000e+00  -9.9986021852720963e-01 1.6719551630373249e-02 0.0000000000000000e+00  -9.9843787503645443e-01 5.5873157174885286e-02 0.0000000000000000e+00  -9.9715230872370875e-01 7.5414012006903369e-02 0.0000000000000000e+00  -9.9728158072293893e-01 7.3684793212413141e-02 0.0000000000000000e+00  -9.9842188327876313e-01 5.6158196107851832e-02 0.0000000000000000e+00  -9.9723451661322970e-01 -7.4319034406926901e-02 0.0000000000000000e+00  -9.9938247349243681e-01 -3.5137895158061011e-02 0.0000000000000000e+00  -9.9711732927107044e-01 -7.5875105715430741e-02 0.0000000000000000e+00  -9.9933520120111952e-01 -3.6457586869098307e-02 0.0000000000000000e+00  -9.9940052030853488e-01 3.4620803096259180e-02 0.0000000000000000e+00  -9.9721865097035789e-01 7.4531618504226682e-02 0.0000000000000000e+00  -9.9938073743612166e-01 3.5187236913882175e-02 0.0000000000000000e+00  -9.9758586329582510e-01 -6.9443828756219905e-02 0.0000000000000000e+00  -9.9719037230156016e-01 -7.4909020745674015e-02 0.0000000000000000e+00  -9.9999961433984008e-01 -8.7824835386831820e-04 0.0000000000000000e+00  -9.9734609851922607e-01 7.2806316817144279e-02 0.0000000000000000e+00  -9.9762561567038766e-01 6.8870392464977906e-02 0.0000000000000000e+00  -9.6051417413006990e-01 -2.7823105738797366e-01 0.0000000000000000e+00  -8.0746678286801299e-01 -5.8991303983280541e-01 0.0000000000000000e+00  -6.4616437811951166e-01 -7.6319826811217584e-01 0.0000000000000000e+00  -9.9332368183671593e-01 -1.1536057863217719e-01 0.0000000000000000e+00  -9.4886984122536866e-01 -3.1566758530603611e-01 0.0000000000000000e+00  -7.6716809605769343e-01 -6.4144611027834098e-01 0.0000000000000000e+00  -6.2631893960569629e-01 -7.7956692200939115e-01 0.0000000000000000e+00  -9.9005303723217952e-01 -1.4069464619286864e-01 0.0000000000000000e+00  -9.9789663866675082e-01 -6.4825138161056076e-02 0.0000000000000000e+00  -8.7537049270771528e-01 -4.8345268692670629e-01 0.0000000000000000e+00  -9.3292680884487222e-01 -3.6006606246426914e-01 0.0000000000000000e+00  -7.8307406249282507e-01 -6.2192846264741974e-01 0.0000000000000000e+00  -7.0772128986302640e-01 -7.0649173800874288e-01 0.0000000000000000e+00  -6.2326394481231862e-01 -7.8201154409445073e-01 0.0000000000000000e+00  -5.9903523922541624e-01 -8.0072266245320434e-01 0.0000000000000000e+00  0.0000000000000000e+00 0.0000000000000000e+00 0.0000000000000000e+00  0.0000000000000000e+00 0.0000000000000000e+00 0.0000000000000000e+00  0.0000000000000000e+00 0.0000000000000000e+00 0.0000000000000000e+00  0.0000000000000000e+00 0.0000000000000000e+00 0.0000000000000000e+00  0.0000000000000000e+00 0.0000000000000000e+00 0.0000000000000000e+00  0.0000000000000000e+00 0.0000000000000000e+00 0.0000000000000000e+00  0.0000000000000000e+00 0.0000000000000000e+00 0.0000000000000000e+00  0.0000000000000000e+00 0.0000000000000000e+00 0.0000000000000000e+00  0.0000000000000000e+00 0.0000000000000000e+00 0.0000000000000000e+00  0.0000000000000000e+00 0.0000000000000000e+00 0.0000000000000000e+00  0.0000000000000000e+00 0.0000000000000000e+00 0.0000000000000000e+00  0.0000000000000000e+00 0.0000000000000000e+00 0.0000000000000000e+00  0.0000000000000000e+00 0.0000000000000000e+00 0.0000000000000000e+00  0.0000000000000000e+00 0.0000000000000000e+00 0.0000000000000000e+00  0.0000000000000000e+00 0.0000000000000000e+00 0.0000000000000000e+00  0.0000000000000000e+00 0.0000000000000000e+00 0.0000000000000000e+00  0.0000000000000000e+00 0.0000000000000000e+00 0.0000000000000000e+00  0.0000000000000000e+00 0.0000000000000000e+00 0.0000000000000000e+00  0.0000000000000000e+00 0.0000000000000000e+00 0.0000000000000000e+00  0.0000000000000000e+00 0.0000000000000000e+00 0.0000000000000000e+00  0.0000000000000000e+00 0.0000000000000000e+00 0.0000000000000000e+00  0.0000000000000000e+00 0.0000000000000000e+00 0.0000000000000000e+00  0.0000000000000000e+00 0.0000000000000000e+00 0.0000000000000000e+00  0.0000000000000000e+00 0.0000000000000000e+00 0.0000000000000000e+00  0.0000000000000000e+00 0.0000000000000000e+00 0.0000000000000000e+00  0.0000000000000000e+00 0.0000000000000000e+00 0.0000000000000000e+00  0.0000000000000000e+00 0.0000000000000000e+00 0.0000000000000000e+00  0.0000000000000000e+00 0.0000000000000000e+00 0.0000000000000000e+00  0.0000000000000000e+00 0.0000000000000000e+00 0.0000000000000000e+00  0.0000000000000000e+00 0.0000000000000000e+00 0.0000000000000000e+00  0.0000000000000000e+00 0.0000000000000000e+00 0.0000000000000000e+00  0.0000000000000000e+00 0.0000000000000000e+00 0.0000000000000000e+00  0.0000000000000000e+00 0.0000000000000000e+00 0.0000000000000000e+00  0.0000000000000000e+00 0.0000000000000000e+00 0.0000000000000000e+00  0.0000000000000000e+00 0.0000000000000000e+00 0.0000000000000000e+00  0.0000000000000000e+00 0.0000000000000000e+00 0.0000000000000000e+00  0.0000000000000000e+00 0.0000000000000000e+00 0.0000000000000000e+00  0.0000000000000000e+00 0.0000000000000000e+00 0.0000000000000000e+00  0.0000000000000000e+00 0.0000000000000000e+00 0.0000000000000000e+00  0.0000000000000000e+00 0.0000000000000000e+00 0.0000000000000000e+00  0.0000000000000000e+00 0.000000000000