<?xml version="1.0"?>
<VTKFile type="UnstructuredGrid"  version="0.1"  >
<UnstructuredGrid>
<Piece  NumberOfPoints="4153" NumberOfCells="8064">
<Points>
<DataArray  type="Float64"  NumberOfComponents="3"  format="ascii">-0.4159429826850926 -0.5362613292543857 0  -0.04461515998251062 -0.6280348082762706 0  -0.09291428984836833 -0.6248792480575229 0  -0.1407982996019218 -0.618901853485424 0  -0.1881910085321505 -0.6106766836185991 0  -0.235316602351043 -0.6009707080160278 0  -0.2818360706034116 -0.5877060391915565 0  -0.3274736622475926 -0.5721058261278761 0  -0.3721972180870883 -0.5548887907648314 0  0.003893281950622444 -0.6280298655461553 0  -0.4590241115335823 -0.5183085575461835 0  -0.5015968041137807 -0.5004847468702706 0  -0.5437227974906877 -0.4830820832722665 0  -0.585442275410555 -0.4664570944767499 0  -0.6269006599541558 -0.4508143963165386 0  -0.6680510451370403 -0.4362064979604627 0  -0.7089963175948841 -0.4233486708498779 0  0.6940523730160658 -0.4345525778504145 0  0.05236010410679262 -0.6248573015766907 0  0.100540620001656 -0.6186250475167874 0  0.148215135910143 -0.6096035398262585 0  0.1952123328936305 -0.5981723192890057 0  0.2414636838259787 -0.5850190374775622 0  0.2869909480224117 -0.5705959545908673 0  0.3318324486081478 -0.5553064097295664 0  0.3760367441132214 -0.5395815998952004 0  0.4197057129847518 -0.5237388056059966 0  0.4629140429916035 -0.5080418125215012 0  0.5057238403533381 -0.4926690642473513 0  0.5481782394934532 -0.4779008286832832 0  0.5903078277971231 -0.4637590960938117 0  0.632123401681579 -0.4505974314457348 0  0.6737054219436844 -0.4389607656166137 0  0.6528612756919572 -0.4448050192744032 0  -0.6884349740823876 -0.4298348405777062 0  -0.6062118556586187 -0.4585497212019395 0  -0.5227071624744043 -0.4917282069075573 0  -0.4375370147983413 -0.527274657405038 0  -0.3499495892534314 -0.563614246915377 0  -0.258679508615476 -0.5946694483184725 0  -0.1645533982575963 -0.6150471989239792 0  -0.06880620374044261 -0.6268367455877057 0  0.6112500989538947 -0.4571009925513023 0  0.1244529820036456 -0.6144393436328625 0  0.2184295497219378 -0.5917808741432832 0  0.3094923162241439 -0.5630464535054746 0  0.3979348486493725 -0.5316565203457968 0  0.4843638302380022 -0.5003165968897707 0  0.5692867019652162 -0.4707329194004041 0  0.02814728077481279 -0.6268363948632077 0  -0.7289457352619393 -0.4182908145007171 0  0.5269810275878758 -0.4851932332545867 0  0.4413631814220284 -0.5158633733899521 0  0.3540032330149127 -0.5474606095362975 0  0.2643159463650355 -0.5779425986583334 0  0.1718094661484122 -0.6041510818382154 0  0.07650093951521533 -0.6221105127724401 0  -0.02037065264715221 -0.6284355621320554 0  -0.116916717646935 -0.6222144468928296 0  -0.2117428421046716 -0.6061769200016849 0  -0.3047681507412088 -0.5801433198460449 0  -0.3942544580146292 -0.5456532526999563 0  -0.4803683862628416 -0.5093608925342571 0  -0.5646181876213258 -0.474615226088358 0  -0.6475040631486044 -0.4434428565204367 0  0.8575494354376274 -0.2479528789384445 0  0.7577207739510519 -0.414245566961494 0  0.8118568555026972 -0.3731344901339065 0  0.8469746006226619 -0.3152663105798261 0  0.7261553156935441 -0.4248091979673959 0  0.7854970830941782 -0.3946756391326025 0  0.8283625418556295 -0.3434140230074283 0  0.8516225714139001 -0.2813046549256991 0  0.710302794029682 -0.4306104183458536 0  0.7418583976008793 -0.4191288007115438 0  0.771653694417445 -0.4046272248281342 0  0.7982735421278457 -0.3832032151611547 0  0.8209879233548898 -0.3587536027088237 0  0.8372356231399813 -0.3292285000637651 0  0.8489212690366253 -0.2981430704409755 0  0.8541814398100938 -0.2645488544549582 0  0.8570342689948465 -0.2261759343497603 0  0.8625725929318043 0.2531172552428917 0  0.8619339128399238 0.2099227518882956 0  0.8624057085236457 0.1666725670086672 0  0.8634245173256193 0.1232424884395145 0  0.8647518443296942 0.07951920061303813 0  0.86513694687025 0.03554115490662103 0  0.8646131416774065 -0.008502234917063794 0  0.8631831898657309 -0.0524884828077084 0  0.860849625877894 -0.09622427367266936 0  0.8588296269301521 -0.1396851602778048 0  0.8573619294533689 -0.1829655018356564 0  0.8636671610120914 0.2748803107742546 0  0.8620706079551407 0.2315153813839481 0  0.8628697203764707 0.1449855277314506 0  0.8650597480740062 0.05754672195740097 0  0.8640144858612028 -0.03051082250288349 0  0.8597962214478461 -0.1179825510612886 0  0.8570123196897892 -0.2045717142676724 0  0.8620848569445587 0.1883141268381412 0  0.8641305995154405 0.1014355391643367 0  0.8649849444681049 0.01352006201388233 0  0.8620508462036086 -0.07440854349412035 0  0.858010532542246 -0.1613430118188946 0  0.705870265850234 0.464416749392864 0  0.8548286573192522 0.3424715397811398 0  0.8212426250307004 0.401053283207366 0  0.7684715037104506 0.4432584612186911 0  0.858745139934463 0.3083676059500643 0  0.8372010445687044 0.3710779751398263 0  0.7956298697434709 0.4231121066800162 0  0.7374463535295559 0.4543661293921286 0  0.8608868210100511 0.2915529624123485 0  0.8564587278129661 0.3252810076656521 0  0.8456420398399974 0.3566681034823128 0  0.8300190024508409 0.386473274141738 0  0.8080439002090288 0.4113791449378583 0  0.7820898412789854 0.4333228493863273 0  0.7528887515343571 0.4484628517701967 0  0.721846370135469 0.4603175769714657 0  -0.03673596291810996 0.7140537202031813 0  0.6453088375077541 0.4832940722012126 0  0.604337903513035 0.4986912108526844 0  0.5630125292007087 0.5152800385149644 0  0.5213525199072503 0.5329938312400755 0  0.4792311905754524 0.5516150010264121 0  0.4365924108652557 0.5708760078639434 0  0.3933476241698658 0.5905525338417041 0  0.3493865505848889 0.6104756093081507 0  0.3045413132412412 0.6300877399822801 0  0.2587410130637683 0.6489500504076738 0  0.2119029358618847 0.6665496689629336 0  0.1639528540128622 0.6824014774553742 0  0.1149192225224304 0.6954764697113118 0  0.06497438945554893 0.7053275700782012 0  0.01435262550260734 0.7115195777499725 0  0.6860578495661713 0.4697618599124 0  -0.08787135202138087 0.7115984532282837 0  -0.1385270513533469 0.7046454273506476 0  -0.1882773909877485 0.6935433068592795 0  -0.2366383002313686 0.6783546988648972 0  -0.2836721954207749 0.6617384132271522 0  -0.3295878175045261 0.6438031655267681 0  -0.3744835777500894 0.6249547737376193 0  -0.4184179749257442 0.6055235467152796 0  -0.4616327772549907 0.5864131942176409 0  -0.504261749335002 0.5676343493333585 0  -0.5463950733557817 0.5493825132949469 0  -0.5881030811592053 0.5318573157321362 0  -0.6294251404455208 0.5152459652269857 0  -0.6704144561294744 0.4998763562196585 0  -0.7111934480395933 0.4863593860615137 0  -0.7310967502627156 0.481100394670452 0  -0.6907364551614326 0.4931401070835099 0  -0.608809733587151 0.5234237640114725 0  -0.5253857334685607 0.5584323878113863 0  -0.4401033463626399 0.5959423996067453 0  -0.3521563911413559 0.6344631862862111 0  -0.2603016558176761 0.6702517157369229 0  -0.1635397396168021 0.6995466053350254 0  -0.06233035409999341 0.7133775789347616 0  0.03973222653925156 0.7089137889371715 0  0.1395623791030735 0.6892956739124587 0  0.2354536701896006 0.6579416461938324 0  0.327075422596263 0.6203506043011948 0  0.4150500787905954 0.5806766891130619 0  0.5003488163410049 0.5422169601128569 0  0.5837215298052025 0.506873575260707 0  0.6656030344429709 0.4765686347993096 0  -0.6499552268953143 0.5074601430546879 0  -0.5672973294096766 0.540521603491653 0  -0.4830139035040062 0.5769688744660602 0  -0.3965747103701879 0.6152457749228366 0  -0.3067630458571228 0.6529098865543564 0  -0.2126995689305284 0.6863220784008072 0  -0.1132869410942777 0.7086608416602892 0  -0.01112019247664883 0.713356303407792 0  0.09004769589911352 0.7008348392131711 0  0.1880829468302442 0.6747778417940253 0  0.2817661473521234 0.639644506818641 0  0.3714733632294613 0.6005061246873881 0  0.4579811216771093 0.5611809313665503 0  0.5422316295701094 0.5239845158062651 0  0.6248612174361508 0.4909049127209888 0  -0.8895240203496186 0.2912123265691675 0  -0.7936705403167681 0.4595111753947698 0  -0.8465127887824722 0.4172468504436507 0  -0.8802653301378308 0.3587249914912248 0  -0.762642518046536 0.470728531142817 0  -0.8208285628880123 0.4393060265856262 0  -0.8624180650834212 0.3872077351930167 0  -0.8842957438320688 0.3246415400157315 0  -0.7470557099160622 0.4768266030262435 0  -0.7780782840987236 0.4647361830554462 0  -0.8072893855858183 0.4495466998309107 0  -0.8332622649234876 0.4275530322618067 0  -0.8553066060067367 0.4026634331943059 0  -0.8709356809938846 0.3728519308026103 0  -0.8819197490749363 0.3415371148306839 0  -0.8865394724484248 0.3078486780040305 0  -0.8886152970752325 0.2694521175871669 0  -0.8881500279392954 -0.209095445481878 0  -0.8879264190751426 -0.1659534194456536 0  -0.8888487037404802 -0.1227550461636022 0  -0.8903322114994147 -0.07937976506313039 0  -0.892137711464553 -0.03572502029115674 0  -0.893043815806045 0.008178774997245529 0  -0.8930751981457347 0.0521409439184861 0  -0.8922394823082892 0.09604275567373255 0  -0.8905237233083018 0.1397006045210186 0  -0.8891181972779456 0.1830813323011052 0  -0.8882803957054896 0.2262907057295204 0  -0.8890128037708674 -0.230839984898723 0  -0.8878507971421289 -0.1875213915117127 0  -0.8895457919764992 -0.1010950632824114 0  -0.892702803061066 -0.01378859160737515 0  -0.8927675775993489 0.07410742399743944 0  -0.8897750794385934 0.1614178822480848 0  -0.8882538676895175 0.2478663257047534 0  -0.8883000053378094 -0.1443708391627909 0  -0.8912706973119039 -0.05760547255937404 0  -0.8931648716612003 0.03016003984341225 0  -0.891418507891351 0.1179233539820021 0  -0.8886113951007556 0.2047015383370257 0  -0.8794278186338926 -0.2982353647357674 0  -0.8451637930530131 -0.3563714080265022 0  -0.7918847218772943 -0.3979674772889509 0  -0.8836900788378391 -0.2642383393959998 0  -0.8614094410384443 -0.3266075583573533 0  -0.8192656946542533 -0.3781662398120968 0  -0.7606498820643293 -0.4086847728494488 0  -0.8860075647297284 -0.2474655807403703 0  -0.88121994
[...]
<PointData  Vectors="f_2664"> 
<DataArray  type="Float64"  Name="f_2664"  NumberOfComponents="3" format="ascii">1.1296258182414907e-07 -4.2470592554526908e-05 0.0000000000000000e+00  1.0845934004636607e-06 -8.0278905683249093e-05 0.0000000000000000e+00  -9.3958262862596280e-07 -7.9321899629119052e-05 0.0000000000000000e+00  -2.6736323237577359e-06 -7.6988605011308659e-05 0.0000000000000000e+00  -3.9408143449652110e-06 -7.3313599631795979e-05 0.0000000000000000e+00  -4.6733676844606979e-06 -6.8742225053146556e-05 0.0000000000000000e+00  -4.7038298024050072e-06 -6.3117208192131231e-05 0.0000000000000000e+00  -3.8966470541754518e-06 -5.6740391794157869e-05 0.0000000000000000e+00  -2.2683909433950930e-06 -4.9827940188820694e-05 0.0000000000000000e+00  3.1779142883401886e-06 -7.9839482935395090e-05 0.0000000000000000e+00  3.3009550131607605e-06 -3.4826961953919842e-05 0.0000000000000000e+00  6.9307154506105002e-06 -2.7276160602221434e-05 0.0000000000000000e+00  1.0992773480970753e-05 -1.9796519387276231e-05 0.0000000000000000e+00  1.5409903857927940e-05 -1.2398883749401073e-05 0.0000000000000000e+00  2.0019233078906100e-05 -5.3646726078924575e-06 0.0000000000000000e+00  2.4723687099071480e-05 1.2388416597990288e-06 0.0000000000000000e+00  2.9478930097527863e-05 7.2414982430804627e-06 0.0000000000000000e+00  -2.7696649917940239e-05 1.2488883905759160e-05 0.0000000000000000e+00  5.1140268283520269e-06 -7.8050481024808920e-05 0.0000000000000000e+00  6.6817942131141955e-06 -7.4988420502027791e-05 0.0000000000000000e+00  7.7057969201901892e-06 -7.0789190535984671e-05 0.0000000000000000e+00  8.0550508628251702e-06 -6.5589214940583518e-05 0.0000000000000000e+00  7.6773971339303802e-06 -5.9623892035950804e-05 0.0000000000000000e+00  6.5711668020286021e-06 -5.3058093253815998e-05 0.0000000000000000e+00  4.7683300695370158e-06 -4.6071168587953222e-05 0.0000000000000000e+00  2.3118622703130782e-06 -3.8770597410608060e-05 0.0000000000000000e+00  -6.8394350025019592e-07 -3.1385608169806682e-05 0.0000000000000000e+00  -4.1361216992881929e-06 -2.4006640953966823e-05 0.0000000000000000e+00  -7.9539330995123127e-06 -1.6739780534525255e-05 0.0000000000000000e+00  -1.2070426186439333e-05 -9.6357680726053070e-06 0.0000000000000000e+00  -1.6384914683396351e-05 -2.7963753551932689e-06 0.0000000000000000e+00  -2.0830000212053640e-05 3.6942812398952229e-06 0.0000000000000000e+00  -2.5319049694066546e-05 9.6303178820087433e-06 0.0000000000000000e+00  -2.3144308341540852e-05 6.6830511724599058e-06 0.0000000000000000e+00  2.7202921046603893e-05 4.3715531279756241e-06 0.0000000000000000e+00  1.7700044956811992e-05 -8.8683662680480824e-06 0.0000000000000000e+00  8.9182958565249699e-06 -2.3514098824843205e-05 0.0000000000000000e+00  1.6768764244028093e-06 -3.8586574299229950e-05 0.0000000000000000e+00  -3.1847832832925178e-06 -5.3299108370105084e-05 0.0000000000000000e+00  -4.7960361680651176e-06 -6.6057167640540983e-05 0.0000000000000000e+00  -3.3744863305564649e-06 -7.5355764431831690e-05 0.0000000000000000e+00  4.9407742393938287e-08 -7.9974518533259073e-05 0.0000000000000000e+00  -1.8611454393693908e-05 4.2331030499143268e-07 0.0000000000000000e+00  7.2707582026407988e-06 -7.3018034620902443e-05 0.0000000000000000e+00  7.9581684782202079e-06 -6.2694064433386544e-05 0.0000000000000000e+00  5.7511667279717460e-06 -4.9605814358412278e-05 0.0000000000000000e+00  8.7806672164568505e-07 -3.5088365524001603e-05 0.0000000000000000e+00  -6.0073787129478029e-06 -2.0357231204623513e-05 0.0000000000000000e+00  -1.4199174358664534e-05 -6.2209481362856544e-06 0.0000000000000000e+00  4.1794848193621841e-06 -7.9111012489714336e-05 0.0000000000000000e+00  3.1926259841736898e-05 1.0124817489981643e-05 0.0000000000000000e+00  -9.9827244859205867e-06 -1.3155588223247524e-05 0.0000000000000000e+00  -2.3595421587846370e-06 -2.7691645904848706e-05 0.0000000000000000e+00  3.6178170458622069e-06 -4.2443528138563766e-05 0.0000000000000000e+00  7.2143580636734021e-06 -5.6408562968869607e-05 0.0000000000000000e+00  7.9733190906153194e-06 -6.8305103821673281e-05 0.0000000000000000e+00  5.9559789042261959e-06 -7.6670922455436332e-05 0.0000000000000000e+00  2.1375701041204647e-06 -8.0232466354551249e-05 0.0000000000000000e+00  -1.8554420555331359e-06 -7.8330782608188409e-05 0.0000000000000000e+00  -4.3401710800595927e-06 -7.1066974218820172e-05 0.0000000000000000e+00  -4.3969016445697354e-06 -5.9977936830270998e-05 0.0000000000000000e+00  -1.2305185884512809e-06 -4.6337502579150945e-05 0.0000000000000000e+00  5.0535993250601311e-06 -3.1057812925777174e-05 0.0000000000000000e+00  1.3152569921289483e-05 -1.6097401100123494e-05 0.0000000000000000e+00  2.2389262354102251e-05 -2.0796404232001727e-06 0.0000000000000000e+00  -4.5572727058782242e-05 1.1940224400418919e-05 0.0000000000000000e+00  -3.4257326276271477e-05 1.7170291905368624e-05 0.0000000000000000e+00  -3.9741205605315635e-05 1.7685348044396015e-05 0.0000000000000000e+00  -4.3637393721686604e-05 1.5308753747890007e-05 0.0000000000000000e+00  -3.0835451089189411e-05 1.4706193124403252e-05 0.0000000000000000e+00  -3.6766308877886891e-05 1.7185837904568584e-05 0.0000000000000000e+00  -4.2070504417372287e-05 1.6818916591351020e-05 0.0000000000000000e+00  -4.4849611282051260e-05 1.3699302044613293e-05 0.0000000000000000e+00  -2.9266829001656527e-05 1.3573917006843588e-05 0.0000000000000000e+00  -3.2536886562599248e-05 1.6109555646799891e-05 0.0000000000000000e+00  -3.5475926561494835e-05 1.7167703181310404e-05 0.0000000000000000e+00  -3.8238266499053831e-05 1.7522145346706675e-05 0.0000000000000000e+00  -4.0288825311503720e-05 1.6917750082811415e-05 0.0000000000000000e+00  -4.3081532127359018e-05 1.6120705309634595e-05 0.0000000000000000e+00  -4.4510132051008799e-05 1.4564605177470794e-05 0.0000000000000000e+00  -4.5348872123297604e-05 1.2853366569918434e-05 0.0000000000000000e+00  -4.5688583322599174e-05 1.0798328706060821e-05 0.0000000000000000e+00  -4.6278778241815392e-05 -1.1791675437559405e-05 0.0000000000000000e+00  -4.5952179499009010e-05 -9.4763013168862679e-06 0.0000000000000000e+00  -4.5406155458830852e-05 -7.2880592337559637e-06 0.0000000000000000e+00  -4.4845898504750367e-05 -5.2314396813533456e-06 0.0000000000000000e+00  -4.4324253270745303e-05 -3.3004269445908111e-06 0.0000000000000000e+00  -4.4068332792280074e-05 -1.4638165616510995e-06 0.0000000000000000e+00  -4.4045492553744064e-05 3.5251147607171863e-07 0.0000000000000000e+00  -4.4256014423793287e-05 2.2049028557901752e-06 0.0000000000000000e+00  -4.4701607623011847e-05 4.1695123405945756e-06 0.0000000000000000e+00  -4.5151606866411793e-05 6.2581559617095513e-06 0.0000000000000000e+00  -4.5558870499775968e-05 8.4752707966928030e-06 0.0000000000000000e+00  -4.6135966562318598e-05 -1.2963016450297494e-05 0.0000000000000000e+00  -4.6150375653594525e-05 -1.0619674956894059e-05 0.0000000000000000e+00  -4.5118104201578637e-05 -6.2436480243860670e-06 0.0000000000000000e+00  -4.4168329958737478e-05 -2.3757657720959130e-06 0.0000000000000000e+00  -4.4121133572645993e-05 1.2705724379898010e-06 0.0000000000000000e+00  -4.4919324793074503e-05 5.1965703974767479e-06 0.0000000000000000e+00  -4.5660880427554192e-05 9.6253009623767550e-06 0.0000000000000000e+00  -4.5687775164790766e-05 -8.3652702073941916e-06 0.0000000000000000e+00  -4.4566148034658262e-05 -4.2467492172625849e-06 0.0000000000000000e+00  -4.4028521900269833e-05 -5.5660215276866140e-07 0.0000000000000000e+00  -4.4470618841936252e-05 3.1672607122265554e-06 0.0000000000000000e+00  -4.5365614702792774e-05 7.3504418935598619e-06 0.0000000000000000e+00  -2.7612034030565918e-05 -1.3593679203689168e-05 0.0000000000000000e+00  -4.4154736281645805e-05 -1.6362400113064778e-05 0.0000000000000000e+00  -4.0105221903128769e-05 -1.8659478656852451e-05 0.0000000000000000e+00  -3.4435336206670331e-05 -1.8210479680736850e-05 0.0000000000000000e+00  -4.5356622496856007e-05 -1.4725081343083105e-05 0.0000000000000000e+00  -4.2391368151238811e-05 -1.7734057472694626e-05 0.0000000000000000e+00  -3.7084593863130708e-05 -1.8286945873198533e-05 0.0000000000000000e+00  -3.0957446099047251e-05 -1.5934595606873819e-05 0.0000000000000000e+00  -4.5837010877804274e-05 -1.3860950139825788e-05 0.0000000000000000e+00  -4.4950723178929028e-05 -1.5589417748466308e-05 0.0000000000000000e+00  -4.3447145501139497e-05 -1.7099186256515338e-05 0.0000000000000000e+00  -4.0818228147372394e-05 -1.7983736829339158e-05 0.0000000000000000e+00  -3.8595519683860058e-05 -1.8558944993562969e-05 0.0000000000000000e+00  -3.5734568300068219e-05 -1.8257327165102743e-05 0.0000000000000000e+00  -3.2698678168712597e-05 -1.7233931987817266e-05 0.0000000000000000e+00  -2.9340693327453809e-05 -1.4896666593800716e-05 0.0000000000000000e+00  3.1565458437408639e-06 7.0773484423413256e-05 0.0000000000000000e+00  -2.0273522254625665e-05 -5.0998632022678066e-06 0.0000000000000000e+00  -1.5405470129231950e-05 1.2595163780506213e-06 0.0000000000000000e+00  -1.0593956134416944e-05 8.0574080828853218e-06 0.0000000000000000e+00  -5.9559380985143963e-06 1.5184476909678702e-05 0.0000000000000000e+00  -1.6378007164843538e-06 2.2437765628357004e-05 0.0000000000000000e+00  2.2589007939392561e-06 2.9751492376718143e-05 0.0000000000000000e+00  5.6308402380220982e-06 3.7019369625328885e-05 0.0000000000000000e+00  8.3395893761086194e-06 4.4092745210362932e-05 0.0000000000000000e+00  1.0250348968657875e-05 5.0693298192883909e-05 0.0000000000000000e+00  1.1318104412753970e-05 5.6683682821774484e-05 0.0000000000000000e+00  1.1529023261830011e-05 6.1876648424573924e-05 0.0000000000000000e+00  1.0919548919147903e-05 6.6124687900577869e-05 0.0000000000000000e+00  9.5796944823166091e-06 6.9221063662560555e-05 0.0000000000000000e+00  7.6885833088469046e-06 7.1056633040894571e-05 0.0000000000000000e+00  5.4647399309638305e-06 7.1548314013848154e-05 0.0000000000000000e+00  -2.5145566771199831e-05 -1.0861834157258859e-05 0.0000000000000000e+00  1.0183787461252193e-06 6.8749165043633425e-05 0.0000000000000000e+00  -7.1704777771892786e-07 6.5704937581390543e-05 0.0000000000000000e+00  -1.9038494636029298e-06 6.1884452591148172e-05 0.0000000000000000e+00  -2.3855493860112838e-06 5.7134779988565929e-05 0.0000000000000000e+00  -2.1803023620321428e-06 5.1896612414665935e-05 0.0000000000000000e+00  -1.2185427476517275e-06 4.5998158015927073e-05 0.0000000000000000e+00  4.9268944711767914e-07 3.9619964632526426e-05 0.0000000000000000e+00  2.9338900978565883e-06 3.2814832672685124e-05 0.0000000000000000e+00  6.0058606889159256e-06 2.5861665359822135e-05 0.0000000000000000e+00  9.5548714583616604e-06 1.8900689736138327e-05 0.0000000000000000e+00  1.3503300981446951e-05 1.2005466206386983e-05 0.0000000000000000e+00  1.7767287924745425e-05 5.2519536933768732e-06 0.0000000000000000e+00  2.2263162469953561e-05 -1.3057022523937360e-06 0.0000000000000000e+00  2.6877695844991118e-05 -7.5205255972534922e-06 0.0000000000000000e+00  3.1530850112178885e-05 -1.3190994402669819e-05 0.0000000000000000e+00  3.3961604321411430e-05 -1.5935961999931418e-05 0.0000000000000000e+00  2.9293515306136417e-05 -1.0427248672007396e-05 0.0000000000000000e+00  1.9987190403780911e-05 1.9797419534284995e-06 0.0000000000000000e+00  1.1484274442703993e-05 1.5442646542497267e-05 0.0000000000000000e+00  4.4127509359854186e-06 2.9332686110075556e-05 0.0000000000000000e+00  -4.5195368818165956e-07 4.2843262097534807e-05 0.0000000000000000e+00  -2.3707410101014203e-06 5.4605042589648737e-05 0.0000000000000000e+00  -1.3779437958866240e-06 6.3818480367060519e-05 0.0000000000000000e+00  2.0513817075804384e-06 6.9900196331739228e-05 0.0000000000000000e+00  6.6070089381115742e-06 7.1484621098155758e-05 0.0000000000000000e+00  1.0330854702848584e-05 6.7817982539289626e-05 0.0000000000000000e+00  1.1529628434392533e-05 5.9391334212245980e-05 0.0000000000000000e+00  9.3953228770542376e-06 4.7451628270619323e-05 0.0000000000000000e+00  4.0162123582156714e-06 3.3397021689761992e-05 0.0000000000000000e+00  -3.7528224781891572e-06 1.8793444431266214e-05 0.0000000000000000e+00  -1.2987127934113628e-05 4.6423406430141681e-06 0.0000000000000000e+00  -2.2805036723500040e-05 -8.1034292637939360e-06 0.0000000000000000e+00  2.4578580207382093e-05 -4.3847164546652854e-06 0.0000000000000000e+00  1.5601520926449138e-05 8.6109681268348238e-06 0.0000000000000000e+00  7.7246248692631893e-06 2.2379079305193906e-05 0.0000000000000000e+00  1.6078641864758741e-06 3.6287790626359575e-05 0.0000000000000000e+00  -1.7931849200919501e-06 4.9013692903953005e-05 0.0000000000000000e+00  -2.2829156591388727e-06 5.9705419003865335e-05 0.0000000000000000e+00  9.0904451281320632e-08 6.7331449321686706e-05 0.0000000000000000e+00  4.3135489396027521e-06 7.1299874797082561e-05 0.0000000000000000e+00  8.6905921627908090e-06 7.0301806182281688e-05 0.0000000000000000e+00  1.1329581178417043e-05 6.4144896760113027e-05 0.0000000000000000e+00  1.0892035999746968e-05 5.3778313451976810e-05 0.0000000000000000e+00  7.0852504201544894e-06 4.0606925410998527e-05 0.0000000000000000e+00  3.6986039467258916e-07 2.6095497656275618e-05 0.0000000000000000e+00  -8.2354144793759933e-06 1.1611499295504858e-05 0.0000000000000000e+00  -1.7857751527412091e-05 -1.9102621039125484e-06 0.0000000000000000e+00  5.1311414161901969e-05 -1.4701735449172462e-05 0.0000000000000000e+00  4.0536957314312023e-05 -2.0313375611396438e-05 0.0000000000000000e+00  4.5921241661775155e-05 -2.0585522499124940e-05 0.0000000000000000e+00  4.9646476896812193e-05 -1.8128023970236020e-05 0.0000000000000000e+00  3.7146618797784395e-05 -1.8076290799056108e-05 0.0000000000000000e+00  4.3017806711431148e-05 -2.0246855112611446e-05 0.0000000000000000e+00  4.8095371264261616e-05 -1.9607211634526134e-05 0.0000000000000000e+00  5.0703775191510211e-05 -1.6471659353431658e-05 0.0000000000000000e+00  3.5585626482772742e-05 -1.7066003197843868e-05 0.0000000000000000e+00  3.8837999363681294e-05 -1.9352712749554432e-05 0.0000000000000000e+00  4.1748445082805329e-05 -2.0278343884575924e-05 0.0000000000000000e+00  4.4458895088165120e-05 -2.0495054285816700e-05 0.0000000000000000e+00  4.6494248646126806e-05 -1.9833092738972702e-05 0.0000000000000000e+00  4.9067017994374521e-05 -1.8916078906367534e-05 0.0000000000000000e+00  5.0404233419881894e-05 -1.7347543549252931e-05 0.0000000000000000e+00  5.1117632288238008e-05 -1.5607921190616919e-05 0.0000000000000000e+00  5.1353598543562622e-05 -1.3548310383262018e-05 0.0000000000000000e+00  5.0424664190024354e-05 8.6441352029824197e-06 0.0000000000000000e+00  5.0230009646613415e-05 6.3411941949252381e-06 0.0000000000000000e+00  4.9788185329565603e-05 4.1622967922086642e-06 0.0000000000000000e+00  4.9322363437128828e-05 2.1206900384802134e-06 0.0000000000000000e+00  4.8885478136130966e-05 2.0978627621673185e-07 0.0000000000000000e+00  4.8708740353312390e-05 -1.5931048690168479e-06 0.0000000000000000e+00  4.8777639705471230e-05 -3.3646103461137815e-06 0.0000000000000000e+00  4.9093818438216456e-05 -5.1623969000406560e-06 0.0000000000000000e+00  4.9677560015931440e-05 -7.0623262162403205e-06 0.0000000000000000e+00  5.0308495885616234e-05 -9.0894750360931512e-06 0.0000000000000000e+00  5.0939967397523269e-05 -1.1253742272544830e-05 0.0000000000000000e+00  5.0270153100945284e-05 9.7924259190285892e-06 0.0000000000000000e+00  5.0364045710176876e-05 7.4784694096537451e-06 0.0000000000000000e+00  4.9546615398116475e-05 3.1238978040812622e-06 0.0000000000000000e+00  4.8766901100331505e-05 -6.9935340576800709e-07 0.0000000000000000e+00  4.8905234068667064e-05 -4.2564217978055408e-06 0.0000000000000000e+00  4.9982078037398087e-05 -8.0587456426038826e-06 0.0000000000000000e+00  5.1179446111931764e-05 -1.2385986625684534e-05 0.0000000000000000e+00  5.0018477941999679e-05 5.2342391887571637e-06 0.0000000000000000e+00  4.9089640299026152e-05 1.1449310076543079e-06 0.0000000000000000e+00  4.8713075421384916e-05 -2.4791776572408391e-06 0.0000000000000000e+00  4.9369151118324398e-05 -6.0927782605661372e-06 0.0000000000000000e+00  5.0630181692971894e-05 -1.0153827723654597e-05 0.0000000000000000e+00  4.8302115502397536e-05 1.3162794410224391e-05 0.0000000000000000e+00  4.4313345924595881e-05 1.5480440573587281e-05 0.0000000000000000e+00  3.8686357868853111e-05 1.4948372130770587e-05 0.0000000000000000e+00  4.9507769331051785e-05 1.1543805560133398e-05 0.0000000000000000e+00  4.6609763993937911e-05 1.4578252990646278e-05 0.0000000000000000e+00  4.1279536915535722e-05 1.5012511432666333e-05 0.0000000000000000e+00  3.5216994937179766e-05 1.2531993469344189e-05 0.0000000000000000e+00  5.0005327317081147e-05 1.0692411856219809e-05 0.0000000000000000e+00  4.9125093479078402e-05 1.2403688021847382e-05 0.0000000000000000e+00  4.7653213899692384e-05 1.3924844955932661e-05 0.0000000000000000e+00  4.4947543410236861e-05 1.4760255094957593e-05 0.0000000000000000e+00  4.2784294972812827e-05 1.5330876503920809e-05 0.0000000000000000e+00  3.9954827731955261e-05 1.4984085382829268e-05 0.0000000000000000e+00  3.6944609235705989e-05 1.3901723369710346e-05 0.0000000000000000e+00  3.3628281370362567e-05 1.1464967393019189e-05 0.0000000000000000e+00  1.6027351013271130e-05 3.5702895137893589e-05 0.0000000000000000e+00  -1.1334927840710845e-05 -4.1869461835687913e-05 0.0000000000000000e+00  4.3938396787109193e-06 -5.6608258665174387e-05 0.0000000000000000e+00  2.7300236192385880e-05 -2.4864965052398316e-05 0.0000000000000000e+00  -2.1316716786606588e-05 2.0455495596651764e-05 0.0000000000000000e+00  9.3930102337807321e-07 4.6338251457521664e-05 0.0000000000000000e+00  -4.2576811025314832e-05 4.3361022534794862e-06 0.0000000000000000e+00  4.7738146882922948e-05 -7.6467063470422858e-06 0.0000000000000000e+00  4.7131237575502199e-05 1.8795871125191075e-06 0.0000000000000000e+00  -4.2664009090505418e-05 -5.4481002381489310e-06 0.0000000000000000e+00  -3.3823277450367752e-05 7.2954303860849716e-07 0.0000000000000000e+00  -3.5333227424397127e-05 3.8881426697740837e-06 0.0000000000000000e+00  -2.3917465740876328e-05 1.1960378295416142e-05 0.0000000000000000e+00  -3.2541709530435462e-05 -2.2132019135750035e-06 0.0000000000000000e+00  -2.0673162794653704e-05 -5.1100435364552901e-06 0.0000000000000000e+00  -4.0686473092096114e-05 -8.4672439117364138e-07 0.0000000000000000e+00  -1.0991497165028789e-05 1.6347439875867330e-05 0.0000000000000000e+00  -7.2982489784644666e-06 -1.0298163058271557e-05 0.0000000000000000e+00  1.9072905387266343e-06 1.5203297918514763e-05 0.0000000000000000e+00  6.3535239238379365e-06 -1.4500702979532645e-05 0.0000000000000000e+00  1.6922943600849748e-05 1.2974113096669599e-05 0.0000000000000000e+00  1.9533511610667741e-05 -1.5174179188910059e-05 0.0000000000000000e+00  2.7903478358769198e-05 -9.5275726503372599e-07 0.0000000000000000e+00  3.8584962642264196e-05 -4.7044923188318464e-06 0.0000000000000000e+00  4.0434321205980968e-05 -8.0956840340460055e-06 0.0000000000000000e+00  4.5468885937475439e-05 -3.1329112727259626e-06 0.0000000000000000e+00  4.0514372001407413e-05 1.8325237523916041e-06 0.0000000000000000e+00  -3.3345501976861540e-05 -2.5166772323086046e-06 0.0000000000000000e+00  8.3725800291656233e-06 4.3125190458097723e-05 0.0000000000000000e+00  3.9268831458590994e-05 -1.3164192005707119e-06 0.0000000000000000e+00  2.6966778436456502e-05 1.8435430772247926e-05 0.0000000000000000e+00  -8.8437268303145371e-06 3.7188906501109451e-05 0.0000000000000000e+00  -2.5433644830859968e-05 -1.7104525186761685e-05 0.0000000000000000e+00  -2.8597422109181540e-06 -5.4508862671142746e-05 0.0000000000000000e+00  1.5968486807736110e-05 -4.0890098893766375e-05 0.0000000000000000e+00  -3.5470154665006365e-05 -6.3971170805680807e-06 0.0000000000000000e+00  3.0438857394732498e-05 -1.6009658086630700e-05 0.0000000000000000e+00  3.7721011575603174e-05 -2.8471745609504892e-06 0.0000000000000000e+00  -2.2078496844544023e-05 -2.2844436499103525e-05 0.0000000000000000e+00  4.5611631380359752e-05 -1.3303077694392833e-05 0.0000000000000000e+00  -1.350698083417