<?xml version="1.0"?>
<VTKFile type="UnstructuredGrid"  version="0.1"  >
<UnstructuredGrid>
<Piece  NumberOfPoints="4153" NumberOfCells="8064">
<Points>
<DataArray  type="Float64"  NumberOfComponents="3"  format="ascii">-0.4158300201032685 -0.5787319218089126 0  -0.04353056658204696 -0.7083137139595197 0  -0.0938538724769943 -0.704201147686642 0  -0.1434719319256795 -0.6958904584967327 0  -0.1921318228771157 -0.683990283250395 0  -0.2399899700355037 -0.6697129330691743 0  -0.2865399004058166 -0.6508232473836877 0  -0.331370309301768 -0.628846217922034 0  -0.3744656090304834 -0.6047167309536521 0  0.007071196238962633 -0.7078693484815504 0  -0.4557231565204216 -0.5531355195001034 0  -0.4946660886631702 -0.527760907472492 0  -0.532730024009717 -0.5028786026595428 0  -0.5700323715526271 -0.478855978226151 0  -0.6068814268752497 -0.4561790689244311 0  -0.6433273580379688 -0.4349676563006636 0  -0.6795173874973562 -0.4161071726067975 0  0.6663557230981256 -0.4220636939446554 0  0.05747413093514465 -0.7029077826014997 0  0.1072224142147701 -0.6936134680188152 0  0.1559209328303332 -0.6803927303622431 0  0.2032673837564556 -0.6637615342295893 0  0.249141080959909 -0.644642929513513 0  0.2935621148244403 -0.6236540478446833 0  0.3366007786776848 -0.6013775783175196 0  0.3783486063835345 -0.5783521973058084 0  0.4190217694845016 -0.5551244137758033 0  0.4587779212923153 -0.532048453475468 0  0.4977699072538257 -0.5094088447818765 0  0.5361078133070138 -0.4875365967558885 0  0.5739229131137268 -0.466555471449005 0  0.6112934014695254 -0.4469031502058395 0  0.6483863722496179 -0.4293304477346049 0  0.6297169673504164 -0.4381219681019433 0  -0.6612320530357837 -0.4254632874497306 0  -0.5885118107018067 -0.4674180874699876 0  -0.5137888666178794 -0.5152423057324005 0  -0.4358601383739385 -0.5658612317042679 0  -0.3531343725367239 -0.6169133552854821 0  -0.2634755447835411 -0.6607266159590135 0  -0.1679278845881527 -0.6904029633558109 0  -0.06875679599804867 -0.7068112641209648 0  0.5926386445602008 -0.4566776822463108 0  0.1317237402062864 -0.6874573782537649 0  0.226387718200158 -0.6544749385766697 0  0.3152434829521156 -0.6126522678638868 0  0.3988129153710182 -0.5667448858697984 0  0.4783564515250543 -0.5206738280943942 0  0.5550875276065517 -0.4769538675366897 0  0.03232676559417498 -0.7059474073529221 0  -0.6970194754202024 -0.4081659970107355 0  0.5169983031019552 -0.4983488214778342 0  0.4390036392632437 -0.5435550192948009 0  0.3576210500607749 -0.5899041376748613 0  0.2715303044287089 -0.6343511616272031 0  0.1797827852390276 -0.6724561856598887 0  0.08245691841944153 -0.6987814352278765 0  -0.01823308254303175 -0.7086680284866067 0  -0.1187721597024681 -0.7005452295010179 0  -0.2160830131847312 -0.677243894220505 0  -0.3091650523857785 -0.6401212566763159 0  -0.3954849766030805 -0.5919907552791073 0  -0.4753147869377815 -0.5404187054600342 0  -0.5514656177000363 -0.4907126271884815 0  -0.6251148007945022 -0.4455224969436369 0  0.8119767083788452 -0.2360126545380256 0  0.7234634476747804 -0.3970752750561254 0  0.7721156498973816 -0.3554491420895105 0  0.8033372069009753 -0.2999575568319361 0  0.6953198646043547 -0.4101030048429927 0  0.7487307742162913 -0.3774898012280339 0  0.7862920374382573 -0.3265951064160773 0  0.8067729601318488 -0.2676053528810858 0  0.6810359650280254 -0.41703650133901 0  0.7093215110382801 -0.4030192450647439 0  0.7361777678559502 -0.3874595216468238 0  0.7600352756287919 -0.3656810698144481 0  0.7806990980433861 -0.3418358526260122 0  0.7941540910126224 -0.3131077947541305 0  0.8044111369856165 -0.2835784652635047 0  0.8088325676867961 -0.2516954878850398 0  0.8113456856722473 -0.2153776056436995 0  0.816293814689989 0.2413255798053323 0  0.8159817333409148 0.2004464505714093 0  0.8169995530648149 0.1593845077749112 0  0.8185786188208689 0.1180110487581612 0  0.8204275910589489 0.07621877366844731 0  0.8210686140779699 0.03407733834496993 0  0.8205676491236625 -0.008149723440992076 0  0.8189271754419376 -0.05028357995191823 0  0.8161480182548821 -0.09205476133207478 0  0.8136780200637402 -0.1334270043160952 0  0.8118030589535929 -0.1744902310389636 0  0.8175311944497728 0.2619172943239571 0  0.8159202323015462 0.220895706427054 0  0.8177516161748921 0.1387418797070645 0  0.8208914181152688 0.05517095618530506 0  0.8198933522885568 -0.02924025006489369 0  0.8148768966547716 -0.1127859806638119 0  0.811351439262235 -0.1949464133052957 0  0.816397081779768 0.179948856630747 0  0.8195644514807822 0.09718878994707407 0  0.8209564225678351 0.01296345986111367 0  0.8175802273616724 -0.07124128278189379 0  0.8126449178394533 -0.1539925699253347 0  0.6782582318196682 0.4508230701891749 0  0.8106739210376064 0.326109139668075 0  0.7811374031275716 0.3823938045505135 0  0.7340361675037803 0.4250479815379543 0  0.813388517437607 0.2936425246069813 0  0.7948096764174656 0.3533439176671316 0  0.7585452758803403 0.4048251608068177 0  0.7064889074305086 0.4384315337852547 0  0.8150498101322469 0.2776920122725227 0  0.8115080046340371 0.3096915899171858 0  0.8021948943388579 0.3395689172257974 0  0.7892007743034686 0.3684895373123989 0  0.7694483805251687 0.3928201999442953 0  0.7463552729789171 0.4150655222212245 0  0.7201900733656444 0.4312289197823795 0  0.6925056768080152 0.445420910377665 0  -0.03357941707436909 0.7848272046265945 0  0.6250353152531285 0.4781942089989448 0  0.588932433383803 0.499950727230735 0  0.5524185730662917 0.5233374465978498 0  0.5153965818087359 0.5481783081497542 0  0.477593389858968 0.5740527666547691 0  0.4388513116591949 0.6006275002406616 0  0.3989784644078879 0.6275719034670331 0  0.3577261399609976 0.6545683545185136 0  0.3147916622098991 0.680781038175164 0  0.2700591174765223 0.7056337332294483 0  0.2234319591237147 0.7284263173875075 0  0.1748724029320101 0.7485261653559521 0  0.124498917004747 0.7646975333738724 0  0.07266297276439583 0.7763842031190958 0  0.01981736543357117 0.7830678917638207 0  0.6609122827949715 0.4589000257551411 0  -0.08685297327525565 0.7803476182719171 0  -0.1392440991310658 0.7703503649320381 0  -0.1901812404513515 0.7554277594504276 0  -0.2390238496173799 0.7354894788534632 0  -0.2858524977828071 0.7136350256418181 0  -0.3308063602521779 0.6898013235426952 0  -0.3739908883029718 0.6645747383701457 0  -0.4154840848278876 0.6383383793879648 0  -0.4556269165660748 0.6122748595774631 0  -0.4947068778766404 0.5865350390694969 0  -0.5328917723743348 0.5613879795013339 0  -0.5703357932344598 0.5371092694255131 0  -0.6071619779755673 0.5139402629745921 0  -0.6435367602844833 0.4923558306224051 0  -0.6796625979274143 0.4731683916588439 0  -0.6971351459413042 0.4651644326705205 0  -0.6614429398552961 0.4827128584115025 0  -0.58882254318337 0.525403505964901 0  -0.5139014590258567 0.5738750343538835 0  -0.4356905954266544 0.6252750857168209 0  -0.3526083448295376 0.6773064483837459 0  -0.2626723968277775 0.7248567583265716 0  -0.1649176834126888 0.7633650857020859 0  -0.06027897239241298 0.7832777752665009 0  0.04633923547736313 0.7803984100353273 0  0.1498932338059221 0.7571136564517483 0  0.2469832986239931 0.7173329804060784 0  0.3364707454733173 0.6678022325718141 0  0.4190662911488111 0.6140737108028239 0  0.4965959938628158 0.5610104045441231 0  0.5707344018710889 0.5115159159037211 0  0.6427979977194708 0.4684652055355156 0  -0.6253766466879321 0.5030754266000226 0  -0.5516958084832274 0.5491325716184878 0  -0.4752892786347431 0.599347953771254 0  -0.3949668461837121 0.6515335655491962 0  -0.3085562307772148 0.7019235794583094 0  -0.2149824845896673 0.7460274974046726 0  -0.1131960366429964 0.7759922909819759 0  -0.006806643537046079 0.7846561782048745 0  0.09873828806190432 0.7711366453954528 0  0.1994125280086612 0.7389227385541384 0  0.2926581833518703 0.6934228202706179 0  0.3785586136496158 0.6411130500983866 0  0.4583509820717819 0.587276429022826 0  0.5339962150907334 0.53559601510177 0  0.6070034659087387 0.4889946506170763 0  -0.8382126061877166 0.276510591119995 0  -0.753133583002456 0.4391977997833733 0  -0.800591547120697 0.3966613279445257 0  -0.8306188532410186 0.3405969675209888 0  -0.7254958992487517 0.4526522403437609 0  -0.7778107561765811 0.4190591714730148 0  -0.8143226938191596 0.3676005235584905 0  -0.8335919686405585 0.3081698806622998 0  -0.7114700834332894 0.4597605998283996 0  -0.7392402847350423 0.4453834703058918 0  -0.765540940503013 0.4292683559463348 0  -0.7888033698353225 0.40705797797599 0  -0.8088123573606099 0.3828303404553332 0  -0.8218686629995101 0.3539358518962427 0  -0.8315155156550544 0.324189571281431 0  -0.8354218401601868 0.2922407568134136 0  -0.8372616985316699 0.2559038072039048 0  -0.8377253637492711 -0.2004513102788956 0  -0.8376964094285292 -0.1596122252507284 0  -0.8390605184109146 -0.1185927493713935 0  -0.8410098480622858 -0.07725907502465018 0  -0.843252233328422 -0.03551523401494001 0  -0.8443350754527326 0.006585670128228681 0  -0.8442975584402634 0.04877633357237232 0  -0.8431456638700727 0.0908803587736919 0  -0.8408461632923703 0.1326382783047783 0  -0.8388097013923294 0.173991857265012 0  -0.8373404283079663 0.2150369634569756 0  -0.8387426506699222 -0.2210475589796944 0  -0.8374867514319521 -0.180042922102059 0  -0.8399991765783827 -0.0979711654783301 0  -0.8439359019607344 -0.01448794501314316 0  -0.8438623435306818 0.0698510021996339 0  -0.8397930014011953 0.1533591366054809 0  -0.8370744215775857 0.2354803390790689 0  -0.8382815273958097 -0.1391365999740338 0  -0.8421810570128777 -0.05646054155171973 0  -0.8444517962398154 0.02768086218617141 0  -0.8420493567730266 0.111830575721436 0  -0.8379812134077838 0.1945477106133711 0  -0.8311257031314951 -0.285072570325543 0  -0.8008504471284172 -0.340890967452915 0  -0.7531983640084412 -0.3830191051581803 0  -0.8341823095067873 -0.2526945338358664 0  -0.8147996770445064 -0.312029305366707 0  -0.7779861577387175 -0.3631537283794305 0  -0.7254328871271495 -0.3961527793801046 0  -0.8360022374126472 -0.2367731688841505 0  -0.832094847964
[...]
<PointData  Vectors="f_3230"> 
<DataArray  type="Float64"  Name="f_3230"  NumberOfComponents="3" format="ascii">-7.0475841896789920e-07 -3.4669726418058338e-05 0.0000000000000000e+00  2.5375183378266925e-06 -6.3927025915102136e-05 0.0000000000000000e+00  3.4142901675821136e-07 -6.2952669900488993e-05 0.0000000000000000e+00  -1.5659970184416882e-06 -6.0909561150773833e-05 0.0000000000000000e+00  -3.0008612633471718e-06 -5.7805118378731899e-05 0.0000000000000000e+00  -3.8474137900067501e-06 -5.3898518561149151e-05 0.0000000000000000e+00  -4.0036459744212026e-06 -4.9420608368262225e-05 0.0000000000000000e+00  -3.4937739400403859e-06 -4.4653318727384818e-05 0.0000000000000000e+00  -2.3430966861346292e-06 -3.9654624659882261e-05 0.0000000000000000e+00  4.8193897970221322e-06 -6.3824075644218785e-05 0.0000000000000000e+00  1.5996295545667730e-06 -2.9432429066030164e-05 0.0000000000000000e+00  4.3837119663061173e-06 -2.4145596257079433e-05 0.0000000000000000e+00  7.6652767224956381e-06 -1.8790994447070966e-05 0.0000000000000000e+00  1.1351150561392218e-05 -1.3428823427619048e-05 0.0000000000000000e+00  1.5355770089640251e-05 -8.1725585571154233e-06 0.0000000000000000e+00  1.9523844317885412e-05 -3.1643906040937072e-06 0.0000000000000000e+00  2.3852221614638111e-05 1.6027290782241905e-06 0.0000000000000000e+00  -1.9660163804555221e-05 7.5546697939802660e-06 0.0000000000000000e+00  6.9835573144046601e-06 -6.2666045392053573e-05 0.0000000000000000e+00  8.8369958040681970e-06 -6.0509405731090353e-05 0.0000000000000000e+00  1.0217694712271314e-05 -5.7459183869821014e-05 0.0000000000000000e+00  1.0998367584003751e-05 -5.3617665554603602e-05 0.0000000000000000e+00  1.1118266003110790e-05 -4.9158393188183996e-05 0.0000000000000000e+00  1.0545658734325434e-05 -4.4193695226126839e-05 0.0000000000000000e+00  9.2928469404116527e-06 -3.8869649369465809e-05 0.0000000000000000e+00  7.3823271504890489e-06 -3.3263662744573776e-05 0.0000000000000000e+00  4.9096149558819439e-06 -2.7557477483522719e-05 0.0000000000000000e+00  1.9430850520387887e-06 -2.1814863311869365e-05 0.0000000000000000e+00  -1.4338827206716977e-06 -1.6120246941035814e-05 0.0000000000000000e+00  -5.1605424829855175e-06 -1.0493302815445639e-05 0.0000000000000000e+00  -9.1195268905905298e-06 -5.0486236067621142e-06 0.0000000000000000e+00  -1.3257044588048411e-05 1.8520497220521467e-07 0.0000000000000000e+00  -1.7510630422957659e-05 5.1080681965161502e-06 0.0000000000000000e+00  -1.5445094567392015e-05 2.7217887907536693e-06 0.0000000000000000e+00  2.1736239996459839e-05 -6.7136778610463469e-07 0.0000000000000000e+00  1.3337451247750134e-05 -1.0805343529951799e-05 0.0000000000000000e+00  5.9692700143094335e-06 -2.1468107736012909e-05 0.0000000000000000e+00  3.7803809388238252e-07 -3.2064454696128185e-05 0.0000000000000000e+00  -2.9995411646478253e-06 -4.2152690596092525e-05 0.0000000000000000e+00  -4.0047007160238275e-06 -5.1702441364247024e-05 0.0000000000000000e+00  -2.3556807393780756e-06 -5.9529816538734690e-05 0.0000000000000000e+00  1.4158609841165973e-06 -6.3575127455940970e-05 0.0000000000000000e+00  -1.1195414171226089e-05 -2.4565713818338626e-06 0.0000000000000000e+00  9.5946649617514182e-06 -5.9084632442430260e-05 0.0000000000000000e+00  1.1144937968656511e-05 -5.1462865689451232e-05 0.0000000000000000e+00  9.9984636519704495e-06 -4.1561684684124085e-05 0.0000000000000000e+00  6.2128900420206866e-06 -3.0423492147993640e-05 0.0000000000000000e+00  2.9819867328582821e-07 -1.8958487177318734e-05 0.0000000000000000e+00  -7.1079922677986076e-06 -7.7974959635610951e-06 0.0000000000000000e+00  5.9289145908275028e-06 -6.3375114893481104e-05 0.0000000000000000e+00  2.5968242547956528e-05 3.9422376915990087e-06 0.0000000000000000e+00  -3.2536387275549828e-06 -1.3304979786313770e-05 0.0000000000000000e+00  3.4820642192172402e-06 -2.4688264235769277e-05 0.0000000000000000e+00  8.4209105545162582e-06 -3.6094458752058629e-05 0.0000000000000000e+00  1.0918706954234468e-05 -4.6732672302727879e-05 0.0000000000000000e+00  1.0692749440919369e-05 -5.5633236898196746e-05 0.0000000000000000e+00  7.9601099516641742e-06 -6.1706240125397046e-05 0.0000000000000000e+00  3.6809989539073556e-06 -6.4009784692561014e-05 0.0000000000000000e+00  -6.6098252468112643e-07 -6.2072824726146938e-05 0.0000000000000000e+00  -3.4707801081857591e-06 -5.5893396756547431e-05 0.0000000000000000e+00  -3.8065704472379347e-06 -4.7012512523021226e-05 0.0000000000000000e+00  -1.6644019879774864e-06 -3.7317079119388797e-05 0.0000000000000000e+00  2.9223033865033592e-06 -2.6808738573827973e-05 0.0000000000000000e+00  9.4463789345851879e-06 -1.6141946684428522e-05 0.0000000000000000e+00  1.7456460551260686e-05 -5.6653521777731484e-06 0.0000000000000000e+00  -3.5361245477636444e-05 8.7222968846774904e-06 0.0000000000000000e+00  -2.5898905078464437e-05 1.2400802301122880e-05 0.0000000000000000e+00  -3.0758406842136233e-05 1.3185090265746903e-05 0.0000000000000000e+00  -3.4103811421388212e-05 1.1349208963186135e-05 0.0000000000000000e+00  -2.2677584805127958e-05 9.9809254143852870e-06 0.0000000000000000e+00  -2.8172682610578485e-05 1.2685397497706057e-05 0.0000000000000000e+00  -3.2752154746187402e-05 1.2530595566907709e-05 0.0000000000000000e+00  -3.4940476300751018e-05 1.0056699207932899e-05 0.0000000000000000e+00  -2.1320120612529210e-05 9.1065150592171298e-06 0.0000000000000000e+00  -2.4263798072660537e-05 1.1333241371461546e-05 0.0000000000000000e+00  -2.7001097960856438e-05 1.2546129421965861e-05 0.0000000000000000e+00  -2.9418225521308393e-05 1.2977460953616668e-05 0.0000000000000000e+00  -3.1096118434684655e-05 1.2538243224678160e-05 0.0000000000000000e+00  -3.3614755886237995e-05 1.1970398861389511e-05 0.0000000000000000e+00  -3.4813448244933921e-05 1.0748154586701287e-05 0.0000000000000000e+00  -3.5245200434436408e-05 9.4156300755523240e-06 0.0000000000000000e+00  -3.5274420995931036e-05 7.8726393419855932e-06 0.0000000000000000e+00  -3.5988756683989096e-05 -6.9901854457283349e-06 0.0000000000000000e+00  -3.5373581817495686e-05 -5.3601456525408701e-06 0.0000000000000000e+00  -3.4727210330988833e-05 -3.8922722478676326e-06 0.0000000000000000e+00  -3.4192715470416054e-05 -2.5639027786889879e-06 0.0000000000000000e+00  -3.3783455985458510e-05 -1.3439623264365651e-06 0.0000000000000000e+00  -3.3575414076989869e-05 -1.9608345961510651e-07 0.0000000000000000e+00  -3.3535075595734970e-05 9.3604190262650620e-07 0.0000000000000000e+00  -3.3664470702722047e-05 2.0979814958210913e-06 0.0000000000000000e+00  -3.3973575087082720e-05 3.3491610803157242e-06 0.0000000000000000e+00  -3.4381669660669177e-05 4.7124406843132563e-06 0.0000000000000000e+00  -3.4874427791204023e-05 6.2187266678422054e-06 0.0000000000000000e+00  -3.6065439397107879e-05 -7.8576088879156779e-06 0.0000000000000000e+00  -3.5687276823746020e-05 -6.1542055440294031e-06 0.0000000000000000e+00  -3.4439115128330812e-05 -3.2123469897928883e-06 0.0000000000000000e+00  -3.3660084495188888e-05 -7.6497886341454848e-07 0.0000000000000000e+00  -3.3578411749136024e-05 1.5103798545225953e-06 0.0000000000000000e+00  -3.4157175667896630e-05 4.0129245598650366e-06 0.0000000000000000e+00  -3.5083910241291049e-05 7.0261045501681336e-06 0.0000000000000000e+00  -3.5040423218482981e-05 -4.6068890726460651e-06 0.0000000000000000e+00  -3.3968236681493635e-05 -1.9394996484676598e-06 0.0000000000000000e+00  -3.3534652945242424e-05 3.6914618638287120e-07 0.0000000000000000e+00  -3.3808909380511851e-05 2.7080668901541387e-06 0.0000000000000000e+00  -3.4620888313685811e-05 5.4456241330494178e-06 0.0000000000000000e+00  -2.0024215661287402e-05 -6.8290866672400335e-06 0.0000000000000000e+00  -3.4869575955941124e-05 -1.0504017755514559e-05 0.0000000000000000e+00  -3.1486173131218708e-05 -1.2258198658132328e-05 0.0000000000000000e+00  -2.6472398992212902e-05 -1.1556046434156441e-05 0.0000000000000000e+00  -3.5662041667121947e-05 -9.1981208601507540e-06 0.0000000000000000e+00  -3.3391597541000268e-05 -1.1551706573996457e-05 0.0000000000000000e+00  -2.8870153102443449e-05 -1.1875805308960837e-05 0.0000000000000000e+00  -2.3227337217607380e-05 -9.3285869600703944e-06 0.0000000000000000e+00  -3.5932328536248107e-05 -8.5368518088474557e-06 0.0000000000000000e+00  -3.5454846064151217e-05 -9.8782971600778836e-06 0.0000000000000000e+00  -3.4274398035933373e-05 -1.1065596169799915e-05 0.0000000000000000e+00  -3.2041588965853959e-05 -1.1729756445638467e-05 0.0000000000000000e+00  -3.0158317055797935e-05 -1.2118494171288403e-05 0.0000000000000000e+00  -2.7645312141229260e-05 -1.1730604820429770e-05 0.0000000000000000e+00  -2.4843741089961295e-05 -1.0579453869161026e-05 0.0000000000000000e+00  -2.1788113124918919e-05 -8.4274858537096040e-06 0.0000000000000000e+00  2.2163419542050893e-06 5.6162608328137222e-05 0.0000000000000000e+00  -1.3333083820124382e-05 1.7761562509505151e-07 0.0000000000000000e+00  -8.9546711744649345e-06 5.1538248808909746e-06 0.0000000000000000e+00  -4.7219303809814860e-06 1.0379462196946108e-05 0.0000000000000000e+00  -7.8167342423630813e-07 1.5730175041973548e-05 0.0000000000000000e+00  2.7607093621481274e-06 2.1104597819766597e-05 0.0000000000000000e+00  5.8168569547059499e-06 2.6455059475028032e-05 0.0000000000000000e+00  8.3119265971219903e-06 3.1715439866299299e-05 0.0000000000000000e+00  1.0160013721265741e-05 3.6799597751390870e-05 0.0000000000000000e+00  1.1287774538492773e-05 4.1551556020057933e-05 0.0000000000000000e+00  1.1681884767372790e-05 4.5881877104379994e-05 0.0000000000000000e+00  1.1347979094895972e-05 4.9645824588344915e-05 0.0000000000000000e+00  1.0352029168385254e-05 5.2744847393586882e-05 0.0000000000000000e+00  8.7784211593702346e-06 5.5039725976270012e-05 0.0000000000000000e+00  6.7716504214394936e-06 5.6418483450789432e-05 0.0000000000000000e+00  4.5142575845052395e-06 5.6795318438455171e-05 0.0000000000000000e+00  -1.7832486006289048e-05 -4.5388945581713470e-06 0.0000000000000000e+00  9.4221677920804502e-08 5.4650806831718902e-05 0.0000000000000000e+00  -1.6921001758299012e-06 5.2391463861977048e-05 0.0000000000000000e+00  -3.0110673565573833e-06 4.9479849968489545e-05 0.0000000000000000e+00  -3.7784534044699693e-06 4.5995786183845200e-05 0.0000000000000000e+00  -4.0490546001400946e-06 4.2197743896116347e-05 0.0000000000000000e+00  -3.6206274218655041e-06 3.7802671254023951e-05 0.0000000000000000e+00  -2.5080674382412028e-06 3.3026083359497811e-05 0.0000000000000000e+00  -7.5576633503061398e-07 2.7986787253298032e-05 0.0000000000000000e+00  1.6143354302898527e-06 2.2779879074595753e-05 0.0000000000000000e+00  4.4827769909049618e-06 1.7517932406579428e-05 0.0000000000000000e+00  7.7911681022797773e-06 1.2258272067494005e-05 0.0000000000000000e+00  1.1464404228613456e-05 7.0544373753899472e-06 0.0000000000000000e+00  1.5412090105194435e-05 1.9621096759311068e-06 0.0000000000000000e+00  1.9558570767481914e-05 -2.9533790867485524e-06 0.0000000000000000e+00  2.3860060198053284e-05 -7.6308722770645721e-06 0.0000000000000000e+00  2.6000071474284324e-05 -9.9558288737854618e-06 0.0000000000000000e+00  2.1769512329402889e-05 -5.3860538158963657e-06 0.0000000000000000e+00  1.3403155618665063e-05 4.5392557968609514e-06 0.0000000000000000e+00  6.0860898412270488e-06 1.4888067499675254e-05 0.0000000000000000e+00  3.6647420890415096e-07 2.5389672987882016e-05 0.0000000000000000e+00  -3.1446257944160610e-06 3.5436409668068854e-05 0.0000000000000000e+00  -3.9954499221078539e-06 4.4184239701987428e-05 0.0000000000000000e+00  -2.4070762123665140e-06 5.0954550058513834e-05 0.0000000000000000e+00  1.1259351489283637e-06 5.5504059166843031e-05 0.0000000000000000e+00  5.6648419039322890e-06 5.6741290461131748e-05 0.0000000000000000e+00  9.6297205835948011e-06 5.3996858335724331e-05 0.0000000000000000e+00  1.1605307071539716e-05 4.7846173529838349e-05 0.0000000000000000e+00  1.0810819808591778e-05 3.9211038061644732e-05 0.0000000000000000e+00  7.1396095556502217e-06 2.9102748422238690e-05 0.0000000000000000e+00  1.0455763070880873e-06 1.8417048345795571e-05 0.0000000000000000e+00  -6.8179765844211833e-06 7.7732034397434127e-06 0.0000000000000000e+00  -1.5631776824595650e-05 -2.2773460434862351e-06 0.0000000000000000e+00  1.7496109774418921e-05 -4.7830340069553114e-07 0.0000000000000000e+00  9.5839578781549561e-06 9.6602345400199593e-06 0.0000000000000000e+00  2.9869193277741153e-06 2.0156064294679245e-05 0.0000000000000000e+00  -1.7298872551849702e-06 3.0565078221760879e-05 0.0000000000000000e+00  -3.9181713861485198e-06 4.0047984164520873e-05 0.0000000000000000e+00  -3.5402772817218172e-06 4.7966365465093018e-05 0.0000000000000000e+00  -8.4487765125693271e-07 5.3586319718633944e-05 0.0000000000000000e+00  3.3612718015304501e-06 5.6585301919417582e-05 0.0000000000000000e+00  7.8191750398626355e-06 5.5848894696264108e-05 0.0000000000000000e+00  1.0935828406267882e-05 5.1301177273454104e-05 0.0000000000000000e+00  1.1576848543699050e-05 4.3777798769820765e-05 0.0000000000000000e+00  9.3313189348426938e-06 3.4298739650956683e-05 0.0000000000000000e+00  4.3541151443013644e-06 2.3787044265205008e-05 0.0000000000000000e+00  -2.6974103464003364e-06 1.3072796016954034e-05 0.0000000000000000e+00  -1.1158456193780831e-05 2.6642597427324966e-06 0.0000000000000000e+00  4.1289308750166625e-05 -1.0864977898982222e-05 0.0000000000000000e+00  3.2263878860003930e-05 -1.4658149314116317e-05 0.0000000000000000e+00  3.7059476739091047e-05 -1.5316433127102791e-05 0.0000000000000000e+00  4.0245370553354350e-05 -1.3481842070690934e-05 0.0000000000000000e+00  2.9075462438324811e-05 -1.2383966561235870e-05 0.0000000000000000e+00  3.4521798409673495e-05 -1.4905371085015986e-05 0.0000000000000000e+00  3.8917800235164293e-05 -1.4606318675083685e-05 0.0000000000000000e+00  4.0967733790462782e-05 -1.2185602550820827e-05 0.0000000000000000e+00  2.7713277768567222e-05 -1.1536541630473534e-05 0.0000000000000000e+00  3.0652890492622848e-05 -1.3658507770335460e-05 0.0000000000000000e+00  3.3361130424367894e-05 -1.4787996502260440e-05 0.0000000000000000e+00  3.5751648388609009e-05 -1.5153665872120319e-05 0.0000000000000000e+00  3.7458164001394861e-05 -1.4715337467704864e-05 0.0000000000000000e+00  3.9748905520353097e-05 -1.4077200866673718e-05 0.0000000000000000e+00  4.0845848397475210e-05 -1.2866307815942657e-05 0.0000000000000000e+00  4.1213585542780481e-05 -1.1541887832036274e-05 0.0000000000000000e+00  4.1170204113993659e-05 -1.0028140046159827e-05 0.0000000000000000e+00  4.1416507795859145e-05 4.2754115194357465e-06 0.0000000000000000e+00  4.0813781723225807e-05 2.6642070946709021e-06 0.0000000000000000e+00  4.0163508318774085e-05 1.2181766229875319e-06 0.0000000000000000e+00  3.9623771037976626e-05 -8.0158728181028678e-08 0.0000000000000000e+00  3.9210467607380109e-05 -1.2632237881588826e-06 0.0000000000000000e+00  3.9003145602254523e-05 -2.3628468575935902e-06 0.0000000000000000e+00  3.8978073203799662e-05 -3.4374921314083741e-06 0.0000000000000000e+00  3.9137090789122221e-05 -4.5337857286397873e-06 0.0000000000000000e+00  3.9500718702216472e-05 -5.7109256914927554e-06 0.0000000000000000e+00  3.9990620343858335e-05 -6.9989231504535789e-06 0.0000000000000000e+00  4.0598999211027870e-05 -8.4322563993746525e-06 0.0000000000000000e+00  4.1522347830823863e-05 5.1242587133641512e-06 0.0000000000000000e+00  4.1122494815115745e-05 3.4478985023820313e-06 0.0000000000000000e+00  3.9871595214529301e-05 5.5166029884150598e-07 0.0000000000000000e+00  3.9085097389953126e-05 -1.8192012388258285e-06 0.0000000000000000e+00  3.9035119740015227e-05 -3.9799153986037896e-06 0.0000000000000000e+00  3.9722348718887551e-05 -6.3377346343268264e-06 0.0000000000000000e+00  4.0889081629778804e-05 -9.2081655520382856e-06 0.0000000000000000e+00  4.0478925049763190e-05 1.9207205789622544e-06 0.0000000000000000e+00  3.9399592136193173e-05 -6.8723324563025949e-07 0.0000000000000000e+00  3.8968134669505328e-05 -2.9003893825735311e-06 0.0000000000000000e+00  3.9303025798061312e-05 -5.1072723141479601e-06 0.0000000000000000e+00  4.0283803187664537e-05 -7.6952252052895416e-06 0.0000000000000000e+00  4.0423625729350173e-05 7.7474641811040583e-06 0.0000000000000000e+00  3.7152164668009947e-05 9.5252665555310177e-06 0.0000000000000000e+00  3.2279976856219931e-05 8.7977843959217719e-06 0.0000000000000000e+00  4.1169451226674852e-05 6.4515162111612493e-06 0.0000000000000000e+00  3.9029597534978205e-05 8.8317793252441278e-06 0.0000000000000000e+00  3.4588077221463634e-05 9.1025996237424692e-06 0.0000000000000000e+00  2.9088628759636662e-05 6.4934378546093172e-06 0.0000000000000000e+00  4.1425504419815390e-05 5.8023018986429338e-06 0.0000000000000000e+00  4.1015911092183156e-05 7.1312521804488466e-06 0.0000000000000000e+00  3.9884870590867293e-05 8.3259301567707347e-06 0.0000000000000000e+00  3.7603638500523211e-05 8.9509160858015692e-06 0.0000000000000000e+00  3.5835540688509778e-05 9.3594481294825116e-06 0.0000000000000000e+00  3.3405518753175273e-05 8.9622700908974825e-06 0.0000000000000000e+00  3.0669594353232145e-05 7.7848909147768805e-06 0.0000000000000000e+00  2.7706504870988934e-05 5.6102395012169524e-06 0.0000000000000000e+00  1.0394952350744861e-05 3.0570423254924802e-05 0.0000000000000000e+00  -4.3181428858985222e-06 -3.6036693813382748e-05 0.0000000000000000e+00  4.7572308865874059e-06 -4.5977388359107335e-05 0.0000000000000000e+00  2.0344395353096334e-05 -2.2827976950893813e-05 0.0000000000000000e+00  -1.3274290828206466e-05 2.0011315729342053e-05 0.0000000000000000e+00  2.0610074458896227e-06 3.8243090468075942e-05 0.0000000000000000e+00  -3.2204550339178836e-05 2.6908541459879529e-06 0.0000000000000000e+00  3.7775895535072236e-05 -5.2449829662228518e-06 0.0000000000000000e+00  3.7905119798962312e-05 -6.2620893101051722e-07 0.0000000000000000e+00  -3.2412131930256624e-05 -2.1846125156224752e-06 0.0000000000000000e+00  -2.4730509199199995e-05 4.7667595486720860e-06 0.0000000000000000e+00  -2.5380003032034094e-05 5.3899726430154245e-06 0.0000000000000000e+00  -1.5953281666047993e-05 1.1286857338826167e-05 0.0000000000000000e+00  -2.2771958851202284e-05 -1.5698442315058002e-06 0.0000000000000000e+00  -1.3464920073528965e-05 -4.0660692949253120e-06 0.0000000000000000e+00  -3.0018315610847847e-05 -1.0925454598522319e-07 0.0000000000000000e+00  -6.5332527183520214e-06 1.4287751335316947e-05 0.0000000000000000e+00  -3.7339969386385920e-06 -8.3081815665005420e-06 0.0000000000000000e+00  2.3473173304964430e-06 1.3121912969398818e-05 0.0000000000000000e+00  5.8357452291034773e-06 -1.1712070609715419e-05 0.0000000000000000e+00  1.2717446102184115e-05 1.1429417126606886e-05 0.0000000000000000e+00  1.5074314032924325e-05 -1.2456008188777390e-05 0.0000000000000000e+00  2.0999050252911841e-05 -3.7115609657522698e-07 0.0000000000000000e+00  3.0718376732036964e-05 -7.6838064375839483e-06 0.0000000000000000e+00  3.1388118922313903e-05 -8.3706686070604666e-06 0.0000000000000000e+00  3.5524416261286054e-05 -2.9280217306037130e-06 0.0000000000000000e+00  3.0899452615839167e-05 3.0488892229840755e-06 0.0000000000000000e+00  -2.3987471901520091e-05 -5.1373474854293603e-06 0.0000000000000000e+00  5.9441007957060316e-06 3.5770644160271922e-05 0.0000000000000000e+00  3.0142535164362583e-05 2.0663318802288163e-06 0.0000000000000000e+00  1.8828872419470145e-05 1.7853300880529161e-05 0.0000000000000000e+00  -3.8079987876479799e-06 3.1899671940015463e-05 0.0000000000000000e+00  -1.6634394120657798e-05 -1.5287258462539451e-05 0.0000000000000000e+00  1.1651115647608735e-06 -4.4982590676287515e-05 0.0000000000000000e+00  1.2028916121840924e-05 -3.3963872197666941e-05 0.0000000000000000e+00  -2.5281877930402680e-05 -6.7116186019446106e-06 0.0000000000000000e+00  2.3103241666783667e-05 -1.3929592619949129e-05 0.0000000000000000e+00  2.8689108744710755e-05 -2.2085554287608109e-06 0.0000000000000000e+00  -1.3202448805273571e-05 -2.1711808579324315e-05 0.0000000000000000e+00  3.6568247747823992e-05 -8.7564897733572268e-06 0.0000000000000000e+00  -7.5303672730178