<?xml version="1.0"?>
<VTKFile type="UnstructuredGrid"  version="0.1"  >
<UnstructuredGrid>
<Piece  NumberOfPoints="4153" NumberOfCells="8064">
<Points>
<DataArray  type="Float64"  NumberOfComponents="3"  format="ascii">-0.4163753685660649 -0.6435472148805108 0  -0.03734872271406491 -0.8244257365261107 0  -0.09178551276103682 -0.8184577512554246 0  -0.1449719966511407 -0.8064312854394186 0  -0.1963175907839633 -0.7889760075495816 0  -0.2457694888283877 -0.7677628907515527 0  -0.2926150226432406 -0.7409902187178157 0  -0.3366133361003785 -0.7107622523200886 0  -0.3777372529028185 -0.6779769936435682 0  0.01754512484672252 -0.8239562010605961 0  -0.4524390349514578 -0.6091280153735916 0  -0.4866108051753735 -0.5747722875248639 0  -0.5189661337853496 -0.5407816123922452 0  -0.549803165183757 -0.5076581060743464 0  -0.5795220935470439 -0.4760068433132912 0  -0.6084442177149387 -0.4461846357575858 0  -0.6366833024443862 -0.4189680036815872 0  0.6336706181969168 -0.4140575219236979 0  0.07205090416464256 -0.8171136993285401 0  0.1253606954913618 -0.804178596714027 0  0.1767816463689847 -0.7857389308952232 0  0.2257740701097025 -0.7624919998603891 0  0.2720997991818703 -0.7356648065361315 0  0.3157007233449012 -0.7060655445387333 0  0.3566595941580527 -0.6745392244016163 0  0.3951040350424441 -0.6417707327969122 0  0.4314170463958897 -0.6086243273373884 0  0.4658673056739698 -0.5755574913705777 0  0.498755127606023 -0.5430010425710545 0  0.530305397468866 -0.5113231370136757 0  0.5608621487993497 -0.4808491148707431 0  0.5905861927204211 -0.4520425797695041 0  0.6197237952115039 -0.4257448942901773 0  0.604945530756306 -0.4387654357236783 0  -0.6223461436117311 -0.4323535528765215 0  -0.5647578903729885 -0.4917536693887342 0  -0.5029883547472385 -0.5577071466299769 0  -0.4346338580865051 -0.626315532185841 0  -0.3575586331110188 -0.6945308118400487 0  -0.2695129298479785 -0.7548465555012968 0  -0.1709083080515144 -0.7984726046122566 0  -0.06467717644552232 -0.8222325584611611 0  0.5757424428614444 -0.4664311036612667 0  0.1513433389759897 -0.7955901526005437 0  0.2492796246704645 -0.7494863110691241 0  0.3364876347048064 -0.690487407070389 0  0.4135155546609566 -0.6252288563919305 0  0.4824809531076222 -0.5592116962972108 0  0.5457174552829965 -0.4960502858284711 0  0.04489901477751434 -0.8213226994307227 0  -0.6502633888497535 -0.4068614472322118 0  0.5146832241758338 -0.527052366286612 0  0.4488537718017513 -0.5920647330338231 0  0.3761870257192215 -0.6582466818394191 0  0.2942382297622803 -0.7211668183384531 0  0.2016204983091683 -0.7746643410951524 0  0.09890218747971793 -0.8113756809930849 0  -0.009903681407080199 -0.8250025490818709 0  -0.1185797318330679 -0.8131941949027507 0  -0.2211501247140651 -0.7788322833972048 0  -0.3148955061387423 -0.7260694269344382 0  -0.3976844783223603 -0.6613536408224695 0  -0.4697713341144757 -0.591953041085735 0  -0.5345868267883719 -0.5241291696460928 0  -0.5939717170590739 -0.4610288987097476 0  0.7502921835169439 -0.2249882238483337 0  0.6788587552340135 -0.3798811244179275 0  0.7185454318275183 -0.3366257923758987 0  0.7436237767991604 -0.2843455883307832 0  0.6568339295755338 -0.3974435281903372 0  0.69987295286968 -0.3595937872844635 0  0.7290310376907301 -0.3088942059080841 0  0.7456839952746157 -0.2542811176620224 0  0.6450915740235685 -0.4059877368161414 0  0.6678312302274605 -0.3878334437087998 0  0.6895028189417625 -0.369889129996727 0  0.7089244113483932 -0.3472569566484769 0  0.7266127245355575 -0.3241762178538494 0  0.735339274731166 -0.2964177201517774 0  0.7434169757107867 -0.2690313841783143 0  0.747286945783416 -0.2394714218469675 0  0.7499687628076999 -0.2058020304848422 0  0.7530792184855486 0.2267639612594615 0  0.7542084224149719 0.1886220549702889 0  0.7565815022588334 0.1499691385736112 0  0.7592152813503547 0.1107373457139049 0  0.7618262835448576 0.07089126159221953 0  0.7628733195983584 0.03057327086413391 0  0.7624906918731401 -0.009858574946777046 0  0.7606757008952062 -0.05014737875210711 0  0.7574070423955223 -0.089921651063262 0  0.7542039825956861 -0.1290963672306093 0  0.7513530740196318 -0.1676872120175178 0  0.7539887716718158 0.245861483530678 0  0.7534385217137123 0.2077457220188761 0  0.7579085558180004 0.130426604244348 0  0.7625255452851916 0.05076401267312065 0  0.7617661227343498 -0.03003774675806052 0  0.7558165842837906 -0.1095879904008027 0  0.7504391470915497 -0.1867993925641664 0  0.7553348363862785 0.1693667225182355 0  0.7606223716163849 0.09091289764987028 0  0.7628556869232581 0.01035575683675877 0  0.7591037298871971 -0.07013295248194479 0  0.7527084461727935 -0.1484653650081955 0  0.6438062671828804 0.4371503039040329 0  0.7488262031057188 0.3053945138335245 0  0.7253249606571576 0.3585881875645222 0  0.6874279395148407 0.4026343138630479 0  0.7503359445292763 0.2752532139887761 0  0.7355991124094262 0.3307948989542722 0  0.707479681949273 0.3816986142912929 0  0.6659651847249882 0.4201017151439106 0  0.7516385639463664 0.2604582621128912 0  0.7487053594017077 0.2901003795608015 0  0.7414163421386664 0.3178741368877185 0  0.7324040807999527 0.345608575151425 0  0.7160501941031818 0.3692678428289445 0  0.6975614768895316 0.3922567571790495 0  0.6766409922393305 0.4106148801315078 0  0.6546978389310881 0.4287862546727306 0  -0.02958301617108493 0.8785070991654224 0  0.6028822062138655 0.4767368771121084 0  0.5746719938906713 0.5069670313413973 0  0.545681676565786 0.539182674647122 0  0.5155726058578394 0.5730187482775401 0  0.4839321455851072 0.6079363543040516 0  0.4504535582493461 0.6435200281461139 0  0.4148193641106657 0.6793260225064837 0  0.3766697393198441 0.7149200403431279 0  0.3355828881993777 0.7492180951317107 0  0.2914105170496414 0.7814743619087139 0  0.2440611388250843 0.8107265899113292 0  0.1936232247306876 0.8361625558248599 0  0.1403661825976629 0.8563210859865279 0  0.08488786985240308 0.8704305404901559 0  0.02796181370755793 0.8778189556948761 0  0.6305128133982951 0.4492645836132997 0  -0.08669246496964493 0.871490894965777 0  -0.1423398881070677 0.8576669625947606 0  -0.1956889363506404 0.8376967038384326 0  -0.2459940128506076 0.811808952470251 0  -0.2934530735262362 0.7834692243713988 0  -0.3377236999401387 0.7520322467712182 0  -0.3789894104421045 0.7185593153751 0  -0.4174508778873227 0.6837037815038982 0  -0.4534615372180645 0.6487521842229806 0  -0.4874829867931312 0.6140262167588681 0  -0.5197879314993241 0.5799027008270198 0  -0.550666374424185 0.5467496688734613 0  -0.5804026335158676 0.5149080758800337 0  -0.6092553756357363 0.484915562196238 0  -0.6374627316886298 0.4575895742117395 0  -0.6509797374131848 0.4454750711459617 0  -0.6231429906176024 0.4710655126531869 0  -0.5656744351648452 0.5307677921974102 0  -0.5038346749009274 0.596881021944015 0  -0.4357110316487857 0.6662123205209156 0  -0.3587118588623327 0.7354502269204289 0  -0.2701137297294472 0.7981018413429365 0  -0.169326931882927 0.8482204624386369 0  -0.05824909712087386 0.8758514734582102 0  0.05656216370081766 0.8750254219325653 0  0.1673159248194916 0.8469239217407756 0  0.2681346733839475 0.7965442899839255 0  0.3564883434741909 0.7322478064502539 0  0.4329253850188544 0.6614279075446096 0  0.4999615247638357 0.5903768730451885 0  0.5602847822905064 0.5229699967058167 0  0.616487150636404 0.462789340990548 0  -0.5948399320929458 0.4998569583823401 0  -0.5353971860610668 0.5632282828140377 0  -0.4707100890807361 0.6313457913349089 0  -0.3986256527324607 0.7013091050251921 0  -0.3159619538134343 0.7680280294536996 0  -0.2215347850823013 0.8258350267286554 0  -0.1147402443433621 0.8653268579724586 0  -0.0007456219608397833 0.879055906791121 0  0.1128619964563618 0.8641767907032148 0  0.2192533971130136 0.8240726744946141 0  0.3138898740864993 0.7656591391814254 0  0.3961208403476535 0.6972337989792164 0  0.4674415323228301 0.6256757435345524 0  0.5308219807702075 0.5559784835184127 0  0.5887822282123844 0.4917671860429504 0  -0.7639983841535576 0.2544581756182294 0  -0.6951123879057153 0.4107399342751692 0  -0.7337299563133283 0.3668329323034317 0  -0.7579614816758854 0.3139631980029844 0  -0.6734770673957985 0.4283922381484722 0  -0.715569358904619 0.3899839264780012 0  -0.7440792711751759 0.3390049473244687 0  -0.7597892171707556 0.2838319159690608 0  -0.6620227387213229 0.4370943042991843 0  -0.6842602205787929 0.4187804108787099 0  -0.7054628334491497 0.400475002581026 0  -0.7243332159003176 0.3775374963244951 0  -0.7412690803961335 0.3540587522519597 0  -0.7501272969678042 0.326271575070031 0  -0.7578242136317679 0.2986515071471736 0  -0.7612721124447658 0.2690174344410674 0  -0.7634051337863074 0.2352864078822306 0  -0.7631477161976672 -0.1978297206982986 0  -0.7644899007649438 -0.1596970067638676 0  -0.7671804426588642 -0.1210534715944727 0  -0.7701661344583585 -0.08181480832965879 0  -0.7731591359418614 -0.04196065138757085 0  -0.7746308630519568 -0.001605912539417144 0  -0.7746664140947016 0.0388820976483962 0  -0.7732685813100816 0.07924691462410181 0  -0.7703580986834391 0.1191280179771205 0  -0.7674226615547909 0.1584058396269198 0  -0.7647510982148881 0.1970985210522938 0  -0.7637920880907701 -0.2169731763059616 0  -0.7636025382818729 -0.1788205029084236 0  -0.7686870738333486 -0.1015118798642258 0  -0.7740746901770988 -0.02181708627676734 0  -0.7741467184568154 0.05909692468725591 0  -0.7689067945135923 0.1388429717370656 0  -0.7638636615252901 0.2162481418325378 0  -0.7657692163877461 -0.1404493185516311 0  -0.771745464747786 -0.06198777607024396 0  -0.774823063542269 0.01863750417305865 0  -0.7718988376115457 0.09928463930555426 0  -0.7660262781351518 0.1778251177447754 0  -0.7576957304584716 -0.2763846020190711 0  -0.7332557923086581 -0.3290623595540556 0  -0.6945101443400916 -0.3726480262580694 0  -0.7596257118107617 -0.2463137622572323 0  -0.7438355825052174 -0.3014228693883972 0  -0.7150298880512846 -0.3520927015414063 0  -0.6727420677178473 -0.3900480638860738 0  -0.7611086068598141 -0.2315198744914477 0  -
[...]
<PointData  Vectors="f_11018"> 
<DataArray  type="Float64"  Name="f_11018"  NumberOfComponents="3" format="ascii">3.0884292488753533e-07 -2.3483096021778316e-05 0.0000000000000000e+00  3.0514346685918364e-06 -3.9727520000309841e-05 0.0000000000000000e+00  1.5478799226659776e-06 -3.9034594708804927e-05 0.0000000000000000e+00  2.5063766494674458e-07 -3.7762293243279941e-05 0.0000000000000000e+00  -7.2088935101539087e-07 -3.5928383502132861e-05 0.0000000000000000e+00  -1.3097534250282920e-06 -3.3707226423908561e-05 0.0000000000000000e+00  -1.4006028968550674e-06 -3.1218988850190226e-05 0.0000000000000000e+00  -1.1483121064778866e-06 -2.8662830640207019e-05 0.0000000000000000e+00  -5.0206772433463736e-07 -2.5959240548220327e-05 0.0000000000000000e+00  4.6354215250571779e-06 -3.9829694219518271e-05 0.0000000000000000e+00  1.3641970603329845e-06 -2.0976257173240884e-05 0.0000000000000000e+00  2.8544527676493391e-06 -1.8332826842971719e-05 0.0000000000000000e+00  4.6765606600557537e-06 -1.5680471261698531e-05 0.0000000000000000e+00  6.7509685501446680e-06 -1.3087880261698458e-05 0.0000000000000000e+00  9.1016139210921464e-06 -1.0524499475135550e-05 0.0000000000000000e+00  1.1685103893727826e-05 -8.0200142889092446e-06 0.0000000000000000e+00  1.4552146112678335e-05 -5.4687422803654091e-06 0.0000000000000000e+00  -9.9498745588732669e-06 -1.8383016599715331e-06 0.0000000000000000e+00  6.1729599439524463e-06 -3.9334720421956404e-05 0.0000000000000000e+00  7.5394614124482301e-06 -3.8271556236330413e-05 0.0000000000000000e+00  8.6273470302770061e-06 -3.6696096579652915e-05 0.0000000000000000e+00  9.3486034140548467e-06 -3.4671400017202671e-05 0.0000000000000000e+00  9.6560718431066628e-06 -3.2293596220159768e-05 0.0000000000000000e+00  9.5036979687339739e-06 -2.9622878288888803e-05 0.0000000000000000e+00  8.8896211929638559e-06 -2.6751049208448157e-05 0.0000000000000000e+00  7.8297712479689273e-06 -2.3742764770449497e-05 0.0000000000000000e+00  6.3801929470881349e-06 -2.0699388881733648e-05 0.0000000000000000e+00  4.5628080508719653e-06 -1.7642046737011235e-05 0.0000000000000000e+00  2.4275207454629046e-06 -1.4616704878762967e-05 0.0000000000000000e+00  2.6670302414910824e-08 -1.1646591826997462e-05 0.0000000000000000e+00  -2.5775859020643965e-06 -8.7873978222827564e-06 0.0000000000000000e+00  -5.3745058556607015e-06 -6.0232110301495146e-06 0.0000000000000000e+00  -8.3987068388752453e-06 -3.2788717467204285e-06 0.0000000000000000e+00  -6.8765668137962603e-06 -4.6166115446138087e-06 0.0000000000000000e+00  1.3065379026336687e-05 -6.7363491445865463e-06 0.0000000000000000e+00  7.9037401599689243e-06 -1.1818532782168616e-05 0.0000000000000000e+00  3.7191381087529448e-06 -1.7016901448988393e-05 0.0000000000000000e+00  7.6299356406835936e-07 -2.2280437140162423e-05 0.0000000000000000e+00  -9.5896136522608642e-07 -2.7422249510584356e-05 0.0000000000000000e+00  -1.3252982915690673e-06 -3.2361604393333169e-05 0.0000000000000000e+00  -2.8825893949253195e-07 -3.6945086973202707e-05 0.0000000000000000e+00  2.2817930326685415e-06 -3.9456856468231524e-05 0.0000000000000000e+00  -3.9814690057573263e-06 -7.4015534456470044e-06 0.0000000000000000e+00  8.1240012881568054e-06 -3.7541787779967777e-05 0.0000000000000000e+00  9.5606009285551805e-06 -3.3528798727403222e-05 0.0000000000000000e+00  9.2480383417700142e-06 -2.8196164743845575e-05 0.0000000000000000e+00  7.1543225456205899e-06 -2.2229653403445892e-05 0.0000000000000000e+00  3.5342500055987045e-06 -1.6129458597239621e-05 0.0000000000000000e+00  -1.2546317820126474e-06 -1.0239334561121040e-05 0.0000000000000000e+00  5.4182794748035871e-06 -3.9655906428410302e-05 0.0000000000000000e+00  1.6023616981045493e-05 -4.1597421580150425e-06 0.0000000000000000e+00  1.2745387359131348e-06 -1.3154393364670547e-05 0.0000000000000000e+00  5.5143999438969016e-06 -1.9171953596978440e-05 0.0000000000000000e+00  8.4228867529603080e-06 -2.5266601558664916e-05 0.0000000000000000e+00  9.6361284172084370e-06 -3.0986251101857295e-05 0.0000000000000000e+00  9.0427905984068054e-06 -3.5741407804032766e-05 0.0000000000000000e+00  6.8847235142796182e-06 -3.8870380266749667e-05 0.0000000000000000e+00  3.8414624616693175e-06 -3.9853361107948888e-05 0.0000000000000000e+00  8.6445943363053499e-07 -3.8480461882402263e-05 0.0000000000000000e+00  -1.0370866126049544e-06 -3.4828312939697579e-05 0.0000000000000000e+00  -1.2572152543508386e-06 -2.9852687698099826e-05 0.0000000000000000e+00  -2.6819064913593465e-07 -2.4920143227019375e-05 0.0000000000000000e+00  2.0670172005180610e-06 -1.9658949373825438e-05 0.0000000000000000e+00  5.6728066245993847e-06 -1.4407130694847593e-05 0.0000000000000000e+00  1.0391189877215075e-05 -9.2536227724692120e-06 0.0000000000000000e+00  -2.0774253356956872e-05 -1.8682830302173920e-07 0.0000000000000000e+00  -1.4827470423529700e-05 1.5885579980630593e-06 0.0000000000000000e+00  -1.8164644784494949e-05 2.3171848318005136e-06 0.0000000000000000e+00  -2.0448921611875467e-05 1.2681306957676745e-06 0.0000000000000000e+00  -1.2395363953776590e-05 -2.4107319895343380e-08 0.0000000000000000e+00  -1.6505871878349092e-05 2.0209240735460415e-06 0.0000000000000000e+00  -1.9587249258260937e-05 1.9683002595644654e-06 0.0000000000000000e+00  -2.0766799530211823e-05 5.0500012640911709e-07 0.0000000000000000e+00  -1.1331677118532492e-05 -6.6628305754110353e-07 0.0000000000000000e+00  -1.3573195845732412e-05 8.6109470233625562e-07 0.0000000000000000e+00  -1.5669348980107008e-05 1.8505889110349221e-06 0.0000000000000000e+00  -1.7283551169354894e-05 2.1803152071815767e-06 0.0000000000000000e+00  -1.8249442648758567e-05 1.9181684564109351e-06 0.0000000000000000e+00  -2.0111289917970650e-05 1.5987684140806880e-06 0.0000000000000000e+00  -2.0897864771655587e-05 9.1279705895765279e-07 0.0000000000000000e+00  -2.0807634804436596e-05 1.8056382679228133e-07 0.0000000000000000e+00  -2.0483264130788649e-05 -6.0915284605575867e-07 0.0000000000000000e+00  -2.1693182833586772e-05 -6.5185377351792598e-06 0.0000000000000000e+00  -2.0828856116485769e-05 -5.7497961766962036e-06 0.0000000000000000e+00  -2.0165609599647322e-05 -5.1300673533332421e-06 0.0000000000000000e+00  -1.9711172509177934e-05 -4.6169801201692210e-06 0.0000000000000000e+00  -1.9417635087319967e-05 -4.1694696475025618e-06 0.0000000000000000e+00  -1.9237557772894680e-05 -3.7579907139101796e-06 0.0000000000000000e+00  -1.9141755285288422e-05 -3.3577264147487758e-06 0.0000000000000000e+00  -1.9133429419222350e-05 -2.9474124018105681e-06 0.0000000000000000e+00  -1.9228361179254740e-05 -2.4983087511697902e-06 0.0000000000000000e+00  -1.9476797544262004e-05 -1.9858851604084349e-06 0.0000000000000000e+00  -1.9912507746438869e-05 -1.3659187684238485e-06 0.0000000000000000e+00  -2.2036401887827823e-05 -6.9752873484837119e-06 0.0000000000000000e+00  -2.1225572390997028e-05 -6.1136937192578379e-06 0.0000000000000000e+00  -1.9911430852933405e-05 -4.8626144773772191e-06 0.0000000000000000e+00  -1.9318908520834150e-05 -3.9608097430461664e-06 0.0000000000000000e+00  -1.9126533153835489e-05 -3.1551353936589095e-06 0.0000000000000000e+00  -1.9325294695892230e-05 -2.2548559180418356e-06 0.0000000000000000e+00  -2.0174478159012084e-05 -1.0095983966398078e-06 0.0000000000000000e+00  -2.0468016899581911e-05 -5.4240486424923990e-06 0.0000000000000000e+00  -1.9547722286100678e-05 -4.3858804719309923e-06 0.0000000000000000e+00  -1.9179273965766194e-05 -3.5577280023182646e-06 0.0000000000000000e+00  -1.9171791755112366e-05 -2.7298425198690464e-06 0.0000000000000000e+00  -1.9670547872054832e-05 -1.6928733080190846e-06 0.0000000000000000e+00  -1.1860991151151324e-05 -5.9048184857482526e-06 0.0000000000000000e+00  -2.2043274673343876e-05 -8.5220218114583798e-06 0.0000000000000000e+00  -2.0065321692824355e-05 -9.5846437767379767e-06 0.0000000000000000e+00  -1.6672587188526489e-05 -9.0161218476673435e-06 0.0000000000000000e+00  -2.2166137950574254e-05 -7.7191865279223398e-06 0.0000000000000000e+00  -2.1186162521883355e-05 -9.1344661639074287e-06 0.0000000000000000e+00  -1.8381297484641490e-05 -9.3799848279806635e-06 0.0000000000000000e+00  -1.4300950807693167e-05 -7.5948691195374994e-06 0.0000000000000000e+00  -2.2133690462845017e-05 -7.3473677072529927e-06 0.0000000000000000e+00  -2.2244077236345570e-05 -8.1237674367780820e-06 0.0000000000000000e+00  -2.1693621318968897e-05 -8.8451242895496123e-06 0.0000000000000000e+00  -2.0369958800764550e-05 -9.2730164721559765e-06 0.0000000000000000e+00  -1.9200820428478395e-05 -9.5055125294741376e-06 0.0000000000000000e+00  -1.7522651528080218e-05 -9.2312180232273221e-06 0.0000000000000000e+00  -1.5468283606719806e-05 -8.3796982568222666e-06 0.0000000000000000e+00  -1.3186449705714437e-05 -6.9322887488236133e-06 0.0000000000000000e+00  4.3888568611036120e-07 2.5726039202798567e-05 0.0000000000000000e+00  -7.4171682436232485e-06 -2.2344287641448828e-06 0.0000000000000000e+00  -4.7463542067136643e-06 1.5372128493323007e-07 0.0000000000000000e+00  -2.3029601927105258e-06 2.5930824865348348e-06 0.0000000000000000e+00  -1.1691550014946982e-07 5.0703442125598382e-06 0.0000000000000000e+00  1.8141554818026909e-06 7.5983702670353346e-06 0.0000000000000000e+00  3.4426382613695072e-06 1.0147307003174410e-05 0.0000000000000000e+00  4.7201715329092600e-06 1.2672716551232352e-05 0.0000000000000000e+00  5.6542256810740174e-06 1.5171587241703357e-05 0.0000000000000000e+00  6.2026872418961665e-06 1.7577687547980752e-05 0.0000000000000000e+00  6.3385341976046983e-06 1.9819869997899346e-05 0.0000000000000000e+00  6.0562590444198903e-06 2.1808916637977932e-05 0.0000000000000000e+00  5.4041988460716625e-06 2.3477526985492315e-05 0.0000000000000000e+00  4.4331681058519118e-06 2.4777092451919570e-05 0.0000000000000000e+00  3.2121396705998902e-06 2.5620955952985840e-05 0.0000000000000000e+00  1.8416345695340295e-06 2.5959020992622090e-05 0.0000000000000000e+00  -1.0354123371410643e-05 -4.6563567816800699e-06 0.0000000000000000e+00  -8.7821695323006802e-07 2.5092871155216157e-05 0.0000000000000000e+00  -2.0266184437246209e-06 2.4035028037510359e-05 0.0000000000000000e+00  -2.8803703265363435e-06 2.2499647927961124e-05 0.0000000000000000e+00  -3.4321691461225318e-06 2.0738229143324395e-05 0.0000000000000000e+00  -3.7744283250300252e-06 1.8818265496971564e-05 0.0000000000000000e+00  -3.5576451669610116e-06 1.6421464775894126e-05 0.0000000000000000e+00  -2.9099063943136961e-06 1.3850767425854613e-05 0.0000000000000000e+00  -1.9108684101642716e-06 1.1240124833271901e-05 0.0000000000000000e+00  -5.5099210028251972e-07 8.5761659661327154e-06 0.0000000000000000e+00  1.1595704092024125e-06 5.8848158027695340e-06 0.0000000000000000e+00  3.1731665850744883e-06 3.2165692903670838e-06 0.0000000000000000e+00  5.4349020780501557e-06 6.0624403137764971e-07 0.0000000000000000e+00  7.8934578450146835e-06 -1.9125292929347138e-06 0.0000000000000000e+00  1.0561030082575844e-05 -4.3672528455094400e-06 0.0000000000000000e+00  1.3482644346252079e-05 -6.8500288160639696e-06 0.0000000000000000e+00  1.4977126481578638e-05 -8.1371313243567729e-06 0.0000000000000000e+00  1.1986931708660053e-05 -5.6249347924083827e-06 0.0000000000000000e+00  6.6437612072371076e-06 -6.3556908419953775e-07 0.0000000000000000e+00  2.1266242808752388e-06 4.5558744819999579e-06 0.0000000000000000e+00  -1.2804083459769036e-06 9.9188380264840263e-06 0.0000000000000000e+00  -3.2894961469286778e-06 1.5150875168877207e-05 0.0000000000000000e+00  -3.6780546656954282e-06 1.9858071063943933e-05 0.0000000000000000e+00  -2.5085783762665650e-06 2.3344064917929009e-05 0.0000000000000000e+00  -2.3043881231522992e-07 2.5455379860128215e-05 0.0000000000000000e+00  2.5405952885650592e-06 2.5854656056510130e-05 0.0000000000000000e+00  4.9569276798009290e-06 2.4183016076737267e-05 0.0000000000000000e+00  6.2527791189686757e-06 2.0856288744218719e-05 0.0000000000000000e+00  5.9735879034940613e-06 1.6379946977224267e-05 0.0000000000000000e+00  4.1298644201791197e-06 1.1419551754854298e-05 0.0000000000000000e+00  8.9114937382272351e-07 6.3403427497518079e-06 0.0000000000000000e+00  -3.4981997500580827e-06 1.3879523528340867e-06 0.0000000000000000e+00  -8.8426425257822229e-06 -3.4521902195439382e-06 0.0000000000000000e+00  9.2296571341649873e-06 -3.1511317119533929e-06 0.0000000000000000e+00  4.2647579965745449e-06 1.9287932193368749e-06 0.0000000000000000e+00  2.5997416288449677e-07 7.2354874491122879e-06 0.0000000000000000e+00  -2.4739643302329785e-06 1.2578767367234513e-05 0.0000000000000000e+00  -3.7108793441307844e-06 1.7625350975763607e-05 0.0000000000000000e+00  -3.3499750795557798e-06 2.1947822520088178e-05 0.0000000000000000e+00  -1.4739448914442826e-06 2.4598238952000050e-05 0.0000000000000000e+00  1.1367702635388839e-06 2.5901087987181693e-05 0.0000000000000000e+00  3.8489492034295139e-06 2.5259481458391594e-05 0.0000000000000000e+00  5.7800681397112177e-06 2.2698455180103962e-05 0.0000000000000000e+00  6.3197449111535880e-06 1.8718709697210378e-05 0.0000000000000000e+00  5.2459338369835225e-06 1.3941966478274460e-05 0.0000000000000000e+00  2.6699517523764805e-06 8.8737376639209385e-06 0.0000000000000000e+00  -1.1691791970140239e-06 3.8496628451520377e-06 0.0000000000000000e+00  -6.0746059712362815e-06 -1.0487508024969134e-06 0.0000000000000000e+00  2.5350408437422927e-05 -9.4495337516736055e-06 0.0000000000000000e+00  1.9772774458641297e-05 -1.1336109224424869e-05 0.0000000000000000e+00  2.3119353896581060e-05 -1.1977596057946951e-05 0.0000000000000000e+00  2.5208186012907381e-05 -1.0940225084219972e-05 0.0000000000000000e+00  1.7401450750473593e-05 -9.8576177197191368e-06 0.0000000000000000e+00  2.1451042991567759e-05 -1.1726031660121765e-05 0.0000000000000000e+00  2.4348060467081149e-05 -1.1576479200119126e-05 0.0000000000000000e+00  2.5411760377873399e-05 -1.0162355176995379e-05 0.0000000000000000e+00  1.6309869915160271e-05 -9.2044229336194449e-06 0.0000000000000000e+00  1.8556765887459325e-05 -1.0669612787890301e-05 0.0000000000000000e+00  2.0609111798987848e-05 -1.1568489456789740e-05 0.0000000000000000e+00  2.2246011082524248e-05 -1.1868156316277302e-05 0.0000000000000000e+00  2.3321195461718228e-05 -1.1631655935121954e-05 0.0000000000000000e+00  2.4865958003742477e-05 -1.1263248494402412e-05 0.0000000000000000e+00  2.5506532035508805e-05 -1.0562913822754288e-05 0.0000000000000000e+00  2.5417905962333755e-05 -9.8151470867867913e-06 0.0000000000000000e+00  2.5054930587904893e-05 -9.0161744855381394e-06 0.0000000000000000e+00  2.5636215276843216e-05 -3.2547466354495274e-06 0.0000000000000000e+00  2.4835001383161670e-05 -4.0129237632966022e-06 0.0000000000000000e+00  2.4211467292325368e-05 -4.6239201476520242e-06 0.0000000000000000e+00  2.3789368689808869e-05 -5.1256294955248263e-06 0.0000000000000000e+00  2.3524753420205913e-05 -5.5619247829641661e-06 0.0000000000000000e+00  2.3374430583590257e-05 -5.9580162418676340e-06 0.0000000000000000e+00  2.3317801221430470e-05 -6.3416839703581305e-06 0.0000000000000000e+00  2.3355741458920855e-05 -6.7349563336162705e-06 0.0000000000000000e+00  2.3513704026586686e-05 -7.1657962653334764e-06 0.0000000000000000e+00  2.3830301519436433e-05 -7.6616095969259621e-06 0.0000000000000000e+00  2.4350665025103984e-05 -8.2654518874819198e-06 0.0000000000000000e+00  2.5983596238297116e-05 -2.8201654246570380e-06 0.0000000000000000e+00  2.5205668154729298e-05 -3.6568477213868887e-06 0.0000000000000000e+00  2.3972528778774683e-05 -4.8869381462211517e-06 0.0000000000000000e+00  2.3438766528118883e-05 -5.7629357272453804e-06 0.0000000000000000e+00  2.3325908693005337e-05 -6.5356706394852210e-06 0.0000000000000000e+00  2.3644357897660983e-05 -7.4019362892821577e-06 0.0000000000000000e+00  2.4672190289487313e-05 -8.6184957606582653e-06 0.0000000000000000e+00  2.4496681835789154e-05 -4.3351704345817792e-06 0.0000000000000000e+00  2.3644765551436448e-05 -5.3513286556257272e-06 0.0000000000000000e+00  2.3334603355239875e-05 -6.1500238526199605e-06 0.0000000000000000e+00  2.3420799510120644e-05 -6.9429040368742725e-06 0.0000000000000000e+00  2.4063222301054771e-05 -7.9470386516917922e-06 0.0000000000000000e+00  2.6006628894881814e-05 -1.3028575562165609e-06 0.0000000000000000e+00  2.4038044289074147e-05 -2.4276723405805370e-07 0.0000000000000000e+00  2.0780840948195568e-05 -8.6913844569635307e-07 0.0000000000000000e+00  2.6131996817809801e-05 -2.0943039666211718e-06 0.0000000000000000e+00  2.5203341387602445e-05 -6.5570312648560509e-07 0.0000000000000000e+00  2.2415468640804916e-05 -4.8597356017205865e-07 0.0000000000000000e+00  1.8443470085806479e-05 -2.3679553103058690e-06 0.0000000000000000e+00  2.6100522512658606e-05 -2.4469696559768549e-06 0.0000000000000000e+00  2.6261275385027927e-05 -1.6867129467024313e-06 0.0000000000000000e+00  2.5698427279201333e-05 -9.7055656133290464e-07 0.0000000000000000e+00  2.4213475467978544e-05 -5.9934987551260136e-07 0.0000000000000000e+00  2.3183208051426823e-05 -3.4970544313126428e-07 0.0000000000000000e+00  2.1593733795793203e-05 -6.4056090303408345e-07 0.0000000000000000e+00  1.9576034717093573e-05 -1.5485769374139704e-06 0.0000000000000000e+00  1.7338310453865827e-05 -3.0650023152666446e-06 0.0000000000000000e+00  4.2057651550786194e-06 1.3543817032086752e-05 0.0000000000000000e+00  9.5753874635609973e-07 -2.5910399713989827e-05 0.0000000000000000e+00  4.0296359932899995e-06 -3.0453799484947139e-05 0.0000000000000000e+00  1.1237053061828985e-05 -1.8559660689540007e-05 0.0000000000000000e+00  -6.3637673935336127e-06 8.1558689368849810e-06 0.0000000000000000e+00  9.3657526503130222e-07 1.7082162854810739e-05 0.0000000000000000e+00  -1.7844868152328486e-05 -3.4602051972114292e-06 0.0000000000000000e+00  2.2141896336234568e-05 -6.4873185049870627e-06 0.0000000000000000e+00  2.2606330567109713e-05 -5.5629552864063011e-06 0.0000000000000000e+00  -1.8518093887216850e-05 -4.3828834730344875e-06 0.0000000000000000e+00  -1.3729534003253671e-05 6.0278651774704662e-07 0.0000000000000000e+00  -1.3515018386787762e-05 -3.1379919772199380e-07 0.0000000000000000e+00  -7.9903384414416163e-06 2.6530459969432443e-06 0.0000000000000000e+00  -1.1411304837367806e-05 -5.3217898021673945e-06 0.0000000000000000e+00  -6.1817251246264466e-06 -6.7942629543535647e-06 0.0000000000000000e+00  -1.6081598420433419e-05 -4.2489975692621646e-06 0.0000000000000000e+00  -3.0668202931673384e-06 4.1667750486917343e-06 0.0000000000000000e+00  -1.0138614376484970e-06 -9.2059840289617870e-06 0.0000000000000000e+00  1.4344702522147649e-06 3.4943667514801632e-06 0.0000000000000000e+00  3.9116356933758367e-06 -1.1117747124004650e-05 0.0000000000000000e+00  6.7176319611946957e-06 2.6791289596047426e-06 0.0000000000000000e+00  8.6407215187750805e-06 -1.1571353471788064e-05 0.0000000000000000e+00  1.1478478133908226e-05 -4.2675666456209332e-06 0.0000000000000000e+00  1.8038782085934516e-05 -1.0769292098883118e-05 0.0000000000000000e+00  1.7918037228855968e-05 -9.8681416585433205e-06 0.0000000000000000e+00  2.0283599369204244e-05 -5.9438592483648844e-06 0.0000000000000000e+00  1.7077384204980696e-05 -1.5609200050071104e-06 0.0000000000000000e+00  -1.1906886771764347e-05 -9.6120925777025201e-06 0.0000000000000000e+00  2.3307035437853120e-06 1.6025195312894418e-05 0.0000000000000000e+00  1.6754399743153590e-05 -1.0672742751437448e-06 0.0000000000000000e+00  9.0070395967196464e-06 7.2115568801799513e-06 0.0000000000000000e+00  -1.4581254562504813e-06 1.3852746099379763e-05 0.0000000000000000e+00  -7.2397251733784620e-06 -1.4055714961007478e-05 0.0000000000000000e+00  3.2423639641868057e-06 -3.0269784099177427e-05 0.0000000000000000e+00  7.0082973151289608e-06 -2.4069870606292261e-05 0.0000000000000000e+00  -1.2663557730146916e-05 -9.2846293777526779e-06 0.0000000000000000e+00  1.2974179051393830e-05 -1.2722746250286884e-05 0.0000000000000000e+00  1.5865549889539463e-05 -5.3823193470625738e-06 0.0000000000000000e+00  -4.2155913994704800e-06 -1.8638705595751877e-05 0.0000000000000000e+00  2.2100925037753277e-05 -7.65155832073