<?xml version="1.0"?>
<VTKFile type="UnstructuredGrid"  version="0.1"  >
<UnstructuredGrid>
<Piece  NumberOfPoints="4153" NumberOfCells="8064">
<Points>
<DataArray  type="Float64"  NumberOfComponents="3"  format="ascii">-0.4024463474789959 -0.4860560628867392 0  -0.0253207394150775 -0.5309207538296916 0  -0.07278929914081927 -0.5276492908451168 0  -0.1201057274593526 -0.5235459682508766 0  -0.1673028834980037 -0.5189642943336581 0  -0.2145197460636528 -0.5141063743843289 0  -0.261707732781702 -0.5080495637706728 0  -0.3087787706911932 -0.501234374182602 0  -0.355716218903075 -0.4938689867058357 0  0.02229109564320119 -0.5330492598538535 0  -0.4490784938702139 -0.4786263192414337 0  -0.4956034483433081 -0.4711320199277117 0  -0.5420085552614414 -0.4637214968670392 0  -0.5882730573243884 -0.4566814247683603 0  -0.6344182590151337 -0.4499633503282174 0  -0.6803871251120445 -0.4437079167514245 0  -0.7261627732920519 -0.4380488699841359 0  0.7502091094652482 -0.4505334884396514 0  0.07001531125972596 -0.5338283374648033 0  0.1178042246979836 -0.5330964772740333 0  0.1655929972502257 -0.5307931860007763 0  0.2133055012613935 -0.5269917055507195 0  0.2608931957296698 -0.521994417367026 0  0.3083344709181881 -0.5159952786517253 0  0.3556082954692912 -0.5092025009427724 0  0.4026980760443378 -0.5019149768277097 0  0.4496126029878055 -0.4943203908645171 0  0.4963568375371551 -0.486620959949393 0  0.5429322752112193 -0.478964161629223 0  0.5893397192269222 -0.4715718470351736 0  0.6355706172697001 -0.4644899690376185 0  0.6816127913705325 -0.4579855738018083 0  0.7274618851047667 -0.4522098783411606 0  0.7045468084501921 -0.4550752585041621 0  -0.7032764370264206 -0.4409339209054354 0  -0.61136560227045 -0.4532821902811663 0  -0.5188211513109275 -0.4674184843780554 0  -0.4257775630137648 -0.48239201886281 0  -0.3322642735639973 -0.4976130560236047 0  -0.2381252005976401 -0.5111794988160624 0  -0.1437150568456123 -0.5212924783015742 0  -0.04907448999528945 -0.5294101992349519 0  0.6586156598928655 -0.4611541495990518 0  0.1417030118422954 -0.5321407534405845 0  0.2371161040554955 -0.5246313802722895 0  0.3319930405412628 -0.5126888399858677 0  0.4261768044417415 -0.4981388403476809 0  0.5196654876851045 -0.4827817648073566 0  0.6124777360217466 -0.4679655173170516 0  0.04614153703136989 -0.5336189335274111 0  -0.7488138708379862 -0.4365025514294276 0  0.5661519244488591 -0.4752342218200137 0  0.4730057909298872 -0.49047440881135 0  0.3791729412782107 -0.5056016832145633 0  0.2846336052600999 -0.519107414660153 0  0.1894644228875169 -0.5290604679103379 0  0.09390549193905415 -0.5336577943739568 0  -0.001530914883008871 -0.5321435664065953 0  -0.09646551343655325 -0.5256804040618909 0  -0.1908895432952969 -0.5166583072668567 0  -0.2852592281305678 -0.5047208148676998 0  -0.3791267753305789 -0.4898954850132853 0  -0.4723551576994602 -0.4748782035307553 0  -0.5651512462682468 -0.4601310513147825 0  -0.6574259913137062 -0.4467687973645529 0  0.9319189035362496 -0.2586285802638616 0  0.8202698701145451 -0.4331240016884269 0  0.8798159081265544 -0.3913249043691217 0  0.9189461451962263 -0.330198378749016 0  0.7853338131205805 -0.4418980875979783 0  0.8504139075924028 -0.4127340628095042 0  0.8988281508806806 -0.3603575892447239 0  0.9250949465556453 -0.2942492255547217 0  0.7678488899248364 -0.4466163477431109 0  0.8027483573933224 -0.4373207418253095 0  0.835353233419093 -0.4230355287609015 0  0.8647932292175724 -0.4015290865882221 0  0.8896561539179264 -0.376007991872195 0  0.9087016168456087 -0.3452318543386987 0  0.9218589803261485 -0.3121526247719777 0  0.928314758636737 -0.2764048475469927 0  0.9317473230822559 -0.23538012261672 0  0.9388449467871262 0.2766612173899831 0  0.9380096809878996 0.2302890057431139 0  0.9378905315636719 0.1839174866566653 0  0.9381438555745062 0.1374596693773965 0  0.9385905125466205 0.09084280021998595 0  0.938507541913622 0.04408669790202979 0  0.9378924187028371 -0.002711221507996561 0  0.9367424630623907 -0.04948853669476543 0  0.9350502919407032 -0.0961440823644779 0  0.9335101436088868 -0.1426442815025873 0  0.9322968233332056 -0.1890384947976266 0  0.9396805770270483 0.2999724723487443 0  0.93830572560987 0.2534675887993624 0  0.9379843537852437 0.160703143605939 0  0.9386170316879358 0.06747414100371665 0  0.9373859162651021 -0.0261068253665481 0  0.9342529160966165 -0.1194096009329446 0  0.9319097380849771 -0.2122109771313211 0  0.9378930540593848 0.2071096812400733 0  0.9383908167243523 0.1141804697861373 0  0.938264719370707 0.02068912387443114 0  0.9359236808090113 -0.07284379060483465 0  0.9328513164773858 -0.1658521267072529 0  0.7639068922396508 0.4963539313936506 0  0.9286010760009291 0.3719869830691581 0  0.8910817447210024 0.4339941130768776 0  0.8329215265066059 0.4772608535360671 0  0.9338336075987542 0.3357696489782428 0  0.9093183005760709 0.4025416534965701 0  0.8624837995159436 0.4561999436706944 0  0.7985573063539561 0.4870084051759964 0  0.9365465435200406 0.3178218127714583 0  0.9310670584553106 0.3537968064978158 0  0.91877020941261 0.3872026149337212 0  0.9005722272167845 0.4184461772580815 0  0.8764498684045765 0.4445429106023507 0  0.8477202817457463 0.4668360606044917 0  0.8156980971387515 0.4819593863522451 0  0.7813180168027134 0.4921615913366104 0  -0.02125187734945076 0.6301231167689869 0  0.6961959383284807 0.5072102466125359 0  0.6505806451212856 0.5163559760457967 0  0.604674701388489 0.5263156493223285 0  0.5584979660288965 0.5369515012437264 0  0.5120053878689682 0.5481595974285935 0  0.4651879591603947 0.5596474885093177 0  0.4180281747578477 0.5712120427521892 0  0.370507183595894 0.5826833924729276 0  0.32258439400652 0.5936840747772772 0  0.2742830859696826 0.6038301961993708 0  0.2256225243434224 0.6128190375879923 0  0.1766219961685147 0.6204160433367649 0  0.127337148410238 0.6260289391384194 0  0.0778772224987538 0.6295142158191624 0  0.02833484609224465 0.6308210980155913 0  0.7415243290967535 0.4990128997015343 0  -0.07076847581343615 0.6267586273874204 0  -0.1200520273879609 0.6211621052695306 0  -0.1690096462555565 0.6136744087249441 0  -0.2175129071065785 0.6045145301656947 0  -0.2655839293890602 0.5951042318610251 0  -0.3133313283608422 0.5854057809766612 0  -0.3607928595013216 0.5755259185803006 0  -0.4079713269123097 0.5655983619195846 0  -0.4549222146399438 0.5559244680601141 0  -0.5016648997432336 0.5464449372386587 0  -0.5482037009727903 0.5372374708537178 0  -0.5945345850395769 0.5283957935003505 0  -0.6406400950504628 0.5200422843116871 0  -0.6865056467265849 0.5123766441583505 0  -0.7321237394473412 0.5055091934484125 0  -0.7546889799214185 0.5034364252587963 0  -0.7093261423854773 0.5089497286936145 0  -0.6176160876152876 0.5241424269254571 0  -0.5249599648207404 0.5418019492799664 0  -0.431474108057853 0.5607484584189805 0  -0.3370960866826234 0.5804848165293436 0  -0.2415934533182757 0.5998662875711549 0  -0.1445773825121695 0.6176253564142632 0  -0.04603143568005728 0.6287323569268692 0  0.05311188671740992 0.6304455333285519 0  0.1520077667140119 0.6234771681431917 0  0.2499964707410375 0.6084932133307588 0  0.3465935836471406 0.5882768877880414 0  0.4416523700691986 0.5654374995458686 0  0.5352907471259836 0.5425145402880526 0  0.6276637556658827 0.5212534422685493 0  0.7188724421845833 0.5031251085588528 0  -0.6636034508097524 0.5161138580332595 0  -0.5713952848195046 0.5327678852152451 0  -0.4783190879162236 0.551156038691433 0  -0.3844196143723943 0.5705287120739819 0  -0.2894952316672431 0.5902846216230653 0  -0.1933449600753188 0.6092010999954629 0  -0.09544579233135693 0.6242167797477283 0  0.003560409059397782 0.630770433796334 0  0.10262307378079 0.6280443442199366 0  0.2011700253673341 0.6168272319925526 0  0.2984800703815925 0.5988828155827233 0  0.3943167902636073 0.5769636315226256 0  0.4886383031616344 0.5538811128214015 0  0.5816209519951711 0.5315327604167527 0  0.67342427645947 0.5116716046767561 0  -0.9335656849083627 0.3100331169786126 0  -0.8243041243132808 0.485516252350923 0  -0.8832622827495448 0.4431830493395642 0  -0.9216239666531526 0.3817361031636439 0  -0.789623229300331 0.4946635850163892 0  -0.8542405744981949 0.4649466282684833 0  -0.9018642846187204 0.4120063233681689 0  -0.9272553032272207 0.3456828409970697 0  -0.7722417512508553 0.4995293219980879 0  -0.8069163237764199 0.4899164616273805 0  -0.8392880181414319 0.4753517247677357 0  -0.8684091002718044 0.4535153814033444 0  -0.8929446019435318 0.4277839579434357 0  -0.9115477063405905 0.3968182111753796 0  -0.9242821165534345 0.3636309433006469 0  -0.9301829064257778 0.3278108747549375 0  -0.9329902890923468 0.2867839964673838 0  -0.9303753589169976 -0.2235282829541766 0  -0.9306031616344866 -0.1773118670457787 0  -0.9314670683064731 -0.1310723156869963 0  -0.9326518964926288 -0.08474760601213532 0  -0.9340133326883123 -0.03827319173911945 0  -0.9347833164896313 0.008327171513371749 0  -0.9349812539054765 0.054950858518909 0  -0.9346168246791837 0.1015391922777064 0  -0.9336952489832842 0.1479952211822691 0  -0.9329785134412164 0.1943029137944069 0  -0.9326319339025463 0.2405389617122071 0  -0.930686200470354 -0.246730641330155 0  -0.930380468651934 -0.2004176047908479 0  -0.9320316250090379 -0.1079234827346078 0  -0.9344720778367044 -0.01498011631323475 0  -0.9348708504371164 0.07825341819241656 0  -0.9333034433290359 0.1711617826575758 0  -0.9326889329874645 0.2636541820355052 0  -0.9309853565676783 -0.1541996399408395 0  -0.9333606011572149 -0.06153941112635379 0  -0.9349509128424727 0.03163982090580084 0  -0.9341801732860885 0.1247959263632674 0  -0.9327495657282313 0.2174256774505862 0  -0.9178939152208956 -0.3181673364574172 0  -0.8786439377955702 -0.3789888133996797 0  -0.8189552868415032 -0.420271034066867 0  -0.924020553497383 -0.2822947632465142 0  -0.89777930156209 -0.3482314701211306 0  -0.8492307874231753 -0.4002608748517145 0  -0.78398374472675 -0.428675198907905 0  -0.9271753304639339 -0.2644792379995018 0  -0.9208104881010404 -
[...]
<PointData  Vectors="f_2098"> 
<DataArray  type="Float64"  Name="f_2098"  NumberOfComponents="3" format="ascii">-1.3496635206096746e-05 -5.0205266367646538e-05 0.0000000000000000e+00  -1.9294420567433122e-05 -9.7114054446578884e-05 0.0000000000000000e+00  -2.0124990707549064e-05 -9.7229957212406086e-05 0.0000000000000000e+00  -2.0692572142569170e-05 -9.5355885234547420e-05 0.0000000000000000e+00  -2.0888125034146808e-05 -9.1712389284940904e-05 0.0000000000000000e+00  -2.0796856287390233e-05 -8.6864333631698901e-05 0.0000000000000000e+00  -2.0128337821709592e-05 -7.9656475420883716e-05 0.0000000000000000e+00  -1.8694891556399322e-05 -7.0871451945274098e-05 0.0000000000000000e+00  -1.6480999184013297e-05 -6.1019804058995803e-05 0.0000000000000000e+00  -1.8397813692578750e-05 -9.4980605692301736e-05 0.0000000000000000e+00  -9.9456176633683538e-06 -3.9682238304749900e-05 0.0000000000000000e+00  -5.9933557704726337e-06 -2.9352726942558852e-05 0.0000000000000000e+00  -1.7142422292462797e-06 -1.9360586405227244e-05 0.0000000000000000e+00  2.8307819138333720e-06 -9.7756697083896107e-06 0.0000000000000000e+00  7.5175990609778981e-06 -8.5104598832119272e-07 0.0000000000000000e+00  1.2336079975004162e-05 7.5014187909617539e-06 0.0000000000000000e+00  1.7166455697167817e-05 1.4700199134257947e-05 0.0000000000000000e+00  -5.6156736449182408e-05 1.5980910589236856e-05 0.0000000000000000e+00  -1.7655207152933339e-05 -9.1028964111887476e-05 0.0000000000000000e+00  -1.7263604696327622e-05 -8.5528570242754097e-05 0.0000000000000000e+00  -1.7377861340082619e-05 -7.8810353825482178e-05 0.0000000000000000e+00  -1.8093168367763038e-05 -7.1180613738286178e-05 0.0000000000000000e+00  -1.9429511903691121e-05 -6.3024620110536215e-05 0.0000000000000000e+00  -2.1343522895776420e-05 -5.4600675939141951e-05 0.0000000000000000e+00  -2.3775846861143421e-05 -4.6103908786793881e-05 0.0000000000000000e+00  -2.6661331931116376e-05 -3.7666623067490717e-05 0.0000000000000000e+00  -2.9906890003053746e-05 -2.9418414741479477e-05 0.0000000000000000e+00  -3.3442794545551656e-05 -2.1420852572108223e-05 0.0000000000000000e+00  -3.7208434857881299e-05 -1.3704902618128321e-05 0.0000000000000000e+00  -4.1161479733468921e-05 -6.3289816481096512e-06 0.0000000000000000e+00  -4.5262789472577035e-05 7.3087294380678370e-07 0.0000000000000000e+00  -4.9489389688953524e-05 7.3881423560735482e-06 0.0000000000000000e+00  -5.3756463161082239e-05 1.3249112724546956e-05 0.0000000000000000e+00  -5.1685532758234945e-05 1.0270239229758827e-05 0.0000000000000000e+00  1.4841462944032983e-05 1.1099080327729231e-05 0.0000000000000000e+00  5.1537466118313231e-06 -5.2675309207732262e-06 0.0000000000000000e+00  -3.8860111634767013e-06 -2.4309722529501866e-05 0.0000000000000000e+00  -1.1759451784576486e-05 -4.4882638542227924e-05 0.0000000000000000e+00  -1.7685315689434108e-05 -6.6001190891772259e-05 0.0000000000000000e+00  -2.0554308017835857e-05 -8.3489949502410046e-05 0.0000000000000000e+00  -2.0838341411983966e-05 -9.3754720622405007e-05 0.0000000000000000e+00  -1.9731713745153154e-05 -9.7426546352753768e-05 0.0000000000000000e+00  -4.7365560938970876e-05 4.0531570477495667e-06 0.0000000000000000e+00  -1.7250029838649830e-05 -8.2298590192277907e-05 0.0000000000000000e+00  -1.8686554333557698e-05 -6.7149493870993638e-05 0.0000000000000000e+00  -2.2500724317118926e-05 -5.0357613519606855e-05 0.0000000000000000e+00  -2.8241955792369007e-05 -3.3517679998115871e-05 0.0000000000000000e+00  -3.5301657447102306e-05 -1.7534832082414098e-05 0.0000000000000000e+00  -4.3191034056530376e-05 -2.7674020833524521e-06 0.0000000000000000e+00  -1.7994256256557096e-05 -9.3217461335796684e-05 0.0000000000000000e+00  1.9868135576046914e-05 1.8211736928710490e-05 0.0000000000000000e+00  -3.9170896860983272e-05 -9.9590114345730259e-06 0.0000000000000000e+00  -3.1642609507858830e-05 -2.5388964578602079e-05 0.0000000000000000e+00  -2.5169708263297982e-05 -4.1858926321734153e-05 0.0000000000000000e+00  -2.0317658895064373e-05 -5.8835183998180490e-05 0.0000000000000000e+00  -1.7654956739104608e-05 -7.5090613927877585e-05 0.0000000000000000e+00  -1.7404552423838822e-05 -8.8452718398483388e-05 0.0000000000000000e+00  -1.8839737764143340e-05 -9.6291995725460150e-05 0.0000000000000000e+00  -2.0451204210381716e-05 -9.6534042830938646e-05 0.0000000000000000e+00  -2.0853298809374676e-05 -8.9518612734828146e-05 0.0000000000000000e+00  -1.9508922610640955e-05 -7.5422504978345161e-05 0.0000000000000000e+00  -1.5127682684050222e-05 -5.5757767686671030e-05 0.0000000000000000e+00  -8.0132285633813064e-06 -3.4482689003501835e-05 0.0000000000000000e+00  5.3305864692100131e-07 -1.4484174773575541e-05 0.0000000000000000e+00  9.9219281651017264e-06 3.3259408441161186e-06 0.0000000000000000e+00  -7.4369468098622166e-05 1.0675701325417103e-05 0.0000000000000000e+00  -6.2549096163493225e-05 1.8878434726932896e-05 0.0000000000000000e+00  -6.7959052623857275e-05 1.8190414235215248e-05 0.0000000000000000e+00  -7.1971544573564349e-05 1.4932068169189830e-05 0.0000000000000000e+00  -5.9178497427036418e-05 1.7088889630582434e-05 0.0000000000000000e+00  -6.4916824498224604e-05 1.8058423676901765e-05 0.0000000000000000e+00  -7.0465609025051104e-05 1.6943566237295608e-05 0.0000000000000000e+00  -7.3472375141745200e-05 1.2944570629022624e-05 0.0000000000000000e+00  -5.7546095895154414e-05 1.6005929397257369e-05 0.0000000000000000e+00  -6.0889959792443045e-05 1.8191941113765693e-05 0.0000000000000000e+00  -6.3699539001647962e-05 1.8408303932767267e-05 0.0000000000000000e+00  -6.6519687089726672e-05 1.8325871427067311e-05 0.0000000000000000e+00  -6.8668230563036627e-05 1.7254389163371346e-05 0.0000000000000000e+00  -7.1465993705627394e-05 1.6003354274933536e-05 0.0000000000000000e+00  -7.2937711289523195e-05 1.4009554331002193e-05 0.0000000000000000e+00  -7.4133318826643163e-05 1.1855993092034492e-05 0.0000000000000000e+00  -7.4713054087409411e-05 9.2041882669596649e-06 0.0000000000000000e+00  -7.6272353855321812e-05 -2.3543962147091445e-05 0.0000000000000000e+00  -7.6075768147975802e-05 -2.0366253854818264e-05 0.0000000000000000e+00  -7.5484823040026117e-05 -1.7244919647998159e-05 0.0000000000000000e+00  -7.4719338248886908e-05 -1.4217180937881930e-05 0.0000000000000000e+00  -7.3838668216926257e-05 -1.1323599606947816e-05 0.0000000000000000e+00  -7.3370595043371954e-05 -8.5455429954087586e-06 0.0000000000000000e+00  -7.3279277025430618e-05 -5.7910134090672323e-06 0.0000000000000000e+00  -7.3559273196659744e-05 -2.9999461129429766e-06 0.0000000000000000e+00  -7.4200666062809129e-05 -8.0191308191466264e-08 0.0000000000000000e+00  -7.4680516678734705e-05 2.9591212247825480e-06 0.0000000000000000e+00  -7.4934893879836752e-05 6.0729929619702181e-06 0.0000000000000000e+00  -7.6013416014956932e-05 -2.5092161574489658e-05 0.0000000000000000e+00  -7.6235117654729334e-05 -2.1952207415414301e-05 0.0000000000000000e+00  -7.5114633408772982e-05 -1.5717615874488427e-05 0.0000000000000000e+00  -7.3557283613929529e-05 -9.9274190463156797e-06 0.0000000000000000e+00  -7.3371430403899369e-05 -4.4039971363353864e-06 0.0000000000000000e+00  -7.4456694648770532e-05 1.4270498716559593e-06 0.0000000000000000e+00  -7.4897418395187878e-05 7.6392628636487090e-06 0.0000000000000000e+00  -7.5808197114826120e-05 -1.8795554401932120e-05 0.0000000000000000e+00  -7.4260217208911810e-05 -1.2744930621800682e-05 0.0000000000000000e+00  -7.3279774902602047e-05 -7.1690618605488145e-06 0.0000000000000000e+00  -7.3872834605402747e-05 -1.5647528892857027e-06 0.0000000000000000e+00  -7.4840783935139861e-05 4.5091148883582767e-06 0.0000000000000000e+00  -5.8036626389416733e-05 -3.1937182000786576e-05 0.0000000000000000e+00  -7.3772418681676918e-05 -2.9515443288018320e-05 0.0000000000000000e+00  -6.9839119690302001e-05 -3.2940829869511556e-05 0.0000000000000000e+00  -6.4450022796155352e-05 -3.4002392317375930e-05 0.0000000000000000e+00  -7.5088467664291282e-05 -2.7402043028178473e-05 0.0000000000000000e+00  -7.2117256007366484e-05 -3.1463678356743818e-05 0.0000000000000000e+00  -6.6853929772472560e-05 -3.3087836990678267e-05 0.0000000000000000e+00  -6.1110952824400125e-05 -3.2642275783867867e-05 0.0000000000000000e+00  -7.5659722509989474e-05 -2.6268850359109859e-05 0.0000000000000000e+00  -7.4608330642344573e-05 -2.8515798832163687e-05 0.0000000000000000e+00  -7.3128169572612620e-05 -3.0534511451408442e-05 0.0000000000000000e+00  -7.0553224765943650e-05 -3.1972903116343507e-05 0.0000000000000000e+00  -6.8405968195547640e-05 -3.3163765664492394e-05 0.0000000000000000e+00  -6.5630440466760931e-05 -3.3513211218164455e-05 0.0000000000000000e+00  -6.2809345604394429e-05 -3.3496534582048332e-05 0.0000000000000000e+00  -5.9471646667244344e-05 -3.1844014365144689e-05 0.0000000000000000e+00  -1.5484085568659203e-05 8.3930603434194300e-05 0.0000000000000000e+00  -5.0887100820726526e-05 -2.3916174411323338e-05 0.0000000000000000e+00  -4.6242741608250648e-05 -1.7664765193112353e-05 0.0000000000000000e+00  -4.1662172187780387e-05 -1.1035610807364143e-05 0.0000000000000000e+00  -3.7145446121646180e-05 -3.9576700036509016e-06 0.0000000000000000e+00  -3.2774197293515856e-05 3.4554035978186004e-06 0.0000000000000000e+00  -2.8595548295139027e-05 1.1228519354625720e-05 0.0000000000000000e+00  -2.4680550587981932e-05 1.9340491089514934e-05 0.0000000000000000e+00  -2.1120633011005021e-05 2.7792216835223101e-05 0.0000000000000000e+00  -1.8043080765278837e-05 3.6403665205002867e-05 0.0000000000000000e+00  -1.5542072905914339e-05 4.5119854208302982e-05 0.0000000000000000e+00  -1.3719588481537699e-05 5.3730631374941223e-05 0.0000000000000000e+00  -1.2669142155652523e-05 6.1985434118609194e-05 0.0000000000000000e+00  -1.2417925887807614e-05 6.9447530572892385e-05 0.0000000000000000e+00  -1.2902833043204870e-05 7.5813354259038771e-05 0.0000000000000000e+00  -1.3982220589637312e-05 8.0698479734381268e-05 0.0000000000000000e+00  -5.5466479530582134e-05 -2.9251039789134296e-05 0.0000000000000000e+00  -1.7102876207944721e-05 8.4839825840863419e-05 0.0000000000000000e+00  -1.8475023965385945e-05 8.3483322081116999e-05 0.0000000000000000e+00  -1.9267744732192006e-05 7.9868898134335351e-05 0.0000000000000000e+00  -1.9125393124790090e-05 7.3840168699202527e-05 0.0000000000000000e+00  -1.8088266031714765e-05 6.6634181366127058e-05 0.0000000000000000e+00  -1.6256489143683946e-05 5.8397384550106937e-05 0.0000000000000000e+00  -1.3690718248767903e-05 4.9428855157318766e-05 0.0000000000000000e+00  -1.0446648013434463e-05 3.9925184795695098e-05 0.0000000000000000e+00  -6.7105626150469995e-06 3.0488726157526891e-05 0.0000000000000000e+00  -2.5968495917684303e-06 2.1189412094699822e-05 0.0000000000000000e+00  1.8086276170084816e-06 1.2145042441229174e-05 0.0000000000000000e+00  6.4315038803715890e-06 3.4615222317857206e-06 0.0000000000000000e+00  1.1214954604941999e-05 -4.7963190847013072e-06 0.0000000000000000e+00  1.6091190597110461e-05 -1.2500287938691930e-05 0.0000000000000000e+00  2.0930291407747950e-05 -1.9149807386898782e-05 0.0000000000000000e+00  2.3592229658702876e-05 -2.2336030588344331e-05 0.0000000000000000e+00  1.8589687224044772e-05 -1.5809621610104692e-05 0.0000000000000000e+00  8.8063540281366643e-06 -7.1866291398457239e-07 0.0000000000000000e+00  -4.2576864782025993e-07 1.6630438531419828e-05 0.0000000000000000e+00  -8.6292383047869177e-06 3.5193941187764884e-05 0.0000000000000000e+00  -1.5060304458732541e-05 5.3978369756867571e-05 0.0000000000000000e+00  -1.8708202499400370e-05 7.0385428165767962e-05 0.0000000000000000e+00  -1.8962357104632600e-05 8.1921248920762221e-05 0.0000000000000000e+00  -1.6298918419936130e-05 8.4645222007892376e-05 0.0000000000000000e+00  -1.3379660178158367e-05 7.8468255608619619e-05 0.0000000000000000e+00  -1.2445387610938369e-05 6.5818505769267043e-05 0.0000000000000000e+00  -1.4542800551436905e-05 4.9448432863073698e-05 0.0000000000000000e+00  -1.9518161050877565e-05 3.2073716513153377e-05 0.0000000000000000e+00  -2.6602291278603180e-05 1.5239189567193270e-05 0.0000000000000000e+00  -3.4941930784978670e-05 -2.9758017519568928e-07 0.0000000000000000e+00  -4.3942225860680189e-05 -1.4379867007842337e-05 0.0000000000000000e+00  -5.3269407741612481e-05 -2.6556473759543282e-05 0.0000000000000000e+00  1.3648223914438149e-05 -8.6537149785715361e-06 0.0000000000000000e+00  4.0979554098280246e-06 7.7537182764078987e-06 0.0000000000000000e+00  -4.6948155877826189e-06 2.5812835774627101e-05 0.0000000000000000e+00  -1.2155095997793612e-05 4.4717062848854734e-05 0.0000000000000000e+00  -1.7267814189879721e-05 6.2625264931291197e-05 0.0000000000000000e+00  -1.9354608855209629e-05 7.7120978405344217e-05 0.0000000000000000e+00  -1.7841148762920775e-05 8.4444061912560954e-05 0.0000000000000000e+00  -1.4680601536046612e-05 8.2585869611457967e-05 0.0000000000000000e+00  -1.2575377881676473e-05 7.2790494993234538e-05 0.0000000000000000e+00  -1.3087078537089852e-05 5.7950609801472737e-05 0.0000000000000000e+00  -1.6713923029469126e-05 4.0761691235917766e-05 0.0000000000000000e+00  -2.2843427034145968e-05 2.3542493164762445e-05 0.0000000000000000e+00  -3.0657181484525096e-05 7.2998185451488159e-06 0.0000000000000000e+00  -3.9389322425061691e-05 -7.5482446104874919e-06 0.0000000000000000e+00  -4.8563059023319214e-05 -2.0766691955767313e-05 0.0000000000000000e+00  4.4041664558744027e-05 -1.8820790409445126e-05 0.0000000000000000e+00  3.0633583996512779e-05 -2.6005076956153244e-05 0.0000000000000000e+00  3.6749493967072632e-05 -2.5936198895913489e-05 0.0000000000000000e+00  4.1358636515321773e-05 -2.3011111672419088e-05 0.0000000000000000e+00  2.6980711253795009e-05 -2.3935053873572277e-05 0.0000000000000000e+00  3.3412011610182567e-05 -2.5640601682857033e-05 0.0000000000000000e+00  3.9446219535299100e-05 -2.4798588175152231e-05 0.0000000000000000e+00  4.2959559395151924e-05 -2.1041300981338218e-05 0.0000000000000000e+00  2.5186041334793064e-05 -2.2702718971844395e-05 0.0000000000000000e+00  2.8838039677696310e-05 -2.5180278571934271e-05 0.0000000000000000e+00  3.1998632555613691e-05 -2.5805024936825016e-05 0.0000000000000000e+00  3.5146835348316736e-05 -2.5962349141537675e-05 0.0000000000000000e+00  3.7637995936795096e-05 -2.5120524749129786e-05 0.0000000000000000e+00  4.0612025346705871e-05 -2.3966280372769374e-05 0.0000000000000000e+00  4.2362367478498205e-05 -2.2093828469963009e-05 0.0000000000000000e+00  4.3643433977352991e-05 -1.9962196750907006e-05 0.0000000000000000e+00  4.4374992017114334e-05 -1.7331878880217004e-05 0.0000000000000000e+00  4.2225330977702219e-05 1.4432837472298551e-05 0.0000000000000000e+00  4.2676742559344013e-05 1.1358447600125052e-05 0.0000000000000000e+00  4.2618364565992843e-05 8.3172695233941393e-06 0.0000000000000000e+00  4.2319684993214154e-05 5.3678409490049338e-06 0.0000000000000000e+00  4.1875621223759345e-05 2.5481714479627117e-06 0.0000000000000000e+00  4.1739500683586308e-05 -1.4839651612622106e-07 0.0000000000000000e+00  4.1906055759741803e-05 -2.8099146004228943e-06 0.0000000000000000e+00  4.2377342370894531e-05 -5.4964366039738782e-06 0.0000000000000000e+00  4.3171525674982409e-05 -8.2946166612504519e-06 0.0000000000000000e+00  4.3860316163270853e-05 -1.1221581493301745e-05 0.0000000000000000e+00  4.4351538197056775e-05 -1.4248255982686753e-05 0.0000000000000000e+00  4.1673396699486573e-05 1.5890656431431996e-05 0.0000000000000000e+00  4.2529671509805124e-05 1.2896213279135143e-05 0.0000000000000000e+00  4.2485833032538706e-05 6.8284194521964299e-06 0.0000000000000000e+00  4.1769274775638453e-05 1.1915247058596022e-06 0.0000000000000000e+00  4.2103272837767549e-05 -4.1459941949771233e-06 0.0000000000000000e+00  4.3528363890442593e-05 -9.7439004094909616e-06 0.0000000000000000e+00  4.4435065297946951e-05 -1.5787856330751737e-05 0.0000000000000000e+00  4.2685351229868881e-05 9.8288007780485272e-06 0.0000000000000000e+00  4.2089903845310983e-05 3.9339385669797512e-06 0.0000000000000000e+00  4.1786041181272357e-05 -1.4797810623885822e-06 0.0000000000000000e+00  4.2761665394737464e-05 -6.8725723812652820e-06 0.0000000000000000e+00  4.4138170627475721e-05 -1.2724139113560505e-05 0.0000000000000000e+00  3.8466096587002984e-05 1.9931971721649810e-05 0.0000000000000000e+00  3.3480144742556975e-05 2.2617405373177446e-05 0.0000000000000000e+00  2.7070564964208896e-05 2.2303556777916052e-05 0.0000000000000000e+00  4.0330474659543897e-05 1.8056423850514366e-05 0.0000000000000000e+00  3.6369860523645691e-05 2.1623911763777284e-05 0.0000000000000000e+00  2.9965092768921978e-05 2.2094635039617689e-05 0.0000000000000000e+00  2.3333862662420805e-05 1.9990426058456134e-05 0.0000000000000000e+00  4.1167765734205408e-05 1.7013657259131548e-05 0.0000000000000000e+00  3.9590546657525350e-05 1.9066564707387944e-05 0.0000000000000000e+00  3.7634894194198517e-05 2.0849571890716684e-05 0.0000000000000000e+00  3.4451543014870922e-05 2.1857429920011169e-05 0.0000000000000000e+00  3.1793190865935184e-05 2.2553039775511260e-05 0.0000000000000000e+00  2.8491152796657131e-05 2.2178091163523206e-05 0.0000000000000000e+00  2.5223939246254996e-05 2.1352593909360539e-05 0.0000000000000000e+00  2.1508768099483097e-05 1.8642895425032782e-05 0.0000000000000000e+00  3.0514324901296901e-06 4.1522868396274696e-05 0.0000000000000000e+00  -4.0703387700783309e-05 -4.3459429945675991e-05 0.0000000000000000e+00  -1.5536155222105089e-05 -6.7823423539457660e-05 0.0000000000000000e+00  1.8040782171911397e-05 -2.5203473975356639e-05 0.0000000000000000e+00  -5.2072984638864040e-05 4.5595580461721501e-06 0.0000000000000000e+00  -2.6491431457547777e-05 4.5100149046203499e-05 0.0000000000000000e+00  -7.1160057558466514e-05 1.8318073431184407e-06 0.0000000000000000e+00  4.0674466292379170e-05 -1.0094883577482898e-05 0.0000000000000000e+00  3.9320141197719013e-05 5.6723375137614614e-06 0.0000000000000000e+00  -7.1811520464105008e-05 -1.6601914167685618e-05 0.0000000000000000e+00  -6.3097865085239103e-05 -1.5413069913332196e-05 0.0000000000000000e+00  -6.5258189506599558e-05 -7.5948366950966443e-06 0.0000000000000000e+00  -5.4537773120222223e-05 2.4785141470060129e-06 0.0000000000000000e+00  -6.2702240462289969e-05 -8.4119965266529713e-06 0.0000000000000000e+00  -5.0260111729351651e-05 -1.0585537067974364e-05 0.0000000000000000e+00  -6.9987610939773400e-05 -7.6641815117207960e-06 0.0000000000000000e+00  -3.9722125789003417e-05 1.0597397771250695e-05 0.0000000000000000e+00  -3.3489423535861904e-05 -1.5260587058567648e-05 0.0000000000000000e+00  -2.1718222813729521e-05 1.3030111900188668e-05 0.0000000000000000e+00  -1.3945586002846931e-05 -1.9252522312448207e-05 0.0000000000000000e+00  1.2545981518085654e-06 1.3149115963433640e-05 0.0000000000000000e+00  5.8032399907850693e-06 -1.8906815018420877e-05 0.0000000000000000e+00  1.7406263237849134e-05 -2.0228444610908368e-06 0.0000000000000000e+00  2.8932503191807991e-05 3.0551419840255905e-07 0.0000000000000000e+00  3.2914998495332522e-05 -6.5812820937095097e-06 0.0000000000000000e+00  3.8786150678966270e-05 -2.7787017650939081e-06 0.0000000000000000e+00  3.3273597185937987e-05 3.4256794507370922e-07 0.0000000000000000e+00  -6.1524219043821102e-05 -5.8398191690886623e-07 0.0000000000000000e+00  -1.2062293254631034e-05 4.8466985504578476e-05 0.0000000000000000e+00  3.0643117984594355e-05 -5.3352279667637359e-06 0.0000000000000000e+00  1.7786286233335013e-05 1.8685771109293441e-05 0.0000000000000000e+00  -3.9725291918337258e-05 2.6469143761803169e-05 0.0000000000000000e+00  -5.5308838356525531e-05 -1.9654326529173988e-05 0.0000000000000000e+00  -2.9301230101563430e-05 -6.1793958963730482e-05 0.0000000000000000e+00  3.2347701228960776e-06 -4.8269938457611170e-05 0.0000000000000000e+00  -6.4764478487261374e-05 -8.2906887709186180e-06 0.0000000000000000e+00  2.1293885722064598e-05 -1.7849932229479512e-05 0.0000000000000000e+00  3.0229498254940346e-05 -3.3301832215089968e-06 0.0000000000000000e+00  -5.1437881612570967e-05 -2.1098183652467047e-05 0.0000000000000000e+00  3.68473157