<?xml version="1.0"?>
<VTKFile type="UnstructuredGrid"  version="0.1"  >
<UnstructuredGrid>
<Piece  NumberOfPoints="4153" NumberOfCells="8064">
<Points>
<DataArray  type="Float64"  NumberOfComponents="3"  format="ascii">-0.4163753685666401 -0.6435472148367701 0  -0.03734872271974865 -0.8244257364521125 0  -0.09178551276391997 -0.818457751182717 0  -0.1449719966516075 -0.8064312853690808 0  -0.1963175907826206 -0.7889760074826598 0  -0.2457694888259481 -0.7677628906887681 0  -0.2926150226406318 -0.7409902186596657 0  -0.3366133360982396 -0.7107622522666999 0  -0.3777372529018833 -0.6779769935952153 0  0.01754512483808837 -0.8239562009864075 0  -0.4524390349539988 -0.6091280153345203 0  -0.4866108051806904 -0.5747722874907163 0  -0.5189661337940604 -0.540781612363038 0  -0.5498031651963317 -0.5076581060499683 0  -0.579522093563997 -0.4760068432936878 0  -0.608444217736704 -0.4461846357426474 0  -0.6366833024714916 -0.4189680036714009 0  0.6336706182154499 -0.4140575219202738 0  0.07205090415314452 -0.8171136992552734 0  0.1253606954773185 -0.8041785966427407 0  0.176781646352915 -0.7857389308268714 0  0.2257740700922893 -0.7624919997958085 0  0.2720997991638845 -0.73566480647598 0  0.3157007233271992 -0.7060655444835564 0  0.3566595941414945 -0.6745392243517886 0  0.39510403502786 -0.6417707327526879 0  0.4314170463840056 -0.6086243272988328 0  0.4658673056654709 -0.5755574913377168 0  0.4987551276015014 -0.5430010425438287 0  0.5303053974688163 -0.5113231369919823 0  0.5608621488041509 -0.4808491148543753 0  0.5905861927304319 -0.452042579758285 0  0.6197237952271477 -0.4257448942840699 0  0.6049455307691146 -0.4387654357150791 0  -0.6223461436360673 -0.4323535528639741 0  -0.5647578903877104 -0.4917536693667204 0  -0.5029883547541659 -0.5577071465982805 0  -0.4346338580879263 -0.6263155321443404 0  -0.3575586331092326 -0.6945308117889708 0  -0.2695129298455099 -0.7548465554410185 0  -0.1709083080509775 -0.7984726045434409 0  -0.06467717644977249 -0.822232558387667 0  0.5757424428688604 -0.4664311036474802 0  0.1513433389608576 -0.7955901525306166 0  0.2492796246526565 -0.7494863110066718 0  0.3364876346875806 -0.6904874070178696 0  0.4135155546476307 -0.6252288563505245 0  0.4824809531010391 -0.5592116962671674 0  0.5457174552853334 -0.4960502858093989 0  0.04489901476742201 -0.8213226993568578 0  -0.6502633888795999 -0.4068614472244637 0  0.5146832241734598 -0.5270523662621101 0  0.4488537717914799 -0.5920647329981126 0  0.3761870257035326 -0.6582466817923565 0  0.2942382297443316 -0.7211668182807367 0  0.2016204982923248 -0.7746643410285788 0  0.09890218746689414 -0.8113756809206831 0  -0.00990368141423548 -0.8250025490076383 0  -0.1185797318346781 -0.8131941948310752 0  -0.2211501247121334 -0.778832283332332 0  -0.3148955061364006 -0.7260694268788332 0  -0.3976844783218608 -0.6613536407760521 0  -0.4697713341183258 -0.5919530410491174 0  -0.5345868267989383 -0.5241291696192574 0  -0.593971717078429 -0.4610288986925113 0  0.750292183555639 -0.2249882238479857 0  0.6788587552616319 -0.3798811244208865 0  0.7185454318613526 -0.3366257923802148 0  0.7436237768372495 -0.2843455883331452 0  0.656833929598622 -0.3974435281902923 0  0.6998729529004246 -0.3595937872882278 0  0.7290310377272142 -0.3088942059117504 0  0.7456839953132969 -0.254281117662963 0  0.6450915740446754 -0.4059877368149003 0  0.6678312302527425 -0.3878334437104037 0  0.6895028189709489 -0.3698891300001739 0  0.7089244113805864 -0.3472569566525381 0  0.7266127245695497 -0.3241762178574223 0  0.7353392747686261 -0.2964177201547553 0  0.743416975749712 -0.2690313841800145 0  0.7472869458221733 -0.2394714218473038 0  0.7499687628458529 -0.2058020304837076 0  0.7530792185259553 0.2267639612716033 0  0.7542084224537686 0.1886220549809987 0  0.7565815022963948 0.1499691385831667 0  0.7592152813870696 0.1107373457225047 0  0.7618262835810258 0.07089126159998578 0  0.7628733196341911 0.03057327087113371 0  0.7624906919087944 -0.009858574940522793 0  0.760675700930845 -0.05014737874661712 0  0.7574070424313378 -0.08992165105860854 0  0.7542039826319644 -0.1290963672269103 0  0.7513530740567217 -0.1676872120149736 0  0.7539887717128617 0.2458614835436705 0  0.753438521753248 0.2077457220302638 0  0.7579085558550883 0.1304266042534054 0  0.7625255453211759 0.05076401268049823 0  0.7617661227699758 -0.03003774675218362 0  0.7558165843197868 -0.1095879903966027 0  0.7504391471291276 -0.1867993925622859 0  0.7553348364244031 0.1693667225283386 0  0.7606223716527953 0.09091289765803962 0  0.7628556869589823 0.01035575684338556 0  0.7591037299229073 -0.07013295247686006 0  0.7527084462094328 -0.1484653650050422 0  0.6438062672049731 0.4371503039150315 0  0.7488262031467776 0.305394513849398 0  0.7253249606945321 0.3585881875823749 0  0.6874279395458959 0.4026343138798418 0  0.750335944570564 0.2752532140031542 0  0.7355991124488885 0.3307948989712864 0  0.7074796819835109 0.3816986143087645 0  0.6659651847516258 0.4201017151580572 0  0.7516385639875937 0.2604582621265768 0  0.7487053594431405 0.2901003795759332 0  0.7414163421790739 0.3178741369041939 0  0.7324040808378947 0.3456085751686973 0  0.7160501941389461 0.3692678428466499 0  0.6975614769221701 0.3922567571962439 0  0.6766409922681424 0.4106148801471162 0  0.6546978389556498 0.428786254685643 0  -0.02958301617190242 0.8785070991175039 0  0.602882206227681 0.4767368771162703 0  0.5746719938995121 0.506967031341111 0  0.5456816765700756 0.539182674642292 0  0.5155726058580572 0.5730187482680958 0  0.483932145581728 0.6079363542898986 0  0.4504535582429336 0.643520028127213 0  0.4148193641018737 0.6793260224828789 0  0.3766697393093123 0.7149200403148687 0  0.3355828881878243 0.7492180950989696 0  0.291410517037835 0.7814743618717965 0  0.2440611388138036 0.8107265898707069 0  0.1936232247206215 0.8361625557811295 0  0.1403661825894055 0.8563210859403769 0  0.08488786984642001 0.8704305404424332 0  0.02796181370412762 0.8778189556465237 0  0.6305128134175811 0.4492645836219729 0  -0.08669246496800913 0.8714908949190379 0  -0.1423398881032928 0.8576669625499919 0  -0.1956889363452753 0.8376967037965238 0  -0.2459940128442147 0.811808952431623 0  -0.2934530735192058 0.783469224336347 0  -0.3377236999335121 0.7520322467406308 0  -0.3789894104366844 0.718559315349301 0  -0.4174508778837634 0.6837037814829618 0  -0.4534615372170382 0.6487521842070063 0  -0.4874829867952911 0.6140262167479068 0  -0.5197879315052346 0.5799027008210285 0  -0.5506663744343083 0.5467496688723321 0  -0.5804026335305703 0.5149080758835961 0  -0.6092553756554078 0.4849155622043727 0  -0.6374627317137431 0.4575895742244987 0  -0.6509797374410818 0.4454750711611183 0  -0.6231429906399297 0.4710655126636641 0  -0.5656744351772202 0.530767792198594 0  -0.5038346749048885 0.5968810219355291 0  -0.4357110316464007 0.6662123205024404 0  -0.3587118588562055 0.7354502268922082 0  -0.2701137297225963 0.798101841305948 0  -0.1693269318782544 0.8482204623951553 0  -0.05824909712044463 0.8758514734107959 0  0.05656216369608543 0.8750254218844072 0  0.1673159248102586 0.8469239216957312 0  0.2681346733723008 0.7965442899450776 0  0.3564883434630642 0.7322478064197439 0  0.4329253850111619 0.661427907523339 0  0.4999615247621758 0.5903768730333787 0  0.5602847822970223 0.5229699967032314 0  0.6164871506528747 0.4627893409969782 0  -0.5948399321101374 0.4998569583882095 0  -0.5353971860690105 0.563228282810445 0  -0.4707100890812204 0.6313457913214318 0  -0.3986256527278526 0.7013091050017622 0  -0.3159619538065223 0.7680280294208699 0  -0.2215347850760614 0.8258350266877744 0  -0.1147402443406166 0.8653268579266408 0  -0.0007456219629571829 0.8790559067428765 0  0.1128619964491926 0.8641767906561654 0  0.2192533971022474 0.8240726744523349 0  0.3138898740747279 0.765659139146559 0  0.3961208403378823 0.6972337989532476 0  0.467441532317857 0.6256757435180237 0  0.5308219807723853 0.5559784835112421 0  0.5887822282236992 0.4917671860449038 0  -0.7639983842007764 0.2544581756358305 0  -0.6951123879425449 0.4107399342962844 0  -0.7337299563563914 0.3668329323257417 0  -0.7579614817228393 0.3139631980233621 0  -0.6734770674282112 0.4283922381668334 0  -0.7155693589445747 0.3899839264998426 0  -0.7440792712205277 0.3390049473460316 0  -0.7597892172180888 0.2838319159879897 0  -0.6620227387517024 0.4370943043163289 0  -0.6842602206133576 0.4187804108985836 0  -0.7054628334875372 0.400475002602574 0  -0.724333215941754 0.3775374963466013 0  -0.7412690804395726 0.3540587522736253 0  -0.7501272970141207 0.3262715750910105 0  -0.7578242136792775 0.2986515071668486 0  -0.7612721124921104 0.2690174344593496 0  -0.7634051338329758 0.2352864078990245 0  -0.7631477162454183 -0.1978297206922362 0  -0.7644899008112026 -0.159697006756393 0  -0.7671804427039616 -0.12105347158586 0  -0.7701661345026696 -0.08181480832011157 0  -0.7731591359856796 -0.04196065137721095 0  -0.7746308630954951 -0.001605912528319474 0  -0.7746664141381344 0.03888209766020851 0  -0.773268581353585 0.07924691463664665 0  -0.7703580987272367 0.1191280179904678 0  -0.7674226615991783 0.1584058396411907 0  -0.7647510982602447 0.1970985210676894 0  -0.7637920881391683 -0.2169731763007086 0  -0.7636025383288221 -0.1788205029016122 0  -0.7686870738780008 -0.1015118798551232 0  -0.7740746902207569 -0.02181708626603303 0  -0.7741467185002633 0.05909692469942955 0  -0.7689067945576333 0.1388429717508528 0  -0.7638636615712456 0.216248141848591 0  -0.7657692164333747 -0.1404493185435562 0  -0.7717454647918278 -0.06198777606027634 0  -0.7748230635857332 0.01863750418451397 0  -0.7718988376551703 0.09928463931848643 0  -0.766026278179973 0.1778251177595779 0  -0.7576957305069127 -0.2763846020166443 0  -0.7332557923534324 -0.3290623595536034 0  -0.694510144378799 -0.3726480262564505 0  -0.7596257118594363 -0.2463137622533313 0  -0.7438355825521623 -0.3014228693871759 0  -0.7150298880930367 -0.3520927015405011 0  -0.6727420677522009 -0.3900480638816631 0  -0.7611086069084301 -0.2315198744868898 0  -0.75767
[...]
<PointData  Vectors="f_4362"> 
<DataArray  type="Float64"  Name="f_4362"  NumberOfComponents="3" format="ascii">3.0884292456137185e-07 -2.3483096031669781e-05 0.0000000000000000e+00  3.0514346698466416e-06 -3.9727520017930024e-05 0.0000000000000000e+00  1.5478799232691466e-06 -3.9034594726151965e-05 0.0000000000000000e+00  2.5063766497439766e-07 -3.7762293260069849e-05 0.0000000000000000e+00  -7.2088935143796809e-07 -3.5928383518081854e-05 0.0000000000000000e+00  -1.3097534257049775e-06 -3.3707226438719034e-05 0.0000000000000000e+00  -1.4006028976267449e-06 -3.1218988863755940e-05 0.0000000000000000e+00  -1.1483121073132854e-06 -2.8662830652719938e-05 0.0000000000000000e+00  -5.0206772495418838e-07 -2.5959240559401334e-05 0.0000000000000000e+00  4.6354215269863276e-06 -3.9829694237126107e-05 0.0000000000000000e+00  1.3641970606165207e-06 -2.0976257181691454e-05 0.0000000000000000e+00  2.8544527685322091e-06 -1.8332826850078589e-05 0.0000000000000000e+00  4.6765606617141747e-06 -1.5680471267381289e-05 0.0000000000000000e+00  6.7509685527165709e-06 -1.3087880265915696e-05 0.0000000000000000e+00  9.1016139247187095e-06 -1.0524499477847170e-05 0.0000000000000000e+00  1.1685103898454196e-05 -8.0200142901596041e-06 0.0000000000000000e+00  1.4552146118577733e-05 -5.4687422801307089e-06 0.0000000000000000e+00  -9.9498745624420403e-06 -1.8383016573781625e-06 0.0000000000000000e+00  6.1729599465252284e-06 -3.9334720439273004e-05 0.0000000000000000e+00  7.5394614155837530e-06 -3.8271556253090837e-05 0.0000000000000000e+00  8.6273470338530996e-06 -3.6696096595620075e-05 0.0000000000000000e+00  9.3486034179164733e-06 -3.4671400032161931e-05 0.0000000000000000e+00  9.6560718470825914e-06 -3.2293596233941672e-05 0.0000000000000000e+00  9.5036979726468240e-06 -2.9622878301348068e-05 0.0000000000000000e+00  8.8896211966377055e-06 -2.6751049219478267e-05 0.0000000000000000e+00  7.8297712512218049e-06 -2.3742764779948765e-05 0.0000000000000000e+00  6.3801929497600266e-06 -2.0699388889649944e-05 0.0000000000000000e+00  4.5628080528280151e-06 -1.7642046743314733e-05 0.0000000000000000e+00  2.4275207465830167e-06 -1.4616704883441552e-05 0.0000000000000000e+00  2.6670302578846934e-08 -1.1646591830024085e-05 0.0000000000000000e+00  -2.5775859029226959e-06 -8.7873978236804692e-06 0.0000000000000000e+00  -5.3745058575928226e-06 -6.0232110299500646e-06 0.0000000000000000e+00  -8.3987068418989987e-06 -3.2788717449794700e-06 0.0000000000000000e+00  -6.8765668163184720e-06 -4.6166115436079876e-06 0.0000000000000000e+00  1.3065379031666501e-05 -6.7363491450688943e-06 0.0000000000000000e+00  7.9037401630545230e-06 -1.1818532785649997e-05 0.0000000000000000e+00  3.7191381100124260e-06 -1.7016901455375706e-05 0.0000000000000000e+00  7.6299356404302810e-07 -2.2280437149310576e-05 0.0000000000000000e+00  -9.5896136576301764e-07 -2.7422249522152654e-05 0.0000000000000000e+00  -1.3252982924264504e-06 -3.2361604407681866e-05 0.0000000000000000e+00  -2.8825893970961930e-07 -3.6945086989621892e-05 0.0000000000000000e+00  2.2817930335912209e-06 -3.9456856485749886e-05 0.0000000000000000e+00  -3.9814690071538490e-06 -7.4015534462692492e-06 0.0000000000000000e+00  8.1240012915294856e-06 -3.7541787796356624e-05 0.0000000000000000e+00  9.5606009324955642e-06 -3.3528798741795152e-05 0.0000000000000000e+00  9.2480383455835548e-06 -2.8196164755599594e-05 0.0000000000000000e+00  7.1543225486009041e-06 -2.2229653412158368e-05 0.0000000000000000e+00  3.5342500071425859e-06 -1.6129458602719965e-05 0.0000000000000000e+00  -1.2546317823397450e-06 -1.0239334563354547e-05 0.0000000000000000e+00  5.4182794770616617e-06 -3.9655906445907001e-05 0.0000000000000000e+00  1.6023616987495866e-05 -4.1597421569977373e-06 0.0000000000000000e+00  1.2745387365673104e-06 -1.3154393368519060e-05 0.0000000000000000e+00  5.5143999462248446e-06 -1.9171953604089163e-05 0.0000000000000000e+00  8.4228867564418997e-06 -2.5266601568934252e-05 0.0000000000000000e+00  9.6361284211776944e-06 -3.0986251114999147e-05 0.0000000000000000e+00  9.0427906021465541e-06 -3.5741407819520411e-05 0.0000000000000000e+00  6.8847235171466578e-06 -3.8870380283819387e-05 0.0000000000000000e+00  3.8414624632618919e-06 -3.9853361125598181e-05 0.0000000000000000e+00  8.6445943393335117e-07 -3.8480461899507267e-05 0.0000000000000000e+00  -1.0370866131914231e-06 -3.4828312955131617e-05 0.0000000000000000e+00  -1.2572152551632190e-06 -2.9852687711124479e-05 0.0000000000000000e+00  -2.6819064956249064e-07 -2.4920143237472880e-05 0.0000000000000000e+00  2.0670172010812647e-06 -1.9658949381613371e-05 0.0000000000000000e+00  5.6728066266877927e-06 -1.4407130699813276e-05 0.0000000000000000e+00  1.0391189881402456e-05 -9.2536227744540186e-06 0.0000000000000000e+00  -2.0774253364493456e-05 -1.8682829968796480e-07 0.0000000000000000e+00  -1.4827470428571876e-05 1.5885580022737416e-06 0.0000000000000000e+00  -1.8164644790757091e-05 2.3171848362657914e-06 0.0000000000000000e+00  -2.0448921618944373e-05 1.2681306998077425e-06 0.0000000000000000e+00  -1.2395363957986422e-05 -2.4107316545248853e-08 0.0000000000000000e+00  -1.6505871883877649e-05 2.0209240777988702e-06 0.0000000000000000e+00  -1.9587249264944061e-05 1.9683002638799114e-06 0.0000000000000000e+00  -2.0766799537550981e-05 5.0500013011933538e-07 0.0000000000000000e+00  -1.1331677122551531e-05 -6.6628305435377498e-07 0.0000000000000000e+00  -1.3573195850362090e-05 8.6109470617041050e-07 0.0000000000000000e+00  -1.5669348985356613e-05 1.8505889152386569e-06 0.0000000000000000e+00  -1.7283551175238561e-05 2.1803152115546180e-06 0.0000000000000000e+00  -1.8249442655151453e-05 1.9181684607075673e-06 0.0000000000000000e+00  -2.0111289924909690e-05 1.5987684182884933e-06 0.0000000000000000e+00  -2.0897864778883160e-05 9.1279706283891859e-07 0.0000000000000000e+00  -2.0807634811916838e-05 1.8056383031678698e-07 0.0000000000000000e+00  -2.0483264138382204e-05 -6.0915284295831705e-07 0.0000000000000000e+00  -2.1693182841332238e-05 -6.5185377361148823e-06 0.0000000000000000e+00  -2.0828856124135324e-05 -5.7497961772021474e-06 0.0000000000000000e+00  -2.0165609607130740e-05 -5.1300673534477711e-06 0.0000000000000000e+00  -1.9711172516511698e-05 -4.6169801199308185e-06 0.0000000000000000e+00  -1.9417635094547021e-05 -4.1694696469438648e-06 0.0000000000000000e+00  -1.9237557780075900e-05 -3.7579907130502574e-06 0.0000000000000000e+00  -1.9141755292472908e-05 -3.3577264135894177e-06 0.0000000000000000e+00  -1.9133429426459962e-05 -2.9474124003381093e-06 0.0000000000000000e+00  -1.9228361186592299e-05 -2.4983087493516861e-06 0.0000000000000000e+00  -1.9476797551717819e-05 -1.9858851582060658e-06 0.0000000000000000e+00  -1.9912507754010249e-05 -1.3659187657924882e-06 0.0000000000000000e+00  -2.2036401895512313e-05 -6.9752873496484110e-06 0.0000000000000000e+00  -2.1225572398712644e-05 -6.1136937199748860e-06 0.0000000000000000e+00  -1.9911430860337425e-05 -4.8626144773109862e-06 0.0000000000000000e+00  -1.9318908528032371e-05 -3.9608097423356489e-06 0.0000000000000000e+00  -1.9126533161040043e-05 -3.1551353923457111e-06 0.0000000000000000e+00  -1.9325294703284900e-05 -2.2548559160372465e-06 0.0000000000000000e+00  -2.0174478166606744e-05 -1.0095983937786253e-06 0.0000000000000000e+00  -2.0468016907150154e-05 -5.4240486427976959e-06 0.0000000000000000e+00  -1.9547722293373273e-05 -4.3858804715286153e-06 0.0000000000000000e+00  -1.9179273972942922e-05 -3.5577280013093560e-06 0.0000000000000000e+00  -1.9171791762397903e-05 -2.7298425182289326e-06 0.0000000000000000e+00  -1.9670547879571551e-05 -1.6928733056077656e-06 0.0000000000000000e+00  -1.1860991154537405e-05 -5.9048184862561158e-06 0.0000000000000000e+00  -2.2043274680453742e-05 -8.5220218132836715e-06 0.0000000000000000e+00  -2.0065321698974976e-05 -9.5846437789635202e-06 0.0000000000000000e+00  -1.6672587193460314e-05 -9.0161218496815861e-06 0.0000000000000000e+00  -2.2166137958035411e-05 -7.7191865294327215e-06 0.0000000000000000e+00  -2.1186162528567851e-05 -9.1344661659817785e-06 0.0000000000000000e+00  -1.8381297490123107e-05 -9.3799848300752642e-06 0.0000000000000000e+00  -1.4300950811843022e-05 -7.5948691208472842e-06 0.0000000000000000e+00  -2.2133690470435113e-05 -7.3473677085906085e-06 0.0000000000000000e+00  -2.2244077243670518e-05 -8.1237674384543331e-06 0.0000000000000000e+00  -2.1693621325900537e-05 -8.8451242915088605e-06 0.0000000000000000e+00  -2.0369958807096646e-05 -9.2730164742628252e-06 0.0000000000000000e+00  -1.9200820434297738e-05 -9.5055125316507378e-06 0.0000000000000000e+00  -1.7522651533267380e-05 -9.2312180252697117e-06 0.0000000000000000e+00  -1.5468283611267712e-05 -8.3796982585245318e-06 0.0000000000000000e+00  -1.3186449709577669e-05 -6.9322887498847889e-06 0.0000000000000000e+00  4.3888568736758785e-07 2.5726039219295503e-05 0.0000000000000000e+00  -7.4171682451809548e-06 -2.2344287624234035e-06 0.0000000000000000e+00  -4.7463542070715086e-06 1.5372128812873015e-07 0.0000000000000000e+00  -2.3029601919227242e-06 2.5930824912368176e-06 0.0000000000000000e+00  -1.1691549834616568e-07 5.0703442187453412e-06 0.0000000000000000e+00  1.8141554844727954e-06 7.5983702746714950e-06 0.0000000000000000e+00  3.4426382647415034e-06 1.0147307012222163e-05 0.0000000000000000e+00  4.7201715368250713e-06 1.2672716561656119e-05 0.0000000000000000e+00  5.6542256853421809e-06 1.5171587253438733e-05 0.0000000000000000e+00  6.2026872463207634e-06 1.7577687560932523e-05 0.0000000000000000e+00  6.3385342019989672e-06 1.9819870011959849e-05 0.0000000000000000e+00  6.0562590485982937e-06 2.1808916652992767e-05 0.0000000000000000e+00  5.4041988498670520e-06 2.3477527001286542e-05 0.0000000000000000e+00  4.4331681091194507e-06 2.4777092468276522e-05 0.0000000000000000e+00  3.2121396732345324e-06 2.5620955969660138e-05 0.0000000000000000e+00  1.8416345714795664e-06 2.5959021009342564e-05 0.0000000000000000e+00  -1.0354123374215788e-05 -4.6563567814331665e-06 0.0000000000000000e+00  -8.7821695260000266e-07 2.5092871171262563e-05 0.0000000000000000e+00  -2.0266184436352233e-06 2.4035028052948784e-05 0.0000000000000000e+00  -2.8803703268584092e-06 2.2499647942569281e-05 0.0000000000000000e+00  -3.4321691467406177e-06 2.0738229156996906e-05 0.0000000000000000e+00  -3.7744283257089229e-06 1.8818265509540438e-05 0.0000000000000000e+00  -3.5576451676418579e-06 1.6421464787328377e-05 0.0000000000000000e+00  -2.9099063947944335e-06 1.3850767436012086e-05 0.0000000000000000e+00  -1.9108684102816657e-06 1.1240124842088467e-05 0.0000000000000000e+00  -5.5099209986340432e-07 8.5761659735527240e-06 0.0000000000000000e+00  1.1595704102775224e-06 5.8848158087744072e-06 0.0000000000000000e+00  3.1731665869313276e-06 3.2165692949370125e-06 0.0000000000000000e+00  5.4349020808060791e-06 6.0624403449586958e-07 0.0000000000000000e+00  7.8934578487507917e-06 -1.9125292912614210e-06 0.0000000000000000e+00  1.0561030087360518e-05 -4.3672528452643035e-06 0.0000000000000000e+00  1.3482644352148658e-05 -6.8500288172550055e-06 0.0000000000000000e+00  1.4977126488013410e-05 -8.1371313263240849e-06 0.0000000000000000e+00  1.1986931714027224e-05 -5.6249347929091968e-06 0.0000000000000000e+00  6.6437612104618273e-06 -6.3556908177951211e-07 0.0000000000000000e+00  2.1266242823321605e-06 4.5558744872805375e-06 0.0000000000000000e+00  -1.2804083458388027e-06 9.9188380346005298e-06 0.0000000000000000e+00  -3.2894961475190894e-06 1.5150875179662536e-05 0.0000000000000000e+00  -3.6780546663389852e-06 1.9858071077065561e-05 0.0000000000000000e+00  -2.5085783763705989e-06 2.3344064932893134e-05 0.0000000000000000e+00  -2.3043881138026082e-07 2.5455379876419979e-05 0.0000000000000000e+00  2.5405952908595165e-06 2.5854656073244434e-05 0.0000000000000000e+00  4.9569276833470892e-06 2.4183016092837294e-05 0.0000000000000000e+00  6.2527791232766175e-06 2.0856288758779042e-05 0.0000000000000000e+00  5.9735879078619875e-06 1.6379946989575946e-05 0.0000000000000000e+00  4.1298644238427142e-06 1.1419551764594020e-05 0.0000000000000000e+00  8.9114937607318534e-07 6.3403427566577649e-06 0.0000000000000000e+00  -3.4981997498290696e-06 1.3879523567956655e-06 0.0000000000000000e+00  -8.8426425279794602e-06 -3.4521902185783491e-06 0.0000000000000000e+00  9.2296571384328915e-06 -3.1511317109826910e-06 0.0000000000000000e+00  4.2647579988677341e-06 1.9287932231804389e-06 0.0000000000000000e+00  2.5997416361765095e-07 7.2354874558243845e-06 0.0000000000000000e+00  -2.4739643305505714e-06 1.2578767376727453e-05 0.0000000000000000e+00  -3.7108793448404565e-06 1.7625350987793681e-05 0.0000000000000000e+00  -3.3499750799686093e-06 2.1947822534138919e-05 0.0000000000000000e+00  -1.4739448910903772e-06 2.4598238967731837e-05 0.0000000000000000e+00  1.1367702651380726e-06 2.5901088003816980e-05 0.0000000000000000e+00  3.8489492063908029e-06 2.5259481474938613e-05 0.0000000000000000e+00  5.7800681437185610e-06 2.2698455195534869e-05 0.0000000000000000e+00  6.3197449155899748e-06 1.8718709710738125e-05 0.0000000000000000e+00  5.2459338410927767e-06 1.3941966489355731e-05 0.0000000000000000e+00  2.6699517554143929e-06 8.8737376722632254e-06 0.0000000000000000e+00  -1.1691791956970501e-06 3.8496628506036333e-06 0.0000000000000000e+00  -6.0746059721990217e-06 -1.0487508000326890e-06 0.0000000000000000e+00  2.5350408447734886e-05 -9.4495337542805155e-06 0.0000000000000000e+00  1.9772774466545246e-05 -1.1336109227924919e-05 0.0000000000000000e+00  2.3119353905601575e-05 -1.1977596061641418e-05 0.0000000000000000e+00  2.5208186022747726e-05 -1.0940225087482248e-05 0.0000000000000000e+00  1.7401450757600057e-05 -9.8576177224608740e-06 0.0000000000000000e+00  2.1451042999938163e-05 -1.1726031663659165e-05 0.0000000000000000e+00  2.4348060476567193e-05 -1.1576479203657237e-05 0.0000000000000000e+00  2.5411760388007541e-05 -1.0162355179945502e-05 0.0000000000000000e+00  1.6309869922060486e-05 -9.2044229361572861e-06 0.0000000000000000e+00  1.8556765894974554e-05 -1.0669612791054645e-05 0.0000000000000000e+00  2.0609111807095970e-05 -1.1568489460287772e-05 0.0000000000000000e+00  2.2246011091211225e-05 -1.1868156319906029e-05 0.0000000000000000e+00  2.3321195470852425e-05 -1.1631655938661766e-05 0.0000000000000000e+00  2.4865958013455227e-05 -1.1263248497815927e-05 0.0000000000000000e+00  2.5506532045545288e-05 -1.0562913825869245e-05 0.0000000000000000e+00  2.5417905972586045e-05 -9.8151470895681764e-06 0.0000000000000000e+00  2.5054930598262452e-05 -9.0161744879271500e-06 0.0000000000000000e+00  2.5636215287382509e-05 -3.2547466340225128e-06 0.0000000000000000e+00  2.4835001393605577e-05 -4.0129237623033256e-06 0.0000000000000000e+00  2.4211467302596798e-05 -4.6239201470532193e-06 0.0000000000000000e+00  2.3789368699918133e-05 -5.1256294952780306e-06 0.0000000000000000e+00  2.3524753430185506e-05 -5.5619247830322464e-06 0.0000000000000000e+00  2.3374430593500326e-05 -5.9580162422236970e-06 0.0000000000000000e+00  2.3317801231325133e-05 -6.3416839709933349e-06 0.0000000000000000e+00  2.3355741468855345e-05 -6.7349563345373290e-06 0.0000000000000000e+00  2.3513704036618589e-05 -7.1657962665659415e-06 0.0000000000000000e+00  2.3830301529596987e-05 -7.6616095985042471e-06 0.0000000000000000e+00  2.4350665035402594e-05 -8.2654518894472310e-06 0.0000000000000000e+00  2.5983596248785031e-05 -2.8201654230002627e-06 0.0000000000000000e+00  2.5205668165235481e-05 -3.6568477201798354e-06 0.0000000000000000e+00  2.3972528788960617e-05 -4.8869381458031951e-06 0.0000000000000000e+00  2.3438766538057158e-05 -5.7629357274595832e-06 0.0000000000000000e+00  2.3325908702912749e-05 -6.5356706402615241e-06 0.0000000000000000e+00  2.3644357907752368e-05 -7.4019362906824879e-06 0.0000000000000000e+00  2.4672190299830378e-05 -8.6184957628315147e-06 0.0000000000000000e+00  2.4496681846148496e-05 -4.3351704337909655e-06 0.0000000000000000e+00  2.3644765561474612e-05 -5.3513286555411797e-06 0.0000000000000000e+00  2.3334603365135490e-05 -6.1500238531157390e-06 0.0000000000000000e+00  2.3420799520099519e-05 -6.9429040379466002e-06 0.0000000000000000e+00  2.4063222311286730e-05 -7.9470386534582743e-06 0.0000000000000000e+00  2.6006628904877829e-05 -1.3028575538871333e-06 0.0000000000000000e+00  2.4038044298218271e-05 -2.4276723129796683e-07 0.0000000000000000e+00  2.0780840956152613e-05 -8.6913844312903454e-07 0.0000000000000000e+00  2.6131996828106479e-05 -2.0943039646108103e-06 0.0000000000000000e+00  2.5203341397212003e-05 -6.5570312389487329e-07 0.0000000000000000e+00  2.2415468649267940e-05 -4.8597355756049715e-07 0.0000000000000000e+00  1.8443470092975366e-05 -2.3679553084870377e-06 0.0000000000000000e+00  2.6100522523077223e-05 -2.4469696541445511e-06 0.0000000000000000e+00  2.6261275395204537e-05 -1.6867129445274843e-06 0.0000000000000000e+00  2.5698427289044943e-05 -9.7055655885788835e-07 0.0000000000000000e+00  2.4213475477286318e-05 -5.9934987289084868e-07 0.0000000000000000e+00  2.3183208060229935e-05 -3.4970544042960172e-07 0.0000000000000000e+00  2.1593733803975349e-05 -6.4056090046577071e-07 0.0000000000000000e+00  1.9576034724660911e-05 -1.5485769351789539e-06 0.0000000000000000e+00  1.7338310460790860e-05 -3.0650023136722711e-06 0.0000000000000000e+00  4.2057651582789132e-06 1.3543817041194648e-05 0.0000000000000000e+00  9.5753874609221128e-07 -2.5910399723803110e-05 0.0000000000000000e+00  4.0296359950664308e-06 -3.0453799497414938e-05 0.0000000000000000e+00  1.1237053067284209e-05 -1.8559660695801298e-05 0.0000000000000000e+00  -6.3637673956282396e-06 8.1558689436036124e-06 0.0000000000000000e+00  9.3657526653133023e-07 1.7082162866152724e-05 0.0000000000000000e+00  -1.7844868159471854e-05 -3.4602051957038444e-06 0.0000000000000000e+00  2.2141896346029288e-05 -6.4873185059675821e-06 0.0000000000000000e+00  2.2606330576990224e-05 -5.5629552864097511e-06 0.0000000000000000e+00  -1.8518093894314454e-05 -4.3828834725787024e-06 0.0000000000000000e+00  -1.3729534008293400e-05 6.0278652026921300e-07 0.0000000000000000e+00  -1.3515018392210847e-05 -3.1379919524936714e-07 0.0000000000000000e+00  -7.9903384445140131e-06 2.6530460008504213e-06 0.0000000000000000e+00  -1.1411304842333379e-05 -5.3217898019006427e-06 0.0000000000000000e+00  -6.1817251272635219e-06 -6.7942629548912925e-06 0.0000000000000000e+00  -1.6081598427166860e-05 -4.2489975684492188e-06 0.0000000000000000e+00  -3.0668202939383827e-06 4.1667750532562915e-06 0.0000000000000000e+00  -1.0138614378829142e-06 -9.2059840307487622e-06 0.0000000000000000e+00  1.4344702535708481e-06 3.4943667556072211e-06 0.0000000000000000e+00  3.9116356954838239e-06 -1.1117747126786079e-05 0.0000000000000000e+00  6.7176319650486134e-06 2.6791289632060789e-06 0.0000000000000000e+00  8.6407215231405528e-06 -1.1571353474839566e-05 0.0000000000000000e+00  1.1478478139780332e-05 -4.2675666453279928e-06 0.0000000000000000e+00  1.8038782093990589e-05 -1.0769292100950745e-05 0.0000000000000000e+00  1.7918037237209590e-05 -9.8681416606733509e-06 0.0000000000000000e+00  2.0283599378633340e-05 -5.9438592488488866e-06 0.0000000000000000e+00  1.7077384213225664e-05 -1.5609200036745559e-06 0.0000000000000000e+00  -1.1906886776954923e-05 -9.6120925785843458e-06 0.0000000000000000e+00  2.3307035460522572e-06 1.6025195323420242e-05 0.0000000000000000e+00  1.6754399751084434e-05 -1.0672742739775888e-06 0.0000000000000000e+00  9.0070396019095121e-06 7.2115568858149235e-06 0.0000000000000000e+00  -1.4581254560267396e-06 1.3852746109171008e-05 0.0000000000000000e+00  -7.2397251768191700e-06 -1.4055714964738121e-05 0.0000000000000000e+00  3.2423639652198894e-06 -3.0269784111402026e-05 0.0000000000000000e+00  7.0082973186056439e-06 -2.4069870615441647e-05 0.0000000000000000e+00  -1.2663557735735064e-05 -9.2846293790252043e-06 0.0000000000000000e+00  1.2974179057703406e-05 -1.2722746253847856e-05 0.0000000000000000e+00  1.5865549897315598e-05 -5.3823193473120047e-06 0.0000000000000000e+00  -4.2155914019810043e-06 -1.8638705601542872e-05 0.0000000000000000e+00  2.2100925047013617e-05 -7.6515583226952