<?xml version="1.0"?>
<VTKFile type="UnstructuredGrid"  version="0.1"  >
<UnstructuredGrid>
<Piece  NumberOfPoints="4153" NumberOfCells="8064">
<Points>
<DataArray  type="Float64"  NumberOfComponents="3"  format="ascii">-0.4159429826850926 -0.5362613292543857 0  -0.04461515998251062 -0.6280348082762706 0  -0.09291428984836833 -0.6248792480575229 0  -0.1407982996019218 -0.618901853485424 0  -0.1881910085321505 -0.6106766836185991 0  -0.235316602351043 -0.6009707080160278 0  -0.2818360706034116 -0.5877060391915565 0  -0.3274736622475926 -0.5721058261278761 0  -0.3721972180870883 -0.5548887907648314 0  0.003893281950622444 -0.6280298655461553 0  -0.4590241115335823 -0.5183085575461835 0  -0.5015968041137807 -0.5004847468702706 0  -0.5437227974906877 -0.4830820832722665 0  -0.585442275410555 -0.4664570944767499 0  -0.6269006599541558 -0.4508143963165386 0  -0.6680510451370403 -0.4362064979604627 0  -0.7089963175948841 -0.4233486708498779 0  0.6940523730160658 -0.4345525778504145 0  0.05236010410679262 -0.6248573015766907 0  0.100540620001656 -0.6186250475167874 0  0.148215135910143 -0.6096035398262585 0  0.1952123328936305 -0.5981723192890057 0  0.2414636838259787 -0.5850190374775622 0  0.2869909480224117 -0.5705959545908673 0  0.3318324486081478 -0.5553064097295664 0  0.3760367441132214 -0.5395815998952004 0  0.4197057129847518 -0.5237388056059966 0  0.4629140429916035 -0.5080418125215012 0  0.5057238403533381 -0.4926690642473513 0  0.5481782394934532 -0.4779008286832832 0  0.5903078277971231 -0.4637590960938117 0  0.632123401681579 -0.4505974314457348 0  0.6737054219436844 -0.4389607656166137 0  0.6528612756919572 -0.4448050192744032 0  -0.6884349740823876 -0.4298348405777062 0  -0.6062118556586187 -0.4585497212019395 0  -0.5227071624744043 -0.4917282069075573 0  -0.4375370147983413 -0.527274657405038 0  -0.3499495892534314 -0.563614246915377 0  -0.258679508615476 -0.5946694483184725 0  -0.1645533982575963 -0.6150471989239792 0  -0.06880620374044261 -0.6268367455877057 0  0.6112500989538947 -0.4571009925513023 0  0.1244529820036456 -0.6144393436328625 0  0.2184295497219378 -0.5917808741432832 0  0.3094923162241439 -0.5630464535054746 0  0.3979348486493725 -0.5316565203457968 0  0.4843638302380022 -0.5003165968897707 0  0.5692867019652162 -0.4707329194004041 0  0.02814728077481279 -0.6268363948632077 0  -0.7289457352619393 -0.4182908145007171 0  0.5269810275878758 -0.4851932332545867 0  0.4413631814220284 -0.5158633733899521 0  0.3540032330149127 -0.5474606095362975 0  0.2643159463650355 -0.5779425986583334 0  0.1718094661484122 -0.6041510818382154 0  0.07650093951521533 -0.6221105127724401 0  -0.02037065264715221 -0.6284355621320554 0  -0.116916717646935 -0.6222144468928296 0  -0.2117428421046716 -0.6061769200016849 0  -0.3047681507412088 -0.5801433198460449 0  -0.3942544580146292 -0.5456532526999563 0  -0.4803683862628416 -0.5093608925342571 0  -0.5646181876213258 -0.474615226088358 0  -0.6475040631486044 -0.4434428565204367 0  0.8575494354376274 -0.2479528789384445 0  0.7577207739510519 -0.414245566961494 0  0.8118568555026972 -0.3731344901339065 0  0.8469746006226619 -0.3152663105798261 0  0.7261553156935441 -0.4248091979673959 0  0.7854970830941782 -0.3946756391326025 0  0.8283625418556295 -0.3434140230074283 0  0.8516225714139001 -0.2813046549256991 0  0.710302794029682 -0.4306104183458536 0  0.7418583976008793 -0.4191288007115438 0  0.771653694417445 -0.4046272248281342 0  0.7982735421278457 -0.3832032151611547 0  0.8209879233548898 -0.3587536027088237 0  0.8372356231399813 -0.3292285000637651 0  0.8489212690366253 -0.2981430704409755 0  0.8541814398100938 -0.2645488544549582 0  0.8570342689948465 -0.2261759343497603 0  0.8625725929318043 0.2531172552428917 0  0.8619339128399238 0.2099227518882956 0  0.8624057085236457 0.1666725670086672 0  0.8634245173256193 0.1232424884395145 0  0.8647518443296942 0.07951920061303813 0  0.86513694687025 0.03554115490662103 0  0.8646131416774065 -0.008502234917063794 0  0.8631831898657309 -0.0524884828077084 0  0.860849625877894 -0.09622427367266936 0  0.8588296269301521 -0.1396851602778048 0  0.8573619294533689 -0.1829655018356564 0  0.8636671610120914 0.2748803107742546 0  0.8620706079551407 0.2315153813839481 0  0.8628697203764707 0.1449855277314506 0  0.8650597480740062 0.05754672195740097 0  0.8640144858612028 -0.03051082250288349 0  0.8597962214478461 -0.1179825510612886 0  0.8570123196897892 -0.2045717142676724 0  0.8620848569445587 0.1883141268381412 0  0.8641305995154405 0.1014355391643367 0  0.8649849444681049 0.01352006201388233 0  0.8620508462036086 -0.07440854349412035 0  0.858010532542246 -0.1613430118188946 0  0.705870265850234 0.464416749392864 0  0.8548286573192522 0.3424715397811398 0  0.8212426250307004 0.401053283207366 0  0.7684715037104506 0.4432584612186911 0  0.858745139934463 0.3083676059500643 0  0.8372010445687044 0.3710779751398263 0  0.7956298697434709 0.4231121066800162 0  0.7374463535295559 0.4543661293921286 0  0.8608868210100511 0.2915529624123485 0  0.8564587278129661 0.3252810076656521 0  0.8456420398399974 0.3566681034823128 0  0.8300190024508409 0.386473274141738 0  0.8080439002090288 0.4113791449378583 0  0.7820898412789854 0.4333228493863273 0  0.7528887515343571 0.4484628517701967 0  0.721846370135469 0.4603175769714657 0  -0.03673596291810996 0.7140537202031813 0  0.6453088375077541 0.4832940722012126 0  0.604337903513035 0.4986912108526844 0  0.5630125292007087 0.5152800385149644 0  0.5213525199072503 0.5329938312400755 0  0.4792311905754524 0.5516150010264121 0  0.4365924108652557 0.5708760078639434 0  0.3933476241698658 0.5905525338417041 0  0.3493865505848889 0.6104756093081507 0  0.3045413132412412 0.6300877399822801 0  0.2587410130637683 0.6489500504076738 0  0.2119029358618847 0.6665496689629336 0  0.1639528540128622 0.6824014774553742 0  0.1149192225224304 0.6954764697113118 0  0.06497438945554893 0.7053275700782012 0  0.01435262550260734 0.7115195777499725 0  0.6860578495661713 0.4697618599124 0  -0.08787135202138087 0.7115984532282837 0  -0.1385270513533469 0.7046454273506476 0  -0.1882773909877485 0.6935433068592795 0  -0.2366383002313686 0.6783546988648972 0  -0.2836721954207749 0.6617384132271522 0  -0.3295878175045261 0.6438031655267681 0  -0.3744835777500894 0.6249547737376193 0  -0.4184179749257442 0.6055235467152796 0  -0.4616327772549907 0.5864131942176409 0  -0.504261749335002 0.5676343493333585 0  -0.5463950733557817 0.5493825132949469 0  -0.5881030811592053 0.5318573157321362 0  -0.6294251404455208 0.5152459652269857 0  -0.6704144561294744 0.4998763562196585 0  -0.7111934480395933 0.4863593860615137 0  -0.7310967502627156 0.481100394670452 0  -0.6907364551614326 0.4931401070835099 0  -0.608809733587151 0.5234237640114725 0  -0.5253857334685607 0.5584323878113863 0  -0.4401033463626399 0.5959423996067453 0  -0.3521563911413559 0.6344631862862111 0  -0.2603016558176761 0.6702517157369229 0  -0.1635397396168021 0.6995466053350254 0  -0.06233035409999341 0.7133775789347616 0  0.03973222653925156 0.7089137889371715 0  0.1395623791030735 0.6892956739124587 0  0.2354536701896006 0.6579416461938324 0  0.327075422596263 0.6203506043011948 0  0.4150500787905954 0.5806766891130619 0  0.5003488163410049 0.5422169601128569 0  0.5837215298052025 0.506873575260707 0  0.6656030344429709 0.4765686347993096 0  -0.6499552268953143 0.5074601430546879 0  -0.5672973294096766 0.540521603491653 0  -0.4830139035040062 0.5769688744660602 0  -0.3965747103701879 0.6152457749228366 0  -0.3067630458571228 0.6529098865543564 0  -0.2126995689305284 0.6863220784008072 0  -0.1132869410942777 0.7086608416602892 0  -0.01112019247664883 0.713356303407792 0  0.09004769589911352 0.7008348392131711 0  0.1880829468302442 0.6747778417940253 0  0.2817661473521234 0.639644506818641 0  0.3714733632294613 0.6005061246873881 0  0.4579811216771093 0.5611809313665503 0  0.5422316295701094 0.5239845158062651 0  0.6248612174361508 0.4909049127209888 0  -0.8895240203496186 0.2912123265691675 0  -0.7936705403167681 0.4595111753947698 0  -0.8465127887824722 0.4172468504436507 0  -0.8802653301378308 0.3587249914912248 0  -0.762642518046536 0.470728531142817 0  -0.8208285628880123 0.4393060265856262 0  -0.8624180650834212 0.3872077351930167 0  -0.8842957438320688 0.3246415400157315 0  -0.7470557099160622 0.4768266030262435 0  -0.7780782840987236 0.4647361830554462 0  -0.8072893855858183 0.4495466998309107 0  -0.8332622649234876 0.4275530322618067 0  -0.8553066060067367 0.4026634331943059 0  -0.8709356809938846 0.3728519308026103 0  -0.8819197490749363 0.3415371148306839 0  -0.8865394724484248 0.3078486780040305 0  -0.8886152970752325 0.2694521175871669 0  -0.8881500279392954 -0.209095445481878 0  -0.8879264190751426 -0.1659534194456536 0  -0.8888487037404802 -0.1227550461636022 0  -0.8903322114994147 -0.07937976506313039 0  -0.892137711464553 -0.03572502029115674 0  -0.893043815806045 0.008178774997245529 0  -0.8930751981457347 0.0521409439184861 0  -0.8922394823082892 0.09604275567373255 0  -0.8905237233083018 0.1397006045210186 0  -0.8891181972779456 0.1830813323011052 0  -0.8882803957054896 0.2262907057295204 0  -0.8890128037708674 -0.230839984898723 0  -0.8878507971421289 -0.1875213915117127 0  -0.8895457919764992 -0.1010950632824114 0  -0.892702803061066 -0.01378859160737515 0  -0.8927675775993489 0.07410742399743944 0  -0.8897750794385934 0.1614178822480848 0  -0.8882538676895175 0.2478663257047534 0  -0.8883000053378094 -0.1443708391627909 0  -0.8912706973119039 -0.05760547255937404 0  -0.8931648716612003 0.03016003984341225 0  -0.891418507891351 0.1179233539820021 0  -0.8886113951007556 0.2047015383370257 0  -0.8794278186338926 -0.2982353647357674 0  -0.8451637930530131 -0.3563714080265022 0  -0.7918847218772943 -0.3979674772889509 0  -0.8836900788378391 -0.2642383393959998 0  -0.8614094410384443 -0.3266075583573533 0  -0.8192656946542533 -0.3781662398120968 0  -0.7606498820643293 -0.4086847728494488 0  -0.8860075647297284 -0.2474655807403703 0  -0.88121994
[...]
<CellData  Scalars="f_2655"> 
<DataArray  type="Float64"  Name="f_2655"  format="ascii">1.1177060660028088e-01   1.1177142700931385e-01   1.1176841180766976e-01   1.1176984906290505e-01   1.1177101585951241e-01   1.1176835308653998e-01   1.1177227391477063e-01   1.1177249786696468e-01   1.1176670141714491e-01   1.1177116044654112e-01   1.1176539425272802e-01   1.1176669876896153e-01   1.1177071418473297e-01   1.1177371432743419e-01   1.1176969680367557e-01   1.1177125544223560e-01   1.1177153703629820e-01   1.1176559293366499e-01   1.1177270921695126e-01   1.1177233566148506e-01   1.1176754707862271e-01   1.1177384226169176e-01   1.1176957988311657e-01   1.1176847044598825e-01   1.1177480874281423e-01   1.1177049946176261e-01   1.1177439367537313e-01   1.1177541191932923e-01   1.1177375958760595e-01   1.1177084665736356e-01   1.1177481711437499e-01   1.1177470590052146e-01   1.1176454193562343e-01   1.1177251032946461e-01   1.1176351780458217e-01   1.1176483036816755e-01   1.1177312887051311e-01   1.1176612061119690e-01   1.1177284691526847e-01   1.1177422394478290e-01   1.1176690186074120e-01   1.1177685489701446e-01   1.1175565447699201e-01   1.1176208361839465e-01   1.1176878783909365e-01   1.1177417254286950e-01   1.1176329726675950e-01   1.1176521892340992e-01   1.1177191629125982e-01   1.1177539198660007e-01   1.1177175249579446e-01   1.1177230238813077e-01   1.1177608240309710e-01   1.1177387502744843e-01   1.1177521960344035e-01   1.1177631513982540e-01   1.1177209302143937e-01   1.1177475410081182e-01   1.1176682978026728e-01   1.1176825895082076e-01   1.1177372613084788e-01   1.1177499274835241e-01   1.1176999269759294e-01   1.1176911782615050e-01   1.1179741662599738e-01   1.1178604554072946e-01   1.1178855741042941e-01   1.1179568071429231e-01   1.1177955139183536e-01   1.1178361375410549e-01   1.1177335550353382e-01   1.1178067361169193e-01   1.1178779862426194e-01   1.1177665710903520e-01   1.1178443394721752e-01   1.1178375764006523e-01   1.1179411325980793e-01   1.1177509941443549e-01   1.1177914759621591e-01   1.1179235509042745e-01   1.1177300137688946e-01   1.1178138603122212e-01   1.1176648987916678e-01   1.1177051595174294e-01   1.1177542600320235e-01   1.1176232839465580e-01   1.1177356594814093e-01   1.1177972032254564e-01   1.1175968816391300e-01   1.1177502182955240e-01   1.1174348932079753e-01   1.1175429464629112e-01   1.1176593858653980e-01   1.1177395311426891e-01   1.1175606210183975e-01   1.1176772108829729e-01   1.1178140000268215e-01   1.1176912901889355e-01   1.1177698062626963e-01   1.1177819863796420e-01   1.1176767375001521e-01   1.1178014464899072e-01   1.1175745234702082e-01   1.1176449993167124e-01   1.1177577101400181e-01   1.1175582569108541e-01   1.1176390290932897e-01   1.1175825234082336e-01   1.1177717263994229e-01   1.1175036239965214e-01   1.1175502240921098e-01   1.1175012802002453e-01   1.1179100920965654e-01   1.1175727211716228e-01   1.1176587284389694e-01   1.1178804592943058e-01   1.1174482240853090e-01   1.1176505434288753e-01   1.1172324600514690e-01   1.1174772343697473e-01   1.1177288976965583e-01   1.1173382458621209e-01   1.1174389394989884e-01   1.1173923012993930e-01   1.1179284323683046e-01   1.1170872141637644e-01   1.1171763697019524e-01   1.1177721128755978e-01   1.1169471776836544e-01   1.1173236540958216e-01   1.1171413241537602e-01   1.1175198602483334e-01   1.1173754516913839e-01   1.1176439782894690e-01   1.1175650197772714e-01   1.1175224808907604e-01   1.1171811024909327e-01   1.1173755898051121e-01   1.1172306492951357e-01   1.1176533601492046e-01   1.1174608133021220e-01   1.1175398818062569e-01   1.1175874301293354e-01   1.1175220791044597e-01   1.1174088275368776e-01   1.1176877712473655e-01   1.1175876541679566e-01   1.1175701698266244e-01   1.1176264642981944e-01   1.1175779000059824e-01   1.1176339915902450e-01   1.1175950779640575e-01   1.1175952104748167e-01   1.1176635025222335e-01   1.1176202666836386e-01   1.1176158044356337e-01   1.1175731065928762e-01   1.1176292592196410e-01   1.1176111085131228e-01   1.1175810506238158e-01   1.1172888356951807e-01   1.1174420937192174e-01   1.1173497478571615e-01   1.1177128833783929e-01   1.1174887928209758e-01   1.1177423359606599e-01   1.1176252275054817e-01   1.1176088526680122e-01   1.1174042101366514e-01   1.1175120150067014e-01   1.1174615223887664e-01   1.1177445058530318e-01   1.1176567508849901e-01   1.1176048012359328e-01   1.1176599908068446e-01   1.1176626394695209e-01   1.1175550444891280e-01   1.1176119171002821e-01   1.1176486294533888e-01   1.1175883377955950e-01   1.1176393374615062e-01   1.1176733206036601e-01   1.1176603054556647e-01   1.1176427298626211e-01   1.1176552263257906e-01   1.1176349052925919e-01   1.1176567224349646e-01   1.1176577654767916e-01   1.1176159005903949e-01   1.1176554190465693e-01   1.1176760848375983e-01   1.1176594314578882e-01   1.1166203394334552e-01   1.1174796338409940e-01   1.1172131783301942e-01   1.1169060939467369e-01   1.1176369232647053e-01   1.1174264062671130e-01   1.1176920748531401e-01   1.1175653354264765e-01   1.1173784995401732e-01   1.1176550407145462e-01   1.1175773928744907e-01   1.1175000890919697e-01   1.1171894438645584e-01   1.1176541832707111e-01   1.1175908668313445e-01   1.1173917382569488e-01   1.1176961324209103e-01   1.1176218672022378e-01   1.1177414658130175e-01   1.1177034212654084e-01   1.1177317301132517e-01   1.1177737340239335e-01   1.1177292739553725e-01   1.1176444733606762e-01   1.1178076192648319e-01   1.1177990890511516e-01   1.1178467453510632e-01   1.1178255765370709e-01   1.1177579578639234e-01   1.1176953521145830e-01   1.1178086665282670e-01   1.1177207111289458e-01   1.1177000681625271e-01   1.1177385507676098e-01   1.1177839511762827e-01   1.1177043289142570e-01   1.1177775534243434e-01   1.1177717969958693e-01   1.1178061295398796e-01   1.1177778465579530e-01   1.1178487539432380e-01   1.1178156178862217e-01   1.1178604809581213e-01   1.1178022396342333e-01   1.1177948154441909e-01   1.1178299344028610e-01   1.1178216830374604e-01   1.1178217018505258e-01   1.1175356104522220e-01   1.1177795127624844e-01   1.1177715066936075e-01   1.1176422437365389e-01   1.1178537935017283e-01   1.1178342651010158e-01   1.1178834300443662e-01   1.1178306082170320e-01   1.1178012626705189e-01   1.1178614238783857e-01   1.1178281408042381e-01   1.1178281707949637e-01   1.1177306230813859e-01   1.1178630699726919e-01   1.1178531305180019e-01   1.1177760612921041e-01   1.1175410625372277e-01   1.1178545186142325e-01   1.1179859537899992e-01   1.1178088748825420e-01   1.1179364253389448e-01   1.1179097805568787e-01   1.1179269002468728e-01   1.1180551404041648e-01   1.1179300449398147e-01   1.1179348362350386e-01   1.1179263974948844e-01   1.1179191467260083e-01   1.1179380076697754e-01   1.1177922761164333e-01   1.1179148071480331e-01   1.1178106984693795e-01   1.1179192557653142e-01   1.1179176248232567e-01   1.1179151558031579e-01   1.1179247944711553e-01   1.1179098417631342e-01   1.1179196820796004e-01   1.1178991421690622e-01   1.1179058491597675e-01   1.1179098161068243e-01   1.1179038331789654e-01   1.1179074428157099e-01   1.1179174555587168e-01   1.1179355104274939e-01   1.1179104535780454e-01   1.1179274863563372e-01   1.1180158416768819e-01   1.1179120843257975e-01   1.1179010852736319e-01   1.1178960506719418e-01   1.1179113549480507e-01   1.1178775316370626e-01   1.1179006876700424e-01   1.1178771773350626e-01   1.1178976917151312e-01   1.1178718148831276e-01   1.1178450789547463e-01   1.1178660248944565e-01   1.1178914846447710e-01   1.1179037472131426e-01   1.1178943304348364e-01   1.1178995293631563e-01   1.1179053942679593e-01   1.1178359981004189e-01   1.1178122626665885e-01   1.1178946882821500e-01   1.1178970956716575e-01   1.1179211005742995e-01   1.1178784777297125e-01   1.1179215493414647e-01   1.1180166729689436e-01   1.1178966038979840e-01   1.1179189617026015e-01   1.1179054212044787e-01   1.1178952963604082e-01   1.1178083298152235e-01   1.1178740239646903e-01   1.1179143667618052e-01   1.1175790346603504e-01   1.1177592226922130e-01   1.1177463968889086e-01   1.1177523935324610e-01   1.1177391784679835e-01   1.1177564283757425e-01   1.1177484094182641e-01   1.1177507577721280e-01   1.1177482061086558e-01   1.1177534675664920e-01   1.1177633607688632e-01   1.1177619335808038e-01   1.1177521004026254e-01   1.1177454588437397e-01   1.1177389663948713e-01   1.1177484453310658e-01   1.1177409927821527e-01   1.1177754847823063e-01   1.1177625882651250e-01   1.1177733800591168e-01   1.1177600585109682e-01   1.1177640984831227e-01   1.1177556891823888e-01   1.1177515495115536e-01   1.1177551382664941e-01   1.1177758373055584e-01   1.1177769405965401e-01   1.1177530649726404e-01   1.1177535158560990e-01   1.1177458027495331e-01   1.1177465792919723e-01   1.1177363180874432e-01   1.1177296739191150e-01   1.1177748678622886e-01   1.1177912924945350e-01   1.1177895393703495e-01   1.1177747126933381e-01   1.1178152244257868e-01   1.1178045775537333e-01   1.1178013991436742e-01   1.1177956480632263e-01   1.1178205770291370e-01   1.1178219759589028e-01   1.1177971263776568e-01   1.1177747613921274e-01   1.1177917388443387e-01   1.1177786973275540e-01   1.1177571448269817e-01   1.1177363920033312e-01   1.1177357310719443e-01   1.1177147323176748e-01   1.1177387402969598e-01   1.1177236478265914e-01   1.1177289584286366e-01   1.1177449960173616e-01   1.1176927398390400e-01   1.1177028637742699e-01   1.1177610388989261e-01   1.1177241805238108e-01   1.1177138680864560e-01   1.1176890334771632e-01   1.1177216129374175e-01   1.1176500415770707e-01   1.1176613665049473e-01   1.1176410212204964e-01   1.1177036879471713e-01   1.1176854476373251e-01   1.1177750638683254e-01   1.1177181511506847e-01   1.1177226245914879e-01   1.1177736272274168e-01   1.1177296695940507e-01   1.1176949129368637e-01   1.1177844009510995e-01   1.1177449114864989e-01   1.1178028567715613e-01   1.1177812743101755e-01   1.1177213635437937e-01   1.1177062355668660e-01   1.1177724027601814e-01   1.1177250183452234e-01   1.1177673573040667e-01   1.1177967178305580e-01   1.1177660830018987e-01   1.1177475078229375e-01   1.1177895548627040e-01   1.1177491973788913e-01   1.1177723584153340e-01   1.1177773929764624e-01   1.1177643504858543e-01   1.1177822902988510e-01   1.1177598589426929e-01   1.1177503681755738e-01   1.1177351413436647e-01   1.1177701715766106e-01   1.1177396933336950e-01   1.1177153260281876e-01   1.1178174796123498e-01   1.1177871423693175e-01   1.1178300953855888e-01   1.1178084877879121e-01   1.1178026835765879e-01   1.1178193747915124e-01   1.1177932117447957e-01   1.1177827493274302e-01   1.1178452673436130e-01   1.1178254043541691e-01   1.1178392446826482e-01   1.1178276858664239e-01   1.1177994065346475e-01   1.1177757347615715e-01   1.1178021734632125e-01   1.1177835649067763e-01   1.1177271749911590e-01   1.1177225167617857e-01   1.1177669002883700e-01   1.1177296377571581e-01   1.1177431548240505e-01   1.1177652061278795e-01   1.1177452987843509e-01   1.1177322200340815e-01   1.1177675063761085e-01   1.1177486067838209e-01   1.1177684030910703e-01   1.1177560319140185e-01   1.1177263651338992e-01   1.1177266801831712e-01   1.1177548751613543e-01   1.1177452680911418e-01   1.1178150966609472e-01   1.1178640746861412e-01   1.1177967384857453e-01   1.1177885707667370e-01   1.1178521320488310e-01   1.1177791142341928e-01   1.1178496873624695e-01   1.1178681082451550e-01   1.1177633892158045e-01   1.1178343525528064e-01   1.1177447982988710e-01   1.1177404205903989e-01   1.1178089122867613e-01   1.1178745762311142e-01   1.1177934713477389e-01   1.1178174526890204e-01   1.1178132922884146e-01   1.1177091372941990e-01   1.1177996873412482e-01   1.1178246749225217e-01   1.1177371510885320e-01   1.1178315599962883e-01   1.1177694462508631e-01   1.1177624151997886e-01   1.1178082326729102e-01   1.1177474096099090e-01   1.1178062513491205e-01   1.1178315591216420e-01   1.1178557097422347e-01   1.1177979259060616e-01   1.1178553773822757e-01   1.1178775368464638e-01   1.1177292226188185e-01   1.1177967884626960e-01   1.1177143103435916e-01   1.1176832471096192e-01   1.1177637789167480e-01   1.1176608747978847e-01   1.1177480698884390e-01   1.1177780320110517e-01   1.1177307588132601e-01   1.1177915375032095e-01   1.1176709252736521e-01   1.1176558833932944e-01   1.1177179057175408e-01   1.1177856132754629e-01   1.1176994557383163e-01   1.1177241967505532e-01   1.1178262295013826e-01   1.1178780140920039e-01   1.1178018209244892e-01   1.1178319537292759e-01   1.1178537740654529e-01   1.1178039406410226e-01   1.1178458850731980e-01   1.1178750855411533e-01   1.1177784368392869e-01   1.1178277555792353e-01   1.1177513813135551e-01   1.1177765106093764e-01   1.1178384958761897e-01   1.1178714525943577e-01   1.1177981683401002e-01   1.1178250393415362e-01   1.1165956989805086e-01   1.1169132624284554e-01   1.1169795876494225e-01   1.1173258943963858e-01   1.1172024403593611e-01   1.1177247272979443e-01   1.1174366615770824e-01   1.1172190841333406e-01   1.1170542652255654e-01   1.1172729368883670e-01   1.1171630806372852e-01   1.1176811062165576e-01   1.1173012140141253e-01   1.1173187343206577e-01   1.1176733580032863e-01   1.1174582950939668e-01   1.1173658921197543e-01   1.1177171184331762e-01   1.1175483570108927e-01   1.1174880921212675e-01   1.1176785401694854e-01   1.1175299516806898e-01   1.1177271039736045e-01   1.1176457019519716e-01   1.1175851472579162e-01   1.1177624671818050e-01   1.1176305958455995e-01   1.1176095338988196e-01   1.1174896939493666e-01   1.1177576918098751e-01   1.1175784648154222e-01   1.1174398242168007e-01   1.1172457637737743e-01   1.1174322101229837e-01   1.1173136313052631e-01   1.1177310619614081e-01   1.1174982870245957e-01   1.1177647108574959e-01   1.1176133000338224e-01   1.1175990718388663e-01   1.1173824459004859e-01   1.1175001737279716e-01   1.1173810336389925e-01   1.1176913250450345e-01   1.1177112887609737e-01   1.1176018789857714e-01   1.1176575811889083e-01   1.1177157230253117e-01   1.1175459537601083e-01   1.1175405892093934e-01   1.1177971547937188e-01   1.1176288334682130e-01   1.1176516049828057e-01   1.1178436402263035e-01   1.1177086996789798e-01   1.1176326427849753e-01   1.1177795419955408e-01   1.1176584176374983e-01   1.1177544861469683e-01   1.1177884726802295e-01   1.1176921115663027e-01   1.1176832834630285e-01   1.1178503929598960e-01   1.1177967376316700e-01   1.1178278461348622e-01   1.1178193112002958e-01   1.1177623404806829e-01   1.1177892604252913e-01   1.1177575289476016e-01   1.1177022059907243e-01   1.1176798731098979e-01   1.1177622463342803e-01   1.1176894102101463e-01   1.1176843878191624e-01   1.1175821373906866e-01   1.1176093737802872e-01   1.1177503550807102e-01   1.1176896619168541e-01   1.1176480045837074e-01   1.1177049765399190e-01   1.1175807759166972e-01   1.1174764905914643e-01   1.1174104664924928e-01   1.1175736320855394e-01   1.1173697963415211e-01   1.1174119305184928e-01   1.1174589384096022e-01   1.1175424697524623e-01   1.1171788299796721e-01   1.1173548255626795e-01   1.1167172878418583e-01   1.1171965784836797e-01   1.1175752028227982e-01   1.1175942967149458e-01   1.1174191142924055e-01   1.1175874304285315e-01   1.1174282199397455e-01   1.1174217406277706e-01   1.1171861685030172e-01   1.1172640646693993e-01   1.1172142426570580e-01   1.1170054110749114e-01   1.1167027068125163e-01   1.1171757012201899e-01   1.1167874834215225e-01   1.1167375318923475e-01   1.1161591591749073e-01   1.1163228479285223e-01   1.1171990568428512e-01   1.1166840494599724e-01   1.1166385743183103e-01   1.1168779325135438e-01   1.1176642554049430e-01   1.1174429716864653e-01   1.1175304679317036e-01   1.1176072061350067e-01   1.1172284832276444e-01   1.1175630272748516e-01   1.1168738764973243e-01   1.1172725537056090e-01   1.1174768328928451e-01   1.1167866676301162e-01   1.1170511950928637e-01   1.1171740660662022e-01   1.1176442183958325e-01   1.1169882240007027e-01   1.1172662741630783e-01   1.1173126579040203e-01   1.1179358600615186e-01   1.1179224126369695e-01   1.1179401128780150e-01   1.1179361256214972e-01   1.1178988805222816e-01   1.1179150843397982e-01   1.1179149120775546e-01   1.1179228498521773e-01   1.1179218587497174e-01   1.1178955997464191e-01   1.1179078340964291e-01   1.1179064623417595e-01   1.1179545964897736e-01   1.1179450321853908e-01   1.1179376828360178e-01   1.1179600422239047e-01   1.1178869625080395e-01   1.1178940868917953e-01   1.1178992006950508e-01   1.1179068532512677e-01   1.1179156350504028e-01   1.1179246611791412e-01   1.1179349417691799e-01   1.1179273433351972e-01   1.1179151956838017e-01   1.1179243530841147e-01   1.1179216351675948e-01   1.1179324497114386e-01   1.1179339047566804e-01   1.1179457338112907e-01   1.1179444138658390e-01   1.1179571574506020e-01   1.1178909533915257e-01   1.1178789404921044e-01   1.1178754584333017e-01   1.1178820076142945e-01   1.1178738986267955e-01   1.1178692229483642e-01   1.1178877334300795e-01   1.1178910166954714e-01   1.1178515648060577e-01   1.1178620614831615e-01   1.1178508658760183e-01   1.1178646603066976e-01   1.1179032996506293e-01   1.1179075187602909e-01   1.1178967330374251e-01   1.1179152288323392e-01   1.1179627809068923e-01   1.1179667661198102e-01   1.1179524910884879e-01   1.1179575943229828e-01   1.1179537332520192e-01   1.1179517487999482e-01   1.1179318582068171e-01   1.1179637498103469e-01   1.1179438073927227e-01   1.1179364406715200e-01   1.1179301419299087e-01   1.1179336450572408e-01   1.1179329457472269e-01   1.1180085243948705e-01   1.1179911646646232e-01   1.1178193345624952e-01   1.1178053741029444e-01   1.1177671047372761e-01   1.1178081140157538e-01   1.1177735063532110e-01   1.1177498082208565e-01   1.1177628640672876e-01   1.1177415102451398e-01   1.1177469698609496e-01   1.1178109873611072e-01   1.1177447804881463e-01   1.1178132774352507e-01   1.1177675503506719e-01   1.1177855745667611e-01   1.1177601888081508e-01   1.1177831741719563e-01   1.1177939072842628e-01   1.1177373605642772e-01   1.1177703374223025e-01   1.1177315489708961e-01   1.1177379489585404e-01   1.1177923263107747e-01   1.1177562417754998e-01   1.1178013919614802e-01   1.1177921332280526e-01   1.1177627046798556e-01   1.1178303561009242e-01   1.1177558433163585e-01   1.1177833758322450e-01   1.1177572280062692e-01   1.1177956861849048e-01   1.1177729769206514e-01   1.1177730498539232e-01   1.1178171180750049e-01   1.1177272322771475e-01   1.1178132958529795e-01   1.1177662418893410e-01   1.1177271480570299e-01   1.1177932260519821e-01   1.1176917824402026e-01   1.1177337581674937e-01   1.1178449864597605e-01   1.1176704483084099e-01   1.1176840567460822e-01   1.1176605797373802e-01   1.1178208441712123e-01   1.1177271242411235e-01   1.1177091839231469e-01   1.1177314376427958e-01   1.1178097031369975e-01   1.1177912583530110e-01   1.1178099317809033e-01   1.1178236470635049e-01   1.1178016218289941e-01   1.1178491873390914e-01   1.1178036460436661e-01   1.1178190191659941e-01   1.1178415137613930e-01   1.1177810877183170e-01   1.1177559794717555e-01   1.1177777697562830e-01   1.1178633901884838e-01   1.1178226957883124e-01   1.1177931205584150e-01   1.1178220638150291e-01   1.1178671354514635e-01   1.1179195292102188e-01   1.1179564872399866e-01   1.1178984509598355e-01   1.1178918734168104e-01   1.1179162426273682e-01   1.1179090538970969e-01   1.1179076467593603e-01   1.1179095563393181e-01   1.1179039750925472e-01   1.1179028058301700e-01   1.1179073352739465e-01   1.1179140908138949e-01   1.1179125005664302e-01   1.1179087934290804e-01   1.1179079400325656e-01   1.1179007860221198e-01   1.1178915780535321e-01   1.1178964173956660e-01   1.1179030758780212e-01   1.1178723749651205e-01   1.1178981016400412e-01   1.1178756766096749e-01   1.1178926140212661e-01   1.1178851968925652e-01   1.1178473750744845e-01   1.1178690236778271e-01   1.1178872920895173e-01   1.1179069197