<?xml version="1.0"?>
<VTKFile type="UnstructuredGrid"  version="0.1"  >
<UnstructuredGrid>
<Piece  NumberOfPoints="4153" NumberOfCells="8064">
<Points>
<DataArray  type="Float64"  NumberOfComponents="3"  format="ascii">-0.4165347785222364 -0.613401648226971 0  -0.04099304824422027 -0.7722407398746218 0  -0.09351244346023609 -0.767153817587131 0  -0.1450379289441212 -0.7568000196475065 0  -0.1951326841404628 -0.7417954016291269 0  -0.2438373838255105 -0.7236114516303235 0  -0.2905435463802378 -0.7002438557519499 0  -0.3348640832418084 -0.6734995366494188 0  -0.3768087057166181 -0.6443713556135343 0  0.01189058603598477 -0.7716934241257691 0  -0.4541235269658548 -0.5825679485661336 0  -0.4902823766968641 -0.5519065037295715 0  -0.5250647472872214 -0.5216695971066138 0  -0.5586812209912349 -0.49228480165377 0  -0.5915256567856094 -0.4643516274815465 0  -0.6238035137200834 -0.4381320469047573 0  -0.6556651658827182 -0.4145044435285733 0  0.6466955592935704 -0.4145090241506751 0  0.06445768824954931 -0.7655738279935532 0  0.1160594100188383 -0.7541228737499055 0  0.1661386275426046 -0.7378519142320641 0  0.2142657513404594 -0.7173791997841928 0  0.2602593469630198 -0.693801322701697 0  0.3041077735587658 -0.6678477430708101 0  0.3458936256180964 -0.6402472276869854 0  0.3857309335340235 -0.6116158600503823 0  0.4239313844403835 -0.5826818912593261 0  0.4607210063443541 -0.5538633167873374 0  0.4963360245331541 -0.5255290917229124 0  0.5309472708240284 -0.4980298995713341 0  0.5648033862231363 -0.4716040950557671 0  0.5980363568814769 -0.4467179452336343 0  0.6308757418266603 -0.4242223795380888 0  0.6142718727830243 -0.4354001793111896 0  -0.6394958130393239 -0.4261346552358352 0  -0.5751743594540566 -0.4782234309999394 0  -0.5078195966035699 -0.5367104134684134 0  -0.4354821002800561 -0.5979256864003961 0  -0.3561339137013718 -0.6590660458815746 0  -0.2674802454995649 -0.7124290573232606 0  -0.1702835653275308 -0.7499327798945455 0  -0.06734093501393207 -0.7703863915769058 0  0.5814432303889747 -0.4591342536281447 0  0.1413184051680378 -0.7465420106961951 0  0.2375326561688146 -0.705937804266121 0  0.3252419466040861 -0.654213952548011 0  0.4050258054130389 -0.5971683780177921 0  0.4786546501983402 -0.539632315271713 0  0.5479795353387531 -0.4847513635002508 0  0.03825568018500249 -0.7693225222464032 0  -0.6710512328722459 -0.4042237593191365 0  0.5137446643744001 -0.5116538012641479 0  0.442485703482461 -0.5682432835305702 0  0.3660419606152912 -0.6259985964269199 0  0.2824490113829434 -0.681083833929931 0  0.1904755346799469 -0.7280894225580855 0  0.0904170283711057 -0.7604876753532736 0  -0.01455208358912439 -0.7726778131791677 0  -0.1194331422271492 -0.7626180542271649 0  -0.219553793292917 -0.7331372909770525 0  -0.3129716228330164 -0.6871337691993371 0  -0.3971493785910579 -0.629307834398496 0  -0.4723924835512781 -0.5672274440338622 0  -0.5420192387654511 -0.50685457387291 0  -0.6076583402432415 -0.4511878491214101 0  0.7766154629012088 -0.2272903576533481 0  0.697564542596316 -0.3846744727550025 0  0.7413572430552453 -0.3422640518237636 0  0.7692333954795871 -0.28860834786875 0  0.6726422797992267 -0.4001220794286074 0  0.7205580916057128 -0.3648044037303279 0  0.7535398826920698 -0.3140645108491696 0  0.7718324838310978 -0.2575486536731529 0  0.6597158444154962 -0.4079299862797929 0  0.6850577129656196 -0.3916860036932824 0  0.7091766698950938 -0.374913392224858 0  0.7306170501074836 -0.3527036088608314 0  0.7496029796087015 -0.3292976094013341 0  0.7605393351263844 -0.301137395892741 0  0.7695976887406826 -0.2728303106768034 0  0.7735873672523597 -0.2422798578094874 0  0.7760712646763163 -0.2075049663017139 0  0.7803050580059998 0.234335394359604 0  0.7806081515234191 0.1950863049188685 0  0.7822723427338261 0.1554922355270436 0  0.7843859033504529 0.1154471459794722 0  0.7866441350734904 0.07487481134201075 0  0.7874932000009801 0.03388125488535482 0  0.7870325735279275 -0.00721368153836557 0  0.7852627047392156 -0.04818559845609714 0  0.7821744431677994 -0.08870560025175905 0  0.7792963504030711 -0.128714563631782 0  0.776928631162389 -0.1682715043711214 0  0.7814657550526649 0.2540596854360414 0  0.7802329554778001 0.2147415008830246 0  0.7833125010465614 0.1355295327172716 0  0.7872313336200799 0.05440597732189052 0  0.7863149405394207 -0.0277298702103711 0  0.7807197209868749 -0.1087730561039469 0  0.7762675290209439 -0.1879203087551275 0  0.781356658561285 0.1753419675581009 0  0.7855962147992885 0.0952492902986064 0  0.7874217696225927 0.01333260604749654 0  0.7837713179811605 -0.06853321589173965 0  0.7780240295257674 -0.1485469457922853 0  0.6582340161583807 0.4439939835219349 0  0.7758043450816653 0.3156051219125604 0  0.7496512299963529 0.3701356058923812 0  0.7075637685115674 0.4134919351037978 0  0.777726475770485 0.2844444037468305 0  0.7614180788764653 0.3417922110931352 0  0.7296751227778968 0.3929493554978569 0  0.6832615702129012 0.4291029468251844 0  0.7791174815959988 0.2691551604636752 0  0.7760531585698859 0.2998132927571079 0  0.7679204963029246 0.3285033210559975 0  0.7571591853376146 0.3567597808667604 0  0.7392900634693708 0.3807017057730069 0  0.7187099608376879 0.4033349174007947 0  0.6953463322756831 0.4206494659132184 0  0.6707175636830963 0.4369934245239554 0  -0.03136307512016401 0.8409898129547317 0  0.6117022314330041 0.4783718246240398 0  0.5799777622093381 0.505104552111626 0  0.5476966426853103 0.5337169087947958 0  0.5146149083844996 0.5639084831917278 0  0.4803540992211162 0.5951573644745357 0  0.4446681686139009 0.6270825597156896 0  0.4072903910050099 0.6592873433333324 0  0.3678861536822633 0.6913679522699044 0  0.3260794367483918 0.7223325941952219 0  0.2817410022438951 0.7515156103338283 0  0.2347799382186107 0.7780721419758524 0  0.1852244321003953 0.8012710127495389 0  0.1332773381641172 0.8197372593501424 0  0.07943462318583533 0.8328026865698853 0  0.02433162301807641 0.8398632102022759 0  0.6430797967886824 0.4543611311969697 0  -0.08675875159733484 0.834998425103636 0  -0.1409361993068957 0.8227418287940151 0  -0.1931923078079088 0.8049076094189171 0  -0.2428023030218499 0.7814852650373083 0  -0.2899015523829472 0.7558327695379344 0  -0.3344269876740434 0.7276039947967191 0  -0.376498955741213 0.6976008217296435 0  -0.4162398511629182 0.6663251666412628 0  -0.454012581135785 0.6350547386520589 0  -0.4902241008857354 0.6040529714760763 0  -0.5251006042720551 0.5736462515688279 0  -0.5588713890058463 0.544163706800903 0  -0.5917498878703729 0.5159023726505232 0  -0.6239781895170013 0.4894024515356565 0  -0.655802537729361 0.4655375193817794 0  -0.6711350744670199 0.4552086037967351 0  -0.6396734275258932 0.4773268045956061 0  -0.5754193875647049 0.529942761761762 0  -0.5078153691846297 0.5887631018535588 0  -0.4353241212177503 0.6506647587047029 0  -0.3557529706239537 0.7127428580518147 0  -0.2666678467498854 0.7690409980285591 0  -0.1673247596250553 0.8143196357605997 0  -0.05915303724348461 0.838781834433344 0  0.05200407738129541 0.837139700496459 0  0.1595229543895169 0.8111105147874726 0  0.2585886056955328 0.7651791539359167 0  0.3472815652819091 0.7070132706334589 0  0.4262059007044613 0.6431764592250626 0  0.4976415701699038 0.5794274528899187 0  0.5639164252866677 0.5192891193434646 0  0.6271662208948752 0.4661878594920294 0  -0.6078805369135132 0.502597123199327 0  -0.5421118506050725 0.5587928061585078 0  -0.472302359306969 0.6195040180659332 0  -0.3966967334388971 0.6820986437709571 0  -0.3124744021633633 0.7419715636228302 0  -0.2185227618713891 0.7939938628697656 0  -0.1140409142942533 0.8295786107006098 0  -0.003445371735515629 0.8412414801242921 0  0.106557463101767 0.8269855400917169 0  0.2103483564149291 0.7902239158275924 0  0.3042350318955694 0.7372006190404387 0  0.3878899325844585 0.6754117897493432 0  0.4627050972160832 0.611063473288031 0  0.531298804744333 0.548668811118724 0  0.5958450097149578 0.4916589103598087 0  -0.79692329743755 0.2656456132210128 0  -0.7208697041424521 0.424539650469257 0  -0.763532070381606 0.381344894817423 0  -0.7903734826876643 0.3271151254502979 0  -0.6964204368104269 0.440268273782525 0  -0.7432889577669076 0.4041538003879988 0  -0.7754048935839952 0.3529942048834069 0  -0.7926242348500957 0.295984278111479 0  -0.6837568056647222 0.4482240581979261 0  -0.7085873942424195 0.4317249625355563 0  -0.7321798100786451 0.4144803594440744 0  -0.7530517214467135 0.3919043121038697 0  -0.771354193359215 0.3681150029876283 0  -0.782119757479157 0.339858651029569 0  -0.7906696672575793 0.3113232634654883 0  -0.7942082546174063 0.2806988689813773 0  -0.7960914944176762 0.245875667157745 0  -0.7963088559534119 -0.1961758987594599 0  -0.7968826277053034 -0.1569480181560575 0  -0.7988970100921404 -0.117374572748406 0  -0.8013860770243092 -0.07733923375283121 0  -0.8040417657210419 -0.03677845780309889 0  -0.8053319298504781 0.004222823270635091 0  -0.8053194852364638 0.04533884144096395 0  -0.8040085730809505 0.08634657304505211 0  -0.8013454445901538 0.1269273526132856 0  -0.798819081048471 0.1669929341145585 0  -0.7967414290969385 0.2066047070576009 0  -0.7972203028390983 -0.2159233002663302 0  -0.7963642566168363 -0.1765950235996769 0  -0.8001275813638534 -0.09741950517948859 0  -0.8048508045707813 -0.01630714625196899 0  -0.8048272237906665 0.06587108680103011 0  -0.8000706526823077 0.1470214019711541 0  -0.7961853399478069 0.2262721735270306 0  -0.7978026023460465 -0.1372158793950715 0  -0.8027814648766846 -0.05714777479734999 0  -0.80548366157031 0.02478047280359788 0  -0.8027463309749653 0.106723303407288 0  -0.7976974102201192 0.1868524854080816 0  -0.7907020774021449 -0.2773251061444389 0  -0.7636982824604073 -0.3313657008973839 0  -0.7209183871522212 -0.3742213207622586 0  -0.7930128582801125 -0.2462430176247052 0  -0.7757700795095281 -0.3031975260414629 0  -0.7433980805172539 -0.354051128755688 0  -0.6963442583675128 -0.3896593415254953 0  -0.7945767329928318 -0.2309708669855075 0  -0.7910789368722534 -0.2
[...]
<CellData  Scalars="f_3787"> 
<DataArray  type="Float64"  Name="f_3787"  format="ascii">1.1177214352189792e-01   1.1177496484928590e-01   1.1176924366712299e-01   1.1177094249611788e-01   1.1177518747043447e-01   1.1176885437289807e-01   1.1177702084048763e-01   1.1177656945527431e-01   1.1176662932837611e-01   1.1177600761030984e-01   1.1176463814555211e-01   1.1176655093845225e-01   1.1177184655933091e-01   1.1177845137060291e-01   1.1177069784340041e-01   1.1177252668118741e-01   1.1177691385360404e-01   1.1176526427166812e-01   1.1177842023735236e-01   1.1177760183551762e-01   1.1176832527479209e-01   1.1177967781888866e-01   1.1177106768069130e-01   1.1176912269810263e-01   1.1178094797922489e-01   1.1177245312208679e-01   1.1178098472436195e-01   1.1178173026739309e-01   1.1177918560781239e-01   1.1177242298320721e-01   1.1178079815259342e-01   1.1177999944266231e-01   1.1176339508934333e-01   1.1177807164301067e-01   1.1176260224029134e-01   1.1176480900128780e-01   1.1177877721371378e-01   1.1176709254114300e-01   1.1177886877641421e-01   1.1178008818921108e-01   1.1176638174440179e-01   1.1178139490487270e-01   1.1175750023682426e-01   1.1176452046541535e-01   1.1177014518327139e-01   1.1178040221506720e-01   1.1176574054254662e-01   1.1176796257638927e-01   1.1177353447294970e-01   1.1178122358314947e-01   1.1177404415033027e-01   1.1177438693434065e-01   1.1178260488465112e-01   1.1177699874151849e-01   1.1178231413494473e-01   1.1178263439272325e-01   1.1177456569449994e-01   1.1178160733673038e-01   1.1176996970713983e-01   1.1177178534792589e-01   1.1177650875390208e-01   1.1178209442952949e-01   1.1177413428528239e-01   1.1177303784331137e-01   1.1179265261757930e-01   1.1178649224609688e-01   1.1179057872192173e-01   1.1179037667819762e-01   1.1178327558052116e-01   1.1178514234813683e-01   1.1177729427214171e-01   1.1178203555632862e-01   1.1179067054621490e-01   1.1178098014270181e-01   1.1178961868565584e-01   1.1178493518387682e-01   1.1178968793269105e-01   1.1177746326230620e-01   1.1178204534359712e-01   1.1178833435489072e-01   1.1177788613500683e-01   1.1178373461267807e-01   1.1176991810999212e-01   1.1177420190288703e-01   1.1177978612579560e-01   1.1176631129872627e-01   1.1177728838520321e-01   1.1178236293103438e-01   1.1176220733119988e-01   1.1177956486615985e-01   1.1174551059172026e-01   1.1175708906607042e-01   1.1177075396947173e-01   1.1177783752688489e-01   1.1176118997181382e-01   1.1177098856514005e-01   1.1178846778470974e-01   1.1177405273399177e-01   1.1178613496579672e-01   1.1178170115805654e-01   1.1177165641928768e-01   1.1178350421996930e-01   1.1175976683062998e-01   1.1176651664807417e-01   1.1178503397618504e-01   1.1176036557195210e-01   1.1178129050835553e-01   1.1176808651594689e-01   1.1178171164476654e-01   1.1175269084968911e-01   1.1176620703519391e-01   1.1176115660642234e-01   1.1178760901219706e-01   1.1176109770296468e-01   1.1177130339761028e-01   1.1178594706404964e-01   1.1174901639006241e-01   1.1177192986877441e-01   1.1172649023601974e-01   1.1175115185925874e-01   1.1177741782871871e-01   1.1173568366997078e-01   1.1175537371253595e-01   1.1175113818515749e-01   1.1179193614058121e-01   1.1170997631087282e-01   1.1173233790701287e-01   1.1178847041988417e-01   1.1166536579827982e-01   1.1171978794594328e-01   1.1169680663236135e-01   1.1175007405483936e-01   1.1172503288504461e-01   1.1176739110376374e-01   1.1175308147162771e-01   1.1174866904200066e-01   1.1170490693029829e-01   1.1172578465804205e-01   1.1171487363957244e-01   1.1176881748371614e-01   1.1174215081894867e-01   1.1175084130944796e-01   1.1175987636129563e-01   1.1174976168483124e-01   1.1173149441470752e-01   1.1177316101578216e-01   1.1175520086069791e-01   1.1175302394997905e-01   1.1176607194582766e-01   1.1175465840451400e-01   1.1176565181989989e-01   1.1176147013654630e-01   1.1175688177948406e-01   1.1176979194250596e-01   1.1176036311195967e-01   1.1175975241028456e-01   1.1175439618088934e-01   1.1176450140072552e-01   1.1175947441204893e-01   1.1175630561846456e-01   1.1172554434812648e-01   1.1173781951263666e-01   1.1173574616463429e-01   1.1177603273095543e-01   1.1174534425344532e-01   1.1177888427309630e-01   1.1176129521981704e-01   1.1175824780792153e-01   1.1174476855328551e-01   1.1175159846662261e-01   1.1175468660824160e-01   1.1177990438640190e-01   1.1177001203518969e-01   1.1175872391262394e-01   1.1177142251773810e-01   1.1177040194548593e-01   1.1175415843633955e-01   1.1176052113741559e-01   1.1176672893297751e-01   1.1175848544413128e-01   1.1176338228858008e-01   1.1176954562746577e-01   1.1176614902976531e-01   1.1176460439510122e-01   1.1176809823855333e-01   1.1176253015208758e-01   1.1176885671432102e-01   1.1176806638614442e-01   1.1176221226604445e-01   1.1176652661423167e-01   1.1176959835296643e-01   1.1176719855510782e-01   1.1167323756445878e-01   1.1175337248931612e-01   1.1173575198366534e-01   1.1170213023993432e-01   1.1176765788772480e-01   1.1175260613108269e-01   1.1177111826393524e-01   1.1176081243170134e-01   1.1175197324628244e-01   1.1176882427750427e-01   1.1176755195263931e-01   1.1175958343514654e-01   1.1173227358327535e-01   1.1176869738182867e-01   1.1176636493247724e-01   1.1175122448355219e-01   1.1177253070451791e-01   1.1176889536719027e-01   1.1177581700799036e-01   1.1177245374809408e-01   1.1177701320424289e-01   1.1177825785443105e-01   1.1177714492542894e-01   1.1177090916637904e-01   1.1178080431020616e-01   1.1178132824790235e-01   1.1178390356746801e-01   1.1178215756911471e-01   1.1177678424285031e-01   1.1177440304872341e-01   1.1178090270866255e-01   1.1177458990531858e-01   1.1177582946322331e-01   1.1177624033412968e-01   1.1178106046600325e-01   1.1177458130061178e-01   1.1177926381422493e-01   1.1177854755084883e-01   1.1178104895720065e-01   1.1177871375381221e-01   1.1178482905300990e-01   1.1178250862650596e-01   1.1178509639966311e-01   1.1178087978595229e-01   1.1178071070150082e-01   1.1178273967235251e-01   1.1178284587582465e-01   1.1178334669915332e-01   1.1176387500141456e-01   1.1177961838126947e-01   1.1178012381486471e-01   1.1177289826911660e-01   1.1178426482792246e-01   1.1178426326318407e-01   1.1178672389581770e-01   1.1178362595402053e-01   1.1178194633304121e-01   1.1178509712100719e-01   1.1178432088272389e-01   1.1178497891391058e-01   1.1177954278847127e-01   1.1178646951072491e-01   1.1178689004328710e-01   1.1178446111952219e-01   1.1166114322761807e-01   1.1182631654171665e-01   1.1179160898462923e-01   1.1181788976916873e-01   1.1177862337504671e-01   1.1178279112789927e-01   1.1179186040361072e-01   1.1178319122048358e-01   1.1178783736012869e-01   1.1178825417589397e-01   1.1178794466977403e-01   1.1178403313719618e-01   1.1175702429407344e-01   1.1175646098558126e-01   1.1179152665383386e-01   1.1175561228077295e-01   1.1178757162724935e-01   1.1178549379786473e-01   1.1178718513435433e-01   1.1178607178059853e-01   1.1178471625837366e-01   1.1178737833211928e-01   1.1178224714966400e-01   1.1178246580746569e-01   1.1178711438221627e-01   1.1178370841562173e-01   1.1178714545603903e-01   1.1178732721476527e-01   1.1178831815078880e-01   1.1178499875504655e-01   1.1178768889532416e-01   1.1181050352543379e-01   1.1178717632105414e-01   1.1178681845989794e-01   1.1178637909243362e-01   1.1178513467359633e-01   1.1178572478619275e-01   1.1178497077552460e-01   1.1178538987747044e-01   1.1178638359568187e-01   1.1178501960134909e-01   1.1178385792371708e-01   1.1178467308517619e-01   1.1178446008848641e-01   1.1178457926086083e-01   1.1178638993497581e-01   1.1178461468811270e-01   1.1178409718571397e-01   1.1177310091287242e-01   1.1175862954279278e-01   1.1178334546606940e-01   1.1177139355935968e-01   1.1178875924601615e-01   1.1178100938445669e-01   1.1178847166280488e-01   1.1180741804016599e-01   1.1178154583381887e-01   1.1178786973266504e-01   1.1178335617262232e-01   1.1178063241990127e-01   1.1176319725950649e-01   1.1177286502844198e-01   1.1178439149099401e-01   1.1173636250446986e-01   1.1178291608805432e-01   1.1178466628865971e-01   1.1178187154411807e-01   1.1178270196464750e-01   1.1178572583175107e-01   1.1178307597028830e-01   1.1178650813164481e-01   1.1178574977859990e-01   1.1178321404781273e-01   1.1178723589636640e-01   1.1178496591607724e-01   1.1178484177297425e-01   1.1178428099104799e-01   1.1178616395996283e-01   1.1178434665260492e-01   1.1178525305978297e-01   1.1178895343615437e-01   1.1178683655742348e-01   1.1179020615586485e-01   1.1178828233931859e-01   1.1178848142687133e-01   1.1178927834797481e-01   1.1178780126411213e-01   1.1178644535208146e-01   1.1179161899839164e-01   1.1179067702496430e-01   1.1179204234869014e-01   1.1179047638067223e-01   1.1178732000474810e-01   1.1178561742471771e-01   1.1178801127166278e-01   1.1178668284172570e-01   1.1178711571205095e-01   1.1179088795387734e-01   1.1178939568296421e-01   1.1178907497095764e-01   1.1179306565922972e-01   1.1179200292843786e-01   1.1179400048945194e-01   1.1179249306810529e-01   1.1179222747559131e-01   1.1179435842166380e-01   1.1179296652136229e-01   1.1179244585472890e-01   1.1179142795618582e-01   1.1179316994916967e-01   1.1179173395292430e-01   1.1179075420602254e-01   1.1178619631701810e-01   1.1178699218270971e-01   1.1178663563552993e-01   1.1178680990552983e-01   1.1178891168399201e-01   1.1178837132529890e-01   1.1178857381511860e-01   1.1178753402235816e-01   1.1178977334421929e-01   1.1179054980475833e-01   1.1178949676228883e-01   1.1178799887321531e-01   1.1178797144404551e-01   1.1178629405015746e-01   1.1178585755955141e-01   1.1178485475882641e-01   1.1177706644955561e-01   1.1177220776913713e-01   1.1178467636644814e-01   1.1177813265894633e-01   1.1177763856443923e-01   1.1178495145160633e-01   1.1177855306377174e-01   1.1177369091752871e-01   1.1178584375369451e-01   1.1178088401269881e-01   1.1178816155415665e-01   1.1178601195798890e-01   1.1177899798530039e-01   1.1177514383551000e-01   1.1178529986495639e-01   1.1177971461792649e-01   1.1178415638665473e-01   1.1178817168780592e-01   1.1178444204879806e-01   1.1178145802373318e-01   1.1178823171646235e-01   1.1178201521377323e-01   1.1178631305028673e-01   1.1178625220080687e-01   1.1178469730235754e-01   1.1178808811633460e-01   1.1178485162466471e-01   1.1178247326349083e-01   1.1177945348044518e-01   1.1178548699636819e-01   1.1178025465536451e-01   1.1177645123766110e-01   1.1179008370245179e-01   1.1178705176933063e-01   1.1179194306167872e-01   1.1178998849414798e-01   1.1178962426056258e-01   1.1179174341559063e-01   1.1178955627205546e-01   1.1178712284891547e-01   1.1179375860443276e-01   1.1179236097210114e-01   1.1179517060454849e-01   1.1179365796871761e-01   1.1178990038624745e-01   1.1178717113727707e-01   1.1179161584837252e-01   1.1178964414321392e-01   1.1178029236780067e-01   1.1177756103707334e-01   1.1178554598500609e-01   1.1178088338652044e-01   1.1178089985476192e-01   1.1178562046518507e-01   1.1178161418938695e-01   1.1177887529546611e-01   1.1178623633953418e-01   1.1178279707237347e-01   1.1178779636420692e-01   1.1178600722094742e-01   1.1178077378738176e-01   1.1177862175031167e-01   1.1178517261664497e-01   1.1178339876496994e-01   1.1178032081613511e-01   1.1178656823884142e-01   1.1178068410528572e-01   1.1178255739628154e-01   1.1178656295166436e-01   1.1178345184689843e-01   1.1178847770397066e-01   1.1178850047397958e-01   1.1177763076987503e-01   1.1178581812462139e-01   1.1177571031154598e-01   1.1177965301052710e-01   1.1178352201615264e-01   1.1178971237698580e-01   1.1178444430128405e-01   1.1178484403387040e-01   1.1178496605868889e-01   1.1177641541369257e-01   1.1178563081093609e-01   1.1178708925062814e-01   1.1177847282451780e-01   1.1178830076530619e-01   1.1178235354471337e-01   1.1178118144230433e-01   1.1178712711619614e-01   1.1178046068357662e-01   1.1178710251365423e-01   1.1178941957474396e-01   1.1178967336170544e-01   1.1178563609729815e-01   1.1179069825866558e-01   1.1179089873457988e-01   1.1177376876121055e-01   1.1178452941001878e-01   1.1177151812171439e-01   1.1177294129336550e-01   1.1178206334846054e-01   1.1176991061995152e-01   1.1178111556500209e-01   1.1178446874973300e-01   1.1177325979506263e-01   1.1178565408409272e-01   1.1176517416968185e-01   1.1176626924039305e-01   1.1177633940626561e-01   1.1178491328493666e-01   1.1177158417634948e-01   1.1177543439525027e-01   1.1178603672199965e-01   1.1179190334896565e-01   1.1178659233131907e-01   1.1178704471412620e-01   1.1179175380513039e-01   1.1178807792751644e-01   1.1179161553606042e-01   1.1179296850083488e-01   1.1178413914371456e-01   1.1178932987444061e-01   1.1177925547083402e-01   1.1178260692656010e-01   1.1178852340320757e-01   1.1179280833324844e-01   1.1178637448755686e-01   1.1178748683522800e-01   1.1165714557541256e-01   1.1167243160095604e-01   1.1169699412375714e-01   1.1174477664982331e-01   1.1170981760251805e-01   1.1178616516017459e-01   1.1174095066339872e-01   1.1171850155473263e-01   1.1170566749126160e-01   1.1171868636170454e-01   1.1171671416328255e-01   1.1178042426738678e-01   1.1173932947833445e-01   1.1173304175024062e-01   1.1177483391905971e-01   1.1175504659577649e-01   1.1173000881636337e-01   1.1178241157918699e-01   1.1175361413593250e-01   1.1174697545093523e-01   1.1177542604227943e-01   1.1175394490376214e-01   1.1177981435332872e-01   1.1177257609167439e-01   1.1175925053525249e-01   1.1178212848980341e-01   1.1176722530894867e-01   1.1176375647114370e-01   1.1174961582134536e-01   1.1178168639531229e-01   1.1176096801208109e-01   1.1174860511151059e-01   1.1172572201019619e-01   1.1173845478754661e-01   1.1173341178855953e-01   1.1178309379365338e-01   1.1174638896398337e-01   1.1178497253037167e-01   1.1176242219261429e-01   1.1175913351141784e-01   1.1174028795940129e-01   1.1174870432593562e-01   1.1174366296429723e-01   1.1178051797610468e-01   1.1177768492544791e-01   1.1176269381397608e-01   1.1177626564264632e-01   1.1178211327485840e-01   1.1176239155566270e-01   1.1175986535332721e-01   1.1178386696359041e-01   1.1176977408656719e-01   1.1176894094393704e-01   1.1178629346040206e-01   1.1177617869203384e-01   1.1176881272650906e-01   1.1178252400651972e-01   1.1177118910714233e-01   1.1178470768140884e-01   1.1178676757433739e-01   1.1177414914587368e-01   1.1177505223247318e-01   1.1179046619311919e-01   1.1178475483700176e-01   1.1178246580045317e-01   1.1178094608732006e-01   1.1177806222256864e-01   1.1177986183848579e-01   1.1177697176472529e-01   1.1177382367662141e-01   1.1177216629003174e-01   1.1177771591958278e-01   1.1177327384330371e-01   1.1177206161344781e-01   1.1176600515162383e-01   1.1176737546653806e-01   1.1177697840010420e-01   1.1177328548200835e-01   1.1176943387019318e-01   1.1177331680412707e-01   1.1176483927791483e-01   1.1175795137711270e-01   1.1175347305808560e-01   1.1176493082010897e-01   1.1174838812144548e-01   1.1175398129244939e-01   1.1175372862896803e-01   1.1176161676123812e-01   1.1173732360388819e-01   1.1174453172610913e-01   1.1170213693049771e-01   1.1173829543183146e-01   1.1176539740751688e-01   1.1176461131816157e-01   1.1175450544433944e-01   1.1176662685450334e-01   1.1175549621543575e-01   1.1175351181042122e-01   1.1173860552805606e-01   1.1174258540063939e-01   1.1173775843683888e-01   1.1172332183115347e-01   1.1170224512647972e-01   1.1173673912762909e-01   1.1171155344133626e-01   1.1170320287950355e-01   1.1166490926349906e-01   1.1167365810863052e-01   1.1173459123570809e-01   1.1170142842638432e-01   1.1169177087748496e-01   1.1170731925981495e-01   1.1176972524049207e-01   1.1175615437967870e-01   1.1175830352473036e-01   1.1176453464079619e-01   1.1173967435130526e-01   1.1176013409206891e-01   1.1170762736061488e-01   1.1174196520260662e-01   1.1175328382691786e-01   1.1170440965476654e-01   1.1171977281019826e-01   1.1172945062246616e-01   1.1176829699524742e-01   1.1171391740150104e-01   1.1173705298559100e-01   1.1174207305317910e-01   1.1178944360423344e-01   1.1178980362069102e-01   1.1178913841295567e-01   1.1178908450539679e-01   1.1178830665783931e-01   1.1178872353990056e-01   1.1178904683301215e-01   1.1178981206418366e-01   1.1178769016438092e-01   1.1178736233824868e-01   1.1178670987744320e-01   1.1178761830578920e-01   1.1178884713420116e-01   1.1179017993338822e-01   1.1178938747262010e-01   1.1178797731522419e-01   1.1178635286554552e-01   1.1178682958749897e-01   1.1178684052333518e-01   1.1178783523594921e-01   1.1178757447041576e-01   1.1178819855177032e-01   1.1178811731808408e-01   1.1178824237996217e-01   1.1178722082312191e-01   1.1178816633579203e-01   1.1178632471083684e-01   1.1178784544592800e-01   1.1178953899382173e-01   1.1178946017102802e-01   1.1178924442067004e-01   1.1178994194136292e-01   1.1178562853143569e-01   1.1178536713345447e-01   1.1178469934129340e-01   1.1178595435450159e-01   1.1178479893883780e-01   1.1178544978148493e-01   1.1178495594653880e-01   1.1178594736962898e-01   1.1178344073174336e-01   1.1178317129111325e-01   1.1178285223971828e-01   1.1178400524518110e-01   1.1178714059519657e-01   1.1178581925713296e-01   1.1178551514072570e-01   1.1178626489417808e-01   1.1178677108467562e-01   1.1179030364570515e-01   1.1178963542518475e-01   1.1178422571010510e-01   1.1179022698165630e-01   1.1178720225675001e-01   1.1178364744249498e-01   1.1178549932393211e-01   1.1178889626774965e-01   1.1178709190180441e-01   1.1178647662287280e-01   1.1178622536215757e-01   1.1178508388549131e-01   1.1180605538970241e-01   1.1180005396518106e-01   1.1170555333524027e-01   1.1178732267014259e-01   1.1178139364183154e-01   1.1178840438456775e-01   1.1178455628428484e-01   1.1177981404795895e-01   1.1178425184185414e-01   1.1177983303172526e-01   1.1178026758914367e-01   1.1178825902420612e-01   1.1177898228068482e-01   1.1178823771991475e-01   1.1178402085640521e-01   1.1178610115777793e-01   1.1178239125579412e-01   1.1178654021126101e-01   1.1178705955998049e-01   1.1177797560071737e-01   1.1178375419403924e-01   1.1177829580579486e-01   1.1177913288920455e-01   1.1178596416355520e-01   1.1178184260320452e-01   1.1178737028567708e-01   1.1178652326653296e-01   1.1178209524793421e-01   1.1178888225918995e-01   1.1178253910039630e-01   1.1178502619757950e-01   1.1178227275207120e-01   1.1178780205728066e-01   1.1178462824103545e-01   1.1178448534632719e-01   1.1178817481519242e-01   1.1177675230156478e-01   1.1178732829548838e-01   1.1178277888997275e-01   1.1177644866766343e-01   1.1178442253173412e-01   1.1177413526755457e-01   1.1177822261777694e-01   1.1178958979799215e-01   1.1177113576609578e-01   1.1177395131372034e-01   1.1177159222120298e-01   1.1178757620786292e-01   1.1177886114024560e-01   1.1177701149241671e-01   1.1178000127130738e-01   1.1178859091074991e-01   1.1178696738609629e-01   1.1178918996975677e-01   1.1178992070653253e-01   1.1178780817560589e-01   1.1179206690384622e-01   1.1178884139067546e-01   1.1178989906817598e-01   1.1179045213785170e-01   1.1178585159599787e-01   1.1178317125706663e-01   1.1178596354196901e-01   1.1179266547289536e-01   1.1179119694975938e-01   1.1178870400503979e-01   1.1179039969836725e-01   1.1178968983145754e-01   1.1178237205889899e-01   1.1179380159861178e-01   1.1178378487156848e-01   1.1178045848980191e-01   1.1178782110499130e-01   1.1178313053999867e-01   1.1178192291410718e-01   1.1178717795014166e-01   1.1178327261452790e-01   1.1178722901027760e-01   1.1178725173450425e-01   1.1178737943158150e-01   1.1178302478909152e-01   1.1178736507132388e-01   1.1178679747278888e-01   1.1178379683700511e-01   1.1178627337564895e-01   1.1178399188429312e-01   1.1178356624474291e-01   1.1178532506334589e-01   1.1178391233276995e-01   1.1178545235403367e-01   1.1178640908709984e-01   1.1178370591060945e-01   1.1178383986032506e-01   1.1178305046974092e-01   1.1178371503089504e-01   1.1178371155