<?xml version="1.0"?>
<VTKFile type="UnstructuredGrid"  version="0.1"  >
<UnstructuredGrid>
<Piece  NumberOfPoints="4153" NumberOfCells="8064">
<Points>
<DataArray  type="Float64"  NumberOfComponents="3"  format="ascii">-0.4163753685660649 -0.6435472148805108 0  -0.03734872271406491 -0.8244257365261107 0  -0.09178551276103682 -0.8184577512554246 0  -0.1449719966511407 -0.8064312854394186 0  -0.1963175907839633 -0.7889760075495816 0  -0.2457694888283877 -0.7677628907515527 0  -0.2926150226432406 -0.7409902187178157 0  -0.3366133361003785 -0.7107622523200886 0  -0.3777372529028185 -0.6779769936435682 0  0.01754512484672252 -0.8239562010605961 0  -0.4524390349514578 -0.6091280153735916 0  -0.4866108051753735 -0.5747722875248639 0  -0.5189661337853496 -0.5407816123922452 0  -0.549803165183757 -0.5076581060743464 0  -0.5795220935470439 -0.4760068433132912 0  -0.6084442177149387 -0.4461846357575858 0  -0.6366833024443862 -0.4189680036815872 0  0.6336706181969168 -0.4140575219236979 0  0.07205090416464256 -0.8171136993285401 0  0.1253606954913618 -0.804178596714027 0  0.1767816463689847 -0.7857389308952232 0  0.2257740701097025 -0.7624919998603891 0  0.2720997991818703 -0.7356648065361315 0  0.3157007233449012 -0.7060655445387333 0  0.3566595941580527 -0.6745392244016163 0  0.3951040350424441 -0.6417707327969122 0  0.4314170463958897 -0.6086243273373884 0  0.4658673056739698 -0.5755574913705777 0  0.498755127606023 -0.5430010425710545 0  0.530305397468866 -0.5113231370136757 0  0.5608621487993497 -0.4808491148707431 0  0.5905861927204211 -0.4520425797695041 0  0.6197237952115039 -0.4257448942901773 0  0.604945530756306 -0.4387654357236783 0  -0.6223461436117311 -0.4323535528765215 0  -0.5647578903729885 -0.4917536693887342 0  -0.5029883547472385 -0.5577071466299769 0  -0.4346338580865051 -0.626315532185841 0  -0.3575586331110188 -0.6945308118400487 0  -0.2695129298479785 -0.7548465555012968 0  -0.1709083080515144 -0.7984726046122566 0  -0.06467717644552232 -0.8222325584611611 0  0.5757424428614444 -0.4664311036612667 0  0.1513433389759897 -0.7955901526005437 0  0.2492796246704645 -0.7494863110691241 0  0.3364876347048064 -0.690487407070389 0  0.4135155546609566 -0.6252288563919305 0  0.4824809531076222 -0.5592116962972108 0  0.5457174552829965 -0.4960502858284711 0  0.04489901477751434 -0.8213226994307227 0  -0.6502633888497535 -0.4068614472322118 0  0.5146832241758338 -0.527052366286612 0  0.4488537718017513 -0.5920647330338231 0  0.3761870257192215 -0.6582466818394191 0  0.2942382297622803 -0.7211668183384531 0  0.2016204983091683 -0.7746643410951524 0  0.09890218747971793 -0.8113756809930849 0  -0.009903681407080199 -0.8250025490818709 0  -0.1185797318330679 -0.8131941949027507 0  -0.2211501247140651 -0.7788322833972048 0  -0.3148955061387423 -0.7260694269344382 0  -0.3976844783223603 -0.6613536408224695 0  -0.4697713341144757 -0.591953041085735 0  -0.5345868267883719 -0.5241291696460928 0  -0.5939717170590739 -0.4610288987097476 0  0.7502921835169439 -0.2249882238483337 0  0.6788587552340135 -0.3798811244179275 0  0.7185454318275183 -0.3366257923758987 0  0.7436237767991604 -0.2843455883307832 0  0.6568339295755338 -0.3974435281903372 0  0.69987295286968 -0.3595937872844635 0  0.7290310376907301 -0.3088942059080841 0  0.7456839952746157 -0.2542811176620224 0  0.6450915740235685 -0.4059877368161414 0  0.6678312302274605 -0.3878334437087998 0  0.6895028189417625 -0.369889129996727 0  0.7089244113483932 -0.3472569566484769 0  0.7266127245355575 -0.3241762178538494 0  0.735339274731166 -0.2964177201517774 0  0.7434169757107867 -0.2690313841783143 0  0.747286945783416 -0.2394714218469675 0  0.7499687628076999 -0.2058020304848422 0  0.7530792184855486 0.2267639612594615 0  0.7542084224149719 0.1886220549702889 0  0.7565815022588334 0.1499691385736112 0  0.7592152813503547 0.1107373457139049 0  0.7618262835448576 0.07089126159221953 0  0.7628733195983584 0.03057327086413391 0  0.7624906918731401 -0.009858574946777046 0  0.7606757008952062 -0.05014737875210711 0  0.7574070423955223 -0.089921651063262 0  0.7542039825956861 -0.1290963672306093 0  0.7513530740196318 -0.1676872120175178 0  0.7539887716718158 0.245861483530678 0  0.7534385217137123 0.2077457220188761 0  0.7579085558180004 0.130426604244348 0  0.7625255452851916 0.05076401267312065 0  0.7617661227343498 -0.03003774675806052 0  0.7558165842837906 -0.1095879904008027 0  0.7504391470915497 -0.1867993925641664 0  0.7553348363862785 0.1693667225182355 0  0.7606223716163849 0.09091289764987028 0  0.7628556869232581 0.01035575683675877 0  0.7591037298871971 -0.07013295248194479 0  0.7527084461727935 -0.1484653650081955 0  0.6438062671828804 0.4371503039040329 0  0.7488262031057188 0.3053945138335245 0  0.7253249606571576 0.3585881875645222 0  0.6874279395148407 0.4026343138630479 0  0.7503359445292763 0.2752532139887761 0  0.7355991124094262 0.3307948989542722 0  0.707479681949273 0.3816986142912929 0  0.6659651847249882 0.4201017151439106 0  0.7516385639463664 0.2604582621128912 0  0.7487053594017077 0.2901003795608015 0  0.7414163421386664 0.3178741368877185 0  0.7324040807999527 0.345608575151425 0  0.7160501941031818 0.3692678428289445 0  0.6975614768895316 0.3922567571790495 0  0.6766409922393305 0.4106148801315078 0  0.6546978389310881 0.4287862546727306 0  -0.02958301617108493 0.8785070991654224 0  0.6028822062138655 0.4767368771121084 0  0.5746719938906713 0.5069670313413973 0  0.545681676565786 0.539182674647122 0  0.5155726058578394 0.5730187482775401 0  0.4839321455851072 0.6079363543040516 0  0.4504535582493461 0.6435200281461139 0  0.4148193641106657 0.6793260225064837 0  0.3766697393198441 0.7149200403431279 0  0.3355828881993777 0.7492180951317107 0  0.2914105170496414 0.7814743619087139 0  0.2440611388250843 0.8107265899113292 0  0.1936232247306876 0.8361625558248599 0  0.1403661825976629 0.8563210859865279 0  0.08488786985240308 0.8704305404901559 0  0.02796181370755793 0.8778189556948761 0  0.6305128133982951 0.4492645836132997 0  -0.08669246496964493 0.871490894965777 0  -0.1423398881070677 0.8576669625947606 0  -0.1956889363506404 0.8376967038384326 0  -0.2459940128506076 0.811808952470251 0  -0.2934530735262362 0.7834692243713988 0  -0.3377236999401387 0.7520322467712182 0  -0.3789894104421045 0.7185593153751 0  -0.4174508778873227 0.6837037815038982 0  -0.4534615372180645 0.6487521842229806 0  -0.4874829867931312 0.6140262167588681 0  -0.5197879314993241 0.5799027008270198 0  -0.550666374424185 0.5467496688734613 0  -0.5804026335158676 0.5149080758800337 0  -0.6092553756357363 0.484915562196238 0  -0.6374627316886298 0.4575895742117395 0  -0.6509797374131848 0.4454750711459617 0  -0.6231429906176024 0.4710655126531869 0  -0.5656744351648452 0.5307677921974102 0  -0.5038346749009274 0.596881021944015 0  -0.4357110316487857 0.6662123205209156 0  -0.3587118588623327 0.7354502269204289 0  -0.2701137297294472 0.7981018413429365 0  -0.169326931882927 0.8482204624386369 0  -0.05824909712087386 0.8758514734582102 0  0.05656216370081766 0.8750254219325653 0  0.1673159248194916 0.8469239217407756 0  0.2681346733839475 0.7965442899839255 0  0.3564883434741909 0.7322478064502539 0  0.4329253850188544 0.6614279075446096 0  0.4999615247638357 0.5903768730451885 0  0.5602847822905064 0.5229699967058167 0  0.616487150636404 0.462789340990548 0  -0.5948399320929458 0.4998569583823401 0  -0.5353971860610668 0.5632282828140377 0  -0.4707100890807361 0.6313457913349089 0  -0.3986256527324607 0.7013091050251921 0  -0.3159619538134343 0.7680280294536996 0  -0.2215347850823013 0.8258350267286554 0  -0.1147402443433621 0.8653268579724586 0  -0.0007456219608397833 0.879055906791121 0  0.1128619964563618 0.8641767907032148 0  0.2192533971130136 0.8240726744946141 0  0.3138898740864993 0.7656591391814254 0  0.3961208403476535 0.6972337989792164 0  0.4674415323228301 0.6256757435345524 0  0.5308219807702075 0.5559784835184127 0  0.5887822282123844 0.4917671860429504 0  -0.7639983841535576 0.2544581756182294 0  -0.6951123879057153 0.4107399342751692 0  -0.7337299563133283 0.3668329323034317 0  -0.7579614816758854 0.3139631980029844 0  -0.6734770673957985 0.4283922381484722 0  -0.715569358904619 0.3899839264780012 0  -0.7440792711751759 0.3390049473244687 0  -0.7597892171707556 0.2838319159690608 0  -0.6620227387213229 0.4370943042991843 0  -0.6842602205787929 0.4187804108787099 0  -0.7054628334491497 0.400475002581026 0  -0.7243332159003176 0.3775374963244951 0  -0.7412690803961335 0.3540587522519597 0  -0.7501272969678042 0.326271575070031 0  -0.7578242136317679 0.2986515071471736 0  -0.7612721124447658 0.2690174344410674 0  -0.7634051337863074 0.2352864078822306 0  -0.7631477161976672 -0.1978297206982986 0  -0.7644899007649438 -0.1596970067638676 0  -0.7671804426588642 -0.1210534715944727 0  -0.7701661344583585 -0.08181480832965879 0  -0.7731591359418614 -0.04196065138757085 0  -0.7746308630519568 -0.001605912539417144 0  -0.7746664140947016 0.0388820976483962 0  -0.7732685813100816 0.07924691462410181 0  -0.7703580986834391 0.1191280179771205 0  -0.7674226615547909 0.1584058396269198 0  -0.7647510982148881 0.1970985210522938 0  -0.7637920880907701 -0.2169731763059616 0  -0.7636025382818729 -0.1788205029084236 0  -0.7686870738333486 -0.1015118798642258 0  -0.7740746901770988 -0.02181708627676734 0  -0.7741467184568154 0.05909692468725591 0  -0.7689067945135923 0.1388429717370656 0  -0.7638636615252901 0.2162481418325378 0  -0.7657692163877461 -0.1404493185516311 0  -0.771745464747786 -0.06198777607024396 0  -0.774823063542269 0.01863750417305865 0  -0.7718988376115457 0.09928463930555426 0  -0.7660262781351518 0.1778251177447754 0  -0.7576957304584716 -0.2763846020190711 0  -0.7332557923086581 -0.3290623595540556 0  -0.6945101443400916 -0.3726480262580694 0  -0.7596257118107617 -0.2463137622572323 0  -0.7438355825052174 -0.3014228693883972 0  -0.7150298880512846 -0.3520927015414063 0  -0.6727420677178473 -0.3900480638860738 0  -0.7611086068598141 -0.2315198744914477 0  -
[...]
<CellData  Scalars="f_11009"> 
<DataArray  type="Float64"  Name="f_11009"  format="ascii">1.1177202566946784e-01   1.1177577485769891e-01   1.1176882345379135e-01   1.1177057645781380e-01   1.1177622329175624e-01   1.1176823218022494e-01   1.1177817531562147e-01   1.1177751291812596e-01   1.1176580344811482e-01   1.1177723300932801e-01   1.1176351968299700e-01   1.1176565360848575e-01   1.1177145624655163e-01   1.1177957727952363e-01   1.1177023496189216e-01   1.1177215539944298e-01   1.1177818587594297e-01   1.1176430787038234e-01   1.1177963500402202e-01   1.1177883151376004e-01   1.1176776257460691e-01   1.1178095700810577e-01   1.1177073931687671e-01   1.1176849786544883e-01   1.1178211358217104e-01   1.1177227141952463e-01   1.1178215148596796e-01   1.1178301496144290e-01   1.1178047813168514e-01   1.1177215434459850e-01   1.1178216670672994e-01   1.1178124191731882e-01   1.1176213737504484e-01   1.1177918306201001e-01   1.1176152725807077e-01   1.1176402924556844e-01   1.1177967099046207e-01   1.1176671299792838e-01   1.1177976526638407e-01   1.1178110875947329e-01   1.1176544533336992e-01   1.1178155904007575e-01   1.1175793494377195e-01   1.1176483256719384e-01   1.1176979411620011e-01   1.1178138193915854e-01   1.1176594827173711e-01   1.1176816009368463e-01   1.1177326504646111e-01   1.1178255716195315e-01   1.1177402135993803e-01   1.1177426943166500e-01   1.1178402798008587e-01   1.1177725180494763e-01   1.1178380317895535e-01   1.1178403657877398e-01   1.1177455592804025e-01   1.1178292952143880e-01   1.1177023044492099e-01   1.1177213867963687e-01   1.1177661526481410e-01   1.1178363438763242e-01   1.1177471091071614e-01   1.1177348947178982e-01   1.1178953495766139e-01   1.1178510873479422e-01   1.1178897984331478e-01   1.1178805291265478e-01   1.1178290788942294e-01   1.1178453573497701e-01   1.1177754147133007e-01   1.1178143107067672e-01   1.1178932241497605e-01   1.1178092840895489e-01   1.1178891458419890e-01   1.1178419041731705e-01   1.1178739910931249e-01   1.1177727237662825e-01   1.1178171843582860e-01   1.1178619234139592e-01   1.1177819520617717e-01   1.1178326669088026e-01   1.1177042668942669e-01   1.1177457533022485e-01   1.1177985854050007e-01   1.1176707920705581e-01   1.1177733685173857e-01   1.1178192171628916e-01   1.1176274546721195e-01   1.1177978540272919e-01   1.1174637527519844e-01   1.1175793442946687e-01   1.1177149699790977e-01   1.1177793578857130e-01   1.1176245480940754e-01   1.1177133053155218e-01   1.1178838598512553e-01   1.1177460327568074e-01   1.1178686229007442e-01   1.1178160926468440e-01   1.1177208399215602e-01   1.1178338716372523e-01   1.1176014874895364e-01   1.1176676566557424e-01   1.1178607550798748e-01   1.1176123039071528e-01   1.1178512525791452e-01   1.1177037755488278e-01   1.1178184859322572e-01   1.1175333556729580e-01   1.1176884647432786e-01   1.1176395499920976e-01   1.1178553648424525e-01   1.1176199323927084e-01   1.1177199279712513e-01   1.1178411174516920e-01   1.1175053387613480e-01   1.1177295324923865e-01   1.1172852771270747e-01   1.1175235339791630e-01   1.1177766933127505e-01   1.1173689486057288e-01   1.1175846622791764e-01   1.1175449961856206e-01   1.1178988465359747e-01   1.1171186945816217e-01   1.1173702667574693e-01   1.1179018863608932e-01   1.1165320230420014e-01   1.1171449328556610e-01   1.1169021894269579e-01   1.1174904144109488e-01   1.1171948202485275e-01   1.1176827133083807e-01   1.1175108295273831e-01   1.1174685934892965e-01   1.1170019656009118e-01   1.1172067277169154e-01   1.1171233076265843e-01   1.1176974877385212e-01   1.1174044609029396e-01   1.1174910382948258e-01   1.1176022814812456e-01   1.1174837902638789e-01   1.1172745929062508e-01   1.1177423899935322e-01   1.1175297684561213e-01   1.1175066741199327e-01   1.1176704828762579e-01   1.1175269995571677e-01   1.1176614091669922e-01   1.1176202943277691e-01   1.1175505992889960e-01   1.1177060905975827e-01   1.1175887854520382e-01   1.1175823320882174e-01   1.1175263979963047e-01   1.1176484061443628e-01   1.1175814061473388e-01   1.1175496735937195e-01   1.1172487517959280e-01   1.1173510825737466e-01   1.1173647508093325e-01   1.1177701893506853e-01   1.1174382006277805e-01   1.1177959536821436e-01   1.1176006887720519e-01   1.1175639689881466e-01   1.1174649516894718e-01   1.1175152299168149e-01   1.1175755573066731e-01   1.1178079518580467e-01   1.1177110834800146e-01   1.1175726909497297e-01   1.1177278883049029e-01   1.1177139958895679e-01   1.1175308856337028e-01   1.1175956055706300e-01   1.1176710240151175e-01   1.1175770176603510e-01   1.1176243731248808e-01   1.1176996124662697e-01   1.1176544447160357e-01   1.1176399372868001e-01   1.1176862523628241e-01   1.1176134025452743e-01   1.1176957720975252e-01   1.1176843738122241e-01   1.1176172479150080e-01   1.1176612223801449e-01   1.1176985352769628e-01   1.1176697050227587e-01   1.1167982269694102e-01   1.1175448356165851e-01   1.1173989499942694e-01   1.1170737736700471e-01   1.1176827919765300e-01   1.1175511643132913e-01   1.1177116474651717e-01   1.1176177403672419e-01   1.1175530825844582e-01   1.1176939394671064e-01   1.1176923200904545e-01   1.1176162833601350e-01   1.1173677766675036e-01   1.1176915610389640e-01   1.1176767295848387e-01   1.1175458759915040e-01   1.1177297054729612e-01   1.1176990074654028e-01   1.1177582200814502e-01   1.1177264350094691e-01   1.1177713423793523e-01   1.1177794379585193e-01   1.1177736178177063e-01   1.1177185055725118e-01   1.1178026816234950e-01   1.1178079863295196e-01   1.1178303108485167e-01   1.1178140094121612e-01   1.1177645409265345e-01   1.1177486596641839e-01   1.1178019809959591e-01   1.1177468473704326e-01   1.1177642730585738e-01   1.1177646567431142e-01   1.1178090768107683e-01   1.1177484211483441e-01   1.1177921833064997e-01   1.1177812789606867e-01   1.1178064631510688e-01   1.1177848934525278e-01   1.1178411336618634e-01   1.1178228112126605e-01   1.1178414779763014e-01   1.1178020749581379e-01   1.1178018837273480e-01   1.1178209371366693e-01   1.1178209840845155e-01   1.1178263205282599e-01   1.1176625607904758e-01   1.1177931221729472e-01   1.1177993264844802e-01   1.1177445175985055e-01   1.1178316896000288e-01   1.1178343852897400e-01   1.1178533760187223e-01   1.1178285457087585e-01   1.1178147395661679e-01   1.1178403720673438e-01   1.1178359764535656e-01   1.1178432823744132e-01   1.1178033923298174e-01   1.1178552858835623e-01   1.1178600116144093e-01   1.1178475730513401e-01   1.1161175609035093e-01   1.1188760088355512e-01   1.1178616467175212e-01   1.1186624835408139e-01   1.1176933892490269e-01   1.1178096033104626e-01   1.1179665547617604e-01   1.1174784251045237e-01   1.1178691844669295e-01   1.1178685679742283e-01   1.1178622187898196e-01   1.1178155528979926e-01   1.1172150403625998e-01   1.1176205530469736e-01   1.1179363253454137e-01   1.1175710270343850e-01   1.1178637487001736e-01   1.1178369415460811e-01   1.1178595652643211e-01   1.1178412520050830e-01   1.1178289652566142e-01   1.1178654643278739e-01   1.1178040169123250e-01   1.1178019110826183e-01   1.1178598239705728e-01   1.1178186998414955e-01   1.1178614415528548e-01   1.1178602538917796e-01   1.1178496247998636e-01   1.1178233352602311e-01   1.1178722316935299e-01   1.1181235814520120e-01   1.1178559150392894e-01   1.1178566292581456e-01   1.1178495803503397e-01   1.1178320978319896e-01   1.1178481684302369e-01   1.1178323292928009e-01   1.1178446104286686e-01   1.1178527653951766e-01   1.1178382814863148e-01   1.1178322898471384e-01   1.1178356379445553e-01   1.1178280542361783e-01   1.1178277429964675e-01   1.1178538032415425e-01   1.1178286422239433e-01   1.1178219056324473e-01   1.1176956713335894e-01   1.1175076878182165e-01   1.1178291425410483e-01   1.1176392908626653e-01   1.1178830781523716e-01   1.1177982403102821e-01   1.1178731457424099e-01   1.1181102013654617e-01   1.1177940178187774e-01   1.1178686592959999e-01   1.1178145361538423e-01   1.1177854092422755e-01   1.1176199943393568e-01   1.1176747906389629e-01   1.1178290751900355e-01   1.1173270926349034e-01   1.1178441595550755e-01   1.1178690286423346e-01   1.1178297700091953e-01   1.1178474026750103e-01   1.1178767410257286e-01   1.1178465366897608e-01   1.1178875460342472e-01   1.1178818345127664e-01   1.1178460180970232e-01   1.1178914925149139e-01   1.1178645136314953e-01   1.1178670119249134e-01   1.1178661420732201e-01   1.1178891912024812e-01   1.1178628223307713e-01   1.1178800998787887e-01   1.1179067564715274e-01   1.1178873990529803e-01   1.1179216290445103e-01   1.1179045801705603e-01   1.1179070920009149e-01   1.1179171730945098e-01   1.1179040536589956e-01   1.1178862696754442e-01   1.1179370237018153e-01   1.1179302706124808e-01   1.1179464804047652e-01   1.1179314890970420e-01   1.1178984057168934e-01   1.1178795169339205e-01   1.1179089287857163e-01   1.1178978620150752e-01   1.1178862642282694e-01   1.1179232971074003e-01   1.1179084894652709e-01   1.1179097824169014e-01   1.1179402304449967e-01   1.1179351948727563e-01   1.1179528555806817e-01   1.1179402219394076e-01   1.1179325823662212e-01   1.1179502388587642e-01   1.1179440421562321e-01   1.1179446182460141e-01   1.1179334957617192e-01   1.1179509147048274e-01   1.1179426740423311e-01   1.1179384426576496e-01   1.1178938677164622e-01   1.1179054721833087e-01   1.1178946443543783e-01   1.1179053572611100e-01   1.1179213906041668e-01   1.1179148412112763e-01   1.1179260992463522e-01   1.1179151285344290e-01   1.1179258117386690e-01   1.1179388440790330e-01   1.1179315604961232e-01   1.1179227196118320e-01   1.1179212072447590e-01   1.1179139053355158e-01   1.1179063816417521e-01   1.1179042495839341e-01   1.1177786051255670e-01   1.1177230839337950e-01   1.1178526375274056e-01   1.1177879843463748e-01   1.1177813642836754e-01   1.1178574016581913e-01   1.1177910259226775e-01   1.1177390334561746e-01   1.1178632316978647e-01   1.1178154756741476e-01   1.1178857176831648e-01   1.1178670515061051e-01   1.1177987222543805e-01   1.1177543550921400e-01   1.1178631637057637e-01   1.1178075402147997e-01   1.1178494154867295e-01   1.1178884350540465e-01   1.1178538964882705e-01   1.1178222816223696e-01   1.1178922930380529e-01   1.1178293199726323e-01   1.1178755850282197e-01   1.1178722147859735e-01   1.1178583392778067e-01   1.1178939200024755e-01   1.1178623918520846e-01   1.1178354707141940e-01   1.1178011682289600e-01   1.1178672766411153e-01   1.1178105323744136e-01   1.1177687200060722e-01   1.1179040279122363e-01   1.1178789353869344e-01   1.1179217529093624e-01   1.1179062173428832e-01   1.1179052082209789e-01   1.1179233145002798e-01   1.1179078083925283e-01   1.1178818427182945e-01   1.1179381902461590e-01   1.1179312247099897e-01   1.1179534846357378e-01   1.1179420366065979e-01   1.1179089333400873e-01   1.1178852470324799e-01   1.1179273027925972e-01   1.1179112808827278e-01   1.1178151232883797e-01   1.1177813412004925e-01   1.1178701250565248e-01   1.1178229242512271e-01   1.1178184298910326e-01   1.1178728800379902e-01   1.1178278896775326e-01   1.1177961746086647e-01   1.1178773530727576e-01   1.1178408920715041e-01   1.1178954547845089e-01   1.1178790988222324e-01   1.1178233388781005e-01   1.1177949823179362e-01   1.1178712544581396e-01   1.1178538498618219e-01   1.1177955257916493e-01   1.1178541429348127e-01   1.1177976616452362e-01   1.1178285121237067e-01   1.1178544757476734e-01   1.1178355859034823e-01   1.1178774745234658e-01   1.1178755683099710e-01   1.1177709435252606e-01   1.1178499329371452e-01   1.1177520736212712e-01   1.1178018554860629e-01   1.1178353947677444e-01   1.1178874389465594e-01   1.1178438229503890e-01   1.1178491298682432e-01   1.1178449247447793e-01   1.1177707370341998e-01   1.1178570523675811e-01   1.1178677312596874e-01   1.1177882775382400e-01   1.1178803032324475e-01   1.1178269718038790e-01   1.1178146915534121e-01   1.1178732543192503e-01   1.1178100128288036e-01   1.1178731897059796e-01   1.1178938948089527e-01   1.1178896048867928e-01   1.1178568899350461e-01   1.1179014620812117e-01   1.1179000379221901e-01   1.1177323351150492e-01   1.1178451527245134e-01   1.1177075901600113e-01   1.1177351168141340e-01   1.1178250877941344e-01   1.1177029597261803e-01   1.1178178678381256e-01   1.1178502276386677e-01   1.1177245271619085e-01   1.1178659778236046e-01   1.1176364836904458e-01   1.1176561902566715e-01   1.1177675460739300e-01   1.1178533487171857e-01   1.1177115793583689e-01   1.1177531509342280e-01   1.1178612907992960e-01   1.1179113189487823e-01   1.1178673160653431e-01   1.1178716850453937e-01   1.1179144565500400e-01   1.1178848438579828e-01   1.1179140772242989e-01   1.1179240450815056e-01   1.1178465676271362e-01   1.1178934066291139e-01   1.1177928185675752e-01   1.1178271549933105e-01   1.1178886522435032e-01   1.1179236864627937e-01   1.1178648598420107e-01   1.1178757642868084e-01   1.1165997550536656e-01   1.1166712027252966e-01   1.1169803179827933e-01   1.1174971111178797e-01   1.1170648132769583e-01   1.1178992754669466e-01   1.1174023759489618e-01   1.1171856790097039e-01   1.1170700209841751e-01   1.1171576739190078e-01   1.1171762052975003e-01   1.1178395043503910e-01   1.1174254559640219e-01   1.1173413610581097e-01   1.1177605439042378e-01   1.1175755254303230e-01   1.1172748193636675e-01   1.1178528221410049e-01   1.1175287384964880e-01   1.1174631469309594e-01   1.1177679446317262e-01   1.1175409894928758e-01   1.1178069701987464e-01   1.1177415066147760e-01   1.1175911517242539e-01   1.1178262747087984e-01   1.1176793081479319e-01   1.1176423898152270e-01   1.1174986692035845e-01   1.1178212602223113e-01   1.1176166086963008e-01   1.1175025070760423e-01   1.1172653089180336e-01   1.1173632268065620e-01   1.1173421515468221e-01   1.1178564063442159e-01   1.1174450440410208e-01   1.1178695287597322e-01   1.1176208424624694e-01   1.1175832181379657e-01   1.1174081310333608e-01   1.1174744416517246e-01   1.1174528585156662e-01   1.1178348590353315e-01   1.1177870644251804e-01   1.1176293126404505e-01   1.1177853285638796e-01   1.1178394129047015e-01   1.1176410445924712e-01   1.1176135530481676e-01   1.1178364184631194e-01   1.1177093288033851e-01   1.1176950610294907e-01   1.1178544419706864e-01   1.1177683010705740e-01   1.1176983343774109e-01   1.1178249209155713e-01   1.1177206454331051e-01   1.1178583260113534e-01   1.1178735799468388e-01   1.1177466098631456e-01   1.1177594135178386e-01   1.1179020760241304e-01   1.1178502611451745e-01   1.1178190297461532e-01   1.1178011407861625e-01   1.1177803107133949e-01   1.1177956399441745e-01   1.1177672657274670e-01   1.1177422161411776e-01   1.1177261486357187e-01   1.1177745242575958e-01   1.1177383535362824e-01   1.1177244547140874e-01   1.1176739923166991e-01   1.1176847606624991e-01   1.1177691155448061e-01   1.1177368898982702e-01   1.1177011711072986e-01   1.1177346662900146e-01   1.1176606105772705e-01   1.1176000481375274e-01   1.1175610337022870e-01   1.1176626076784793e-01   1.1175086117704544e-01   1.1175666145328300e-01   1.1175531471928658e-01   1.1176299544304825e-01   1.1174180297300650e-01   1.1174617902837702e-01   1.1171031086104248e-01   1.1174267326335578e-01   1.1176675293851326e-01   1.1176544721918588e-01   1.1175717126460392e-01   1.1176794221032538e-01   1.1175804296684738e-01   1.1175597636271499e-01   1.1174294456638947e-01   1.1174612892846097e-01   1.1174167164244962e-01   1.1172828525033340e-01   1.1171039214330333e-01   1.1174116225239740e-01   1.1171858767449307e-01   1.1171096457720847e-01   1.1167689656412179e-01   1.1168362139696122e-01   1.1173769725196450e-01   1.1170985026010805e-01   1.1169853999109738e-01   1.1171204646218837e-01   1.1176995121953785e-01   1.1175868154068865e-01   1.1175917772450025e-01   1.1176483329585020e-01   1.1174378372365529e-01   1.1176010870762719e-01   1.1171393574905947e-01   1.1174572001682119e-01   1.1175388695523093e-01   1.1171180077547448e-01   1.1172328175284450e-01   1.1173222994613449e-01   1.1176800577537684e-01   1.1171897768072174e-01   1.1173938955177884e-01   1.1174458964916729e-01   1.1178697170285379e-01   1.1178783548502569e-01   1.1178712972343510e-01   1.1178651163666731e-01   1.1178684220474903e-01   1.1178721572222367e-01   1.1178736492068383e-01   1.1178784429591065e-01   1.1178584178443696e-01   1.1178582039353295e-01   1.1178510564038170e-01   1.1178609080583704e-01   1.1178596577458215e-01   1.1178785014085718e-01   1.1178766377197763e-01   1.1178500061879763e-01   1.1178488319011470e-01   1.1178554072426181e-01   1.1178520916863272e-01   1.1178614217751348e-01   1.1178608662318595e-01   1.1178628640501184e-01   1.1178629414351139e-01   1.1178652930385936e-01   1.1178539463165450e-01   1.1178675318955138e-01   1.1178428139427374e-01   1.1178570690875723e-01   1.1178762839759560e-01   1.1178770333878761e-01   1.1178698472530477e-01   1.1178732455949233e-01   1.1178426418966241e-01   1.1178394162718985e-01   1.1178355875651393e-01   1.1178483241942909e-01   1.1178343574632515e-01   1.1178456945413431e-01   1.1178334277544771e-01   1.1178439208836956e-01   1.1178260488097674e-01   1.1178179265791716e-01   1.1178196916048097e-01   1.1178299287192291e-01   1.1178589291988263e-01   1.1178394433836147e-01   1.1178414022823681e-01   1.1178468481849051e-01   1.1178372733579292e-01   1.1178814008876903e-01   1.1178825837856687e-01   1.1178066413105192e-01   1.1178867405875231e-01   1.1178406048839772e-01   1.1178002765248586e-01   1.1177996503775010e-01   1.1178735070859347e-01   1.1178486348622822e-01   1.1178455020441992e-01   1.1178529975628368e-01   1.1178932392762933e-01   1.1181563710595981e-01   1.1180282808821682e-01   1.1163509915811623e-01   1.1178869990752510e-01   1.1178213295826481e-01   1.1178994937923711e-01   1.1178579382879934e-01   1.1178055941149356e-01   1.1178564149985791e-01   1.1178075499198735e-01   1.1178117525218079e-01   1.1178952781308077e-01   1.1177959773275756e-01   1.1178930316056607e-01   1.1178508038463936e-01   1.1178720332813295e-01   1.1178342570381579e-01   1.1178775401995898e-01   1.1178793717635416e-01   1.1177850172140662e-01   1.1178454454862150e-01   1.1177903431536912e-01   1.1177992536842735e-01   1.1178653915205454e-01   1.1178276709846706e-01   1.1178794121035814e-01   1.1178734283056280e-01   1.1178285470768770e-01   1.1178890380586655e-01   1.1178351948114172e-01   1.1178586070991434e-01   1.1178332714592695e-01   1.1178874554814680e-01   1.1178572655523492e-01   1.1178558897425424e-01   1.1178897728638082e-01   1.1177723936670111e-01   1.1178790483872919e-01   1.1178334943869130e-01   1.1177684728518728e-01   1.1178452010128861e-01   1.1177499524246295e-01   1.1177885627855351e-01   1.1178968292326710e-01   1.1177183999448118e-01   1.1177478039112118e-01   1.1177233110428052e-01   1.1178762838148651e-01   1.1177983108662293e-01   1.1177770935074913e-01   1.1178071180417536e-01   1.1178918366785691e-01   1.1178803279346877e-01   1.1178986397066687e-01   1.1179023414452105e-01   1.1178872003721030e-01   1.1179212279556867e-01   1.1178976863933113e-01   1.1179071067690179e-01   1.1179045171009194e-01   1.1178681279119568e-01   1.1178385350528544e-01   1.1178657342869132e-01   1.1179232261785206e-01   1.1179195257689808e-01   1.1178932533524127e-01   1.1179046951399470e-01   1.1179189516578214e-01   1.1178041802509242e-01   1.1179334748803947e-01   1.1178274052559677e-01   1.1177836764077914e-01   1.1178687375954210e-01   1.1178109717613327e-01   1.1177961701911750e-01   1.1178624938409985e-01   1.1178137914110123e-01   1.1178632567364759e-01   1.1178627633453558e-01   1.1178640677033518e-01   1.1178086316689886e-01   1.1178643365066211e-01   1.1178574606318041e-01   1.1178197361737893e-01   1.1178534060093819e-01   1.1178225192727140e-01   1.1178165302332739e-01   1.1178455461347750e-01   1.1178212704945283e-01   1.1178465014766710e-01   1.1178550471617600e-01   1.1178212988479240e-01   1.1178326118000288e-01   1.1178168131308576e-01   1.1178209627120808e-01   1.11781739