<?xml version="1.0"?>
<VTKFile type="UnstructuredGrid"  version="0.1"  >
<UnstructuredGrid>
<Piece  NumberOfPoints="4153" NumberOfCells="8064">
<Points>
<DataArray  type="Float64"  NumberOfComponents="3"  format="ascii">-0.4024463474789959 -0.4860560628867392 0  -0.0253207394150775 -0.5309207538296916 0  -0.07278929914081927 -0.5276492908451168 0  -0.1201057274593526 -0.5235459682508766 0  -0.1673028834980037 -0.5189642943336581 0  -0.2145197460636528 -0.5141063743843289 0  -0.261707732781702 -0.5080495637706728 0  -0.3087787706911932 -0.501234374182602 0  -0.355716218903075 -0.4938689867058357 0  0.02229109564320119 -0.5330492598538535 0  -0.4490784938702139 -0.4786263192414337 0  -0.4956034483433081 -0.4711320199277117 0  -0.5420085552614414 -0.4637214968670392 0  -0.5882730573243884 -0.4566814247683603 0  -0.6344182590151337 -0.4499633503282174 0  -0.6803871251120445 -0.4437079167514245 0  -0.7261627732920519 -0.4380488699841359 0  0.7502091094652482 -0.4505334884396514 0  0.07001531125972596 -0.5338283374648033 0  0.1178042246979836 -0.5330964772740333 0  0.1655929972502257 -0.5307931860007763 0  0.2133055012613935 -0.5269917055507195 0  0.2608931957296698 -0.521994417367026 0  0.3083344709181881 -0.5159952786517253 0  0.3556082954692912 -0.5092025009427724 0  0.4026980760443378 -0.5019149768277097 0  0.4496126029878055 -0.4943203908645171 0  0.4963568375371551 -0.486620959949393 0  0.5429322752112193 -0.478964161629223 0  0.5893397192269222 -0.4715718470351736 0  0.6355706172697001 -0.4644899690376185 0  0.6816127913705325 -0.4579855738018083 0  0.7274618851047667 -0.4522098783411606 0  0.7045468084501921 -0.4550752585041621 0  -0.7032764370264206 -0.4409339209054354 0  -0.61136560227045 -0.4532821902811663 0  -0.5188211513109275 -0.4674184843780554 0  -0.4257775630137648 -0.48239201886281 0  -0.3322642735639973 -0.4976130560236047 0  -0.2381252005976401 -0.5111794988160624 0  -0.1437150568456123 -0.5212924783015742 0  -0.04907448999528945 -0.5294101992349519 0  0.6586156598928655 -0.4611541495990518 0  0.1417030118422954 -0.5321407534405845 0  0.2371161040554955 -0.5246313802722895 0  0.3319930405412628 -0.5126888399858677 0  0.4261768044417415 -0.4981388403476809 0  0.5196654876851045 -0.4827817648073566 0  0.6124777360217466 -0.4679655173170516 0  0.04614153703136989 -0.5336189335274111 0  -0.7488138708379862 -0.4365025514294276 0  0.5661519244488591 -0.4752342218200137 0  0.4730057909298872 -0.49047440881135 0  0.3791729412782107 -0.5056016832145633 0  0.2846336052600999 -0.519107414660153 0  0.1894644228875169 -0.5290604679103379 0  0.09390549193905415 -0.5336577943739568 0  -0.001530914883008871 -0.5321435664065953 0  -0.09646551343655325 -0.5256804040618909 0  -0.1908895432952969 -0.5166583072668567 0  -0.2852592281305678 -0.5047208148676998 0  -0.3791267753305789 -0.4898954850132853 0  -0.4723551576994602 -0.4748782035307553 0  -0.5651512462682468 -0.4601310513147825 0  -0.6574259913137062 -0.4467687973645529 0  0.9319189035362496 -0.2586285802638616 0  0.8202698701145451 -0.4331240016884269 0  0.8798159081265544 -0.3913249043691217 0  0.9189461451962263 -0.330198378749016 0  0.7853338131205805 -0.4418980875979783 0  0.8504139075924028 -0.4127340628095042 0  0.8988281508806806 -0.3603575892447239 0  0.9250949465556453 -0.2942492255547217 0  0.7678488899248364 -0.4466163477431109 0  0.8027483573933224 -0.4373207418253095 0  0.835353233419093 -0.4230355287609015 0  0.8647932292175724 -0.4015290865882221 0  0.8896561539179264 -0.376007991872195 0  0.9087016168456087 -0.3452318543386987 0  0.9218589803261485 -0.3121526247719777 0  0.928314758636737 -0.2764048475469927 0  0.9317473230822559 -0.23538012261672 0  0.9388449467871262 0.2766612173899831 0  0.9380096809878996 0.2302890057431139 0  0.9378905315636719 0.1839174866566653 0  0.9381438555745062 0.1374596693773965 0  0.9385905125466205 0.09084280021998595 0  0.938507541913622 0.04408669790202979 0  0.9378924187028371 -0.002711221507996561 0  0.9367424630623907 -0.04948853669476543 0  0.9350502919407032 -0.0961440823644779 0  0.9335101436088868 -0.1426442815025873 0  0.9322968233332056 -0.1890384947976266 0  0.9396805770270483 0.2999724723487443 0  0.93830572560987 0.2534675887993624 0  0.9379843537852437 0.160703143605939 0  0.9386170316879358 0.06747414100371665 0  0.9373859162651021 -0.0261068253665481 0  0.9342529160966165 -0.1194096009329446 0  0.9319097380849771 -0.2122109771313211 0  0.9378930540593848 0.2071096812400733 0  0.9383908167243523 0.1141804697861373 0  0.938264719370707 0.02068912387443114 0  0.9359236808090113 -0.07284379060483465 0  0.9328513164773858 -0.1658521267072529 0  0.7639068922396508 0.4963539313936506 0  0.9286010760009291 0.3719869830691581 0  0.8910817447210024 0.4339941130768776 0  0.8329215265066059 0.4772608535360671 0  0.9338336075987542 0.3357696489782428 0  0.9093183005760709 0.4025416534965701 0  0.8624837995159436 0.4561999436706944 0  0.7985573063539561 0.4870084051759964 0  0.9365465435200406 0.3178218127714583 0  0.9310670584553106 0.3537968064978158 0  0.91877020941261 0.3872026149337212 0  0.9005722272167845 0.4184461772580815 0  0.8764498684045765 0.4445429106023507 0  0.8477202817457463 0.4668360606044917 0  0.8156980971387515 0.4819593863522451 0  0.7813180168027134 0.4921615913366104 0  -0.02125187734945076 0.6301231167689869 0  0.6961959383284807 0.5072102466125359 0  0.6505806451212856 0.5163559760457967 0  0.604674701388489 0.5263156493223285 0  0.5584979660288965 0.5369515012437264 0  0.5120053878689682 0.5481595974285935 0  0.4651879591603947 0.5596474885093177 0  0.4180281747578477 0.5712120427521892 0  0.370507183595894 0.5826833924729276 0  0.32258439400652 0.5936840747772772 0  0.2742830859696826 0.6038301961993708 0  0.2256225243434224 0.6128190375879923 0  0.1766219961685147 0.6204160433367649 0  0.127337148410238 0.6260289391384194 0  0.0778772224987538 0.6295142158191624 0  0.02833484609224465 0.6308210980155913 0  0.7415243290967535 0.4990128997015343 0  -0.07076847581343615 0.6267586273874204 0  -0.1200520273879609 0.6211621052695306 0  -0.1690096462555565 0.6136744087249441 0  -0.2175129071065785 0.6045145301656947 0  -0.2655839293890602 0.5951042318610251 0  -0.3133313283608422 0.5854057809766612 0  -0.3607928595013216 0.5755259185803006 0  -0.4079713269123097 0.5655983619195846 0  -0.4549222146399438 0.5559244680601141 0  -0.5016648997432336 0.5464449372386587 0  -0.5482037009727903 0.5372374708537178 0  -0.5945345850395769 0.5283957935003505 0  -0.6406400950504628 0.5200422843116871 0  -0.6865056467265849 0.5123766441583505 0  -0.7321237394473412 0.5055091934484125 0  -0.7546889799214185 0.5034364252587963 0  -0.7093261423854773 0.5089497286936145 0  -0.6176160876152876 0.5241424269254571 0  -0.5249599648207404 0.5418019492799664 0  -0.431474108057853 0.5607484584189805 0  -0.3370960866826234 0.5804848165293436 0  -0.2415934533182757 0.5998662875711549 0  -0.1445773825121695 0.6176253564142632 0  -0.04603143568005728 0.6287323569268692 0  0.05311188671740992 0.6304455333285519 0  0.1520077667140119 0.6234771681431917 0  0.2499964707410375 0.6084932133307588 0  0.3465935836471406 0.5882768877880414 0  0.4416523700691986 0.5654374995458686 0  0.5352907471259836 0.5425145402880526 0  0.6276637556658827 0.5212534422685493 0  0.7188724421845833 0.5031251085588528 0  -0.6636034508097524 0.5161138580332595 0  -0.5713952848195046 0.5327678852152451 0  -0.4783190879162236 0.551156038691433 0  -0.3844196143723943 0.5705287120739819 0  -0.2894952316672431 0.5902846216230653 0  -0.1933449600753188 0.6092010999954629 0  -0.09544579233135693 0.6242167797477283 0  0.003560409059397782 0.630770433796334 0  0.10262307378079 0.6280443442199366 0  0.2011700253673341 0.6168272319925526 0  0.2984800703815925 0.5988828155827233 0  0.3943167902636073 0.5769636315226256 0  0.4886383031616344 0.5538811128214015 0  0.5816209519951711 0.5315327604167527 0  0.67342427645947 0.5116716046767561 0  -0.9335656849083627 0.3100331169786126 0  -0.8243041243132808 0.485516252350923 0  -0.8832622827495448 0.4431830493395642 0  -0.9216239666531526 0.3817361031636439 0  -0.789623229300331 0.4946635850163892 0  -0.8542405744981949 0.4649466282684833 0  -0.9018642846187204 0.4120063233681689 0  -0.9272553032272207 0.3456828409970697 0  -0.7722417512508553 0.4995293219980879 0  -0.8069163237764199 0.4899164616273805 0  -0.8392880181414319 0.4753517247677357 0  -0.8684091002718044 0.4535153814033444 0  -0.8929446019435318 0.4277839579434357 0  -0.9115477063405905 0.3968182111753796 0  -0.9242821165534345 0.3636309433006469 0  -0.9301829064257778 0.3278108747549375 0  -0.9329902890923468 0.2867839964673838 0  -0.9303753589169976 -0.2235282829541766 0  -0.9306031616344866 -0.1773118670457787 0  -0.9314670683064731 -0.1310723156869963 0  -0.9326518964926288 -0.08474760601213532 0  -0.9340133326883123 -0.03827319173911945 0  -0.9347833164896313 0.008327171513371749 0  -0.9349812539054765 0.054950858518909 0  -0.9346168246791837 0.1015391922777064 0  -0.9336952489832842 0.1479952211822691 0  -0.9329785134412164 0.1943029137944069 0  -0.9326319339025463 0.2405389617122071 0  -0.930686200470354 -0.246730641330155 0  -0.930380468651934 -0.2004176047908479 0  -0.9320316250090379 -0.1079234827346078 0  -0.9344720778367044 -0.01498011631323475 0  -0.9348708504371164 0.07825341819241656 0  -0.9333034433290359 0.1711617826575758 0  -0.9326889329874645 0.2636541820355052 0  -0.9309853565676783 -0.1541996399408395 0  -0.9333606011572149 -0.06153941112635379 0  -0.9349509128424727 0.03163982090580084 0  -0.9341801732860885 0.1247959263632674 0  -0.9327495657282313 0.2174256774505862 0  -0.9178939152208956 -0.3181673364574172 0  -0.8786439377955702 -0.3789888133996797 0  -0.8189552868415032 -0.420271034066867 0  -0.924020553497383 -0.2822947632465142 0  -0.89777930156209 -0.3482314701211306 0  -0.8492307874231753 -0.4002608748517145 0  -0.78398374472675 -0.428675198907905 0  -0.9271753304639339 -0.2644792379995018 0  -0.9208104881010404 -
[...]
<CellData  Scalars="f_2089"> 
<DataArray  type="Float64"  Name="f_2089"  format="ascii">1.1176774843808353e-01   1.1176779516982956e-01   1.1176590084753495e-01   1.1176715228431872e-01   1.1176703166783440e-01   1.1176594665690121e-01   1.1176778031658351e-01   1.1176845109489755e-01   1.1176462221498694e-01   1.1176674756819922e-01   1.1176370825968694e-01   1.1176464349596646e-01   1.1176799692362568e-01   1.1176916990012449e-01   1.1176699959856623e-01   1.1176844459824148e-01   1.1176663285929361e-01   1.1176371818775759e-01   1.1176719216593586e-01   1.1176736870942328e-01   1.1176496502290456e-01   1.1176818321776394e-01   1.1176651270264192e-01   1.1176592059582981e-01   1.1176852212208711e-01   1.1176710791430632e-01   1.1176737544087915e-01   1.1176907894773926e-01   1.1176864442720279e-01   1.1176780555337415e-01   1.1176910912781768e-01   1.1176967176224054e-01   1.1176316851020134e-01   1.1176710896162988e-01   1.1176233974732146e-01   1.1176297474642440e-01   1.1176723011576427e-01   1.1176388516703956e-01   1.1176623927846091e-01   1.1176810405413394e-01   1.1176547942221200e-01   1.1177049762415399e-01   1.1175492774425902e-01   1.1175953891220300e-01   1.1176588828294347e-01   1.1176728936421458e-01   1.1176018934691756e-01   1.1176149943088969e-01   1.1176888665997384e-01   1.1176983449715436e-01   1.1176826426113977e-01   1.1176897761794903e-01   1.1176975664038141e-01   1.1176987187870370e-01   1.1176821554330960e-01   1.1177026871372921e-01   1.1176836813430625e-01   1.1176769631258614e-01   1.1176263918868329e-01   1.1176374969420597e-01   1.1176996468324839e-01   1.1176814792154789e-01   1.1176518094677619e-01   1.1176442000068541e-01   1.1179039116959169e-01   1.1178026481933002e-01   1.1177679148186370e-01   1.1179518440603706e-01   1.1177300481791584e-01   1.1177955191057302e-01   1.1177077188198765e-01   1.1177835277882375e-01   1.1177615580380502e-01   1.1177063259471978e-01   1.1177212036990956e-01   1.1177990360740589e-01   1.1179235275821224e-01   1.1177417859411057e-01   1.1177468033716831e-01   1.1179113130695435e-01   1.1176757986843637e-01   1.1177712747607572e-01   1.1176556280569562e-01   1.1176882669517593e-01   1.1177078686438505e-01   1.1176282963445394e-01   1.1177078447794959e-01   1.1177532484831601e-01   1.1176111893356457e-01   1.1177182643055560e-01   1.1174800330682071e-01   1.1175811882955396e-01   1.1176533964720078e-01   1.1177103448364907e-01   1.1175882615714341e-01   1.1176928336722432e-01   1.1176897895732729e-01   1.1176446366367325e-01   1.1176465363441947e-01   1.1177384669497883e-01   1.1176393025610830e-01   1.1177620806941686e-01   1.1175699960335324e-01   1.1176449682024420e-01   1.1176481363340049e-01   1.1175225480070668e-01   1.1174877953772475e-01   1.1175197330518312e-01   1.1177270180896931e-01   1.1175191975607514e-01   1.1174902268236170e-01   1.1174686588841197e-01   1.1178948342699320e-01   1.1176230086417296e-01   1.1176470906932008e-01   1.1178631270999308e-01   1.1175180445621993e-01   1.1176416108152173e-01   1.1173588547106697e-01   1.1175626222191663e-01   1.1177075425283846e-01   1.1174226343323641e-01   1.1174357493554384e-01   1.1174221159907434e-01   1.1178813397697770e-01   1.1172935907893916e-01   1.1172844282360879e-01   1.1177433213234025e-01   1.1170834877902054e-01   1.1173707460069003e-01   1.1172402748440120e-01   1.1175204055232962e-01   1.1174268584905360e-01   1.1176269493677937e-01   1.1175663774082539e-01   1.1175240137068838e-01   1.1172677856641255e-01   1.1174289366101404e-01   1.1172988916893235e-01   1.1176299069601620e-01   1.1174703444728094e-01   1.1175374819893555e-01   1.1175790649040927e-01   1.1175189434534546e-01   1.1174553978474319e-01   1.1176553995004608e-01   1.1175895890425336e-01   1.1175737778456615e-01   1.1176020948808028e-01   1.1175768838279644e-01   1.1176117463921918e-01   1.1175804505018720e-01   1.1175916295819069e-01   1.1176325821138182e-01   1.1176095513765374e-01   1.1176053979616137e-01   1.1175714516424674e-01   1.1176126411425823e-01   1.1176006210166864e-01   1.1175697881066017e-01   1.1173338939684886e-01   1.1174775757504284e-01   1.1173708449313018e-01   1.1176728672727947e-01   1.1175111431604211e-01   1.1176955115130166e-01   1.1176168857732791e-01   1.1176061299540566e-01   1.1173978796125725e-01   1.1175133636495389e-01   1.1174260319651555e-01   1.1176912735274309e-01   1.1176226738235108e-01   1.1175978609586440e-01   1.1176187455941655e-01   1.1176274731702712e-01   1.1175436613378234e-01   1.1175938298721423e-01   1.1176272880637710e-01   1.1175697262025028e-01   1.1176220384746965e-01   1.1176472779911245e-01   1.1176389787716663e-01   1.1176189173189605e-01   1.1176278988498893e-01   1.1176192481938772e-01   1.1176263369044379e-01   1.1176302891404086e-01   1.1175906761167489e-01   1.1176273578296507e-01   1.1176493283590633e-01   1.1176316912031671e-01   1.1170068301995321e-01   1.1175234496314379e-01   1.1174278736544067e-01   1.1171574908990629e-01   1.1176591522708518e-01   1.1175457125628543e-01   1.1177166308223796e-01   1.1175953583964980e-01   1.1175085210440591e-01   1.1176922612852308e-01   1.1176343109205283e-01   1.1175836865390276e-01   1.1173221314203415e-01   1.1176656802436154e-01   1.1176416538781564e-01   1.1174459742303904e-01   1.1177388116959204e-01   1.1176710410081192e-01   1.1177786815576704e-01   1.1177386950915683e-01   1.1177397921380201e-01   1.1177895164618924e-01   1.1177278850596696e-01   1.1176709364176336e-01   1.1178282513127022e-01   1.1177967280853200e-01   1.1178506673768855e-01   1.1178312636985863e-01   1.1177681569354381e-01   1.1177095364060133e-01   1.1178077573331974e-01   1.1177170068351375e-01   1.1177167978842800e-01   1.1177804522450820e-01   1.1177808351605184e-01   1.1177314862391842e-01   1.1178196630618116e-01   1.1177941321911054e-01   1.1178384780018212e-01   1.1178161432791844e-01   1.1178436270333852e-01   1.1178443142965301e-01   1.1178520820058264e-01   1.1178007814015713e-01   1.1178003324004769e-01   1.1178465171171548e-01   1.1178064803201877e-01   1.1177970740339656e-01   1.1175392811046374e-01   1.1177615281058116e-01   1.1177608362965755e-01   1.1176092049152397e-01   1.1178452251334299e-01   1.1178135706242635e-01   1.1178583897270615e-01   1.1177999344896328e-01   1.1177875897458157e-01   1.1178509377989980e-01   1.1177923357046053e-01   1.1177792554635690e-01   1.1176828900242329e-01   1.1178229233681508e-01   1.1177985581097406e-01   1.1176761914313942e-01   1.1179467841784188e-01   1.1179739995164557e-01   1.1179832256703845e-01   1.1179478630614827e-01   1.1179972372540542e-01   1.1179986282813520e-01   1.1179910235070571e-01   1.1180155934162232e-01   1.1179587382672078e-01   1.1179733152902430e-01   1.1179445575756476e-01   1.1179816054085970e-01   1.1179923992271125e-01   1.1179703520887878e-01   1.1179931710030500e-01   1.1179702954184204e-01   1.1179540693654394e-01   1.1179719575769599e-01   1.1179604660201958e-01   1.1179771022286554e-01   1.1179671823354100e-01   1.1179715307948568e-01   1.1179773324941987e-01   1.1179765008854238e-01   1.1179551065506375e-01   1.1179680967234606e-01   1.1179543980521520e-01   1.1179688358382996e-01   1.1179882069714185e-01   1.1179933598642931e-01   1.1179854713609678e-01   1.1180077401377243e-01   1.1179250060576763e-01   1.1179316402681909e-01   1.1179050561395522e-01   1.1179588793441843e-01   1.1179076731520597e-01   1.1179426549543503e-01   1.1179188758511813e-01   1.1179397115449810e-01   1.1178756537692876e-01   1.1178763829093191e-01   1.1178712090736879e-01   1.1179326710766870e-01   1.1179527927948057e-01   1.1179372571427228e-01   1.1179442148740906e-01   1.1179624674050866e-01   1.1179672324327587e-01   1.1179590440732654e-01   1.1179873854725747e-01   1.1179929778500185e-01   1.1179780264822907e-01   1.1179806048190967e-01   1.1179789352439787e-01   1.1180178408407872e-01   1.1179761072921519e-01   1.1179679814735642e-01   1.1179737688756727e-01   1.1179787580648225e-01   1.1179399029455378e-01   1.1179585551627630e-01   1.1179947124668393e-01   1.1178829103551688e-01   1.1177005989169561e-01   1.1176810163897755e-01   1.1176898101096097e-01   1.1176786588343741e-01   1.1176875371453408e-01   1.1176848835912606e-01   1.1176786751359959e-01   1.1176810180069492e-01   1.1176896698186611e-01   1.1176914719538261e-01   1.1176971574706740e-01   1.1176867897555026e-01   1.1176855900621036e-01   1.1176681684407219e-01   1.1176838089565116e-01   1.1176796488080336e-01   1.1177005861570072e-01   1.1176952325695841e-01   1.1176936835973079e-01   1.1176842504640563e-01   1.1176932982231952e-01   1.1176750240354082e-01   1.1176807532258280e-01   1.1176881578764571e-01   1.1176921127629282e-01   1.1177058960641172e-01   1.1176574061148391e-01   1.1176683933288051e-01   1.1176697964486294e-01   1.1176799078434423e-01   1.1176549893174827e-01   1.1176547325309667e-01   1.1177091635672376e-01   1.1177134936147186e-01   1.1177219896550106e-01   1.1177044632542028e-01   1.1177361093517812e-01   1.1177352235990089e-01   1.1177115234804617e-01   1.1177137548844315e-01   1.1177546729750217e-01   1.1177359699875232e-01   1.1177153213544792e-01   1.1176872294214041e-01   1.1177213243951455e-01   1.1176857894432171e-01   1.1176669091959092e-01   1.1176437037414984e-01   1.1176724689466959e-01   1.1176341170874500e-01   1.1176680859439264e-01   1.1176566851534796e-01   1.1176427550632712e-01   1.1176747501197601e-01   1.1175929695195465e-01   1.1176176257285737e-01   1.1176902977826624e-01   1.1176262224499903e-01   1.1176194534919136e-01   1.1175937205323164e-01   1.1176549457700823e-01   1.1175489926077189e-01   1.1175651069639193e-01   1.1175479541109892e-01   1.1176319703739519e-01   1.1176166183532653e-01   1.1177121326766357e-01   1.1176442326689788e-01   1.1176628762681902e-01   1.1177090229862641e-01   1.1176664924020804e-01   1.1176243786123573e-01   1.1177202862531722e-01   1.1176869442252886e-01   1.1177378700175625e-01   1.1177150064908636e-01   1.1176476025052978e-01   1.1176345348344997e-01   1.1177066370895079e-01   1.1176511856946872e-01   1.1177095409412589e-01   1.1177293677822435e-01   1.1177048616635094e-01   1.1176861383372200e-01   1.1177202390981239e-01   1.1176856204226236e-01   1.1177034772635341e-01   1.1177096261004381e-01   1.1177008667654641e-01   1.1177117792351256e-01   1.1176946786743666e-01   1.1176857349033144e-01   1.1176701761729477e-01   1.1177037488747735e-01   1.1176740485643406e-01   1.1176439499264244e-01   1.1177502957872300e-01   1.1177277061797862e-01   1.1177595659924047e-01   1.1177386172907720e-01   1.1177398305841342e-01   1.1177462699435245e-01   1.1177267382107144e-01   1.1177201494140004e-01   1.1177720227539226e-01   1.1177607319522924e-01   1.1177556070842305e-01   1.1177497948924238e-01   1.1177275428763037e-01   1.1177103852221421e-01   1.1177251117992835e-01   1.1177088072683582e-01   1.1176537912776173e-01   1.1176520962872984e-01   1.1177001723139512e-01   1.1176573723319461e-01   1.1176777192051328e-01   1.1176991015096044e-01   1.1176809226492819e-01   1.1176643245539498e-01   1.1176982273941638e-01   1.1176834445084222e-01   1.1176959916694676e-01   1.1176858427286819e-01   1.1176543610879121e-01   1.1176587055377553e-01   1.1176885617707566e-01   1.1176790175055272e-01   1.1178132664846951e-01   1.1178046725839196e-01   1.1177452315855568e-01   1.1177360499828790e-01   1.1177747425531658e-01   1.1176812376898948e-01   1.1177481338829366e-01   1.1177882264024792e-01   1.1177232172606812e-01   1.1177543820276860e-01   1.1177047922940141e-01   1.1176591607667490e-01   1.1177614964168543e-01   1.1177841031086473e-01   1.1176953876579852e-01   1.1177614752108425e-01   1.1177291703985838e-01   1.1176333683762059e-01   1.1177001016807900e-01   1.1177248226744810e-01   1.1176623936084103e-01   1.1177257611769267e-01   1.1176825375227584e-01   1.1176820023447943e-01   1.1177031967541226e-01   1.1176632354263505e-01   1.1177004484852958e-01   1.1177173222682314e-01   1.1177460496044003e-01   1.1176908737356102e-01   1.1177358950921218e-01   1.1177759829912759e-01   1.1176927416472116e-01   1.1177114826219066e-01   1.1176821285845408e-01   1.1176180494922858e-01   1.1176812112848816e-01   1.1176026185563968e-01   1.1176614977833324e-01   1.1176806477380602e-01   1.1176967260601092e-01   1.1177114269394288e-01   1.1176496223564096e-01   1.1176179662639001e-01   1.1176489988855332e-01   1.1176897437912200e-01   1.1176522241550700e-01   1.1176637509655858e-01   1.1177648393578130e-01   1.1177674392935510e-01   1.1176894249549588e-01   1.1177645344825965e-01   1.1177257681717621e-01   1.1176821139240384e-01   1.1177144482182892e-01   1.1177527701776435e-01   1.1176836470859031e-01   1.1177126325356747e-01   1.1176775657741189e-01   1.1176916290308038e-01   1.1177662824543208e-01   1.1177546828160914e-01   1.1176880371647743e-01   1.1177414326988545e-01   1.1166848622958718e-01   1.1170032596955436e-01   1.1170099349192637e-01   1.1173080428009632e-01   1.1172385779646410e-01   1.1176342393553726e-01   1.1174377137491395e-01   1.1172503669941704e-01   1.1170771095012016e-01   1.1173025008796857e-01   1.1171715214786673e-01   1.1175999491220094e-01   1.1172902599819089e-01   1.1173333389058147e-01   1.1176043493735524e-01   1.1174257587062564e-01   1.1173807093411875e-01   1.1176356135740559e-01   1.1175321589929942e-01   1.1174819723695445e-01   1.1176036709966984e-01   1.1175104191717597e-01   1.1176469876707232e-01   1.1175769593387548e-01   1.1175584682351802e-01   1.1176840881418557e-01   1.1175772948917903e-01   1.1175745643703219e-01   1.1174778260729977e-01   1.1176822462192415e-01   1.1175479384705519e-01   1.1174301694906162e-01   1.1172402101399673e-01   1.1174333283996438e-01   1.1172934697303938e-01   1.1176478667389526e-01   1.1174878474596099e-01   1.1176853602844350e-01   1.1175748731010637e-01   1.1175752424303539e-01   1.1173540527655726e-01   1.1174752575312910e-01   1.1173267288162940e-01   1.1175929565301811e-01   1.1176378738773644e-01   1.1175579294639496e-01   1.1175561628664137e-01   1.1176019363187739e-01   1.1175039593162006e-01   1.1175113415188452e-01   1.1177203050522762e-01   1.1175734932700726e-01   1.1176087307913997e-01   1.1177740669754720e-01   1.1176410126384624e-01   1.1175885015536140e-01   1.1177039302807644e-01   1.1175960404984808e-01   1.1176364629849317e-01   1.1176704894084787e-01   1.1176399062009132e-01   1.1176101638763444e-01   1.1177328043173648e-01   1.1177143740334837e-01   1.1178292861462101e-01   1.1178742055776621e-01   1.1177653230388850e-01   1.1177802595668292e-01   1.1178300250496048e-01   1.1176973506547548e-01   1.1177811727020619e-01   1.1178342399532833e-01   1.1177049123622554e-01   1.1177828628497573e-01   1.1176316836445871e-01   1.1176235352298551e-01   1.1177199711990479e-01   1.1177866301093044e-01   1.1176149074030002e-01   1.1176394835782680e-01   1.1177231360471426e-01   1.1175374168980237e-01   1.1176511357002036e-01   1.1177242554805167e-01   1.1174192434615353e-01   1.1176534883501456e-01   1.1173796203318681e-01   1.1175223346364845e-01   1.1175634746962225e-01   1.1172573861179026e-01   1.1174410466252049e-01   1.1175665205194063e-01   1.1177221806993595e-01   1.1175018110099028e-01   1.1176488292639930e-01   1.1177257085867767e-01   1.1175538838769411e-01   1.1176478904690579e-01   1.1174825798424924e-01   1.1174545795606117e-01   1.1175684628012751e-01   1.1174029228235335e-01   1.1174559606969681e-01   1.1175606315166277e-01   1.1174169329631785e-01   1.1174521761548900e-01   1.1174424202608729e-01   1.1173886576487334e-01   1.1173441340258948e-01   1.1174404591968781e-01   1.1173256952986496e-01   1.1171946454628645e-01   1.1175298819190646e-01   1.1176497814823262e-01   1.1173385599442347e-01   1.1173665526421910e-01   1.1175599857172230e-01   1.1170816472405037e-01   1.1174526822714791e-01   1.1175471064598708e-01   1.1171625039860654e-01   1.1174608457497230e-01   1.1170007233809409e-01   1.1167759039635712e-01   1.1171410125822033e-01   1.1174123435209700e-01   1.1165927205569846e-01   1.1166386346572338e-01   1.1178879223035905e-01   1.1178795819597816e-01   1.1179406991561565e-01   1.1178848072316359e-01   1.1178703560237997e-01   1.1178952685101280e-01   1.1178865851178695e-01   1.1178740357292294e-01   1.1179300330635637e-01   1.1178796132430749e-01   1.1179299915367427e-01   1.1178973918722672e-01   1.1179209215390915e-01   1.1179085576407853e-01   1.1179331614580905e-01   1.1179413183310086e-01   1.1178825839053624e-01   1.1178975681288948e-01   1.1178960283174207e-01   1.1178908211337343e-01   1.1179334198878230e-01   1.1179212882802730e-01   1.1179515787535277e-01   1.1179328108120411e-01   1.1179229957146465e-01   1.1179454810667913e-01   1.1179501960659968e-01   1.1179410424283247e-01   1.1179166341856163e-01   1.1179510337534683e-01   1.1179394088223098e-01   1.1179319589828103e-01   1.1179242583021802e-01   1.1178858626650721e-01   1.1179196049189619e-01   1.1178971359525669e-01   1.1178874894720139e-01   1.1178879841778715e-01   1.1179105967149816e-01   1.1178972384343168e-01   1.1179011075292915e-01   1.1178954472016316e-01   1.1179276462401375e-01   1.1179159665764456e-01   1.1179250698950992e-01   1.1179336094326633e-01   1.1179494269177059e-01   1.1179662469601344e-01   1.1179640610558386e-01   1.1179552814103134e-01   1.1179722508138625e-01   1.1179847392299228e-01   1.1179587724565276e-01   1.1179876492611932e-01   1.1179773299874109e-01   1.1179722994508350e-01   1.1179669534061205e-01   1.1179659262032964e-01   1.1179838855158354e-01   1.1179978401286909e-01   1.1180030290490511e-01   1.1179932552346498e-01   1.1180189995067825e-01   1.1180724131173753e-01   1.1177395999795964e-01   1.1177167934788960e-01   1.1177335695763553e-01   1.1176974476946076e-01   1.1176963365567417e-01   1.1176778295116849e-01   1.1176792986360458e-01   1.1176869589921642e-01   1.1177356423360296e-01   1.1176925187527054e-01   1.1177362541658084e-01   1.1176838533406938e-01   1.1177007081630341e-01   1.1176912486315410e-01   1.1176892098693876e-01   1.1177002218462945e-01   1.1176867450919398e-01   1.1176871046214100e-01   1.1176727504682270e-01   1.1176772247482293e-01   1.1177013939765185e-01   1.1176856016018240e-01   1.1177015125362177e-01   1.1177001978472678e-01   1.1176938258372301e-01   1.1177334604087498e-01   1.1176761394599370e-01   1.1177023537288672e-01   1.1176851834913305e-01   1.1176926685978994e-01   1.1176899098751938e-01   1.1176933453279385e-01   1.1177398682166984e-01   1.1176795694940994e-01   1.1177373324051534e-01   1.1176853864444528e-01   1.1176830522617441e-01   1.1177143780566923e-01   1.1176439611619228e-01   1.1176774989892307e-01   1.1177691032045174e-01   1.1176330857584457e-01   1.1176270077761424e-01   1.1175961993477190e-01   1.1177322841667743e-01   1.1176616387801865e-01   1.1176317341819685e-01   1.1176392282485829e-01   1.1177071170808182e-01   1.1176998732556340e-01   1.1176975023477179e-01   1.1177114283708962e-01   1.1177074806299431e-01   1.1177310197607432e-01   1.1176955587693836e-01   1.1177166409033998e-01   1.1177355957084639e-01   1.1176868072328476e-01   1.1176491480048494e-01   1.1176571576289850e-01   1.1177469375027084e-01   1.1177018812617272e-01   1.1176524749380840e-01   1.1176841732319642e-01   1.1179523683945593e-01   1.1179962785908279e-01   1.1179828097744246e-01   1.1179648223713665e-01   1.1179770207523045e-01   1.1179637755817272e-01   1.1179769136219989e-01   1.1179841500216894e-01   1.1179589525512178e-01   1.1179725044203184e-01   1.1179461280634662e-01   1.1179506340454505e-01   1.1179610525580891e-01   1.1179785210130580e-01   1.1179508070841220e-01   1.1179490463874045e-01   1.1179603695727178e-01   1.1179332668654225e-01   1.1179501022906141e-01   1.1179647573055919e-01   1.1179103299061403e-01   1.1179530366529952e-01   1.1179114612553251e-01   1.1179325998938340e-01   1.1179356011573446e-01   1.1178871491241266e-01   1.1179135516092795e-01   1.1179390547617823e-01   1.1179677352