<?xml version="1.0"?>
<VTKFile type="UnstructuredGrid"  version="0.1"  >
<UnstructuredGrid>
<Piece  NumberOfPoints="4153" NumberOfCells="8064">
<Points>
<DataArray  type="Float64"  NumberOfComponents="3"  format="ascii">-0.3913179581977312 -0.6395051161400832 0  -0.007525290989849878 -0.8091330959084142 0  -0.0619361235888829 -0.8043464892274446 0  -0.1152686888108857 -0.7936130543280309 0  -0.1669589897684838 -0.7775712038655828 0  -0.2168909902591331 -0.7576510226243579 0  -0.2644516448088226 -0.7324396525080006 0  -0.3092993393049083 -0.7037098184207348 0  -0.3514727366017347 -0.6724577269013425 0  0.04718775007934444 -0.8076209451614456 0  -0.4286966352129144 -0.6064121056601317 0  -0.4642191087813452 -0.5732621738600818 0  -0.497955022461838 -0.540363926315607 0  -0.5301686335198647 -0.5082195251489183 0  -0.5612126666010844 -0.4774304265375527 0  -0.5913935037415238 -0.4483847144445697 0  -0.6208451784293406 -0.4218773475705048 0  0.6584096339198426 -0.4073447563171564 0  0.1013677342068624 -0.7998721712149726 0  0.1542103139856457 -0.7862006089426917 0  0.2050257616093815 -0.7672265116447459 0  0.2532772098190878 -0.74366821974749 0  0.2987826717806635 -0.7168238418359705 0  0.3415240210684259 -0.6874997935217173 0  0.3816460796002461 -0.6565422905574182 0  0.4193332133304115 -0.6246084970802048 0  0.4550404944555521 -0.5925332020175502 0  0.4890688552254304 -0.5607182182821591 0  0.5217447172231847 -0.5295471681456903 0  0.5533154361073543 -0.4993516657599498 0  0.5840995103772966 -0.4703962617107701 0  0.6142600810111886 -0.4431060218654244 0  0.6440441612346643 -0.4182918578596326 0  0.6289463263636821 -0.4305834783292429 0  -0.6059273189517603 -0.4349213945478015 0  -0.5457921478001918 -0.4927439562629806 0  -0.4812879358501915 -0.556760251046673 0  -0.4102223298996432 -0.6229512765861015 0  -0.3307412704092056 -0.6882512340004633 0  -0.2409891472977583 -0.7455567375420135 0  -0.141342836024048 -0.7863190503341256 0  -0.03482097299584867 -0.8075179222274768 0  0.5991793284198021 -0.4567196445573177 0  0.1799063626204568 -0.7773153584801071 0  0.2763818901217639 -0.7306197925243207 0  0.3618863225552409 -0.6721737041037246 0  0.4374208289492797 -0.6085766580178159 0  0.5055502498013239 -0.5450516360520962 0  0.5688064948707071 -0.4848167903082415 0  0.07439610582131022 -0.8045128835482623 0  -0.6349904454436015 -0.410114718206266 0  0.5376497839828609 -0.5143255997445747 0  0.4722409015893168 -0.5765784923063043 0  0.4007785749778978 -0.6406305175053737 0  0.3204923522572314 -0.7024269197342914 0  0.2295079222113702 -0.7559574492907523 0  0.128002894775948 -0.7937429052489933 0  0.01984654445921756 -0.8091706032092799 0  -0.0887800195335257 -0.7997155101291152 0  -0.1920219273814034 -0.7680365301236721 0  -0.2871429833926354 -0.7182781828720132 0  -0.3720079214606245 -0.6566088096512732 0  -0.4466975257727017 -0.5898514849766987 0  -0.5142597854214357 -0.5242114173303457 0  -0.5763097211830855 -0.4628364975407747 0  0.7768186342090171 -0.2195870203774274 0  0.7048903348404845 -0.374793186088461 0  0.7453214058560013 -0.3319184324883671 0  0.7706500792247158 -0.2793251745095207 0  0.6821849558488116 -0.3916100093779821 0  0.7262490019932901 -0.3546935980120752 0  0.7560348213779577 -0.3040955044787819 0  0.7725270771744343 -0.2490505897994522 0  0.6702107051061358 -0.3998420788465112 0  0.6935088202614528 -0.3824126027428235 0  0.7157129633049807 -0.3649206335518896 0  0.7354839611597853 -0.3424784997869627 0  0.7533252333967554 -0.3193506594894783 0  0.7624005982082738 -0.2915092208325836 0  0.7704401799469984 -0.2639118890762008 0  0.7740015472244892 -0.2341641898367043 0  0.7761828251408154 -0.2003294102811482 0  0.7778222956505019 0.231044130270959 0  0.7785089130394814 0.1928935994497175 0  0.7805682142369702 0.1543306156426463 0  0.7830284989695624 0.1152582452284649 0  0.7856319429398584 0.07561118160731765 0  0.7867661596962595 0.03549701096936475 0  0.786552709382659 -0.004734792622850708 0  0.7849893459621453 -0.04484322240261827 0  0.7820379082321729 -0.08446969930918706 0  0.7792810484009083 -0.1235496854049465 0  0.7769771925084975 -0.1621298280757115 0  0.7788432394240112 0.2502081689011716 0  0.777944331621905 0.2120090168151339 0  0.7817917258245256 0.1348615395531896 0  0.7863659374740104 0.05558522188737207 0  0.7859433692441381 -0.02482040358185111 0  0.7806551434408999 -0.1040789208777702 0  0.7763502069475351 -0.1812699223855208 0  0.7794629176673415 0.1736731048029392 0  0.7844103294150403 0.09553188620536769 0  0.7868226009099324 0.0153809248868617 0  0.7835661322580423 -0.06475110451076069 0  0.7780486942077711 -0.1429010369067758 0  0.6648449423569025 0.4392016930708605 0  0.7735929451588243 0.3099551811728019 0  0.7492640322926359 0.3630593721893516 0  0.7101008323790065 0.4064214692881851 0  0.7751809677927626 0.2796933724686025 0  0.7599254224407284 0.3352929757855241 0  0.7307974802365242 0.3859202840432003 0  0.6878289656403032 0.4231661890752517 0  0.776471686005582 0.2648413281846422 0  0.7734954181418634 0.294591177375357 0  0.7659538070437718 0.3224118572552201 0  0.7566407424154382 0.3501818600918412 0  0.739702189766004 0.3736648083835392 0  0.7205689264569809 0.3962976526085595 0  0.6989179391862294 0.4140763554476724 0  0.6761811956899495 0.4313956413838846 0  -0.007270861102284155 0.8697460278756566 0  0.6224969155925456 0.476560537816421 0  0.5935848957699558 0.5051923497421857 0  0.5640882132750095 0.535784799370463 0  0.5337101169048579 0.5680296824667178 0  0.5020316135083003 0.6014217900737679 0  0.468732904121076 0.6355957039935538 0  0.433469998776276 0.6701668150268812 0  0.3958454940188092 0.7047355033187229 0  0.3553693590579736 0.738273804116737 0  0.3118327188125896 0.7700750945249221 0  0.2650857333883903 0.7991918973075341 0  0.2151640357433029 0.8247921501946395 0  0.1622878265864298 0.8453568690724645 0  0.1070550325854244 0.8600639531690901 0  0.05025418557565136 0.8681970826841645 0  0.6510158375652485 0.4506272492231826 0  -0.06442965270974736 0.8636461005875089 0  -0.120195083559406 0.8508273886525853 0  -0.1737678615755029 0.8319802150893905 0  -0.2244280526090952 0.8073099073379303 0  -0.2723489485251087 0.7801151366767259 0  -0.3172484120342943 0.7498557217613872 0  -0.3592722300922486 0.7175167809844557 0  -0.3985914977282722 0.6837195562635479 0  -0.4355183247545507 0.6497318438233185 0  -0.4704806512508547 0.6158818950554521 0  -0.5037364181585317 0.5825539669707062 0  -0.5355599106955176 0.5501292341106958 0  -0.5662205484806201 0.5189579348650115 0  -0.5959730885909537 0.4895814642363804 0  -0.6250803755235158 0.4628453930919442 0  -0.6390568277827846 0.4510658308055065 0  -0.6103499115458612 0.4760454785854787 0  -0.5510294071213279 0.5344678139383182 0  -0.4873072848932939 0.5991429160758929 0  -0.4173056050452001 0.6667225330736913 0  -0.3386017581793594 0.7338511057156082 0  -0.248760521246284 0.7941674636161441 0  -0.1472814317010229 0.8419478328301846 0  -0.03595313709454255 0.8675402822589978 0  0.07880625876014188 0.8650197963201484 0  0.1890649254275268 0.8357272805319661 0  0.2888657463776973 0.7850368702900804 0  0.3759648126558378 0.7216507194874529 0  0.4513705101277743 0.6528612982010016 0  0.5180517675971529 0.584615211291646 0  0.5789098696440849 0.5203691959481404 0  0.6365502712902551 0.4633661249547251 0  -0.5811276828581555 0.5042010079518141 0  -0.5198164191020697 0.5662441037746438 0  -0.4532338605669662 0.6327728234897597 0  -0.3793240081915377 0.7008047544808378 0  -0.2951568153713379 0.765270397885128 0  -0.1997335888750916 0.8206546173889063 0  -0.09252904259595286 0.8579867350346805 0  0.02156334020298939 0.8698436053230538 0  0.1349228291979009 0.8534909672431346 0  0.2405474719126339 0.8125839889129369 0  0.3339951281533872 0.7544490284431195 0  0.4150117942178623 0.6875268722216491 0  0.4856051017230663 0.618439160603967 0  0.5490547426814301 0.5517734823081505 0  0.6080216432078948 0.4907704483070293 0  -0.7551654027615534 0.2585455205094211 0  -0.6845619802146963 0.41676586611817 0  -0.7240746622694041 0.3725772248552375 0  -0.7489118288721561 0.3189101344374992 0  -0.6622564180745668 0.4341780886160652 0  -0.7054230570231113 0.3957781248227333 0  -0.7348550216335906 0.3444413903504728 0  -0.7509089689204783 0.2883631170816013 0  -0.6505270959322957 0.4428882968817285 0  -0.6733738264222994 0.4247200172092747 0  -0.69513221399448 0.4064030572713784 0  -0.7144261374377693 0.3833417045207324 0  -0.7315829601242774 0.3595212916459286 0  -0.7410455427746799 0.3314626316797891 0  -0.7489455535395633 0.3034048293178266 0  -0.7524640478454288 0.2733411826515242 0  -0.7545578891960214 0.2391025199073378 0  -0.7530910360545383 -0.2003314367997462 0  -0.7545836466490681 -0.161659516792592 0  -0.7574104736420508 -0.1224711371881125 0  -0.7605295556276264 -0.08268051663300501 0  -0.7636303281991229 -0.04227371195828848 0  -0.7652390238908077 -0.00136086299373605 0  -0.7654133128146093 0.03969702050062669 0  -0.7641567518139026 0.08064280288823743 0  -0.7613891411990035 0.1211250531258253 0  -0.7585397662131352 0.1610116495010633 0  -0.7559216628578266 0.2003150320949137 0  -0.7535808533390258 -0.2197458185825269 0  -0.7536254355341413 -0.1810552758992453 0  -0.7589845359433568 -0.1026546836141098 0  -0.7646147797086099 -0.02185243005649842 0  -0.7649629613246832 0.06020100855582942 0  -0.7599819841421598 0.1411427319945752 0  -0.7550332416514457 0.2197653980704565 0  -0.7559302606992332 -0.1421406407698687 0  -0.7621610184532278 -0.06257572187931447 0  -0.7655007977936108 0.01916610797558055 0  -0.7628679538381044 0.100977726798543 0  -0.7571733918616018 0.1807360954670681 0  -0.7467021978196098 -0.2798684961170365 0  -0.7210861556878317 -0.3329761164219018 0  -0.680942752792704 -0.3765125447301385 0  -0.7490555923023604 -0.2494624934876405 0  -0.7322853050005259 -0.3051553327013802 0  -0.7021564478735953 -0.3559818921260122 0  -0.6583634353901979 -0.3936368590844569 0  -0.7507241745443382 -0.2344805313432518 0  -0
[...]
<CellData  Scalars="f_5598"> 
<DataArray  type="Float64"  Name="f_5598"  format="ascii">1.1177207240427153e-01   1.1177564028714675e-01   1.1176893427645773e-01   1.1177065851329619e-01   1.1177604069392580e-01   1.1176835875440948e-01   1.1177796500400262e-01   1.1177734624060953e-01   1.1176599435856545e-01   1.1177701796205652e-01   1.1176376542371581e-01   1.1176581902713367e-01   1.1177153528846759e-01   1.1177937333085282e-01   1.1177032202844296e-01   1.1177221442458987e-01   1.1177796703913226e-01   1.1176446620171517e-01   1.1177941171243427e-01   1.1177860477387533e-01   1.1176782632714465e-01   1.1178071971402744e-01   1.1177075778902444e-01   1.1176859899147042e-01   1.1178190707362284e-01   1.1177226432755356e-01   1.1178191474143653e-01   1.1178277880272534e-01   1.1178024132584352e-01   1.1177218974296116e-01   1.1178191094296212e-01   1.1178101234934648e-01   1.1176240253813807e-01   1.1177900923626398e-01   1.1176173147031242e-01   1.1176412544385420e-01   1.1177954873806124e-01   1.1176673060929043e-01   1.1177959293411550e-01   1.1178093967856988e-01   1.1176565981995448e-01   1.1178163521661365e-01   1.1175766399459300e-01   1.1176461811872232e-01   1.1176982083629121e-01   1.1178119449384655e-01   1.1176574975854975e-01   1.1176796738270947e-01   1.1177328838906077e-01   1.1178230427259508e-01   1.1177398974703377e-01   1.1177423998717831e-01   1.1178376416026840e-01   1.1177717379266650e-01   1.1178349862999891e-01   1.1178377061960068e-01   1.1177451794389447e-01   1.1178265705645619e-01   1.1177003098939622e-01   1.1177192805683836e-01   1.1177654338100511e-01   1.1178331326317964e-01   1.1177447560540253e-01   1.1177325485984121e-01   1.1179058133790970e-01   1.1178552640711753e-01   1.1178953349733062e-01   1.1178884275336384e-01   1.1178301482582881e-01   1.1178476045206735e-01   1.1177748853112025e-01   1.1178163334971526e-01   1.1178982056607792e-01   1.1178096594442558e-01   1.1178923518782934e-01   1.1178448633559876e-01   1.1178824070375418e-01   1.1177740886059170e-01   1.1178191755946146e-01   1.1178703987548455e-01   1.1177813790714301e-01   1.1178350609196674e-01   1.1177031191918092e-01   1.1177450517362821e-01   1.1177998272079222e-01   1.1176692099688805e-01   1.1177749451929019e-01   1.1178219341010441e-01   1.1176265588477825e-01   1.1178001805524454e-01   1.1174608119964707e-01   1.1175779272157473e-01   1.1177134493161740e-01   1.1177806413397440e-01   1.1176217820042952e-01   1.1177136227900511e-01   1.1178854743642896e-01   1.1177446871911344e-01   1.1178679581549408e-01   1.1178174692445018e-01   1.1177198950032773e-01   1.1178362469681923e-01   1.1175998561160123e-01   1.1176672454222687e-01   1.1178596400285169e-01   1.1176086618276654e-01   1.1178419180043604e-01   1.1176969357670433e-01   1.1178205814137637e-01   1.1175309352270582e-01   1.1176808446133997e-01   1.1176313167208980e-01   1.1178643537792121e-01   1.1176190057150504e-01   1.1177198246236154e-01   1.1178499334806545e-01   1.1175022412725001e-01   1.1177306738528882e-01   1.1172794759678471e-01   1.1175225700243166e-01   1.1177794603720247e-01   1.1173650045341170e-01   1.1175755128465098e-01   1.1175353179232049e-01   1.1179106288040087e-01   1.1171125884724989e-01   1.1173561522368039e-01   1.1179023215630343e-01   1.1165520121212845e-01   1.1171553019743632e-01   1.1169111217180792e-01   1.1174932580747433e-01   1.1172054264853859e-01   1.1176821284403678e-01   1.1175159085421511e-01   1.1174731922617537e-01   1.1170068102026967e-01   1.1172158585724397e-01   1.1171234459524812e-01   1.1176967141507756e-01   1.1174073212434626e-01   1.1174950189409523e-01   1.1176017128116934e-01   1.1174861795125228e-01   1.1172811802171026e-01   1.1177414416663228e-01   1.1175348060352991e-01   1.1175122364080702e-01   1.1176685025903309e-01   1.1175312546447426e-01   1.1176605152574196e-01   1.1176190889401440e-01   1.1175543941761765e-01   1.1177046501406535e-01   1.1175917789515816e-01   1.1175857209942040e-01   1.1175304544950576e-01   1.1176480448997687e-01   1.1175845743838782e-01   1.1175527536125536e-01   1.1172451168803253e-01   1.1173545970589940e-01   1.1173585219020478e-01   1.1177694573903993e-01   1.1174392520630111e-01   1.1177959074478491e-01   1.1176029812080492e-01   1.1175679722356244e-01   1.1174569505096461e-01   1.1175127518829377e-01   1.1175655010910943e-01   1.1178069691560516e-01   1.1177089695652229e-01   1.1175753211764805e-01   1.1177247670122593e-01   1.1177117617787814e-01   1.1175325701702538e-01   1.1175978084741396e-01   1.1176705273177732e-01   1.1175781210200818e-01   1.1176266807863640e-01   1.1176990777507918e-01   1.1176561520780756e-01   1.1176414041918997e-01   1.1176852865732115e-01   1.1176159452520049e-01   1.1176940972733872e-01   1.1176834430606594e-01   1.1176177590646894e-01   1.1176620806023618e-01   1.1176980859181236e-01   1.1176698717486271e-01   1.1167773653670625e-01   1.1175447482473924e-01   1.1173871227962962e-01   1.1170585807786926e-01   1.1176846031309480e-01   1.1175459653483139e-01   1.1177146967473442e-01   1.1176181368643272e-01   1.1175437340577909e-01   1.1176952205080207e-01   1.1176876227130229e-01   1.1176116179197140e-01   1.1173546394313397e-01   1.1176925884461657e-01   1.1176740453918645e-01   1.1175360535284959e-01   1.1177309954150896e-01   1.1176968594315059e-01   1.1177604459891170e-01   1.1177285397388262e-01   1.1177711324365934e-01   1.1177823388850153e-01   1.1177730721591443e-01   1.1177162792411383e-01   1.1178059875519163e-01   1.1178094221656808e-01   1.1178341526199197e-01   1.1178177679831980e-01   1.1177678851941367e-01   1.1177479747018312e-01   1.1178058671982972e-01   1.1177483490758601e-01   1.1177625710524315e-01   1.1177661993879942e-01   1.1178094787172647e-01   1.1177479468686297e-01   1.1177942417949789e-01   1.1177825773711211e-01   1.1178091540766570e-01   1.1177874491114005e-01   1.1178433540158431e-01   1.1178249479251007e-01   1.1178441942222773e-01   1.1178033709138657e-01   1.1178033656756457e-01   1.1178242360192583e-01   1.1178225636140193e-01   1.1178277393327998e-01   1.1176552676201450e-01   1.1177953168207054e-01   1.1178000570500586e-01   1.1177393263200089e-01   1.1178362646943077e-01   1.1178366196849611e-01   1.1178583916522697e-01   1.1178317277222698e-01   1.1178158861138265e-01   1.1178445755583462e-01   1.1178373798546398e-01   1.1178444011995547e-01   1.1178001075204241e-01   1.1178584835019702e-01   1.1178618743709400e-01   1.1178455345355069e-01   1.1163382131495074e-01   1.1187026645011711e-01   1.1178779583838899e-01   1.1185177923218580e-01   1.1177261845015360e-01   1.1178203584817904e-01   1.1179528402839015e-01   1.1175590617020727e-01   1.1178734288085386e-01   1.1178739348250295e-01   1.1178675616996185e-01   1.1178253221451663e-01   1.1173288952623105e-01   1.1176427913162691e-01   1.1179285635902313e-01   1.1175923463582177e-01   1.1178686370353073e-01   1.1178429563300694e-01   1.1178646216174569e-01   1.1178493513624446e-01   1.1178350968964364e-01   1.1178689807825187e-01   1.1178109724454191e-01   1.1178109262276112e-01   1.1178645147012072e-01   1.1178246624621527e-01   1.1178657614292239e-01   1.1178655976107707e-01   1.1178583704972633e-01   1.1178351640534974e-01   1.1178790433113038e-01   1.1180920522626589e-01   1.1178602979401042e-01   1.1178612940015793e-01   1.1178530990087392e-01   1.1178381185907574e-01   1.1178519501329941e-01   1.1178373961467852e-01   1.1178487820823454e-01   1.1178573582024652e-01   1.1178407760000943e-01   1.1178353431343434e-01   1.1178385134966431e-01   1.1178334247904868e-01   1.1178331876731316e-01   1.1178581891471166e-01   1.1178342641579546e-01   1.1178282713913877e-01   1.1176885823272337e-01   1.1175443244232795e-01   1.1178319901624387e-01   1.1176915095273603e-01   1.1178806928432934e-01   1.1178030170677918e-01   1.1178830916715743e-01   1.1181044673404761e-01   1.1178014990024390e-01   1.1178732385846361e-01   1.1178211827258587e-01   1.1177918821597416e-01   1.1175919695254929e-01   1.1176740667683971e-01   1.1178381590097418e-01   1.1173401799614861e-01   1.1178403266794493e-01   1.1178625636536557e-01   1.1178278985418170e-01   1.1178419149507716e-01   1.1178714396827943e-01   1.1178430437284831e-01   1.1178813080729151e-01   1.1178746384430606e-01   1.1178431231689931e-01   1.1178864205398906e-01   1.1178613525747889e-01   1.1178625219145802e-01   1.1178594997653071e-01   1.1178809697207963e-01   1.1178581203403634e-01   1.1178719676828019e-01   1.1179025562551649e-01   1.1178829106164234e-01   1.1179168599648426e-01   1.1178987502101408e-01   1.1179016889584491e-01   1.1179106331554463e-01   1.1178972110214611e-01   1.1178807345253997e-01   1.1179320556750148e-01   1.1179245007233947e-01   1.1179403078827213e-01   1.1179243248246200e-01   1.1178913244165764e-01   1.1178734689410677e-01   1.1179007471350125e-01   1.1178884864814689e-01   1.1178831386127140e-01   1.1179203469187614e-01   1.1179058196238367e-01   1.1179055551001747e-01   1.1179392190898148e-01   1.1179324453532818e-01   1.1179513852710307e-01   1.1179372464097878e-01   1.1179314831773032e-01   1.1179508604664419e-01   1.1179426521039525e-01   1.1179413621616202e-01   1.1179293069987717e-01   1.1179472370323161e-01   1.1179375904701951e-01   1.1179313302604195e-01   1.1178842016204882e-01   1.1178946156779880e-01   1.1178869816801414e-01   1.1178938554882024e-01   1.1179121251253919e-01   1.1179061178785649e-01   1.1179144325843356e-01   1.1179028255697622e-01   1.1179182592494313e-01   1.1179299092091480e-01   1.1179222848444115e-01   1.1179109968791537e-01   1.1179080622587373e-01   1.1178979968774654e-01   1.1178926515318723e-01   1.1178868993033253e-01   1.1177774276510326e-01   1.1177243260908289e-01   1.1178514754168947e-01   1.1177873403951009e-01   1.1177810280131011e-01   1.1178556579857868e-01   1.1177906837911779e-01   1.1177400983039303e-01   1.1178627138133701e-01   1.1178147047018568e-01   1.1178855518560753e-01   1.1178659259893574e-01   1.1177974483377179e-01   1.1177552935283347e-01   1.1178607094014775e-01   1.1178057552038688e-01   1.1178483740313719e-01   1.1178875052430980e-01   1.1178524259239449e-01   1.1178212949868058e-01   1.1178903190638904e-01   1.1178279466132375e-01   1.1178726898822060e-01   1.1178702159678514e-01   1.1178563117349472e-01   1.1178909357622922e-01   1.1178595642773700e-01   1.1178336376998879e-01   1.1178005719933992e-01   1.1178641091121971e-01   1.1178095677305706e-01   1.1177693151620659e-01   1.1179043953349978e-01   1.1178779185838279e-01   1.1179227045046254e-01   1.1179056503421718e-01   1.1179043252922401e-01   1.1179231973853575e-01   1.1179059034724638e-01   1.1178801808566576e-01   1.1179400180130186e-01   1.1179310010258688e-01   1.1179555312610891e-01   1.1179423916315788e-01   1.1179071983477211e-01   1.1178826547151245e-01   1.1179254644147153e-01   1.1179079059990207e-01   1.1178127565848466e-01   1.1177814928408672e-01   1.1178662265483039e-01   1.1178198856781624e-01   1.1178170450190224e-01   1.1178682795513475e-01   1.1178256770163342e-01   1.1177956715522318e-01   1.1178736114007518e-01   1.1178383656152772e-01   1.1178909633731296e-01   1.1178739727486645e-01   1.1178198956516422e-01   1.1177943243953514e-01   1.1178657548862658e-01   1.1178483484052074e-01   1.1177976233614134e-01   1.1178583178118870e-01   1.1178009747834677e-01   1.1178276675113401e-01   1.1178588545404773e-01   1.1178361071056754e-01   1.1178807045119173e-01   1.1178790370137311e-01   1.1177730772794528e-01   1.1178536655956092e-01   1.1177542033065718e-01   1.1178009272034367e-01   1.1178351851618221e-01   1.1178908234017955e-01   1.1178446717689680e-01   1.1178486717040879e-01   1.1178479005883486e-01   1.1177692999525268e-01   1.1178582811230488e-01   1.1178699129104774e-01   1.1177875398832136e-01   1.1178822563348542e-01   1.1178262607109954e-01   1.1178143079702146e-01   1.1178741203568394e-01   1.1178087753632900e-01   1.1178737097321277e-01   1.1178951567523571e-01   1.1178926691755872e-01   1.1178573249543534e-01   1.1179039836516709e-01   1.1179030883794590e-01   1.1177344962432786e-01   1.1178471567319785e-01   1.1177101259615294e-01   1.1177335289033360e-01   1.1178257353821426e-01   1.1177014703137804e-01   1.1178172615717710e-01   1.1178503076636714e-01   1.1177275398859182e-01   1.1178661677566672e-01   1.1176401540443794e-01   1.1176566822209733e-01   1.1177664920251272e-01   1.1178535092972224e-01   1.1177118692942710e-01   1.1177527600541590e-01   1.1178606399444421e-01   1.1179139095427029e-01   1.1178673744692220e-01   1.1178707793125676e-01   1.1179163000893640e-01   1.1178842731440408e-01   1.1179154151444563e-01   1.1179260666855609e-01   1.1178454368075276e-01   1.1178942874676651e-01   1.1177921831412596e-01   1.1178263236903593e-01   1.1178871805353463e-01   1.1179250339912837e-01   1.1178642616459071e-01   1.1178743878573794e-01   1.1165861445380151e-01   1.1166794248647555e-01   1.1169729874369412e-01   1.1174877189003699e-01   1.1170708121702325e-01   1.1178953908426312e-01   1.1174037845253794e-01   1.1171839362865822e-01   1.1170622279640886e-01   1.1171624560338304e-01   1.1171696239413562e-01   1.1178350344071647e-01   1.1174181406732035e-01   1.1173377659448845e-01   1.1177608216185124e-01   1.1175705119029131e-01   1.1172788732352194e-01   1.1178496340017835e-01   1.1175301509607588e-01   1.1174643292846131e-01   1.1177668580571419e-01   1.1175403169453633e-01   1.1178073467644424e-01   1.1177401618588741e-01   1.1175911864416854e-01   1.1178275089669222e-01   1.1176774952780723e-01   1.1176413774155267e-01   1.1174979656054927e-01   1.1178233629135674e-01   1.1176153015930271e-01   1.1174982147451237e-01   1.1172590970200928e-01   1.1173663642393629e-01   1.1173360635386986e-01   1.1178536079095874e-01   1.1174477925606476e-01   1.1178680008223031e-01   1.1176209937208248e-01   1.1175848483697924e-01   1.1174028632231021e-01   1.1174748588078748e-01   1.1174444813016457e-01   1.1178294209059272e-01   1.1177866551047953e-01   1.1176281044641329e-01   1.1177807687823287e-01   1.1178365909336527e-01   1.1176376509126076e-01   1.1176099709690124e-01   1.1178396477076462e-01   1.1177071619994630e-01   1.1176942862276071e-01   1.1178588912452939e-01   1.1177673748429552e-01   1.1176961214848402e-01   1.1178271844212272e-01   1.1177187863145525e-01   1.1178573019172224e-01   1.1178738176584871e-01   1.1177457313747616e-01   1.1177574188303029e-01   1.1179047435242970e-01   1.1178503605374253e-01   1.1178202431184309e-01   1.1178043459519481e-01   1.1177802133426798e-01   1.1177962619104226e-01   1.1177692168723129e-01   1.1177411722761964e-01   1.1177264971420990e-01   1.1177766605245912e-01   1.1177366362825239e-01   1.1177247823221141e-01   1.1176700021297353e-01   1.1176817301177500e-01   1.1177691099087923e-01   1.1177373898066970e-01   1.1176991660378519e-01   1.1177341493750799e-01   1.1176589421927484e-01   1.1175944117410075e-01   1.1175561144958232e-01   1.1176607911973956e-01   1.1175018366862935e-01   1.1175614935520746e-01   1.1175487898690470e-01   1.1176259950871571e-01   1.1174084630643097e-01   1.1174572160574160e-01   1.1170846017639455e-01   1.1174173192053372e-01   1.1176656448436935e-01   1.1176519829622304e-01   1.1175665656262637e-01   1.1176776902890645e-01   1.1175733611867236e-01   1.1175551644108327e-01   1.1174177214112486e-01   1.1174517852980584e-01   1.1174089241361584e-01   1.1172699026731879e-01   1.1170858108217588e-01   1.1174023730081893e-01   1.1171677631386720e-01   1.1170919752147293e-01   1.1167374021351739e-01   1.1168115062779987e-01   1.1173685423959091e-01   1.1170796877723628e-01   1.1169701045165450e-01   1.1171108272709017e-01   1.1176989308622151e-01   1.1175820791684862e-01   1.1175894018206085e-01   1.1176480254891877e-01   1.1174290035199645e-01   1.1176010892047075e-01   1.1171258141893976e-01   1.1174494091803824e-01   1.1175371827156980e-01   1.1171015163834408e-01   1.1172262501702206e-01   1.1173176793426466e-01   1.1176812934059582e-01   1.1171799131958390e-01   1.1173903286309887e-01   1.1174426701244911e-01   1.1178777510076746e-01   1.1178834657493028e-01   1.1178779364771366e-01   1.1178735491607319e-01   1.1178719493569560e-01   1.1178770762608072e-01   1.1178777440499217e-01   1.1178834028967925e-01   1.1178649287514283e-01   1.1178621752681758e-01   1.1178570861041082e-01   1.1178662186105610e-01   1.1178693597831935e-01   1.1178846614837104e-01   1.1178823882632154e-01   1.1178604755160176e-01   1.1178527230743245e-01   1.1178601331471474e-01   1.1178563948571545e-01   1.1178657625598579e-01   1.1178663756191425e-01   1.1178679891130550e-01   1.1178696365784516e-01   1.1178713481576658e-01   1.1178589708458361e-01   1.1178728925058018e-01   1.1178490213091836e-01   1.1178633472965575e-01   1.1178811342613929e-01   1.1178831540367359e-01   1.1178762201092600e-01   1.1178806517813608e-01   1.1178481738856731e-01   1.1178433258122544e-01   1.1178406572373922e-01   1.1178526935558018e-01   1.1178381762719899e-01   1.1178492767786311e-01   1.1178381210601972e-01   1.1178480800864113e-01   1.1178301452573744e-01   1.1178221205932320e-01   1.1178248950641058e-01   1.1178346571870809e-01   1.1178637279971899e-01   1.1178449431568341e-01   1.1178472318528902e-01   1.1178531769188817e-01   1.1178485869047539e-01   1.1178871423949764e-01   1.1178876053213815e-01   1.1178215703673790e-01   1.1178904752487276e-01   1.1178531185903264e-01   1.1178140272999111e-01   1.1178195808772676e-01   1.1178793978708360e-01   1.1178554581129747e-01   1.1178529590544616e-01   1.1178577671173227e-01   1.1178842721018721e-01   1.1181144443309364e-01   1.1180159942079465e-01   1.1165809230060156e-01   1.1178848339478058e-01   1.1178194405329359e-01   1.1178971351260604e-01   1.1178553498405090e-01   1.1178035212536298e-01   1.1178534718528070e-01   1.1178048250946755e-01   1.1178090716690345e-01   1.1178935127218320e-01   1.1177941580499877e-01   1.1178917802761557e-01   1.1178485523959267e-01   1.1178697856347417e-01   1.1178313456937622e-01   1.1178751497418535e-01   1.1178774873608487e-01   1.1177833831901254e-01   1.1178438297813820e-01   1.1177879821427340e-01   1.1177967805348323e-01   1.1178644121228061e-01   1.1178250109076265e-01   1.1178783191099781e-01   1.1178719159574065e-01   1.1178264053005571e-01   1.1178895579535300e-01   1.1178322277661375e-01   1.1178563143206167e-01   1.1178303390650904e-01   1.1178856016774245e-01   1.1178542728713987e-01   1.1178528362669425e-01   1.1178892061361004e-01   1.1177708383623286e-01   1.1178790216393621e-01   1.1178323425130882e-01   1.1177672980969236e-01   1.1178455731103716e-01   1.1177470588813604e-01   1.1177865867117952e-01   1.1178984190879865e-01   1.1177159364680926e-01   1.1177457832744388e-01   1.1177205201111443e-01   1.1178768955958902e-01   1.1177953046969515e-01   1.1177747654548588e-01   1.1178047238177354e-01   1.1178905526635596e-01   1.1178774116826770e-01   1.1178973365840857e-01   1.1179015773666499e-01   1.1178847958720896e-01   1.1179215673245281e-01   1.1178949671569179e-01   1.1179048690548625e-01   1.1179050042964390e-01   1.1178652668336637e-01   1.1178362749203972e-01   1.1178636743960899e-01   1.1179241469396907e-01   1.1179171826737694e-01   1.1178912928953867e-01   1.1179037844636677e-01   1.1179304366816283e-01   1.1178086141542792e-01   1.1179352336036125e-01   1.1178285077810902e-01   1.1177896813385194e-01   1.1178731232932838e-01   1.1178171183322798e-01   1.1178031137519837e-01   1.1178653112378623e-01   1.1178196586931421e-01   1.1178666306171112e-01   1.1178666770250449e-01   1.1178670674204168e-01   1.1178147547931054e-01   1.1178678545803362e-01   1.1178605408380488e-01   1.1178251024744967e-01   1.1178571875634981e-01   1.1178277681765503e-01   1.1178223035428229e-01   1.1178485424732053e-01   1.1178266112238837e-01   1.1178493702839506e-01   1.1178584180864409e-01   1.1178261032886548e-01   1.1178351690052515e-01   1.1178208882963404e-01   1.1178259653236405e-01   1.1178233148