<?xml version="1.0"?>
<VTKFile type="UnstructuredGrid"  version="0.1"  >
<UnstructuredGrid>
<Piece  NumberOfPoints="4153" NumberOfCells="8064">
<Points>
<DataArray  type="Float64"  NumberOfComponents="3"  format="ascii">-0.4105971729232579 -0.6047210337508441 0  -0.02990166927853163 -0.7413687006237802 0  -0.08189616749154126 -0.7385771197129661 0  -0.1332252616802942 -0.7308408627470149 0  -0.1834984908942803 -0.7187376471661028 0  -0.232719705904615 -0.7034687597012371 0  -0.2803225595714795 -0.6831496128861965 0  -0.3258264944530659 -0.6593304582617397 0  -0.3692510140355209 -0.6330819282454438 0  0.02218365609941639 -0.7389184055070519 0  -0.4500200267067439 -0.5763634314995447 0  -0.4880924167960412 -0.5480171756743722 0  -0.5248821336254652 -0.5199619681719165 0  -0.5605642928237778 -0.4926328375114888 0  -0.5954962354272287 -0.466636938761186 0  -0.6298472899177764 -0.4422426289574947 0  -0.6637918406274834 -0.4203318266138185 0  0.659617410796742 -0.4098302449391787 0  0.0737444980356409 -0.7313329496572966 0  0.1242045963668633 -0.7189210543295295 0  0.1730847593578795 -0.7022404793871151 0  0.2200351501978463 -0.6819401555806365 0  0.2649779835397322 -0.6591422830337109 0  0.3079846426840902 -0.6345612350761124 0  0.3492178585538661 -0.6088867892479034 0  0.3888634111724304 -0.5826902829741039 0  0.4272681909610447 -0.5565854819598985 0  0.4646614336271319 -0.530897300163876 0  0.5012617053364196 -0.505892278309133 0  0.5372183572144457 -0.4818395689942749 0  0.5727060709663619 -0.4588629053740091 0  0.6078104109162452 -0.437344145949426 0  0.6427010250150592 -0.4180163814453252 0  0.6250953136230607 -0.4276499819618321 0  -0.6466271913576969 -0.4311439950422488 0  -0.5781029810712988 -0.4795345580711576 0  -0.5066265669934359 -0.5339304463684613 0  -0.4304512132432003 -0.5905089245679158 0  -0.3477948788916674 -0.6463615080066571 0  -0.2567780116592184 -0.6938388190310814 0  -0.1585054537185486 -0.7253662376923206 0  -0.05594943263330013 -0.7406191077875985 0  0.5902622650691735 -0.4480577919921344 0  0.1488658549946676 -0.7110639698399007 0  0.2427562894631331 -0.6708138662105118 0  0.3288035422706493 -0.6218295628882229 0  0.4082105407767753 -0.5696134281415233 0  0.4830429217857627 -0.5183113671034207 0  0.5550249850302911 -0.4702654914381246 0  0.0480669957445819 -0.7357535626924933 0  -0.6801955551744194 -0.4109222469306993 0  0.5192985799763838 -0.4937272083689779 0  0.4460747461482261 -0.5436788241426999 0  0.369218227350178 -0.5957931157059672 0  0.2867150994820045 -0.647038423196464 0  0.196822419661346 -0.6924830862483472 0  0.09914517710780647 -0.7257003416199548 0  -0.003830748476493989 -0.7408021449185164 0  -0.1076738712740898 -0.7353088064308417 0  -0.2081482144392589 -0.7115145010275792 0  -0.3033223417216461 -0.6715463747980306 0  -0.3903456920806329 -0.6192858276635491 0  -0.4692296675361796 -0.5621924720832618 0  -0.5428554838500799 -0.5061780939487879 0  -0.6126823897958824 -0.454371976185542 0  0.7967242844202833 -0.2246632418298483 0  0.7136910696393897 -0.383159087176704 0  0.7598848821323514 -0.3415073280763494 0  0.7892348483016162 -0.287118792755688 0  0.6871115272926503 -0.3971130120953923 0  0.7378183741369779 -0.3636561820076565 0  0.7729811674724544 -0.3130730914628908 0  0.7920205909433846 -0.2554875046167104 0  0.6735045706946553 -0.4042971583238041 0  0.7003449583593476 -0.3895060443172274 0  0.7258681262290723 -0.3736088979180928 0  0.7484990744543928 -0.3517996675657405 0  0.7682959120903887 -0.3282976292759566 0  0.7803487447167506 -0.2999108479991441 0  0.7898360360869402 -0.2710708757075982 0  0.7937903716374402 -0.2399470526284664 0  0.7959166781625219 -0.2045420834738726 0  0.7984587112923475 0.2407862819028636 0  0.7982891484245322 0.2010305498216852 0  0.7995517766300581 0.161067741664415 0  0.8014184649218595 0.120762353485099 0  0.8036333550106424 0.07999872442678632 0  0.8045656468771394 0.03883734555246188 0  0.8042944888777296 -0.002424973336052304 0  0.8028203866651127 -0.0435912314621085 0  0.8001257218210062 -0.08435931158012937 0  0.7978057097654213 -0.1247013479697407 0  0.7961114076851462 -0.1647152018510797 0  0.7996703468338757 0.260831670330949 0  0.798145144518702 0.2209213430681446 0  0.8004459960362337 0.1409638639778688 0  0.8042504641226362 0.05944411346190819 0  0.8037115577221612 -0.02303330628165224 0  0.7989293266750851 -0.1045788422416738 0  0.7957831799317459 -0.184642205296411 0  0.7988225652430111 0.1810864066517604 0  0.8025823640645736 0.1004639788661301 0  0.8045754408203535 0.01820661440105897 0  0.8015118663664942 -0.06405523956122761 0  0.7968599080386439 -0.1447447595416291 0  0.6671090382763607 0.447537346770581 0  0.7932833122988253 0.3233270476996717 0  0.7650449011397497 0.378165440602512 0  0.7200435931436702 0.4204243942694744 0  0.7956705718870255 0.2916930850956618 0  0.7779123954199216 0.3497260380843274 0  0.7435875464201667 0.4005189724732184 0  0.6939422402127428 0.4345356882592435 0  0.7972011396519982 0.2761616969996069 0  0.7938204767766273 0.3073026027921745 0  0.7849435587120277 0.3363500280357926 0  0.7730457572107485 0.3647579596389703 0  0.7539627956376235 0.3885713694921586 0  0.7319105454035336 0.4106276818041037 0  0.7069336375104444 0.426909866743608 0  0.6805753985424845 0.441661764410916 0  -0.02769631688837457 0.8169908457081876 0  0.6170242956372226 0.4771892812676271 0  0.5831173943316111 0.5004923328325405 0  0.5488736155106795 0.525571080318693 0  0.5141554815627755 0.5522396455395385 0  0.4786570866358761 0.5800946439591862 0  0.4421550359251523 0.6088364079512307 0  0.4043920956593926 0.6381674903765981 0  0.3650189815347344 0.6677461069450008 0  0.3236232667580712 0.6967121152355378 0  0.2799860045218191 0.7244464425978223 0  0.233933604652093 0.7501516044950338 0  0.1853977335542982 0.7730943616873078 0  0.1344809542842349 0.7918761099590995 0  0.08160386956730784 0.8057822675533718 0  0.0273394034883961 0.8141441131402926 0  0.6507365266906465 0.4564090200966483 0  -0.08265330568279472 0.8129480957404734 0  -0.1366289503267222 0.8028313415684895 0  -0.1889485286612868 0.7872827661750745 0  -0.2388958509167171 0.7662513763588912 0  -0.2865534614560314 0.7428929749104893 0  -0.3319291734440216 0.7170260615233094 0  -0.3750993254016148 0.6893390174921157 0  -0.4161280157708836 0.6602729234967317 0  -0.4553524788653608 0.6311096549822165 0  -0.4931203823266612 0.6021006386307408 0  -0.5296406776667659 0.5735820922928271 0  -0.5651257524905366 0.5459009499189915 0  -0.5997694416022471 0.5193679594789349 0  -0.6338002663746796 0.4945262813050644 0  -0.6674671846652804 0.4722328848049147 0  -0.6837588017622002 0.4627313647947004 0  -0.6504736325812079 0.4832661086896975 0  -0.5825454592987515 0.5325251291228658 0  -0.5115235717285409 0.5877653204433825 0  -0.4359261091056096 0.6456842984385318 0  -0.35377758502783 0.7033400846601359 0  -0.2630098116878664 0.7549432583981979 0  -0.1630221325718267 0.7955786076281499 0  -0.05523938882469027 0.815725800009049 0  0.05461149617214747 0.8107203356544649 0  0.1602149440729163 0.7830198501437985 0  0.2572670908542522 0.7376063674540111 0  0.3445818158953492 0.6823323250210446 0  0.4234480079443965 0.6234483278083056 0  0.4965127561351348 0.5660419608109004 0  0.5660375174803104 0.5129002808693158 0  0.6336787557138517 0.4666414965398793 0  -0.6168122213095868 0.5068626649990122 0  -0.5474990473580978 0.5596321002797535 0  -0.4744067507034411 0.6165672302566565 0  -0.3959102131115364 0.6749413872615768 0  -0.3095207119722671 0.7302207935546503 0  -0.2143624604479181 0.7774494509775791 0  -0.1098072029139633 0.8085967630666335 0  -8.573480333347316e-05 0.8163489264015694 0  0.1082556868026009 0.7994817673471246 0  0.2100010578479252 0.7621001775558869 0  0.3020981625918367 0.7107841254673429 0  0.3849479704503087 0.6529812280304831 0  0.4605462413545751 0.5943767989790614 0  0.5316015999653566 0.5387430799257739 0  0.6000543108689954 0.4887480677469154 0  -0.815733687953567 0.2711326128966374 0  -0.7362338554011181 0.4333593838498779 0  -0.7808202530987061 0.3898219396473078 0  -0.8088641911973907 0.3342072392211136 0  -0.7104014316791766 0.4484155900333076 0  -0.7595223352865829 0.4126687407807643 0  -0.7934704208945973 0.3609029301405122 0  -0.8113788428072102 0.3022889392421653 0  -0.6971713398101855 0.4562372991799681 0  -0.7232561544702693 0.4402734974456105 0  -0.7479835430566611 0.42315674673468 0  -0.7698033285793171 0.4004500870839569 0  -0.7887011281699663 0.3761379570028914 0  -0.8004937257132055 0.3473696733493321 0  -0.809419021378425 0.3180411807297698 0  -0.8130572439470372 0.2866098321179084 0  -0.8148218963247357 0.2508555890479185 0  -0.81358523467127 -0.2015103399826246 0  -0.8141416769736581 -0.1612939981768625 0  -0.8160999231312354 -0.1207663193304404 0  -0.8185480737126364 -0.07980908137356696 0  -0.8211574030662258 -0.03835963614716521 0  -0.8225135270627572 0.003504872634743117 0  -0.8226531492076175 0.04548610523663148 0  -0.821580119193482 0.08737623004965629 0  -0.8192468412759087 0.1288851302820492 0  -0.817022455876903 0.1699199868127527 0  -0.8152435641089113 0.2105412900270371 0  -0.8144079822464393 -0.2217542892187508 0  -0.813638926727331 -0.1814315543731625 0  -0.8173058984698377 -0.1003462826480177 0  -0.8219890113865073 -0.01745582807494989 0  -0.8222685941250441 0.06645639045252469 0  -0.818119326970056 0.149457896864084 0  -0.8148100458939662 0.2307254493732906 0  -0.81503164953829 -0.1410804485832692 0  -0.8199147911311282 -0.05916646059079337 0  -0.8227312101162754 0.02449395646938438 0  -0.8204845678887341 0.1082085405952919 0  -0.8160505177375239 0.1902789399072159 0  -0.8070039959517963 -0.2846059805516541 0  -0.7782457659849051 -0.3396868394839382 0  -0.7331114975897582 -0.3825272132039409 0  -0.8098371769125624 -0.2528201766125408 0  -0.7913062846569944 -0.3110934333089583 0  -0.7567020971621676 -0.3623022267010839 0  -0.7070267636828597 -0.397190232372355 0  -0.8116170781203728 -0.2371829037968218 0  -0.80773
[...]
<CellData  Scalars="f_3968"> 
<DataArray  type="Float64"  Name="f_3968"  format="ascii">1.1177223710747226e-01   1.1177457842244809e-01   1.1176944471995241e-01   1.1177111958500834e-01   1.1177467334251744e-01   1.1176911044304226e-01   1.1177641985207519e-01   1.1177610746269351e-01   1.1176700329271848e-01   1.1177536974665521e-01   1.1176512109309944e-01   1.1176689743480837e-01   1.1177200299403948e-01   1.1177787900177180e-01   1.1177084412977159e-01   1.1177263709987476e-01   1.1177620040627892e-01   1.1176559482112718e-01   1.1177767186979885e-01   1.1177691387711369e-01   1.1176842576433231e-01   1.1177892309965849e-01   1.1177106200754876e-01   1.1176930334288476e-01   1.1178018070742358e-01   1.1177234699884342e-01   1.1178014511886004e-01   1.1178093211976492e-01   1.1177848801403258e-01   1.1177244444627497e-01   1.1178002609119074e-01   1.1177934425291683e-01   1.1176391656081465e-01   1.1177737363664000e-01   1.1176299940741349e-01   1.1176500714985406e-01   1.1177811075488243e-01   1.1176706589840864e-01   1.1177810987589436e-01   1.1177936937913682e-01   1.1176672555983194e-01   1.1178107077923147e-01   1.1175696215222473e-01   1.1176403329302234e-01   1.1177011830051332e-01   1.1177963303970322e-01   1.1176530719999440e-01   1.1176753780803933e-01   1.1177356171846811e-01   1.1178049039833461e-01   1.1177391140383575e-01   1.1177430176895656e-01   1.1178177262708715e-01   1.1177672396740980e-01   1.1178138758882029e-01   1.1178183972940009e-01   1.1177439025813898e-01   1.1178072269586337e-01   1.1176952518970418e-01   1.1177131369861094e-01   1.1177629961856338e-01   1.1178116890721561e-01   1.1177358943333741e-01   1.1177254701087322e-01   1.1179435377766966e-01   1.1178681362433505e-01   1.1179096752140316e-01   1.1179179992842565e-01   1.1178287489402909e-01   1.1178513049929586e-01   1.1177666046919009e-01   1.1178198971476215e-01   1.1179092576712149e-01   1.1178045158952168e-01   1.1178942894881935e-01   1.1178507113205820e-01   1.1179110576444869e-01   1.1177723911080650e-01   1.1178187185320275e-01   1.1178973150812888e-01   1.1177719834275118e-01   1.1178369531539292e-01   1.1176929130731121e-01   1.1177358908320155e-01   1.1177939384752519e-01   1.1176554843485426e-01   1.1177699080563969e-01   1.1178232968829616e-01   1.1176171037003979e-01   1.1177931504428090e-01   1.1174477310405249e-01   1.1175646845188271e-01   1.1176990120437215e-01   1.1177747831802329e-01   1.1176012934401579e-01   1.1177053330470726e-01   1.1178789753832932e-01   1.1177328371179060e-01   1.1178506736854410e-01   1.1178142150622471e-01   1.1177106008747760e-01   1.1178338728879335e-01   1.1175924384517930e-01   1.1176615877915440e-01   1.1178391410466788e-01   1.1175941197569922e-01   1.1177829134229918e-01   1.1176611379912274e-01   1.1178143727194043e-01   1.1175203239249540e-01   1.1176394626005448e-01   1.1175877424867167e-01   1.1178903825059511e-01   1.1176040661512519e-01   1.1177060389879663e-01   1.1178724227063318e-01   1.1174799825603457e-01   1.1177131367881049e-01   1.1172515013773604e-01   1.1175049890288778e-01   1.1177723235830334e-01   1.1173477967245865e-01   1.1175276305986030e-01   1.1174834920421438e-01   1.1179363383807570e-01   1.1170869547652887e-01   1.1172855855193815e-01   1.1178721038513777e-01   1.1167095791431959e-01   1.1172255290693532e-01   1.1169972232310754e-01   1.1175074052815231e-01   1.1172769367391090e-01   1.1176700789003860e-01   1.1175415331560938e-01   1.1174977330806939e-01   1.1170688021035126e-01   1.1172815933730924e-01   1.1171574103946380e-01   1.1176839382251992e-01   1.1174307396666075e-01   1.1175183482386450e-01   1.1175973587334830e-01   1.1175047900700324e-01   1.1173328461889601e-01   1.1177262361056346e-01   1.1175623547265555e-01   1.1175418829710534e-01   1.1176553837312878e-01   1.1175559400627839e-01   1.1176539617581287e-01   1.1176118848112379e-01   1.1175768999331535e-01   1.1176934293373732e-01   1.1176099017660758e-01   1.1176046331153246e-01   1.1175530748511069e-01   1.1176435802203157e-01   1.1176015628115114e-01   1.1175705334238178e-01   1.1172543810634361e-01   1.1173891219617808e-01   1.1173488606400861e-01   1.1177548833683282e-01   1.1174583684102064e-01   1.1177843627224716e-01   1.1176173693761668e-01   1.1175905095238887e-01   1.1174331256670517e-01   1.1175124009933622e-01   1.1175253854621546e-01   1.1177924966499149e-01   1.1176936762221866e-01   1.1175928644686534e-01   1.1177053179834383e-01   1.1176978009943131e-01   1.1175469069668108e-01   1.1176105214324168e-01   1.1176656011689642e-01   1.1175885597872778e-01   1.1176385923782158e-01   1.1176935164869009e-01   1.1176649690657223e-01   1.1176494666265864e-01   1.1176781947985270e-01   1.1176306450012627e-01   1.1176842515002428e-01   1.1176784406983718e-01   1.1176242272962340e-01   1.1176674634742785e-01   1.1176946674252171e-01   1.1176731257727600e-01   1.1166865093595092e-01   1.1175272549659931e-01   1.1173220555141417e-01   1.1169857703473748e-01   1.1176740171447683e-01   1.1175067135813975e-01   1.1177121059568963e-01   1.1176032963889482e-01   1.1174894274262832e-01   1.1176851417587938e-01   1.1176565837783245e-01   1.1175779665985061e-01   1.1172887476932374e-01   1.1176835687866613e-01   1.1176505626618385e-01   1.1174846536850593e-01   1.1177223752260579e-01   1.1176774322092706e-01   1.1177577091085930e-01   1.1177236486209316e-01   1.1177638005250669e-01   1.1177837341913639e-01   1.1177643472721462e-01   1.1176975610612519e-01   1.1178104795613752e-01   1.1178114218503024e-01   1.1178428466793361e-01   1.1178250607430765e-01   1.1177696943722934e-01   1.1177362124574633e-01   1.1178123944111842e-01   1.1177436825921501e-01   1.1177476529044021e-01   1.1177602282177380e-01   1.1178059235009197e-01   1.1177389628829121e-01   1.1177920361191286e-01   1.1177836233798594e-01   1.1178116855876996e-01   1.1177877767422932e-01   1.1178487096805426e-01   1.1178249179699992e-01   1.1178527310567996e-01   1.1178070338453316e-01   1.1178054827318221e-01   1.1178299761576860e-01   1.1178269580207899e-01   1.1178312676649065e-01   1.1176164736919038e-01   1.1177956294901767e-01   1.1177971116970895e-01   1.1177111596758875e-01   1.1178479850650316e-01   1.1178425050015184e-01   1.1178735661039130e-01   1.1178380801230864e-01   1.1178168391919850e-01   1.1178555619669196e-01   1.1178406958689438e-01   1.1178463454075344e-01   1.1177822675006846e-01   1.1178668809681727e-01   1.1178671956454851e-01   1.1178325361893876e-01   1.1168958111581571e-01   1.1180433325874495e-01   1.1179384497790729e-01   1.1179751140923107e-01   1.1178356945235225e-01   1.1178379774101802e-01   1.1179045114916390e-01   1.1179434107229914e-01   1.1178826893242243e-01   1.1178937340867348e-01   1.1178851269796784e-01   1.1178542518187558e-01   1.1177335814253186e-01   1.1176200210966056e-01   1.1178956626398079e-01   1.1176180250144548e-01   1.1178847829863063e-01   1.1178633523266196e-01   1.1178812281094479e-01   1.1178762688168546e-01   1.1178559335158358e-01   1.1178823010750562e-01   1.1178330194549618e-01   1.1178380449953110e-01   1.1178795223494366e-01   1.1178464320894550e-01   1.1178790940900199e-01   1.1178827570237848e-01   1.1178963323553145e-01   1.1178598114835836e-01   1.1178899222088434e-01   1.1180647739178752e-01   1.1178765551404150e-01   1.1178757303638484e-01   1.1178673386752572e-01   1.1178607660668835e-01   1.1178623226426290e-01   1.1178577404333771e-01   1.1178600413949166e-01   1.1178715398210333e-01   1.1178518894433923e-01   1.1178413901587948e-01   1.1178493985022583e-01   1.1178534957744268e-01   1.1178543668927508e-01   1.1178710461885792e-01   1.1178556473991169e-01   1.1178523204506338e-01   1.1177276431318321e-01   1.1176493892627826e-01   1.1178365078970218e-01   1.1177887029574933e-01   1.1178885478722553e-01   1.1178122872704299e-01   1.1178931758978757e-01   1.1180622549041860e-01   1.1178279578168408e-01   1.1178877128322130e-01   1.1178454588520641e-01   1.1178204918853622e-01   1.1176454185031151e-01   1.1177580667741287e-01   1.1178580986439858e-01   1.1173527036753302e-01   1.1178138984485282e-01   1.1178243154456781e-01   1.1178063598251788e-01   1.1178073043686360e-01   1.1178363045527409e-01   1.1178142863038402e-01   1.1178408816459728e-01   1.1178327977560897e-01   1.1178173452882482e-01   1.1178507333032191e-01   1.1178336977255640e-01   1.1178291963363830e-01   1.1178202467414042e-01   1.1178335327061546e-01   1.1178236346624859e-01   1.1178259654091720e-01   1.1178684082242760e-01   1.1178481084443020e-01   1.1178777661254745e-01   1.1178580270072287e-01   1.1178609720383147e-01   1.1178646068580697e-01   1.1178510298504869e-01   1.1178418774530118e-01   1.1178893242375773e-01   1.1178804771916179e-01   1.1178874885533392e-01   1.1178730799432236e-01   1.1178457611235705e-01   1.1178323954173454e-01   1.1178484968690947e-01   1.1178348534288021e-01   1.1178544257659008e-01   1.1178889319051324e-01   1.1178770127069763e-01   1.1178696425572615e-01   1.1179135126851206e-01   1.1179008779138315e-01   1.1179185776113006e-01   1.1179027307196675e-01   1.1179078237587156e-01   1.1179280605689450e-01   1.1179114854934571e-01   1.1179006654217437e-01   1.1178916339261062e-01   1.1179046569831731e-01   1.1178888672429929e-01   1.1178741502686204e-01   1.1178310954074090e-01   1.1178330239237838e-01   1.1178376601919282e-01   1.1178319035899141e-01   1.1178530827121171e-01   1.1178513861837509e-01   1.1178411744826847e-01   1.1178333929756806e-01   1.1178676740054007e-01   1.1178665036314309e-01   1.1178567079177423e-01   1.1178366391103772e-01   1.1178387427247545e-01   1.1178098746110064e-01   1.1178112846690161e-01   1.1177950074583010e-01   1.1177618109057748e-01   1.1177197132259908e-01   1.1178372538825725e-01   1.1177730193799647e-01   1.1177703151311127e-01   1.1178383848396885e-01   1.1177786890818614e-01   1.1177332577631474e-01   1.1178494925215163e-01   1.1178010812844424e-01   1.1178724874151559e-01   1.1178493544591249e-01   1.1177798976976050e-01   1.1177467579952913e-01   1.1178400101562488e-01   1.1177856234722436e-01   1.1178322027114844e-01   1.1178703326517368e-01   1.1178334418401201e-01   1.1178056420659314e-01   1.1178681325417926e-01   1.1178097156226981e-01   1.1178477646996070e-01   1.1178494329687443e-01   1.1178341855228754e-01   1.1178641930396362e-01   1.1178333782824157e-01   1.1178127707754290e-01   1.1177864491570619e-01   1.1178400925700803e-01   1.1177930868568373e-01   1.1177584767203938e-01   1.1178916849911041e-01   1.1178599314965654e-01   1.1179100528796937e-01   1.1178879538267616e-01   1.1178843262567165e-01   1.1179049270331050e-01   1.1178805081199543e-01   1.1178585689979254e-01   1.1179286278082605e-01   1.1179114679643030e-01   1.1179400323230035e-01   1.1179227520120603e-01   1.1178839806205279e-01   1.1178562756042172e-01   1.1178987004194764e-01   1.1178770456826564e-01   1.1177898693145578e-01   1.1177681173976418e-01   1.1178388988929050e-01   1.1177941729613053e-01   1.1177981741240405e-01   1.1178380938060599e-01   1.1178032368056220e-01   1.1177796597178170e-01   1.1178449921730249e-01   1.1178139909402227e-01   1.1178574762055597e-01   1.1178393785234346e-01   1.1177919375986516e-01   1.1177761107360029e-01   1.1178313510413219e-01   1.1178145737713988e-01   1.1178053037676831e-01   1.1178691889526914e-01   1.1178090371122885e-01   1.1178190015613829e-01   1.1178686020559260e-01   1.1178288647367629e-01   1.1178844021924274e-01   1.1178863092319677e-01   1.1177772298979047e-01   1.1178595171243821e-01   1.1177585992182011e-01   1.1177895830593335e-01   1.1178306313542698e-01   1.1178980097404068e-01   1.1178398303031144e-01   1.1178432813968467e-01   1.1178490209180424e-01   1.1177573831993230e-01   1.1178518757299390e-01   1.1178683723500227e-01   1.1177796349605411e-01   1.1178799533969458e-01   1.1178174528537256e-01   1.1178063540823117e-01   1.1178660367246254e-01   1.1177982065072005e-01   1.1178654553528283e-01   1.1178895402779306e-01   1.1178958487372229e-01   1.1178507857680312e-01   1.1179047217199878e-01   1.1179088937341337e-01   1.1177400506569829e-01   1.1178424318552851e-01   1.1177191378654167e-01   1.1177239771411730e-01   1.1178156580524760e-01   1.1176951844714383e-01   1.1178045193851455e-01   1.1178381798281038e-01   1.1177371233934139e-01   1.1178502160970273e-01   1.1176594288964770e-01   1.1176644229121543e-01   1.1177587007328527e-01   1.1178432249906935e-01   1.1177159122341281e-01   1.1177519299264040e-01   1.1178549440983181e-01   1.1179177838778423e-01   1.1178596640057521e-01   1.1178646416219933e-01   1.1179136426946173e-01   1.1178729654492740e-01   1.1179113362961121e-01   1.1179268636218598e-01   1.1178342534581701e-01   1.1178881604560145e-01   1.1177884679549345e-01   1.1178206733247067e-01   1.1178783584294276e-01   1.1179244343020221e-01   1.1178570922102397e-01   1.1178682273003318e-01   1.1165697482691769e-01   1.1167621463617074e-01   1.1169688943908918e-01   1.1174257764498208e-01   1.1171214809522567e-01   1.1178417400846738e-01   1.1174178932209916e-01   1.1171924734692674e-01   1.1170529466071488e-01   1.1172060403227674e-01   1.1171637100988951e-01   1.1177858726320622e-01   1.1173768948560757e-01   1.1173290824961954e-01   1.1177401440890573e-01   1.1175354089889927e-01   1.1173154819229385e-01   1.1178089806712498e-01   1.1175418209063076e-01   1.1174763662127546e-01   1.1177448655710270e-01   1.1175401924168719e-01   1.1177905404674164e-01   1.1177155621644448e-01   1.1175939082713510e-01   1.1178159434811638e-01   1.1176672545129415e-01   1.1176350000699264e-01   1.1174975653680419e-01   1.1178122179966414e-01   1.1176066765504840e-01   1.1174786486213587e-01   1.1172528474381618e-01   1.1173964720359342e-01   1.1173285354990169e-01   1.1178171728082331e-01   1.1174735244633538e-01   1.1178390050549745e-01   1.1176255352994827e-01   1.1175963839711207e-01   1.1173979129553444e-01   1.1174919878013878e-01   1.1174247071951157e-01   1.1177878634089236e-01   1.1177693643201213e-01   1.1176249849851613e-01   1.1177469494564829e-01   1.1178067684856634e-01   1.1176115352564427e-01   1.1175895587744446e-01   1.1178371636862534e-01   1.1176870554710606e-01   1.1176854234482030e-01   1.1178650474071963e-01   1.1177553553365017e-01   1.1176799024901589e-01   1.1178222887168429e-01   1.1177049614283066e-01   1.1178357745387980e-01   1.1178589432567877e-01   1.1177336203275838e-01   1.1177404851553700e-01   1.1179011361031949e-01   1.1178406667015238e-01   1.1178259178034866e-01   1.1178145134959518e-01   1.1177778787026267e-01   1.1177981587308518e-01   1.1177708582930780e-01   1.1177326584151280e-01   1.1177178394793824e-01   1.1177786675500900e-01   1.1177251891393120e-01   1.1177170071833367e-01   1.1176456821938185e-01   1.1176622833257842e-01   1.1177675481536950e-01   1.1177293450307182e-01   1.1176862053304411e-01   1.1177293104187529e-01   1.1176387678017838e-01   1.1175600255394066e-01   1.1175148967400916e-01   1.1176389446219297e-01   1.1174606600235504e-01   1.1175193011144789e-01   1.1175213468274750e-01   1.1176020259942593e-01   1.1173391730836528e-01   1.1174263288876086e-01   1.1169609489771531e-01   1.1173494260941362e-01   1.1176433018154076e-01   1.1176364398580825e-01   1.1175245445201645e-01   1.1176559028427080e-01   1.1175309955454471e-01   1.1175166697681781e-01   1.1173474945608336e-01   1.1173940744590422e-01   1.1173490381798390e-01   1.1171875354685541e-01   1.1169633155819364e-01   1.1173343110462340e-01   1.1170524039959785e-01   1.1169770336170705e-01   1.1165500490719080e-01   1.1166528981018799e-01   1.1173151737275676e-01   1.1169516560848902e-01   1.1168595373559516e-01   1.1170321999698683e-01   1.1176926611433724e-01   1.1175422349188623e-01   1.1175728712953241e-01   1.1176402331993270e-01   1.1173653891820833e-01   1.1175955577282112e-01   1.1170316173462518e-01   1.1173916363227814e-01   1.1175221516050819e-01   1.1169902958122377e-01   1.1171676766688461e-01   1.1172711324902443e-01   1.1176798084495607e-01   1.1171049175692049e-01   1.1173512307210054e-01   1.1174022952891054e-01   1.1179072854520467e-01   1.1179044512550232e-01   1.1179031384471068e-01   1.1179042512279030e-01   1.1178863977942809e-01   1.1178943404123264e-01   1.1178948898982431e-01   1.1179038490060086e-01   1.1178880541793459e-01   1.1178780489634380e-01   1.1178772109086363e-01   1.1178839940726605e-01   1.1179053856025406e-01   1.1179104137270798e-01   1.1179036058367912e-01   1.1178988452612215e-01   1.1178679603086232e-01   1.1178749024967032e-01   1.1178736070486182e-01   1.1178833779324739e-01   1.1178848722450123e-01   1.1178890282393708e-01   1.1178929849825918e-01   1.1178926852608893e-01   1.1178790973942332e-01   1.1178907879480682e-01   1.1178726955875483e-01   1.1178871901315401e-01   1.1179017449517813e-01   1.1179053848990228e-01   1.1179011469499978e-01   1.1179103272659088e-01   1.1178651778492224e-01   1.1178583490386267e-01   1.1178547479949148e-01   1.1178654106959370e-01   1.1178526450381966e-01   1.1178584907340618e-01   1.1178563744271997e-01   1.1178645966798226e-01   1.1178397475138135e-01   1.1178376536587430e-01   1.1178364874609552e-01   1.1178471677013428e-01   1.1178787319543260e-01   1.1178665831674869e-01   1.1178653937779626e-01   1.1178745578816715e-01   1.1178891433800567e-01   1.1179127227789189e-01   1.1179068103558736e-01   1.1178692049756342e-01   1.1179082957103528e-01   1.1178915734525313e-01   1.1178541191004489e-01   1.1178811597786285e-01   1.1179003280041737e-01   1.1178813104706456e-01   1.1178791481948090e-01   1.1178742020891806e-01   1.1178526887378412e-01   1.1180179434045023e-01   1.1179898736370915e-01   1.1173473046997465e-01   1.1178653468989688e-01   1.1178082765159020e-01   1.1178749625548415e-01   1.1178368268007657e-01   1.1177919887907138e-01   1.1178324806813597e-01   1.1177904248418959e-01   1.1177951615220244e-01   1.1178744668514543e-01   1.1177840640264343e-01   1.1178749191212740e-01   1.1178314523624112e-01   1.1178522401830607e-01   1.1178151273941481e-01   1.1178556344939491e-01   1.1178620499506421e-01   1.1177742292484096e-01   1.1178298569918803e-01   1.1177754326239517e-01   1.1177837884688105e-01   1.1178525505223275e-01   1.1178095181199181e-01   1.1178661153000924e-01   1.1178571803938513e-01   1.1178127431412585e-01   1.1178843788381705e-01   1.1178146977188982e-01   1.1178411137636374e-01   1.1178134886318518e-01   1.1178688050207093e-01   1.1178359760862434e-01   1.1178349116726659e-01   1.1178753517282113e-01   1.1177620047686009e-01   1.1178677800394464e-01   1.1178209595427670e-01   1.1177594253711030e-01   1.1178400995403993e-01   1.1177325545497892e-01   1.1177751375927349e-01   1.1178931006599076e-01   1.1177039082935016e-01   1.1177313022039240e-01   1.1177069497640715e-01   1.1178716496780172e-01   1.1177785520424083e-01   1.1177612395712531e-01   1.1177904102639645e-01   1.1178780554220402e-01   1.1178590616816138e-01   1.1178832912558810e-01   1.1178919595969838e-01   1.1178680067057738e-01   1.1179150783234057e-01   1.1178769172828339e-01   1.1178889228261121e-01   1.1178997363918794e-01   1.1178473381089644e-01   1.1178217302700351e-01   1.1178494941282001e-01   1.1179226532674574e-01   1.1179007419004620e-01   1.1178761476889656e-01   1.1178956965933642e-01   1.1178680297204403e-01   1.1178412452052626e-01   1.1179446815506218e-01   1.1178417623364520e-01   1.1178157976531464e-01   1.1178846869668266e-01   1.1178445416406819e-01   1.1178328699131389e-01   1.1178764534880221e-01   1.1178434817449651e-01   1.1178771385905659e-01   1.1178793478564113e-01   1.1178778915673414e-01   1.1178439492682371e-01   1.1178797909473762e-01   1.1178725097328852e-01   1.1178476490235881e-01   1.1178689150812451e-01   1.1178497091762560e-01   1.1178470021658676e-01   1.1178573891772504e-01   1.1178497050768851e-01   1.1178586846875749e-01   1.1178693545823350e-01   1.1178459586787283e-01   1.1178412546106155e-01   1.1178377954171591e-01   1.1178469276103344e-01   1.1178495063