<?xml version="1.0"?>
<VTKFile type="UnstructuredGrid"  version="0.1"  >
<UnstructuredGrid>
<Piece  NumberOfPoints="4153" NumberOfCells="8064">
<Points>
<DataArray  type="Float64"  NumberOfComponents="3"  format="ascii">-0.4135676068336139 -0.4922948331746483 0  -0.02510907671782429 -0.515096901339904 0  -0.07384097369094757 -0.5134274234042137 0  -0.1224945967407225 -0.5113274828578745 0  -0.1710852574266782 -0.5089783580963354 0  -0.2196820943803504 -0.5064865070018835 0  -0.2682602773935301 -0.503396185798938 0  -0.3167764417787173 -0.4999369683535544 0  -0.3652238501932316 -0.4962182760807402 0  0.02369528448850149 -0.5161791404746572 0  -0.4618641605617168 -0.4885757910320673 0  -0.5101093878777319 -0.4848350403146344 0  -0.5582974850355169 -0.4811441653750506 0  -0.6064183897849111 -0.4776438898194204 0  -0.6544827490365042 -0.4743065949013759 0  -0.7024618062753893 -0.4712007667640172 0  -0.7503468687358968 -0.4683917404703853 0  0.7750643498817686 -0.4748110146720621 0  0.07255548272198592 -0.5165726569172493 0  0.1214468928478131 -0.5161998198240405 0  0.1703367080176543 -0.5150339717496119 0  0.2191867954144054 -0.5131150589930702 0  0.2679731438358227 -0.5105976676532088 0  0.3166853936476115 -0.5075805232560605 0  0.3653134687628705 -0.5041688853027637 0  0.41384948321542 -0.5005129112996528 0  0.4622982307080545 -0.4967066885840652 0  0.5106625099458302 -0.4928511696496168 0  0.558943302034164 -0.4890197356182178 0  0.6071411692491492 -0.4853228617573807 0  0.6552519149635723 -0.4817829012405669 0  0.7032694637047544 -0.4785328377382716 0  0.7511916059719373 -0.4756476041787572 0  0.7272351233663555 -0.4770790060132669 0  -0.7264047801088076 -0.4698242105976736 0  -0.6304601684576895 -0.4759550058395216 0  -0.5342106381188876 -0.4829846457121922 0  -0.4377232117515569 -0.4904592448269544 0  -0.3410086550170962 -0.4981062906894058 0  -0.2439774295972692 -0.5049912829767276 0  -0.1467957693448783 -0.5101724102292555 0  -0.0494849523207521 -0.5143267268184937 0  0.6792725227112452 -0.4801159488713652 0  0.145894201503778 -0.5157155433628547 0  0.243588486245866 -0.5119254799864323 0  0.3410102886955323 -0.5059193439319057 0  0.4380845225242126 -0.4986199713579436 0  0.5348132462200341 -0.4909297365254466 0  0.6312076798633405 -0.4835200026365577 0  0.0481196525197868 -0.5164675390596087 0  -0.7741720970112815 -0.4676275896301738 0  0.5830500561489026 -0.4871541571900139 0  0.4864908044481042 -0.4947804241218166 0  0.3895913312359132 -0.5023619536282505 0  0.2923392382958828 -0.5091451462533331 0  0.1947695415966556 -0.5141587840796319 0  0.09699922528308974 -0.5164850694377933 0  -0.0007149631395041244 -0.5157192167614161 0  -0.09817714216671206 -0.5124204458094349 0  -0.1953732665700935 -0.5077944143440898 0  -0.2925267033215583 -0.5017042905627709 0  -0.3894182204894792 -0.4942207712964289 0  -0.4859935453632917 -0.486703764418161 0  -0.5823627426255362 -0.4793583751391113 0  -0.6784835847487093 -0.472720346651597 0  0.9659221608891553 -0.2788733328483001 0  0.8483621156262527 -0.4584993312701927 0  0.910578222351397 -0.4159265916738346 0  0.9518220601494899 -0.3529241292091901 0  0.8117602551436269 -0.4666902910568653 0  0.8796558250330828 -0.4374683105807135 0  0.9309233023178868 -0.3842232075851148 0  0.9587030459169111 -0.315816514480405 0  0.7934510078049641 -0.4709512603964788 0  0.8300343890691642 -0.4624997399681329 0  0.8640146280729226 -0.448037198568817 0  0.8949560299440891 -0.4264470920225292 0  0.9209180106838224 -0.400158410793108 0  0.9412798136964737 -0.3685506301054277 0  0.9551817309811813 -0.3343347226384094 0  0.9622162709454635 -0.2973278607113349 0  0.9658369609593586 -0.2547498364230756 0  0.9694687246675546 0.2762463934919024 0  0.9690369508586942 0.2280606335839244 0  0.9689640452110301 0.1798762509219159 0  0.9690786590506962 0.131649441132439 0  0.9692914993378057 0.08334357899447149 0  0.9692410608364039 0.03496836642048249 0  0.9689261204886379 -0.01342765155659692 0  0.968345271789391 -0.06181340302516979 0  0.9674947345057893 -0.1101384125016683 0  0.9667215080807464 -0.1583859854234543 0  0.9661128046848375 -0.2065808785544816 0  0.969894015938379 0.3004023513959171 0  0.9691919948917002 0.2521495962467344 0  0.9690047540257989 0.1557700548502241 0  0.9693000819491324 0.05916064617245886 0  0.9686697539846213 -0.03762398832735801 0  0.9670943179457988 -0.1342698732011599 0  0.965918592579165 -0.2306661478286342 0  0.9689718264051224 0.2039715533616502 0  0.9691966989470717 0.1075110857385521 0  0.9691157657963142 0.01077104672979204 0  0.9679334824181455 -0.08598962354413316 0  0.9663909550869391 -0.182488757848297 0  0.7820869531088539 0.4986598864607254 0  0.9567659744152481 0.3746831916084397 0  0.9163514498896709 0.438142027039074 0  0.8548480125036161 0.4814732642745438 0  0.9631766110142457 0.337437100495791 0  0.9362976491222053 0.4061874792249656 0  0.8858409302408563 0.4600926118205823 0  0.8185391542615538 0.4901657756446289 0  0.9664302127289006 0.3188949674210515 0  0.9598962429747415 0.3560191968025973 0  0.9464371487094094 0.3904042473743864 0  0.9265105969185883 0.4222535785177635 0  0.9009298982855091 0.4488401979842415 0  0.8703534418212452 0.47083548379808 0  0.8366729668685912 0.4857315983878813 0  0.8003560543657184 0.4946525126159144 0  -0.02300038625789577 0.5663231946545433 0  0.7107435272169956 0.5041209354826368 0  0.662944520832896 0.5087206472543537 0  0.6150005615479172 0.5137319757971635 0  0.5669213267708518 0.519086651233978 0  0.5186840075075043 0.524733003369962 0  0.4702837036802827 0.5305254027268815 0  0.4217111679216706 0.5363625653806779 0  0.3729562983628099 0.542159652897254 0  0.3239982121906252 0.5477261904930895 0  0.2748479284459285 0.5528692749427484 0  0.2255144507851229 0.557435381029564 0  0.1760067804257943 0.561304267028541 0  0.1263525295640163 0.5641740331589287 0  0.07660652792690041 0.5659683924517225 0  0.02681566339131599 0.5666569388516726 0  0.7583995520762176 0.499999600515961 0  -0.07278251322141936 0.564626032469641 0  -0.1224465544098064 0.5617842326678262 0  -0.1719437741355832 0.5579713390799866 0  -0.2212076030198672 0.5533055408420426 0  -0.2702492375137552 0.5485114561213594 0  -0.319123743270503 0.5435759145610565 0  -0.3678509130303881 0.5385570451632631 0  -0.41643320226987 0.5335266139302755 0  -0.4648999481095182 0.5286347459352753 0  -0.5132616701566511 0.523851311248509 0  -0.5615213157158159 0.5192139963129601 0  -0.6096774464528428 0.5147678701718148 0  -0.6577216595917355 0.5105723694572725 0  -0.7056468285345597 0.5067254675793109 0  -0.7534491815562943 0.503279858024124 0  -0.7772281423977543 0.5022399759221017 0  -0.7295535644373585 0.5050062503727765 0  -0.6337138145249921 0.5126311016523563 0  -0.5374043018255665 0.5215118541596413 0  -0.4406804170568148 0.5310727544727568 0  -0.3435047975571708 0.5410749345659472 0  -0.2457516527547013 0.5509370272908567 0  -0.1472190430258627 0.5599843330105518 0  -0.04790211334269252 0.565623915086228 0  0.05171443267952158 0.5664540525277147 0  0.1511943015904207 0.5628675865359626 0  0.250203506634067 0.5552365944784271 0  0.3485014822982645 0.5449888886731723 0  0.4460197548347155 0.5334470433166146 0  0.5428222461679004 0.521888568544239 0  0.6389905479100607 0.5111845075582807 0  0.7345776486550163 0.5020664765186843 0  -0.6816994152204033 0.5086006416069097 0  -0.5856123752416207 0.5169656525099032 0  -0.4890936359140275 0.5262273471270452 0  -0.392161061600959 0.5360233073448971 0  -0.2947059058824045 0.5460578345511532 0  -0.1966183787706262 0.5556926272021644 0  -0.09763264797063913 0.5633367869130613 0  0.001917569647756843 0.5666424521071551 0  0.1014879733820473 0.5652093706943369 0  0.2007850865353042 0.5594752166494783 0  0.2994466430343271 0.5503602102983089 0  0.3973585730322806 0.5392683854916762 0  0.4945047687754374 0.527617197230281 0  0.5909782622086833 0.5163582491958046 0  0.6868619597022007 0.5063644946348415 0  -0.966613190691744 0.3055236016767734 0  -0.8502951292702229 0.4856621492738066 0  -0.9122066727331476 0.4428128103344303 0  -0.9530507071158042 0.3796437205874351 0  -0.8138255441306183 0.4940468887479329 0  -0.8814815037219824 0.4645384066028803 0  -0.9323378422094583 0.4110001623176393 0  -0.9596616564554843 0.3424817871472109 0  -0.7955699691987839 0.4983851223970986 0  -0.83203669904074 0.4897680301013186 0  -0.8658963430200655 0.4751610426835672 0  -0.8966722567239049 0.4533996347309709 0  -0.922464243885459 0.4270017840824675 0  -0.9425956800192926 0.3952953305370764 0  -0.956277462641214 0.3610233021064423 0  -0.9630224968229188 0.3239788038341124 0  -0.9663174411620069 0.281399818234768 0  -0.9649516603124243 -0.2486821889624622 0  -0.9650605478370524 -0.2005777949144872 0  -0.9654875604522015 -0.1524632171761137 0  -0.9660769976935445 -0.1043073849018087 0  -0.9667585599660109 -0.05607754807665995 0  -0.9671457806117179 -0.007785205060076704 0  -0.9672489758374532 0.04051837120338469 0  -0.9670731865690408 0.08880413115043295 0  -0.9666210750982382 0.1370237624558638 0  -0.9662759876833735 0.1851698478040987 0  -0.9661193324097674 0.2332815607174938 0  -0.9651097028580338 -0.2727818631327137 0  -0.9649518256527023 -0.2246285877424495 0  -0.965768004423638 -0.128391913187271 0  -0.9669888224049323 -0.03193486276802333 0  -0.9671967291041428 0.06466544627764025 0  -0.9664313117961711 0.1611030234402086 0  -0.9661569696223707 0.2573367631178546 0  -0.9652490276048289 -0.1765241067232876 0  -0.9664314083050372 -0.08020695018427652 0  -0.9672314120254353 0.01636702278347859 0  -0.9668587284375053 0.1129283096135381 0  -0.9661695346355798 0.2092278503671041 0  -0.9511063180041686 -0.34676532281657 0  -0.9098034161108909 -0.4096135087746459 0  -0.8475132141808145 -0.451920514207048 0  -0.9579742867531476 -0.3096965090935035 0  -0.9302110271788878 -0.3780168644804207 0  -0.8788737190847687 -0.4310829124297465 0  -0.8108917419744772 -0.4599191163404517 0  -0.961453532113009 -0.2912224949971391 0  -0.9544671602254839
[...]
<CellData  Scalars="f_1874"> 
<DataArray  type="Float64"  Name="f_1874"  format="ascii">1.1176667575963339e-01   1.1176668428363404e-01   1.1176515586102878e-01   1.1176607506209228e-01   1.1176567563318235e-01   1.1176504659195148e-01   1.1176616991070495e-01   1.1176703841139346e-01   1.1176391316165009e-01   1.1176514158781285e-01   1.1176305264885203e-01   1.1176378327107674e-01   1.1176690713968332e-01   1.1176756074977751e-01   1.1176598987072542e-01   1.1176729305527765e-01   1.1176468610726925e-01   1.1176283019606206e-01   1.1176490981489143e-01   1.1176545121000188e-01   1.1176374989466215e-01   1.1176594949373794e-01   1.1176519578522752e-01   1.1176484277251743e-01   1.1176588946026630e-01   1.1176558972291621e-01   1.1176436179274174e-01   1.1176655208511949e-01   1.1176676363701069e-01   1.1176664600708751e-01   1.1176696523722768e-01   1.1176784800866120e-01   1.1176245822741235e-01   1.1176476404693604e-01   1.1176146134796081e-01   1.1176194088831980e-01   1.1176443873093049e-01   1.1176255551670523e-01   1.1176305043045606e-01   1.1176539657988940e-01   1.1176424349482675e-01   1.1176719518139190e-01   1.1175351357021282e-01   1.1175775107593211e-01   1.1176443120112159e-01   1.1176416996835571e-01   1.1175831505349090e-01   1.1175954100884769e-01   1.1176763754872690e-01   1.1176778602757900e-01   1.1176692054377735e-01   1.1176759069628614e-01   1.1176736244732749e-01   1.1176838177738162e-01   1.1176548795370478e-01   1.1176801980628132e-01   1.1176683166031359e-01   1.1176480728882886e-01   1.1176063652318323e-01   1.1176173987712297e-01   1.1176846453251726e-01   1.1176554709238302e-01   1.1176321901146045e-01   1.1176238046994430e-01   1.1178335672200923e-01   1.1177452671601855e-01   1.1176835132581803e-01   1.1179194802159854e-01   1.1176731391885081e-01   1.1177522716255295e-01   1.1176675964449380e-01   1.1177424970938021e-01   1.1176818192865640e-01   1.1176541414946418e-01   1.1176431117095859e-01   1.1177585751653192e-01   1.1178861905378518e-01   1.1177037960433070e-01   1.1177008678307318e-01   1.1178790318672487e-01   1.1176291079292458e-01   1.1177318513451298e-01   1.1176273459889073e-01   1.1176540590718959e-01   1.1176661049054054e-01   1.1176008005261211e-01   1.1176713249836565e-01   1.1177102280632843e-01   1.1175924410785576e-01   1.1176858664385278e-01   1.1174708661076882e-01   1.1175668770954889e-01   1.1176184576464918e-01   1.1176712196029413e-01   1.1175629834253817e-01   1.1176612973047728e-01   1.1176155558307915e-01   1.1176041602484167e-01   1.1175767343093659e-01   1.1177011741061584e-01   1.1176063118152763e-01   1.1177306382381737e-01   1.1175498072851463e-01   1.1176244256154416e-01   1.1175882008564209e-01   1.1174918497104488e-01   1.1174139296888233e-01   1.1174768117402166e-01   1.1176910304468295e-01   1.1175032799414666e-01   1.1174436790979875e-01   1.1174268706769688e-01   1.1178647170869768e-01   1.1175993493045056e-01   1.1176123433808824e-01   1.1178339106790235e-01   1.1175068663560929e-01   1.1176136603841991e-01   1.1173611474544597e-01   1.1175505120727454e-01   1.1176777787431603e-01   1.1174207421396093e-01   1.1173962147585217e-01   1.1173834218637778e-01   1.1178570533999423e-01   1.1173028840980886e-01   1.1172466154292088e-01   1.1176884791018370e-01   1.1171392608331647e-01   1.1173989107893724e-01   1.1172812842595883e-01   1.1175238688938754e-01   1.1174536770937052e-01   1.1176272857487408e-01   1.1175735974047660e-01   1.1175321093448352e-01   1.1172978418732646e-01   1.1174515416716872e-01   1.1173186250578893e-01   1.1176233892600328e-01   1.1174744574542894e-01   1.1175404214780746e-01   1.1175812085423575e-01   1.1175160493192196e-01   1.1174712898774326e-01   1.1176431908743842e-01   1.1175904051444142e-01   1.1175781951298978e-01   1.1175925729203950e-01   1.1175779847018515e-01   1.1176043637067896e-01   1.1175763327719809e-01   1.1175896700175283e-01   1.1176208219536549e-01   1.1176045307953843e-01   1.1176021721579114e-01   1.1175750475101535e-01   1.1176106993150028e-01   1.1175993556389796e-01   1.1175671780325966e-01   1.1173421139665994e-01   1.1174858222479608e-01   1.1173683011365672e-01   1.1176553137759185e-01   1.1175118029047099e-01   1.1176731258208437e-01   1.1176088888768521e-01   1.1176023657891770e-01   1.1173833861334385e-01   1.1175045324231560e-01   1.1174018641667917e-01   1.1176655469998727e-01   1.1176075310810191e-01   1.1175926053929128e-01   1.1175995541141752e-01   1.1176123112524261e-01   1.1175363550633599e-01   1.1175871850260932e-01   1.1176228284984156e-01   1.1175588827334457e-01   1.1176173033178792e-01   1.1176408357845331e-01   1.1176317614415933e-01   1.1176094918966352e-01   1.1176185524209009e-01   1.1176132280134474e-01   1.1176142529823400e-01   1.1176196477875180e-01   1.1175770786010249e-01   1.1176150190402682e-01   1.1176408418937563e-01   1.1176165508350339e-01   1.1170021155624792e-01   1.1175115523126967e-01   1.1173666486244459e-01   1.1171547421663557e-01   1.1176405665453631e-01   1.1175073551096618e-01   1.1176962530678931e-01   1.1175787546097518e-01   1.1174452846331631e-01   1.1176732796915322e-01   1.1175794528905642e-01   1.1175415454205025e-01   1.1172968838945613e-01   1.1176402870635342e-01   1.1176014655271958e-01   1.1174123912216788e-01   1.1177191962478808e-01   1.1176320722059628e-01   1.1177571530807331e-01   1.1177175142240059e-01   1.1177024174119926e-01   1.1177629289931286e-01   1.1176874458674582e-01   1.1176301014744552e-01   1.1178034531150829e-01   1.1177616263905965e-01   1.1178186518371294e-01   1.1178006918231245e-01   1.1177413216246479e-01   1.1176699698497229e-01   1.1177758498034833e-01   1.1176849514245381e-01   1.1176756640076425e-01   1.1177612956312655e-01   1.1177523141825253e-01   1.1176990495807718e-01   1.1178030483849852e-01   1.1177714601212824e-01   1.1178188183639934e-01   1.1177963554515738e-01   1.1178269920979748e-01   1.1178280559742611e-01   1.1178395544930388e-01   1.1177782095560566e-01   1.1177705487333080e-01   1.1178207601672217e-01   1.1177747202471978e-01   1.1177569858670112e-01   1.1174986373429587e-01   1.1177234610106752e-01   1.1177194779887903e-01   1.1175612519528524e-01   1.1178092823859392e-01   1.1177716090592399e-01   1.1178129137734732e-01   1.1177550673252552e-01   1.1177478768159946e-01   1.1178123766053816e-01   1.1177453812678469e-01   1.1177257983401406e-01   1.1176332517490281e-01   1.1177736098883662e-01   1.1177430033865449e-01   1.1176030390632702e-01   1.1178075002356692e-01   1.1179268363523279e-01   1.1179673869553806e-01   1.1178405483103238e-01   1.1179734990513811e-01   1.1180071568321878e-01   1.1179843429925387e-01   1.1179472687448139e-01   1.1179218038921686e-01   1.1179479839991392e-01   1.1179208074269111e-01   1.1179681067251382e-01   1.1178793764913900e-01   1.1179567412993272e-01   1.1180046026467291e-01   1.1179076944031122e-01   1.1179355668051509e-01   1.1179691981552564e-01   1.1179534803281965e-01   1.1179650514949750e-01   1.1179714976817647e-01   1.1179678488726677e-01   1.1179842324444622e-01   1.1179722680755969e-01   1.1179549887352920e-01   1.1179816617989979e-01   1.1179608655516571e-01   1.1179727611958030e-01   1.1179861558791025e-01   1.1180097746453574e-01   1.1179902520191731e-01   1.1179768980785985e-01   1.1179058063362723e-01   1.1179167891395167e-01   1.1178915786450741e-01   1.1179594944724504e-01   1.1178962552409741e-01   1.1179477211289141e-01   1.1179164113597331e-01   1.1179353907116139e-01   1.1178664872508161e-01   1.1178663399958678e-01   1.1178671148973147e-01   1.1179411442494681e-01   1.1179604582686296e-01   1.1179388078182509e-01   1.1179550175267501e-01   1.1179776462532293e-01   1.1179339013835413e-01   1.1179735160581719e-01   1.1180120068763495e-01   1.1179655122494506e-01   1.1179913058308644e-01   1.1180128667129052e-01   1.1179943196548379e-01   1.1180011102527701e-01   1.1179920472703375e-01   1.1179776957260264e-01   1.1179932446457304e-01   1.1180021240735243e-01   1.1179699478871548e-01   1.1179874274556252e-01   1.1180215288642945e-01   1.1179672152033367e-01   1.1176538326307310e-01   1.1176188220508973e-01   1.1176411686434447e-01   1.1176218468673110e-01   1.1176227835971525e-01   1.1176293688517373e-01   1.1176089589811919e-01   1.1176179447659602e-01   1.1176292617318145e-01   1.1176175963244828e-01   1.1176274932980752e-01   1.1176192537596770e-01   1.1176280289021763e-01   1.1176009186358797e-01   1.1176250030912238e-01   1.1176181843019434e-01   1.1176191299743819e-01   1.1176186085355939e-01   1.1176067450288212e-01   1.1176055411101178e-01   1.1176130232595237e-01   1.1175919920192427e-01   1.1176055779085900e-01   1.1176178284571624e-01   1.1176019351493298e-01   1.1176250307958049e-01   1.1175562219626792e-01   1.1175815250319000e-01   1.1175965207034216e-01   1.1176172222651794e-01   1.1175768325182993e-01   1.1175838055406501e-01   1.1176304681963624e-01   1.1176246496485434e-01   1.1176344755768833e-01   1.1176180336167819e-01   1.1176421812763210e-01   1.1176444066216230e-01   1.1176060999912299e-01   1.1176205489281991e-01   1.1176639449484584e-01   1.1176310760120917e-01   1.1176014315315945e-01   1.1175716796605255e-01   1.1176356425381355e-01   1.1175822540818821e-01   1.1175553821624785e-01   1.1175359326568977e-01   1.1176078429385809e-01   1.1175583545343203e-01   1.1176004209148266e-01   1.1175878462168146e-01   1.1175604866650916e-01   1.1176064367099814e-01   1.1174993932563619e-01   1.1175384058637430e-01   1.1176145182028274e-01   1.1175280650162121e-01   1.1175163112891048e-01   1.1174953961614963e-01   1.1175853422640107e-01   1.1174565517234654e-01   1.1174735082551814e-01   1.1174606644249922e-01   1.1175313188228757e-01   1.1175179355321523e-01   1.1176183416490290e-01   1.1175574519834178e-01   1.1175623452427091e-01   1.1176197333583805e-01   1.1175769040813924e-01   1.1175356518845506e-01   1.1176276452614758e-01   1.1175883654433587e-01   1.1176452121642279e-01   1.1176265392417069e-01   1.1175653826330151e-01   1.1175570802339307e-01   1.1176219244625668e-01   1.1175752513224768e-01   1.1176116530325869e-01   1.1176398222528336e-01   1.1176137172611671e-01   1.1175959820556117e-01   1.1176332538964484e-01   1.1176029641463964e-01   1.1176224446243141e-01   1.1176246508903094e-01   1.1176162951161762e-01   1.1176289684508173e-01   1.1176151208475074e-01   1.1176103702346610e-01   1.1175893617320003e-01   1.1176238884915149e-01   1.1176011886961716e-01   1.1175752134012332e-01   1.1176568340625960e-01   1.1176300424593781e-01   1.1176638445254453e-01   1.1176472392715317e-01   1.1176409804962444e-01   1.1176528532684828e-01   1.1176308843505520e-01   1.1176281114234780e-01   1.1176755599863333e-01   1.1176626951420773e-01   1.1176463778161248e-01   1.1176503210852677e-01   1.1176389601668839e-01   1.1176223943934706e-01   1.1176293610531542e-01   1.1176193692715743e-01   1.1175834798078982e-01   1.1175909710139365e-01   1.1176252100269438e-01   1.1175924244946378e-01   1.1176123111153989e-01   1.1176299854810319e-01   1.1176207476969086e-01   1.1176101225920580e-01   1.1176223124926794e-01   1.1176136452817248e-01   1.1176134939237002e-01   1.1176109833210908e-01   1.1175952405187420e-01   1.1176102834176149e-01   1.1176220081362218e-01   1.1176225344778755e-01   1.1177875372605818e-01   1.1177387994391354e-01   1.1176861663673927e-01   1.1176833980494220e-01   1.1177005595060380e-01   1.1175988329231208e-01   1.1176646575078901e-01   1.1177150458205340e-01   1.1176810244120131e-01   1.1176850429212933e-01   1.1176689826126912e-01   1.1175954348810432e-01   1.1177177127800839e-01   1.1177101114665328e-01   1.1176195165532746e-01   1.1177168483251727e-01   1.1176634811565865e-01   1.1175786870900632e-01   1.1176301766190842e-01   1.1176490392320566e-01   1.1176118313024228e-01   1.1176519962539157e-01   1.1176243948417261e-01   1.1176236497395536e-01   1.1176350667343626e-01   1.1176108043981990e-01   1.1176356981671719e-01   1.1176439440354155e-01   1.1176640235617960e-01   1.1176152941273403e-01   1.1176539990003934e-01   1.1177010161536539e-01   1.1176646798605436e-01   1.1176512766908621e-01   1.1176606971601218e-01   1.1175743265835787e-01   1.1176277330257763e-01   1.1175666154822109e-01   1.1176083837358484e-01   1.1176175460332931e-01   1.1176781179621888e-01   1.1176650880819970e-01   1.1176383661473194e-01   1.1175950822757397e-01   1.1176059043088783e-01   1.1176308710872278e-01   1.1176228887850467e-01   1.1176262936986529e-01   1.1177211667179608e-01   1.1176927674519890e-01   1.1176160002780473e-01   1.1177210797745071e-01   1.1176447902923263e-01   1.1176086420079182e-01   1.1176362700545929e-01   1.1176768157029451e-01   1.1176253014336053e-01   1.1176429691582901e-01   1.1176325235220998e-01   1.1176409240417366e-01   1.1177241912044941e-01   1.1176866126511618e-01   1.1176240846522903e-01   1.1176949629816575e-01   1.1168155164862535e-01   1.1171476082152924e-01   1.1170447215557944e-01   1.1173143463205337e-01   1.1173056177311977e-01   1.1175647751139352e-01   1.1174590246832239e-01   1.1173149127965522e-01   1.1171063941541393e-01   1.1173474994898502e-01   1.1171817194537705e-01   1.1175472802547576e-01   1.1172797777128547e-01   1.1173597753762084e-01   1.1175392272335526e-01   1.1173877714364262e-01   1.1174039914783175e-01   1.1175834334338930e-01   1.1175278365444533e-01   1.1174903646945512e-01   1.1175468258215863e-01   1.1174993294106650e-01   1.1175785889721875e-01   1.1175214570504893e-01   1.1175400174475149e-01   1.1176204104066595e-01   1.1175370696690459e-01   1.1175452164295746e-01   1.1174750794148271e-01   1.1176079663140788e-01   1.1175212174344425e-01   1.1174206272652469e-01   1.1172375681902970e-01   1.1174412574430455e-01   1.1172794732388498e-01   1.1175966152255795e-01   1.1174847635535935e-01   1.1176374891325762e-01   1.1175521864613716e-01   1.1175628272532762e-01   1.1173338852464991e-01   1.1174614789236328e-01   1.1172913818193207e-01   1.1175354094198799e-01   1.1175847454118427e-01   1.1175282305318202e-01   1.1174894721813272e-01   1.1175217000827470e-01   1.1174514284744898e-01   1.1174763316443209e-01   1.1176421017045643e-01   1.1175072524285366e-01   1.1175656252381100e-01   1.1176986888156148e-01   1.1175770381032792e-01   1.1175355741540073e-01   1.1176339742031181e-01   1.1175435600281308e-01   1.1175456030136864e-01   1.1175721004899629e-01   1.1175731361138007e-01   1.1175337227636403e-01   1.1176249514593747e-01   1.1176285511422085e-01   1.1178579958454396e-01   1.1179076118625457e-01   1.1177952720836708e-01   1.1178146978248930e-01   1.1178667290653757e-01   1.1177347400584366e-01   1.1178189730016616e-01   1.1178666808653161e-01   1.1177348456647249e-01   1.1178248998213704e-01   1.1176571031680629e-01   1.1176632092151403e-01   1.1177667024187259e-01   1.1178199652359481e-01   1.1176707585222569e-01   1.1177078412881244e-01   1.1177713190392052e-01   1.1175718556613200e-01   1.1177057097321212e-01   1.1177690843449951e-01   1.1174778103333356e-01   1.1177048143548979e-01   1.1174858238499849e-01   1.1175856471550095e-01   1.1176331203554975e-01   1.1173594648549169e-01   1.1175498311629718e-01   1.1176303630122163e-01   1.1177628106857659e-01   1.1175913943907416e-01   1.1176932724512846e-01   1.1177607849814247e-01   1.1175645931118143e-01   1.1177014161900108e-01   1.1174623173900428e-01   1.1174672426411247e-01   1.1176264689470039e-01   1.1173615373443163e-01   1.1175282073641918e-01   1.1176250800527759e-01   1.1173237460663503e-01   1.1174779012926186e-01   1.1172943500840180e-01   1.1172558367075043e-01   1.1173649237830796e-01   1.1175423133296361e-01   1.1172596551571566e-01   1.1172215611799259e-01   1.1176377060773902e-01   1.1176869470352402e-01   1.1174904322613602e-01   1.1175450333953758e-01   1.1176122597104586e-01   1.1173712668828628e-01   1.1174883524334651e-01   1.1175915268117986e-01   1.1173618576949300e-01   1.1175372043022852e-01   1.1171695812641011e-01   1.1171361921539563e-01   1.1174599398257772e-01   1.1174477744195691e-01   1.1171339981623048e-01   1.1172106624968038e-01   1.1178266984393516e-01   1.1178264843415239e-01   1.1179056175918084e-01   1.1178172000705790e-01   1.1178255118446478e-01   1.1178491374321109e-01   1.1178399787351836e-01   1.1178157745517488e-01   1.1178972131764271e-01   1.1178403269461866e-01   1.1179045519011796e-01   1.1178553219368079e-01   1.1178556091545851e-01   1.1178521629394951e-01   1.1178906617328412e-01   1.1178765833199847e-01   1.1178504838785437e-01   1.1178635992287007e-01   1.1178645541045379e-01   1.1178506178238305e-01   1.1179045748352079e-01   1.1178851762160116e-01   1.1179160005788639e-01   1.1178947437035218e-01   1.1178957280381310e-01   1.1179171240784351e-01   1.1179301721649151e-01   1.1179073062912706e-01   1.1178727303303528e-01   1.1179097436232581e-01   1.1178976852696253e-01   1.1178762851361713e-01   1.1179048430824437e-01   1.1178616643466616e-01   1.1179064075319235e-01   1.1178708745466269e-01   1.1178710427736924e-01   1.1178670704316730e-01   1.1178993227623200e-01   1.1178740459571539e-01   1.1178915819665310e-01   1.1178905948165299e-01   1.1179278744847772e-01   1.1179099762785864e-01   1.1179019361477162e-01   1.1179188752074325e-01   1.1179427954705648e-01   1.1179560576195124e-01   1.1179011579224923e-01   1.1179026774122099e-01   1.1179344374829081e-01   1.1179226334259985e-01   1.1179206335370001e-01   1.1179480457556056e-01   1.1179406212740238e-01   1.1179139197062803e-01   1.1179325289702513e-01   1.1179413526403907e-01   1.1179704261436899e-01   1.1179770198444669e-01   1.1179529985794065e-01   1.1179712947978553e-01   1.1180027684340386e-01   1.1179859307991843e-01   1.1177157873879286e-01   1.1176982432771340e-01   1.1177065305763920e-01   1.1176671928997250e-01   1.1176752815547308e-01   1.1176432854108641e-01   1.1176534145240404e-01   1.1176630340946782e-01   1.1177065744902931e-01   1.1176705632823229e-01   1.1177049293996347e-01   1.1176479856010779e-01   1.1176660343174558e-01   1.1176631403340907e-01   1.1176500139790359e-01   1.1176603978540878e-01   1.1176638210085457e-01   1.1176494969020703e-01   1.1176445529921211e-01   1.1176501730561984e-01   1.1176588061318210e-01   1.1176533177379744e-01   1.1176553403306576e-01   1.1176595804446796e-01   1.1176601236122266e-01   1.1176861008428669e-01   1.1176354970052493e-01   1.1176643366473579e-01   1.1176544241941101e-01   1.1176479173720090e-01   1.1176533942606860e-01   1.1176599128709572e-01   1.1177065893671320e-01   1.1176559858690022e-01   1.1177023640087282e-01   1.1176464810225845e-01   1.1176589856066284e-01   1.1176742770192034e-01   1.1176150835534336e-01   1.1176482726718871e-01   1.1177323392501273e-01   1.1176082285488005e-01   1.1175923145489577e-01   1.1175567321463332e-01   1.1176883980922646e-01   1.1176260821295968e-01   1.1175874712441215e-01   1.1175889432524219e-01   1.1176620097615932e-01   1.1176605421056351e-01   1.1176468319792375e-01   1.1176603762693982e-01   1.1176650460821556e-01   1.1176758627435097e-01   1.1176450698895299e-01   1.1176713806890973e-01   1.1176848007195921e-01   1.1176410112604555e-01   1.1175932901091450e-01   1.1175961625411755e-01   1.1176922195557142e-01   1.1176470109198935e-01   1.1175842250219263e-01   1.1176170362058964e-01   1.1179844610529723e-01   1.1180255044843304e-01   1.1179967609341873e-01   1.1179949935353563e-01   1.1180076273427408e-01   1.1179839345094143e-01   1.1180063034491904e-01   1.1180150131349428e-01   1.1179765617878773e-01   1.1179988580257035e-01   1.1179590555455694e-01   1.1179672340554109e-01   1.1179862846712733e-01   1.1180104941030092e-01   1.1179714297258180e-01   1.1179740085820103e-01   1.1179835229570499e-01   1.1179459950996365e-01   1.1179753670137461e-01   1.1179924997050492e-01   1.1179237427452626e-01   1.1179826733541248e-01   1.1179290298727401e-01   1.1179501113259102e-01   1.1179635350960468e-01   1.1179002861313381e-01   1.1179442872137395e-01   1.1179705207645865e-01   1.1179985352