<?xml version="1.0"?>
<VTKFile type="UnstructuredGrid"  version="0.1"  >
<UnstructuredGrid>
<Piece  NumberOfPoints="4153" NumberOfCells="8064">
<Points>
<DataArray  type="Float64"  NumberOfComponents="3"  format="ascii">-0.4177982853532611 -0.5674407136875121 0  -0.04711151113254782 -0.6675294844492503 0  -0.09550192653014532 -0.6633500579618272 0  -0.1434146441903849 -0.6563142377960627 0  -0.1907825575832711 -0.6470186853134713 0  -0.2378368715324466 -0.6362810222875651 0  -0.2842479950110101 -0.6219896641443454 0  -0.3297340138636713 -0.6053548106179086 0  -0.3742689686798194 -0.5871118549631784 0  0.001556549415354502 -0.6684743660811926 0  -0.4606293460204018 -0.5484631336758365 0  -0.502933046142312 -0.5296411407135362 0  -0.5447734406268838 -0.5112717913955946 0  -0.586192755831913 -0.4937118193538954 0  -0.62734566722965 -0.4771857233456466 0  -0.6681867306164858 -0.4617396727503747 0  -0.7088291897059457 -0.4481228153106184 0  0.6924019549823861 -0.4664105249596054 0  0.05025089128693605 -0.666133796367384 0  0.0987176897069493 -0.6605607386006109 0  0.1467180238658817 -0.6519748739474218 0  0.1940517061446234 -0.6407158043563974 0  0.2406217206261953 -0.6274631270580414 0  0.2864221568962733 -0.612659394885974 0  0.331467267540566 -0.5967205390707342 0  0.3757876734350695 -0.5801065134397325 0  0.4194822316049671 -0.563203266068519 0  0.4626285220185245 -0.5463228666048471 0  0.50529728909273 -0.5296996433086024 0  0.5475447645007921 -0.5136663823965076 0  0.5894170702931379 -0.4982926245013781 0  0.6309420998837616 -0.4839728527036693 0  0.6722193664555719 -0.4712980257166886 0  0.6515257634926669 -0.4776499353815271 0  -0.6884119707657078 -0.4549860006209735 0  -0.6068104799686905 -0.4853585822594177 0  -0.5239020273651243 -0.5203972378087689 0  -0.4392664312824912 -0.5579303732498108 0  -0.3521197829558709 -0.5963431195081889 0  -0.261152996652026 -0.6294728131747803 0  -0.1671634008048757 -0.6519276119794605 0  -0.07135650096681691 -0.6658259392052082 0  0.6102169674458578 -0.4910461588381151 0  0.1227896038735523 -0.6566238120649084 0  0.2174323155107412 -0.6343101242999536 0  0.3090352660224316 -0.6048169651459798 0  0.397709902989253 -0.571670338448047 0  0.4840168673040843 -0.5379774583348385 0  0.5685299972473967 -0.5058763340737017 0  0.02591614712176782 -0.6677152878500188 0  -0.7286062230702633 -0.442674621386145 0  0.5264582539852978 -0.5215895253369356 0  0.4411192223809501 -0.5547480889330226 0  0.3537079782790351 -0.5884559476373983 0  0.2636178945619613 -0.620231203175835 0  0.1704814177086355 -0.6466418299763592 0  0.07452848789284296 -0.6637414525353122 0  -0.02279573270550873 -0.6684168330751368 0  -0.1195259685563211 -0.6601586269422468 0  -0.2143018507893682 -0.6419887719741612 0  -0.307109392238144 -0.613910031279831 0  -0.396226033738285 -0.577369489324751 0  -0.4818409700532928 -0.5390119987129131 0  -0.5655200083332415 -0.5023312770016111 0  -0.6477941064800635 -0.469393817181916 0  0.8539326942616294 -0.2776906198721681 0  0.755532245314677 -0.4450150103096336 0  0.8090850826676393 -0.4032407889772089 0  0.8437059198361109 -0.3450902960221438 0  0.7242493126007165 -0.4560997036236935 0  0.7830325790095554 -0.4250982430846696 0  0.8252934398551525 -0.3733269295573835 0  0.8481358709509571 -0.3110639196789877 0  0.7085323254466014 -0.4621969311446638 0  0.7398125658000186 -0.4501449905537546 0  0.7693303875704949 -0.4352171777397665 0  0.7956523802491294 -0.413451867545335 0  0.8180942422675794 -0.3887732936370736 0  0.8340485246595392 -0.3590867741674475 0  0.8455297819374766 -0.3279284132011841 0  0.8505987508384688 -0.2942892880931963 0  0.8533354620413772 -0.2558983201731782 0  0.8582595337825033 0.2238157544749936 0  0.8577191140054196 0.180550812324452 0  0.8582478257315712 0.1372194454300615 0  0.8592853485031589 0.09370796710070703 0  0.8605734223372492 0.04991360886966554 0  0.8609301975913819 0.00588703108996616 0  0.8604063732262029 -0.03818879586008213 0  0.8590107692687813 -0.08219354049666783 0  0.8567667343449848 -0.1259401582478015 0  0.8548374716230384 -0.1694064290642719 0  0.8534864397330033 -0.2126852757374292 0  0.859382774895794 0.2455901701022075 0  0.8578109183139123 0.2021800116398698 0  0.8587254307065796 0.1154908310344717 0  0.8608631381452075 0.02791480834889599 0  0.859820662355789 -0.06020808989393346 0  0.8557576875654489 -0.1477024626643415 0  0.8532162897920454 -0.2342918724121003 0  0.8579008364300684 0.1589022457609526 0  0.8599780663083345 0.07186222086483927 0  0.8607745435146195 -0.01615216192608056 0  0.8579184933642983 -0.1041185652172216 0  0.8540723238008566 -0.1910639790059639 0  0.7028358096855881 0.4364485969925687 0  0.8507831452304425 0.313303721203034 0  0.8175921117955706 0.3721954412264797 0  0.7651609658395875 0.4147801737624771 0  0.8545946325705014 0.2791410573787194 0  0.8334115792517456 0.3420887459219199 0  0.7920978221119275 0.3943368012058782 0  0.7342454169795789 0.4260320734922144 0  0.8567089093038723 0.2623008779147634 0  0.8523753530858708 0.2960843669994153 0  0.8417502421610142 0.3275886158942481 0  0.8262212395349772 0.3574941313097888 0  0.8044469008828599 0.3825652053380391 0  0.7786661401368558 0.4046777824468701 0  0.7496276712958536 0.4200514056485628 0  0.7187151710646038 0.4320833883529656 0  -0.03390414533314685 0.6724371658830622 0  0.6424819275968622 0.4554166261954913 0  0.6017027680573263 0.470863230441687 0  0.5605710759108581 0.4874443790076615 0  0.5190866479153164 0.5050238824222696 0  0.4771136226081594 0.523336329704907 0  0.4345907579502232 0.5420574459501649 0  0.391437894003153 0.5609292193863242 0  0.3475660283772911 0.5797596279164176 0  0.3028421165756977 0.5980290038198118 0  0.2572367321058104 0.6153225052659248 0  0.2107150586487602 0.6312215598729143 0  0.163243816266068 0.6453426754664688 0  0.1148709722595817 0.656827061803466 0  0.06576071117320413 0.6653266761149625 0  0.01611250287885237 0.6705175318368429 0  0.6830487104364364 0.4417673700978705 0  -0.0839509401656641 0.6699496550359182 0  -0.1335819690286562 0.6634793231227469 0  -0.1824395992947727 0.6533329515674769 0  -0.2301031383100463 0.6395449212114656 0  -0.2765987644429748 0.6244429024357799 0  -0.3221110289081512 0.6080967940547441 0  -0.3667167757821622 0.5908390303687248 0  -0.4104556611340795 0.5729533995888119 0  -0.4535400398730907 0.555257807247441 0  -0.4960852162200381 0.5377573716130873 0  -0.5381708021967527 0.5206468349815681 0  -0.5798606584959444 0.5041314056827964 0  -0.6211910716390782 0.4884096820769302 0  -0.6622144230954016 0.4738206649401754 0  -0.7030515960510723 0.4609648685305741 0  -0.7230154896317009 0.4560287287315021 0  -0.6825680233671442 0.4674205128007566 0  -0.6005681974056577 0.4961562593109302 0  -0.5171813319519684 0.5291429108089046 0  -0.432069455918482 0.5640968840517289 0  -0.3445218181029448 0.5995567240471601 0  -0.2534786640950819 0.63218235618029 0  -0.1581285448362835 0.6588074049137619 0  -0.05895225313607829 0.6716856201223194 0  0.04099138515922409 0.6683629589917072 0  0.1391607915112262 0.6514232425929195 0  0.234090581732751 0.6234746957701622 0  0.3253099034765192 0.5889961878784388 0  0.4130969734936392 0.5514912633951473 0  0.4981617184749013 0.5141185746671558 0  0.5811844178570311 0.47905076900121 0  0.6626982918373008 0.4486227951168885 0  -0.6417353902439965 0.4810224256088134 0  -0.5590606113650702 0.5123067491942721 0  -0.4748742633138715 0.5464701185921063 0  -0.3886988470304554 0.5819129170597578 0  -0.299472469935525 0.6164045167464249 0  -0.2064835045002783 0.6467764639639533 0  -0.1088415840380926 0.6671910635201962 0  -0.008836544596050227 0.6719744736293053 0  0.0903967106007713 0.6614729341511338 0  0.1871103794524508 0.6385702803883654 0  0.2801522276568199 0.6068243346496822 0  0.3696052980337686 0.5703685305476193 0  0.4559254793603265 0.5326634800384522 0  0.539880627719957 0.4961003585550909 0  0.6221302252376534 0.4630459749771647 0  -0.8825218048127569 0.2675413642574492 0  -0.7857747010765568 0.4350415984151174 0  -0.8388773061194985 0.3931863016957707 0  -0.8729129599087903 0.3348887952944312 0  -0.7546319266463246 0.4459398921527286 0  -0.8130313893280673 0.415016828654207 0  -0.8549581141343631 0.3632951399920983 0  -0.877133654675867 0.3008996056094352 0  -0.7390006354724512 0.4518650746044002 0  -0.7701206921220262 0.4401144944517769 0  -0.7994383221841499 0.42516442935933 0  -0.8255434952974208 0.4033876810285542 0  -0.8477174251643279 0.3786531878042502 0  -0.8635442333309572 0.3489833458291553 0  -0.8746717084538362 0.317751462110092 0  -0.8794810002087621 0.2841483637152502 0  -0.8817393624211219 0.245832140065985 0  -0.8852397550258078 -0.231734731905764 0  -0.8845282843378045 -0.1886364786790971 0  -0.8850045810927176 -0.1455132599861382 0  -0.8860753741803692 -0.1022312356787189 0  -0.8875012146508149 -0.05868076733857339 0  -0.8880613999898765 -0.01488491465970023 0  -0.8877672824063652 0.02896960782057296 0  -0.8866229572651857 0.07276780524027301 0  -0.8846018866011469 0.1163298875240607 0  -0.8828881040011565 0.1596220545553426 0  -0.8817373198440045 0.2027502039038947 0  -0.886322134789201 -0.2534834506941126 0  -0.8846910733097565 -0.2101780835642165 0  -0.8854920686736304 -0.1238984288783919 0  -0.8878911493449358 -0.03679800389965755 0  -0.887302972149926 0.05088364367321142 0  -0.8836986505292883 0.1380016511279868 0  -0.8815469688133551 0.2242861420542652 0  -0.8846751938957996 -0.1670885398777313 0  -0.8868181859155529 -0.08050803600865503 0  -0.8880173856971082 0.007042245476999588 0  -0.8856509775349036 0.09459958761623466 0  -0.8822247952850534 0.18120095304662 0  -0.8773898950812601 -0.3209735309561035 0  -0.8437448252531784 -0.379395253272938 0  -0.7910509735217457 -0.4215595476589204 0  -0.8813066732959951 -0.2869044309390731 0  -0.8596524430454057 -0.3494459513024508 0  -0.8181742780702037 -0.4014869651165999 0  -0.7600829084430044 -0.4326930113283161 0  -0.8834458703499501 -0.2701118477938351 0  -0.87900171606765
[...]
<PointData  Vectors="f_48"> 
<DataArray  type="Float64"  Name="f_48"  NumberOfComponents="3" format="ascii">1.7432835218265004e-06 1.6353821555673560e-06 0.0000000000000000e+00  -2.5504663714899991e-08 -1.3270081914745652e-07 0.0000000000000000e+00  5.6717537339412488e-08 2.2863198440318371e-07 0.0000000000000000e+00  2.1763469656033740e-07 5.7530032330901290e-07 0.0000000000000000e+00  4.4477895021263920e-07 9.0241282318366455e-07 0.0000000000000000e+00  5.6892327338283910e-07 1.1481004254207444e-06 0.0000000000000000e+00  9.5416040799952996e-07 1.2381509079943796e-06 0.0000000000000000e+00  1.2584001245287058e-06 1.3272121268516922e-06 0.0000000000000000e+00  1.3813162207941741e-06 1.5494690240860601e-06 0.0000000000000000e+00  -4.1452457335822778e-09 -4.9912734021675137e-07 0.0000000000000000e+00  1.7430888981110528e-06 1.8664292809936276e-06 0.0000000000000000e+00  1.7812954254120655e-06 2.0484276394890494e-06 0.0000000000000000e+00  1.7880117380927356e-06 2.1721109976816357e-06 0.0000000000000000e+00  1.7034021140876233e-06 2.3119972647811078e-06 0.0000000000000000e+00  1.5749260865749134e-06 2.4060803710187548e-06 0.0000000000000000e+00  1.3771512203429802e-06 2.5118223620394330e-06 0.0000000000000000e+00  1.1690924227187678e-06 2.3938606321170083e-06 0.0000000000000000e+00  6.0341881704162879e-07 -2.5621254298441825e-06 0.0000000000000000e+00  1.2241548301097409e-07 -8.4904998416501747e-07 0.0000000000000000e+00  3.4229655110595040e-07 -1.1609415841039556e-06 0.0000000000000000e+00  6.2290886356476003e-07 -1.4249792812120607e-06 0.0000000000000000e+00  9.4848710829949437e-07 -1.6474505095721769e-06 0.0000000000000000e+00  1.2316700710235964e-06 -1.8528750986484725e-06 0.0000000000000000e+00  1.4976246286063058e-06 -2.0292114588894632e-06 0.0000000000000000e+00  1.7403724390113311e-06 -2.1703629399073027e-06 0.0000000000000000e+00  1.8993124178597512e-06 -2.3259344271335365e-06 0.0000000000000000e+00  2.0108461129945521e-06 -2.4617016329277976e-06 0.0000000000000000e+00  2.0575406042274839e-06 -2.5783678064032962e-06 0.0000000000000000e+00  2.0635181740980228e-06 -2.6535675707241435e-06 0.0000000000000000e+00  1.9258660751698618e-06 -2.7522576323643329e-06 0.0000000000000000e+00  1.7666746766951460e-06 -2.8275448625328667e-06 0.0000000000000000e+00  1.5088111758701356e-06 -2.9049438414325319e-06 0.0000000000000000e+00  1.1915414973669042e-06 -2.8506559717465699e-06 0.0000000000000000e+00  1.3893609861561365e-06 -2.5718512005300587e-06 0.0000000000000000e+00  1.1784398645134820e-06 2.2796794062448840e-06 0.0000000000000000e+00  1.6946561425104830e-06 2.2611151559396830e-06 0.0000000000000000e+00  1.7830565001447798e-06 2.1195085568028614e-06 0.0000000000000000e+00  1.6102624566313307e-06 1.8804321815739228e-06 0.0000000000000000e+00  1.3492663947031185e-06 1.4469460839544332e-06 0.0000000000000000e+00  8.4969991493330357e-07 1.1366732270525713e-06 0.0000000000000000e+00  3.1823157263722389e-07 7.2975509166458906e-07 0.0000000000000000e+00  3.2430759660691653e-09 4.9119735541463195e-08 0.0000000000000000e+00  1.7624715200649123e-06 -2.6456876646464336e-06 0.0000000000000000e+00  4.7736633700487631e-07 -1.3000191871813918e-06 0.0000000000000000e+00  1.0878731009131005e-06 -1.7559713272005531e-06 0.0000000000000000e+00  1.6158596287855586e-06 -2.1044199620300492e-06 0.0000000000000000e+00  1.9754555441936466e-06 -2.3843089725784715e-06 0.0000000000000000e+00  2.0601972630300668e-06 -2.6129708900400467e-06 0.0000000000000000e+00  1.9350221751188842e-06 -2.6989482145946331e-06 0.0000000000000000e+00  4.4925868153591259e-08 -6.7803636128922341e-07 0.0000000000000000e+00  5.6304909625004588e-07 2.3682797571958018e-06 0.0000000000000000e+00  2.0026561641359798e-06 -2.7071911452849919e-06 0.0000000000000000e+00  2.0463108084066766e-06 -2.5126916027357353e-06 0.0000000000000000e+00  1.8315938554836605e-06 -2.2522248516116301e-06 0.0000000000000000e+00  1.3717001135680582e-06 -1.9393269616416555e-06 0.0000000000000000e+00  8.0830003202554616e-07 -1.5306805235856337e-06 0.0000000000000000e+00  2.2136234481406457e-07 -1.0109838139990059e-06 0.0000000000000000e+00  -2.7801183537703739e-08 -3.1694616334697010e-07 0.0000000000000000e+00  1.3569554590378107e-07 4.0069668690766418e-07 0.0000000000000000e+00  2.2289656494227571e-07 1.1440153546419637e-06 0.0000000000000000e+00  1.0980497393886516e-06 1.3005521918882015e-06 0.0000000000000000e+00  1.8042324369000212e-06 1.2981408350396305e-06 0.0000000000000000e+00  1.7657011764965374e-06 1.9641024002766755e-06 0.0000000000000000e+00  1.7880971756115331e-06 2.2219728186315735e-06 0.0000000000000000e+00  1.5770941247812168e-06 2.2207913417691985e-06 0.0000000000000000e+00  7.0194776016717647e-08 5.4949777793240738e-07 0.0000000000000000e+00  1.2961793613291555e-06 -9.8144164254972788e-07 0.0000000000000000e+00  9.6079061525155917e-07 5.7561216277742948e-08 0.0000000000000000e+00  4.2610210056173709e-07 7.0362005362796368e-07 0.0000000000000000e+00  1.7865046620906954e-06 -1.4700569415813629e-06 0.0000000000000000e+00  1.5240998481440778e-06 -1.6143625111434108e-07 0.0000000000000000e+00  1.1004353496340678e-06 9.2683919164858259e-07 0.0000000000000000e+00  2.1615126712580938e-07 7.7063394804037106e-07 0.0000000000000000e+00  1.2825027524390030e-06 -1.8528320978330812e-06 0.0000000000000000e+00  8.6759492949034069e-07 -2.2327697944920990e-06 0.0000000000000000e+00  1.7064987090218928e-06 -5.5523305844951758e-07 0.0000000000000000e+00  1.7315627022308121e-06 -7.0079875500154706e-07 0.0000000000000000e+00  6.7417240493006112e-07 1.0994299109644860e-06 0.0000000000000000e+00  1.1031863912802685e-06 -4.7428159709071795e-08 0.0000000000000000e+00  -1.9562912433042616e-07 8.5955266470038816e-07 0.0000000000000000e+00  3.2111943181698600e-07 6.9772461511026150e-07 0.0000000000000000e+00  -4.2094784223862382e-07 6.1497493237252462e-07 0.0000000000000000e+00  -2.2058387048877289e-07 -2.2572386847682930e-07 0.0000000000000000e+00  -5.4175858091880975e-08 -1.4837869880916583e-07 0.0000000000000000e+00  -1.3837956909862440e-08 -5.9673451438864634e-08 0.0000000000000000e+00  -3.5779157182770642e-09 2.4946425351099194e-08 0.0000000000000000e+00  -5.5871868440638184e-09 1.1320958303216928e-07 0.0000000000000000e+00  5.1120577427526967e-10 2.0700752648405010e-07 0.0000000000000000e+00  1.2552380952087210e-08 2.9568351496688869e-07 0.0000000000000000e+00  3.3516369110642371e-08 3.8213504250913607e-07 0.0000000000000000e+00  2.7025165239757816e-08 4.7111126047952749e-07 0.0000000000000000e+00  -9.9620820664295033e-09 5.3719369624012349e-07 0.0000000000000000e+00  -9.9098447450903761e-08 5.9391756208586956e-07 0.0000000000000000e+00  -1.1185904951589990e-08 -2.5819124553200977e-07 0.0000000000000000e+00  -2.3752309347032938e-08 -1.9368671199228299e-07 0.0000000000000000e+00  -6.6531568910038157e-09 -1.5398061435893368e-08 0.0000000000000000e+00  -2.6134766751992977e-09 1.6225859775564039e-07 0.0000000000000000e+00  1.9059095185673952e-08 3.3887339213612506e-07 0.0000000000000000e+00  9.9436946600102559e-09 5.0201434560289917e-07 0.0000000000000000e+00  -3.7200644807881102e-08 6.1146575577927440e-07 0.0000000000000000e+00  -1.7760436050147287e-08 -1.0388956925427152e-07 0.0000000000000000e+00  -5.7509876990189289e-09 7.4038023777530567e-08 0.0000000000000000e+00  5.6413870717639764e-09 2.5190482969423569e-07 0.0000000000000000e+00  4.2548899001827391e-08 4.2199566428354559e-07 0.0000000000000000e+00  -2.0681642518941655e-08 5.6566630435851749e-07 0.0000000000000000e+00  5.6714669173139951e-07 2.2471902696207108e-06 0.0000000000000000e+00  2.6619035207944034e-07 -4.9494798430753862e-07 0.0000000000000000e+00  7.6598769135756403e-07 -9.6532519956990288e-08 0.0000000000000000e+00  1.1491233381991056e-06 7.9595176752698243e-07 0.0000000000000000e+00  1.1311776737652414e-07 -4.6172413252773863e-07 0.0000000000000000e+00  8.0676359038694954e-07 -6.7878748466139581e-07 0.0000000000000000e+00  1.2915276663043894e-06 1.0164607955648881e-07 0.0000000000000000e+00  1.5214557858248875e-06 1.2727302181720689e-06 0.0000000000000000e+00  1.4157795842268721e-07 -3.7963567249729426e-07 0.0000000000000000e+00  -1.5480556038546938e-07 -5.4081159828101505e-07 0.0000000000000000e+00  7.9652908076909665e-07 -7.3160755747134822e-08 0.0000000000000000e+00  5.3422540958913064e-07 -8.9764091627845708e-07 0.0000000000000000e+00  1.4553527410903615e-06 5.4256187099814931e-07 0.0000000000000000e+00  1.4644592072665016e-06 3.8786820324087879e-07 0.0000000000000000e+00  7.4466122068006643e-07 1.9121232662784276e-06 0.0000000000000000e+00  1.1205461006757430e-06 1.6115466111102885e-06 0.0000000000000000e+00  -1.9583770092064168e-08 -3.4100846109086883e-07 0.0000000000000000e+00  1.3454581724827766e-06 2.5052282607908406e-06 0.0000000000000000e+00  1.5760965960400517e-06 2.3863502223335982e-06 0.0000000000000000e+00  1.7249369767117720e-06 2.2915492889117425e-06 0.0000000000000000e+00  1.7907060812179257e-06 2.1951582585818877e-06 0.0000000000000000e+00  1.8013162541865346e-06 2.0792456762034781e-06 0.0000000000000000e+00  1.7591016093164638e-06 1.9389099208545717e-06 0.0000000000000000e+00  1.6689558442896024e-06 1.7801533393865388e-06 0.0000000000000000e+00  1.5106773287547819e-06 1.6099410432327701e-06 0.0000000000000000e+00  1.3074034624904340e-06 1.4457657107035520e-06 0.0000000000000000e+00  1.0738675765271655e-06 1.2593007279748324e-06 0.0000000000000000e+00  8.2152805063034412e-07 1.0530707591539824e-06 0.0000000000000000e+00  5.3645664804631030e-07 8.3552276431548841e-07 0.0000000000000000e+00  2.9389359940663386e-07 5.8661328883343738e-07 0.0000000000000000e+00  1.0122643332417512e-07 2.9886014985095881e-07 0.0000000000000000e+00  -2.1774763162101909e-09 -2.5166681084933199e-08 0.0000000000000000e+00  1.0825754614278762e-06 2.4676342293177350e-06 0.0000000000000000e+00  1.1121527963549654e-07 -6.3278725302842254e-07 0.0000000000000000e+00  3.6480191204803321e-07 -8.7124693256256118e-07 0.0000000000000000e+00  6.3690106022370344e-07 -1.0578269521164583e-06 0.0000000000000000e+00  9.7675856784850812e-07 -1.2732455071599600e-06 0.0000000000000000e+00  1.2203441514352758e-06 -1.4906418666073127e-06 0.0000000000000000e+00  1.4430237067945879e-06 -1.6955902125658982e-06 0.0000000000000000e+00  1.6394690121509832e-06 -1.8749343100148468e-06 0.0000000000000000e+00  1.8395782258531333e-06 -2.0526204505985490e-06 0.0000000000000000e+00  1.9188319068060337e-06 -2.2201301556599809e-06 0.0000000000000000e+00  1.9520378043044470e-06 -2.3677135736419877e-06 0.0000000000000000e+00  1.9393657401738377e-06 -2.4802635895950806e-06 0.0000000000000000e+00  1.8439540223852892e-06 -2.5842250836464791e-06 0.0000000000000000e+00  1.6672774796313507e-06 -2.6954119085327635e-06 0.0000000000000000e+00  1.4088221644581602e-06 -2.8060211327476030e-06 0.0000000000000000e+00  1.1113934017794712e-06 -2.7588352225345445e-06 0.0000000000000000e+00  5.4225296475632867e-07 -2.4830982534420156e-06 0.0000000000000000e+00  1.2889117598811763e-06 -2.4655478786573350e-06 0.0000000000000000e+00  1.8263405424132058e-06 -2.5545441861584611e-06 0.0000000000000000e+00  1.9537994383419333e-06 -2.4235416048949347e-06 0.0000000000000000e+00  1.8531657989985175e-06 -2.1613779065405331e-06 0.0000000000000000e+00  1.5373378090409660e-06 -1.8050632736677605e-06 0.0000000000000000e+00  1.0398447074156643e-06 -1.4219985777860408e-06 0.0000000000000000e+00  4.7531487770932863e-07 -9.9363464939633869e-07 0.0000000000000000e+00  4.6853767619626127e-08 -4.8655913466752170e-07 0.0000000000000000e+00  2.5298596993235847e-08 1.4652186419188542e-07 0.0000000000000000e+00  4.1020290545938738e-07 7.1919886357532250e-07 0.0000000000000000e+00  9.3576642995166299e-07 1.1690188293659116e-06 0.0000000000000000e+00  1.4092925097390875e-06 1.5347338715413585e-06 0.0000000000000000e+00  1.7140800657585617e-06 1.8662159954590954e-06 0.0000000000000000e+00  1.8008419281075944e-06 2.1405566456762479e-06 0.0000000000000000e+00  1.6962477004615971e-06 2.2599333234437233e-06 0.0000000000000000e+00  1.2148591388865413e-06 2.2068082177210231e-06 0.0000000000000000e+00  1.6701791836292217e-06 -2.5082510239095470e-06 0.0000000000000000e+00  1.9074115999307770e-06 -2.5205869438064264e-06 0.0000000000000000e+00  1.9361357101260200e-06 -2.3026964199571373e-06 0.0000000000000000e+00  1.8132997766852459e-06 -1.9048000136546003e-06 0.0000000000000000e+00  1.3073138607018878e-06 -1.6189883654896385e-06 0.0000000000000000e+00  1.0534705654509407e-06 -1.0247132286692240e-06 0.0000000000000000e+00  2.1537856000392868e-07 -7.6339332016029896e-07 0.0000000000000000e+00  -5.2919336478274103e-08 -1.7241595858931794e-07 0.0000000000000000e+00  1.8032887895796616e-07 4.5185978108274943e-07 0.0000000000000000e+00  7.1581757528751486e-07 9.2476491516097111e-07 0.0000000000000000e+00  1.1920301612945877e-06 1.3559663371833818e-06 0.0000000000000000e+00  1.6181321301452555e-06 1.6785796420894511e-06 0.0000000000000000e+00  1.7867931559808000e-06 2.0094383260189558e-06 0.0000000000000000e+00  1.7896981061373931e-06 2.2255015787895217e-06 0.0000000000000000e+00  1.5712121850719295e-06 2.2143123842561129e-06 0.0000000000000000e+00  3.1575066363749158e-08 4.6567691408865190e-07 0.0000000000000000e+00  1.2432226832632492e-06 -9.2155706911639801e-07 0.0000000000000000e+00  8.9367539567006851e-07 7.3044782263537156e-08 0.0000000000000000e+00  3.7302403741934872e-07 6.3570541909545794e-07 0.0000000000000000e+00  1.6641730749123949e-06 -1.4371629550061632e-06 0.0000000000000000e+00  1.4480529178715481e-06 -1.4583242968313800e-07 0.0000000000000000e+00  1.0031913669437146e-06 8.3123303275808692e-07 0.0000000000000000e+00  1.8313473069307897e-07 6.7765213980321012e-07 0.0000000000000000e+00  1.2088989472251275e-06 -1.7893564183512339e-06 0.0000000000000000e+00  7.8361969379408796e-07 -2.1353898361861951e-06 0.0000000000000000e+00  1.6241613444936523e-06 -4.9274607979637914e-07 0.0000000000000000e+00  1.6392141852383132e-06 -6.6165935119074122e-07 0.0000000000000000e+00  6.3454845544904365e-07 1.0405577321113827e-06 0.0000000000000000e+00  9.9905975850809443e-07 1.8370602456029077e-08 0.0000000000000000e+00  -1.8506028752449815e-07 7.6079205677177732e-07 0.0000000000000000e+00  2.5641526987179162e-07 6.0099822866872539e-07 0.0000000000000000e+00  -3.6838396256743102e-07 5.0576507817909744e-07 0.0000000000000000e+00  -2.5765024900142221e-07 -2.6642226696548493e-07 0.0000000000000000e+00  -6.6198424527308355e-08 -2.0769738276073386e-07 0.0000000000000000e+00  -1.7408553919861707e-08 -1.3244566154666575e-07 0.0000000000000000e+00  -1.5892834042641698e-09 -5.9542808937714208e-08 0.0000000000000000e+00  -1.7870786624803751e-09 1.9912581012287129e-08 0.0000000000000000e+00  -8.1228964863205480e-10 1.0424958578584114e-07 0.0000000000000000e+00  5.8698101896972468e-09 1.8502837408485056e-07 0.0000000000000000e+00  1.9976950795218339e-08 2.6559399276195358e-07 0.0000000000000000e+00  1.6800485190072603e-08 3.4756178239395526e-07 0.0000000000000000e+00  -1.4721531744654623e-08 4.1147923377559032e-07 0.0000000000000000e+00  -9.0513358767498962e-08 4.7140618001052420e-07 0.0000000000000000e+00  6.6066745886316636e-09 -2.9287274087931617e-07 0.0000000000000000e+00  -3.4233128861385154e-08 -2.4678343999223094e-07 0.0000000000000000e+00  -7.8023230325274413e-09 -9.3914520754330839e-08 0.0000000000000000e+00  -2.0293947676971123e-09 6.3741456708528331e-08 0.0000000000000000e+00  9.8900041696016808e-09 2.2482194411148887e-07 0.0000000000000000e+00  1.5424507518770918e-09 3.7744147359000860e-07 0.0000000000000000e+00  -3.3579040423633455e-08 4.9331853624982327e-07 0.0000000000000000e+00  -2.3407785848375039e-08 -1.7018341753442857e-07 0.0000000000000000e+00  -7.2759154276667157e-11 -1.5448009987097779e-08 0.0000000000000000e+00  1.6141767901686206e-09 1.4492585108814349e-07 0.0000000000000000e+00  2.7264238333693498e-08 3.0185170541684366e-07 0.0000000000000000e+00  -2.3392560564141342e-08 4.4116364854249031e-07 0.0000000000000000e+00  2.9025259335762433e-07 -5.2380913779746095e-07 0.0000000000000000e+00  7.9470353313535162e-07 -7.8055311651193619e-08 0.0000000000000000e+00  1.1541531629596316e-06 8.2761114588100554e-07 0.0000000000000000e+00  1.2240301168698046e-07 -4.9815740554019073e-07 0.0000000000000000e+00  8.4347766408952305e-07 -7.3334095401000372e-07 0.0000000000000000e+00  1.3024173891536658e-06 1.1797250519912878e-07 0.0000000000000000e+00  1.5540793679412815e-06 1.2760640731128290e-06 0.0000000000000000e+00  1.6675248736482162e-07 -4.2128065918008707e-07 0.0000000000000000e+00  -1.5993569219878548e-07 -5.7646781403252706e-07 0.0000000000000000e+00  8.4763406636057119e-07 -1.8761593034221791e-08 0.0000000000000000e+00  5.4485359534065228e-07 -9.0581925252695183e-07 0.0000000000000000e+00  1.4912086246997872e-06 5.4962069467803812e-07 0.0000000000000000e+00  1.4818840750221466e-06 4.5065968759991190e-07 0.0000000000000000e+00  7.4802670029746532e-07 1.9505847568956033e-06 0.0000000000000000e+00  1.0349627813116472e-06 1.6690664537823345e-06 0.0000000000000000e+00  1.1377473600422991e+03 -8.6905395094408073e+02 0.0000000000000000e+00  1.2184299669153950e+03 -1.0392252466441273e+03 0.0000000000000000e+00  4.9327389252665014e+01 1.6168228739308719e+02 0.0000000000000000e+00  1.2929096304729946e+03 2.1178810673317423e+02 0.0000000000000000e+00  1.3142079020487558e+03 2.3606124034174110e+02 0.0000000000000000e+00  1.6406596949578545e+02 4.4539433486859991e+02 0.0000000000000000e+00  3.3651790260476611e+02 5.2233462505265777e+02 0.0000000000000000e+00  2.8811850656938998e+02 4.6098390061671034e+02 0.0000000000000000e+00  1.8310345831416817e+02 -3.1837908506219344e+02 0.0000000000000000e+00  1.5788859337230090e+02 -2.8248555339601029e+02 0.0000000000000000e+00  9.8245529912792301e+02 -1.0107369966858430e+02 0.0000000000000000e+00  5.1593785328611830e+02 -5.2924001936233117e+02 0.0000000000000000e+00  7.4515858142132197e+02 -4.6478994420890137e+02 0.0000000000000000e+00  6.7696106587080195e+01 4.9440522593863983e+02 0.0000000000000000e+00  2.1823325879895000e+02 6.3880434386755962e+02 0.0000000000000000e+00  8.3574571384474119e+00 2.6288119937462540e+02 0.0000000000000000e+00  6.9003650475566803e+02 7.0092792314142018e+00 0.0000000000000000e+00  6.9212087189139777e+02 2.7147210418467131e+02 0.0000000000000000e+00  -1.7611572118478616e+01 -9.4333688628863058e+01 0.0000000000000000e+00  -1.9623543383636195e+02 -1.0342734450325595e+02 0.0000000000000000e+00  1.0321111756160869e+03 1.0202194348495794e+02 0.0000000000000000e+00  2.8687488351093651e+02 -1.8843427943387630e+02 0.0000000000000000e+00  1.0827055266052217e+02 4.8501129857730939e+02 0.0000000000000000e+00  9.9895054138935109e+02 -9.7230730181920109e+01 0.0000000000000000e+00  5.3951037647049407e+02 -5.5618324884960145e+02 0.0000000000000000e+00  9.8418611786854071e-01 1.5122228526100682e+02 0.0000000000000000e+00  9.0278502368897421e+02 7.7414469765119293e+02 0.0000000000000000e+00  1.2938157521159853e+03 -4.6872594289331197e+01 0.0000000000000000e+00  2.3753346128912753e+02 -6.5483741560835927e+02 0.0000000000000000e+00  1.1966213205902127e+03 3.9968313111152725e+01 0.0000000000000000e+00  1.4850993240844884e+03 -4.1380626657079591e+02 0.0000000000000000e+00  1.0250813803998110e+03 6.8885848637278082e+02 0.0000000000000000e+00  1.6648669249383750e+03 5.1608789688947934e+02 0.0000000000000000e+00  3.1096656594063916e+02 -8.9879879874372148e+02 0.0000000000000000e+00  9.5509348407575806e+02 5.7976611740030444e+02 0.0000000000000000e+00  1.1301350680857304e+03 8.2804096735893893e+02 0.0000000000000000e+00  6.7353250049766200e+02 -4.8214349094941247e+02 0.0000000000000000e+00  2.6175506474596393e+01 3.2600340274204615e+02 0.0000000000000000e+00  1.5793126084145306e+03 -5.4574659653486628e+02 0.0000000000000000e+00  5.4225766033686511e+02 1.9427217831340738e+02 0.0000000000000000e+00  1.5502071526507966e+03 -5.1168871450737134e+02 0.0000000000000000e+00  4.3361194926325533e+02 -1.7890669510543745e+