<?xml version="1.0"?>
<VTKFile type="UnstructuredGrid"  version="0.1"  >
<UnstructuredGrid>
<Piece  NumberOfPoints="4153" NumberOfCells="8064">
<Points>
<DataArray  type="Float64"  NumberOfComponents="3"  format="ascii">-0.4249999999999999 -0.5 0  -0.02499999999999988 -0.5 0  -0.07499999999999987 -0.5 0  -0.1249999999999998 -0.5 0  -0.1749999999999998 -0.5 0  -0.2249999999999998 -0.5 0  -0.2749999999999998 -0.5 0  -0.3249999999999998 -0.5 0  -0.3749999999999999 -0.5 0  0.02500000000000016 -0.5 0  -0.4749999999999998 -0.5 0  -0.5249999999999998 -0.5 0  -0.5749999999999998 -0.5 0  -0.6249999999999999 -0.5 0  -0.6749999999999999 -0.5 0  -0.725 -0.5 0  -0.775 -0.5 0  0.8 -0.5 0  0.07500000000000025 -0.5 0  0.1250000000000003 -0.5 0  0.1750000000000004 -0.5 0  0.2250000000000004 -0.5 0  0.2750000000000004 -0.5 0  0.3250000000000003 -0.5 0  0.3750000000000001 -0.5 0  0.4250000000000002 -0.5 0  0.4750000000000002 -0.5 0  0.5250000000000001 -0.5 0  0.5750000000000002 -0.5 0  0.625 -0.5 0  0.675 -0.5 0  0.725 -0.5 0  0.775 -0.5 0  0.75 -0.5 0  -0.75 -0.5 0  -0.6499999999999999 -0.5 0  -0.5499999999999998 -0.5 0  -0.4499999999999998 -0.5 0  -0.3499999999999999 -0.5 0  -0.2499999999999998 -0.5 0  -0.1499999999999998 -0.5 0  -0.04999999999999988 -0.5 0  0.7 -0.5 0  0.1500000000000004 -0.5 0  0.2500000000000003 -0.5 0  0.3500000000000002 -0.5 0  0.4500000000000002 -0.5 0  0.5500000000000002 -0.5 0  0.65 -0.5 0  0.0500000000000002 -0.5 0  -0.8 -0.5 0  0.6000000000000001 -0.5 0  0.5000000000000002 -0.5 0  0.4000000000000001 -0.5 0  0.3000000000000003 -0.5 0  0.2000000000000004 -0.5 0  0.1000000000000003 -0.5 0  1.110223024625157e-16 -0.5 0  -0.09999999999999987 -0.5 0  -0.1999999999999998 -0.5 0  -0.2999999999999998 -0.5 0  -0.3999999999999999 -0.5 0  -0.4999999999999998 -0.5 0  -0.5999999999999999 -0.5 0  -0.7 -0.5 0  1 -0.3 0  0.8765366864730179 -0.4847759065022574 0  0.9414213562373094 -0.4414213562373097 0  0.9847759065022573 -0.3765366864730181 0  0.838268343236509 -0.4923879532511287 0  0.9089790213551636 -0.4630986313697836 0  0.9630986313697834 -0.4089790213551639 0  0.9923879532511286 -0.338268343236509 0  0.8191341716182545 -0.4961939766255644 0  0.8574025148547635 -0.488581929876693 0  0.8927578539140908 -0.4739372689360205 0  0.9252001887962364 -0.4522599938035466 0  0.9522599938035463 -0.4252001887962368 0  0.9739372689360204 -0.392757853914091 0  0.9885819298766929 -0.3574025148547635 0  0.9961939766255643 -0.3191341716182545 0  1 -0.275 0  1 0.275 0  1 0.225 0  1 0.175 0  1 0.125 0  1 0.07499999999999994 0  1 0.02499999999999987 0  1 -0.0250000000000002 0  1 -0.07500000000000026 0  1 -0.1250000000000003 0  1 -0.1750000000000002 0  1 -0.2250000000000001 0  1 0.3 0  1 0.25 0  1 0.15 0  1 0.04999999999999991 0  1 -0.05000000000000023 0  1 -0.1500000000000002 0  1 -0.2500000000000001 0  1 0.2 0  1 0.09999999999999998 0  1 -1.665334536937735e-16 0  1 -0.1000000000000003 0  1 -0.2000000000000002 0  0.8 0.5 0  0.9847759065022573 0.3765366864730181 0  0.9414213562373094 0.4414213562373097 0  0.8765366864730179 0.4847759065022574 0  0.9923879532511286 0.338268343236509 0  0.9630986313697834 0.4089790213551639 0  0.9089790213551636 0.4630986313697836 0  0.838268343236509 0.4923879532511287 0  0.9961939766255643 0.3191341716182545 0  0.9885819298766929 0.3574025148547635 0  0.9739372689360204 0.392757853914091 0  0.9522599938035463 0.4252001887962368 0  0.9252001887962364 0.4522599938035466 0  0.8927578539140908 0.4739372689360205 0  0.8574025148547635 0.488581929876693 0  0.8191341716182545 0.4961939766255644 0  -0.02500000000000016 0.5 0  0.725 0.5 0  0.6749999999999999 0.5 0  0.6249999999999999 0.5 0  0.5749999999999998 0.5 0  0.5249999999999998 0.5 0  0.4749999999999998 0.5 0  0.4249999999999999 0.5 0  0.3749999999999999 0.5 0  0.3249999999999998 0.5 0  0.2749999999999998 0.5 0  0.2249999999999998 0.5 0  0.1749999999999998 0.5 0  0.1249999999999998 0.5 0  0.07499999999999987 0.5 0  0.02499999999999988 0.5 0  0.775 0.5 0  -0.07500000000000025 0.5 0  -0.1250000000000003 0.5 0  -0.1750000000000004 0.5 0  -0.2250000000000004 0.5 0  -0.2750000000000004 0.5 0  -0.3250000000000003 0.5 0  -0.3750000000000001 0.5 0  -0.4250000000000002 0.5 0  -0.4750000000000002 0.5 0  -0.5250000000000001 0.5 0  -0.5750000000000002 0.5 0  -0.625 0.5 0  -0.675 0.5 0  -0.725 0.5 0  -0.775 0.5 0  -0.8 0.5 0  -0.75 0.5 0  -0.65 0.5 0  -0.5500000000000002 0.5 0  -0.4500000000000002 0.5 0  -0.3500000000000002 0.5 0  -0.2500000000000003 0.5 0  -0.1500000000000004 0.5 0  -0.0500000000000002 0.5 0  0.04999999999999988 0.5 0  0.1499999999999998 0.5 0  0.2499999999999998 0.5 0  0.3499999999999999 0.5 0  0.4499999999999998 0.5 0  0.5499999999999998 0.5 0  0.6499999999999999 0.5 0  0.75 0.5 0  -0.7 0.5 0  -0.6000000000000001 0.5 0  -0.5000000000000002 0.5 0  -0.4000000000000001 0.5 0  -0.3000000000000003 0.5 0  -0.2000000000000004 0.5 0  -0.1000000000000003 0.5 0  -1.110223024625157e-16 0.5 0  0.09999999999999987 0.5 0  0.1999999999999998 0.5 0  0.2999999999999998 0.5 0  0.3999999999999999 0.5 0  0.4999999999999998 0.5 0  0.5999999999999999 0.5 0  0.7 0.5 0  -1 0.3 0  -0.8765366864730181 0.4847759065022573 0  -0.9414213562373097 0.4414213562373094 0  -0.9847759065022574 0.3765366864730179 0  -0.838268343236509 0.4923879532511287 0  -0.9089790213551638 0.4630986313697834 0  -0.9630986313697836 0.4089790213551636 0  -0.9923879532511287 0.338268343236509 0  -0.8191341716182545 0.4961939766255643 0  -0.8574025148547635 0.488581929876693 0  -0.892757853914091 0.4739372689360203 0  -0.9252001887962368 0.4522599938035464 0  -0.9522599938035466 0.4252001887962365 0  -0.9739372689360205 0.3927578539140908 0  -0.9885819298766931 0.3574025148547634 0  -0.9961939766255643 0.3191341716182545 0  -1 0.275 0  -1 -0.275 0  -1 -0.225 0  -1 -0.175 0  -1 -0.125 0  -1 -0.07499999999999994 0  -1 -0.02499999999999987 0  -1 0.0250000000000002 0  -1 0.07500000000000026 0  -1 0.1250000000000003 0  -1 0.1750000000000002 0  -1 0.2250000000000001 0  -1 -0.3 0  -1 -0.25 0  -1 -0.15 0  -1 -0.04999999999999991 0  -1 0.05000000000000023 0  -1 0.1500000000000002 0  -1 0.2500000000000001 0  -1 -0.2 0  -1 -0.09999999999999998 0  -1 1.665334536937735e-16 0  -1 0.1000000000000003 0  -1 0.2000000000000002 0  -0.9847759065022574 -0.3765366864730179 0  -0.9414213562373096 -0.4414213562373094 0  -0.8765366864730181 -0.4847759065022573 0  -0.9923879532511287 -0.338268343236509 0  -0.9630986313697836 -0.4089790213551636 0  -0.9089790213551638 -0.4630986313697834 0  -0.838268343236509 -0.4923879532511287 0  -0.9961939766255643 -0.3191341716182545 0  -0.9885819298766931 -0.3574025148547634 0  -0.9739372689360205 -0.3927578539140908 0  -0.9522599938035465 -0.4252001887962365 0  -0.9252001887962367 -0.4522599938035464 0  -0.892757853914091 -0.4739372689360203 0  -0.8574025148547635 -0.488581929876693 0  -0.8191341716182545 -0.4961939766255643 0  -0.3000000000000003 0.3267949192431125 0  0.3181343990330772 -0.3439416921723297 0  -0.08257249764926196 -0.3383308877677023 0  -0.50979744334887 -0.3255818518047211 0  0.5060441378325211 0.3274561643884037 0  0.1037631564626732 0.3131559137665553 0  0.843149210446875 -0.1923130104173427 0  -0.8418263458721231 0.1927503215247096 0  -0.8408809410250262 -0.1897116835785854 0  0.8409071959036176 0.1896235182386696 0  0.705967194587281 0.3354524287114743 0  0.6276370409402552 0.1658336215477063 0  0.4215070288293651 0.1446794873901968 0  0.5369019087152576 -0.01677883310260353 0  0.3378219718963524 -0.0304857337078401 0  0.7359191653189867 -0.0003779706345871367 0  0.2206709281181736 0.1292871338121241 0  0.1390057666500616 -0.05482518983879574 0  0.02156604114872933 0.1091113821954512 0  -0.05991856886335568 -0.07544049830328706 0  -0.2091026540303009 0.113218101697482 0  -0.2557387210741711 -0.08957125969209863 0  -0.3742518736706093 0.02381865171750689 0  -0.7065883696935737 -0.3351547375041799 0  -0.6319769825415822 -0.1640183941417108 0  -0.7379485134301987 -0.0003221286420197649 0  -0.6263925638672921 0.1747922261462193 0  0.7000000000000003 -0.3471147448144379 0  -0.09731754444756222 0.2985839976753261 0  -0.7019016658227 0.339872535812372 0  -0.5036626740707574 0.3416097573515475 0  0.3086642085404555 0.31909644989288 0  0.4355889359290377 -0.1794947220360297 0  0.1233906847482294 -0.33992001942789 0  -0.2910439982708135 -0.2942818290560931 0  0.6252598700683595 -0.1832373653183336 0  -0.4390211493546888 -0.1414717198202583 0  -0.5445756908252299 0.01225332998817602 0  0.5094027625036279 -0.3483114655372777 0  -0.8570298735864267 0.3548088427148782 0  0.2432245006188761 -0.181388344807941 0  0.8576591493456415 0.3532994606374906 0  -0.8577781333911819 -0.3532575554640149 0  0.856914113336837 -0.3561698222938181 0  -0.4103395160999327 0.186370105143853 0  0.04059278020228735 -0.1932320619509051 0  -0.894759031223147 0.000141425932117211 0  0.8948577502800618 -0.0001596971477125707 0  -0.1430838089440986 -0.1942958300671257 0  -0.4774576034625814 0.09931171756601452 0  -0.5183660399836124 0.1805811656450362 0  -0.585484127346261 0.09352277806719765 0  -0.3551697580499665 0.2565825121934828 0  -0.3097210850651168 0.1497941034206675 0  -0.2545513270151506 0.2200065104702973 0  -0.3922956948852711 0.10509437843068 0  -0.4594137822479196 0.01803599085284146 0  -0.1532100992389315 0.205901049686404 0  -0.1986587722237813 0.3126894584592193 0  -0.1486587722237813 0.399291998837663 0  -0.04865877222378117 0.399291998837663 0  0.5673313162859936 -0.2657744154278056 0  0.6047013812518141 -0.3477131051758577 0  0.6626299350341799 -0.2651760550663858 0  0.4724958492163328 -0.2639030937866537 0  0.5304244029986986 -0.1813660436771817 0  -0.3650325738127511 -0.2178767744381757 0  -0.4744092963517794 -0.2335267858124897 0  -0.4004207208098418 -0.3099318404304071 0  -0.3473799352144299 -0.1155214897561785 0  -0.2733913596724923 -0.1919265443740958 0  0.06266459880570127 0.2111336479810033 0  0.1211184846334515 0.1191992580037876 0  0.1622170422904234 0.2212215237893397 0  
[...]
<PointData  Vectors="f_48"> 
<DataArray  type="Float64"  Name="f_48"  NumberOfComponents="3" format="ascii">-5.4533899167946355e-07 3.6101851409025175e-06 0.0000000000000000e+00  3.4880102762645720e-08 1.2095758155399702e-06 0.0000000000000000e+00  1.7572571626358128e-09 1.7314327889494367e-06 0.0000000000000000e+00  -5.1350812024555029e-08 2.1899167866863149e-06 0.0000000000000000e+00  -7.6057586187279076e-08 2.5786420193967416e-06 0.0000000000000000e+00  -5.7457605985051483e-07 2.9117060268786557e-06 0.0000000000000000e+00  -7.3570593542425936e-07 3.1687135690116876e-06 0.0000000000000000e+00  -9.1606835594316249e-07 3.3756209393883135e-06 0.0000000000000000e+00  -1.1348381323836267e-06 3.5365851412815240e-06 0.0000000000000000e+00  3.6805030302677636e-08 6.3948946432680689e-07 0.0000000000000000e+00  -6.9873490393469573e-07 3.6899340066142814e-06 0.0000000000000000e+00  -7.5661969636649354e-07 3.7152584680978975e-06 0.0000000000000000e+00  -8.2632121615162591e-07 3.6982778980651507e-06 0.0000000000000000e+00  -6.3460693886448235e-07 3.6120417691970712e-06 0.0000000000000000e+00  -7.0556857585388502e-07 3.4828001880843028e-06 0.0000000000000000e+00  -8.7220003366932226e-07 3.2807284727761970e-06 0.0000000000000000e+00  -1.6701738788092119e-06 3.0380935070662575e-06 0.0000000000000000e+00  3.5836519856378984e-07 -2.3631777404337010e-06 0.0000000000000000e+00  1.2265310555028035e-08 4.3423760491017623e-08 0.0000000000000000e+00  -3.6603921440743919e-08 -5.5367915378090812e-07 0.0000000000000000e+00  -1.0493189770863870e-07 -1.1270667130531422e-06 0.0000000000000000e+00  -1.5187847693659817e-07 -1.6549179864795514e-06 0.0000000000000000e+00  -2.1838722127037727e-07 -2.1254327557081004e-06 0.0000000000000000e+00  -2.8055368062865093e-07 -2.5285214730378089e-06 0.0000000000000000e+00  -3.4638548170175117e-07 -2.8622075669833845e-06 0.0000000000000000e+00  -3.2825805376335433e-07 -3.1195804193306503e-06 0.0000000000000000e+00  -3.6469423478774474e-07 -3.3097666579362887e-06 0.0000000000000000e+00  -3.9341899359458514e-07 -3.4320882657445045e-06 0.0000000000000000e+00  -4.2171574046039766e-07 -3.4878210622215976e-06 0.0000000000000000e+00  -4.6730725023890659e-07 -3.4739832947435483e-06 0.0000000000000000e+00  -4.9743162936020919e-07 -3.3828272711060637e-06 0.0000000000000000e+00  -6.3181832276114932e-07 -3.2068865996232561e-06 0.0000000000000000e+00  -1.2883364275448384e-06 -2.9557074237107405e-06 0.0000000000000000e+00  -2.8604262093109436e-07 -3.0536428446129574e-06 0.0000000000000000e+00  -4.5916700744222483e-07 3.1070817161537848e-06 0.0000000000000000e+00  -6.7927145345405624e-07 3.5567969904414815e-06 0.0000000000000000e+00  -7.6376228699336222e-07 3.7093178151836238e-06 0.0000000000000000e+00  -7.1621246387857647e-07 3.6667016997913307e-06 0.0000000000000000e+00  -9.6118071301667578e-07 3.4608495259137486e-06 0.0000000000000000e+00  -6.2332039369842228e-07 3.0435913929193434e-06 0.0000000000000000e+00  -1.1086878538367902e-07 2.3925988825250611e-06 0.0000000000000000e+00  2.1387538194294576e-08 1.4777338275976953e-06 0.0000000000000000e+00  -4.6474761352968888e-07 -3.3056979678203593e-06 0.0000000000000000e+00  -6.5571434156879142e-08 -8.4471428206835171e-07 0.0000000000000000e+00  -1.8667724251364870e-07 -1.8984400271503635e-06 0.0000000000000000e+00  -3.0331634669469944e-07 -2.7027765517858496e-06 0.0000000000000000e+00  -3.5038949452957508e-07 -3.2227206284000511e-06 0.0000000000000000e+00  -4.0484097407665278e-07 -3.4671020667631317e-06 0.0000000000000000e+00  -4.6306963857824190e-07 -3.4367902738835151e-06 0.0000000000000000e+00  2.8294978067222195e-08 3.4329756054486803e-07 0.0000000000000000e+00  3.3437541557845066e-07 2.3823918894136866e-06 0.0000000000000000e+00  -4.0850272693326103e-07 -3.4792096888712942e-06 0.0000000000000000e+00  -3.7991251179810522e-07 -3.3792975963034158e-06 0.0000000000000000e+00  -3.1505084196484447e-07 -2.9927921017027968e-06 0.0000000000000000e+00  -2.4936205412517886e-07 -2.3356112856452967e-06 0.0000000000000000e+00  -1.2355170395477033e-07 -1.3982858098930236e-06 0.0000000000000000e+00  -9.2659553878839356e-09 -2.5660760254025509e-07 0.0000000000000000e+00  4.1096871432834884e-08 9.2977004123587595e-07 0.0000000000000000e+00  -2.6916907657951899e-08 1.9691876879815998e-06 0.0000000000000000e+00  -3.2568647525644041e-07 2.7390307036301845e-06 0.0000000000000000e+00  -8.1863460238067602e-07 3.2779908254344583e-06 0.0000000000000000e+00  -9.4446192814176090e-07 3.6161134421517280e-06 0.0000000000000000e+00  -7.3455368342091782e-07 3.7086462957257504e-06 0.0000000000000000e+00  -7.1388762653595847e-07 3.6553508432945903e-06 0.0000000000000000e+00  -6.7142245069596129e-07 3.3891584388118255e-06 0.0000000000000000e+00  4.5995565097714304e-08 6.4715890556629090e-07 0.0000000000000000e+00  1.3497174015190496e-06 -1.4102815409580868e-06 0.0000000000000000e+00  1.1732900005571234e-06 4.1565293788179820e-08 0.0000000000000000e+00  6.1874319012165550e-07 7.7752548657516151e-07 0.0000000000000000e+00  9.3849120485834926e-07 -2.3838218682234558e-06 0.0000000000000000e+00  1.9160223772062446e-06 -7.9904536414864805e-07 0.0000000000000000e+00  1.3885306917564034e-06 5.5060476029737980e-07 0.0000000000000000e+00  3.3703894510416466e-07 8.9897626985911903e-07 0.0000000000000000e+00  1.2435369577898518e-06 -2.2093542708949398e-06 0.0000000000000000e+00  -3.2392399468214364e-08 -2.4241376747528364e-06 0.0000000000000000e+00  1.8957063448799610e-06 -3.0813317608507543e-07 0.0000000000000000e+00  1.4768005188020599e-06 -1.3780924800812851e-06 0.0000000000000000e+00  1.1803497739908695e-06 1.3079269299152286e-06 0.0000000000000000e+00  1.1710574788982374e-06 2.1592719466476553e-07 0.0000000000000000e+00  -1.3062050840143176e-07 1.0552031409375018e-06 0.0000000000000000e+00  3.7607731448156143e-07 7.1869075291588996e-07 0.0000000000000000e+00  -4.2267106654159262e-07 6.4652383467815452e-07 0.0000000000000000e+00  -5.2978989499060383e-07 -8.0850688421015878e-07 0.0000000000000000e+00  -1.9313895400167123e-07 -7.1395506302979354e-07 0.0000000000000000e+00  -9.4578732528119375e-08 -6.0171355969827908e-07 0.0000000000000000e+00  -5.1177614975458845e-08 -4.7666434059586984e-07 0.0000000000000000e+00  8.4330523914267408e-10 -3.4332818075226807e-07 0.0000000000000000e+00  -1.3969011098653480e-10 -2.0315045999790247e-07 0.0000000000000000e+00  2.5463537042107429e-10 -5.9891826916852677e-08 0.0000000000000000e+00  1.0198391149236826e-10 8.7663655056320653e-08 0.0000000000000000e+00  -2.6713015721038445e-08 2.3503262614835698e-07 0.0000000000000000e+00  -6.2128313341735756e-08 3.8102866788648213e-07 0.0000000000000000e+00  -1.4360642682093536e-07 5.2071714631137163e-07 0.0000000000000000e+00  6.7197240368284459e-08 -7.6935974086195403e-07 0.0000000000000000e+00  -9.8251932716986593e-08 -7.6347387462040480e-07 0.0000000000000000e+00  -6.4258658682012715e-08 -5.3969719894139771e-07 0.0000000000000000e+00  -3.4322891700746685e-09 -2.7286809116424550e-07 0.0000000000000000e+00  -1.3378941823221824e-09 1.2532482864363856e-08 0.0000000000000000e+00  -3.8689544777454489e-08 3.0766134430455858e-07 0.0000000000000000e+00  -7.2177456648459663e-08 5.8652147460710842e-07 0.0000000000000000e+00  -1.0646933409992153e-07 -6.6115265410872166e-07 0.0000000000000000e+00  -1.9189137981718298e-08 -4.0544652470726485e-07 0.0000000000000000e+00  -1.8531894098398536e-10 -1.3198346208588309e-07 0.0000000000000000e+00  -9.4671496578583881e-09 1.5577271763015784e-07 0.0000000000000000e+00  -7.3306107219375206e-08 4.5314336545718320e-07 0.0000000000000000e+00  3.4382711122740540e-07 2.4845106731075806e-06 0.0000000000000000e+00  6.8627284698383381e-07 -8.4429654889004727e-07 0.0000000000000000e+00  1.2401583466275238e-06 -5.1858428802219760e-08 0.0000000000000000e+00  1.4126897111845675e-06 1.5000435435162565e-06 0.0000000000000000e+00  3.8027225622503578e-07 -1.0204682884863517e-06 0.0000000000000000e+00  1.4901443649139764e-06 -5.9192201316362931e-07 0.0000000000000000e+00  2.0159577933663912e-06 8.5083793112565429e-07 0.0000000000000000e+00  9.5956595557450407e-07 2.5182903603498456e-06 0.0000000000000000e+00  4.3943905769626621e-07 -8.3180523734823501e-07 0.0000000000000000e+00  -1.3576090882596796e-07 -1.1701469460435369e-06 0.0000000000000000e+00  1.2687939894425221e-06 -2.2357797025156825e-07 0.0000000000000000e+00  1.2467726739743866e-06 -1.3902007312834948e-06 0.0000000000000000e+00  1.5470400233325028e-06 1.4995607048515912e-06 0.0000000000000000e+00  1.9837428984160881e-06 3.0637622929021705e-07 0.0000000000000000e+00  -1.0555686055402763e-07 2.5715375416897880e-06 0.0000000000000000e+00  1.2987786958601167e-06 2.3139031874902349e-06 0.0000000000000000e+00  4.0475578443868295e-08 -1.0200019346185081e-06 0.0000000000000000e+00  -9.1223080963597646e-07 3.4285746176199335e-06 0.0000000000000000e+00  -7.3784794638863345e-07 3.6393879004981604e-06 0.0000000000000000e+00  -6.6434209257985403e-07 3.7643395037269588e-06 0.0000000000000000e+00  -8.2059728145716656e-07 3.8283082070380251e-06 0.0000000000000000e+00  -7.5445246216384261e-07 3.8068428208797971e-06 0.0000000000000000e+00  -7.0055687869473184e-07 3.7183324602732948e-06 0.0000000000000000e+00  -6.2336403828645842e-07 3.5571031620236187e-06 0.0000000000000000e+00  -7.0887050887549565e-07 3.3320698162109743e-06 0.0000000000000000e+00  -5.8495635340251119e-07 3.0170488509840274e-06 0.0000000000000000e+00  -4.6694603322722531e-07 2.6228746974280294e-06 0.0000000000000000e+00  -3.3671904138283420e-07 2.1468283774029118e-06 0.0000000000000000e+00  -2.5084008692988297e-07 1.5994283534168551e-06 0.0000000000000000e+00  -1.2118334133430768e-07 9.8778327211321843e-07 0.0000000000000000e+00  -2.4528710738075153e-08 3.3031909529698813e-07 0.0000000000000000e+00  2.7008159171217586e-08 -3.5045591581465626e-07 0.0000000000000000e+00  -1.7441914004797405e-06 3.1679766134546193e-06 0.0000000000000000e+00  -2.8878302971043149e-08 -1.6506243504059570e-06 0.0000000000000000e+00  -1.5863886084188168e-07 -2.2276418921099821e-06 0.0000000000000000e+00  -3.5600293252730295e-07 -2.7302148342947674e-06 0.0000000000000000e+00  -2.6252866855352480e-07 -3.1488092889575369e-06 0.0000000000000000e+00  -3.9892562864052024e-07 -3.4992472515023544e-06 0.0000000000000000e+00  -5.0765576064765416e-07 -3.7670506015914901e-06 0.0000000000000000e+00  -6.2895130015208941e-07 -3.9640505545586748e-06 0.0000000000000000e+00  -4.3060613686992838e-07 -4.0823686271268202e-06 0.0000000000000000e+00  -5.0818060571625393e-07 -4.1535242685659744e-06 0.0000000000000000e+00  -5.4798026908659449e-07 -4.1635839881010588e-06 0.0000000000000000e+00  -5.7668855319267745e-07 -4.1157350562557094e-06 0.0000000000000000e+00  -6.4727956772378026e-07 -4.0102470305257024e-06 0.0000000000000000e+00  -6.8990107158255265e-07 -3.8351512158100598e-06 0.0000000000000000e+00  -8.5684001170798971e-07 -3.5812792764237660e-06 0.0000000000000000e+00  -1.6684075951767814e-06 -3.2719186901992372e-06 0.0000000000000000e+00  3.7059050163758129e-07 -2.5800652914402437e-06 0.0000000000000000e+00  -4.3124044089161859e-07 -3.3838073866452278e-06 0.0000000000000000e+00  -6.4840815913802747e-07 -3.9313153252420739e-06 0.0000000000000000e+00  -5.6625115497680955e-07 -4.1470230155031533e-06 0.0000000000000000e+00  -5.0244272476876882e-07 -4.1281388961437186e-06 0.0000000000000000e+00  -5.4068438666877621e-07 -3.8733768296010780e-06 0.0000000000000000e+00  -3.5679218795721092e-07 -3.3392514286917493e-06 0.0000000000000000e+00  -2.2335764747669214e-07 -2.4915398531399246e-06 0.0000000000000000e+00  1.2595123673483276e-08 -1.3380812992313052e-06 0.0000000000000000e+00  9.1432874172471759e-09 -6.2304527060847809e-09 0.0000000000000000e+00  -1.7904514056556994e-07 1.3015530887766111e-06 0.0000000000000000e+00  -4.0804018529747234e-07 2.3963339708822196e-06 0.0000000000000000e+00  -6.2739245839256375e-07 3.1830070970909867e-06 0.0000000000000000e+00  -6.8001877480586860e-07 3.6482021198026080e-06 0.0000000000000000e+00  -7.6540350067780932e-07 3.8239946027307377e-06 0.0000000000000000e+00  -7.0847231704225289e-07 3.7134401995377144e-06 0.0000000000000000e+00  -4.8133363748634323e-07 3.2460258962979970e-06 0.0000000000000000e+00  -6.4986863547740075e-07 -3.7176527026380243e-06 0.0000000000000000e+00  -6.0233907873973221e-07 -4.0689452194009252e-06 0.0000000000000000e+00  -5.3229046260543765e-07 -4.1659712931222010e-06 0.0000000000000000e+00  -5.4785466697953617e-07 -4.0383732999306359e-06 0.0000000000000000e+00  -4.5399593505672774e-07 -3.6427481108785639e-06 0.0000000000000000e+00  -3.2326673667611999e-07 -2.9753011556912951e-06 0.0000000000000000e+00  -8.4481965781351743e-08 -1.9473088671297113e-06 0.0000000000000000e+00  4.1774191010568065e-08 -6.7008407969503225e-07 0.0000000000000000e+00  -6.7624468659745096e-08 6.6348341703446150e-07 0.0000000000000000e+00  -3.0394411121525081e-07 1.8902675168274324e-06 0.0000000000000000e+00  -5.2582560812854301e-07 2.8300860837120238e-06 0.0000000000000000e+00  -6.5852133389924471e-07 3.4537405887450996e-06 0.0000000000000000e+00  -7.2805650092796539e-07 3.7712605088599605e-06 0.0000000000000000e+00  -7.4154423481252976e-07 3.8040395906951322e-06 0.0000000000000000e+00  -7.0224025143893494e-07 3.5428972689995550e-06 0.0000000000000000e+00  7.2195644900536405e-08 8.4733199404605078e-07 0.0000000000000000e+00  1.4570704436849628e-06 -1.5409121745045376e-06 0.0000000000000000e+00  1.2886967829580917e-06 4.6053688949269979e-08 0.0000000000000000e+00  7.2376221316889074e-07 8.9455088745997353e-07 0.0000000000000000e+00  1.0007488553401486e-06 -2.6017566677050235e-06 0.0000000000000000e+00  2.0865055619656891e-06 -8.7606372902385795e-07 0.0000000000000000e+00  1.5571842872776339e-06 6.2171544809838768e-07 0.0000000000000000e+00  4.0606069860759724e-07 1.0999142421459459e-06 0.0000000000000000e+00  1.3480236186559436e-06 -2.4031482182438346e-06 0.0000000000000000e+00  -8.2728306925570130e-08 -2.6447992010310624e-06 0.0000000000000000e+00  2.0545338640482144e-06 -3.2435415285965569e-07 0.0000000000000000e+00  1.6016758731237957e-06 -1.5385998075465652e-06 0.0000000000000000e+00  1.3029996319984614e-06 1.4512259282933646e-06 0.0000000000000000e+00  1.3298790241504941e-06 2.3702855166212225e-07 0.0000000000000000e+00  -1.4870688066058178e-07 1.2533725947941216e-06 0.0000000000000000e+00  4.7599150692358448e-07 9.0438630880377557e-07 0.0000000000000000e+00  -5.7754621341938285e-07 9.0698731354203194e-07 0.0000000000000000e+00  -4.4038764039092043e-07 -6.4717966338606846e-07 0.0000000000000000e+00  -1.4779698380199668e-07 -5.1172120157822074e-07 0.0000000000000000e+00  -6.1756579566402498e-08 -3.5915664034305823e-07 0.0000000000000000e+00  -2.4033210474973320e-08 -1.9735967166863019e-07 0.0000000000000000e+00  1.1623662253144490e-10 -3.2092753948479958e-08 0.0000000000000000e+00  3.5040583558800924e-10 1.3390187242296586e-07 0.0000000000000000e+00  -3.4037347587952207e-10 2.9385641281818414e-07 0.0000000000000000e+00  1.1924316958112137e-09 4.4741132289447768e-07 0.0000000000000000e+00  -6.2271037489190833e-08 5.8934540346304916e-07 0.0000000000000000e+00  -1.0966191163873710e-07 7.1656466937724592e-07 0.0000000000000000e+00  -2.1602280444220930e-07 8.2398258659452926e-07 0.0000000000000000e+00  5.1243719229462045e-08 -6.4868219732925233e-07 0.0000000000000000e+00  -7.5039719560783631e-08 -5.8237323258492900e-07 0.0000000000000000e+00  -3.7250353663358567e-08 -2.7801179762321544e-07 0.0000000000000000e+00  -9.4314247040292935e-10 5.2545977765525517e-08 0.0000000000000000e+00  -4.4543808904989054e-09 3.7076799027229043e-07 0.0000000000000000e+00  -7.6079868143837035e-08 6.5424695086942762e-07 0.0000000000000000e+00  -1.0997751798607130e-07 8.6775122049779041e-07 0.0000000000000000e+00  -7.4255798455580941e-08 -4.3812269148890745e-07 0.0000000000000000e+00  -7.9647387648999754e-09 -1.0803348095941451e-07 0.0000000000000000e+00  -2.9002806962057010e-10 2.1465927027121660e-07 0.0000000000000000e+00  -2.4068770436577951e-08 5.1431253918477066e-07 0.0000000000000000e+00  -1.2185066563138958e-07 7.7456699996631403e-07 0.0000000000000000e+00  6.2805381764521109e-07 -7.7812644110369737e-07 0.0000000000000000e+00  1.1784374327010871e-06 -5.1739644666649980e-08 0.0000000000000000e+00  1.3598848753802703e-06 1.4381510328938820e-06 0.0000000000000000e+00  3.4017593342258239e-07 -9.0354148081959313e-07 0.0000000000000000e+00  1.3983959331108311e-06 -5.5268813375005335e-07 0.0000000000000000e+00  1.9279527205262319e-06 8.1323956334914248e-07 0.0000000000000000e+00  9.2555816826594734e-07 2.4149807126471379e-06 0.0000000000000000e+00  3.8025312756001165e-07 -7.2084281997876833e-07 0.0000000000000000e+00  -1.2485695655877272e-07 -1.0561842351625874e-06 0.0000000000000000e+00  1.1809625211775244e-06 -2.1011857037613068e-07 0.0000000000000000e+00  1.1786867401021283e-06 -1.3142055836993721e-06 0.0000000000000000e+00  1.4800438988003797e-06 1.4230819678999955e-06 0.0000000000000000e+00  1.9021854341822041e-06 2.9392659359855283e-07 0.0000000000000000e+00  -9.3303113643312270e-08 2.4675062654819506e-06 0.0000000000000000e+00  1.2494969401549797e-06 2.2194333307712636e-06 0.0000000000000000e+00  1.1889692079293322e+03 -1.4282370484712269e+03 0.0000000000000000e+00  6.8584567211164745e+02 -5.7041302394444847e+02 0.0000000000000000e+00  5.2359323888412924e+01 1.0306741356753782e+03 0.0000000000000000e+00  1.4644239520620213e+03 7.3526505607968102e+02 0.0000000000000000e+00  1.5450263907031940e+03 8.0220175180528042e+02 0.0000000000000000e+00  6.9805308905210495e+01 1.1830870501403379e+02 0.0000000000000000e+00  3.4667414240410875e+02 4.8151655699992307e+02 0.0000000000000000e+00  5.2822895657588344e+02 6.7964309973774994e+02 0.0000000000000000e+00  3.3998482541003108e+02 -4.7744696220767241e+02 0.0000000000000000e+00  4.5394277395270251e+02 -6.1484670741544073e+02 0.0000000000000000e+00  1.4804956801357503e+03 3.9081167246722367e+02 0.0000000000000000e+00  1.1140451452908965e+03 -8.2889149497607764e+02 0.0000000000000000e+00  1.0728138526824007e+03 -6.8380227800392572e+02 0.0000000000000000e+00  -1.3792255537392997e+01 -1.7972223405860544e+02 0.0000000000000000e+00  -3.9637201546960704e+01 -2.5322814943379362e+02 0.0000000000000000e+00  6.7696733198294401e-01 -1.7385390583177499e+02 0.0000000000000000e+00  6.1314261531849900e+02 -2.2364802177786720e+02 0.0000000000000000e+00  -2.0954450117883189e+02 -3.6900312466136620e+02 0.0000000000000000e+00  -3.1591743545289415e+02 -3.0424337642392510e+02 0.0000000000000000e+00  -2.4853461904884034e+02 5.6297181664002403e+02 0.0000000000000000e+00  1.4429817456534997e+03 -2.1677686737720910e+02 0.0000000000000000e+00  3.6091795082828696e+02 -3.6367439188975862e+02 0.0000000000000000e+00  2.7465645385777873e+02 7.1936001144972158e+02 0.0000000000000000e+00  1.3511890330075892e+03 3.3516585532159814e+02 0.0000000000000000e+00  7.5501749409669776e+02 -6.3370957292939727e+02 0.0000000000000000e+00  7.3722034808471397e+00 2.7416236720133583e+02 0.0000000000000000e+00  1.4544348563291103e+03 8.5833600100675119e+02 0.0000000000000000e+00  1.2695181888105790e+03 -4.3724289180297643e+02 0.0000000000000000e+00  2.0136923746970342e+02 -1.1798854565124384e+03 0.0000000000000000e+00  1.5778449396440835e+03 -5.2639639169247437e+02 0.0000000000000000e+00  1.5914087580497221e+03 -1.1829752386565845e+03 0.0000000000000000e+00  1.0281847569545821e+03 7.5437069562903889e+02 0.0000000000000000e+00  7.5458285259259060e+02 3.6470004677905132e+02 0.0000000000000000e+00  -3.2112013665404938e+01 4.7407726446856415e+01 0.0000000000000000e+00  1.2242500318022087e+03 9.4526044243861554e+02 0.0000000000000000e+00  8.8914922535811752e+02 5.8688757304414207e+02 0.0000000000000000e+00  6.8468185189741587e+02 -5.3238335664902661e+02 0.0000000000000000e+00  8.6674096353067270e+01 5.6221892230763945e+02 0.0000000000000000e+00  1.1723984760271001e+03 -7.5095000355822981e+02 0.0000000000000000e+00  8.5791306157261351e+02 1.0805735080710321e+02 0.0000000