<?xml version="1.0"?>
<VTKFile type="UnstructuredGrid"  version="0.1"  >
<UnstructuredGrid>
<Piece  NumberOfPoints="4153" NumberOfCells="8064">
<Points>
<DataArray  type="Float64"  NumberOfComponents="3"  format="ascii">-0.4239047651967306 -0.6109530606067566 0  -0.05204200783262312 -0.7552446030514517 0  -0.1030743137108343 -0.7502420295240152 0  -0.1532599422217072 -0.7406601767183081 0  -0.2022822926356152 -0.7271208913657935 0  -0.2502705489808467 -0.7109445950227166 0  -0.2966610425229549 -0.689918935691196 0  -0.3410574591749097 -0.6656957300837 0  -0.3834544680372601 -0.6392445602195381 0  -0.0006574412413361812 -0.7552912653022474 0  -0.4626462682908412 -0.5830125748309412 0  -0.5002684669170669 -0.5553102351652048 0  -0.5368533992043495 -0.5281261880386706 0  -0.5725574799926243 -0.5018520978289273 0  -0.6077329287331138 -0.4770032690951888 0  -0.6424892987839761 -0.4537482618829661 0  -0.676993789336404 -0.4329786975931902 0  0.6514873810622888 -0.4426890625020913 0  0.05053459972270638 -0.7504191456766219 0  0.1010143563874503 -0.7408117388120484 0  0.1503294046136466 -0.7268899565298329 0  0.1981275640026681 -0.709188032061534 0  0.2442507238251373 -0.6886666820948897 0  0.2886932515801915 -0.6659755640117465 0  0.3315099651227822 -0.6417431849044377 0  0.3727826423835402 -0.6165420559174987 0  0.4127404429801528 -0.5909961156124343 0  0.4515605159763773 -0.5655064335326709 0  0.4894222953780425 -0.5404104654823111 0  0.5264628272787424 -0.5160754025431693 0  0.56286241656924 -0.4926901447477244 0  0.5987357276091827 -0.4707275328789963 0  0.6342905449773907 -0.450989332344406 0  0.6163743092317572 -0.46083420317745 0  -0.6595335385246485 -0.4432488594497556 0  -0.5902023244892817 -0.4893200954102504 0  -0.5186686751416595 -0.5416357147883138 0  -0.4433849158355235 -0.5969160592334085 0  -0.3625052882079102 -0.652604046387274 0  -0.2737083808720732 -0.7009028726994493 0  -0.177928079861936 -0.7344099193973449 0  -0.077636132011979 -0.7533456493557384 0  0.5808312484136532 -0.4816576582456708 0  0.1258415325087481 -0.7343516367153651 0  0.2213996927881044 -0.6992404286167514 0  0.3102938428092112 -0.6540220731318859 0  0.3929179337628689 -0.6037911606696472 0  0.4705957969959518 -0.5529062048851355 0  0.544749599054368 -0.5042951203007929 0  0.02499604108759616 -0.7534650955737882 0  -0.6937039525461498 -0.4241329974936793 0  0.5080217060174937 -0.5281203664245123 0  0.4322802289596041 -0.5782293281172448 0  0.3523262221673114 -0.629207454284693 0  0.2666804863960757 -0.6775590135655425 0  0.1744417444721879 -0.7184647566815116 0  0.07589411153894558 -0.7461857486345895 0  -0.02635772627076544 -0.7558949603273544 0  -0.1282983557496053 -0.7459993319405505 0  -0.226321995395683 -0.7194554355103899 0  -0.3190974133027537 -0.6780923952671022 0  -0.4040599821821479 -0.6253983083298419 0  -0.4816004902573134 -0.5691313000417996 0  -0.5548061015970269 -0.5148350978939401 0  -0.6251153458892912 -0.4653142908097697 0  0.7910335656071189 -0.2542900981490515 0  0.7063677259375167 -0.4154158345337215 0  0.7531616605052422 -0.3729552977682838 0  0.7830310267856604 -0.3176570111619932 0  0.6793770339991753 -0.4295525091804267 0  0.7307637675433436 -0.3954179692278837 0  0.7665434117812034 -0.3440906440903365 0  0.7860624499408846 -0.2855744449340915 0  0.6655948173082641 -0.4369647360333541 0  0.6928114393869341 -0.4218741751133758 0  0.7186610624362798 -0.4055890868296579 0  0.7415903212725666 -0.3833815848057682 0  0.7615484810055606 -0.3594228974550206 0  0.7740660800747564 -0.3306927118756872 0  0.7838078033708248 -0.3013971088636609 0  0.7879620931493057 -0.2698065595253279 0  0.7903678740191935 -0.2338522661894896 0  0.7948621590360154 0.2195862678766048 0  0.7947158068440919 0.1790601129230291 0  0.7958787589312668 0.138299709219157 0  0.7975598763169658 0.09718982677962343 0  0.799447277172434 0.05564006185795332 0  0.8001022518595782 0.01373928902713063 0  0.7996082693425693 -0.02824118581757579 0  0.7979707488211881 -0.07011318018074156 0  0.7952020510477581 -0.1115992812658438 0  0.7927070895626604 -0.15265570770879 0  0.7907967384738697 -0.1933606745906526 0  0.7961520742893609 0.2399689784872026 0  0.7945735805187366 0.1993400562503199 0  0.7966885447197588 0.1177925043031153 0  0.799918006815207 0.03471253478692297 0  0.7989359941932669 -0.04920318342998343 0  0.7939233645923189 -0.1321779887195543 0  0.7903521325483723 -0.2136231910077638 0  0.7952055629250597 0.1587189926763879 0  0.7985727773696288 0.07648992852059379 0  0.7999943820300413 -0.007252614641571488 0  0.7966289901767621 -0.0909310404189652 0  0.7916564002538021 -0.1730478365925107 0  0.6625674603828822 0.4305001694323954 0  0.789919836998784 0.3036029504389094 0  0.7617091696184028 0.359756270907934 0  0.7163289531154319 0.4029941322280247 0  0.792278797268409 0.2714111471353758 0  0.7747204806959901 0.3307568890712604 0  0.7399699371061389 0.3823958134908665 0  0.6897837583805531 0.4171301075062187 0  0.7938183108939135 0.2556053909829991 0  0.7905508479387942 0.2873176556236831 0  0.7817598940785156 0.3170101811181143 0  0.7694485986444586 0.3458540576595283 0  0.750442488864303 0.3702730875701564 0  0.7282233041566407 0.3928100076030689 0  0.702980870885511 0.4095164659249577 0  0.6762916108536674 0.4245188449123652 0  -0.036698238984333 0.7760605999532708 0  0.6114977288743295 0.460060714671492 0  0.5768378008223127 0.4833548548492128 0  0.5417153558837607 0.5082829368191494 0  0.5059835923251298 0.5345956686227791 0  0.4693387047907652 0.5618272595330556 0  0.4316073874054529 0.5896089629714375 0  0.3925918300223206 0.6175828957882868 0  0.3520475294686853 0.6454077653100936 0  0.3096795533946845 0.6722458298672359 0  0.2653982111584371 0.6975179648996771 0  0.2191294509200853 0.7205385749291687 0  0.1708629556006203 0.7406929090894341 0  0.120731562904375 0.7567854375155634 0  0.06911128564943805 0.7682758549145218 0  0.01647311779813307 0.7746694842631286 0  0.6459233609141156 0.4392432458155583 0  -0.08971821182352058 0.7711956672861122 0  -0.1418020352104654 0.7607945943355396 0  -0.1923553496125734 0.7454487897649088 0  -0.2407339049344289 0.7251242631989411 0  -0.2870106136843046 0.7028343045291371 0  -0.3313159933148175 0.6785065764425053 0  -0.3737517672170714 0.6527235853630508 0  -0.4144022221794462 0.625871038854064 0  -0.4536054961595478 0.599093043659499 0  -0.4916680435534041 0.5725641868741165 0  -0.5287625345137683 0.5465563594196637 0  -0.5650556089106671 0.5213555919628844 0  -0.6006893454696904 0.4972205904743573 0  -0.6358500173852489 0.474645606732372 0  -0.6707607424208399 0.4544519624544101 0  -0.687637150907926 0.4459590860695983 0  -0.6531337739177275 0.4644951941642961 0  -0.582950198309042 0.5091834977299512 0  -0.5103258623825632 0.5594832218014318 0  -0.4341483428342851 0.6124590810080216 0  -0.3527561055557484 0.6657393568425262 0  -0.2641162495693605 0.7142765130908191 0  -0.167295546737908 0.7535954678591661 0  -0.06327692888823261 0.7743232700616365 0  0.04289184059572953 0.7721566722584075 0  0.1460091280902224 0.7492593722741806 0  0.2425126062757212 0.7093555844243652 0  0.3310912300756808 0.6589801795155371 0  0.4122705247444194 0.6035946539436634 0  0.4877804697524142 0.5481238096968594 0  0.5593438429343092 0.4956983869793919 0  0.6285365361094762 0.4495801176741784 0  -0.6182907078027499 0.4858722258185139 0  -0.5469979847452496 0.5338506441503352 0  -0.4727692024525429 0.5857821075602042 0  -0.3943206416195335 0.6393903065200258 0  -0.3094025061671639 0.6908815929275095 0  -0.2169437427523065 0.735888484610894 0  -0.1159153147877082 0.7666354740996854 0  -0.0100404823656301 0.7760730443600734 0  0.09508116081659293 0.7631401085054147 0  0.1952640271775582 0.7310773775177478 0  0.2877847426619115 0.6851221490879958 0  0.3725450057090335 0.6315635397417949 0  0.4506207277514956 0.575674657682369 0  0.5239546642799014 0.5212946058470255 0  0.5941900772241249 0.4716299956419668 0  -0.8247718292233878 0.2576058292865742 0  -0.7419879468887841 0.4189716762906868 0  -0.7881861053103756 0.3763899976052209 0  -0.8174045972298285 0.3209034684332282 0  -0.7151804504214292 0.4329152845629118 0  -0.7660616498643429 0.3988270688507245 0  -0.8014506297345412 0.347571323679474 0  -0.82020922008117 0.2888662099539013 0  -0.701532456497005 0.44019786328366 0  -0.7285132973433931 0.4253711759684097 0  -0.7541030094014273 0.4090393471071876 0  -0.776736719789674 0.3868001881048909 0  -0.79630263377426 0.362742278687379 0  -0.8087795070101012 0.3340640334485276 0  -0.8181559063589868 0.3046806293501991 0  -0.8219892089587487 0.2731316286080743 0  -0.823862542164513 0.237254135848969 0  -0.8270136948396547 -0.214324501130429 0  -0.8267094009365437 -0.1739346509977631 0  -0.8278426637364322 -0.133348382668339 0  -0.8295611012987149 -0.09243110174326054 0  -0.8315639064677218 -0.05109011431215241 0  -0.8323989948924493 -0.009387537366753939 0  -0.832113508131501 0.03240190070723564 0  -0.8307113438344556 0.07409519930076021 0  -0.8281544501321689 0.1154224898684973 0  -0.8258668097044535 0.1563251511643329 0  -0.8241521421550781 0.1968923968879898 0  -0.8282389298928986 -0.2346953567047247 0  -0.8266301110991089 -0.1941418060648231 0  -0.8286675538543451 -0.1129368688406828 0  -0.8321233150328163 -0.03026204796457968 0  -0.8315533928154638 0.05327284117298153 0  -0.8269774918249435 0.1359213984412416 0  -0.8237775887669933 0.2170878753233658 0  -0.827178345410302 -0.1536777490633918 0  -0.8306141814125817 -0.07183551475594213 0  -0.8323918441197402 0.0115077793405101 0  -0.8294842416047433 0.09483330779398667 0  -0.8249129958230996 0.1766459338142868 0  -0.8217024617038694 -0.2981523116062341 0  -0.7931107053585016 -0.3538924476482445 0  -0.7475168802581781 -0.3968587512515853 0  -0.8241568127689776 -0.2660319222767912 0  -0.8061570269659096 -0.3249961980079912 0  -0.7713215688352736 -0.3765511983336921 0  -0.7209440218723954 -0.4109949415159944 0  -0.8257142950877374 -0.2502590699736387 0  -0.8223155227364951
[...]
<PointData  Vectors="f_48"> 
<DataArray  type="Float64"  Name="f_48"  NumberOfComponents="3" format="ascii">1.7727979670012186e-06 2.5302714394352339e-07 0.0000000000000000e+00  -7.1998874916242558e-09 9.0010695338207586e-10 0.0000000000000000e+00  7.6971243445141664e-08 2.2265755521119513e-07 0.0000000000000000e+00  2.4459033714528828e-07 4.1412715780937786e-07 0.0000000000000000e+00  5.2858039443190828e-07 5.3483683845113637e-07 0.0000000000000000e+00  6.9919752048324735e-07 6.2012332663669510e-07 0.0000000000000000e+00  1.0795425790191812e-06 4.3294201172804668e-07 0.0000000000000000e+00  1.3098743007429126e-06 3.6385782837019272e-07 0.0000000000000000e+00  1.4425515451749549e-06 5.0423617202901861e-07 0.0000000000000000e+00  1.1414763924213273e-08 -2.3315245276606247e-07 0.0000000000000000e+00  1.8546770787230005e-06 5.4142490904752231e-07 0.0000000000000000e+00  1.9933175532811049e-06 6.0254872868992474e-07 0.0000000000000000e+00  2.0736602425182259e-06 7.2320626463173684e-07 0.0000000000000000e+00  2.1197634567050054e-06 8.9254518113530898e-07 0.0000000000000000e+00  2.0905536522537338e-06 1.0527668456479313e-06 0.0000000000000000e+00  2.0164424132341757e-06 1.1472662228332292e-06 0.0000000000000000e+00  1.7522616501401098e-06 1.2575135102117645e-06 0.0000000000000000e+00  1.4744922357220216e-06 -2.0810786650217203e-06 0.0000000000000000e+00  1.3443688146120289e-07 -4.5098430553331956e-07 0.0000000000000000e+00  3.4880686155135816e-07 -6.2457404839117814e-07 0.0000000000000000e+00  6.1945485716125982e-07 -7.4485330026771499e-07 0.0000000000000000e+00  9.4432796535502583e-07 -8.0494735585811527e-07 0.0000000000000000e+00  1.2474108526534471e-06 -8.5255600876099979e-07 0.0000000000000000e+00  1.5466912653410147e-06 -8.6812878515233191e-07 0.0000000000000000e+00  1.8172104651807667e-06 -8.7342152729189309e-07 0.0000000000000000e+00  2.0454181725683373e-06 -9.2435506123997304e-07 0.0000000000000000e+00  2.2341654915380887e-06 -9.7317137183375006e-07 0.0000000000000000e+00  2.3670216746417278e-06 -1.0458347050191148e-06 0.0000000000000000e+00  2.4466899516975734e-06 -1.1212131662047709e-06 0.0000000000000000e+00  2.4305053766695231e-06 -1.3064484073349707e-06 0.0000000000000000e+00  2.4045531375841528e-06 -1.4320789165153223e-06 0.0000000000000000e+00  2.2993740884773424e-06 -1.5552712116268972e-06 0.0000000000000000e+00  2.0480973346702324e-06 -1.5700530423802502e-06 0.0000000000000000e+00  2.0072347369955875e-06 -1.6135453045543908e-06 0.0000000000000000e+00  1.7794332820853190e-06 1.3432125921976105e-06 0.0000000000000000e+00  2.0849958406237086e-06 8.8124641913231402e-07 0.0000000000000000e+00  2.0401637536888259e-06 6.5574736682995709e-07 0.0000000000000000e+00  1.7691393525376852e-06 5.5922634633198889e-07 0.0000000000000000e+00  1.4830899215156167e-06 2.4571365009360132e-07 0.0000000000000000e+00  9.5987838018921386e-07 4.4245332416524372e-07 0.0000000000000000e+00  3.5862213798866357e-07 4.7920500455650885e-07 0.0000000000000000e+00  2.4243335496102481e-08 1.1390806693580497e-07 0.0000000000000000e+00  2.3019015290169757e-06 -1.3336962390369163e-06 0.0000000000000000e+00  4.8124108960056787e-07 -6.9136590419993963e-07 0.0000000000000000e+00  1.0913222628199545e-06 -8.3758519353695992e-07 0.0000000000000000e+00  1.6779924625946115e-06 -8.8608856137702959e-07 0.0000000000000000e+00  2.1480808956556485e-06 -9.3554006376774838e-07 0.0000000000000000e+00  2.4058251051363573e-06 -1.0844850684760124e-06 0.0000000000000000e+00  2.4336560104569332e-06 -1.2117190738893791e-06 0.0000000000000000e+00  5.8575241984549131e-08 -3.4672864200656925e-07 0.0000000000000000e+00  1.4037912604350080e-06 1.7193175112757845e-06 0.0000000000000000e+00  2.4606347601584016e-06 -1.1630803301446406e-06 0.0000000000000000e+00  2.3046615405602589e-06 -1.0015727784271562e-06 0.0000000000000000e+00  1.9487834447219164e-06 -8.8283507686446141e-07 0.0000000000000000e+00  1.3966798020434942e-06 -8.6375571500790310e-07 0.0000000000000000e+00  8.0019880473577007e-07 -7.6528160398947305e-07 0.0000000000000000e+00  2.3022752189617481e-07 -5.4530065676750591e-07 0.0000000000000000e+00  -1.1323030208548135e-08 -1.1653780446543640e-07 0.0000000000000000e+00  1.6428644766028995e-07 3.1604285300044272e-07 0.0000000000000000e+00  3.4633799785333355e-07 7.6845256649474233e-07 0.0000000000000000e+00  1.2000761550483903e-06 4.0432480385082836e-07 0.0000000000000000e+00  1.6870760876509466e-06 8.4721889402621167e-08 0.0000000000000000e+00  1.9294662345906941e-06 5.6351398121100627e-07 0.0000000000000000e+00  2.1158258316931304e-06 7.1091005451793120e-07 0.0000000000000000e+00  1.9903877856135442e-06 1.0268567094089607e-06 0.0000000000000000e+00  6.3373517569188238e-08 4.0847732125727783e-07 0.0000000000000000e+00  1.2368204378178068e-06 -6.7061365440366018e-07 0.0000000000000000e+00  8.2719257970358746e-07 9.5191066863049079e-08 0.0000000000000000e+00  2.6652098858253957e-07 5.9014638858158489e-07 0.0000000000000000e+00  1.8118100462930463e-06 -7.4649313932939964e-07 0.0000000000000000e+00  1.2289021210260653e-06 5.4032629640080956e-08 0.0000000000000000e+00  7.5319384076609126e-07 1.0354684406077162e-06 0.0000000000000000e+00  1.5842337017311734e-07 5.7969944318137551e-07 0.0000000000000000e+00  1.3754026563782780e-06 -1.4450109683708409e-06 0.0000000000000000e+00  1.4563093058409698e-06 -1.5926277960919580e-06 0.0000000000000000e+00  1.5587714804917324e-06 -3.7370708448088378e-07 0.0000000000000000e+00  1.5684554561931272e-06 -2.1503147214842787e-07 0.0000000000000000e+00  4.0405885839573874e-07 8.3180041691343297e-07 0.0000000000000000e+00  9.9199355489202025e-07 -1.2695172700385802e-07 0.0000000000000000e+00  -1.7422313283701108e-07 6.7753426177087172e-07 0.0000000000000000e+00  2.3016847245334396e-07 5.8187385338100559e-07 0.0000000000000000e+00  -3.1952748146355077e-07 4.7568071368454347e-07 0.0000000000000000e+00  -1.0590792892351853e-07 -4.4321033190847658e-08 0.0000000000000000e+00  -2.3812576642507386e-08 6.3579704487071947e-09 0.0000000000000000e+00  -9.3382450859055829e-09 5.9208497366086210e-08 0.0000000000000000e+00  -1.0314347985276292e-08 1.0694810961429442e-07 0.0000000000000000e+00  -1.1164236516540741e-08 1.5964247112039637e-07 0.0000000000000000e+00  -1.2995761190876918e-09 2.2431949640167283e-07 0.0000000000000000e+00  1.4218110667177471e-08 2.8497866657467351e-07 0.0000000000000000e+00  3.8242711022652537e-08 3.4351330643707044e-07 0.0000000000000000e+00  4.4165886499696390e-08 4.0399676924207180e-07 0.0000000000000000e+00  1.7083320519542754e-08 4.4113959384388987e-07 0.0000000000000000e+00  -5.5003026703291345e-08 4.7371959477666330e-07 0.0000000000000000e+00  -1.9886725344991318e-08 -8.9142149002394896e-08 0.0000000000000000e+00  -8.9291720621224224e-09 -2.4635091290039828e-08 0.0000000000000000e+00  -7.8245720935986724e-09 8.4569391476336823e-08 0.0000000000000000e+00  -5.7457355468831577e-09 1.9412939620312714e-07 0.0000000000000000e+00  2.2655220075521101e-08 3.1449068287894205e-07 0.0000000000000000e+00  3.0593265083833752e-08 4.1926400945040188e-07 0.0000000000000000e+00  -1.0617388333856037e-08 4.7592503393387594e-07 0.0000000000000000e+00  -8.9737509046857547e-09 3.2987746790197304e-08 0.0000000000000000e+00  -1.4604447226662436e-08 1.3516220743468983e-07 0.0000000000000000e+00  5.7002173149831124e-09 2.5519198843787337e-07 0.0000000000000000e+00  5.4264680844174562e-08 3.7065442111473140e-07 0.0000000000000000e+00  1.1088757648352634e-08 4.5456066641317192e-07 0.0000000000000000e+00  1.3010678475394518e-06 1.6495566718269014e-06 0.0000000000000000e+00  1.2450936765747507e-07 -3.2844282777688589e-07 0.0000000000000000e+00  5.7980294934604805e-07 -1.2258554543184392e-07 0.0000000000000000e+00  1.0134912081214832e-06 4.7812616232251484e-07 0.0000000000000000e+00  5.0153747796988516e-08 -2.4435698031665311e-07 0.0000000000000000e+00  4.7961741795959082e-07 -6.2157039513962192e-07 0.0000000000000000e+00  9.6050903039073788e-07 -8.3451438450538212e-08 0.0000000000000000e+00  1.4695500038631536e-06 6.1410466220333603e-07 0.0000000000000000e+00  5.8191358156831694e-08 -1.9641900772986056e-07 0.0000000000000000e+00  -1.2022895281734317e-07 -3.0899445052661892e-07 0.0000000000000000e+00  5.9738515442120728e-07 -4.6016243436393447e-08 0.0000000000000000e+00  2.9653028804569357e-07 -6.2956639739250728e-07 0.0000000000000000e+00  1.2074193385523562e-06 1.3283122712140950e-07 0.0000000000000000e+00  1.2432369134565859e-06 2.0412306242884963e-07 0.0000000000000000e+00  1.1572520843415969e-06 1.2911492228960887e-06 0.0000000000000000e+00  1.1599127346895254e-06 1.1653893498194971e-06 0.0000000000000000e+00  1.5931602688994842e-08 -2.8517725397763633e-07 0.0000000000000000e+00  1.9249106705000306e-06 1.1315043735965142e-06 0.0000000000000000e+00  1.9968147015473624e-06 1.0091410330824676e-06 0.0000000000000000e+00  2.0238807334599085e-06 8.4583010805616831e-07 0.0000000000000000e+00  1.9810357053682641e-06 7.0520341309653701e-07 0.0000000000000000e+00  1.9019722472895597e-06 5.9721361899965222e-07 0.0000000000000000e+00  1.7751766395907030e-06 5.2418950776733048e-07 0.0000000000000000e+00  1.6129804757389671e-06 4.5999819937559021e-07 0.0000000000000000e+00  1.4043849125468224e-06 4.2916942231315623e-07 0.0000000000000000e+00  1.1792291780243853e-06 4.2656415238705282e-07 0.0000000000000000e+00  9.2788004812799354e-07 4.2739200509219391e-07 0.0000000000000000e+00  6.7300415939802301e-07 4.0009309377696964e-07 0.0000000000000000e+00  4.0995521887848054e-07 3.5579396374916789e-07 0.0000000000000000e+00  1.9898562735163181e-07 2.5204006063307531e-07 0.0000000000000000e+00  4.3721624117953036e-08 9.8763423882177080e-08 0.0000000000000000e+00  -1.5121615887048919e-08 -9.6331837402121013e-08 0.0000000000000000e+00  1.7005667490843474e-06 1.2118262042491763e-06 0.0000000000000000e+00  1.8606025151690797e-07 -4.3376487660358789e-07 0.0000000000000000e+00  4.4959608418777131e-07 -5.0972931080151656e-07 0.0000000000000000e+00  6.2065505726316114e-07 -6.0527542723377608e-07 0.0000000000000000e+00  1.0218239103089953e-06 -5.4967115373055043e-07 0.0000000000000000e+00  1.2684378636766334e-06 -5.9805324208882236e-07 0.0000000000000000e+00  1.5213570449244903e-06 -6.1818216262724394e-07 0.0000000000000000e+00  1.7458062869447122e-06 -6.5358285955421075e-07 0.0000000000000000e+00  1.9990747011544938e-06 -6.5746396643763884e-07 0.0000000000000000e+00  2.1485564918866922e-06 -7.7116481612513957e-07 0.0000000000000000e+00  2.2740955005009956e-06 -8.5948857842892918e-07 0.0000000000000000e+00  2.3478197449148615e-06 -9.6336850841397789e-07 0.0000000000000000e+00  2.3565641641787719e-06 -1.1170534812180390e-06 0.0000000000000000e+00  2.3260070034255391e-06 -1.2795335465699334e-06 0.0000000000000000e+00  2.2280033620444119e-06 -1.4071051680988063e-06 0.0000000000000000e+00  1.9621153139270629e-06 -1.4587670112611244e-06 0.0000000000000000e+00  1.4588414907987411e-06 -1.9918606788108187e-06 0.0000000000000000e+00  1.9402873569613703e-06 -1.5276593215184315e-06 0.0000000000000000e+00  2.3442808492195133e-06 -1.0533936328395877e-06 0.0000000000000000e+00  2.3182766564943339e-06 -8.9313014097556123e-07 0.0000000000000000e+00  2.0636189797860330e-06 -7.5136171903744782e-07 0.0000000000000000e+00  1.6479040197791754e-06 -6.3236698738423232e-07 0.0000000000000000e+00  1.0456546150143475e-06 -7.0204262595654377e-07 0.0000000000000000e+00  5.7900818894550501e-07 -5.4071035409357431e-07 0.0000000000000000e+00  1.0195075624905033e-07 -3.5886573829854717e-07 0.0000000000000000e+00  -8.1211561777416439e-09 1.0289169499810752e-08 0.0000000000000000e+00  3.0204719376314044e-07 3.1020201019865088e-07 0.0000000000000000e+00  7.8888274164892618e-07 4.3434168754325389e-07 0.0000000000000000e+00  1.2939036413213374e-06 4.3597563726466240e-07 0.0000000000000000e+00  1.6951608672053340e-06 4.9867989014371808e-07 0.0000000000000000e+00  1.9494465902447757e-06 6.3729617426306071e-07 0.0000000000000000e+00  1.9974817987792315e-06 8.3177808618283285e-07 0.0000000000000000e+00  1.6910007575996259e-06 1.2485928815997047e-06 0.0000000000000000e+00  2.2167235115025965e-06 -1.2039863879578209e-06 0.0000000000000000e+00  2.3629928279624441e-06 -9.8341367144791708e-07 0.0000000000000000e+00  2.2189648870711957e-06 -8.0757878721041784e-07 0.0000000000000000e+00  1.9111627210660586e-06 -5.5336243795785299e-07 0.0000000000000000e+00  1.3711956582980904e-06 -6.5621129679199557e-07 0.0000000000000000e+00  1.0715873990134214e-06 -3.3162262584725989e-07 0.0000000000000000e+00  2.8751845831983089e-07 -4.9014128422308669e-07 0.0000000000000000e+00  -5.5847740200188986e-08 -1.8604166434851974e-07 0.0000000000000000e+00  1.0550608020442991e-07 1.8607991700300501e-07 0.0000000000000000e+00  5.6729544218239472e-07 3.5536777871177722e-07 0.0000000000000000e+00  1.0510376500050500e-06 4.3659063820188549e-07 0.0000000000000000e+00  1.5280455239164662e-06 4.0500155795767617e-07 0.0000000000000000e+00  1.8428476980327348e-06 5.5834039757333725e-07 0.0000000000000000e+00  2.0167111269377354e-06 6.9915121726368197e-07 0.0000000000000000e+00  1.9085088418640132e-06 9.5518479958544715e-07 0.0000000000000000e+00  2.5222486645893928e-08 3.2578119128034475e-07 0.0000000000000000e+00  1.1732742510085696e-06 -6.1143285605563826e-07 0.0000000000000000e+00  7.5291395803946543e-07 1.1125084147645820e-07 0.0000000000000000e+00  2.2490744956346485e-07 5.1315350004108534e-07 0.0000000000000000e+00  1.7107035609740434e-06 -7.4048482191381889e-07 0.0000000000000000e+00  1.1541584074209676e-06 6.5586965845139427e-08 0.0000000000000000e+00  6.7311071860775533e-07 8.9868857196889210e-07 0.0000000000000000e+00  1.2268451262316340e-07 4.9377810357041572e-07 0.0000000000000000e+00  1.3084938570593210e-06 -1.3926733082651907e-06 0.0000000000000000e+00  1.3464707041600786e-06 -1.5351492392115879e-06 0.0000000000000000e+00  1.4742212152543430e-06 -3.1597290137332525e-07 0.0000000000000000e+00  1.4735859141785864e-06 -1.9602942667395211e-07 0.0000000000000000e+00  3.8143006826755032e-07 7.8607450619815217e-07 0.0000000000000000e+00  8.7470158307186025e-07 -3.8307897424007102e-08 0.0000000000000000e+00  -1.6424871018114783e-07 5.7490119454705092e-07 0.0000000000000000e+00  1.7605909569166252e-07 4.7599210965617286e-07 0.0000000000000000e+00  -2.7251153369367318e-07 3.6591493796178197e-07 0.0000000000000000e+00  -1.5997890908868485e-07 -1.2944504604389514e-07 0.0000000000000000e+00  -3.5805181865912435e-08 -9.4679106877054241e-08 0.0000000000000000e+00  -7.6172323535000147e-09 -5.0099499617086843e-08 0.0000000000000000e+00  -1.0701737644933754e-09 -8.1060412211992079e-09 0.0000000000000000e+00  -3.9049982461869988e-09 4.3153655039371299e-08 0.0000000000000000e+00  -1.6307134587587666e-09 1.0409114196499143e-07 0.0000000000000000e+00  6.4247844213006729e-09 1.6254419234141210e-07 0.0000000000000000e+00  2.1701437294073366e-08 2.2062024352927349e-07 0.0000000000000000e+00  2.8389547142426402e-08 2.7760459735287186e-07 0.0000000000000000e+00  7.0818931266641331e-09 3.1530886433670909e-07 0.0000000000000000e+00  -5.1523648860452370e-08 3.5143031749152719e-07 0.0000000000000000e+00  -5.4589248433370795e-09 -1.5563185135673199e-07 0.0000000000000000e+00  -1.4132975446624826e-08 -1.1798810872514387e-07 0.0000000000000000e+00  -3.4000297132037252e-09 -2.7315682435753326e-08 0.0000000000000000e+00  -3.1698559174331738e-09 7.5134648448368842e-08 0.0000000000000000e+00  1.1513648122533755e-08 1.9128720712679318e-07 0.0000000000000000e+00  1.6964811239842997e-08 2.9372783416041004e-07 0.0000000000000000e+00  -8.0380846772053056e-09 3.5944058610926958e-07 0.0000000000000000e+00  -9.2183776369390967e-09 -7.1908196507211065e-08 0.0000000000000000e+00  -2.4895270142038219e-09 1.9563609465131742e-08 0.0000000000000000e+00  1.5233576997751585e-09 1.3356997048173979e-07 0.0000000000000000e+00  3.3812492283762519e-08 2.4602854064233959e-07 0.0000000000000000e+00  2.6450041957370287e-09 3.3132348662115893e-07 0.0000000000000000e+00  1.5193228073791027e-07 -3.8487545205121014e-07 0.0000000000000000e+00  6.3623495858808652e-07 -1.1303610791430885e-07 0.0000000000000000e+00  1.0582634020713641e-06 5.2241373776478788e-07 0.0000000000000000e+00  6.7004261874562990e-08 -3.1378224121600565e-07 0.0000000000000000e+00  5.2558522237830531e-07 -7.2377077354419498e-07 0.0000000000000000e+00  1.0075949667577305e-06 -7.1967532160396220e-08 0.0000000000000000e+00  1.5195677627221790e-06 6.5639304683859253e-07 0.0000000000000000e+00  8.9724788851572689e-08 -2.7812519486701032e-07 0.0000000000000000e+00  -1.3313083482487267e-07 -3.8212604105847003e-07 0.0000000000000000e+00  6.8856076495874594e-07 1.0750604587557460e-09 0.0000000000000000e+00  3.1371526617745426e-07 -6.6067214763525243e-07 0.0000000000000000e+00  1.2819389062773244e-06 1.3122835318533001e-07 0.0000000000000000e+00  1.3095146081962763e-06 2.5448547488292749e-07 0.0000000000000000e+00  1.2269734863039451e-06 1.3416317906211489e-06 0.0000000000000000e+00  1.1783608285902187e-06 1.2710799535119408e-06 0.0000000000000000e+00  1.1685645889205894e+03 -8.7929386786205464e+02 0.0000000000000000e+00  1.1651467385982567e+03 -8.6579647755573592e+02 0.0000000000000000e+00  7.6594632140754342e+01 2.7043913114377432e+02 0.0000000000000000e+00  1.2864123917665117e+03 1.0541325291654186e+02 0.0000000000000000e+00  1.2084283817182256e+03 8.9349391582215560e+01 0.0000000000000000e+00  1.3222949401468750e+02 3.4341853854036623e+02 0.0000000000000000e+00  2.6372311022166258e+02 4.5830399402853595e+02 0.0000000000000000e+00  2.2176455613141360e+02 4.0027853977970329e+02 0.0000000000000000e+00  1.3348157552918124e+02 -2.6094229763560759e+02 0.0000000000000000e+00  9.7830154919011235e+01 -1.9941687275935277e+02 0.0000000000000000e+00  7.8663713506033298e+02 -2.1962414541373724e+02 0.0000000000000000e+00  4.5220909755840989e+02 -4.9281414166384116e+02 0.0000000000000000e+00  8.1976733329529827e+02 -4.3598723048619308e+02 0.0000000000000000e+00  6.6225271329587329e+01 4.8240739511710478e+02 0.0000000000000000e+00  2.3550603449596323e+02 6.3172024826647680e+02 0.0000000000000000e+00  8.6698527604078350e+00 2.6211767154394585e+02 0.0000000000000000e+00  7.2633142723864046e+02 1.0778370323800573e+02 0.0000000000000000e+00  6.8427174493169605e+02 2.1362776821271598e+02 0.0000000000000000e+00  -5.1041433472964897e+01 -2.0334114181884351e+02 0.0000000000000000e+00  -5.2450324423864060e+01 -5.1128928906611300e+01 0.0000000000000000e+00  1.2437825793637364e+03 -1.6422692188481068e+02 0.0000000000000000e+00  5.0365031429774194e+02 -2.0749722013317484e+02 0.0000000000000000e+00  1.2832787267694778e+02 5.1115516353441507e+02 0.0000000000000000e+00  8.5453695669153456e+02 -2.2526073725556472e+02 0.0000000000000000e+00  5.2707449682387426e+02 -5.6247610045320994e+02 0.0000000000000000e+00  4.8755942631230215e-01 1.3838701029597971e+02 0.0000000000000000e+00  8.5914494719027755e+02 7.7841608290701765e+02 0.0000000000000000e+00  1.1276604837388629e+03 1.5741353803637045e+02 0.0000000000000000e+00  2.3885317382768784e+02 -7.5640003964079438e+02 0.0000000000000000e+00  1.0489642743823179e+03 2.1482100531097930e+02 0.0000000000000000e+00  1.4714791991022962e+03 -2.4261655700234778e+02 0.0000000000000000e+00  9.5901586689588601e+02 6.0504400226649216e+02 0.0000000000000000e+00  1.6817087019215096e+03 4.3897199743569155e+02 0.0000000000000000e+00  2.8472527681397128e+02 -7.3737179614502327e+02 0.0000000000000000e+00  1.0250829577424672e+03 6.9135888093935819e+02 0.0000000000000000e+00  1.0313751713354268e+03 8.1612598512854856e+02 0.0000000000000000e+00  8.5168416740102816e+02 -5.0169780637832110e+02 0.0000000000000000e+00  2.4276534957743451e+01 3.1688001329261198e+02 0.0000000000000000e+00  1.4979139129640571e+03 -3.0462068559059776e+02 0.0000000000000000e+00  4.1775902975662331e+02 2.2171356248553113e+02 0.0000000000000000e+00  1.4765342074275422e+03 -6.6113356781618563e+02 0.0000000000000000e+00  2.9819369755937555e+02 -1.7767240025277934e+02 0.0000