<?xml version="1.0"?>
<VTKFile type="UnstructuredGrid"  version="0.1"  >
<UnstructuredGrid>
<Piece  NumberOfPoints="4153" NumberOfCells="8064">
<Points>
<DataArray  type="Float64"  NumberOfComponents="3"  format="ascii">-0.4200022915044353 -0.5767040434433444 0  -0.0491901931971602 -0.685824712140602 0  -0.0980897406961027 -0.6815332088275069 0  -0.1464417122251523 -0.6740239075548737 0  -0.1941296836434129 -0.6638988880424619 0  -0.2413673303541524 -0.6520798220633662 0  -0.2877727942814416 -0.6364123216116543 0  -0.3330326314550285 -0.6181967653627686 0  -0.3771213060493326 -0.5982208463252715 0  -2.550545884097725e-06 -0.6865221839790664 0  -0.4619759811204243 -0.5558058783721793 0  -0.5033039871442732 -0.5350835001078506 0  -0.5440555673818874 -0.5148316500924589 0  -0.5842958577293913 -0.4954130633491324 0  -0.6242228335981882 -0.4771209510897629 0  -0.6638197000208663 -0.4600225888731634 0  -0.7032121630065472 -0.4449057638143361 0  0.6827177093609735 -0.4613527609919932 0  0.04916263575235812 -0.6835961392970575 0  0.09799859383769784 -0.6771295781028175 0  0.1462244935381867 -0.6673864110271321 0  0.1936112262847883 -0.6547481107764276 0  0.240051139504132 -0.6399537158057053 0  0.2855408111898984 -0.6234899580060802 0  0.3301042866431004 -0.6058164871165963 0  0.3737834326165811 -0.5874151160460791 0  0.416703928940228 -0.5687200079899549 0  0.458963366308387 -0.5500604393815545 0  0.5006542112828942 -0.5316910157495542 0  0.5418483643865528 -0.5139513125350884 0  0.5826177751931445 -0.4969329743057074 0  0.6230075586839829 -0.481048028150621 0  0.6631393426178217 -0.466935699991764 0  0.6430005411648939 -0.4740009748705649 0  -0.6833949311515775 -0.4524822080301303 0  -0.604303891172847 -0.4861724419434892 0  -0.523739940664953 -0.5248926581888246 0  -0.4410520211662138 -0.5662212555349191 0  -0.3552228905538884 -0.6083258383210705 0  -0.2647077761844699 -0.6446153444582901 0  -0.1703681391264796 -0.6692755409311085 0  -0.07369487135551397 -0.6841103380263099 0  0.6028491485539417 -0.4889116957448492 0  0.1222032938565662 -0.6726431355214425 0  0.2169496753357285 -0.6475893760105297 0  0.3079329691482035 -0.6147867723495901 0  0.3953343689311619 -0.5780836672207145 0  0.4798721956490141 -0.5408376959308711 0  0.5622895874122766 -0.5053412750355344 0  0.02460209137682378 -0.6855112817129535 0  -0.7223598116330805 -0.4387457587695223 0  0.5212960076601343 -0.522720063237205 0  0.4379100358499488 -0.5593731430710331 0  0.3520434858702514 -0.5966615496582592 0  0.2629141445308031 -0.6319047041623294 0  0.1700379434940722 -0.6613895269000272 0  0.07364045729313742 -0.6807929802513002 0  -0.02461196695911334 -0.6866325259678726 0  -0.1223456198646397 -0.6781512686980885 0  -0.2177508476901969 -0.6583493961726008 0  -0.3105466412474638 -0.6275566613694206 0  -0.3987928426770179 -0.5875990170127484 0  -0.4827164808400071 -0.54540658368408 0  -0.564224941758485 -0.5049615257303753 0  -0.6440443421807537 -0.4685051484069235 0  0.8397916830455956 -0.2728536501003662 0  0.7441937625751286 -0.4388214258523616 0  0.7963798662928283 -0.3969449312414818 0  0.8300357484658939 -0.3394033273495523 0  0.7137737372323025 -0.4505060035724286 0  0.7710699714481433 -0.4189146948644698 0  0.8120124095028328 -0.3672577873822953 0  0.8341718243613702 -0.3057847775130213 0  0.6984499090820124 -0.4568710915565541 0  0.7289080664653339 -0.4442104371447242 0  0.7576889467377391 -0.4290315577684113 0  0.7833235840280032 -0.4071924868902823 0  0.8052570992232084 -0.3826734940391275 0  0.8205172907105938 -0.3531959763622739 0  0.8316447872448783 -0.3224307424733 0  0.8365138047968872 -0.2892232770393156 0  0.8391716971404263 -0.2513486931901352 0  0.8440195321608986 0.2226485526269127 0  0.843541947985567 0.1799708293757707 0  0.8441907882133517 0.1371961632596635 0  0.8453576200673246 0.09420886358091621 0  0.8467724613186075 0.05090682063457268 0  0.8471918929391775 0.00734767633765443 0  0.8466731355058416 -0.0362670489304119 0  0.8452243923461619 -0.07980306910806348 0  0.8428671665554407 -0.1230544466620334 0  0.8408226449328006 -0.165995579477215 0  0.8393645243274545 -0.2087181820110241 0  0.845187036015363 0.2441275601346387 0  0.8435935484082863 0.2013099502339251 0  0.8447343004704247 0.1157336876103741 0  0.847100408777693 0.02914346984325908 0  0.8460682437041629 -0.05805384309666354 0  0.8418023625169699 -0.1445583163252342 0  0.8390650907328133 -0.2300362806551007 0  0.8437809371439469 0.1586047406539561 0  0.8461176634402766 0.07261424713043498 0  0.8470458064234808 -0.01446103727436618 0  0.8440779164083672 -0.1014853060272153 0  0.8400019246095166 -0.1873789886212822 0  0.6933024737644069 0.4347606012800541 0  0.8370935663001022 0.3109816619462499 0  0.8049183417362535 0.3692877133121242 0  0.7539123979573906 0.4119689815542181 0  0.8405979581624246 0.2772326112644428 0  0.8201638972879245 0.3394193949425339 0  0.7801869530098187 0.3915198179805964 0  0.7238749201757479 0.423785260292282 0  0.842587925431162 0.2606109236567118 0  0.8384853705031862 0.2939579886049786 0  0.8282377577854654 0.3250801163983777 0  0.8133648875037657 0.3547565575294401 0  0.7921534927916504 0.3796805582455997 0  0.767093522931146 0.4018633370904894 0  0.7388175944492645 0.4174833005316492 0  0.7087570780163991 0.430104311133868 0  -0.03544702624115579 0.6939316836852805 0  0.6348159054785024 0.4558906489591768 0  0.5952673348762787 0.4729508803635109 0  0.5553479486574965 0.4912529125869519 0  0.5150310355889971 0.5106412345287044 0  0.4741468369620367 0.5308068934212348 0  0.4326123323415775 0.5514181422710219 0  0.390323702395181 0.5721968294455496 0  0.3471604425031803 0.5929212160165296 0  0.3029554934732659 0.6130043100996669 0  0.2576655997541241 0.6319980389386539 0  0.2112456983348416 0.6494279473908909 0  0.1636634165208789 0.664860536256995 0  0.1149812555733485 0.6773640590603579 0  0.06540393252533994 0.6865496031903613 0  0.01518401683588221 0.6920556473370819 0  0.6741524581365885 0.4407801724351499 0  -0.08608131384184572 0.6910047104273257 0  -0.1362008162180615 0.6837577759184564 0  -0.1853961394332356 0.6725552172017627 0  -0.233195604212123 0.6574094769733504 0  -0.2796307632671841 0.6407982136749582 0  -0.3248820967580737 0.6227737291056532 0  -0.3690311546086921 0.60371761513322 0  -0.4121251854565299 0.5839317140382694 0  -0.454405927422336 0.5643127031147657 0  -0.4960267660214761 0.5448993731469792 0  -0.5370871285084056 0.5259043155662918 0  -0.5776720028900827 0.5075511976130349 0  -0.6178387133332925 0.4900512288315124 0  -0.6576681344224061 0.473779709283881 0  -0.6973037549941289 0.459391167551126 0  -0.7166354198927519 0.4537116268215147 0  -0.6773982689918321 0.4665979647394554 0  -0.5978046784897108 0.4986873099800317 0  -0.5166215769095138 0.535338594897145 0  -0.4333517433735117 0.5741104908123328 0  -0.3470878320942878 0.6133429468095142 0  -0.256564690421904 0.6493153265098506 0  -0.1609365360847224 0.6785760898238792 0  -0.06079681978678342 0.6930039472960279 0  0.04035879636903403 0.6897939431333212 0  0.1394482478470566 0.6714878242044996 0  0.234597187530269 0.6409403586851294 0  0.3251876979642672 0.6030743869427443 0  0.4115674409053993 0.5618043624541645 0  0.4946611021271921 0.5206559595062102 0  0.5753587970612979 0.4819943750621289 0  0.6543935945983749 0.4483456810019386 0  -0.6377841182577185 0.4818294957198372 0  -0.5574329495353935 0.5166395188445616 0  -0.4752920224848753 0.5545664785158095 0  -0.390717379448533 0.5938574996184099 0  -0.3023987557601636 0.6319376923590622 0  -0.2095451832863154 0.6653721975716689 0  -0.1112319787852138 0.6878945812506533 0  -0.01006814935844227 0.6935364128026253 0  0.09029023835369396 0.6823969605921139 0  0.1876134727936044 0.6574678487055933 0  0.2804497561008421 0.622667782586239 0  0.3688690344788682 0.5825911027293552 0  0.453466900839591 0.5410761106896007 0  0.5352511154065921 0.5008095683180125 0  0.6150763101180886 0.4643309181998418 0  -0.8715111647717894 0.2653106171574695 0  -0.7776863596214285 0.4315252952837227 0  -0.8293658838100495 0.3895286221199465 0  -0.862395661133501 0.3318130696323709 0  -0.7474258166565502 0.443038839573006 0  -0.8042882088357862 0.4114833823819128 0  -0.8448594607914307 0.3598589509966657 0  -0.8663088220366943 0.2982288135513524 0  -0.7322035529595138 0.44925100910049 0  -0.7624746940313724 0.4368648317238161 0  -0.7910305151093276 0.4216401374557249 0  -0.8164186564038839 0.3997703797786748 0  -0.8380460936092118 0.3751754655849531 0  -0.8531838919242566 0.3457134802815762 0  -0.8639421749509935 0.3148650972546239 0  -0.8685306875857608 0.2816907888056842 0  -0.8706908196804063 0.2438878920918784 0  -0.8741406894341597 -0.2280836515593026 0  -0.8734907802854373 -0.1855611975720808 0  -0.8740888830387694 -0.1429818163459188 0  -0.8752863289284479 -0.1002099888998023 0  -0.876829172792245 -0.05713822376890386 0  -0.8774444104297071 -0.01379709263726901 0  -0.8771503380085094 0.02960847343529624 0  -0.8759510760282421 0.07294954901657816 0  -0.8738179038789865 0.1160277687021538 0  -0.8719888819548287 0.1588046798279854 0  -0.8707313807734 0.2013841672136508 0  -0.8752652245123123 -0.2495420305119449 0  -0.8736135511912465 -0.2068184012246471 0  -0.8746417358490336 -0.1216262456193661 0  -0.8772532871727226 -0.03548447156015141 0  -0.8766654001088022 0.05129586799127867 0  -0.8728589916318844 0.1374462310049595 0  -0.8705104922341147 0.2226344693220174 0  -0.8736963411959207 -0.1642895056639208 0  -0.876091834371328 -0.07873087387400754 0  -0.8774071323642337 0.007905734366051166 0  -0.8749255180186117 0.09454430782558754 0  -0.8712695691457241 0.1801135093366176 0  -0.866861744333188 -0.3161913081642034 0  -0.8342733306845709 -0.3740577645603252 0  -0.7830460942199661 -0.4163844770224031 0  -0.8704599403346025 -0.2825262168994273 0  -0.8495827743735955 -0.3443251373026288 0  -0.809485961355863 -0.3962691138231036 0  -0.7529749980554193 -0.4281303825989493 0  -0.8724695554778061 -0.2659470495414114 0  -0.868260891
[...]
<PointData  Vectors="f_4057"> 
<DataArray  type="Float64"  Name="f_4057"  NumberOfComponents="3" format="ascii">4.5310589827900161e-01 8.9144878061314126e-01 0.0000000000000000e+00  5.2931793074417234e-02 8.6525354398375820e-01 0.0000000000000000e+00  1.2181467304195409e-01 9.8608724505621315e-01 0.0000000000000000e+00  1.8157139933907632e-01 9.8355770374039087e-01 0.0000000000000000e+00  2.2523567487447510e-01 9.7430751050743625e-01 0.0000000000000000e+00  2.8104968937867275e-01 9.5982759464436962e-01 0.0000000000000000e+00  3.4918031549547152e-01 9.3710452912836095e-01 0.0000000000000000e+00  3.9640086935711316e-01 9.1811299755964182e-01 0.0000000000000000e+00  4.2797733784571096e-01 9.0382612283199792e-01 0.0000000000000000e+00  2.1154038218149786e-02 -1.3302893031962983e+00 0.0000000000000000e+00  4.4736732225392173e-01 8.9437540849256525e-01 0.0000000000000000e+00  4.4746473175380197e-01 8.9435445956713777e-01 0.0000000000000000e+00  4.4242091011643103e-01 8.9689583597706790e-01 0.0000000000000000e+00  4.2349647772009674e-01 9.0608392146071581e-01 0.0000000000000000e+00  4.0519767407612167e-01 9.1450803052693674e-01 0.0000000000000000e+00  3.7630542915870430e-01 9.2696084859895567e-01 0.0000000000000000e+00  3.4082350612579843e-01 9.4082947669789052e-01 0.0000000000000000e+00  2.5335906618393877e-01 -9.6963721771369027e-01 0.0000000000000000e+00  9.5997831334572389e-02 -9.9615430371705238e-01 0.0000000000000000e+00  1.6581335703390737e-01 -9.8591342633252976e-01 0.0000000000000000e+00  2.2929574195925184e-01 -9.7341864655647370e-01 0.0000000000000000e+00  2.8273579154093220e-01 -9.5923573429063169e-01 0.0000000000000000e+00  3.2329204570944708e-01 -9.4632472176987226e-01 0.0000000000000000e+00  3.5572570186032421e-01 -9.3460546663446209e-01 0.0000000000000000e+00  3.8075553587117417e-01 -9.2468554104937584e-01 0.0000000000000000e+00  3.9446922052596411e-01 -9.1892274003251539e-01 0.0000000000000000e+00  4.0250770881883186e-01 -9.1544261778731273e-01 0.0000000000000000e+00  4.0418844130695153e-01 -9.1472571897400357e-01 0.0000000000000000e+00  4.0137921052610787e-01 -9.1598876344402003e-01 0.0000000000000000e+00  3.8996246632822890e-01 -9.2097946349209769e-01 0.0000000000000000e+00  3.7432989628625518e-01 -9.2753979553979149e-01 0.0000000000000000e+00  3.4653754061593073e-01 -9.3846596572584884e-01 0.0000000000000000e+00  3.0813485678526731e-01 -9.5206119606708206e-01 0.0000000000000000e+00  3.3415885382036575e-01 -9.4294462077496866e-01 0.0000000000000000e+00  3.5845311905780930e-01 9.3410229286403346e-01 0.0000000000000000e+00  4.1767775232936477e-01 9.0877368182357865e-01 0.0000000000000000e+00  4.4511807952612931e-01 8.9554513445595174e-01 0.0000000000000000e+00  4.4343743736060331e-01 8.9633964929752985e-01 0.0000000000000000e+00  4.1296497743557975e-01 9.1076409335988107e-01 0.0000000000000000e+00  3.2220569020392492e-01 9.4676557255542426e-01 0.0000000000000000e+00  2.0982089985444019e-01 9.7772550760165822e-01 0.0000000000000000e+00  8.7639429522596582e-02 1.0341562793677839e+00 0.0000000000000000e+00  3.6887022784653234e-01 -9.2968912543355919e-01 0.0000000000000000e+00  1.9824563555319569e-01 -9.8026661950807781e-01 0.0000000000000000e+00  3.0379872641084549e-01 -9.5276598539241197e-01 0.0000000000000000e+00  3.6886958704876993e-01 -9.2949476498821049e-01 0.0000000000000000e+00  3.9977604881538198e-01 -9.1662950297922274e-01 0.0000000000000000e+00  4.0345182679925101e-01 -9.1506452326436827e-01 0.0000000000000000e+00  3.8681241214004441e-01 -9.2229885445940518e-01 0.0000000000000000e+00  5.9312973435528965e-02 -9.5662764354861318e-01 0.0000000000000000e+00  2.7190053585367102e-01 9.6469815633802380e-01 0.0000000000000000e+00  3.9549610118872186e-01 -9.1858092282096537e-01 0.0000000000000000e+00  4.0423479667902407e-01 -9.1469049050105378e-01 0.0000000000000000e+00  3.8856251374849038e-01 -9.2143049268901822e-01 0.0000000000000000e+00  3.4072553730803162e-01 -9.4018234423654634e-01 0.0000000000000000e+00  2.5852534427369872e-01 -9.6605568328915314e-01 0.0000000000000000e+00  1.3142935862516436e-01 -9.9253034189500577e-01 0.0000000000000000e+00  7.3390917580166675e-03 1.1424651750380195e+00 0.0000000000000000e+00  1.5434951812845685e-01 9.8856390154813112e-01 0.0000000000000000e+00  2.3744703169354742e-01 9.7151669373539506e-01 0.0000000000000000e+00  3.7362978527786816e-01 9.2762576160211663e-01 0.0000000000000000e+00  4.5247856584448565e-01 8.9181706858251275e-01 0.0000000000000000e+00  4.4864955093779535e-01 8.9374283394763177e-01 0.0000000000000000e+00  4.3547126916274698e-01 9.0031863373559640e-01 0.0000000000000000e+00  3.9938100703486201e-01 9.1702417009441373e-01 0.0000000000000000e+00  9.9813034958801361e-01 -7.5875582962390095e-02 0.0000000000000000e+00  4.6592627916882834e-01 -8.8737279573422934e-01 0.0000000000000000e+00  7.2457805984825518e-01 -6.9674916688514699e-01 0.0000000000000000e+00  9.4610222461203186e-01 -3.3721573128985904e-01 0.0000000000000000e+00  4.1366405636104037e-01 -9.1050708294315363e-01 0.0000000000000000e+00  6.6136328175619330e-01 -7.4981304737007470e-01 0.0000000000000000e+00  9.0266082054989139e-01 -4.3058360958577618e-01 0.0000000000000000e+00  9.8799187696739743e-01 -1.5252030005032927e-01 0.0000000000000000e+00  3.2762470697014651e-01 -9.4585352108738641e-01 0.0000000000000000e+00  3.1970146463507554e-01 -9.5203846462560815e-01 0.0000000000000000e+00  6.0825166156333110e-01 -7.9524312636738548e-01 0.0000000000000000e+00  6.3837499027606492e-01 -7.7144499720138138e-01 0.0000000000000000e+00  9.1621509374257004e-01 -4.1960644083611348e-01 0.0000000000000000e+00  7.9805478333321678e-01 -6.1571383224418785e-01 0.0000000000000000e+00  1.0052745419307842e+00 -6.6030233616411221e-02 0.0000000000000000e+00  9.8147446454097798e-01 -1.9455952380797822e-01 0.0000000000000000e+00  1.0014669682726207e+00 4.7350277028846151e-02 0.0000000000000000e+00  1.0002102408246138e+00 -6.5006882719146980e-02 0.0000000000000000e+00  1.0002503803107874e+00 2.7886061337097749e-03 0.0000000000000000e+00  9.9980986977021258e-01 2.2510873912068671e-02 0.0000000000000000e+00  9.9947756259850840e-01 3.2582687179369074e-02 0.0000000000000000e+00  9.9975109715326149e-01 2.2873146458537698e-02 0.0000000000000000e+00  1.0000056426658690e+00 -1.1469236113394476e-03 0.0000000000000000e+00  9.9975368264900566e-01 -2.2471884230966886e-02 0.0000000000000000e+00  9.9893828556821596e-01 -4.6301604997264323e-02 0.0000000000000000e+00  9.9860350780574569e-01 -5.3058668817038863e-02 0.0000000000000000e+00  9.9917351504511009e-01 -4.2286000197312101e-02 0.0000000000000000e+00  1.0000545443795801e+00 -2.0728045987614404e-02 0.0000000000000000e+00  1.0002208481335157e+00 3.9348185850334491e-02 0.0000000000000000e+00  1.0001440021950008e+00 -1.2183845313994642e-03 0.0000000000000000e+00  9.9967314782665428e-01 2.6925045644898841e-02 0.0000000000000000e+00  9.9997002231507881e-01 9.0154679945578294e-03 0.0000000000000000e+00  9.9947617332533689e-01 -3.2697896842115701e-02 0.0000000000000000e+00  9.9890914118149721e-01 -4.7499805034156718e-02 0.0000000000000000e+00  1.0000601858744054e+00 -1.3466239011810500e-02 0.0000000000000000e+00  9.9995998848162182e-01 1.6425065908139625e-02 0.0000000000000000e+00  9.9938607049723438e-01 3.5126221338421429e-02 0.0000000000000000e+00  9.9993617634101983e-01 -1.1934942400851533e-02 0.0000000000000000e+00  9.9838831158018637e-01 -5.6793586443489932e-02 0.0000000000000000e+00  9.9947500553923263e-01 -3.5413399057941330e-02 0.0000000000000000e+00  2.7554727078261765e-01 9.6363170289056288e-01 0.0000000000000000e+00  9.5468793064958724e-01 3.1131638502248093e-01 0.0000000000000000e+00  7.4464550640207461e-01 6.7450559403072707e-01 0.0000000000000000e+00  4.8438830838278524e-01 8.7762785238784669e-01 0.0000000000000000e+00  9.9116319594483593e-01 1.3024333561004539e-01 0.0000000000000000e+00  9.0462613217030741e-01 4.2546537808902557e-01 0.0000000000000000e+00  6.7498071715069541e-01 7.3741310766711587e-01 0.0000000000000000e+00  4.1548631868645752e-01 9.0962409520459619e-01 0.0000000000000000e+00  9.8723751032225238e-01 1.6289656363055097e-01 0.0000000000000000e+00  1.0055572988095638e+00 4.9043526520793690e-02 0.0000000000000000e+00  8.2445656674099421e-01 5.7694505340185886e-01 0.0000000000000000e+00  9.1994768513909686e-01 4.0937399673134883e-01 0.0000000000000000e+00  6.4972636958915653e-01 7.6268482935884108e-01 0.0000000000000000e+00  6.2858092957940459e-01 7.7928059289460372e-01 0.0000000000000000e+00  3.2620905479631751e-01 9.5042489307343359e-01 0.0000000000000000e+00  3.3404637140936516e-01 9.4368944228496177e-01 0.0000000000000000e+00  4.7172094944343745e-03 -8.2555734589568630e-01 0.0000000000000000e+00  3.7514535765887391e-01 9.2746421401508117e-01 0.0000000000000000e+00  4.0541083128833660e-01 9.1441742201275211e-01 0.0000000000000000e+00  4.2413458743734134e-01 9.0577835702465404e-01 0.0000000000000000e+00  4.3975312386822440e-01 8.9821742533496784e-01 0.0000000000000000e+00  4.4440042243684930e-01 8.9588679439658658e-01 0.0000000000000000e+00  4.4367642218736664e-01 8.9621669523484304e-01 0.0000000000000000e+00  4.3792371465847657e-01 8.9902251107427400e-01 0.0000000000000000e+00  4.2502073063169232e-01 9.0519329375293545e-01 0.0000000000000000e+00  4.0154137824337105e-01 9.1585506136583306e-01 0.0000000000000000e+00  3.7064691314412324e-01 9.2880130230013391e-01 0.0000000000000000e+00  3.3243871394365632e-01 9.4316231380013071e-01 0.0000000000000000e+00  2.7951086783596163e-01 9.6021632894314712e-01 0.0000000000000000e+00  2.1717039594336982e-01 9.7633683534986182e-01 0.0000000000000000e+00  1.4718046194983325e-01 9.9094628804766149e-01 0.0000000000000000e+00  7.3703643251081960e-02 9.2505144728388444e-01 0.0000000000000000e+00  3.3523235921351285e-01 9.4295274749577640e-01 0.0000000000000000e+00  1.0064553162728548e-01 -1.0124203831296663e+00 0.0000000000000000e+00  1.8522330070476975e-01 -9.8288353255298355e-01 0.0000000000000000e+00  2.6107304100738443e-01 -9.6544493938682274e-01 0.0000000000000000e+00  3.2426201048069486e-01 -9.4599104661402600e-01 0.0000000000000000e+00  3.5544124081989315e-01 -9.3472994823292455e-01 0.0000000000000000e+00  3.8466551460158860e-01 -9.2307033204027289e-01 0.0000000000000000e+00  4.0792587164344829e-01 -9.1302691601155561e-01 0.0000000000000000e+00  4.2059681829639856e-01 -9.0725148797411681e-01 0.0000000000000000e+00  4.2273323977129412e-01 -9.0627887501590265e-01 0.0000000000000000e+00  4.2199094168156320e-01 -9.0665244774338416e-01 0.0000000000000000e+00  4.1672530086690807e-01 -9.0912308595866687e-01 0.0000000000000000e+00  4.0624804759077476e-01 -9.1391532950553811e-01 0.0000000000000000e+00  3.8740268133464673e-01 -9.2217760733903265e-01 0.0000000000000000e+00  3.5726034840115639e-01 -9.3447898125465068e-01 0.0000000000000000e+00  3.1726382439092132e-01 -9.4912432794130142e-01 0.0000000000000000e+00  2.5892943994791545e-01 -9.6822638624769064e-01 0.0000000000000000e+00  3.4347901270763531e-01 -9.3963807046391623e-01 0.0000000000000000e+00  4.0078718586861412e-01 -9.1633041152069694e-01 0.0000000000000000e+00  4.2014906340982988e-01 -9.0752346868361000e-01 0.0000000000000000e+00  4.2054636174119198e-01 -9.0729044125947556e-01 0.0000000000000000e+00  3.9629933854397048e-01 -9.1813169818195839e-01 0.0000000000000000e+00  3.3532475768802350e-01 -9.4212592524234973e-01 0.0000000000000000e+00  2.2145814721700890e-01 -9.7534068348850289e-01 0.0000000000000000e+00  5.9679938246310502e-02 -9.4604226421605087e-01 0.0000000000000000e+00  1.0830783612837448e-01 9.9764717697771144e-01 0.0000000000000000e+00  2.4895865182345178e-01 9.6857797542458601e-01 0.0000000000000000e+00  3.5150833121677777e-01 9.3621591991084674e-01 0.0000000000000000e+00  4.1381294501804355e-01 9.1037337625752657e-01 0.0000000000000000e+00  4.4110894194737021e-01 8.9747369928673837e-01 0.0000000000000000e+00  4.4253827348353514e-01 8.9682821209355656e-01 0.0000000000000000e+00  4.1784198048248500e-01 9.0870363371206486e-01 0.0000000000000000e+00  3.6057961573715591e-01 9.3324267923212978e-01 0.0000000000000000e+00  3.8121048705467786e-01 -9.2471710178024613e-01 0.0000000000000000e+00  4.1237573774902142e-01 -9.1112759398660015e-01 0.0000000000000000e+00  4.2290781620293866e-01 -9.0621015061591781e-01 0.0000000000000000e+00  4.1876344779009739e-01 -9.0809918392855349e-01 0.0000000000000000e+00  3.7004978965054725e-01 -9.2902882759027594e-01 0.0000000000000000e+00  3.0679048534194986e-01 -9.5196301444800302e-01 0.0000000000000000e+00  1.4313242467862669e-01 -9.8723367166648679e-01 0.0000000000000000e+00  3.8601288750788929e-02 1.4653591822244278e+00 0.0000000000000000e+00  1.8215084208309912e-01 9.8272011786648461e-01 0.0000000000000000e+00  3.0977644783503150e-01 9.5087939632076768e-01 0.0000000000000000e+00  3.8707745399234844e-01 9.2206663882875506e-01 0.0000000000000000e+00  4.3352553135050087e-01 9.0114678259609182e-01 0.0000000000000000e+00  4.4478778979961631e-01 8.9567826294923736e-01 0.0000000000000000e+00  4.3415976475966361e-01 9.0095665716055429e-01 0.0000000000000000e+00  3.9910577705456463e-01 9.1715130740763084e-01 0.0000000000000000e+00  9.9916733318382456e-01 -6.0651072411702235e-02 0.0000000000000000e+00  4.7081916521916178e-01 -8.8491394294224091e-01 0.0000000000000000e+00  7.3201449228923987e-01 -6.8859410176406821e-01 0.0000000000000000e+00  9.4953522202164731e-01 -3.2709712781526251e-01 0.0000000000000000e+00  4.0782874578143896e-01 -9.1310030925694807e-01 0.0000000000000000e+00  6.6524660828493010e-01 -7.4628053351833512e-01 0.0000000000000000e+00  9.0197127746016947e-01 -4.3146389913833438e-01 0.0000000000000000e+00  9.8912695743291401e-01 -1.4494808324906722e-01 0.0000000000000000e+00  3.2446429096269735e-01 -9.4697440199815919e-01 0.0000000000000000e+00  3.1569069855752785e-01 -9.5376808573308058e-01 0.0000000000000000e+00  6.1573630938124491e-01 -7.8947790744923696e-01 0.0000000000000000e+00  6.4045961053550926e-01 -7.7011026720495923e-01 0.0000000000000000e+00  9.1714281451197743e-01 -4.1684825941451598e-01 0.0000000000000000e+00  8.0960341086845167e-01 -5.9893639108306074e-01 0.0000000000000000e+00  1.0053186038046886e+00 -6.0487485248717235e-02 0.0000000000000000e+00  9.8387381410598518e-01 -1.8207691621887229e-01 0.0000000000000000e+00  1.0011002126605988e+00 5.2571935852468478e-02 0.0000000000000000e+00  1.0002128418423910e+00 -6.8150498249689329e-02 0.0000000000000000e+00  1.0002736401387518e+00 6.0665874693293959e-04 0.0000000000000000e+00  9.9981719477612729e-01 2.2446942158829065e-02 0.0000000000000000e+00  9.9942872201356758e-01 3.4132749715295799e-02 0.0000000000000000e+00  9.9963865735271940e-01 2.7300854598893479e-02 0.0000000000000000e+00  9.9999930224192690e-01 3.6219988603883473e-03 0.0000000000000000e+00  9.9985828566407420e-01 -1.7181485525391536e-02 0.0000000000000000e+00  9.9918875156994713e-01 -4.0558509131737343e-02 0.0000000000000000e+00  9.9883160533678850e-01 -4.8546462005477742e-02 0.0000000000000000e+00  9.9936391561897164e-01 -3.7501250907113939e-02 0.0000000000000000e+00  1.0001295279035767e+00 -1.6468694646417398e-02 0.0000000000000000e+00  9.9984254893303326e-01 4.8278588575968708e-02 0.0000000000000000e+00  1.0001463649483866e+00 -6.0140286403317488e-03 0.0000000000000000e+00  9.9965183109885580e-01 2.7830458384338581e-02 0.0000000000000000e+00  9.9991866191821688e-01 1.3564068847488713e-02 0.0000000000000000e+00  9.9964434040318007e-01 -2.7057962702715509e-02 0.0000000000000000e+00  9.9913188367063266e-01 -4.2563886773691349e-02 0.0000000000000000e+00  1.0000962463354968e+00 -1.0479668008968841e-02 0.0000000000000000e+00  9.9998832137884530e-01 1.5304844707872909e-02 0.0000000000000000e+00  9.9926721766734417e-01 3.8341646216028848e-02 0.0000000000000000e+00  9.9998413321400847e-01 -6.7721018875857141e-03 0.0000000000000000e+00  9.9865429202448808e-01 -5.1915228344198365e-02 0.0000000000000000e+00  9.9962671550213322e-01 -3.0789561019451458e-02 0.0000000000000000e+00  9.5226350962212680e-01 3.1905244388344778e-01 0.0000000000000000e+00  7.3638486507278800e-01 6.8388501487561981e-01 0.0000000000000000e+00  4.7763990213323532e-01 8.8120420140881928e-01 0.0000000000000000e+00  9.9080322887937256e-01 1.3301381958398115e-01 0.0000000000000000e+00  9.0656582914803141e-01 4.2194331728122081e-01 0.0000000000000000e+00  6.7085191678725153e-01 7.4129799163823495e-01 0.0000000000000000e+00  4.1392332585028896e-01 9.1040399343328271e-01 0.0000000000000000e+00  9.8600031148627176e-01 1.7022953510333153e-01 0.0000000000000000e+00  1.0057135832892534e+00 5.1315397959417502e-02 0.0000000000000000e+00  8.1410691661876233e-01 5.9306439152893686e-01 0.0000000000000000e+00  9.1873806689813153e-01 4.1262097260859210e-01 0.0000000000000000e+00  6.5088789697739713e-01 7.6111960168543180e-01 0.0000000000000000e+00  6.1836848722981486e-01 7.8740539229964313e-01 0.0000000000000000e+00  3.2480056282979120e-01 9.5067801588280709e-01 0.0000000000000000e+00  3.1993809848496446e-01 9.4880272934445498e-01 0.0000000000000000e+00  4.3764835062235824e-01 -8.9927367078042475e-01 0.0000000000000000e+00  4.3158766475872334e-01 -9.0219823045286307e-01 0.0000000000000000e+00  1.3937363732634928e-01 9.8874675301408232e-01 0.0000000000000000e+00  6.5312595328990830e-01 7.5748751062102471e-01 0.0000000000000000e+00  6.5270513222186255e-01 7.5784735645548129e-01 0.0000000000000000e+00  1.8732798072956638e-01 9.8209159255550960e-01 0.0000000000000000e+00  9.6099657291942975e-01 -2.7714575429861477e-01 0.0000000000000000e+00  9.6251245814570185e-01 -2.7180640657661648e-01 0.0000000000000000e+00  9.6743590190620643e-01 2.5368929363510451e-01 0.0000000000000000e+00  9.6897531821673211e-01 2.4774294642803915e-01 0.0000000000000000e+00  7.5485885376264550e-01 6.5627363653689130e-01 0.0000000000000000e+00  9.2788075956676497e-01 3.7350945026999488e-01 0.0000000000000000e+00  8.7293782897938654e-01 4.8875081823618127e-01 0.0000000000000000e+00  9.9801317748835672e-01 -6.8011752587347721e-02 0.0000000000000000e+00  9.8752183584165110e-01 -1.6250635804777902e-01 0.0000000000000000e+00  1.0000070715143909e+00 -1.7400075193960588e-02 0.0000000000000000e+00  7.0328214781993037e-01 7.1219309411263554e-01 0.0000000000000000e+00  8.4408377309096383e-01 -5.4192363757460038e-01 0.0000000000000000e+00  1.3577728379979037e-01 1.1540603125008060e+00 0.0000000000000000e+00  4.5763659058858180e-01 9.0911779425406769e-01 0.0000000000000000e+00  7.1061917304836986e-01 -7.0523470160802704e-01 0.0000000000000000e+00  8.6528161623152089e-01 5.0335761059681272e-01 0.0000000000000000e+00  9.9336531757223878e-01 -1.1990086660836174e-01 0.0000000000000000e+00  7.5199564351370896e-01 6.5954877740267148e-01 0.0000000000000000e+00  9.2754475835926131e-01 3.7432169908127599e-01 0.0000000000000000e+00  1.0001219606668563e+00 -7.7185573731906407e-03 0.0000000000000000e+00  9.0890435401385705e-01 -4.1759131464108368e-01 0.0000000000000000e+00  7.0861523109285263e-01 -7.0594479849419578e-01 0.0000000000000000e+00  1.5786975766679087e-01 -9.8801912205792752e-01 0.0000000000000000e+00  7.3045271059351768e-01 -6.8332221688841621e-01 0.0000000000000000e+00  6.1184177498763626e-01 -7.9116689691777142e-01 0.0000000000000000e+00  4.7863319577738139e-01 8.7818528668963003e-01 0.0000000000000000e+00  8.0776648167723053e-01 -5.9008363882173531e-01 0.0000000000000000e+00  1.7805269607647922e-01 -9.8379085156848656e-01 0.0000000000000000e+00  4.8034425431133959e-01 8.7731202366234928e-01 0.0000000000000000e+00  8.9553747883553136e-01 -4.4554861641381044e-01 0.0000000000000000e+00  8.8422986137496418e-01 4.6791775681653264e-01 0.0000000000000000e+00  9.9926638562611581e-01 -4.5906552082329632e-02 0.0000000000000000e+00  5.9521875712524130e-01 -8.0374860265784254e-01 0.0000000000000000e+00  8.2585959196543757e-01 -5.6440332124485892e-01 0.0000000000000000e+00  5.9139563840046661e-01 -8.0693271680950041e-01 0.0000000000000000e+00  8.3918962566714805e-01 5.4438247727270073e-01 0.0000000000000000e+00  8.