<?xml version="1.0"?>
<VTKFile type="UnstructuredGrid"  version="0.1"  >
<UnstructuredGrid>
<Piece  NumberOfPoints="4153" NumberOfCells="8064">
<Points>
<DataArray  type="Float64"  NumberOfComponents="3"  format="ascii">-0.4239047651918698 -0.6109530605480015 0  -0.05204200783385295 -0.7552446029429709 0  -0.1030743137080439 -0.7502420294169908 0  -0.1532599422154101 -0.7406601766146428 0  -0.2022822926266795 -0.7271208912673863 0  -0.2502705489703478 -0.7109445949309758 0  -0.2966610425122062 -0.6899189356071976 0  -0.3410574591650666 -0.6656957300078659 0  -0.3834544680294736 -0.6392445601522708 0  -0.000657441246723359 -0.7552912651942141 0  -0.4626462682900286 -0.5830125747810375 0  -0.5002684669212559 -0.5553102351243183 0  -0.5368533992144731 -0.5281261880069118 0  -0.5725574800094489 -0.5018520978062972 0  -0.6077329287572687 -0.477003269081535 0  -0.64248929881581 -0.4537482618779036 0  -0.6769937893762521 -0.4329786975963913 0  0.6514873811010182 -0.4426890625183927 0  0.05053459971339414 -0.7504191455708862 0  0.1010143563747898 -0.7408117387103391 0  0.1503294045984978 -0.7268899564336747 0  0.198127563986108 -0.7091880319722513 0  0.2442507238083462 -0.6886666820135041 0  0.2886932515644069 -0.6659755639390761 0  0.331509965109218 -0.6417431848410406 0  0.3727826423733656 -0.6165420558637874 0  0.4127404429743769 -0.590996115568529 0  0.4515605159758967 -0.5655064334985931 0  0.4894222953836149 -0.5404104654579531 0  0.5264628272910247 -0.5160754025284054 0  0.5628624165886852 -0.4926901447422483 0  0.5987357276361615 -0.4707275328824829 0  0.6342905450121763 -0.4509893323564179 0  0.6163743092627311 -0.460834203185318 0  -0.659533538560534 -0.443248859448967 0  -0.590202324509731 -0.4893200953920934 0  -0.5186686751487096 -0.5416357147519879 0  -0.4433849158325495 -0.596916059179036 0  -0.3625052881989455 -0.652604046315712 0  -0.2737083808613272 -0.7009028726115489 0  -0.1779280798541827 -0.7344099192959981 0  -0.07763613201115806 -0.7533456492477457 0  0.5808312484368718 -0.4816576582446311 0  0.1258415324947217 -0.7343516366162612 0  0.2213996927712736 -0.6992404285312936 0  0.3102938427943961 -0.6540220730638108 0  0.3929179337547727 -0.6037911606208222 0  0.4705957969984153 -0.5529062048559337 0  0.5447495990701698 -0.5042951202906201 0  0.02499604108019444 -0.7534650954666768 0  -0.6937039525899225 -0.4241329975009446 0  0.5080217060263347 -0.5281203664049453 0  0.4322802289563733 -0.5782293280782531 0  0.3523262221552924 -0.6292074542260971 0  0.2666804863796332 -0.6775590134884253 0  0.1744417444561814 -0.718464756588631 0  0.07589411152786778 -0.7461857485306634 0  -0.02635772627408106 -0.7558949602188606 0  -0.1282983557449733 -0.7459993318349525 0  -0.2263219953858807 -0.7194554354152325 0  -0.3190974132923646 -0.6780923951872406 0  -0.4040599821755547 -0.6253983082665527 0  -0.4816004902588742 -0.569131299996374 0  -0.554806101610386 -0.5148350978666928 0  -0.6251153459173026 -0.4653142908004203 0  0.7910335656742425 -0.2542900981680736 0  0.7063677259877902 -0.4154158345588465 0  0.7531616605642872 -0.3729552977949456 0  0.7830310268507159 -0.3176570111855102 0  0.6793770340435074 -0.4295525092011787 0  0.7307637675977473 -0.3954179692536346 0  0.7665434118438459 -0.3440906441158934 0  0.786062450007345 -0.2855744449553734 0  0.6655948173501302 -0.4369647360525609 0  0.692811439434188 -0.4218741751365635 0  0.7186610624885553 -0.4055890868551077 0  0.7415903213291923 -0.3833815848320379 0  0.7615484810651451 -0.3594228974805547 0  0.7740660801389275 -0.3306927119002607 0  0.7838078034371478 -0.3013971088861361 0  0.7879620932162533 -0.2698065595455266 0  0.790367874086072 -0.2338522662070836 0  0.7948621591048173 0.2195862678831584 0  0.7947158069116083 0.1790601129268445 0  0.7958787589975145 0.1382997092205486 0  0.7975598763821838 0.09718982677885292 0  0.7994472772368683 0.05564006185521875 0  0.8001022519235766 0.01373928902256138 0  0.7996082694064214 -0.02824118582394599 0  0.7979707488851902 -0.07011318018895807 0  0.7952020511122291 -0.1115992812760545 0  0.7927070896278205 -0.1526557077211906 0  0.7907967385399312 -0.1933606746055069 0  0.796152074358403 0.2399689784952402 0  0.7945735805868933 0.1993400562554633 0  0.7966885447854513 0.1177925043033968 0  0.7999180068793905 0.03471253478326148 0  0.7989359942571564 -0.04920318343726607 0  0.7939233646570919 -0.1321779887308276 0  0.7903521326148456 -0.2136231910239487 0  0.7952055629919172 0.1587189926789548 0  0.7985727774344182 0.07648992851881571 0  0.7999943820939308 -0.007252614647040587 0  0.7966289902409782 -0.09093104042815277 0  0.791656400319391 -0.1730478366061004 0  0.6625674604232886 0.4305001694382611 0  0.7899198370659765 0.3036029504515474 0  0.7617091696796414 0.3597562709236216 0  0.7163289531676367 0.4029941322423959 0  0.7922787973368798 0.2714111471457271 0  0.7747204807605744 0.3307568890857017 0  0.7399699371626877 0.382395813505876 0  0.6897837584268294 0.4171301075165916 0  0.7938183109627881 0.2556053909922047 0  0.7905508480069512 0.2873176556352171 0  0.7817598941446514 0.3170101811317196 0  0.7694485987067164 0.3458540576743203 0  0.7504424889231662 0.3702730875855973 0  0.7282233042109689 0.3928100076177853 0  0.7029808709347423 0.4095164659375711 0  0.6762916108973007 0.4245188449210689 0  -0.03669823898322232 0.7760605998460111 0  0.6114977289025735 0.4600607146650887 0  0.5768378008426931 0.4833548548341846 0  0.5417153558966012 0.5082829367951044 0  0.5059835923309925 0.5345956685894955 0  0.4693387047903634 0.5618272594904281 0  0.4316073873996376 0.5896089629194201 0  0.3925918300120735 0.6175828957269431 0  0.3520475294551241 0.6454077652396167 0  0.3096795533790743 0.6722458297881008 0  0.2653982111420847 0.6975179648125359 0  0.2191294509043131 0.7205385748349685 0  0.1708629555866464 0.74069290898933 0  0.1207315628932818 0.7567854374110012 0  0.06911128564205096 0.768275854807178 0  0.01647311779494456 0.7746694841548708 0  0.6459233609504972 0.4392432458173794 0  -0.08971821181842383 0.7711956671815545 0  -0.1418020352020072 0.760794594235142 0  -0.1923553496016427 0.7454487896699633 0  -0.2407339049220744 0.7251242631105349 0  -0.2870106136714433 0.7028343044478383 0  -0.3313159933027635 0.6785065763694084 0  -0.3737517672070885 0.6527235852988182 0  -0.4144022221726932 0.6258710387991051 0  -0.4536054961571304 0.5990930436140577 0  -0.4916680435562255 0.5725641868382483 0  -0.5287625345226247 0.5465563593933217 0  -0.5650556089262204 0.521355591945932 0  -0.600689345492444 0.4972205904665661 0  -0.6358500174155924 0.4746456067334366 0  -0.6707607424590905 0.4544519624639524 0  -0.687637150950127 0.4459590860833982 0  -0.6531337739521161 0.4644951941697447 0  -0.5829501983281314 0.5091834977175225 0  -0.5103258623883091 0.5594832217703295 0  -0.4341483428295839 0.6124590809578125 0  -0.3527561055445819 0.6657393567738243 0  -0.2641162495565963 0.7142765130058022 0  -0.1672955467281039 0.7535954677614366 0  -0.06327692888507555 0.7743232699555416 0  0.0428918405903981 0.7721566721503558 0  0.1460091280775674 0.7492593721716585 0  0.2425126062594931 0.7093555843335525 0  0.3310912300609423 0.6589801794406822 0  0.4122705247362562 0.6035946538869634 0  0.487780469755045 0.5481238096589115 0  0.5593438429508721 0.4956983869598373 0  0.6285365361418598 0.4495801176720098 0  -0.6182907078293134 0.4858722258151186 0  -0.5469979847573728 0.5338506441286786 0  -0.4727692024526332 0.5857821075195415 0  -0.3943206416109896 0.6393903064603339 0  -0.3094025061545516 0.690881592850229 0  -0.2169437427403789 0.7358884845187718 0  -0.1159153147808446 0.7666354739970787 0  -0.01004048236666472 0.776073044252106 0  0.09508116080726747 0.7631401083992397 0  0.195264027162526 0.7310773774204089 0  0.2877847426457648 0.6851221490047595 0  0.3725450056969626 0.631563539675827 0  0.4506207277482726 0.5756746576350453 0  0.5239546642891538 0.5212946058183345 0  0.5941900772484442 0.4716299956312341 0  -0.824771829293884 0.2576058293031726 0  -0.7419879469426512 0.4189716763133972 0  -0.7881861053730899 0.3763899976294295 0  -0.817404597298436 0.3209034684543357 0  -0.7151804504693671 0.4329152845813219 0  -0.7660616499223896 0.3988270688740644 0  -0.8014506298007051 0.3475713237025209 0  -0.8202092201510961 0.288866209972766 0  -0.701532456542422 0.4401978633004593 0  -0.7285132973942586 0.4253711759892189 0  -0.7541030094573224 0.409039347130226 0  -0.7767367198499727 0.3868001881287375 0  -0.7963026338376722 0.3627422787105425 0  -0.8087795070777933 0.3340640334706602 0  -0.8181559064287156 0.3046806293702437 0  -0.8219892090291209 0.2731316286258401 0  -0.8238625422347918 0.2372541358641456 0  -0.827013694911517 -0.2143245011387723 0  -0.8267094010070866 -0.1739346510034091 0  -0.8278426638056627 -0.1333483826716087 0  -0.8295611013668935 -0.09243110174442384 0  -0.8315639065351237 -0.05109011431141004 0  -0.8323989949594325 -0.009387537364239019 0  -0.8321135081983664 0.03240190071148707 0  -0.8307113439015072 0.07409519930679187 0  -0.82815445019974 0.1154224898764546 0  -0.825866809772782 0.1563251511744146 0  -0.8241521422243981 0.1968923969004663 0  -0.8282389299650427 -0.2346953567145268 0  -0.8266301111703124 -0.1941418060717751 0  -0.8286675539230048 -0.1129368688428689 0  -0.8321233150999738 -0.03026204796294124 0  -0.8315533928823851 0.05327284117811252 0  -0.8269774918928483 0.1359213984502289 0  -0.823777588836793 0.2170878753371492 0  -0.8271783454801621 -0.1536777490678117 0  -0.8306141814803353 -0.07183551475612693 0  -0.8323918441866274 0.01150777934389285 0  -0.8294842416720303 0.09483330780095485 0  -0.824912995891901 0.1766459338255275 0  -0.8217024617742316 -0.2981523116205869 0  -0.7931107054229287 -0.3538924476656271 0  -0.7475168803136808 -0.3968587512675616 0  -0.8241568128405852 -0.2660319222888775 0  -0.8061570270337127 -0.3249961980241747 0  -0.7713215688950572 -0.3765511983503469 0  -0.7209440219220018 -0.4109949415278794 0  -0.8257142951597364 -0.2502590699846001 0  -0.822
[...]
<PointData  Vectors="f_4623"> 
<DataArray  type="Float64"  Name="f_4623"  NumberOfComponents="3" format="ascii">5.9022450469599308e-01 8.0732484212766686e-01 0.0000000000000000e+00  5.2080200260293238e-02 1.0763780057634935e+00 0.0000000000000000e+00  1.4368560333277416e-01 9.8001345577968646e-01 0.0000000000000000e+00  2.2685717093213809e-01 9.7373040698048074e-01 0.0000000000000000e+00  2.9742663441789130e-01 9.5478844030703491e-01 0.0000000000000000e+00  3.6434990598280687e-01 9.3148220357135492e-01 0.0000000000000000e+00  4.4983077305007230e-01 8.9325827486853371e-01 0.0000000000000000e+00  5.0692309961399740e-01 8.6212432923512250e-01 0.0000000000000000e+00  5.4481771608425200e-01 8.3863030919707926e-01 0.0000000000000000e+00  4.8824353912323912e-02 -1.0713311419242666e+00 0.0000000000000000e+00  5.8804053666675205e-01 8.0883798682900621e-01 0.0000000000000000e+00  5.9613960959121637e-01 8.0288060050897470e-01 0.0000000000000000e+00  5.9587015444292724e-01 8.0308887799709161e-01 0.0000000000000000e+00  5.8412804106311711e-01 8.1171443850307434e-01 0.0000000000000000e+00  5.6606247359649642e-01 8.2448050966600184e-01 0.0000000000000000e+00  5.4153427690826439e-01 8.4088384381651982e-01 0.0000000000000000e+00  4.9701203049888470e-01 8.6823729145581841e-01 0.0000000000000000e+00  3.9214155911097437e-01 -9.2185196644615286e-01 0.0000000000000000e+00  1.4187440578685409e-01 -9.8463426418444688e-01 0.0000000000000000e+00  2.3096833800741731e-01 -9.7302444534455201e-01 0.0000000000000000e+00  3.1093969840412522e-01 -9.5055785752590682e-01 0.0000000000000000e+00  3.7952894771656942e-01 -9.2527200731492809e-01 0.0000000000000000e+00  4.3231065072121588e-01 -9.0179663960370793e-01 0.0000000000000000e+00  4.7542831126714469e-01 -8.7980473948901450e-01 0.0000000000000000e+00  5.0897174118177191e-01 -8.6081783434079340e-01 0.0000000000000000e+00  5.3085812163891799e-01 -8.4747243277001361e-01 0.0000000000000000e+00  5.4490456805339083e-01 -8.3850061208535231e-01 0.0000000000000000e+00  5.5160027604116180e-01 -8.3411117791543299e-01 0.0000000000000000e+00  5.5266631290222012e-01 -8.3341494560586782e-01 0.0000000000000000e+00  5.4336906032692012e-01 -8.3955275313049738e-01 0.0000000000000000e+00  5.3059417331727809e-01 -8.4774109482188920e-01 0.0000000000000000e+00  5.0597311346851592e-01 -8.6276717604800424e-01 0.0000000000000000e+00  4.6863875700945162e-01 -8.8383442489024078e-01 0.0000000000000000e+00  4.8462392705487078e-01 -8.7506024591140819e-01 0.0000000000000000e+00  5.1419479674789659e-01 8.5808672462951530e-01 0.0000000000000000e+00  5.7792711658872353e-01 8.1614706924150304e-01 0.0000000000000000e+00  5.9662637002590135e-01 8.0252102776212197e-01 0.0000000000000000e+00  5.8285740189516377e-01 8.1257645780835297e-01 0.0000000000000000e+00  5.3110084753466980e-01 8.4741691717138745e-01 0.0000000000000000e+00  4.1556863680292122e-01 9.0978574005706947e-01 0.0000000000000000e+00  2.6821626617080918e-01 9.6349437210570144e-01 0.0000000000000000e+00  9.7320887421057142e-02 1.0145246155738030e+00 0.0000000000000000e+00  5.2410803226057634e-01 -8.5175783872210709e-01 0.0000000000000000e+00  2.7200088119051447e-01 -9.6240382397532076e-01 0.0000000000000000e+00  4.0679058455155592e-01 -9.1359965369273732e-01 0.0000000000000000e+00  4.9272667306924017e-01 -8.7022413733061876e-01 0.0000000000000000e+00  5.3904576117640768e-01 -8.4228349051918128e-01 0.0000000000000000e+00  5.5266707072073695e-01 -8.3340921991936179e-01 0.0000000000000000e+00  5.4230074281851171e-01 -8.4022865667994739e-01 0.0000000000000000e+00  9.4416807507196138e-02 -1.0085526174202999e+00 0.0000000000000000e+00  4.2391380826880765e-01 9.0748257096547336e-01 0.0000000000000000e+00  5.4962047557219995e-01 -8.3543896884498292e-01 0.0000000000000000e+00  5.4918219324168560e-01 -8.3570379612387780e-01 0.0000000000000000e+00  5.2176165293983490e-01 -8.5311286494058314e-01 0.0000000000000000e+00  4.5516433818342655e-01 -8.9046871409837802e-01 0.0000000000000000e+00  3.4829665626198342e-01 -9.3749843272422773e-01 0.0000000000000000e+00  1.8719915275165969e-01 -9.8340842579678189e-01 0.0000000000000000e+00  -9.0904134165583109e-04 6.8638599735185449e-02 0.0000000000000000e+00  1.8866227622535117e-01 9.8448070912661234e-01 0.0000000000000000e+00  3.1359230364256835e-01 9.4967000453690220e-01 0.0000000000000000e+00  4.7924726932057371e-01 8.7781523914296389e-01 0.0000000000000000e+00  5.7599348579076948e-01 8.1763725861066694e-01 0.0000000000000000e+00  5.9336174513546358e-01 8.0493837640734001e-01 0.0000000000000000e+00  5.9402949642860203e-01 8.0445651424227915e-01 0.0000000000000000e+00  5.5729117637378833e-01 8.3044251627693610e-01 0.0000000000000000e+00  9.9808323453840431e-01 -7.4413706250494593e-02 0.0000000000000000e+00  5.2915346231525140e-01 -8.5053210503932430e-01 0.0000000000000000e+00  7.3961160628119049e-01 -6.8269922056388155e-01 0.0000000000000000e+00  9.5617004674105222e-01 -3.0737944721753230e-01 0.0000000000000000e+00  5.1478560412810670e-01 -8.5763261211005126e-01 0.0000000000000000e+00  7.0816674440277882e-01 -7.0634133958666634e-01 0.0000000000000000e+00  9.3859000971369722e-01 -3.5057023312303320e-01 0.0000000000000000e+00  9.8962000892277802e-01 -1.4163253198294262e-01 0.0000000000000000e+00  4.1235683916179883e-01 -9.1264783177029540e-01 0.0000000000000000e+00  4.3625975633265957e-01 -9.0290778506712877e-01 0.0000000000000000e+00  6.3978321789995141e-01 -7.7006911934815980e-01 0.0000000000000000e+00  7.0143113564927528e-01 -7.1251626953966873e-01 0.0000000000000000e+00  9.3554942956892329e-01 -3.7497737551424032e-01 0.0000000000000000e+00  8.0023392037236252e-01 -6.1968562322769727e-01 0.0000000000000000e+00  1.0072165691884643e+00 -3.4967748472263804e-02 0.0000000000000000e+00  9.8399687976963179e-01 -1.8082556030753852e-01 0.0000000000000000e+00  1.0013806586033103e+00 4.8361995546872573e-02 0.0000000000000000e+00  9.9997681477092759e-01 -6.7573759989287052e-02 0.0000000000000000e+00  1.0000985397246434e+00 1.3791517853338660e-02 0.0000000000000000e+00  9.9936601646248091e-01 3.6620527402597497e-02 0.0000000000000000e+00  9.9893781241524493e-01 4.6093662956307541e-02 0.0000000000000000e+00  9.9949324529545580e-01 3.2466675172274119e-02 0.0000000000000000e+00  1.0000082971078037e+00 1.9772105534437263e-03 0.0000000000000000e+00  9.9969011113193451e-01 -2.5295312926684452e-02 0.0000000000000000e+00  9.9845676323727039e-01 -5.5850816197529664e-02 0.0000000000000000e+00  9.9784729746967793e-01 -6.5639774892066294e-02 0.0000000000000000e+00  9.9848708381858520e-01 -5.5755657667511095e-02 0.0000000000000000e+00  9.9973650360920896e-01 -3.0976549665989228e-02 0.0000000000000000e+00  1.0003882559994082e+00 3.0566204759738709e-02 0.0000000000000000e+00  1.0000927686052712e+00 8.0116598744254686e-03 0.0000000000000000e+00  9.9919429715037145e-01 4.0605554760582176e-02 0.0000000000000000e+00  9.9990538736016810e-01 1.4840903691219057e-02 0.0000000000000000e+00  9.9928113748296776e-01 -3.8336729170788328e-02 0.0000000000000000e+00  9.9818181006385409e-01 -6.0632463621665078e-02 0.0000000000000000e+00  9.9992420624630685e-01 -2.0242191096251479e-02 0.0000000000000000e+00  9.9960347368210867e-01 3.0167519293795419e-02 0.0000000000000000e+00  9.9883312361077159e-01 4.8437963011185338e-02 0.0000000000000000e+00  9.9994221055089560e-01 -1.1819322782830953e-02 0.0000000000000000e+00  9.9758494497783079e-01 -6.9519569183063831e-02 0.0000000000000000e+00  9.9888436573451422e-01 -4.8628909665812334e-02 0.0000000000000000e+00  4.2200800903838581e-01 9.0855664638937805e-01 0.0000000000000000e+00  9.6440077633015964e-01 2.7957248211804714e-01 0.0000000000000000e+00  7.6683239978123996e-01 6.5010427689802697e-01 0.0000000000000000e+00  5.4989003165109229e-01 8.3751290460801775e-01 0.0000000000000000e+00  9.9330496719577777e-01 1.1296855119894943e-01 0.0000000000000000e+00  9.3519130515081894e-01 3.5611691633454673e-01 0.0000000000000000e+00  7.2436455393136712e-01 6.8942647426778825e-01 0.0000000000000000e+00  5.1821144751760273e-01 8.5544213745031994e-01 0.0000000000000000e+00  9.8969242310435790e-01 1.4691005854550881e-01 0.0000000000000000e+00  1.0068536844582738e+00 1.6415292891400105e-02 0.0000000000000000e+00  8.3444997409737254e-01 5.6645400559574266e-01 0.0000000000000000e+00  9.3849854365360330e-01 3.6465871140205264e-01 0.0000000000000000e+00  7.1064796215804060e-01 7.0450923910997454e-01 0.0000000000000000e+00  6.6480483964713366e-01 7.4853215586612476e-01 0.0000000000000000e+00  4.3970526157403084e-01 9.0206381151341297e-01 0.0000000000000000e+00  4.2653748866872604e-01 9.0622119701538362e-01 0.0000000000000000e+00  2.8224489500271704e-02 -1.3319047244359654e+00 0.0000000000000000e+00  5.4118461872582146e-01 8.4114039706162436e-01 0.0000000000000000e+00  5.6762504599892549e-01 8.2341361789721501e-01 0.0000000000000000e+00  5.8558474081012979e-01 8.1066500350206327e-01 0.0000000000000000e+00  5.9585555198382079e-01 8.0310356890107193e-01 0.0000000000000000e+00  5.9588383166408998e-01 8.0307139736386990e-01 0.0000000000000000e+00  5.8886920649395857e-01 8.0823314039911309e-01 0.0000000000000000e+00  5.7615769987392984e-01 8.1735831237470136e-01 0.0000000000000000e+00  5.5194752608497077e-01 8.3393154517444423e-01 0.0000000000000000e+00  5.1734866678604174e-01 8.5584921015433080e-01 0.0000000000000000e+00  4.7252733465864494e-01 8.8141684967282208e-01 0.0000000000000000e+00  4.1851652772894904e-01 9.0832334496286760e-01 0.0000000000000000e+00  3.4620208771811589e-01 9.3832241829934471e-01 0.0000000000000000e+00  2.6359002747952431e-01 9.6494252954449089e-01 0.0000000000000000e+00  1.7105458527769596e-01 9.8285124232326582e-01 0.0000000000000000e+00  7.4847047306507847e-02 8.6185496948756668e-01 0.0000000000000000e+00  4.9803293723879566e-01 8.6767922680761811e-01 0.0000000000000000e+00  1.4478780553955695e-01 -9.9290309485963069e-01 0.0000000000000000e+00  2.4735015825487233e-01 -9.6866765924782128e-01 0.0000000000000000e+00  3.3281767212670993e-01 -9.4321905766246339e-01 0.0000000000000000e+00  4.1880093516644334e-01 -9.0818469724181350e-01 0.0000000000000000e+00  4.6035821350149586e-01 -8.8784850127236825e-01 0.0000000000000000e+00  5.0231699365518967e-01 -8.6475856289333075e-01 0.0000000000000000e+00  5.3505806601289896e-01 -8.4486601996836286e-01 0.0000000000000000e+00  5.6116247195762459e-01 -8.2772445377269832e-01 0.0000000000000000e+00  5.6858063540126902e-01 -8.2263081020144235e-01 0.0000000000000000e+00  5.7376255905395412e-01 -8.1902313154331308e-01 0.0000000000000000e+00  5.7299561566615831e-01 -8.1957226483909262e-01 0.0000000000000000e+00  5.6529726506468647e-01 -8.2493731962387795e-01 0.0000000000000000e+00  5.4982401513846990e-01 -8.3539896345379161e-01 0.0000000000000000e+00  5.2387612528359273e-01 -8.5201730453568991e-01 0.0000000000000000e+00  4.8279317574550096e-01 -8.7621688520278307e-01 0.0000000000000000e+00  4.0524448216925457e-01 -9.1615587403567866e-01 0.0000000000000000e+00  4.9963741678501034e-01 -8.6661172041163337e-01 0.0000000000000000e+00  5.6239995268164222e-01 -8.2691191235749439e-01 0.0000000000000000e+00  5.7443268936612035e-01 -8.1855650152159465e-01 0.0000000000000000e+00  5.6362664286263631e-01 -8.2603345663615624e-01 0.0000000000000000e+00  5.1956150956845071e-01 -8.5448855858829820e-01 0.0000000000000000e+00  4.3115648333869572e-01 -9.0234022801006453e-01 0.0000000000000000e+00  2.9064150575230141e-01 -9.5707237192491912e-01 0.0000000000000000e+00  9.2713348779793703e-02 -9.3910427016462983e-01 0.0000000000000000e+00  1.1964624989356577e-01 1.0187381906740474e+00 0.0000000000000000e+00  3.0597453594490903e-01 9.5215583164135598e-01 0.0000000000000000e+00  4.4541614991540723e-01 8.9542439985749633e-01 0.0000000000000000e+00  5.3538369869070535e-01 8.4466829668626953e-01 0.0000000000000000e+00  5.8280245443236334e-01 8.1262328837402809e-01 0.0000000000000000e+00  5.9675905985531796e-01 8.0242408031313217e-01 0.0000000000000000e+00  5.7987966061846574e-01 8.1476218975221493e-01 0.0000000000000000e+00  5.1663233114476026e-01 8.5660434829669607e-01 0.0000000000000000e+00  5.4203103005399145e-01 -8.4047348391464882e-01 0.0000000000000000e+00  5.7095984437053582e-01 -8.2099956229529969e-01 0.0000000000000000e+00  5.7211893616222120e-01 -8.2017101956163829e-01 0.0000000000000000e+00  5.5274542023338769e-01 -8.3340997602142231e-01 0.0000000000000000e+00  4.8132021406984088e-01 -8.7661953935674208e-01 0.0000000000000000e+00  3.9310126106727156e-01 -9.1989297770277900e-01 0.0000000000000000e+00  1.9565615869061306e-01 -9.8207313115777894e-01 0.0000000000000000e+00  1.9525394446989256e-02 1.3950740229044385e+00 0.0000000000000000e+00  2.1720844881981233e-01 9.7609560713339871e-01 0.0000000000000000e+00  3.8677791020811586e-01 9.2233985737176172e-01 0.0000000000000000e+00  4.9605460425909220e-01 8.6837649724706922e-01 0.0000000000000000e+00  5.6677778545859969e-01 8.2391450028499613e-01 0.0000000000000000e+00  5.9319773214441807e-01 8.0505786928817813e-01 0.0000000000000000e+00  5.9407774477503217e-01 8.0442467251319549e-01 0.0000000000000000e+00  5.5954545567120328e-01 8.2892406464339563e-01 0.0000000000000000e+00  9.9923361164947899e-01 -5.6991497280268137e-02 0.0000000000000000e+00  5.3518686229608636e-01 -8.4686805646852836e-01 0.0000000000000000e+00  7.4975156616291272e-01 -6.7072057839502264e-01 0.0000000000000000e+00  9.5914682414979957e-01 -2.9761722823190911e-01 0.0000000000000000e+00  5.1075526404272575e-01 -8.5996687462957833e-01 0.0000000000000000e+00  7.1322081556962835e-01 -7.0111023622365443e-01 0.0000000000000000e+00  9.3602880090195406e-01 -3.5569447650679809e-01 0.0000000000000000e+00  9.9102810734232061e-01 -1.3145054805572420e-01 0.0000000000000000e+00  4.1310496431762500e-01 -9.1241890180899377e-01 0.0000000000000000e+00  4.3218543839722412e-01 -9.0531431330414047e-01 0.0000000000000000e+00  6.4859147332318812e-01 -7.6264921616502979e-01 0.0000000000000000e+00  7.0364175236267446e-01 -7.1082247653107522e-01 0.0000000000000000e+00  9.3594384918313966e-01 -3.7283695528886829e-01 0.0000000000000000e+00  8.1428308196597798e-01 -5.9824748798143124e-01 0.0000000000000000e+00  1.0070575615621302e+00 -2.9124714815136198e-02 0.0000000000000000e+00  9.8614842457735075e-01 -1.6893245071813207e-01 0.0000000000000000e+00  1.0009450810313096e+00 5.5134512147435463e-02 0.0000000000000000e+00  1.0000072151355635e+00 -7.0049652256887862e-02 0.0000000000000000e+00  1.0001389790930759e+00 1.2130370543398534e-02 0.0000000000000000e+00  9.9935911069421435e-01 3.6944071793698061e-02 0.0000000000000000e+00  9.9886748874253062e-01 4.7635553776360647e-02 0.0000000000000000e+00  9.9934338378079013e-01 3.6749045311655286e-02 0.0000000000000000e+00  9.9998822529219122e-01 6.5513467254157288e-03 0.0000000000000000e+00  9.9980573707704057e-01 -2.0193543875743833e-02 0.0000000000000000e+00  9.9875789645582658e-01 -5.0195901341167352e-02 0.0000000000000000e+00  9.9812678529841270e-01 -6.1220105803547933e-02 0.0000000000000000e+00  9.9873700744727534e-01 -5.1038754569997562e-02 0.0000000000000000e+00  9.9985289496853613e-01 -2.6650290090212369e-02 0.0000000000000000e+00  1.0000321325625166e+00 4.0577096857246572e-02 0.0000000000000000e+00  1.0001340829138228e+00 3.1810575761371412e-03 0.0000000000000000e+00  9.9914828011231249e-01 4.1791292906231625e-02 0.0000000000000000e+00  9.9983108921587371e-01 1.9213311158854756e-02 0.0000000000000000e+00  9.9947652711832480e-01 -3.2826106904218631e-02 0.0000000000000000e+00  9.9846886713205962e-01 -5.5693143562248561e-02 0.0000000000000000e+00  9.9996756444980806e-01 -1.7883038919982316e-02 0.0000000000000000e+00  9.9962941969962027e-01 2.9589841534979504e-02 0.0000000000000000e+00  9.9867891288010147e-01 5.1496258212789220e-02 0.0000000000000000e+00  9.9998825917882161e-01 -6.8362391726454362e-03 0.0000000000000000e+00  9.9790497891391072e-01 -6.4781338048745085e-02 0.0000000000000000e+00  9.9909977789606941e-01 -4.3914035988093757e-02 0.0000000000000000e+00  9.6254549551064528e-01 2.8628220529481369e-01 0.0000000000000000e+00  7.5753817103736931e-01 6.6167248491429054e-01 0.0000000000000000e+00  5.4439041996150217e-01 8.4098826170021890e-01 0.0000000000000000e+00  9.9282232762015898e-01 1.1715903532268193e-01 0.0000000000000000e+00  9.3890389785672979e-01 3.4782482707729434e-01 0.0000000000000000e+00  7.2010014507628872e-01 6.9404583311486501e-01 0.0000000000000000e+00  5.1334948429462812e-01 8.5838114555720801e-01 0.0000000000000000e+00  9.8864004249020920e-01 1.5372309545976742e-01 0.0000000000000000e+00  1.0070695600188400e+00 1.8815567257866095e-02 0.0000000000000000e+00  8.2337948795475613e-01 5.8498614714307828e-01 0.0000000000000000e+00  9.3783314952062213e-01 3.6708824991128258e-01 0.0000000000000000e+00  7.1312685505698181e-01 7.0135717754193194e-01 0.0000000000000000e+00  6.5551613148869536e-01 7.5671944068204122e-01 0.0000000000000000e+00  4.4163755280176703e-01 9.0073744055154936e-01 0.0000000000000000e+00  4.1752776005859571e-01 9.1062884807459443e-01 0.0000000000000000e+00  4.4671282191369405e-01 -8.9477803030294556e-01 0.0000000000000000e+00  4.4946468966621944e-01 -8.9339296314773942e-01 0.0000000000000000e+00  1.3895946585345714e-01 9.8789493105298687e-01 0.0000000000000000e+00  6.7776317816733000e-01 7.3545158246651932e-01 0.0000000000000000e+00  6.8068105857488392e-01 7.3274745079527348e-01 0.0000000000000000e+00  1.8390752624843382e-01 9.8275679378188774e-01 0.0000000000000000e+00  9.6605118871461726e-01 -2.5887110602625230e-01 0.0000000000000000e+00  9.6810927096236499e-01 -2.5103569716483887e-01 0.0000000000000000e+00  9.7207172883233472e-01 2.3519355254652030e-01 0.0000000000000000e+00  9.7394723597536770e-01 2.2729807397112650e-01 0.0000000000000000e+00  7.9657560620015899e-01 6.0484127282202138e-01 0.0000000000000000e+00  9.3167456323637843e-01 3.6390441023668180e-01 0.0000000000000000e+00  8.5676345172022084e-01 5.1662049466852911e-01 0.0000000000000000e+00  9.9781273362355205e-01 -7.1253306733727678e-02 0.0000000000000000e+00  9.8428643122014348e-01 -1.8219805730344177e-01 0.0000000000000000e+00  9.9997185212863660e-01 -1.8547095364035739e-02 0.0000000000000000e+00  6.5223450026561225e-01 7.5916179951044893e-01 0.0000000000000000e+00  8.0551172999729381e-01 -5.9857454097186336e-01 0.0000000000000000e+00  1.2120929722550608e-01 1.1070742457801828e+00 0.0000000000000000e+00  3.9973264357574939e-01 9.3628166099857324e-01 0.0000000000000000e+00  6.5871302850384394e-01 -7.5394502231906102e-01 0.0000000000000000e+00  8.2869463634675000e-01 5.6177905037053766e-01 0.0000000000000000e+00  9.9267229490636877e-01 -1.2656009158942708e-01 0.0000000000000000e+00  7.9218798807436097e-01 6.1057276349273537e-01 0.0000000000000000e+00  9.2982710500957100e-01 3.6857680810963300e-01 0.0000000000000000e+00  1.0001233358140333e+00 -5.3430529753355450e-03 0.0000000000000000e+00  9.1411695802150472e-01 -4.0602668648989665e-01 0.0000000000000000e+00  7.5454070156715225e-01 -6.5652310237172917e-01 0.0000000000000000e+00  1.5293628947868293e-01 -9.8868961343992678e-01 0.0000000000000000e+00  7.7491112718582844e-01 -6.3234935740748155e-01 0.0000000000000000e+00  6.4720981770900521e-01 -7.6244423022015861e-01 0.0000000000000000e+00  4.8321209111348645e-01 8.7563108630583653e-01 0.0000000000000000e+00  7.9137106221801756e-01 -6.1189076430598976e-01 0.0000000000000000e+00  1.8378525101406437e-01 -9.8254194308407505e-01 0.0000000000000000e+00  4.6981582468132033e-01 8.8293805500064859e-01 0.0000000000000000e+00  9.0011173607123718e-01 -4.3619617121264342e-01 0.0000000000000000e+00  8.6788798510563148e-01 4.9761048911445921e-01 0.0000000000000000e+00  9.9942069878803275e-01 -4.2995511465480876e-02 0.0000000000000000e+00  6.3293203318559232e-01 -7.7433305131387042e-01 0.0000000000000000e+00  8.5704044427980086e-01 -5.1570314650163074e-01 0.0000000000000000e+00  5.4390565016393144e-01 -8.3961502510725694e-01 0.0000000000000000e+00  8.6948779237350604e-01 4.9442478715998267e-01 0.0000000000000000e+00  8.66