<?xml version="1.0"?>
<VTKFile type="UnstructuredGrid"  version="0.1"  >
<UnstructuredGrid>
<Piece  NumberOfPoints="4153" NumberOfCells="8064">
<Points>
<DataArray  type="Float64"  NumberOfComponents="3"  format="ascii">-0.4239047651918698 -0.6109530605480015 0  -0.05204200783385295 -0.7552446029429709 0  -0.1030743137080439 -0.7502420294169908 0  -0.1532599422154101 -0.7406601766146428 0  -0.2022822926266795 -0.7271208912673863 0  -0.2502705489703478 -0.7109445949309758 0  -0.2966610425122062 -0.6899189356071976 0  -0.3410574591650666 -0.6656957300078659 0  -0.3834544680294736 -0.6392445601522708 0  -0.000657441246723359 -0.7552912651942141 0  -0.4626462682900286 -0.5830125747810375 0  -0.5002684669212559 -0.5553102351243183 0  -0.5368533992144731 -0.5281261880069118 0  -0.5725574800094489 -0.5018520978062972 0  -0.6077329287572687 -0.477003269081535 0  -0.64248929881581 -0.4537482618779036 0  -0.6769937893762521 -0.4329786975963913 0  0.6514873811010182 -0.4426890625183927 0  0.05053459971339414 -0.7504191455708862 0  0.1010143563747898 -0.7408117387103391 0  0.1503294045984978 -0.7268899564336747 0  0.198127563986108 -0.7091880319722513 0  0.2442507238083462 -0.6886666820135041 0  0.2886932515644069 -0.6659755639390761 0  0.331509965109218 -0.6417431848410406 0  0.3727826423733656 -0.6165420558637874 0  0.4127404429743769 -0.590996115568529 0  0.4515605159758967 -0.5655064334985931 0  0.4894222953836149 -0.5404104654579531 0  0.5264628272910247 -0.5160754025284054 0  0.5628624165886852 -0.4926901447422483 0  0.5987357276361615 -0.4707275328824829 0  0.6342905450121763 -0.4509893323564179 0  0.6163743092627311 -0.460834203185318 0  -0.659533538560534 -0.443248859448967 0  -0.590202324509731 -0.4893200953920934 0  -0.5186686751487096 -0.5416357147519879 0  -0.4433849158325495 -0.596916059179036 0  -0.3625052881989455 -0.652604046315712 0  -0.2737083808613272 -0.7009028726115489 0  -0.1779280798541827 -0.7344099192959981 0  -0.07763613201115806 -0.7533456492477457 0  0.5808312484368718 -0.4816576582446311 0  0.1258415324947217 -0.7343516366162612 0  0.2213996927712736 -0.6992404285312936 0  0.3102938427943961 -0.6540220730638108 0  0.3929179337547727 -0.6037911606208222 0  0.4705957969984153 -0.5529062048559337 0  0.5447495990701698 -0.5042951202906201 0  0.02499604108019444 -0.7534650954666768 0  -0.6937039525899225 -0.4241329975009446 0  0.5080217060263347 -0.5281203664049453 0  0.4322802289563733 -0.5782293280782531 0  0.3523262221552924 -0.6292074542260971 0  0.2666804863796332 -0.6775590134884253 0  0.1744417444561814 -0.718464756588631 0  0.07589411152786778 -0.7461857485306634 0  -0.02635772627408106 -0.7558949602188606 0  -0.1282983557449733 -0.7459993318349525 0  -0.2263219953858807 -0.7194554354152325 0  -0.3190974132923646 -0.6780923951872406 0  -0.4040599821755547 -0.6253983082665527 0  -0.4816004902588742 -0.569131299996374 0  -0.554806101610386 -0.5148350978666928 0  -0.6251153459173026 -0.4653142908004203 0  0.7910335656742425 -0.2542900981680736 0  0.7063677259877902 -0.4154158345588465 0  0.7531616605642872 -0.3729552977949456 0  0.7830310268507159 -0.3176570111855102 0  0.6793770340435074 -0.4295525092011787 0  0.7307637675977473 -0.3954179692536346 0  0.7665434118438459 -0.3440906441158934 0  0.786062450007345 -0.2855744449553734 0  0.6655948173501302 -0.4369647360525609 0  0.692811439434188 -0.4218741751365635 0  0.7186610624885553 -0.4055890868551077 0  0.7415903213291923 -0.3833815848320379 0  0.7615484810651451 -0.3594228974805547 0  0.7740660801389275 -0.3306927119002607 0  0.7838078034371478 -0.3013971088861361 0  0.7879620932162533 -0.2698065595455266 0  0.790367874086072 -0.2338522662070836 0  0.7948621591048173 0.2195862678831584 0  0.7947158069116083 0.1790601129268445 0  0.7958787589975145 0.1382997092205486 0  0.7975598763821838 0.09718982677885292 0  0.7994472772368683 0.05564006185521875 0  0.8001022519235766 0.01373928902256138 0  0.7996082694064214 -0.02824118582394599 0  0.7979707488851902 -0.07011318018895807 0  0.7952020511122291 -0.1115992812760545 0  0.7927070896278205 -0.1526557077211906 0  0.7907967385399312 -0.1933606746055069 0  0.796152074358403 0.2399689784952402 0  0.7945735805868933 0.1993400562554633 0  0.7966885447854513 0.1177925043033968 0  0.7999180068793905 0.03471253478326148 0  0.7989359942571564 -0.04920318343726607 0  0.7939233646570919 -0.1321779887308276 0  0.7903521326148456 -0.2136231910239487 0  0.7952055629919172 0.1587189926789548 0  0.7985727774344182 0.07648992851881571 0  0.7999943820939308 -0.007252614647040587 0  0.7966289902409782 -0.09093104042815277 0  0.791656400319391 -0.1730478366061004 0  0.6625674604232886 0.4305001694382611 0  0.7899198370659765 0.3036029504515474 0  0.7617091696796414 0.3597562709236216 0  0.7163289531676367 0.4029941322423959 0  0.7922787973368798 0.2714111471457271 0  0.7747204807605744 0.3307568890857017 0  0.7399699371626877 0.382395813505876 0  0.6897837584268294 0.4171301075165916 0  0.7938183109627881 0.2556053909922047 0  0.7905508480069512 0.2873176556352171 0  0.7817598941446514 0.3170101811317196 0  0.7694485987067164 0.3458540576743203 0  0.7504424889231662 0.3702730875855973 0  0.7282233042109689 0.3928100076177853 0  0.7029808709347423 0.4095164659375711 0  0.6762916108973007 0.4245188449210689 0  -0.03669823898322232 0.7760605998460111 0  0.6114977289025735 0.4600607146650887 0  0.5768378008426931 0.4833548548341846 0  0.5417153558966012 0.5082829367951044 0  0.5059835923309925 0.5345956685894955 0  0.4693387047903634 0.5618272594904281 0  0.4316073873996376 0.5896089629194201 0  0.3925918300120735 0.6175828957269431 0  0.3520475294551241 0.6454077652396167 0  0.3096795533790743 0.6722458297881008 0  0.2653982111420847 0.6975179648125359 0  0.2191294509043131 0.7205385748349685 0  0.1708629555866464 0.74069290898933 0  0.1207315628932818 0.7567854374110012 0  0.06911128564205096 0.768275854807178 0  0.01647311779494456 0.7746694841548708 0  0.6459233609504972 0.4392432458173794 0  -0.08971821181842383 0.7711956671815545 0  -0.1418020352020072 0.760794594235142 0  -0.1923553496016427 0.7454487896699633 0  -0.2407339049220744 0.7251242631105349 0  -0.2870106136714433 0.7028343044478383 0  -0.3313159933027635 0.6785065763694084 0  -0.3737517672070885 0.6527235852988182 0  -0.4144022221726932 0.6258710387991051 0  -0.4536054961571304 0.5990930436140577 0  -0.4916680435562255 0.5725641868382483 0  -0.5287625345226247 0.5465563593933217 0  -0.5650556089262204 0.521355591945932 0  -0.600689345492444 0.4972205904665661 0  -0.6358500174155924 0.4746456067334366 0  -0.6707607424590905 0.4544519624639524 0  -0.687637150950127 0.4459590860833982 0  -0.6531337739521161 0.4644951941697447 0  -0.5829501983281314 0.5091834977175225 0  -0.5103258623883091 0.5594832217703295 0  -0.4341483428295839 0.6124590809578125 0  -0.3527561055445819 0.6657393567738243 0  -0.2641162495565963 0.7142765130058022 0  -0.1672955467281039 0.7535954677614366 0  -0.06327692888507555 0.7743232699555416 0  0.0428918405903981 0.7721566721503558 0  0.1460091280775674 0.7492593721716585 0  0.2425126062594931 0.7093555843335525 0  0.3310912300609423 0.6589801794406822 0  0.4122705247362562 0.6035946538869634 0  0.487780469755045 0.5481238096589115 0  0.5593438429508721 0.4956983869598373 0  0.6285365361418598 0.4495801176720098 0  -0.6182907078293134 0.4858722258151186 0  -0.5469979847573728 0.5338506441286786 0  -0.4727692024526332 0.5857821075195415 0  -0.3943206416109896 0.6393903064603339 0  -0.3094025061545516 0.690881592850229 0  -0.2169437427403789 0.7358884845187718 0  -0.1159153147808446 0.7666354739970787 0  -0.01004048236666472 0.776073044252106 0  0.09508116080726747 0.7631401083992397 0  0.195264027162526 0.7310773774204089 0  0.2877847426457648 0.6851221490047595 0  0.3725450056969626 0.631563539675827 0  0.4506207277482726 0.5756746576350453 0  0.5239546642891538 0.5212946058183345 0  0.5941900772484442 0.4716299956312341 0  -0.824771829293884 0.2576058293031726 0  -0.7419879469426512 0.4189716763133972 0  -0.7881861053730899 0.3763899976294295 0  -0.817404597298436 0.3209034684543357 0  -0.7151804504693671 0.4329152845813219 0  -0.7660616499223896 0.3988270688740644 0  -0.8014506298007051 0.3475713237025209 0  -0.8202092201510961 0.288866209972766 0  -0.701532456542422 0.4401978633004593 0  -0.7285132973942586 0.4253711759892189 0  -0.7541030094573224 0.409039347130226 0  -0.7767367198499727 0.3868001881287375 0  -0.7963026338376722 0.3627422787105425 0  -0.8087795070777933 0.3340640334706602 0  -0.8181559064287156 0.3046806293702437 0  -0.8219892090291209 0.2731316286258401 0  -0.8238625422347918 0.2372541358641456 0  -0.827013694911517 -0.2143245011387723 0  -0.8267094010070866 -0.1739346510034091 0  -0.8278426638056627 -0.1333483826716087 0  -0.8295611013668935 -0.09243110174442384 0  -0.8315639065351237 -0.05109011431141004 0  -0.8323989949594325 -0.009387537364239019 0  -0.8321135081983664 0.03240190071148707 0  -0.8307113439015072 0.07409519930679187 0  -0.82815445019974 0.1154224898764546 0  -0.825866809772782 0.1563251511744146 0  -0.8241521422243981 0.1968923969004663 0  -0.8282389299650427 -0.2346953567145268 0  -0.8266301111703124 -0.1941418060717751 0  -0.8286675539230048 -0.1129368688428689 0  -0.8321233150999738 -0.03026204796294124 0  -0.8315533928823851 0.05327284117811252 0  -0.8269774918928483 0.1359213984502289 0  -0.823777588836793 0.2170878753371492 0  -0.8271783454801621 -0.1536777490678117 0  -0.8306141814803353 -0.07183551475612693 0  -0.8323918441866274 0.01150777934389285 0  -0.8294842416720303 0.09483330780095485 0  -0.824912995891901 0.1766459338255275 0  -0.8217024617742316 -0.2981523116205869 0  -0.7931107054229287 -0.3538924476656271 0  -0.7475168803136808 -0.3968587512675616 0  -0.8241568128405852 -0.2660319222888775 0  -0.8061570270337127 -0.3249961980241747 0  -0.7713215688950572 -0.3765511983503469 0  -0.7209440219220018 -0.4109949415278794 0  -0.8257142951597364 -0.2502590699846001 0  -0.822
[...]
<PointData  Vectors="f_4554"> 
<DataArray  type="Float64"  Name="f_4554"  NumberOfComponents="3" format="ascii">7.2646910843581778e-03 1.0046110663771613e-02 0.0000000000000000e+00  1.5414718876720099e-03 3.0937367857361731e-02 0.0000000000000000e+00  4.7529905230097652e-03 3.2736366607540993e-02 0.0000000000000000e+00  7.9972907016766549e-03 3.4194375770656239e-02 0.0000000000000000e+00  9.4687595581402009e-03 3.0584395887669241e-02 0.0000000000000000e+00  1.3800353370507279e-02 3.4989950998131743e-02 0.0000000000000000e+00  2.0975130398987438e-02 4.1782482332612426e-02 0.0000000000000000e+00  2.2436474696485607e-02 3.8277562723621400e-02 0.0000000000000000e+00  1.9112004693166713e-02 2.9120240296172922e-02 0.0000000000000000e+00  -1.4440220072693866e-03 3.0527108732433444e-02 0.0000000000000000e+00  1.1201195893346493e-02 1.5406688445100460e-02 0.0000000000000000e+00  8.5830157441582483e-03 1.1571608911654395e-02 0.0000000000000000e+00  6.8299303254688373e-03 9.2111435712544654e-03 0.0000000000000000e+00  8.4580665501599300e-03 1.1770395434743971e-02 0.0000000000000000e+00  8.0976236449063644e-03 1.1870519932608055e-02 0.0000000000000000e+00  7.1370245874531994e-03 1.1379675810396811e-02 0.0000000000000000e+00  2.6338512221362269e-03 4.6992757604384693e-03 0.0000000000000000e+00  -3.7531291185218543e-02 8.2661222769623316e-02 0.0000000000000000e+00  -4.4877749426091695e-03 3.1359901619904727e-02 0.0000000000000000e+00  -7.8324934063689344e-03 3.3049382276770664e-02 0.0000000000000000e+00  -1.1291275833673375e-02 3.4547512592256205e-02 0.0000000000000000e+00  -1.3938526351236073e-02 3.4066150453347870e-02 0.0000000000000000e+00  -1.5246010328929912e-02 3.1847131640706738e-02 0.0000000000000000e+00  -1.5148573949556579e-02 2.8077060914824453e-02 0.0000000000000000e+00  -1.4141465107118435e-02 2.3968764076007742e-02 0.0000000000000000e+00  -1.1932011677265490e-02 1.9059966218674000e-02 0.0000000000000000e+00  -9.7607703519551822e-03 1.5029737125876325e-02 0.0000000000000000e+00  -7.6821309925195957e-03 1.1622914237184548e-02 0.0000000000000000e+00  -5.3865595826489837e-03 8.1348415916969972e-03 0.0000000000000000e+00  -5.4677694809524184e-03 8.4406713760423070e-03 0.0000000000000000e+00  -6.3264649983493524e-03 1.0187080445966806e-02 0.0000000000000000e+00  -7.1833113503981518e-03 1.2619518847459689e-02 0.0000000000000000e+00  1.8789430662252608e-03 -3.2619503930834538e-03 0.0000000000000000e+00  6.3399127144139636e-04 -1.5086201902644494e-03 0.0000000000000000e+00  6.4899945023633538e-03 1.0679044144174596e-02 0.0000000000000000e+00  4.5588319556561993e-03 6.3992237164908258e-03 0.0000000000000000e+00  7.8453313241008335e-03 1.0559082095991271e-02 0.0000000000000000e+00  1.3565689659634202e-02 1.8805587500601049e-02 0.0000000000000000e+00  1.9164499629310158e-02 3.0729260416467664e-02 0.0000000000000000e+00  1.8293159580494409e-02 4.0464132876856518e-02 0.0000000000000000e+00  9.6944614831332206e-03 3.5222655301231656e-02 0.0000000000000000e+00  3.1201975923010024e-03 3.1818825881705669e-02 0.0000000000000000e+00  6.2879603680497729e-04 -1.2169797996378021e-03 0.0000000000000000e+00  -9.5436649651462879e-03 3.3787483529074402e-02 0.0000000000000000e+00  -1.4895442882578491e-02 3.3486568572830604e-02 0.0000000000000000e+00  -1.4657544646149930e-02 2.5901927049225133e-02 0.0000000000000000e+00  -1.0916789920193893e-02 1.7079396906482157e-02 0.0000000000000000e+00  -6.6763001429628512e-03 1.0073049191690817e-02 0.0000000000000000e+00  -1.6359125551242398e-03 2.5021816173461829e-03 0.0000000000000000e+00  -2.9281678299045107e-03 3.0736541820561580e-02 0.0000000000000000e+00  3.9452385233602130e-02 8.1504167057115454e-02 0.0000000000000000e+00  -5.1794970479430973e-03 7.8809842187526711e-03 0.0000000000000000e+00  -8.6884496684973833e-03 1.3234658828468748e-02 0.0000000000000000e+00  -1.3031192432636028e-02 2.1343360967936095e-02 0.0000000000000000e+00  -1.5425045100369092e-02 3.0223853746935828e-02 0.0000000000000000e+00  -1.3267016507587704e-02 3.5833261635248685e-02 0.0000000000000000e+00  -6.1111922768766367e-03 3.2088387797442428e-02 0.0000000000000000e+00  2.8149589237919949e-05 3.0441661504090733e-02 0.0000000000000000e+00  6.5764813149007109e-03 3.4468634951094410e-02 0.0000000000000000e+00  7.2683425867683931e-03 2.1559810536311719e-02 0.0000000000000000e+00  1.9808746608687634e-02 3.6310713082536736e-02 0.0000000000000000e+00  2.9236315578429078e-02 4.1950932484301574e-02 0.0000000000000000e+00  9.7484487874939432e-03 1.3240309802516306e-02 0.0000000000000000e+00  5.8734326899392798e-03 7.9711214244853890e-03 0.0000000000000000e+00  1.4574408514888460e-03 2.0446731795954933e-03 0.0000000000000000e+00  3.9399126090320043e-02 -2.3177279527470721e-03 0.0000000000000000e+00  6.7379603297070045e-02 -1.0078774654967769e-01 0.0000000000000000e+00  6.4402556994900939e-02 -5.1537481757183562e-02 0.0000000000000000e+00  -1.4393969843581347e-01 5.1953416647520088e-02 0.0000000000000000e+00  2.8431095761113568e-02 -5.2913780134366040e-02 0.0000000000000000e+00  1.9640403277324539e-02 -1.8772340367944684e-02 0.0000000000000000e+00  1.8143290807977655e-01 -7.8269396866287075e-02 0.0000000000000000e+00  2.6751406918118233e-02 -3.5443050162044729e-03 0.0000000000000000e+00  4.4912825694156937e-02 -9.3952053440656352e-02 0.0000000000000000e+00  -5.7739443111441503e-02 1.0569225677022306e-01 0.0000000000000000e+00  3.6313233059627047e-02 -4.9055132698744501e-02 0.0000000000000000e+00  -1.8880165019721017e-02 1.4782472634368994e-02 0.0000000000000000e+00  -1.6058532174569770e-01 7.8753643296452666e-02 0.0000000000000000e+00  -2.0618827857652647e-01 1.1597145669014711e-01 0.0000000000000000e+00  1.8714086113177841e-01 -1.9323728474199144e-02 0.0000000000000000e+00  1.1986627159585088e-02 -2.3785866453839765e-03 0.0000000000000000e+00  7.4552701722388051e-02 5.3503612746289779e-04 0.0000000000000000e+00  5.1334641475917077e-02 -1.7621240280996842e-03 0.0000000000000000e+00  1.9169319884450413e-02 2.9519304416473184e-04 0.0000000000000000e+00  1.1785146475478384e-02 4.2585956906867142e-04 0.0000000000000000e+00  9.4560815217910633e-03 4.2989583362041143e-04 0.0000000000000000e+00  1.0012566729293513e-02 3.2512614130485233e-04 0.0000000000000000e+00  1.0182463047029936e-02 1.9185277566616528e-05 0.0000000000000000e+00  1.0137066058558439e-02 -2.5583964385394363e-04 0.0000000000000000e+00  9.6468951394148260e-03 -5.3295291697825966e-04 0.0000000000000000e+00  9.3464815015513510e-03 -6.1106258781505835e-04 0.0000000000000000e+00  1.2324042213150827e-02 -6.8108827109947668e-04 0.0000000000000000e+00  2.3599000440113146e-02 -7.4944629160260498e-04 0.0000000000000000e+00  2.9156060183618653e-02 1.0037847723657629e-03 0.0000000000000000e+00  2.2640202016847105e-02 -1.0102298564540524e-04 0.0000000000000000e+00  9.8986806710013760e-03 4.0478902395521039e-04 0.0000000000000000e+00  1.0402634489677428e-02 1.6089549155848349e-04 0.0000000000000000e+00  1.0418298602484336e-02 -4.0730697168528385e-04 0.0000000000000000e+00  1.0026930470401995e-02 -6.1013293041506129e-04 0.0000000000000000e+00  2.3551126424583714e-02 -2.5780641020803108e-04 0.0000000000000000e+00  1.4150164152176842e-02 4.0011320830022175e-04 0.0000000000000000e+00  9.7439539683026790e-03 4.3963591852513205e-04 0.0000000000000000e+00  1.0133425335504476e-02 -1.1943392509492463e-04 0.0000000000000000e+00  8.6689045680419623e-03 -5.7778164847719477e-04 0.0000000000000000e+00  1.4512678323947098e-02 -6.7707486540647050e-04 0.0000000000000000e+00  -3.6631229349385418e-02 -7.5019286259385462e-02 0.0000000000000000e+00  -4.3965720156888634e-02 -1.4853981926418723e-02 0.0000000000000000e+00  6.0408934539351748e-02 4.2573572837036201e-02 0.0000000000000000e+00  6.1656056435224156e-02 8.7900554512300638e-02 0.0000000000000000e+00  3.4912616818850870e-02 3.5936990179001155e-03 0.0000000000000000e+00  8.9975287136024748e-02 3.7959170192751517e-02 0.0000000000000000e+00  2.3724154410208888e-02 2.2433009202800294e-02 0.0000000000000000e+00  2.7539576501036635e-02 5.0118289530902208e-02 0.0000000000000000e+00  2.7870287005137901e-02 3.6165873056253272e-03 0.0000000000000000e+00  1.1428639744433533e-01 9.1244941267902158e-03 0.0000000000000000e+00  -7.3720882914630831e-02 -3.6211444451327207e-02 0.0000000000000000e+00  -6.1114132732690771e-02 -2.9247574714099795e-02 0.0000000000000000e+00  -1.4098579874127257e-02 -1.0645439455362379e-02 0.0000000000000000e+00  3.7472872987369510e-02 4.6643254241253533e-02 0.0000000000000000e+00  -4.6641806218534594e-02 -8.3083386710540566e-02 0.0000000000000000e+00  3.7167097260497411e-02 7.4978927519157190e-02 0.0000000000000000e+00  8.0592601018639849e-04 -2.3584126080489064e-02 0.0000000000000000e+00  -8.9679190027993558e-03 -1.4268652795644236e-02 0.0000000000000000e+00  -7.9290820176140375e-03 -1.1571249205883606e-02 0.0000000000000000e+00  -7.5538495795256771e-03 -1.0472589970968135e-02 0.0000000000000000e+00  -6.8995983751961075e-03 -9.3047991788795838e-03 0.0000000000000000e+00  -8.5975715260113664e-03 -1.1596623573953264e-02 0.0000000000000000e+00  -1.0845393061995853e-02 -1.4898167354240877e-02 0.0000000000000000e+00  -1.2922995621089917e-02 -1.8360535856580595e-02 0.0000000000000000e+00  -1.6252920448722966e-02 -2.4589194331589462e-02 0.0000000000000000e+00  -1.7086608874734927e-02 -2.8318106709805148e-02 0.0000000000000000e+00  -1.6857552838165937e-02 -3.1502482013574355e-02 0.0000000000000000e+00  -1.4892540111642656e-02 -3.2420563348416892e-02 0.0000000000000000e+00  -1.2165741754252011e-02 -3.2947502771348801e-02 0.0000000000000000e+00  -8.1817744334028615e-03 -3.0010012633325721e-02 0.0000000000000000e+00  -4.6604329005780400e-03 -2.6974549183741758e-02 0.0000000000000000e+00  -1.8668977505171174e-03 -2.5311923403688326e-02 0.0000000000000000e+00  -2.9026805468302030e-03 -5.4570824617068267e-03 0.0000000000000000e+00  4.3774131027168647e-03 -2.9867140390713972e-02 0.0000000000000000e+00  9.7938213280118081e-03 -3.8608659052285131e-02 0.0000000000000000e+00  1.5042555078305340e-02 -4.2030055498220094e-02 0.0000000000000000e+00  1.3080236923001743e-02 -2.8713045168328385e-02 0.0000000000000000e+00  1.7835184277296745e-02 -3.4536849747843788e-02 0.0000000000000000e+00  1.7612459110174630e-02 -3.0393484279104099e-02 0.0000000000000000e+00  1.6560257440142247e-02 -2.6135470357162179e-02 0.0000000000000000e+00  1.1637899445450788e-02 -1.7214038508109403e-02 0.0000000000000000e+00  1.0481915588920532e-02 -1.5176031490279828e-02 0.0000000000000000e+00  8.2671103823546092e-03 -1.1806321894943283e-02 0.0000000000000000e+00  6.4727322656542505e-03 -9.2632924542782567e-03 0.0000000000000000e+00  5.9136659964007252e-03 -8.6377422097580828e-03 0.0000000000000000e+00  8.0703642751665181e-03 -1.2347559082605533e-02 0.0000000000000000e+00  9.1727665301463285e-03 -1.5306919868049667e-02 0.0000000000000000e+00  1.8921105097396335e-03 -3.8042578380966070e-03 0.0000000000000000e+00  4.4266589382818779e-02 -9.4925514271774841e-02 0.0000000000000000e+00  2.8395300489076291e-03 -4.6201852601775919e-03 0.0000000000000000e+00  2.7747839536052940e-03 -4.0482836046240762e-03 0.0000000000000000e+00  7.1754343996867425e-03 -1.0234353336502664e-02 0.0000000000000000e+00  1.2073056148787644e-02 -1.7675886470800477e-02 0.0000000000000000e+00  1.6361123986655412e-02 -2.6920881504825713e-02 0.0000000000000000e+00  1.6862791432981732e-02 -3.4964530731054655e-02 0.0000000000000000e+00  1.1430717339510035e-02 -3.7555303000936041e-02 0.0000000000000000e+00  2.4476418171227175e-03 -2.6686995188324025e-02 0.0000000000000000e+00  -3.1254913254579763e-03 -2.5636822401890840e-02 0.0000000000000000e+00  -1.0072533576847818e-02 -3.1351909188314292e-02 0.0000000000000000e+00  -1.6162866744987334e-02 -3.2483710275264081e-02 0.0000000000000000e+00  -1.6472355983774108e-02 -2.6005568382039358e-02 0.0000000000000000e+00  -1.2226231439005603e-02 -1.7054275958764142e-02 0.0000000000000000e+00  -7.7210448179504832e-03 -1.0390598263270445e-02 0.0000000000000000e+00  -4.3220854446721765e-03 -6.0431030095143010e-03 0.0000000000000000e+00  -3.3385635463972596e-03 -5.2832937701587281e-03 0.0000000000000000e+00  6.5572206309311100e-04 -8.3579966978176697e-04 0.0000000000000000e+00  5.3288968188893717e-03 -7.6686456642106916e-03 0.0000000000000000e+00  9.2944936904236618e-03 -1.3336224545643677e-02 0.0000000000000000e+00  1.5579801681273457e-02 -2.3612223349769718e-02 0.0000000000000000e+00  1.7359934575453768e-02 -3.1617847398027608e-02 0.0000000000000000e+00  2.7446256408530659e-02 -6.5670120038918117e-02 0.0000000000000000e+00  6.4121195583060784e-03 -3.2022505342959744e-02 0.0000000000000000e+00  -5.6632756408148317e-04 -2.1260798602186430e-02 0.0000000000000000e+00  -6.2730507634623659e-03 -2.8141195150849844e-02 0.0000000000000000e+00  -1.4710300600888683e-02 -3.5254573768765882e-02 0.0000000000000000e+00  -1.7129821570264086e-02 -3.0023220617270457e-02 0.0000000000000000e+00  -1.4954911176628873e-02 -2.1801517652634043e-02 0.0000000000000000e+00  -9.7067894257051313e-03 -1.3184383802721068e-02 0.0000000000000000e+00  -5.8617369531147913e-03 -7.9526140028905040e-03 0.0000000000000000e+00  -1.3247958240222080e-03 -1.8223946226687917e-03 0.0000000000000000e+00  -3.2302757593041215e-02 1.4325609056124618e-03 0.0000000000000000e+00  -6.6941522214007787e-02 9.8665461426823198e-02 0.0000000000000000e+00  -6.5001389614069885e-02 4.9255864823990102e-02 0.0000000000000000e+00  1.0341223756254296e-01 -3.6293469965505289e-02 0.0000000000000000e+00  -2.8057113716462762e-02 5.2517788423137549e-02 0.0000000000000000e+00  -2.0536407680576758e-02 1.9566120429561896e-02 0.0000000000000000e+00  -1.4137981702643490e-01 6.0795006773705980e-02 0.0000000000000000e+00  -2.9421315696911383e-02 3.5888436482092215e-03 0.0000000000000000e+00  -4.1889721843306790e-02 8.7419219316274888e-02 0.0000000000000000e+00  5.6770052375213195e-02 -1.0416116942714222e-01 0.0000000000000000e+00  -3.7149978778163062e-02 4.8921426355639813e-02 0.0000000000000000e+00  2.1166548576830212e-02 -1.7184238342214806e-02 0.0000000000000000e+00  1.2161975948228121e-01 -5.9195636669469108e-02 0.0000000000000000e+00  1.5412504861434376e-01 -8.2858190344180460e-02 0.0000000000000000e+00  -1.6231275407614817e-01 1.5628997988151469e-02 0.0000000000000000e+00  -1.6278769674716212e-02 2.7999059952343915e-03 0.0000000000000000e+00  -7.1918928962928175e-02 -1.1715337490922956e-03 0.0000000000000000e+00  -5.7455256942524360e-02 1.9377870268699367e-03 0.0000000000000000e+00  -2.0105069127444017e-02 -2.6779457996043706e-04 0.0000000000000000e+00  -1.1558133036105530e-02 -4.2096617334982358e-04 0.0000000000000000e+00  -8.9284795355224628e-03 -4.2121869070725068e-04 0.0000000000000000e+00  -9.4938596016541539e-03 -3.4647544824090859e-04 0.0000000000000000e+00  -9.7686829453301222e-03 -6.3272941507977552e-05 0.0000000000000000e+00  -9.7640713342411929e-03 1.9619801378859767e-04 0.0000000000000000e+00  -9.4129310771120592e-03 4.6902291938090261e-04 0.0000000000000000e+00  -8.9704654120435923e-03 5.4534269227397543e-04 0.0000000000000000e+00  -1.1792426948577519e-02 5.9574720922635671e-04 0.0000000000000000e+00  -2.1984730086557363e-02 6.0901050612235258e-04 0.0000000000000000e+00  -3.1597785261152277e-02 -1.2151842767524929e-03 0.0000000000000000e+00  -2.3161017956420536e-02 1.8511810080751334e-04 0.0000000000000000e+00  -9.5282410815664444e-03 -4.0038507019241249e-04 0.0000000000000000e+00  -1.0003622551567629e-02 -1.9901901954338033e-04 0.0000000000000000e+00  -1.0065338169961692e-02 3.3809853312479832e-04 0.0000000000000000e+00  -9.6554896351631597e-03 5.4071176658306757e-04 0.0000000000000000e+00  -2.2764636235707930e-02 1.6137089900848821e-04 0.0000000000000000e+00  -1.4009898775527319e-02 -3.8717874259741196e-04 0.0000000000000000e+00  -8.9916121142037050e-03 -4.3322128397368692e-04 0.0000000000000000e+00  -9.7469828734579166e-03 6.6684425581781690e-05 0.0000000000000000e+00  -8.5948230139572881e-03 5.3046669977162655e-04 0.0000000000000000e+00  -1.4109545051345210e-02 5.9256367197536234e-04 0.0000000000000000e+00  6.7510597685413218e-02 2.3006944789179723e-02 0.0000000000000000e+00  -6.1196479578429545e-02 -4.5328393477604867e-02 0.0000000000000000e+00  -6.3895287961055702e-02 -9.2442191349806441e-02 0.0000000000000000e+00  -3.3197905518373788e-02 -3.5708958411253375e-03 0.0000000000000000e+00  -1.1605437839222843e-01 -4.8767031794503077e-02 0.0000000000000000e+00  -2.3503991162056086e-02 -2.2217372167962750e-02 0.0000000000000000e+00  -2.4895863743394375e-02 -4.5875905123694063e-02 0.0000000000000000e+00  -2.4347663344250970e-02 -3.4196005101288455e-03 0.0000000000000000e+00  -1.2945660850511934e-01 -1.0781372494717953e-02 0.0000000000000000e+00  1.0821989153627048e-01 5.5771083812920841e-02 0.0000000000000000e+00  9.1095915973097921e-02 4.3678355221495435e-02 0.0000000000000000e+00  1.0953736457229248e-02 7.4623323797803820e-03 0.0000000000000000e+00  -3.6482612242730625e-02 -4.6724335509960684e-02 0.0000000000000000e+00  4.6411035226559830e-02 8.2942508951240682e-02 0.0000000000000000e+00  -3.8421866688159889e-02 -7.9177128350232315e-02 0.0000000000000000e+00  1.0567629749879439e-08 -1.9440097949005922e-08 0.0000000000000000e+00  -1.0000801018760881e-08 1.9782651749149744e-08 0.0000000000000000e+00  4.6121752517015674e-09 2.4309740698619008e-08 0.0000000000000000e+00  6.8688721775744015e-09 9.3747903256797912e-09 0.0000000000000000e+00  -6.8858726434357233e-09 -9.3994998975824745e-09 0.0000000000000000e+00  -4.3772526080616596e-09 -1.9474877114341558e-08 0.0000000000000000e+00  9.1865082235312306e-09 -3.5943603387801839e-10 0.0000000000000000e+00  -9.0162856271904735e-09 3.0788990615114016e-10 0.0000000000000000e+00  -8.9218105255542507e-09 -1.8113338700953687e-10 0.0000000000000000e+00  8.7999330393502551e-09 1.9015034705805165e-10 0.0000000000000000e+00  -2.4997368817375512e-09 -3.8650327006630753e-09 0.0000000000000000e+00  -5.1432087569431763e-15 -7.2285254552210238e-15 0.0000000000000000e+00  -1.2093515646386654e-14 -1.7965014479787017e-14 0.0000000000000000e+00  -5.6643708687189186e-21 -1.9532168844338025e-21 0.0000000000000000e+00  -3.1959603001726204e-20 -3.6271965413224823e-21 0.0000000000000000e+00  1.2071625567279295e-14 -1.2761211633108177e-16 0.0000000000000000e+00  -1.1620466541688500e-14 -2.8237950291883721e-14 0.0000000000000000e+00  -1.4486789952227370e-20 -2.8246101537877617e-21 0.0000000000000000e+00  -4.1844742833097187e-16 -2.3129686369037110e-14 0.0000000000000000e+00  2.3379853577252051e-20 3.1667229542825480e-21 0.0000000000000000e+00  1.1987858208972185e-14 -2.9890121910963052e-14 0.0000000000000000e+00  2.1300507977043091e-16 3.9491812375975713e-16 0.0000000000000000e+00  3.6885971116073444e-20 -1.5910855762431053e-20 0.0000000000000000e+00  2.3509746525778443e-09 3.6469033325629530e-09 0.0000000000000000e+00  5.5949199585765098e-15 7.8675579525873896e-15 0.0000000000000000e+00  -1.1942650721209551e-14 8.6459277885190535e-17 0.0000000000000000e+00  4.3387501734972165e-15 -6.4923684287465770e-15 0.0000000000000000e+00  -1.4065141981055658e-09 2.4308656031164867e-09 0.0000000000000000e+00  4.3961300724110999e-09 -2.1324828735950680e-08 0.0000000000000000e+00  2.2415021268027699e-09 -3.6698227399523125e-09 0.0000000000000000e+00  6.4793089324195836e-09 -9.3356039724078880e-09 0.0000000000000000e+00  -1.0707791767797211e-08 -1.8934321228288061e-08 0.0000000000000000e+00  -1.0977220163004209e-14 1.8290657418336121e-14 0.0000000000000000e+00  -4.4036813828496750e-09 2.3123100296494715e-08 0.0000000000000000e+00  1.1325228251167514e-08 2.0967892613284929e-08 0.0000000000000000e+00  -3.7825720866681733e-15 6.0191259217450049e-15 0.0000000000000000e+00  1.6972156133711020e-14 2.5105160110874842e-14 0.0000000000000000e+00  7.9777136888285519e-21 -2.7668458097856780e-23 0.0000000000000000e+00  -6.1576374224187790e-09 9.4250755091824849e-09 0.0000000000000000e+00  -1.7757219673944149e-08 2.8741489402140313e-08 0.0000000000000000e+00  -1.11