<?xml version="1.0"?>
<VTKFile type="UnstructuredGrid"  version="0.1"  >
<UnstructuredGrid>
<Piece  NumberOfPoints="4153" NumberOfCells="8064">
<Points>
<DataArray  type="Float64"  NumberOfComponents="3"  format="ascii">-0.4177982853532611 -0.5674407136875121 0  -0.04711151113254782 -0.6675294844492503 0  -0.09550192653014532 -0.6633500579618272 0  -0.1434146441903849 -0.6563142377960627 0  -0.1907825575832711 -0.6470186853134713 0  -0.2378368715324466 -0.6362810222875651 0  -0.2842479950110101 -0.6219896641443454 0  -0.3297340138636713 -0.6053548106179086 0  -0.3742689686798194 -0.5871118549631784 0  0.001556549415354502 -0.6684743660811926 0  -0.4606293460204018 -0.5484631336758365 0  -0.502933046142312 -0.5296411407135362 0  -0.5447734406268838 -0.5112717913955946 0  -0.586192755831913 -0.4937118193538954 0  -0.62734566722965 -0.4771857233456466 0  -0.6681867306164858 -0.4617396727503747 0  -0.7088291897059457 -0.4481228153106184 0  0.6924019549823861 -0.4664105249596054 0  0.05025089128693605 -0.666133796367384 0  0.0987176897069493 -0.6605607386006109 0  0.1467180238658817 -0.6519748739474218 0  0.1940517061446234 -0.6407158043563974 0  0.2406217206261953 -0.6274631270580414 0  0.2864221568962733 -0.612659394885974 0  0.331467267540566 -0.5967205390707342 0  0.3757876734350695 -0.5801065134397325 0  0.4194822316049671 -0.563203266068519 0  0.4626285220185245 -0.5463228666048471 0  0.50529728909273 -0.5296996433086024 0  0.5475447645007921 -0.5136663823965076 0  0.5894170702931379 -0.4982926245013781 0  0.6309420998837616 -0.4839728527036693 0  0.6722193664555719 -0.4712980257166886 0  0.6515257634926669 -0.4776499353815271 0  -0.6884119707657078 -0.4549860006209735 0  -0.6068104799686905 -0.4853585822594177 0  -0.5239020273651243 -0.5203972378087689 0  -0.4392664312824912 -0.5579303732498108 0  -0.3521197829558709 -0.5963431195081889 0  -0.261152996652026 -0.6294728131747803 0  -0.1671634008048757 -0.6519276119794605 0  -0.07135650096681691 -0.6658259392052082 0  0.6102169674458578 -0.4910461588381151 0  0.1227896038735523 -0.6566238120649084 0  0.2174323155107412 -0.6343101242999536 0  0.3090352660224316 -0.6048169651459798 0  0.397709902989253 -0.571670338448047 0  0.4840168673040843 -0.5379774583348385 0  0.5685299972473967 -0.5058763340737017 0  0.02591614712176782 -0.6677152878500188 0  -0.7286062230702633 -0.442674621386145 0  0.5264582539852978 -0.5215895253369356 0  0.4411192223809501 -0.5547480889330226 0  0.3537079782790351 -0.5884559476373983 0  0.2636178945619613 -0.620231203175835 0  0.1704814177086355 -0.6466418299763592 0  0.07452848789284296 -0.6637414525353122 0  -0.02279573270550873 -0.6684168330751368 0  -0.1195259685563211 -0.6601586269422468 0  -0.2143018507893682 -0.6419887719741612 0  -0.307109392238144 -0.613910031279831 0  -0.396226033738285 -0.577369489324751 0  -0.4818409700532928 -0.5390119987129131 0  -0.5655200083332415 -0.5023312770016111 0  -0.6477941064800635 -0.469393817181916 0  0.8539326942616294 -0.2776906198721681 0  0.755532245314677 -0.4450150103096336 0  0.8090850826676393 -0.4032407889772089 0  0.8437059198361109 -0.3450902960221438 0  0.7242493126007165 -0.4560997036236935 0  0.7830325790095554 -0.4250982430846696 0  0.8252934398551525 -0.3733269295573835 0  0.8481358709509571 -0.3110639196789877 0  0.7085323254466014 -0.4621969311446638 0  0.7398125658000186 -0.4501449905537546 0  0.7693303875704949 -0.4352171777397665 0  0.7956523802491294 -0.413451867545335 0  0.8180942422675794 -0.3887732936370736 0  0.8340485246595392 -0.3590867741674475 0  0.8455297819374766 -0.3279284132011841 0  0.8505987508384688 -0.2942892880931963 0  0.8533354620413772 -0.2558983201731782 0  0.8582595337825033 0.2238157544749936 0  0.8577191140054196 0.180550812324452 0  0.8582478257315712 0.1372194454300615 0  0.8592853485031589 0.09370796710070703 0  0.8605734223372492 0.04991360886966554 0  0.8609301975913819 0.00588703108996616 0  0.8604063732262029 -0.03818879586008213 0  0.8590107692687813 -0.08219354049666783 0  0.8567667343449848 -0.1259401582478015 0  0.8548374716230384 -0.1694064290642719 0  0.8534864397330033 -0.2126852757374292 0  0.859382774895794 0.2455901701022075 0  0.8578109183139123 0.2021800116398698 0  0.8587254307065796 0.1154908310344717 0  0.8608631381452075 0.02791480834889599 0  0.859820662355789 -0.06020808989393346 0  0.8557576875654489 -0.1477024626643415 0  0.8532162897920454 -0.2342918724121003 0  0.8579008364300684 0.1589022457609526 0  0.8599780663083345 0.07186222086483927 0  0.8607745435146195 -0.01615216192608056 0  0.8579184933642983 -0.1041185652172216 0  0.8540723238008566 -0.1910639790059639 0  0.7028358096855881 0.4364485969925687 0  0.8507831452304425 0.313303721203034 0  0.8175921117955706 0.3721954412264797 0  0.7651609658395875 0.4147801737624771 0  0.8545946325705014 0.2791410573787194 0  0.8334115792517456 0.3420887459219199 0  0.7920978221119275 0.3943368012058782 0  0.7342454169795789 0.4260320734922144 0  0.8567089093038723 0.2623008779147634 0  0.8523753530858708 0.2960843669994153 0  0.8417502421610142 0.3275886158942481 0  0.8262212395349772 0.3574941313097888 0  0.8044469008828599 0.3825652053380391 0  0.7786661401368558 0.4046777824468701 0  0.7496276712958536 0.4200514056485628 0  0.7187151710646038 0.4320833883529656 0  -0.03390414533314685 0.6724371658830622 0  0.6424819275968622 0.4554166261954913 0  0.6017027680573263 0.470863230441687 0  0.5605710759108581 0.4874443790076615 0  0.5190866479153164 0.5050238824222696 0  0.4771136226081594 0.523336329704907 0  0.4345907579502232 0.5420574459501649 0  0.391437894003153 0.5609292193863242 0  0.3475660283772911 0.5797596279164176 0  0.3028421165756977 0.5980290038198118 0  0.2572367321058104 0.6153225052659248 0  0.2107150586487602 0.6312215598729143 0  0.163243816266068 0.6453426754664688 0  0.1148709722595817 0.656827061803466 0  0.06576071117320413 0.6653266761149625 0  0.01611250287885237 0.6705175318368429 0  0.6830487104364364 0.4417673700978705 0  -0.0839509401656641 0.6699496550359182 0  -0.1335819690286562 0.6634793231227469 0  -0.1824395992947727 0.6533329515674769 0  -0.2301031383100463 0.6395449212114656 0  -0.2765987644429748 0.6244429024357799 0  -0.3221110289081512 0.6080967940547441 0  -0.3667167757821622 0.5908390303687248 0  -0.4104556611340795 0.5729533995888119 0  -0.4535400398730907 0.555257807247441 0  -0.4960852162200381 0.5377573716130873 0  -0.5381708021967527 0.5206468349815681 0  -0.5798606584959444 0.5041314056827964 0  -0.6211910716390782 0.4884096820769302 0  -0.6622144230954016 0.4738206649401754 0  -0.7030515960510723 0.4609648685305741 0  -0.7230154896317009 0.4560287287315021 0  -0.6825680233671442 0.4674205128007566 0  -0.6005681974056577 0.4961562593109302 0  -0.5171813319519684 0.5291429108089046 0  -0.432069455918482 0.5640968840517289 0  -0.3445218181029448 0.5995567240471601 0  -0.2534786640950819 0.63218235618029 0  -0.1581285448362835 0.6588074049137619 0  -0.05895225313607829 0.6716856201223194 0  0.04099138515922409 0.6683629589917072 0  0.1391607915112262 0.6514232425929195 0  0.234090581732751 0.6234746957701622 0  0.3253099034765192 0.5889961878784388 0  0.4130969734936392 0.5514912633951473 0  0.4981617184749013 0.5141185746671558 0  0.5811844178570311 0.47905076900121 0  0.6626982918373008 0.4486227951168885 0  -0.6417353902439965 0.4810224256088134 0  -0.5590606113650702 0.5123067491942721 0  -0.4748742633138715 0.5464701185921063 0  -0.3886988470304554 0.5819129170597578 0  -0.299472469935525 0.6164045167464249 0  -0.2064835045002783 0.6467764639639533 0  -0.1088415840380926 0.6671910635201962 0  -0.008836544596050227 0.6719744736293053 0  0.0903967106007713 0.6614729341511338 0  0.1871103794524508 0.6385702803883654 0  0.2801522276568199 0.6068243346496822 0  0.3696052980337686 0.5703685305476193 0  0.4559254793603265 0.5326634800384522 0  0.539880627719957 0.4961003585550909 0  0.6221302252376534 0.4630459749771647 0  -0.8825218048127569 0.2675413642574492 0  -0.7857747010765568 0.4350415984151174 0  -0.8388773061194985 0.3931863016957707 0  -0.8729129599087903 0.3348887952944312 0  -0.7546319266463246 0.4459398921527286 0  -0.8130313893280673 0.415016828654207 0  -0.8549581141343631 0.3632951399920983 0  -0.877133654675867 0.3008996056094352 0  -0.7390006354724512 0.4518650746044002 0  -0.7701206921220262 0.4401144944517769 0  -0.7994383221841499 0.42516442935933 0  -0.8255434952974208 0.4033876810285542 0  -0.8477174251643279 0.3786531878042502 0  -0.8635442333309572 0.3489833458291553 0  -0.8746717084538362 0.317751462110092 0  -0.8794810002087621 0.2841483637152502 0  -0.8817393624211219 0.245832140065985 0  -0.8852397550258078 -0.231734731905764 0  -0.8845282843378045 -0.1886364786790971 0  -0.8850045810927176 -0.1455132599861382 0  -0.8860753741803692 -0.1022312356787189 0  -0.8875012146508149 -0.05868076733857339 0  -0.8880613999898765 -0.01488491465970023 0  -0.8877672824063652 0.02896960782057296 0  -0.8866229572651857 0.07276780524027301 0  -0.8846018866011469 0.1163298875240607 0  -0.8828881040011565 0.1596220545553426 0  -0.8817373198440045 0.2027502039038947 0  -0.886322134789201 -0.2534834506941126 0  -0.8846910733097565 -0.2101780835642165 0  -0.8854920686736304 -0.1238984288783919 0  -0.8878911493449358 -0.03679800389965755 0  -0.887302972149926 0.05088364367321142 0  -0.8836986505292883 0.1380016511279868 0  -0.8815469688133551 0.2242861420542652 0  -0.8846751938957996 -0.1670885398777313 0  -0.8868181859155529 -0.08050803600865503 0  -0.8880173856971082 0.007042245476999588 0  -0.8856509775349036 0.09459958761623466 0  -0.8822247952850534 0.18120095304662 0  -0.8773898950812601 -0.3209735309561035 0  -0.8437448252531784 -0.379395253272938 0  -0.7910509735217457 -0.4215595476589204 0  -0.8813066732959951 -0.2869044309390731 0  -0.8596524430454057 -0.3494459513024508 0  -0.8181742780702037 -0.4014869651165999 0  -0.7600829084430044 -0.4326930113283161 0  -0.8834458703499501 -0.2701118477938351 0  -0.87900171606765
[...]
<PointData  Vectors="f_2844"> 
<DataArray  type="Float64"  Name="f_2844"  NumberOfComponents="3" format="ascii">1.1269231900442375e-02 2.4976759551890028e-02 0.0000000000000000e+00  2.7615662934493850e-03 5.1733954748280270e-02 0.0000000000000000e+00  6.2343066805997452e-03 5.2990496233413044e-02 0.0000000000000000e+00  9.0451945879910529e-03 5.2336701886809604e-02 0.0000000000000000e+00  9.6319736097264536e-03 4.5597518656355529e-02 0.0000000000000000e+00  8.0664707047198910e-03 3.0079016920924521e-02 0.0000000000000000e+00  1.1193496311255040e-02 3.3063099698826044e-02 0.0000000000000000e+00  1.1305768019321106e-02 2.9008037866991257e-02 0.0000000000000000e+00  9.3266413499654040e-03 2.1725799413918272e-02 0.0000000000000000e+00  -7.1858477025622759e-04 4.9996281566978981e-02 0.0000000000000000e+00  8.4428387793586621e-03 1.8998786602754024e-02 0.0000000000000000e+00  7.5736637334557905e-03 1.7115742578449642e-02 0.0000000000000000e+00  5.5558133016196361e-03 1.2803307455580344e-02 0.0000000000000000e+00  5.4664377825653790e-03 1.3304841452682960e-02 0.0000000000000000e+00  3.5954069257623246e-03 9.3328353553047815e-03 0.0000000000000000e+00  9.1463973646400114e-03 2.6301002563625497e-02 0.0000000000000000e+00  3.1254983921488923e-03 1.1402053826790352e-02 0.0000000000000000e+00  1.2356458976483815e-02 -5.0523664329904329e-02 0.0000000000000000e+00  -3.9224397885051221e-03 4.7988908755249714e-02 0.0000000000000000e+00  -6.7444771411364146e-03 4.5738183301924334e-02 0.0000000000000000e+00  -9.0235879271075951e-03 4.3134954260092249e-02 0.0000000000000000e+00  -1.0441872999073461e-02 3.9769486921572859e-02 0.0000000000000000e+00  -1.0578246577872097e-02 3.4705375798757002e-02 0.0000000000000000e+00  -9.9099976467455098e-03 2.9196312607508972e-02 0.0000000000000000e+00  -8.6839273233879233e-03 2.3711913292816696e-02 0.0000000000000000e+00  -7.6630185463568163e-03 2.0090790510666444e-02 0.0000000000000000e+00  -6.2358898875450389e-03 1.5996095937484731e-02 0.0000000000000000e+00  -4.7283657974180543e-03 1.2096100999800796e-02 0.0000000000000000e+00  -2.9182252384140476e-03 7.5646353402756879e-03 0.0000000000000000e+00  -1.1610020246104827e-03 3.1109050806182210e-03 0.0000000000000000e+00  -1.4066176445261720e-03 4.0418206786053158e-03 0.0000000000000000e+00  -4.8502917159240020e-03 1.5448610577635994e-02 0.0000000000000000e+00  -5.1134059607325800e-03 1.9931673972185274e-02 0.0000000000000000e+00  5.7526136060092759e-03 -1.9678233089612848e-02 0.0000000000000000e+00  -5.9250981328680292e-03 -1.8396062745651122e-02 0.0000000000000000e+00  1.7006373778857423e-03 4.1878042001882642e-03 0.0000000000000000e+00  6.5278108027735648e-03 1.4870679551078030e-02 0.0000000000000000e+00  1.1707067192188770e-02 2.6397115939880009e-02 0.0000000000000000e+00  1.0681066349036350e-02 2.6031191773774907e-02 0.0000000000000000e+00  1.0396689081810660e-02 3.3764273167412900e-02 0.0000000000000000e+00  9.9837956944937752e-03 5.0983507344945479e-02 0.0000000000000000e+00  4.5284833286472655e-03 5.2447612240291042e-02 0.0000000000000000e+00  2.7904522628693341e-03 -8.3182234729666984e-03 0.0000000000000000e+00  -7.9498802928845581e-03 4.4437149478293428e-02 0.0000000000000000e+00  -1.0692455143743644e-02 3.7582386016766139e-02 0.0000000000000000e+00  -9.3485583059289678e-03 2.6427608044160496e-02 0.0000000000000000e+00  -6.8243159189679209e-03 1.7640295885715640e-02 0.0000000000000000e+00  -3.5861323034212917e-03 9.2030727163526574e-03 0.0000000000000000e+00  1.5862859692355555e-04 -4.5336479456046716e-04 0.0000000000000000e+00  -2.3569382546846629e-03 4.9033399371729486e-02 0.0000000000000000e+00  4.1211875689237884e-03 1.2544120011562562e-02 0.0000000000000000e+00  -2.9444571258478284e-03 7.7586794451933033e-03 0.0000000000000000e+00  -5.3321994273857649e-03 1.3629557633313040e-02 0.0000000000000000e+00  -8.4738936514607149e-03 2.2601851700412224e-02 0.0000000000000000e+00  -1.0329140644089331e-02 3.1966430448679174e-02 0.0000000000000000e+00  -1.0072526147018063e-02 4.2353042245635610e-02 0.0000000000000000e+00  -5.3907306833990204e-03 4.6881946578709817e-02 0.0000000000000000e+00  9.8622663498308151e-04 5.0766694832717965e-02 0.0000000000000000e+00  7.8322731502594688e-03 5.3377286965458959e-02 0.0000000000000000e+00  7.0421897705410684e-03 3.1025116601522844e-02 0.0000000000000000e+00  1.1091778117279551e-02 3.0320642645252516e-02 0.0000000000000000e+00  1.1186610880052386e-02 2.4738686990482719e-02 0.0000000000000000e+00  8.0882534963817379e-03 1.8180156526208715e-02 0.0000000000000000e+00  6.5756797841927247e-03 1.5525571771153710e-02 0.0000000000000000e+00  -1.8819013249267310e-03 -5.2149238757647270e-03 0.0000000000000000e+00  3.3025022470591393e-02 -1.9518579761890642e-03 0.0000000000000000e+00  5.3343749276955552e-02 -9.6033292840762022e-02 0.0000000000000000e+00  7.0269794095075166e-02 -5.3168087601933048e-02 0.0000000000000000e+00  -1.0656264359874927e-01 4.1518304212302633e-02 0.0000000000000000e+00  3.4324445087456794e-02 -9.1227698180809932e-02 0.0000000000000000e+00  1.6889665904772047e-02 -1.9752639349888575e-02 0.0000000000000000e+00  9.7367543134157991e-02 -5.1160248883587535e-02 0.0000000000000000e+00  3.4377178480308412e-02 -5.1943854486007062e-03 0.0000000000000000e+00  2.5227267278471376e-02 -7.6646017334513025e-02 0.0000000000000000e+00  -4.7683405541993032e-02 1.2375248338747924e-01 0.0000000000000000e+00  4.6725368984542229e-02 -6.9105536590624517e-02 0.0000000000000000e+00  -4.8660451545107682e-02 5.2368934679703279e-02 0.0000000000000000e+00  -8.0325231451232534e-02 4.5596022625384959e-02 0.0000000000000000e+00  -1.1557404263141857e-01 6.8036160869087536e-02 0.0000000000000000e+00  1.6940264144941874e-01 -2.3252733610853893e-02 0.0000000000000000e+00  1.2146117614447378e-02 -2.7251026017492790e-03 0.0000000000000000e+00  7.9111054482439727e-02 6.4715102791075433e-04 0.0000000000000000e+00  6.4125894080664547e-02 -2.0061315455160715e-03 0.0000000000000000e+00  2.8793563193716825e-02 5.5959722479225159e-05 0.0000000000000000e+00  1.9452924680814943e-02 3.6817798536242769e-04 0.0000000000000000e+00  1.5659429891218293e-02 4.4752212853462256e-04 0.0000000000000000e+00  1.4375391024530228e-02 2.9128320112324716e-04 0.0000000000000000e+00  1.4179373305592657e-02 -2.8058299086923760e-05 0.0000000000000000e+00  1.4123865327644574e-02 -3.0595071870633217e-04 0.0000000000000000e+00  1.4103954666746106e-02 -6.1085735613125526e-04 0.0000000000000000e+00  1.5602309633033384e-02 -7.7095122637640392e-04 0.0000000000000000e+00  2.0034061447530820e-02 -7.7659227103236018e-04 0.0000000000000000e+00  3.2191082516302108e-02 -6.3243166096877172e-04 0.0000000000000000e+00  2.9671627131926767e-02 1.2016419890450813e-03 0.0000000000000000e+00  3.1838075186604357e-02 -3.9783838596292939e-04 0.0000000000000000e+00  1.6785306728996578e-02 4.0029510674057011e-04 0.0000000000000000e+00  1.4596756188990001e-02 1.1725420299377004e-04 0.0000000000000000e+00  1.4530961799056184e-02 -4.6057841244204895e-04 0.0000000000000000e+00  1.6961121149531237e-02 -7.5323135089736416e-04 0.0000000000000000e+00  3.2057863957882043e-02 -1.2616873154698341e-04 0.0000000000000000e+00  2.2592599005513192e-02 2.7248919008620659e-04 0.0000000000000000e+00  1.4851928782385693e-02 4.3371118851736522e-04 0.0000000000000000e+00  1.4074498097996714e-02 -1.6734212262614403e-04 0.0000000000000000e+00  1.4014423514252222e-02 -7.1719936672616372e-04 0.0000000000000000e+00  2.3051051844227680e-02 -7.1511610286274037e-04 0.0000000000000000e+00  9.5203525751207663e-03 3.6792673405758376e-02 0.0000000000000000e+00  -4.8279007916522607e-02 -1.7709759843400140e-02 0.0000000000000000e+00  6.0607100222399686e-02 4.2634891403702135e-02 0.0000000000000000e+00  5.0539684930232434e-02 8.7641124491912317e-02 0.0000000000000000e+00  3.9334850278444244e-02 5.0570228371299899e-03 0.0000000000000000e+00  6.7607349830068816e-02 3.4511121672684157e-02 0.0000000000000000e+00  2.1156663819583942e-02 2.4233294945944894e-02 0.0000000000000000e+00  3.1186066436496684e-02 8.1726960379861505e-02 0.0000000000000000e+00  2.8046865111923516e-02 4.3187386647037373e-03 0.0000000000000000e+00  1.2388762230889827e-01 1.4529907447103122e-02 0.0000000000000000e+00  -5.1775437158755259e-02 -2.7232444348222164e-02 0.0000000000000000e+00  -2.9045808813211758e-02 -1.6443590025884264e-02 0.0000000000000000e+00  -3.7101719713470357e-02 -3.8077190085090078e-02 0.0000000000000000e+00  4.7366245178283667e-02 6.6047828643880716e-02 0.0000000000000000e+00  -3.7595002982760681e-02 -9.3884882350989948e-02 0.0000000000000000e+00  2.4865394109007212e-02 7.3912287059393844e-02 0.0000000000000000e+00  2.5518669554855042e-04 -4.0984476410940489e-02 0.0000000000000000e+00  -8.3049500843332680e-03 -2.3852529710326746e-02 0.0000000000000000e+00  -2.6268603206610107e-03 -6.8157800096786906e-03 0.0000000000000000e+00  -3.9228894596921131e-03 -9.5168118366993834e-03 0.0000000000000000e+00  -4.4163615050698893e-03 -1.0229591215698773e-02 0.0000000000000000e+00  -6.0401512858067182e-03 -1.3758257204127686e-02 0.0000000000000000e+00  -7.4945238130187664e-03 -1.7048436776895257e-02 0.0000000000000000e+00  -9.3961857502081608e-03 -2.1648657167847717e-02 0.0000000000000000e+00  -1.0492952076730757e-02 -2.4957103124864717e-02 0.0000000000000000e+00  -1.2069354572807804e-02 -3.0573948285259469e-02 0.0000000000000000e+00  -1.3184607124510068e-02 -3.6480297434607865e-02 0.0000000000000000e+00  -1.3335804246293704e-02 -4.1521467901390510e-02 0.0000000000000000e+00  -1.2297374011499091e-02 -4.5901503575244466e-02 0.0000000000000000e+00  -9.7146297370155690e-03 -4.7153155798108776e-02 0.0000000000000000e+00  -6.5487332366393480e-03 -4.6972264582033782e-02 0.0000000000000000e+00  -3.2471274927543940e-03 -4.4973039718262969e-02 0.0000000000000000e+00  -7.9684710207348769e-03 -2.7646669660626819e-02 0.0000000000000000e+00  3.7211702486263524e-03 -4.1256937502028565e-02 0.0000000000000000e+00  7.4189045973193264e-03 -4.3650384877554710e-02 0.0000000000000000e+00  1.1956428828371781e-02 -4.8177771108397105e-02 0.0000000000000000e+00  1.2222698511102435e-02 -3.9422239874245951e-02 0.0000000000000000e+00  1.2881045424248694e-02 -3.7552039870340087e-02 0.0000000000000000e+00  1.1990051213224233e-02 -3.2068751685885299e-02 0.0000000000000000e+00  1.0674515724734121e-02 -2.6744643431104768e-02 0.0000000000000000e+00  1.0430954138272538e-02 -2.5394472176499629e-02 0.0000000000000000e+00  8.2041903270870797e-03 -1.9923464681861475e-02 0.0000000000000000e+00  6.4884665740154905e-03 -1.5844267033918447e-02 0.0000000000000000e+00  4.7355704324168026e-03 -1.1784563075740228e-02 0.0000000000000000e+00  2.9356894031257155e-03 -7.5606163898769745e-03 0.0000000000000000e+00  3.2061176593326949e-03 -8.8226718529244817e-03 0.0000000000000000e+00  8.2300112432204305e-03 -2.5252262858128677e-02 0.0000000000000000e+00  8.5428635792019342e-03 -3.1850417975350792e-02 0.0000000000000000e+00  -1.0959528164142987e-02 4.4950601284660774e-02 0.0000000000000000e+00  -5.1687200085065513e-03 1.7396917407933695e-02 0.0000000000000000e+00  1.7031263549188533e-03 -4.4499364685652446e-03 0.0000000000000000e+00  5.5279934705645588e-03 -1.3597774124048580e-02 0.0000000000000000e+00  9.5041573932250507e-03 -2.3140227927316206e-02 0.0000000000000000e+00  1.1392079182986311e-02 -2.9435157928464219e-02 0.0000000000000000e+00  1.3414110735242230e-02 -4.1301698059068831e-02 0.0000000000000000e+00  8.8799344078598925e-03 -4.2584737995640436e-02 0.0000000000000000e+00  2.0332251827217822e-03 -4.1020454611505275e-02 0.0000000000000000e+00  -4.8696018464859433e-03 -4.6474632563837902e-02 0.0000000000000000e+00  -1.1011222438612273e-02 -4.6364118752274371e-02 0.0000000000000000e+00  -1.3507289077496791e-02 -3.9530191949020944e-02 0.0000000000000000e+00  -1.1295972303819110e-02 -2.7654149652349188e-02 0.0000000000000000e+00  -8.4327944979999334e-03 -1.9283551316298688e-02 0.0000000000000000e+00  -5.2411579878441595e-03 -1.2014944649857810e-02 0.0000000000000000e+00  -1.2144242177096634e-03 -2.9748544957137620e-03 0.0000000000000000e+00  5.6786343465401031e-03 1.7716402585798468e-02 0.0000000000000000e+00  -1.5160596747880704e-03 4.5073923044311737e-03 0.0000000000000000e+00  3.7681397052842856e-03 -9.5103034304153088e-03 0.0000000000000000e+00  7.4391593295614344e-03 -1.8086369553942237e-02 0.0000000000000000e+00  1.0253766021307323e-02 -2.5069534977977065e-02 0.0000000000000000e+00  1.2533993652354228e-02 -3.4901482134559549e-02 0.0000000000000000e+00  1.5603911292311886e-02 -5.4043297182566369e-02 0.0000000000000000e+00  5.4213281446620007e-03 -4.1528841389263549e-02 0.0000000000000000e+00  -1.6104540705425847e-03 -4.1588987573198691e-02 0.0000000000000000e+00  -8.1496853196357157e-03 -4.7072478972803228e-02 0.0000000000000000e+00  -1.3388657259743699e-02 -4.5030120686191548e-02 0.0000000000000000e+00  -1.2723093420522700e-02 -3.3558935658628615e-02 0.0000000000000000e+00  -1.0009691021341341e-02 -2.3318890729380745e-02 0.0000000000000000e+00  -6.6815075406280681e-03 -1.5177021392283068e-02 0.0000000000000000e+00  -4.6100204391426626e-03 -1.0886267471231682e-02 0.0000000000000000e+00  1.9281632668525538e-03 5.3086946671867113e-03 0.0000000000000000e+00  -2.8148808552718018e-02 1.3286413227378570e-03 0.0000000000000000e+00  -5.1894568861749889e-02 9.2652524873016964e-02 0.0000000000000000e+00  -6.7058107151473728e-02 4.9043451362409021e-02 0.0000000000000000e+00  8.1279451889558124e-02 -3.0916011866146797e-02 0.0000000000000000e+00  -3.2283604765764286e-02 8.7402516950066719e-02 0.0000000000000000e+00  -1.7954125158977454e-02 2.0968196709092418e-02 0.0000000000000000e+00  -8.1991478526608971e-02 4.2836501982098242e-02 0.0000000000000000e+00  -3.5773311153844835e-02 5.1320929392720382e-03 0.0000000000000000e+00  -2.4185893538315156e-02 7.4607372398946534e-02 0.0000000000000000e+00  4.3997694003502036e-02 -1.1485210576883950e-01 0.0000000000000000e+00  -4.7736942718699750e-02 6.9248886148820146e-02 0.0000000000000000e+00  4.7663708335085285e-02 -5.1045936443824796e-02 0.0000000000000000e+00  5.5566067744554019e-02 -3.1499219569514549e-02 0.0000000000000000e+00  8.7158880823208315e-02 -4.9336782594815116e-02 0.0000000000000000e+00  -1.5243267410608224e-01 1.9998777645423176e-02 0.0000000000000000e+00  -1.8239842642617486e-02 3.4708138279346619e-03 0.0000000000000000e+00  -7.6227632274782006e-02 -1.1670235343420818e-03 0.0000000000000000e+00  -6.5350875327675445e-02 2.0881002325856667e-03 0.0000000000000000e+00  -2.8945015446662947e-02 1.4208104170602608e-05 0.0000000000000000e+00  -1.8567859820183129e-02 -3.4965200875967261e-04 0.0000000000000000e+00  -1.4336593073514647e-02 -4.3590940639434949e-04 0.0000000000000000e+00  -1.3068250751895135e-02 -3.2186460062272635e-04 0.0000000000000000e+00  -1.2929560378536997e-02 -3.7583231404998098e-05 0.0000000000000000e+00  -1.2929834233432403e-02 2.1087326681678610e-04 0.0000000000000000e+00  -1.3070524194483757e-02 4.9428874342205575e-04 0.0000000000000000e+00  -1.4439391596331515e-02 6.4704887361437008e-04 0.0000000000000000e+00  -1.8833378846958883e-02 6.4079666918725249e-04 0.0000000000000000e+00  -3.0243835588520743e-02 4.7026779804554584e-04 0.0000000000000000e+00  -3.2799598495582533e-02 -1.5260329742518691e-03 0.0000000000000000e+00  -3.1838092289112489e-02 5.2001525554130543e-04 0.0000000000000000e+00  -1.5664802273733909e-02 -3.8775747005437050e-04 0.0000000000000000e+00  -1.3339811254015716e-02 -1.6976451947198318e-04 0.0000000000000000e+00  -1.3383436861676130e-02 3.4934559300289699e-04 0.0000000000000000e+00  -1.5857615106541038e-02 6.2816395475373435e-04 0.0000000000000000e+00  -3.1280115634309928e-02 6.8903115335070180e-06 0.0000000000000000e+00  -2.1881354160691677e-02 -2.3798616337093785e-04 0.0000000000000000e+00  -1.3341332529807085e-02 -4.3422659186335489e-04 0.0000000000000000e+00  -1.2852946959700750e-02 8.6247182166219869e-05 0.0000000000000000e+00  -1.3078369229628061e-02 6.0489487409342928e-04 0.0000000000000000e+00  -2.2006498092366471e-02 5.8338660448409199e-04 0.0000000000000000e+00  6.2511871591468274e-02 2.3326511322087774e-02 0.0000000000000000e+00  -6.2902604891678385e-02 -4.6494752310113213e-02 0.0000000000000000e+00  -4.9154445112117959e-02 -8.6813974553647325e-02 0.0000000000000000e+00  -3.8280815995913951e-02 -5.0655730817014627e-03 0.0000000000000000e+00  -7.8838027842641711e-02 -4.0426775695775678e-02 0.0000000000000000e+00  -1.9614465532792329e-02 -2.2537020208614651e-02 0.0000000000000000e+00  -3.1632544048405285e-02 -8.4600282566043822e-02 0.0000000000000000e+00  -2.4680698212527264e-02 -4.0615927668948421e-03 0.0000000000000000e+00  -1.3193073449388890e-01 -1.5879602590152316e-02 0.0000000000000000e+00  7.0469783694824234e-02 3.8910326460119472e-02 0.0000000000000000e+00  5.2666156863740751e-02 2.9622034629995783e-02 0.0000000000000000e+00  3.4858615180483728e-02 3.5651853590552209e-02 0.0000000000000000e+00  -4.5100375668419526e-02 -6.4804198612378419e-02 0.0000000000000000e+00  3.7651170744613598e-02 9.5355611711028104e-02 0.0000000000000000e+00  -2.9284838992763969e-02 -8.9976483223820306e-02 0.0000000000000000e+00  8.4389840330277272e-09 -2.3693198116365889e-08 0.0000000000000000e+00  -7.2720773878115594e-09 2.2752213867501385e-08 0.0000000000000000e+00  5.4276944791330539e-09 3.7647393022861647e-08 0.0000000000000000e+00  5.5403974564987995e-09 1.2481339993021340e-08 0.0000000000000000e+00  -4.7103961088524697e-09 -1.0730760893424836e-08 0.0000000000000000e+00  -5.4371194932160182e-09 -3.1569533978748904e-08 0.0000000000000000e+00  1.3758077397461720e-08 -3.7370472753471582e-10 0.0000000000000000e+00  -1.3392144569148070e-08 3.0025988321916003e-10 0.0000000000000000e+00  -1.3532327145458559e-08 -9.5554069798780489e-11 0.0000000000000000e+00  1.3793169187748290e-08 1.1725670532918032e-10 0.0000000000000000e+00  -2.1383576872942685e-11 -2.0306507986937446e-10 0.0000000000000000e+00  -2.4324163467174469e-15 -6.2343466988741107e-15 0.0000000000000000e+00  -8.8103913276607179e-15 -2.0813163507900108e-14 0.0000000000000000e+00  9.6644351955515844e-21 -3.6055918094016729e-21 0.0000000000000000e+00  -2.4459015545845911e-20 -6.7256009183605045e-21 0.0000000000000000e+00  1.8943398239660218e-14 -2.0487600176842624e-16 0.0000000000000000e+00  -1.1147671447828977e-14 -3.8477097312530184e-14 0.0000000000000000e+00  -1.4865426777588574e-20 -9.6205109830680584e-21 0.0000000000000000e+00  -1.2899995550840903e-15 -3.8342293259503009e-14 0.0000000000000000e+00  1.9739451763056579e-20 3.1588407859658318e-21 0.0000000000000000e+00  9.3366981909379138e-15 -3.4089388394323053e-14 0.0000000000000000e+00  1.4116362856135412e-16 3.9269956756362561e-16 0.0000000000000000e+00  2.6934934466384607e-20 -2.4318509522254138e-20 0.0000000000000000e+00  3.3920065768344690e-10 1.0481413297525189e-09 0.0000000000000000e+00  3.5645970872216052e-15 8.8918980178766021e-15 0.0000000000000000e+00  -1.8009920839221753e-14 1.3117024380960470e-16 0.0000000000000000e+00  2.3100626469440217e-15 -6.3642003668814525e-15 0.0000000000000000e+00  6.5466898645875648e-10 -1.8151461054492416e-09 0.0000000000000000e+00  3.8286339859403134e-09 -2.9369445745673570e-08 0.0000000000000000e+00  2.9809192117440702e-10 -1.0035767644700842e-09 0.0000000000000000e+00  4.9625074465666252e-09 -1.2086162057177909e-08 0.0000000000000000e+00  -8.7521718452074021e-09 -2.3301425503413675e-08 0.0000000000000000e+00  -7.3456792977780896e-15 1.9878241815807375e-14 0.0000000000000000e+00  -3.8041131323825429e-09 3.3627748513868705e-08 0.0000000000000000e+00  7.6260322449106748e-09 2.1112982494690564e-08 0.0000000000000000e+00  -1.2268190122701812e-15 3.8205891815865683e-15 0.0000000000000000e+00  1.1468094588626001e-14 2.6191050010290886e-14 0.0000000000000000e+00  -5.0335171410666938e-21 3.9753223788340973e-22 0.0000000000000000e+00  -3.8193590882888063e-09 9.7965291215451652e-09 0.0000000000000000e+00  -2.3507589503031022e-08 3.6269066859439730e-08 0.0000000000000000e+00  -8.80276