<?xml version="1.0"?>
<VTKFile type="UnstructuredGrid"  version="0.1"  >
<UnstructuredGrid>
<Piece  NumberOfPoints="4153" NumberOfCells="8064">
<Points>
<DataArray  type="Float64"  NumberOfComponents="3"  format="ascii">-0.4249999999999999 -0.5 0  -0.02499999999999988 -0.5 0  -0.07499999999999987 -0.5 0  -0.1249999999999998 -0.5 0  -0.1749999999999998 -0.5 0  -0.2249999999999998 -0.5 0  -0.2749999999999998 -0.5 0  -0.3249999999999998 -0.5 0  -0.3749999999999999 -0.5 0  0.02500000000000016 -0.5 0  -0.4749999999999998 -0.5 0  -0.5249999999999998 -0.5 0  -0.5749999999999998 -0.5 0  -0.6249999999999999 -0.5 0  -0.6749999999999999 -0.5 0  -0.725 -0.5 0  -0.775 -0.5 0  0.8 -0.5 0  0.07500000000000025 -0.5 0  0.1250000000000003 -0.5 0  0.1750000000000004 -0.5 0  0.2250000000000004 -0.5 0  0.2750000000000004 -0.5 0  0.3250000000000003 -0.5 0  0.3750000000000001 -0.5 0  0.4250000000000002 -0.5 0  0.4750000000000002 -0.5 0  0.5250000000000001 -0.5 0  0.5750000000000002 -0.5 0  0.625 -0.5 0  0.675 -0.5 0  0.725 -0.5 0  0.775 -0.5 0  0.75 -0.5 0  -0.75 -0.5 0  -0.6499999999999999 -0.5 0  -0.5499999999999998 -0.5 0  -0.4499999999999998 -0.5 0  -0.3499999999999999 -0.5 0  -0.2499999999999998 -0.5 0  -0.1499999999999998 -0.5 0  -0.04999999999999988 -0.5 0  0.7 -0.5 0  0.1500000000000004 -0.5 0  0.2500000000000003 -0.5 0  0.3500000000000002 -0.5 0  0.4500000000000002 -0.5 0  0.5500000000000002 -0.5 0  0.65 -0.5 0  0.0500000000000002 -0.5 0  -0.8 -0.5 0  0.6000000000000001 -0.5 0  0.5000000000000002 -0.5 0  0.4000000000000001 -0.5 0  0.3000000000000003 -0.5 0  0.2000000000000004 -0.5 0  0.1000000000000003 -0.5 0  1.110223024625157e-16 -0.5 0  -0.09999999999999987 -0.5 0  -0.1999999999999998 -0.5 0  -0.2999999999999998 -0.5 0  -0.3999999999999999 -0.5 0  -0.4999999999999998 -0.5 0  -0.5999999999999999 -0.5 0  -0.7 -0.5 0  1 -0.3 0  0.8765366864730179 -0.4847759065022574 0  0.9414213562373094 -0.4414213562373097 0  0.9847759065022573 -0.3765366864730181 0  0.838268343236509 -0.4923879532511287 0  0.9089790213551636 -0.4630986313697836 0  0.9630986313697834 -0.4089790213551639 0  0.9923879532511286 -0.338268343236509 0  0.8191341716182545 -0.4961939766255644 0  0.8574025148547635 -0.488581929876693 0  0.8927578539140908 -0.4739372689360205 0  0.9252001887962364 -0.4522599938035466 0  0.9522599938035463 -0.4252001887962368 0  0.9739372689360204 -0.392757853914091 0  0.9885819298766929 -0.3574025148547635 0  0.9961939766255643 -0.3191341716182545 0  1 -0.275 0  1 0.275 0  1 0.225 0  1 0.175 0  1 0.125 0  1 0.07499999999999994 0  1 0.02499999999999987 0  1 -0.0250000000000002 0  1 -0.07500000000000026 0  1 -0.1250000000000003 0  1 -0.1750000000000002 0  1 -0.2250000000000001 0  1 0.3 0  1 0.25 0  1 0.15 0  1 0.04999999999999991 0  1 -0.05000000000000023 0  1 -0.1500000000000002 0  1 -0.2500000000000001 0  1 0.2 0  1 0.09999999999999998 0  1 -1.665334536937735e-16 0  1 -0.1000000000000003 0  1 -0.2000000000000002 0  0.8 0.5 0  0.9847759065022573 0.3765366864730181 0  0.9414213562373094 0.4414213562373097 0  0.8765366864730179 0.4847759065022574 0  0.9923879532511286 0.338268343236509 0  0.9630986313697834 0.4089790213551639 0  0.9089790213551636 0.4630986313697836 0  0.838268343236509 0.4923879532511287 0  0.9961939766255643 0.3191341716182545 0  0.9885819298766929 0.3574025148547635 0  0.9739372689360204 0.392757853914091 0  0.9522599938035463 0.4252001887962368 0  0.9252001887962364 0.4522599938035466 0  0.8927578539140908 0.4739372689360205 0  0.8574025148547635 0.488581929876693 0  0.8191341716182545 0.4961939766255644 0  -0.02500000000000016 0.5 0  0.725 0.5 0  0.6749999999999999 0.5 0  0.6249999999999999 0.5 0  0.5749999999999998 0.5 0  0.5249999999999998 0.5 0  0.4749999999999998 0.5 0  0.4249999999999999 0.5 0  0.3749999999999999 0.5 0  0.3249999999999998 0.5 0  0.2749999999999998 0.5 0  0.2249999999999998 0.5 0  0.1749999999999998 0.5 0  0.1249999999999998 0.5 0  0.07499999999999987 0.5 0  0.02499999999999988 0.5 0  0.775 0.5 0  -0.07500000000000025 0.5 0  -0.1250000000000003 0.5 0  -0.1750000000000004 0.5 0  -0.2250000000000004 0.5 0  -0.2750000000000004 0.5 0  -0.3250000000000003 0.5 0  -0.3750000000000001 0.5 0  -0.4250000000000002 0.5 0  -0.4750000000000002 0.5 0  -0.5250000000000001 0.5 0  -0.5750000000000002 0.5 0  -0.625 0.5 0  -0.675 0.5 0  -0.725 0.5 0  -0.775 0.5 0  -0.8 0.5 0  -0.75 0.5 0  -0.65 0.5 0  -0.5500000000000002 0.5 0  -0.4500000000000002 0.5 0  -0.3500000000000002 0.5 0  -0.2500000000000003 0.5 0  -0.1500000000000004 0.5 0  -0.0500000000000002 0.5 0  0.04999999999999988 0.5 0  0.1499999999999998 0.5 0  0.2499999999999998 0.5 0  0.3499999999999999 0.5 0  0.4499999999999998 0.5 0  0.5499999999999998 0.5 0  0.6499999999999999 0.5 0  0.75 0.5 0  -0.7 0.5 0  -0.6000000000000001 0.5 0  -0.5000000000000002 0.5 0  -0.4000000000000001 0.5 0  -0.3000000000000003 0.5 0  -0.2000000000000004 0.5 0  -0.1000000000000003 0.5 0  -1.110223024625157e-16 0.5 0  0.09999999999999987 0.5 0  0.1999999999999998 0.5 0  0.2999999999999998 0.5 0  0.3999999999999999 0.5 0  0.4999999999999998 0.5 0  0.5999999999999999 0.5 0  0.7 0.5 0  -1 0.3 0  -0.8765366864730181 0.4847759065022573 0  -0.9414213562373097 0.4414213562373094 0  -0.9847759065022574 0.3765366864730179 0  -0.838268343236509 0.4923879532511287 0  -0.9089790213551638 0.4630986313697834 0  -0.9630986313697836 0.4089790213551636 0  -0.9923879532511287 0.338268343236509 0  -0.8191341716182545 0.4961939766255643 0  -0.8574025148547635 0.488581929876693 0  -0.892757853914091 0.4739372689360203 0  -0.9252001887962368 0.4522599938035464 0  -0.9522599938035466 0.4252001887962365 0  -0.9739372689360205 0.3927578539140908 0  -0.9885819298766931 0.3574025148547634 0  -0.9961939766255643 0.3191341716182545 0  -1 0.275 0  -1 -0.275 0  -1 -0.225 0  -1 -0.175 0  -1 -0.125 0  -1 -0.07499999999999994 0  -1 -0.02499999999999987 0  -1 0.0250000000000002 0  -1 0.07500000000000026 0  -1 0.1250000000000003 0  -1 0.1750000000000002 0  -1 0.2250000000000001 0  -1 -0.3 0  -1 -0.25 0  -1 -0.15 0  -1 -0.04999999999999991 0  -1 0.05000000000000023 0  -1 0.1500000000000002 0  -1 0.2500000000000001 0  -1 -0.2 0  -1 -0.09999999999999998 0  -1 1.665334536937735e-16 0  -1 0.1000000000000003 0  -1 0.2000000000000002 0  -0.9847759065022574 -0.3765366864730179 0  -0.9414213562373096 -0.4414213562373094 0  -0.8765366864730181 -0.4847759065022573 0  -0.9923879532511287 -0.338268343236509 0  -0.9630986313697836 -0.4089790213551636 0  -0.9089790213551638 -0.4630986313697834 0  -0.838268343236509 -0.4923879532511287 0  -0.9961939766255643 -0.3191341716182545 0  -0.9885819298766931 -0.3574025148547634 0  -0.9739372689360205 -0.3927578539140908 0  -0.9522599938035465 -0.4252001887962365 0  -0.9252001887962367 -0.4522599938035464 0  -0.892757853914091 -0.4739372689360203 0  -0.8574025148547635 -0.488581929876693 0  -0.8191341716182545 -0.4961939766255643 0  -0.3000000000000003 0.3267949192431125 0  0.3181343990330772 -0.3439416921723297 0  -0.08257249764926196 -0.3383308877677023 0  -0.50979744334887 -0.3255818518047211 0  0.5060441378325211 0.3274561643884037 0  0.1037631564626732 0.3131559137665553 0  0.843149210446875 -0.1923130104173427 0  -0.8418263458721231 0.1927503215247096 0  -0.8408809410250262 -0.1897116835785854 0  0.8409071959036176 0.1896235182386696 0  0.705967194587281 0.3354524287114743 0  0.6276370409402552 0.1658336215477063 0  0.4215070288293651 0.1446794873901968 0  0.5369019087152576 -0.01677883310260353 0  0.3378219718963524 -0.0304857337078401 0  0.7359191653189867 -0.0003779706345871367 0  0.2206709281181736 0.1292871338121241 0  0.1390057666500616 -0.05482518983879574 0  0.02156604114872933 0.1091113821954512 0  -0.05991856886335568 -0.07544049830328706 0  -0.2091026540303009 0.113218101697482 0  -0.2557387210741711 -0.08957125969209863 0  -0.3742518736706093 0.02381865171750689 0  -0.7065883696935737 -0.3351547375041799 0  -0.6319769825415822 -0.1640183941417108 0  -0.7379485134301987 -0.0003221286420197649 0  -0.6263925638672921 0.1747922261462193 0  0.7000000000000003 -0.3471147448144379 0  -0.09731754444756222 0.2985839976753261 0  -0.7019016658227 0.339872535812372 0  -0.5036626740707574 0.3416097573515475 0  0.3086642085404555 0.31909644989288 0  0.4355889359290377 -0.1794947220360297 0  0.1233906847482294 -0.33992001942789 0  -0.2910439982708135 -0.2942818290560931 0  0.6252598700683595 -0.1832373653183336 0  -0.4390211493546888 -0.1414717198202583 0  -0.5445756908252299 0.01225332998817602 0  0.5094027625036279 -0.3483114655372777 0  -0.8570298735864267 0.3548088427148782 0  0.2432245006188761 -0.181388344807941 0  0.8576591493456415 0.3532994606374906 0  -0.8577781333911819 -0.3532575554640149 0  0.856914113336837 -0.3561698222938181 0  -0.4103395160999327 0.186370105143853 0  0.04059278020228735 -0.1932320619509051 0  -0.894759031223147 0.000141425932117211 0  0.8948577502800618 -0.0001596971477125707 0  -0.1430838089440986 -0.1942958300671257 0  -0.4774576034625814 0.09931171756601452 0  -0.5183660399836124 0.1805811656450362 0  -0.585484127346261 0.09352277806719765 0  -0.3551697580499665 0.2565825121934828 0  -0.3097210850651168 0.1497941034206675 0  -0.2545513270151506 0.2200065104702973 0  -0.3922956948852711 0.10509437843068 0  -0.4594137822479196 0.01803599085284146 0  -0.1532100992389315 0.205901049686404 0  -0.1986587722237813 0.3126894584592193 0  -0.1486587722237813 0.399291998837663 0  -0.04865877222378117 0.399291998837663 0  0.5673313162859936 -0.2657744154278056 0  0.6047013812518141 -0.3477131051758577 0  0.6626299350341799 -0.2651760550663858 0  0.4724958492163328 -0.2639030937866537 0  0.5304244029986986 -0.1813660436771817 0  -0.3650325738127511 -0.2178767744381757 0  -0.4744092963517794 -0.2335267858124897 0  -0.4004207208098418 -0.3099318404304071 0  -0.3473799352144299 -0.1155214897561785 0  -0.2733913596724923 -0.1919265443740958 0  0.06266459880570127 0.2111336479810033 0  0.1211184846334515 0.1191992580037876 0  0.1622170422904234 0.2212215237893397 0  
[...]
<PointData  Vectors="f_517"> 
<DataArray  type="Float64"  Name="f_517"  NumberOfComponents="3" format="ascii">8.2350464928658448e-18 5.8525921702225498e-03 0.0000000000000000e+00  2.5928674567258534e-32 7.2360999906641174e-02 0.0000000000000000e+00  1.7013925258479109e-30 6.6045362511951200e-02 0.0000000000000000e+00  1.1019213302729710e-28 5.8504524644800188e-02 0.0000000000000000e+00  7.1106645714120264e-27 5.0003889188702702e-02 0.0000000000000000e+00  4.1669646029194871e-25 4.3672137080592414e-02 0.0000000000000000e+00  2.7353185475278655e-23 3.4236788490094212e-02 0.0000000000000000e+00  1.7752119019467055e-21 2.6112591004472080e-02 0.0000000000000000e+00  1.1971182115658555e-19 1.9166275274680938e-02 0.0000000000000000e+00  -2.5253752516541880e-32 7.6821616058277739e-02 0.0000000000000000e+00  6.2909487176730584e-16 1.3084499489236878e-03 0.0000000000000000e+00  3.2768062776044923e-14 -7.4618934831101932e-03 0.0000000000000000e+00  3.6630849782564128e-12 -1.7765385205295303e-02 0.0000000000000000e+00  5.6070342106964603e-11 -2.5887549367162338e-02 0.0000000000000000e+00  3.4973949464275487e-08 -3.6225605483212298e-02 0.0000000000000000e+00  -2.6056727446823317e-06 -4.6716222323858213e-02 0.0000000000000000e+00  7.5303794066723022e-04 -4.5034551122383637e-02 0.0000000000000000e+00  1.4113441804486673e-02 -1.2817313233856520e-01 0.0000000000000000e+00  -1.6639719228008502e-30 7.8561499048716552e-02 0.0000000000000000e+00  -1.0780255056511435e-28 7.7366459909542024e-02 0.0000000000000000e+00  -7.0443923953653547e-27 7.3249651718895914e-02 0.0000000000000000e+00  -4.6243970682162398e-25 6.6639403796415447e-02 0.0000000000000000e+00  -3.0482138719844484e-23 5.8096288182051307e-02 0.0000000000000000e+00  -1.9758075141164525e-21 4.8051944605086355e-02 0.0000000000000000e+00  -1.3489977687501679e-19 3.6583545021311274e-02 0.0000000000000000e+00  -8.5627838677897616e-18 2.6674864155968016e-02 0.0000000000000000e+00  -6.4233432360962293e-16 1.4868552227760354e-02 0.0000000000000000e+00  -3.4222262868395554e-14 3.2945294020811510e-03 0.0000000000000000e+00  -3.6895603364013532e-12 -8.9578684013285580e-03 0.0000000000000000e+00  -6.7518781950737011e-11 -1.8860443278447523e-02 0.0000000000000000e+00  -3.2945764970162534e-08 -3.1404999089193801e-02 0.0000000000000000e+00  2.2718144075782532e-06 -4.2579588136779964e-02 0.0000000000000000e+00  -6.9595432346601855e-04 -3.8643614213847287e-02 0.0000000000000000e+00  4.8826756168624052e-06 -5.9409412724367922e-02 0.0000000000000000e+00  -6.1131160239177256e-06 -6.1886515466363305e-02 0.0000000000000000e+00  1.3176392358766475e-09 -3.0889025648880044e-02 0.0000000000000000e+00  3.1149951502165026e-13 -1.1745623784234651e-02 0.0000000000000000e+00  6.9946206247254617e-17 6.5758555482710477e-03 0.0000000000000000e+00  1.4542438666577188e-20 2.2309409070994143e-02 0.0000000000000000e+00  3.3662832014522876e-24 3.7980157035705155e-02 0.0000000000000000e+00  8.8852064416522367e-28 5.4523620585409847e-02 0.0000000000000000e+00  2.1173454807603345e-31 6.9418861953258040e-02 0.0000000000000000e+00  -1.6547607093540872e-07 -3.8716193595846639e-02 0.0000000000000000e+00  -8.6921110840810336e-28 7.5659127843779719e-02 0.0000000000000000e+00  -3.7438361510402901e-24 6.2646298497269701e-02 0.0000000000000000e+00  -1.6146248774769009e-20 4.2815451579951105e-02 0.0000000000000000e+00  -7.1917332269183162e-17 2.0580620946208779e-02 0.0000000000000000e+00  -3.2013833648722683e-13 -2.3880359621656117e-03 0.0000000000000000e+00  -1.3199763941754426e-09 -2.5753905712948416e-02 0.0000000000000000e+00  -2.0658466376978573e-31 7.8021171865789260e-02 0.0000000000000000e+00  -1.6414428188411347e-02 -1.5013993695345007e-01 0.0000000000000000e+00  -2.5784530687961254e-11 -1.3862792994030364e-02 0.0000000000000000e+00  -5.0232444969945093e-15 9.0989031841906057e-03 0.0000000000000000e+00  -1.0938873862320529e-18 3.1564471002485078e-02 0.0000000000000000e+00  -2.4639239988958615e-22 5.3244274379295492e-02 0.0000000000000000e+00  -5.7082935798011528e-26 7.0317491609149546e-02 0.0000000000000000e+00  -1.3398979881258751e-29 7.8341191473414673e-02 0.0000000000000000e+00  1.1115400421961307e-34 7.4716043497632473e-02 0.0000000000000000e+00  1.3672296320351010e-29 6.2391774536086977e-02 0.0000000000000000e+00  5.6658446534112782e-26 4.7166214270165638e-02 0.0000000000000000e+00  2.2066260097703361e-22 3.0106654211700334e-02 0.0000000000000000e+00  9.4717509623885195e-19 9.8861171117403217e-03 0.0000000000000000e+00  4.8903374309994940e-15 -2.7779313066860819e-03 0.0000000000000000e+00  2.4969212885644836e-11 -2.2871613800013801e-02 0.0000000000000000e+00  1.6849045708348853e-07 -4.2834176127538481e-02 0.0000000000000000e+00  1.9420823571069785e-02 -1.5546768480511587e-03 0.0000000000000000e+00  5.3957614503672778e-02 -1.2638910593251379e-01 0.0000000000000000e+00  3.1591425494680331e-02 -1.6383326981501682e-02 0.0000000000000000e+00  -4.6345388891028350e-02 1.9810189649430623e-02 0.0000000000000000e+00  1.4772197701857221e-02 -7.4582819455899729e-02 0.0000000000000000e+00  2.5722914767191917e-02 -3.8521631443808768e-02 0.0000000000000000e+00  5.0984619423295532e-02 -3.4057068624473538e-02 0.0000000000000000e+00  4.3511991651522766e-02 -8.6985948352910659e-03 0.0000000000000000e+00  1.8640252149545681e-02 -1.0066147032854586e-01 0.0000000000000000e+00  -6.9244265693058169e-03 2.6475038590864333e-02 0.0000000000000000e+00  8.2499538697100763e-02 -1.2658530199626247e-01 0.0000000000000000e+00  1.0847712417882531e-02 -2.0547137166308682e-02 0.0000000000000000e+00  7.2103614558668649e-02 -4.9654651841077597e-02 0.0000000000000000e+00  -9.5734752262960510e-03 4.5174521875947869e-03 0.0000000000000000e+00  1.0821071817232354e-01 -2.1819205696584375e-02 0.0000000000000000e+00  2.9688962156212823e-02 -6.3118960668738780e-03 0.0000000000000000e+00  6.1184555316937478e-02 -1.8892829192869369e-04 0.0000000000000000e+00  6.3216088959634015e-02 2.4194333271445565e-04 0.0000000000000000e+00  4.0321243088197394e-02 3.4267746130077245e-07 0.0000000000000000e+00  3.1644926971757949e-02 1.1144213316445071e-08 0.0000000000000000e+00  2.6196127164934850e-02 9.6083370867742176e-11 0.0000000000000000e+00  2.1670666728742318e-02 2.0867277453596144e-12 0.0000000000000000e+00  2.0195377976085747e-02 2.6544727536450540e-14 0.0000000000000000e+00  2.0195708337548857e-02 -2.0197969115606535e-14 0.0000000000000000e+00  2.1651150287313708e-02 -1.5656799069267036e-12 0.0000000000000000e+00  2.6154696898770948e-02 -7.7175463850008287e-11 0.0000000000000000e+00  3.1565058468479755e-02 -8.2003750871133940e-09 0.0000000000000000e+00  4.0040758932261861e-02 -3.7920097394371047e-07 0.0000000000000000e+00  1.6938991860922722e-02 1.2205579147989832e-03 0.0000000000000000e+00  4.0673697100946107e-02 1.6829561268752911e-05 0.0000000000000000e+00  2.8383218108734263e-02 1.2140724299781304e-09 0.0000000000000000e+00  2.0956606811331005e-02 2.4571775155026057e-13 0.0000000000000000e+00  2.0966373850201295e-02 -1.9120004248063890e-13 0.0000000000000000e+00  2.8341061374454669e-02 -1.0087570576467074e-09 0.0000000000000000e+00  4.1147395147154930e-02 -1.5884357729140749e-05 0.0000000000000000e+00  3.4776934001103064e-02 3.8126623336670699e-08 0.0000000000000000e+00  2.3695593711034784e-02 1.4267422639211400e-11 0.0000000000000000e+00  1.9997612093655099e-02 8.1617566956908401e-16 0.0000000000000000e+00  2.3661526476683160e-02 -1.0312627302915140e-11 0.0000000000000000e+00  3.4799742367294904e-02 -2.0033724933936675e-08 0.0000000000000000e+00  1.6909605201678439e-02 1.5457134893228752e-01 0.0000000000000000e+00  -4.7474365197454224e-02 -2.0348296720750447e-02 0.0000000000000000e+00  2.7503610589776368e-02 1.1370063586354362e-02 0.0000000000000000e+00  6.1569150171150493e-02 1.4507242324803329e-01 0.0000000000000000e+00  4.2642781591078746e-02 8.5307010716407158e-03 0.0000000000000000e+00  5.0919402958421754e-02 3.4005242311414871e-02 0.0000000000000000e+00  2.4272294489382101e-02 3.6366706171889474e-02 0.0000000000000000e+00  1.4838520230345150e-02 7.4938774322399440e-02 0.0000000000000000e+00  2.7028802660049631e-02 5.8511752977157645e-03 0.0000000000000000e+00  1.1433485360821864e-01 2.3124896659281753e-02 0.0000000000000000e+00  -1.4245722205221897e-02 -7.5453257648386458e-03 0.0000000000000000e+00  7.3674904818752676e-02 5.0587613877858532e-02 0.0000000000000000e+00  8.1881015516899504e-03 1.7152292586877074e-02 0.0000000000000000e+00  8.7333829393507464e-02 1.3401793860028666e-01 0.0000000000000000e+00  -8.0955342341099204e-03 -3.2761038775555994e-02 0.0000000000000000e+00  1.9239758231067702e-02 1.0456667435222489e-01 0.0000000000000000e+00  2.5575502309921428e-32 -8.9958054140780633e-02 0.0000000000000000e+00  2.6728487065135911e-06 4.4379885019750695e-02 0.0000000000000000e+00  -3.6088729316607968e-08 3.2784533458899645e-02 0.0000000000000000e+00  -5.8178328630830228e-11 2.1103675865904978e-02 0.0000000000000000e+00  -3.7878693594567320e-12 9.9452206359161282e-03 0.0000000000000000e+00  -3.3939551947679492e-14 -2.4919589332054741e-03 0.0000000000000000e+00  -6.5109090141622308e-16 -1.4561641018532571e-02 0.0000000000000000e+00  -8.5791445040945470e-18 -2.6427902360485735e-02 0.0000000000000000e+00  -1.3407124306976036e-19 -3.8205159783786524e-02 0.0000000000000000e+00  -1.9652882904877967e-21 -5.0691154132137345e-02 0.0000000000000000e+00  -3.0328698746968125e-23 -6.2251393068168022e-02 0.0000000000000000e+00  -4.5908198576463808e-25 -7.2127817512337628e-02 0.0000000000000000e+00  -6.9326586126381578e-27 -8.2145595695495552e-02 0.0000000000000000e+00  -1.0675758895616065e-28 -8.8050309362664406e-02 0.0000000000000000e+00  -1.6476161653388549e-30 -9.1415056017998250e-02 0.0000000000000000e+00  -2.5012399098289407e-32 -9.0435236506635749e-02 0.0000000000000000e+00  -7.8149703079287273e-04 4.2596210878982563e-02 0.0000000000000000e+00  1.6748910143822031e-30 -8.3053763736584560e-02 0.0000000000000000e+00  1.0837082602238658e-28 -7.5312553007888319e-02 0.0000000000000000e+00  7.0314997491937467e-27 -6.7637979904778447e-02 0.0000000000000000e+00  4.9249411906729544e-25 -5.4075140638651015e-02 0.0000000000000000e+00  3.2559035106040518e-23 -4.5824050820446882e-02 0.0000000000000000e+00  2.1122034896712249e-21 -3.5742979220369557e-02 0.0000000000000000e+00  1.4328595344750815e-19 -2.5780103660161660e-02 0.0000000000000000e+00  9.4297417441175682e-18 -1.5150333514372605e-02 0.0000000000000000e+00  7.1169922655627115e-16 -6.2200481101080847e-03 0.0000000000000000e+00  3.7726908413251237e-14 3.6480392564536613e-03 0.0000000000000000e+00  4.0948110101847677e-12 1.3778294902336027e-02 0.0000000000000000e+00  7.1563285316418943e-11 2.3938886897941256e-02 0.0000000000000000e+00  3.7030955215737516e-08 3.4951987190923628e-02 0.0000000000000000e+00  -2.5918483658598874e-06 4.5218588986353135e-02 0.0000000000000000e+00  7.9224321008838233e-04 3.9769277075870392e-02 0.0000000000000000e+00  -1.6351260341490374e-02 1.4886462229098418e-01 0.0000000000000000e+00  -4.5931772333527259e-06 6.2455816247019444e-02 0.0000000000000000e+00  1.4918599865349450e-09 2.9711182369934273e-02 0.0000000000000000e+00  3.5601694650870756e-13 8.6710869140125008e-03 0.0000000000000000e+00  7.9640329735739400e-17 -1.1385221833613438e-02 0.0000000000000000e+00  1.7282631833631109e-20 -3.0809835216454657e-02 0.0000000000000000e+00  4.0028393879026161e-24 -5.1368243670994317e-02 0.0000000000000000e+00  8.7324255947998789e-28 -7.0665125555425604e-02 0.0000000000000000e+00  2.0829780632518023e-31 -8.5946753734606501e-02 0.0000000000000000e+00  -2.0478143201483806e-31 -9.2172152984706032e-02 0.0000000000000000e+00  -8.6102384534061061e-28 -8.5124017844312713e-02 0.0000000000000000e+00  -3.7249069487511907e-24 -6.7811742189727089e-02 0.0000000000000000e+00  -1.6085017182104437e-20 -4.4828285755388109e-02 0.0000000000000000e+00  -7.2479247115942707e-17 -2.0783583570681895e-02 0.0000000000000000e+00  -3.2368688079588539e-13 3.2597401940440266e-03 0.0000000000000000e+00  -1.3839813018141694e-09 2.6688612221636175e-02 0.0000000000000000e+00  5.4317994244140888e-06 6.0705571493929016e-02 0.0000000000000000e+00  1.7969375973638696e-07 4.1949427890793464e-02 0.0000000000000000e+00  2.8074984233301000e-11 1.8683765963614551e-02 0.0000000000000000e+00  5.5449121610645236e-15 -1.3459399087982198e-03 0.0000000000000000e+00  1.1483290707157693e-18 -1.9676958425498641e-02 0.0000000000000000e+00  2.6291285634167130e-22 -4.0869332894919452e-02 0.0000000000000000e+00  5.6513843072039146e-26 -6.0659880296062584e-02 0.0000000000000000e+00  1.3466693335460998e-29 -7.9290480135470617e-02 0.0000000000000000e+00  2.9478596083364639e-34 -9.0569581783369810e-02 0.0000000000000000e+00  -1.3254558429747737e-29 -9.0158087709793153e-02 0.0000000000000000e+00  -5.5676921283028508e-26 -7.7142498949085453e-02 0.0000000000000000e+00  -2.4498208924411044e-22 -5.6621457212925566e-02 0.0000000000000000e+00  -1.0793282847167092e-18 -3.1700571653890369e-02 0.0000000000000000e+00  -5.0538587302698645e-15 -8.5638441580648417e-03 0.0000000000000000e+00  -2.5619620381852748e-11 1.6425518823663762e-02 0.0000000000000000e+00  -1.7090037978152302e-07 4.0108306270956212e-02 0.0000000000000000e+00  -1.2760325747960599e-02 7.6312679910244289e-04 0.0000000000000000e+00  -6.1063249510216605e-02 1.4348687883949801e-01 0.0000000000000000e+00  -3.0502145257351947e-02 1.3792754125865293e-02 0.0000000000000000e+00  5.5672337389842577e-02 -2.3787804498749301e-02 0.0000000000000000e+00  -1.5138605337704232e-02 7.6464311431753793e-02 0.0000000000000000e+00  -2.4869060835951515e-02 3.7253051718534901e-02 0.0000000000000000e+00  -5.1894745686631272e-02 3.4663264427377834e-02 0.0000000000000000e+00  -4.2579159227948131e-02 8.5203630576292082e-03 0.0000000000000000e+00  -1.9723600102534537e-02 1.0706540290611100e-01 0.0000000000000000e+00  8.8895208031260897e-03 -3.6146085315043999e-02 0.0000000000000000e+00  -8.9039665025961848e-02 1.3673144138916066e-01 0.0000000000000000e+00  -7.5501286331770417e-03 1.6111199442558097e-02 0.0000000000000000e+00  -7.6256025107752548e-02 5.2546008225326311e-02 0.0000000000000000e+00  1.7705859201373915e-02 -9.7250641519348278e-03 0.0000000000000000e+00  -1.1811340963785473e-01 2.3898167510296782e-02 0.0000000000000000e+00  -2.5595649093114386e-02 5.6203530309510584e-03 0.0000000000000000e+00  -6.4830538348197742e-02 2.6112869557704595e-04 0.0000000000000000e+00  -6.2364784262437918e-02 -2.0021207617002915e-04 0.0000000000000000e+00  -4.1389970378566072e-02 -4.2600525141807928e-07 0.0000000000000000e+00  -3.3274791142092898e-02 -9.1442496959377599e-09 0.0000000000000000e+00  -2.8251196444434599e-02 -8.8178865067156348e-11 0.0000000000000000e+00  -2.3794098261337063e-02 -1.7852405057149538e-12 0.0000000000000000e+00  -2.2548073448423973e-02 -2.3240826030909457e-14 0.0000000000000000e+00  -2.2561865457615307e-02 2.6587314118928507e-14 0.0000000000000000e+00  -2.3920723077883819e-02 2.1308327316942237e-12 0.0000000000000000e+00  -2.8242826604702613e-02 9.4566212303158787e-11 0.0000000000000000e+00  -3.3364214816960260e-02 1.1748649545858798e-08 0.0000000000000000e+00  -4.1719812559989251e-02 2.7627789273477425e-07 0.0000000000000000e+00  -2.1894599598037988e-02 -1.7905099921737869e-03 0.0000000000000000e+00  -4.2406802911163714e-02 -1.6325592450824687e-05 0.0000000000000000e+00  -3.0198336749199452e-02 -1.0980808649591270e-09 0.0000000000000000e+00  -2.3285787946532448e-02 -2.1630444227278908e-13 0.0000000000000000e+00  -2.3284222315183192e-02 2.4871983667341557e-13 0.0000000000000000e+00  -3.0252624643078478e-02 1.2405914170999863e-09 0.0000000000000000e+00  -4.1358327160559469e-02 1.7246303752357340e-05 0.0000000000000000e+00  -3.6339921345829113e-02 -2.8513376247980366e-08 0.0000000000000000e+00  -2.5818870344924767e-02 -1.2158386555984236e-11 0.0000000000000000e+00  -2.2376145279619269e-02 4.6266237631181295e-16 0.0000000000000000e+00  -2.5847004462095924e-02 1.4312622582502395e-11 0.0000000000000000e+00  -3.6254160684859309e-02 3.7537956919057311e-08 0.0000000000000000e+00  4.1159049620590880e-02 1.7663579456076196e-02 0.0000000000000000e+00  -2.7342322231024903e-02 -1.1995475299700823e-02 0.0000000000000000e+00  -5.8879027426381465e-02 -1.3871302219316678e-01 0.0000000000000000e+00  -4.4081145030157608e-02 -8.8126606007683447e-03 0.0000000000000000e+00  -5.0852849473932017e-02 -3.3959793441460134e-02 0.0000000000000000e+00  -2.4833490309190114e-02 -3.7204656638683373e-02 0.0000000000000000e+00  -1.4822682848755060e-02 -7.4841071809397669e-02 0.0000000000000000e+00  -3.0353182163517897e-02 -6.4346516733209532e-03 0.0000000000000000e+00  -1.0941449741387789e-01 -2.2084935227305452e-02 0.0000000000000000e+00  9.2278937573612666e-03 4.3293534893946023e-03 0.0000000000000000e+00  -7.1648619051368323e-02 -4.9121832842229159e-02 0.0000000000000000e+00  -1.0043603296454429e-02 -1.9742384399361254e-02 0.0000000000000000e+00  -8.4664739529373631e-02 -1.2982870827772774e-01 0.0000000000000000e+00  7.0047398712673112e-03 2.7521364402050923e-02 0.0000000000000000e+00  -1.8952897985851695e-02 -1.0279049766592578e-01 0.0000000000000000e+00  8.8985517579177859e-23 -2.6482641154689393e-08 0.0000000000000000e+00  -8.4574188279726270e-23 3.5727586126611581e-08 0.0000000000000000e+00  6.4007282983524156e-30 4.2183135124362034e-08 0.0000000000000000e+00  3.3496761783086580e-16 -1.1717801576924107e-09 0.0000000000000000e+00  -3.4524022797787480e-16 -6.3374803843909695e-09 0.0000000000000000e+00  -6.1450253167534593e-30 -5.7436243289294978e-08 0.0000000000000000e+00  2.0309211027165172e-08 -1.5727301917255405e-11 0.0000000000000000e+00  -2.1635646342009510e-08 1.4501055963307525e-11 0.0000000000000000e+00  -2.2194603000810545e-08 -1.7497382863502025e-11 0.0000000000000000e+00  2.1049997381053837e-08 1.5939284116803785e-11 0.0000000000000000e+00  6.1682754710614631e-11 2.7090067803146292e-08 0.0000000000000000e+00  3.5618863974705754e-16 1.0926522096899482e-14 0.0000000000000000e+00  1.7859251681971816e-22 -2.6435782336620625e-14 0.0000000000000000e+00  3.6424342805842162e-20 -8.2173680444613989e-22 0.0000000000000000e+00  3.4018068660893800e-27 -1.1646106099288413e-20 0.0000000000000000e+00  3.0753697204238321e-14 -2.7249609587164694e-21 0.0000000000000000e+00  -1.6414262095489268e-28 -6.3722986058728710e-14 0.0000000000000000e+00  7.1365348018267366e-34 -2.9320732661413466e-20 0.0000000000000000e+00  2.0436640048978378e-35 -7.1635451621718801e-14 0.0000000000000000e+00  1.2647796102426813e-34 -3.4323022221811483e-20 0.0000000000000000e+00  1.7229647319960106e-28 -4.3515066150237006e-14 0.0000000000000000e+00  1.9974823067016177e-28 3.6116790662080017e-16 0.0000000000000000e+00  -4.3856271628439449e-27 -3.1997861289922323e-20 0.0000000000000000e+00  -6.0700630419798539e-11 -2.9330170085672049e-08 0.0000000000000000e+00  -3.8480461227189053e-16 -1.6445933103993446e-14 0.0000000000000000e+00  -3.4426856561833934e-14 -6.8735353346591520e-20 0.0000000000000000e+00  -3.7731093823842281e-16 1.3157853072092005e-14 0.0000000000000000e+00  5.4314332518556002e-11 -2.5362698098733485e-08 0.0000000000000000e+00  6.3304829587462279e-30 -5.2220918727191287e-08 0.0000000000000000e+00  -6.0629519211487699e-11 2.8159205362650473e-08 0.0000000000000000e+00  4.0565976108761758e-16 -1.3991022847100354e-09 0.0000000000000000e+00  -8.3383638879281343e-23 -3.7357630505440545e-08 0.0000000000000000e+00  1.5998839310823962e-22 2.6005759845552319e-14 0.0000000000000000e+00  -6.3558673065964759e-30 5.2654212004625519e-08 0.0000000000000000e+00  7.7619859394197764e-23 1.9926034173967422e-08 0.0000000000000000e+00  3.7343970401965510e-16 -9.2111200385180913e-15 0.0000000000000000e+00  -1.8488121398792621e-22 1.2061863098964611e-14 0.0000000000000000e+00  -3.9643950047132501e-20 -4.3437625268329741e-21 0.0000000000000000e+00  -3.8913608811804172e-16 6.5871579952206832e-09 0.0000000000000000e+00  -3.9879167317998694e-08 6.7218511761709083e-08 0.0000000000000000e+00  -2.38463