<?xml version="1.0"?>
<VTKFile type="UnstructuredGrid"  version="0.1"  >
<UnstructuredGrid>
<Piece  NumberOfPoints="4153" NumberOfCells="8064">
<Points>
<DataArray  type="Float64"  NumberOfComponents="3"  format="ascii">-0.4200022915044353 -0.5767040434433444 0  -0.0491901931971602 -0.685824712140602 0  -0.0980897406961027 -0.6815332088275069 0  -0.1464417122251523 -0.6740239075548737 0  -0.1941296836434129 -0.6638988880424619 0  -0.2413673303541524 -0.6520798220633662 0  -0.2877727942814416 -0.6364123216116543 0  -0.3330326314550285 -0.6181967653627686 0  -0.3771213060493326 -0.5982208463252715 0  -2.550545884097725e-06 -0.6865221839790664 0  -0.4619759811204243 -0.5558058783721793 0  -0.5033039871442732 -0.5350835001078506 0  -0.5440555673818874 -0.5148316500924589 0  -0.5842958577293913 -0.4954130633491324 0  -0.6242228335981882 -0.4771209510897629 0  -0.6638197000208663 -0.4600225888731634 0  -0.7032121630065472 -0.4449057638143361 0  0.6827177093609735 -0.4613527609919932 0  0.04916263575235812 -0.6835961392970575 0  0.09799859383769784 -0.6771295781028175 0  0.1462244935381867 -0.6673864110271321 0  0.1936112262847883 -0.6547481107764276 0  0.240051139504132 -0.6399537158057053 0  0.2855408111898984 -0.6234899580060802 0  0.3301042866431004 -0.6058164871165963 0  0.3737834326165811 -0.5874151160460791 0  0.416703928940228 -0.5687200079899549 0  0.458963366308387 -0.5500604393815545 0  0.5006542112828942 -0.5316910157495542 0  0.5418483643865528 -0.5139513125350884 0  0.5826177751931445 -0.4969329743057074 0  0.6230075586839829 -0.481048028150621 0  0.6631393426178217 -0.466935699991764 0  0.6430005411648939 -0.4740009748705649 0  -0.6833949311515775 -0.4524822080301303 0  -0.604303891172847 -0.4861724419434892 0  -0.523739940664953 -0.5248926581888246 0  -0.4410520211662138 -0.5662212555349191 0  -0.3552228905538884 -0.6083258383210705 0  -0.2647077761844699 -0.6446153444582901 0  -0.1703681391264796 -0.6692755409311085 0  -0.07369487135551397 -0.6841103380263099 0  0.6028491485539417 -0.4889116957448492 0  0.1222032938565662 -0.6726431355214425 0  0.2169496753357285 -0.6475893760105297 0  0.3079329691482035 -0.6147867723495901 0  0.3953343689311619 -0.5780836672207145 0  0.4798721956490141 -0.5408376959308711 0  0.5622895874122766 -0.5053412750355344 0  0.02460209137682378 -0.6855112817129535 0  -0.7223598116330805 -0.4387457587695223 0  0.5212960076601343 -0.522720063237205 0  0.4379100358499488 -0.5593731430710331 0  0.3520434858702514 -0.5966615496582592 0  0.2629141445308031 -0.6319047041623294 0  0.1700379434940722 -0.6613895269000272 0  0.07364045729313742 -0.6807929802513002 0  -0.02461196695911334 -0.6866325259678726 0  -0.1223456198646397 -0.6781512686980885 0  -0.2177508476901969 -0.6583493961726008 0  -0.3105466412474638 -0.6275566613694206 0  -0.3987928426770179 -0.5875990170127484 0  -0.4827164808400071 -0.54540658368408 0  -0.564224941758485 -0.5049615257303753 0  -0.6440443421807537 -0.4685051484069235 0  0.8397916830455956 -0.2728536501003662 0  0.7441937625751286 -0.4388214258523616 0  0.7963798662928283 -0.3969449312414818 0  0.8300357484658939 -0.3394033273495523 0  0.7137737372323025 -0.4505060035724286 0  0.7710699714481433 -0.4189146948644698 0  0.8120124095028328 -0.3672577873822953 0  0.8341718243613702 -0.3057847775130213 0  0.6984499090820124 -0.4568710915565541 0  0.7289080664653339 -0.4442104371447242 0  0.7576889467377391 -0.4290315577684113 0  0.7833235840280032 -0.4071924868902823 0  0.8052570992232084 -0.3826734940391275 0  0.8205172907105938 -0.3531959763622739 0  0.8316447872448783 -0.3224307424733 0  0.8365138047968872 -0.2892232770393156 0  0.8391716971404263 -0.2513486931901352 0  0.8440195321608986 0.2226485526269127 0  0.843541947985567 0.1799708293757707 0  0.8441907882133517 0.1371961632596635 0  0.8453576200673246 0.09420886358091621 0  0.8467724613186075 0.05090682063457268 0  0.8471918929391775 0.00734767633765443 0  0.8466731355058416 -0.0362670489304119 0  0.8452243923461619 -0.07980306910806348 0  0.8428671665554407 -0.1230544466620334 0  0.8408226449328006 -0.165995579477215 0  0.8393645243274545 -0.2087181820110241 0  0.845187036015363 0.2441275601346387 0  0.8435935484082863 0.2013099502339251 0  0.8447343004704247 0.1157336876103741 0  0.847100408777693 0.02914346984325908 0  0.8460682437041629 -0.05805384309666354 0  0.8418023625169699 -0.1445583163252342 0  0.8390650907328133 -0.2300362806551007 0  0.8437809371439469 0.1586047406539561 0  0.8461176634402766 0.07261424713043498 0  0.8470458064234808 -0.01446103727436618 0  0.8440779164083672 -0.1014853060272153 0  0.8400019246095166 -0.1873789886212822 0  0.6933024737644069 0.4347606012800541 0  0.8370935663001022 0.3109816619462499 0  0.8049183417362535 0.3692877133121242 0  0.7539123979573906 0.4119689815542181 0  0.8405979581624246 0.2772326112644428 0  0.8201638972879245 0.3394193949425339 0  0.7801869530098187 0.3915198179805964 0  0.7238749201757479 0.423785260292282 0  0.842587925431162 0.2606109236567118 0  0.8384853705031862 0.2939579886049786 0  0.8282377577854654 0.3250801163983777 0  0.8133648875037657 0.3547565575294401 0  0.7921534927916504 0.3796805582455997 0  0.767093522931146 0.4018633370904894 0  0.7388175944492645 0.4174833005316492 0  0.7087570780163991 0.430104311133868 0  -0.03544702624115579 0.6939316836852805 0  0.6348159054785024 0.4558906489591768 0  0.5952673348762787 0.4729508803635109 0  0.5553479486574965 0.4912529125869519 0  0.5150310355889971 0.5106412345287044 0  0.4741468369620367 0.5308068934212348 0  0.4326123323415775 0.5514181422710219 0  0.390323702395181 0.5721968294455496 0  0.3471604425031803 0.5929212160165296 0  0.3029554934732659 0.6130043100996669 0  0.2576655997541241 0.6319980389386539 0  0.2112456983348416 0.6494279473908909 0  0.1636634165208789 0.664860536256995 0  0.1149812555733485 0.6773640590603579 0  0.06540393252533994 0.6865496031903613 0  0.01518401683588221 0.6920556473370819 0  0.6741524581365885 0.4407801724351499 0  -0.08608131384184572 0.6910047104273257 0  -0.1362008162180615 0.6837577759184564 0  -0.1853961394332356 0.6725552172017627 0  -0.233195604212123 0.6574094769733504 0  -0.2796307632671841 0.6407982136749582 0  -0.3248820967580737 0.6227737291056532 0  -0.3690311546086921 0.60371761513322 0  -0.4121251854565299 0.5839317140382694 0  -0.454405927422336 0.5643127031147657 0  -0.4960267660214761 0.5448993731469792 0  -0.5370871285084056 0.5259043155662918 0  -0.5776720028900827 0.5075511976130349 0  -0.6178387133332925 0.4900512288315124 0  -0.6576681344224061 0.473779709283881 0  -0.6973037549941289 0.459391167551126 0  -0.7166354198927519 0.4537116268215147 0  -0.6773982689918321 0.4665979647394554 0  -0.5978046784897108 0.4986873099800317 0  -0.5166215769095138 0.535338594897145 0  -0.4333517433735117 0.5741104908123328 0  -0.3470878320942878 0.6133429468095142 0  -0.256564690421904 0.6493153265098506 0  -0.1609365360847224 0.6785760898238792 0  -0.06079681978678342 0.6930039472960279 0  0.04035879636903403 0.6897939431333212 0  0.1394482478470566 0.6714878242044996 0  0.234597187530269 0.6409403586851294 0  0.3251876979642672 0.6030743869427443 0  0.4115674409053993 0.5618043624541645 0  0.4946611021271921 0.5206559595062102 0  0.5753587970612979 0.4819943750621289 0  0.6543935945983749 0.4483456810019386 0  -0.6377841182577185 0.4818294957198372 0  -0.5574329495353935 0.5166395188445616 0  -0.4752920224848753 0.5545664785158095 0  -0.390717379448533 0.5938574996184099 0  -0.3023987557601636 0.6319376923590622 0  -0.2095451832863154 0.6653721975716689 0  -0.1112319787852138 0.6878945812506533 0  -0.01006814935844227 0.6935364128026253 0  0.09029023835369396 0.6823969605921139 0  0.1876134727936044 0.6574678487055933 0  0.2804497561008421 0.622667782586239 0  0.3688690344788682 0.5825911027293552 0  0.453466900839591 0.5410761106896007 0  0.5352511154065921 0.5008095683180125 0  0.6150763101180886 0.4643309181998418 0  -0.8715111647717894 0.2653106171574695 0  -0.7776863596214285 0.4315252952837227 0  -0.8293658838100495 0.3895286221199465 0  -0.862395661133501 0.3318130696323709 0  -0.7474258166565502 0.443038839573006 0  -0.8042882088357862 0.4114833823819128 0  -0.8448594607914307 0.3598589509966657 0  -0.8663088220366943 0.2982288135513524 0  -0.7322035529595138 0.44925100910049 0  -0.7624746940313724 0.4368648317238161 0  -0.7910305151093276 0.4216401374557249 0  -0.8164186564038839 0.3997703797786748 0  -0.8380460936092118 0.3751754655849531 0  -0.8531838919242566 0.3457134802815762 0  -0.8639421749509935 0.3148650972546239 0  -0.8685306875857608 0.2816907888056842 0  -0.8706908196804063 0.2438878920918784 0  -0.8741406894341597 -0.2280836515593026 0  -0.8734907802854373 -0.1855611975720808 0  -0.8740888830387694 -0.1429818163459188 0  -0.8752863289284479 -0.1002099888998023 0  -0.876829172792245 -0.05713822376890386 0  -0.8774444104297071 -0.01379709263726901 0  -0.8771503380085094 0.02960847343529624 0  -0.8759510760282421 0.07294954901657816 0  -0.8738179038789865 0.1160277687021538 0  -0.8719888819548287 0.1588046798279854 0  -0.8707313807734 0.2013841672136508 0  -0.8752652245123123 -0.2495420305119449 0  -0.8736135511912465 -0.2068184012246471 0  -0.8746417358490336 -0.1216262456193661 0  -0.8772532871727226 -0.03548447156015141 0  -0.8766654001088022 0.05129586799127867 0  -0.8728589916318844 0.1374462310049595 0  -0.8705104922341147 0.2226344693220174 0  -0.8736963411959207 -0.1642895056639208 0  -0.876091834371328 -0.07873087387400754 0  -0.8774071323642337 0.007905734366051166 0  -0.8749255180186117 0.09454430782558754 0  -0.8712695691457241 0.1801135093366176 0  -0.866861744333188 -0.3161913081642034 0  -0.8342733306845709 -0.3740577645603252 0  -0.7830460942199661 -0.4163844770224031 0  -0.8704599403346025 -0.2825262168994273 0  -0.8495827743735955 -0.3443251373026288 0  -0.809485961355863 -0.3962691138231036 0  -0.7529749980554193 -0.4281303825989493 0  -0.8724695554778061 -0.2659470495414114 0  -0.868260891
[...]
<PointData  Vectors="f_3996"> 
<DataArray  type="Float64"  Name="f_3996"  NumberOfComponents="3" format="ascii">1.1565567666379490e-02 2.4181509583170360e-02 0.0000000000000000e+00  2.9776261182100088e-03 6.0358558143602664e-02 0.0000000000000000e+00  7.8351835115504677e-03 6.2381680802040401e-02 0.0000000000000000e+00  1.1767845341227330e-02 6.1984974579015348e-02 0.0000000000000000e+00  1.2392953245590681e-02 5.2483765451410640e-02 0.0000000000000000e+00  1.3796059147425656e-02 3.8165272646428682e-02 0.0000000000000000e+00  1.8461471793731529e-02 4.5429713345436919e-02 0.0000000000000000e+00  1.8214576048701407e-02 3.9759845204595905e-02 0.0000000000000000e+00  1.5316476805407795e-02 3.0528707179880869e-02 0.0000000000000000e+00  -1.8758519119623054e-03 5.8359940866895443e-02 0.0000000000000000e+00  1.0563383894690744e-02 2.2447297475562338e-02 0.0000000000000000e+00  8.8177838189098263e-03 1.9829452193270033e-02 0.0000000000000000e+00  6.1534029730744453e-03 1.5873745154197091e-02 0.0000000000000000e+00  7.6193900086490469e-03 2.1188564425295164e-02 0.0000000000000000e+00  5.5953410926789342e-03 1.8755925666985845e-02 0.0000000000000000e+00  1.0197632874783501e-02 3.9933086375280417e-02 0.0000000000000000e+00  -4.8080216867617516e-03 2.3819444032225776e-02 0.0000000000000000e+00  -8.9511639259640900e-03 -8.6793096626171275e-03 0.0000000000000000e+00  -6.3187031640536528e-03 5.6666466796947396e-02 0.0000000000000000e+00  -1.0358360281680443e-02 5.5190421370390937e-02 0.0000000000000000e+00  -1.3725771633494322e-02 5.3386934534603393e-02 0.0000000000000000e+00  -1.5725799363678739e-02 5.0128554529250767e-02 0.0000000000000000e+00  -1.5908390411470449e-02 4.4318173287368437e-02 0.0000000000000000e+00  -1.4836746022643741e-02 3.7550593303456718e-02 0.0000000000000000e+00  -1.2856086896698836e-02 3.0605801977104531e-02 0.0000000000000000e+00  -1.1055830555214544e-02 2.6229689190561119e-02 0.0000000000000000e+00  -8.7865372193912123e-03 2.1206526511974019e-02 0.0000000000000000e+00  -6.5791335612846178e-03 1.6864236752230335e-02 0.0000000000000000e+00  -3.7459938488661462e-03 1.1658728932493412e-02 0.0000000000000000e+00  -2.1026657809633991e-03 8.6316326835857594e-03 0.0000000000000000e+00  -2.6654340939094726e-03 1.2560664349114478e-02 0.0000000000000000e+00  -6.0294592736718534e-03 2.9172767361645712e-02 0.0000000000000000e+00  2.7190468880682098e-03 2.8025676832229007e-02 0.0000000000000000e+00  9.7711242309009155e-03 -1.4735196689001515e-02 0.0000000000000000e+00  -7.9287109823916301e-03 -7.7501085562782313e-03 0.0000000000000000e+00  1.6678532454909691e-03 8.7026151072491040e-03 0.0000000000000000e+00  7.7122987020841246e-03 1.8129611362755139e-02 0.0000000000000000e+00  1.4893041116622575e-02 3.2309150367940742e-02 0.0000000000000000e+00  1.6286839671959125e-02 3.3959249617368681e-02 0.0000000000000000e+00  1.7571668199019189e-02 4.5417540598201592e-02 0.0000000000000000e+00  1.3253959493234988e-02 5.9964342298467546e-02 0.0000000000000000e+00  5.4549205870510903e-03 6.1469977034551954e-02 0.0000000000000000e+00  5.1075062396323959e-03 -5.3583584248230341e-03 0.0000000000000000e+00  -1.2126257997656121e-02 5.4322002766289353e-02 0.0000000000000000e+00  -1.6055369893424928e-02 4.7735191911410277e-02 0.0000000000000000e+00  -1.3965686084544737e-02 3.4174667867203183e-02 0.0000000000000000e+00  -9.7384691244875692e-03 2.3103823446623123e-02 0.0000000000000000e+00  -4.9843673682177020e-03 1.3652720635899078e-02 0.0000000000000000e+00  1.0186302670057545e-03 2.3579054318029567e-03 0.0000000000000000e+00  -4.1243728957524976e-03 5.7452307161672427e-02 0.0000000000000000e+00  2.4101249547316676e-02 6.4615746417883452e-02 0.0000000000000000e+00  -3.9233655694411191e-03 1.2776555620326669e-02 0.0000000000000000e+00  -7.4601901050339748e-03 1.8472550949574160e-02 0.0000000000000000e+00  -1.2170794952837417e-02 2.8921031606623401e-02 0.0000000000000000e+00  -1.5515357976616731e-02 4.0988204504961233e-02 0.0000000000000000e+00  -1.5308008931995555e-02 5.2976172987494477e-02 0.0000000000000000e+00  -8.3931453164033040e-03 5.5898610584539828e-02 0.0000000000000000e+00  4.7183672715705321e-04 5.9269976319400168e-02 0.0000000000000000e+00  1.0184048679961429e-02 6.3262903025393932e-02 0.0000000000000000e+00  8.8267916577509618e-03 3.3997893539751745e-02 0.0000000000000000e+00  1.7982121408607263e-02 4.1415453183793367e-02 0.0000000000000000e+00  1.8227151769186382e-02 3.4168435764606785e-02 0.0000000000000000e+00  9.4599471490890499e-03 2.0529862226656426e-02 0.0000000000000000e+00  7.0078282124938565e-03 1.9188400168959306e-02 0.0000000000000000e+00  -3.9325861996171042e-03 -1.2344022114519067e-03 0.0000000000000000e+00  4.4579618385840639e-02 7.8558443562601321e-04 0.0000000000000000e+00  5.1317127917794816e-02 -1.2367746333541554e-01 0.0000000000000000e+00  4.8568716013782279e-02 -5.5236067154422488e-02 0.0000000000000000e+00  -1.8948631480186257e-01 2.5004812039371133e-02 0.0000000000000000e+00  4.6459424209800614e-02 -1.1729529290687092e-01 0.0000000000000000e+00  1.8588780478945507e-02 -2.6183801731934013e-02 0.0000000000000000e+00  1.4453061008636633e-01 -4.3182825475672558e-02 0.0000000000000000e+00  4.6359459476974882e-02 -3.6756763545466508e-03 0.0000000000000000e+00  2.9201204894816337e-02 -1.1299208814658174e-01 0.0000000000000000e+00  -9.3792152070969553e-02 1.8109289276212948e-01 0.0000000000000000e+00  4.9246475984612133e-02 -9.4202117865523405e-02 0.0000000000000000e+00  -8.0237535156231499e-02 7.1189445019461242e-02 0.0000000000000000e+00  -1.3132425373550341e-01 5.7531965924508335e-02 0.0000000000000000e+00  -2.2296705038377107e-01 9.8750177391033866e-02 0.0000000000000000e+00  2.3254953554199964e-01 -1.0435260873068357e-02 0.0000000000000000e+00  7.8124633768251973e-03 -4.8128742703748804e-03 0.0000000000000000e+00  1.0716329289225227e-01 2.9106721654548486e-03 0.0000000000000000e+00  8.3717917595429694e-02 -5.6528543444752865e-03 0.0000000000000000e+00  3.5017126795004565e-02 8.7832247071982169e-04 0.0000000000000000e+00  2.2674888194698838e-02 9.9766006858235208e-04 0.0000000000000000e+00  1.7937458904894163e-02 8.7235500096746364e-04 0.0000000000000000e+00  1.6730347873799765e-02 4.0766405072980547e-04 0.0000000000000000e+00  1.6569578601309243e-02 -3.5108132670129375e-05 0.0000000000000000e+00  1.6502052343470349e-02 -3.7889360561974488e-04 0.0000000000000000e+00  1.6259801125830253e-02 -8.0206928567518488e-04 0.0000000000000000e+00  1.7822615485790554e-02 -1.1611069494508778e-03 0.0000000000000000e+00  2.3510706318334726e-02 -1.4005033964182695e-03 0.0000000000000000e+00  4.0024382808550585e-02 -1.4807181928189451e-03 0.0000000000000000e+00  3.6603826786699475e-02 -3.1345455357687626e-03 0.0000000000000000e+00  4.0049343531929966e-02 1.1462566218534327e-03 0.0000000000000000e+00  1.9358088059271569e-02 8.8901349348944182e-04 0.0000000000000000e+00  1.7006709037244879e-02 1.0111975307059923e-04 0.0000000000000000e+00  1.6967729632444861e-02 -5.4080110335003495e-04 0.0000000000000000e+00  1.9642141685628816e-02 -1.2383200090531994e-03 0.0000000000000000e+00  4.1599790246172684e-02 -1.2345989337153483e-03 0.0000000000000000e+00  2.6779482234554220e-02 1.1520015841135186e-03 0.0000000000000000e+00  1.7041928147073560e-02 7.9831283494413772e-04 0.0000000000000000e+00  1.6443009962308044e-02 -2.1093945020734042e-04 0.0000000000000000e+00  1.5714032148008619e-02 -1.0834082326904981e-03 0.0000000000000000e+00  2.7595792241391089e-02 -1.5578148935575685e-03 0.0000000000000000e+00  -9.7408665068830502e-03 -8.2634103456410927e-03 0.0000000000000000e+00  -8.9048571815410163e-02 -5.0851847485330432e-03 0.0000000000000000e+00  4.6571022044699012e-02 4.1282830278290265e-02 0.0000000000000000e+00  4.4913464545791572e-02 1.1540155913162618e-01 0.0000000000000000e+00  5.1530762855193903e-02 5.2141228480882713e-03 0.0000000000000000e+00  9.0979374596246387e-02 3.0123587175069143e-02 0.0000000000000000e+00  2.5242534817618473e-02 3.1693624197337997e-02 0.0000000000000000e+00  4.2415283193814789e-02 1.0437093539787640e-01 0.0000000000000000e+00  3.0676688266869666e-02 6.6005165795622600e-03 0.0000000000000000e+00  1.6499706930740993e-01 2.7963594087196527e-03 0.0000000000000000e+00  -1.1036856218854856e-01 -3.3581777584626250e-02 0.0000000000000000e+00  -4.7553382657358784e-02 -1.6701802821557823e-02 0.0000000000000000e+00  -6.6561612455538821e-02 -5.5183253786415760e-02 0.0000000000000000e+00  5.1975765553709044e-02 8.9647477565960365e-02 0.0000000000000000e+00  -7.9381775570283211e-02 -1.4119717122653536e-01 0.0000000000000000e+00  2.8238718750653195e-02 1.0381733623206690e-01 0.0000000000000000e+00  1.4043499034054436e-03 -4.7072023974887772e-02 0.0000000000000000e+00  -1.0553818320713268e-02 -4.0011329081345741e-02 0.0000000000000000e+00  -4.8361479924819159e-03 -1.7092845396061502e-02 0.0000000000000000e+00  -6.1026641545418791e-03 -1.7715195710917224e-02 0.0000000000000000e+00  -6.0519485394641363e-03 -1.5544220934551644e-02 0.0000000000000000e+00  -8.3316078075581623e-03 -1.8840295187323844e-02 0.0000000000000000e+00  -1.0514534260365171e-02 -2.2480769496653365e-02 0.0000000000000000e+00  -1.3181283439220579e-02 -2.7759206680427102e-02 0.0000000000000000e+00  -1.5381069609994587e-02 -3.2383490708594580e-02 0.0000000000000000e+00  -1.7709449045730651e-02 -3.9429475813685291e-02 0.0000000000000000e+00  -1.9213714347101816e-02 -4.6641845134747430e-02 0.0000000000000000e+00  -1.9093354066213805e-02 -5.2256705590314381e-02 0.0000000000000000e+00  -1.7235277229143121e-02 -5.6707151876402781e-02 0.0000000000000000e+00  -1.3125053197429350e-02 -5.6406529370275099e-02 0.0000000000000000e+00  -8.4217792339580204e-03 -5.4661789052547143e-02 0.0000000000000000e+00  -3.7058831176888440e-03 -5.1642736119367705e-02 0.0000000000000000e+00  -1.0923792349790211e-03 -4.1021050281319450e-02 0.0000000000000000e+00  6.1463958339929318e-03 -5.0827392797028650e-02 0.0000000000000000e+00  1.2196199831958795e-02 -5.7817137187482090e-02 0.0000000000000000e+00  1.9604202434350564e-02 -6.6678630011128129e-02 0.0000000000000000e+00  1.7456997693530867e-02 -4.9401222802423837e-02 0.0000000000000000e+00  1.8532444743169646e-02 -4.7290183470061517e-02 0.0000000000000000e+00  1.6907629987121815e-02 -3.9679327658598905e-02 0.0000000000000000e+00  1.4777413615035215e-02 -3.2677934795804615e-02 0.0000000000000000e+00  1.2761162964660696e-02 -2.8723684696044645e-02 0.0000000000000000e+00  1.0127866604315805e-02 -2.3233229126996869e-02 0.0000000000000000e+00  7.8025926730960907e-03 -1.8974985887118254e-02 0.0000000000000000e+00  5.5593902713780320e-03 -1.5230778104058471e-02 0.0000000000000000e+00  3.6353070647701098e-03 -1.2375819695790281e-02 0.0000000000000000e+00  5.1457573974455174e-03 -1.8770543585221552e-02 0.0000000000000000e+00  1.0720309769588489e-02 -4.2465205434399529e-02 0.0000000000000000e+00  1.5012209688773680e-03 -4.5267599151573121e-02 0.0000000000000000e+00  1.1482062369303039e-02 -5.8545542239657805e-03 0.0000000000000000e+00  -8.5969932161118045e-03 9.3353460834199528e-03 0.0000000000000000e+00  9.5239138413471885e-04 -7.5406015154803763e-03 0.0000000000000000e+00  6.4915005175981656e-03 -1.6633312339919437e-02 0.0000000000000000e+00  1.2041898082366246e-02 -2.7510907715033405e-02 0.0000000000000000e+00  1.5823810854916975e-02 -3.5998791355153312e-02 0.0000000000000000e+00  1.8950977802972811e-02 -5.2503237138442259e-02 0.0000000000000000e+00  1.4478559211635581e-02 -5.7374200256951821e-02 0.0000000000000000e+00  3.7517928042358159e-03 -4.9001141444221921e-02 0.0000000000000000e+00  -5.8660166222614663e-03 -5.3438052406096580e-02 0.0000000000000000e+00  -1.5177773560684241e-02 -5.6410123561699908e-02 0.0000000000000000e+00  -1.9428527107463203e-02 -5.0164452329068673e-02 0.0000000000000000e+00  -1.6592382355609597e-02 -3.5821329948099459e-02 0.0000000000000000e+00  -1.1917534009124464e-02 -2.5241537987401325e-02 0.0000000000000000e+00  -7.3012050552742529e-03 -1.7299053691705809e-02 0.0000000000000000e+00  -1.6518342671701714e-03 -8.7333714176066994e-03 0.0000000000000000e+00  8.5592300794826975e-03 8.4834886367113112e-03 0.0000000000000000e+00  -3.6862808109335531e-03 6.8541017378386470e-04 0.0000000000000000e+00  4.2344025609319215e-03 -1.2971361482542354e-02 0.0000000000000000e+00  9.0069362467049864e-03 -2.1174805317975019e-02 0.0000000000000000e+00  1.3387939693056019e-02 -2.9007308592154932e-02 0.0000000000000000e+00  1.7745786723355635e-02 -4.3498362838990022e-02 0.0000000000000000e+00  2.6669879278481894e-02 -7.8057625231861980e-02 0.0000000000000000e+00  8.7694465354045681e-03 -5.2706075146545787e-02 0.0000000000000000e+00  -1.7242011312052475e-03 -4.5937537880492749e-02 0.0000000000000000e+00  -1.0698954583982024e-02 -5.5462435352375564e-02 0.0000000000000000e+00  -1.9305290538734671e-02 -5.6661952577200789e-02 0.0000000000000000e+00  -1.8616453013680551e-02 -4.3116700792165515e-02 0.0000000000000000e+00  -1.4263763674993544e-02 -2.9755449868133034e-02 0.0000000000000000e+00  -9.3040223649426441e-03 -2.0347567164366646e-02 0.0000000000000000e+00  -5.8329680159773306e-03 -1.6333831786728776e-02 0.0000000000000000e+00  3.5198617895298334e-03 1.4143008860333675e-04 0.0000000000000000e+00  -3.7078530305409030e-02 -2.2441015976913071e-03 0.0000000000000000e+00  -4.8354669845244364e-02 1.2287130480277227e-01 0.0000000000000000e+00  -4.9410576151343234e-02 4.9809922021326336e-02 0.0000000000000000e+00  1.5003016401313835e-01 -1.5618114335194219e-02 0.0000000000000000e+00  -4.4839989525940732e-02 1.1349846028219873e-01 0.0000000000000000e+00  -2.0018490210280699e-02 2.7438795938922907e-02 0.0000000000000000e+00  -1.1931193476624161e-01 3.6782286817293224e-02 0.0000000000000000e+00  -4.7704926542253237e-02 4.1435107805258336e-03 0.0000000000000000e+00  -2.8297262075767892e-02 1.0938053484316575e-01 0.0000000000000000e+00  9.2048992107348626e-02 -1.7531269331856478e-01 0.0000000000000000e+00  -5.1863808249566538e-02 9.5028049100458395e-02 0.0000000000000000e+00  8.3067297471471985e-02 -7.3978419718122121e-02 0.0000000000000000e+00  9.4222881376247625e-02 -3.8753473894977339e-02 0.0000000000000000e+00  1.7886949440586170e-01 -7.2150505689776642e-02 0.0000000000000000e+00  -2.1211286609069244e-01 8.7433419443697907e-03 0.0000000000000000e+00  -1.4826621977818042e-02 5.4108354054176050e-03 0.0000000000000000e+00  -1.0566714593858746e-01 -3.7644384690735167e-03 0.0000000000000000e+00  -8.7182497326934838e-02 5.9927687549116496e-03 0.0000000000000000e+00  -3.6161666779909951e-02 -8.5071732887303305e-04 0.0000000000000000e+00  -2.2506549075938544e-02 -1.0221223230811563e-03 0.0000000000000000e+00  -1.7319671807856398e-02 -8.8855557685284389e-04 0.0000000000000000e+00  -1.6077589639796431e-02 -4.7947818595769302e-04 0.0000000000000000e+00  -1.6050971952610901e-02 -4.6964275665456505e-05 0.0000000000000000e+00  -1.6046352069446775e-02 2.7955371197568450e-04 0.0000000000000000e+00  -1.5979118371437208e-02 6.8766206335603799e-04 0.0000000000000000e+00  -1.7388087668612912e-02 1.0837916296639798e-03 0.0000000000000000e+00  -2.2925962547883996e-02 1.2919850116198848e-03 0.0000000000000000e+00  -3.8472223324029609e-02 1.3306371777473433e-03 0.0000000000000000e+00  -4.1067252500831361e-02 2.4865572242490194e-03 0.0000000000000000e+00  -4.1013401330031736e-02 -8.4208295696607146e-04 0.0000000000000000e+00  -1.8938934155283693e-02 -9.1787500331415295e-04 0.0000000000000000e+00  -1.6482431283807567e-02 -1.8056337995949948e-04 0.0000000000000000e+00  -1.6561701734701294e-02 4.2589286279820900e-04 0.0000000000000000e+00  -1.9224618093350257e-02 1.1464535013195685e-03 0.0000000000000000e+00  -4.0992140140831433e-02 1.2532956653611418e-03 0.0000000000000000e+00  -2.6803734868462492e-02 -1.1537489506797511e-03 0.0000000000000000e+00  -1.6154735031685373e-02 -8.3967063110848962e-04 0.0000000000000000e+00  -1.5963376762031082e-02 1.1573939792924411e-04 0.0000000000000000e+00  -1.5558869134359474e-02 1.0030041698877764e-03 0.0000000000000000e+00  -2.7103132379922002e-02 1.4527810859403388e-03 0.0000000000000000e+00  1.1509045524116922e-01 9.6992240215056109e-03 0.0000000000000000e+00  -4.6111891443713970e-02 -4.7045074041657919e-02 0.0000000000000000e+00  -4.5593012758580458e-02 -1.1561270545730769e-01 0.0000000000000000e+00  -5.0739197028587389e-02 -4.8289981462492767e-03 0.0000000000000000e+00  -1.1057962363104151e-01 -3.5030859424463268e-02 0.0000000000000000e+00  -2.3361688019763210e-02 -3.0028633359423362e-02 0.0000000000000000e+00  -4.1657565496871850e-02 -1.0810462948278395e-01 0.0000000000000000e+00  -2.6219665858893626e-02 -6.4430642207228871e-03 0.0000000000000000e+00  -1.7774680855362829e-01 -2.9947600587573631e-03 0.0000000000000000e+00  1.4353725424928199e-01 5.1595148892552525e-02 0.0000000000000000e+00  8.3180748498721563e-02 3.4039851017953218e-02 0.0000000000000000e+00  6.2217618987214521e-02 5.1069735952309570e-02 0.0000000000000000e+00  -4.8415432943662233e-02 -8.8858071010330858e-02 0.0000000000000000e+00  7.9615995545182533e-02 1.4376292014688535e-01 0.0000000000000000e+00  -3.3514398488731230e-02 -1.2264312021481172e-01 0.0000000000000000e+00  2.9185938509848828e-05 2.3055069970550060e-05 0.0000000000000000e+00  -2.3332675806556793e-05 -2.1308145665837485e-05 0.0000000000000000e+00  1.3738848016504141e-05 -2.2491203876238183e-06 0.0000000000000000e+00  9.7954897912477584e-06 -3.6020437979077306e-05 0.0000000000000000e+00  -8.6570031075840502e-06 3.4580884015910751e-05 0.0000000000000000e+00  -2.3558582482012975e-05 5.0799407312595028e-06 0.0000000000000000e+00  -4.4988764696686964e-06 -7.3425231352894940e-06 0.0000000000000000e+00  3.6230093890333290e-06 6.2343859138486152e-06 0.0000000000000000e+00  2.2680422914799555e-06 -4.2089968436004773e-06 0.0000000000000000e+00  -1.8694641039981847e-06 3.5896404487572895e-06 0.0000000000000000e+00  -3.4199649411067567e-06 3.7977907173252749e-05 0.0000000000000000e+00  -3.7381856047690322e-06 1.9513912945580219e-05 0.0000000000000000e+00  -1.2225901965865765e-05 3.5861848146822036e-05 0.0000000000000000e+00  -2.2995203580744865e-07 -4.8786167897448376e-06 0.0000000000000000e+00  7.5318466677602269e-07 -8.8847118665646833e-06 0.0000000000000000e+00  -6.6319120504079059e-08 -2.5496515088938707e-06 0.0000000000000000e+00  -5.0015604254351241e-05 6.1231168266594245e-05 0.0000000000000000e+00  9.4462511262438816e-06 4.3988702473148782e-06 0.0000000000000000e+00  6.3927105416119057e-07 -6.8921960320438838e-07 0.0000000000000000e+00  8.6916651728335232e-05 -1.0806874166967469e-05 0.0000000000000000e+00  6.5177183163050105e-05 8.2800109227364465e-05 0.0000000000000000e+00  1.9666263650171517e-05 -4.5035282444226405e-05 0.0000000000000000e+00  -7.2911343780992870e-06 5.8853886856391236e-06 0.0000000000000000e+00  3.6562669390023290e-06 -3.8079615721615626e-05 0.0000000000000000e+00  4.0174041108218445e-06 -1.9506735254479248e-05 0.0000000000000000e+00  -2.9555880231977487e-09 1.2911625872341135e-06 0.0000000000000000e+00  5.2133955177284175e-06 2.4386078192765095e-05 0.0000000000000000e+00  -4.0979443163777094e-06 -4.2104139517448757e-05 0.0000000000000000e+00  3.0191767355679334e-05 6.1615195438144345e-06 0.0000000000000000e+00  4.1400792099179870e-06 4.0127842446623289e-05 0.0000000000000000e+00  9.1529717702214171e-06 3.3795987252557927e-05 0.0000000000000000e+00  -2.6984477663761312e-05 2.4872049731186490e-05 0.0000000000000000e+00  -1.5334225297613643e-05 -3.6142586328677647e-05 0.0000000000000000e+00  -2.1602416883500242e-05 -5.0174767212845958e-06 0.0000000000000000e+00  3.6384646052586987e-05 -3.1783862864205180e-05 0.0000000000000000e+00  -6.1627868013211911e-06 -2.5463476760145953e-05 0.0000000000000000e+00  1.0601257531024598e-05 -3.1620526235857582e-05 0.0000000000000000e+00  4.2560266562047581e-07 4.9383006111961046e-06 0.0000000000000000e+00  -8.6182546477417405e-06 -3.4048857266462593e-05 0.0000000000000000e+00  8.9427807494436764e-06 2.1052349060095635e-05 0.0000000000000000e+00  -4.00989