<?xml version="1.0"?>
<VTKFile type="UnstructuredGrid"  version="0.1"  >
<UnstructuredGrid>
<Piece  NumberOfPoints="4153" NumberOfCells="8064">
<Points>
<DataArray  type="Float64"  NumberOfComponents="3"  format="ascii">-0.4000267510135876 -0.4683509249414478 0  -0.02489553171903797 -0.5143312028561868 0  -0.07210143565567786 -0.510939335880482 0  -0.1191556791796909 -0.5067080387807095 0  -0.1660928280177858 -0.5019919213546844 0  -0.213053585759912 -0.4969941059317694 0  -0.2599910187702784 -0.49079290266626 0  -0.3068186207182523 -0.4838299294899939 0  -0.3535212760842228 -0.4763146075442318 0  0.02245480734975059 -0.5165714726412085 0  -0.4464458735737278 -0.4607709315166021 0  -0.4927708810513136 -0.4531280976152341 0  -0.5389905030085207 -0.4455719137930071 0  -0.5850853189929591 -0.4383901741327975 0  -0.6310779260035346 -0.4315354774510226 0  -0.6769125101757593 -0.4251494728586384 0  -0.7225731612091773 -0.419366857688568 0  0.7474734135714893 -0.4347561816802683 0  0.06992021521929673 -0.5174527615399058 0  0.1174544316216429 -0.5168129107902869 0  0.1649939479803425 -0.5145911234484638 0  0.2124639036422762 -0.5108607275637316 0  0.2598169984112342 -0.5059245643808169 0  0.3070328610832123 -0.4999773488727846 0  0.3540917066981454 -0.4932282781443356 0  0.4009782052563098 -0.4859773885287926 0  0.4477024327115016 -0.4784135815260454 0  0.4942706575176338 -0.4707402941734457 0  0.540685709239653 -0.4631061673765635 0  0.5869497661348763 -0.4557340985028803 0  0.6330557170774659 -0.448670889954926 0  0.6789929443021226 -0.4421841358510717 0  0.7247588892437955 -0.436425035579813 0  0.7018825343488015 -0.4392822872315416 0  -0.6997418819932454 -0.4223127628868049 0  -0.6080993517677845 -0.4349219343862344 0  -0.5158939492648069 -0.4493413015110118 0  -0.4232499088307879 -0.4646116156595412 0  -0.3301855526932263 -0.4801338317624415 0  -0.2365329704646995 -0.4939955309384377 0  -0.1426346244870663 -0.5043880690736771 0  -0.04851799968359089 -0.5127614617115217 0  0.6560456816133751 -0.4453440025374141 0  0.1412278303129454 -0.5158992560506905 0  0.236156135668609 -0.5085321684676845 0  0.3305825585849351 -0.4966937220871893 0  0.4243600799410056 -0.482217296540138 0  0.5174970769943974 -0.4669127998707596 0  0.6100229106046803 -0.452137257173197 0  0.04617541751256012 -0.5171934938696955 0  -0.7451738244617453 -0.4177616463390372 0  0.5638314518139008 -0.4593865950839373 0  0.4710057469195406 -0.4745811759800871 0  0.3775531694496178 -0.4896465863847054 0  0.2834434756803216 -0.5030646164672614 0  0.1887431832081163 -0.5128952293042963 0  0.09368244852886658 -0.5173295262331471 0  -0.001236698200461067 -0.5156110393783051 0  -0.09564639328073113 -0.5089073385543402 0  -0.1895508414385983 -0.4996166100589632 0  -0.2834198102952649 -0.4873906107306277 0  -0.3768181456726383 -0.4722657430644185 0  -0.4696208414335676 -0.4569482608335264 0  -0.5620462939709095 -0.4419100676294767 0  -0.6540161563457998 -0.428274821091396 0  0.9290397214165945 -0.2430055164103125 0  0.8174567711918808 -0.4173682716053536 0  0.8769520953471831 -0.3755966834361334 0  0.9160575759310043 -0.3145138877333795 0  0.782554792830676 -0.4261316040219911 0  0.8475725473085576 -0.3969903695037856 0  0.895948088482879 -0.3446488889472092 0  0.9222063135415386 -0.2785927917256975 0  0.765090638457368 -0.4308444245200934 0  0.7999509279035204 -0.4215597303795706 0  0.8325256598053308 -0.4072852795802435 0  0.8619396018941023 -0.3857928595584892 0  0.8867835323459097 -0.3602887006210565 0  0.9058161148270192 -0.3295349813220361 0  0.9189693247953495 -0.2964812810980966 0  0.925429573321719 -0.2607646984160327 0  0.9288793973338849 -0.2197801759818802 0  0.9374125026182544 0.2916571758559748 0  0.9363628114491698 0.245301768741502 0  0.9360408386323621 0.198964722145829 0  0.9361064795909552 0.152554327771717 0  0.9363825887326036 0.1059943268609764 0  0.9361473156823943 0.05930161619557662 0  0.9353987983226012 0.01257107045416659 0  0.9341347807193914 -0.03413719794683395 0  0.93234816097303 -0.08072421498496173 0  0.9307333202777073 -0.1271585935997486 0  0.9294649203001821 -0.1734919696390529 0  0.9383576428704017 0.314969351249654 0  0.9367649347730833 0.2684693473081307 0  0.9360387755956414 0.1757727076393729 0  0.9363306274847347 0.08265671381074596 0  0.9348328282740127 -0.0107900807447871 0  0.931510970187058 -0.1039563451849523 0  0.9290574982591943 -0.1966366532588085 0  0.9361430537523484 0.2221378103779896 0  0.93626594092063 0.1293025749740393 0  0.9358354017899144 0.0359373795993897 0  0.9332663088720774 -0.05745798708363965 0  0.9300445249806726 -0.1503352501208719 0  0.7637580466271738 0.512236999527462 0  0.9276242399519173 0.3870474004787325 0  0.8904337413799661 0.4492295837020517 0  0.8325537230984673 0.4927791907944873 0  0.9326840324272192 0.3507877406106061 0  0.9085085305457241 0.4176770944841725 0  0.8619815985958336 0.4715658950831499 0  0.7983019382207361 0.5027006799946619 0  0.935309754040663 0.3328267943118745 0  0.9300047009689919 0.3688330290426143 0  0.9178767492922507 0.4022970391732942 0  0.899845106674408 0.4336285981597387 0  0.8758754490358055 0.4598402728319416 0  0.8472878931597648 0.4822759286493947 0  0.8153871372316547 0.4975620411260446 0  0.781117139075988 0.5079476516016538 0  -0.01906463758849454 0.6501655771471473 0  0.6962367682949927 0.5234963455287833 0  0.6507576811696545 0.5329340134139364 0  0.6049947209676886 0.5431990647545428 0  0.5589658810295186 0.5541494252257902 0  0.5126242689415752 0.5656767133925937 0  0.4659591958558145 0.5774838544943802 0  0.4189516915878801 0.5893629583543992 0  0.3715816905280951 0.6011393239910869 0  0.3238076687776162 0.6124306570619948 0  0.275652285589591 0.6228483753703116 0  0.2271344975793758 0.6320853764385632 0  0.1782735860614877 0.6399031703418657 0  0.1291254787331826 0.6457061507751228 0  0.07979993814254308 0.649348274539989 0  0.03039027484228789 0.6507771371846024 0  0.7414370847525908 0.5150248379317102 0  -0.06844952355339431 0.6468522183133181 0  -0.1176007185362836 0.6412728725196745 0  -0.1664247779290896 0.6337707087330562 0  -0.2147929869375003 0.6245678393543067 0  -0.2627275261432312 0.6150897234747642 0  -0.3103374141576288 0.6053025078786146 0  -0.3576610817625435 0.5953168564160612 0  -0.4047022425432406 0.5852703965231881 0  -0.451517504117865 0.5754683169835537 0  -0.4981275499918316 0.5658549995194347 0  -0.5445381704533785 0.5565116760251339 0  -0.5907469699791537 0.5475354373160404 0  -0.6367383034665871 0.5390518381709706 0  -0.6824995700379438 0.5312635156215744 0  -0.7280252844457028 0.5242833960964804 0  -0.7505491077919435 0.5221587332256437 0  -0.7052722770205775 0.5277788683656505 0  -0.6137702755409949 0.5432162768447019 0  -0.5213578689943322 0.5611441273319985 0  -0.428136922828863 0.5803573269506679 0  -0.3340332331181589 0.6003305316894975 0  -0.2388054522562 0.6198885506492168 0  -0.1420594695510631 0.6377326674534967 0  -0.04377837690966167 0.6488047350853507 0  0.05510112103726771 0.6503450057829159 0  0.1537280584743836 0.6430633542169724 0  0.2514374583356564 0.6276386600958759 0  0.3477427984627821 0.6068802388878045 0  0.4424998384051472 0.5834320290583721 0  0.5358338709999405 0.5598717602940173 0  0.6279115510237455 0.537982756157347 0  0.7188482019886637 0.5192716227154391 0  -0.6596481508574847 0.5350609727342057 0  -0.5676678409307393 0.5519744444238084 0  -0.4748475962734892 0.5706334701259266 0  -0.381219048303529 0.5902615949312844 0  -0.2865701650572232 0.6102281043842056 0  -0.1906927576852082 0.6292792474995665 0  -0.09306078263141868 0.6443230796285505 0  0.005681806081582471 0.6507741358443127 0  0.1044788513563795 0.6478042577885852 0  0.2027521905298465 0.6362076110745347 0  0.2997766894675624 0.6177678608430026 0  0.3953160286925311 0.5952685498967971 0  0.4893332854219827 0.5715581414022882 0  0.5820144230667386 0.5485725622231324 0  0.6735322521410794 0.5281017256809331 0  -0.9288951703503026 0.328493874138311 0  -0.82003547940115 0.5040972804862089 0  -0.8788555489205605 0.461667393297595 0  -0.917077654467091 0.4001805407476149 0  -0.785417863203274 0.5133106427137389 0  -0.849903226381806 0.4834731345287285 0  -0.8973862012737267 0.4304640299795364 0  -0.9226440314622658 0.3641294747990131 0  -0.7680692158505275 0.5182130355256749 0  -0.8026788583026787 0.5085291785417759 0  -0.8349858005199964 0.4939040520218449 0  -0.864036664816788 0.4720191321558975 0  -0.8885023909447415 0.4462531830002648 0  -0.9070346799130854 0.4152676750838741 0  -0.9197029814662704 0.3820746964839772 0  -0.9255410175836776 0.3462633059984059 0  -0.9282855987167925 0.3052599711853228 0  -0.9259739939796477 -0.204416280772205 0  -0.9260952164935362 -0.1582325989661174 0  -0.9268647217640571 -0.1120390532457917 0  -0.9279695851842916 -0.06577030487849314 0  -0.929266895169696 -0.01935912045914258 0  -0.9299894923164764 0.02717318735421385 0  -0.9301574515659026 0.07372633885528769 0  -0.9297809654029557 0.1202440329586671 0  -0.9288655860772993 0.1666318278602752 0  -0.9281733287324964 0.2128764505401355 0  -0.927868927464936 0.2590577104172723 0  -0.9263414396110337 -0.2276089646205455 0  -0.9259244852992833 -0.1813200485121021 0  -0.9273873888967317 -0.08891713213111274 0  -0.9296998090869126 0.003900383264254161 0  -0.9300387539217484 0.09699343922079263 0  -0.928483752703372 0.1897660237013269 0  -0.9279532213859684 0.2821497645471381 0  -0.9264285210000071 -0.1351419468117376 0  -0.9286441826540602 -0.04259297286463303 0  -0.9301398877190299 0.05045073245921901 0  -0.9293451185546138 0.1434661839502452 0  -0.9279633263314697 0.2359705721500562 0  -0.9137362210299926 -0.2990525497282472 0  -0.8746752619289807 -0.3599461672836578 0  -0.8151597027587455 -0.4013600047700453 0  -0.9197679881193563 -0.2631698338468149 0  -0.8937161956326398 -0.3291455110177107 0  -0.8453503908877003 -0.3812782532383078 0  -0.7802646968357114 -0.409845823027258 0  -0.9228759675774106 -0.245354441480155 0  -0.916605492645556 -0.
[...]
<PointData  Vectors="f_2278"> 
<DataArray  type="Float64"  Name="f_2278"  NumberOfComponents="3" format="ascii">6.3759135983528573e-03 3.8628968571683256e-02 0.0000000000000000e+00  5.3882904660917030e-03 8.9433957069121897e-02 0.0000000000000000e+00  7.3361184396641549e-03 8.9745698052119821e-02 0.0000000000000000e+00  8.2747921993847010e-03 8.6065669706897885e-02 0.0000000000000000e+00  7.7806031869056599e-03 7.6410510680732457e-02 0.0000000000000000e+00  6.6555475113663732e-03 5.5555458015619869e-02 0.0000000000000000e+00  6.6868283082291390e-03 4.7475981291655256e-02 0.0000000000000000e+00  6.0727661344421192e-03 3.9147304362444804e-02 0.0000000000000000e+00  4.0521678974909450e-03 2.4047892508698238e-02 0.0000000000000000e+00  2.8460916664870264e-03 8.5282777406641141e-02 0.0000000000000000e+00  3.2279512455238857e-03 1.9523864897021209e-02 0.0000000000000000e+00  2.0081298384656008e-03 1.2217710747741844e-02 0.0000000000000000e+00  1.0090602927217232e-03 6.2844216475257180e-03 0.0000000000000000e+00  -8.5738858881402613e-04 -5.6650919279205274e-03 0.0000000000000000e+00  -1.9122508959549551e-03 -1.3162898195780865e-02 0.0000000000000000e+00  -1.2111493749938367e-03 -9.0618359419538750e-03 0.0000000000000000e+00  9.5414092389935392e-03 9.0071728130731776e-02 0.0000000000000000e+00  3.4652906141318614e-02 -2.2178398807438615e-01 0.0000000000000000e+00  2.2432906132423584e-04 7.8153511695530031e-02 0.0000000000000000e+00  -2.0807591131432501e-03 6.9215456702464748e-02 0.0000000000000000e+00  -3.7819342948172663e-03 5.9869691271836584e-02 0.0000000000000000e+00  -4.8167802408311533e-03 5.2356673147124569e-02 0.0000000000000000e+00  -5.0175007749057119e-03 4.3396680923845798e-02 0.0000000000000000e+00  -4.7316164506785580e-03 3.5001603244047177e-02 0.0000000000000000e+00  -4.1203580823350981e-03 2.7448057312065344e-02 0.0000000000000000e+00  -3.3959403673808233e-03 2.1397382501433658e-02 0.0000000000000000e+00  -2.4249919435055307e-03 1.4813100506789025e-02 0.0000000000000000e+00  -1.3002143122897707e-03 7.8830576552356285e-03 0.0000000000000000e+00  -2.1975551152418618e-04 1.3640580432942400e-03 0.0000000000000000e+00  1.2041595942394341e-03 -7.6734162772156044e-03 0.0000000000000000e+00  2.0055360729671961e-03 -1.3557138005148106e-02 0.0000000000000000e+00  1.8000507415673694e-03 -1.3344332801627643e-02 0.0000000000000000e+00  -9.0231471487179794e-03 8.2815661975382843e-02 0.0000000000000000e+00  4.7675707818402094e-03 -3.9347593394181965e-02 0.0000000000000000e+00  -4.6891707100765933e-03 -3.8573528967138705e-02 0.0000000000000000e+00  -1.5434418942714999e-03 -1.0363099352113957e-02 0.0000000000000000e+00  1.1486281686881137e-03 7.0226612673267019e-03 0.0000000000000000e+00  3.5429440335779452e-03 2.1691299312760311e-02 0.0000000000000000e+00  5.4764078833238472e-03 3.3996838142206227e-02 0.0000000000000000e+00  6.8069905892405875e-03 5.1514517375225881e-02 0.0000000000000000e+00  8.3500256613107861e-03 8.3146740820321835e-02 0.0000000000000000e+00  6.4663744462101483e-03 9.0038334247606336e-02 0.0000000000000000e+00  2.6616882826980002e-03 -1.8954651461504497e-02 0.0000000000000000e+00  -3.0172318311309106e-03 6.4578131929228511e-02 0.0000000000000000e+00  -4.9983318656867705e-03 4.7959759863854839e-02 0.0000000000000000e+00  -4.4283734058623214e-03 3.0888432016294615e-02 0.0000000000000000e+00  -2.9355982089562973e-03 1.8130463638417808e-02 0.0000000000000000e+00  -6.0957513192276178e-04 3.7019718908547395e-03 0.0000000000000000e+00  1.5235730049214999e-03 -9.9414328875128237e-03 0.0000000000000000e+00  1.5238109295891277e-03 8.2089358330420428e-02 0.0000000000000000e+00  -3.1638139957623268e-02 -2.2403650050375862e-01 0.0000000000000000e+00  3.5468087887963461e-04 -2.2334825310527310e-03 0.0000000000000000e+00  -1.8390668426284198e-03 1.1160606475115530e-02 0.0000000000000000e+00  -3.9340829247031858e-03 2.5439513421533080e-02 0.0000000000000000e+00  -4.9245244870809559e-03 3.9102958290141217e-02 0.0000000000000000e+00  -4.4408948524184231e-03 5.6507120624324177e-02 0.0000000000000000e+00  -9.9269293688320371e-04 7.3821624881404604e-02 0.0000000000000000e+00  4.1418351588704966e-03 8.7569710274936360e-02 0.0000000000000000e+00  7.9551493851873090e-03 8.8508440720519374e-02 0.0000000000000000e+00  7.1019520010427222e-03 6.6846840578793962e-02 0.0000000000000000e+00  6.3929881360023427e-03 4.2986263096990045e-02 0.0000000000000000e+00  6.1247207522821100e-03 3.5778373391123032e-02 0.0000000000000000e+00  2.6409369075551005e-03 1.6007298232662934e-02 0.0000000000000000e+00  7.1354351096166195e-04 4.5795927185426286e-03 0.0000000000000000e+00  -2.5301902924972715e-03 -1.8310946076291700e-02 0.0000000000000000e+00  1.0358981653356235e-02 -2.7428678460937590e-06 0.0000000000000000e+00  5.5011304032030604e-02 -1.1570858317495775e-01 0.0000000000000000e+00  6.1907904781941928e-02 -4.0940069597647566e-02 0.0000000000000000e+00  -9.6940575660288644e-02 4.0208113930584474e-02 0.0000000000000000e+00  2.1654255105367698e-02 -8.2183521902801843e-02 0.0000000000000000e+00  2.1644792958640632e-02 -2.9845693835887793e-02 0.0000000000000000e+00  6.0340593319972657e-02 -3.6760449754019681e-02 0.0000000000000000e+00  3.6771130158434917e-02 -6.6780586255709290e-03 0.0000000000000000e+00  1.6640674932206445e-02 -7.4497538245513542e-02 0.0000000000000000e+00  -2.8746609063439062e-02 9.9435843341102323e-02 0.0000000000000000e+00  6.7072997292486364e-02 -1.0321838187438585e-01 0.0000000000000000e+00  -6.1399016534721899e-02 7.7012347094431138e-02 0.0000000000000000e+00  1.6379019439104799e-02 -1.0334055014663522e-02 0.0000000000000000e+00  -6.8434624034923883e-02 4.1197532912055676e-02 0.0000000000000000e+00  1.6452317344947517e-01 -2.9296318544224608e-02 0.0000000000000000e+00  1.0853818062664148e-02 -2.9325365813446503e-03 0.0000000000000000e+00  8.7527495442530551e-02 -7.0049648545039928e-04 0.0000000000000000e+00  5.4241141372592651e-02 -1.7789385999867622e-03 0.0000000000000000e+00  3.3689404427679717e-02 -4.5324644776536843e-04 0.0000000000000000e+00  2.5691370888975509e-02 -5.8531113140279005e-05 0.0000000000000000e+00  2.1493137087324546e-02 1.0359506752222627e-04 0.0000000000000000e+00  1.8764728603295651e-02 2.7078436777740045e-05 0.0000000000000000e+00  1.8165428813867717e-02 -1.9224753418459905e-04 0.0000000000000000e+00  1.8210575213716041e-02 -3.9073546261876834e-04 0.0000000000000000e+00  1.8949632806965568e-02 -6.3552536653961047e-04 0.0000000000000000e+00  2.2181378418243337e-02 -8.3554797061572729e-04 0.0000000000000000e+00  2.7581160283237764e-02 -8.7091287665171200e-04 0.0000000000000000e+00  3.9809759695734935e-02 -8.4492437507090591e-04 0.0000000000000000e+00  3.6075083490502868e-02 2.2283201898461867e-03 0.0000000000000000e+00  3.8512727151466863e-02 -8.6412942539530204e-04 0.0000000000000000e+00  2.2892703825586339e-02 3.2183212984925351e-05 0.0000000000000000e+00  1.8685485790552604e-02 -9.4895356085238788e-05 0.0000000000000000e+00  1.8797895011357774e-02 -5.0891730992949906e-04 0.0000000000000000e+00  2.4140613505997964e-02 -8.3950894400546656e-04 0.0000000000000000e+00  3.7417816439471924e-02 -4.9655750828425703e-04 0.0000000000000000e+00  2.9156349614250735e-02 -2.0429209255841898e-04 0.0000000000000000e+00  2.0289826745265690e-02 1.1776512122450382e-04 0.0000000000000000e+00  1.8060218988284294e-02 -2.8937642541219542e-04 0.0000000000000000e+00  1.9457364043179878e-02 -7.4487045855711016e-04 0.0000000000000000e+00  3.0671698887629713e-02 -8.3695907291872105e-04 0.0000000000000000e+00  3.4251275482508677e-02 1.7829410986878913e-01 0.0000000000000000e+00  -2.6657265878835920e-02 -1.0203297698405854e-02 0.0000000000000000e+00  4.9414058971405342e-02 3.3816851516622892e-02 0.0000000000000000e+00  4.3269397931624570e-02 8.4341749482517187e-02 0.0000000000000000e+00  4.5305101328354407e-02 6.6915867779286705e-03 0.0000000000000000e+00  5.1077045473066032e-02 2.9081394141399770e-02 0.0000000000000000e+00  2.5087096809154181e-02 3.2067971770162920e-02 0.0000000000000000e+00  2.2114686810349851e-02 7.3620687904253343e-02 0.0000000000000000e+00  3.7066388151096613e-02 6.0110887492404860e-03 0.0000000000000000e+00  9.8179943159481337e-02 1.3867513027761805e-02 0.0000000000000000e+00  -1.0805804004145389e-02 -4.5554757715229504e-03 0.0000000000000000e+00  1.8736209198752955e-02 1.0398829349558998e-02 0.0000000000000000e+00  -2.6673629909192448e-02 -2.9236313259868717e-02 0.0000000000000000e+00  5.3715327732674296e-02 7.6902622624154426e-02 0.0000000000000000e+00  -1.4794028482419916e-02 -4.2248620534546394e-02 0.0000000000000000e+00  1.5815357344471433e-02 6.0907280628294293e-02 0.0000000000000000e+00  2.0275370996943650e-03 -5.0659485911091269e-02 0.0000000000000000e+00  2.1024684916386835e-03 1.0576165605289088e-02 0.0000000000000000e+00  2.6659753345437453e-03 1.2266397228509095e-02 0.0000000000000000e+00  1.3373482553157678e-03 5.8028143513914792e-03 0.0000000000000000e+00  -1.3304008834533372e-04 -5.5034403537708486e-04 0.0000000000000000e+00  -1.0065608208217763e-03 -4.0070014633714892e-03 0.0000000000000000e+00  -1.8124676113651979e-03 -7.1482570509572366e-03 0.0000000000000000e+00  -2.7316245473701243e-03 -1.0888931582198632e-02 0.0000000000000000e+00  -2.7699258567687578e-03 -1.1340717855644548e-02 0.0000000000000000e+00  -3.4282640449769535e-03 -1.5098918038929874e-02 0.0000000000000000e+00  -4.0958304909966296e-03 -2.0055034824161367e-02 0.0000000000000000e+00  -4.6378992541807581e-03 -2.6353858407722978e-02 0.0000000000000000e+00  -4.3871080233800243e-03 -3.1415388388681117e-02 0.0000000000000000e+00  -3.6647740241265688e-03 -3.8101568728407496e-02 0.0000000000000000e+00  -2.2835962276912341e-03 -4.4414383674244731e-02 0.0000000000000000e+00  -4.1223131244176164e-04 -4.8436526630624116e-02 0.0000000000000000e+00  -9.8488925171482875e-03 -6.0820970578072467e-02 0.0000000000000000e+00  4.6207174630314030e-03 -5.0828411558859969e-02 0.0000000000000000e+00  6.7493560891682082e-03 -5.0219217567642603e-02 0.0000000000000000e+00  8.4729133899333394e-03 -4.8863734115914388e-02 0.0000000000000000e+00  9.8067168150301927e-03 -5.0266126716492235e-02 0.0000000000000000e+00  9.3480049989881041e-03 -4.6220085556154138e-02 0.0000000000000000e+00  8.4059514831734058e-03 -4.0311470106711531e-02 0.0000000000000000e+00  7.1440887146721225e-03 -3.3483842082419446e-02 0.0000000000000000e+00  6.2089723364732582e-03 -2.9410487386831476e-02 0.0000000000000000e+00  4.3313774192251008e-03 -2.0808261586168508e-02 0.0000000000000000e+00  2.6285342796878151e-03 -1.2884396623514385e-02 0.0000000000000000e+00  9.7140399167368969e-04 -4.9084467987346864e-03 0.0000000000000000e+00  -6.3808166281516092e-04 3.3532328085139874e-03 0.0000000000000000e+00  -2.0086679179651783e-03 1.1264621162727070e-02 0.0000000000000000e+00  -2.0096917840793289e-03 1.2373956730097189e-02 0.0000000000000000e+00  8.4275200931724237e-03 -6.4376356559494197e-02 0.0000000000000000e+00  -3.1637611838044054e-02 1.8996555844181043e-01 0.0000000000000000e+00  -5.1691773419597553e-03 3.4869405371059571e-02 0.0000000000000000e+00  -1.2780895528449790e-03 6.9335409253996252e-03 0.0000000000000000e+00  1.7912262514954735e-03 -8.8979576838105826e-03 0.0000000000000000e+00  5.1766935389817009e-03 -2.4722425321228900e-02 0.0000000000000000e+00  7.8004144771108832e-03 -3.6967088253294561e-02 0.0000000000000000e+00  9.7632975628818008e-03 -4.9375601316158736e-02 0.0000000000000000e+00  7.5069154439940094e-03 -4.8802115577631054e-02 0.0000000000000000e+00  3.3614972836488294e-03 -5.0237222988233049e-02 0.0000000000000000e+00  -1.3716170971483236e-03 -4.7324078045966229e-02 0.0000000000000000e+00  -4.0861439257693392e-03 -3.4597681658057287e-02 0.0000000000000000e+00  -4.3726695751521456e-03 -2.2978486377971244e-02 0.0000000000000000e+00  -3.0456300829699965e-03 -1.2884413753392672e-02 0.0000000000000000e+00  -2.1350288158863010e-03 -8.4482380329328911e-03 0.0000000000000000e+00  -3.8801785681627228e-04 -1.5598740685401529e-03 0.0000000000000000e+00  2.1776740714418660e-03 9.7159404896460765e-03 0.0000000000000000e+00  6.1555187047259308e-03 3.3818234550696831e-02 0.0000000000000000e+00  -2.7552494403375182e-03 1.6297029431918547e-02 0.0000000000000000e+00  1.3659598182148258e-04 -7.0165754660574369e-04 0.0000000000000000e+00  3.5041657553425204e-03 -1.6990384780848265e-02 0.0000000000000000e+00  6.8490650521395666e-03 -3.2077285160234219e-02 0.0000000000000000e+00  8.9561898638405545e-03 -4.3569205523329421e-02 0.0000000000000000e+00  9.5363354619167080e-03 -5.0087390405506430e-02 0.0000000000000000e+00  5.7287808136868767e-03 -5.0485179729076610e-02 0.0000000000000000e+00  6.1915361853166794e-04 -5.0397192918872034e-02 0.0000000000000000e+00  -3.0485771076098830e-03 -4.1298153204573890e-02 0.0000000000000000e+00  -4.6652700351630695e-03 -2.9148867920911533e-02 0.0000000000000000e+00  -3.7717252655531798e-03 -1.7435181022397224e-02 0.0000000000000000e+00  -3.0223964318470487e-03 -1.2151858655046786e-02 0.0000000000000000e+00  -1.3850043512773373e-03 -5.4738819017635457e-03 0.0000000000000000e+00  8.0463939203806055e-05 3.3120142851755417e-04 0.0000000000000000e+00  3.4155003385187813e-03 1.6569321525111268e-02 0.0000000000000000e+00  -3.0913751139412530e-02 2.1249837226660359e-03 0.0000000000000000e+00  -4.3621895981809336e-02 8.9213226496631784e-02 0.0000000000000000e+00  -5.3945517101738165e-02 3.7537710571724128e-02 0.0000000000000000e+00  4.9778053391109696e-02 -1.9804965533263559e-02 0.0000000000000000e+00  -2.1094707669386047e-02 7.6157908272308603e-02 0.0000000000000000e+00  -2.3062645253006529e-02 3.0720112434221614e-02 0.0000000000000000e+00  -5.4252045781849903e-02 3.2018741600811119e-02 0.0000000000000000e+00  -4.2458093741517947e-02 6.9397280490261495e-03 0.0000000000000000e+00  -1.4776068474133796e-02 6.2767364394890737e-02 0.0000000000000000e+00  1.7352681485395718e-02 -5.4523806167425200e-02 0.0000000000000000e+00  -5.5290353682881176e-02 8.2917803276544230e-02 0.0000000000000000e+00  3.7082166224746860e-02 -4.3692776852993186e-02 0.0000000000000000e+00  -1.3718954281329620e-02 7.9268637907067563e-03 0.0000000000000000e+00  2.9545155576463568e-02 -1.6254547573165919e-02 0.0000000000000000e+00  -1.1737691691256730e-01 1.8519249851294297e-02 0.0000000000000000e+00  -2.8366782664836734e-02 5.3171030103732111e-03 0.0000000000000000e+00  -6.2709536010443268e-02 -1.0234262332013133e-03 0.0000000000000000e+00  -7.8006856182674611e-02 1.9351059143319727e-04 0.0000000000000000e+00  -3.7862532438037860e-02 -4.1054454176238993e-04 0.0000000000000000e+00  -2.6580343813627290e-02 -5.5043135972862242e-04 0.0000000000000000e+00  -2.1260793021926138e-02 -5.7498594355530547e-04 0.0000000000000000e+00  -1.7992000355533017e-02 -4.0842889002294576e-04 0.0000000000000000e+00  -1.7206976280726823e-02 -1.6279423639241225e-04 0.0000000000000000e+00  -1.7089659203889541e-02 3.7360909303282499e-05 0.0000000000000000e+00  -1.7666988764295923e-02 2.6431824481950916e-04 0.0000000000000000e+00  -2.0434514051874002e-02 3.7854556098956675e-04 0.0000000000000000e+00  -2.5188842347231084e-02 2.8293312323929943e-04 0.0000000000000000e+00  -3.4658167067111445e-02 6.1492120315200304e-06 0.0000000000000000e+00  -2.0398064128015328e-02 -1.0564765394316751e-03 0.0000000000000000e+00  -3.7823671587710071e-02 -1.1822095814106486e-04 0.0000000000000000e+00  -2.3191586438112026e-02 -5.5394727127538622e-04 0.0000000000000000e+00  -1.7855002868741858e-02 -2.7723023592371595e-04 0.0000000000000000e+00  -1.7603246293131765e-02 1.4193378701906129e-04 0.0000000000000000e+00  -2.2093359963877568e-02 3.3066183512610911e-04 0.0000000000000000e+00  -3.7559946283297639e-02 -3.2600453507532288e-04 0.0000000000000000e+00  -2.9915008381251947e-02 -4.9607778642331822e-04 0.0000000000000000e+00  -1.8796869907307778e-02 -5.2368958553076096e-04 0.0000000000000000e+00  -1.7016336296710215e-02 -6.1458536071897125e-05 0.0000000000000000e+00  -1.8833424369210334e-02 3.6941506885446228e-04 0.0000000000000000e+00  -2.8649095021688022e-02 1.8685802168910326e-04 0.0000000000000000e+00  7.0544632447164968e-02 2.9185858287780378e-02 0.0000000000000000e+00  -5.5130222741814998e-02 -3.6911962567486627e-02 0.0000000000000000e+00  -5.0410209283760998e-02 -1.0847429440052711e-01 0.0000000000000000e+00  -3.9072077110313068e-02 -6.8967340251879471e-03 0.0000000000000000e+00  -5.7182241575294758e-02 -3.4948267612973809e-02 0.0000000000000000e+00  -2.1259677580753422e-02 -2.9462902178607385e-02 0.0000000000000000e+00  -2.0733327465534281e-02 -8.2839931232112779e-02 0.0000000000000000e+00  -1.9152863287800949e-02 -4.1697238372815091e-03 0.0000000000000000e+00  -1.4295198673714343e-01 -2.4854480554014406e-02 0.0000000000000000e+00  4.9331994912906213e-02 2.9134794638136521e-02 0.0000000000000000e+00  -1.3294927579052224e-02 -8.0948688933660789e-03 0.0000000000000000e+00  5.1248469817384970e-02 6.3611706589841430e-02 0.0000000000000000e+00  -6.1410338564976442e-02 -9.5908170175080965e-02 0.0000000000000000e+00  2.0988359553147536e-02 7.3100265649622700e-02 0.0000000000000000e+00  -1.4045049952593805e-02 -6.8365934346035273e-02 0.0000000000000000e+00  5.9554561822187502e-09 -2.9067147677977862e-08 0.0000000000000000e+00  -3.5254646163167387e-09 2.8481979236722035e-08 0.0000000000000000e+00  5.3613531976233754e-09 6.0659054538239329e-08 0.0000000000000000e+00  1.7812662530057821e-09 1.0801661551692757e-08 0.0000000000000000e+00  -9.9925519448798360e-10 -3.9546389797629978e-09 0.0000000000000000e+00  -1.9878636980630930e-09 -2.7771158145640663e-08 0.0000000000000000e+00  1.8002326469442321e-08 -4.6424127625426822e-10 0.0000000000000000e+00  -1.7111321950376059e-08 9.1857851458956484e-11 0.0000000000000000e+00  -1.8354824901816442e-08 -2.8210643686137663e-10 0.0000000000000000e+00  1.7593487973776304e-08 -1.4235717370298973e-10 0.0000000000000000e+00  2.3834630110745299e-09 1.1460837506070790e-08 0.0000000000000000e+00  9.7021131319063017e-16 3.0150693664330704e-15 0.0000000000000000e+00  -2.6989750609696182e-15 -1.1027215108988590e-14 0.0000000000000000e+00  2.6816815472750473e-20 4.5271070506402905e-21 0.0000000000000000e+00  -9.5495958655187492e-21 1.6459075040318680e-20 0.0000000000000000e+00  2.5926297408611149e-14 -4.2986871777907922e-16 0.0000000000000000e+00  -4.1011278810221579e-15 -2.6931914428787053e-14 0.0000000000000000e+00  -4.1460930826853506e-21 2.0745541606573746e-20 0.0000000000000000e+00  7.3380726132147996e-16 -4.1827209064646578e-14 0.0000000000000000e+00  1.7383508139089045e-20 2.7993421172188483e-20 0.0000000000000000e+00  6.8987970019165649e-15 -3.8014378586661960e-14 0.0000000000000000e+00  8.3177192178174028e-17 5.6996916024248896e-16 0.0000000000000000e+00  1.7384101846524578e-20 -2.4213804242787987e-20 0.0000000000000000e+00  -1.5971472649761581e-09 -1.1317280722618135e-08 0.0000000000000000e+00  -3.0730017746954603e-16 -1.8134143143497032e-16 0.0000000000000000e+00  -2.5479023293893962e-14 -1.1202283161984215e-16 0.0000000000000000e+00  -2.4105682089380391e-16 -9.0969359418789601e-17 0.0000000000000000e+00  1.7295966254644643e-09 -1.2095451663305760e-08 0.0000000000000000e+00  3.9274123150723401e-09 -3.5011832020301999e-08 0.0000000000000000e+00  -1.8516259484289298e-09 1.0846942729011631e-08 0.0000000000000000e+00  2.2750837899509185e-09 -1.1006572726772852e-08 0.0000000000000000e+00  -2.9345782723135600e-09 -1.3756119780942451e-08 0.0000000000000000e+00  -3.3459383866884499e-15 2.2078064396029080e-14 0.0000000000000000e+00  -6.4094868563875402e-10 5.1649627502694929e-08 0.0000000000000000e+00  4.5851262454896876e-09 3.1223912952718466e-08 0.0000000000000000e+00  6.7940300369984058e-16 -2.3652348913041605e-15 0.0000000000000000e+00  5.4471530715533212e-15 3.2712436663588724e-14 0.0000000000000000e+00  -2.3884563794246921e-20 -7.2052135549627228e-22 0.0000000000000000e+00  -1.3423120075458645e-09 8.1905126732090664e-09 0.0000000000000000e+00  -3.2746159476376321e-08 4.6750243289530161e-08 0.0000000000000000e+00  -3.