<?xml version="1.0"?>
<VTKFile type="UnstructuredGrid"  version="0.1"  >
<UnstructuredGrid>
<Piece  NumberOfPoints="4153" NumberOfCells="8064">
<Points>
<DataArray  type="Float64"  NumberOfComponents="3"  format="ascii">-0.4000267510135876 -0.4683509249414478 0  -0.02489553171903797 -0.5143312028561868 0  -0.07210143565567786 -0.510939335880482 0  -0.1191556791796909 -0.5067080387807095 0  -0.1660928280177858 -0.5019919213546844 0  -0.213053585759912 -0.4969941059317694 0  -0.2599910187702784 -0.49079290266626 0  -0.3068186207182523 -0.4838299294899939 0  -0.3535212760842228 -0.4763146075442318 0  0.02245480734975059 -0.5165714726412085 0  -0.4464458735737278 -0.4607709315166021 0  -0.4927708810513136 -0.4531280976152341 0  -0.5389905030085207 -0.4455719137930071 0  -0.5850853189929591 -0.4383901741327975 0  -0.6310779260035346 -0.4315354774510226 0  -0.6769125101757593 -0.4251494728586384 0  -0.7225731612091773 -0.419366857688568 0  0.7474734135714893 -0.4347561816802683 0  0.06992021521929673 -0.5174527615399058 0  0.1174544316216429 -0.5168129107902869 0  0.1649939479803425 -0.5145911234484638 0  0.2124639036422762 -0.5108607275637316 0  0.2598169984112342 -0.5059245643808169 0  0.3070328610832123 -0.4999773488727846 0  0.3540917066981454 -0.4932282781443356 0  0.4009782052563098 -0.4859773885287926 0  0.4477024327115016 -0.4784135815260454 0  0.4942706575176338 -0.4707402941734457 0  0.540685709239653 -0.4631061673765635 0  0.5869497661348763 -0.4557340985028803 0  0.6330557170774659 -0.448670889954926 0  0.6789929443021226 -0.4421841358510717 0  0.7247588892437955 -0.436425035579813 0  0.7018825343488015 -0.4392822872315416 0  -0.6997418819932454 -0.4223127628868049 0  -0.6080993517677845 -0.4349219343862344 0  -0.5158939492648069 -0.4493413015110118 0  -0.4232499088307879 -0.4646116156595412 0  -0.3301855526932263 -0.4801338317624415 0  -0.2365329704646995 -0.4939955309384377 0  -0.1426346244870663 -0.5043880690736771 0  -0.04851799968359089 -0.5127614617115217 0  0.6560456816133751 -0.4453440025374141 0  0.1412278303129454 -0.5158992560506905 0  0.236156135668609 -0.5085321684676845 0  0.3305825585849351 -0.4966937220871893 0  0.4243600799410056 -0.482217296540138 0  0.5174970769943974 -0.4669127998707596 0  0.6100229106046803 -0.452137257173197 0  0.04617541751256012 -0.5171934938696955 0  -0.7451738244617453 -0.4177616463390372 0  0.5638314518139008 -0.4593865950839373 0  0.4710057469195406 -0.4745811759800871 0  0.3775531694496178 -0.4896465863847054 0  0.2834434756803216 -0.5030646164672614 0  0.1887431832081163 -0.5128952293042963 0  0.09368244852886658 -0.5173295262331471 0  -0.001236698200461067 -0.5156110393783051 0  -0.09564639328073113 -0.5089073385543402 0  -0.1895508414385983 -0.4996166100589632 0  -0.2834198102952649 -0.4873906107306277 0  -0.3768181456726383 -0.4722657430644185 0  -0.4696208414335676 -0.4569482608335264 0  -0.5620462939709095 -0.4419100676294767 0  -0.6540161563457998 -0.428274821091396 0  0.9290397214165945 -0.2430055164103125 0  0.8174567711918808 -0.4173682716053536 0  0.8769520953471831 -0.3755966834361334 0  0.9160575759310043 -0.3145138877333795 0  0.782554792830676 -0.4261316040219911 0  0.8475725473085576 -0.3969903695037856 0  0.895948088482879 -0.3446488889472092 0  0.9222063135415386 -0.2785927917256975 0  0.765090638457368 -0.4308444245200934 0  0.7999509279035204 -0.4215597303795706 0  0.8325256598053308 -0.4072852795802435 0  0.8619396018941023 -0.3857928595584892 0  0.8867835323459097 -0.3602887006210565 0  0.9058161148270192 -0.3295349813220361 0  0.9189693247953495 -0.2964812810980966 0  0.925429573321719 -0.2607646984160327 0  0.9288793973338849 -0.2197801759818802 0  0.9374125026182544 0.2916571758559748 0  0.9363628114491698 0.245301768741502 0  0.9360408386323621 0.198964722145829 0  0.9361064795909552 0.152554327771717 0  0.9363825887326036 0.1059943268609764 0  0.9361473156823943 0.05930161619557662 0  0.9353987983226012 0.01257107045416659 0  0.9341347807193914 -0.03413719794683395 0  0.93234816097303 -0.08072421498496173 0  0.9307333202777073 -0.1271585935997486 0  0.9294649203001821 -0.1734919696390529 0  0.9383576428704017 0.314969351249654 0  0.9367649347730833 0.2684693473081307 0  0.9360387755956414 0.1757727076393729 0  0.9363306274847347 0.08265671381074596 0  0.9348328282740127 -0.0107900807447871 0  0.931510970187058 -0.1039563451849523 0  0.9290574982591943 -0.1966366532588085 0  0.9361430537523484 0.2221378103779896 0  0.93626594092063 0.1293025749740393 0  0.9358354017899144 0.0359373795993897 0  0.9332663088720774 -0.05745798708363965 0  0.9300445249806726 -0.1503352501208719 0  0.7637580466271738 0.512236999527462 0  0.9276242399519173 0.3870474004787325 0  0.8904337413799661 0.4492295837020517 0  0.8325537230984673 0.4927791907944873 0  0.9326840324272192 0.3507877406106061 0  0.9085085305457241 0.4176770944841725 0  0.8619815985958336 0.4715658950831499 0  0.7983019382207361 0.5027006799946619 0  0.935309754040663 0.3328267943118745 0  0.9300047009689919 0.3688330290426143 0  0.9178767492922507 0.4022970391732942 0  0.899845106674408 0.4336285981597387 0  0.8758754490358055 0.4598402728319416 0  0.8472878931597648 0.4822759286493947 0  0.8153871372316547 0.4975620411260446 0  0.781117139075988 0.5079476516016538 0  -0.01906463758849454 0.6501655771471473 0  0.6962367682949927 0.5234963455287833 0  0.6507576811696545 0.5329340134139364 0  0.6049947209676886 0.5431990647545428 0  0.5589658810295186 0.5541494252257902 0  0.5126242689415752 0.5656767133925937 0  0.4659591958558145 0.5774838544943802 0  0.4189516915878801 0.5893629583543992 0  0.3715816905280951 0.6011393239910869 0  0.3238076687776162 0.6124306570619948 0  0.275652285589591 0.6228483753703116 0  0.2271344975793758 0.6320853764385632 0  0.1782735860614877 0.6399031703418657 0  0.1291254787331826 0.6457061507751228 0  0.07979993814254308 0.649348274539989 0  0.03039027484228789 0.6507771371846024 0  0.7414370847525908 0.5150248379317102 0  -0.06844952355339431 0.6468522183133181 0  -0.1176007185362836 0.6412728725196745 0  -0.1664247779290896 0.6337707087330562 0  -0.2147929869375003 0.6245678393543067 0  -0.2627275261432312 0.6150897234747642 0  -0.3103374141576288 0.6053025078786146 0  -0.3576610817625435 0.5953168564160612 0  -0.4047022425432406 0.5852703965231881 0  -0.451517504117865 0.5754683169835537 0  -0.4981275499918316 0.5658549995194347 0  -0.5445381704533785 0.5565116760251339 0  -0.5907469699791537 0.5475354373160404 0  -0.6367383034665871 0.5390518381709706 0  -0.6824995700379438 0.5312635156215744 0  -0.7280252844457028 0.5242833960964804 0  -0.7505491077919435 0.5221587332256437 0  -0.7052722770205775 0.5277788683656505 0  -0.6137702755409949 0.5432162768447019 0  -0.5213578689943322 0.5611441273319985 0  -0.428136922828863 0.5803573269506679 0  -0.3340332331181589 0.6003305316894975 0  -0.2388054522562 0.6198885506492168 0  -0.1420594695510631 0.6377326674534967 0  -0.04377837690966167 0.6488047350853507 0  0.05510112103726771 0.6503450057829159 0  0.1537280584743836 0.6430633542169724 0  0.2514374583356564 0.6276386600958759 0  0.3477427984627821 0.6068802388878045 0  0.4424998384051472 0.5834320290583721 0  0.5358338709999405 0.5598717602940173 0  0.6279115510237455 0.537982756157347 0  0.7188482019886637 0.5192716227154391 0  -0.6596481508574847 0.5350609727342057 0  -0.5676678409307393 0.5519744444238084 0  -0.4748475962734892 0.5706334701259266 0  -0.381219048303529 0.5902615949312844 0  -0.2865701650572232 0.6102281043842056 0  -0.1906927576852082 0.6292792474995665 0  -0.09306078263141868 0.6443230796285505 0  0.005681806081582471 0.6507741358443127 0  0.1044788513563795 0.6478042577885852 0  0.2027521905298465 0.6362076110745347 0  0.2997766894675624 0.6177678608430026 0  0.3953160286925311 0.5952685498967971 0  0.4893332854219827 0.5715581414022882 0  0.5820144230667386 0.5485725622231324 0  0.6735322521410794 0.5281017256809331 0  -0.9288951703503026 0.328493874138311 0  -0.82003547940115 0.5040972804862089 0  -0.8788555489205605 0.461667393297595 0  -0.917077654467091 0.4001805407476149 0  -0.785417863203274 0.5133106427137389 0  -0.849903226381806 0.4834731345287285 0  -0.8973862012737267 0.4304640299795364 0  -0.9226440314622658 0.3641294747990131 0  -0.7680692158505275 0.5182130355256749 0  -0.8026788583026787 0.5085291785417759 0  -0.8349858005199964 0.4939040520218449 0  -0.864036664816788 0.4720191321558975 0  -0.8885023909447415 0.4462531830002648 0  -0.9070346799130854 0.4152676750838741 0  -0.9197029814662704 0.3820746964839772 0  -0.9255410175836776 0.3462633059984059 0  -0.9282855987167925 0.3052599711853228 0  -0.9259739939796477 -0.204416280772205 0  -0.9260952164935362 -0.1582325989661174 0  -0.9268647217640571 -0.1120390532457917 0  -0.9279695851842916 -0.06577030487849314 0  -0.929266895169696 -0.01935912045914258 0  -0.9299894923164764 0.02717318735421385 0  -0.9301574515659026 0.07372633885528769 0  -0.9297809654029557 0.1202440329586671 0  -0.9288655860772993 0.1666318278602752 0  -0.9281733287324964 0.2128764505401355 0  -0.927868927464936 0.2590577104172723 0  -0.9263414396110337 -0.2276089646205455 0  -0.9259244852992833 -0.1813200485121021 0  -0.9273873888967317 -0.08891713213111274 0  -0.9296998090869126 0.003900383264254161 0  -0.9300387539217484 0.09699343922079263 0  -0.928483752703372 0.1897660237013269 0  -0.9279532213859684 0.2821497645471381 0  -0.9264285210000071 -0.1351419468117376 0  -0.9286441826540602 -0.04259297286463303 0  -0.9301398877190299 0.05045073245921901 0  -0.9293451185546138 0.1434661839502452 0  -0.9279633263314697 0.2359705721500562 0  -0.9137362210299926 -0.2990525497282472 0  -0.8746752619289807 -0.3599461672836578 0  -0.8151597027587455 -0.4013600047700453 0  -0.9197679881193563 -0.2631698338468149 0  -0.8937161956326398 -0.3291455110177107 0  -0.8453503908877003 -0.3812782532383078 0  -0.7802646968357114 -0.409845823027258 0  -0.9228759675774106 -0.245354441480155 0  -0.916605492645556 -0.
[...]
<PointData  Vectors="f_2251"> 
<DataArray  type="Float64"  Name="f_2251"  NumberOfComponents="3" format="ascii">6.5513719031367506e-03 5.1584953021891991e-02 0.0000000000000000e+00  6.8615956894252979e-03 1.1466068171204349e-01 0.0000000000000000e+00  9.2826454508946436e-03 1.1509597143259034e-01 0.0000000000000000e+00  1.0203920526380117e-02 1.1028905700894770e-01 0.0000000000000000e+00  9.0015044888495134e-03 9.7931826549048057e-02 0.0000000000000000e+00  8.4374637363867563e-03 6.7848068633936609e-02 0.0000000000000000e+00  7.8769551192105335e-03 5.7950032051791125e-02 0.0000000000000000e+00  6.8755701592734487e-03 4.7267206409324698e-02 0.0000000000000000e+00  4.1431116384407149e-03 2.6850480534658740e-02 0.0000000000000000e+00  3.4930802004751638e-03 1.0905380387939383e-01 0.0000000000000000e+00  3.0094031396278548e-03 2.4125181960018342e-02 0.0000000000000000e+00  1.3264128951298939e-03 1.5574379967498189e-02 0.0000000000000000e+00  -3.7729198350534658e-04 8.8207267088431414e-03 0.0000000000000000e+00  -2.4308233905804433e-03 -6.1119212639718758e-03 0.0000000000000000e+00  -3.9468203862272483e-03 -1.5332133770536119e-02 0.0000000000000000e+00  -1.5479902513029417e-03 -5.5219549009851683e-03 0.0000000000000000e+00  1.2218621442411082e-02 1.3387540403241391e-01 0.0000000000000000e+00  2.9877433344535000e-02 -2.8988598521536096e-01 0.0000000000000000e+00  1.2633002612497045e-05 9.9447976425366763e-02 0.0000000000000000e+00  -3.0565678002178343e-03 8.7447377563732873e-02 0.0000000000000000e+00  -5.2455488695288171e-03 7.4970953899395870e-02 0.0000000000000000e+00  -6.2862446565381926e-03 6.5318083978089719e-02 0.0000000000000000e+00  -6.3361116404676921e-03 5.3645380458052346e-02 0.0000000000000000e+00  -5.7436423051768935e-03 4.2858604174047833e-02 0.0000000000000000e+00  -4.6737547330806643e-03 3.3324315428985417e-02 0.0000000000000000e+00  -3.5673674540186075e-03 2.6095174042945510e-02 0.0000000000000000e+00  -2.1545500544780639e-03 1.8140669386607366e-02 0.0000000000000000e+00  -6.0473168617714815e-04 9.6805516171517107e-03 0.0000000000000000e+00  1.0181016183544262e-03 1.9558178732547505e-03 0.0000000000000000e+00  2.8749053035422825e-03 -9.5459347252916833e-03 0.0000000000000000e+00  4.1050830077646507e-03 -1.5669326022059799e-02 0.0000000000000000e+00  2.5837043808165281e-03 -1.1968276032742543e-02 0.0000000000000000e+00  -1.6015152222924704e-02 1.2433453141992444e-01 0.0000000000000000e+00  9.8232103046341501e-03 -4.6109547926929957e-02 0.0000000000000000e+00  -9.6992668278946727e-03 -4.4786279710102114e-02 0.0000000000000000e+00  -3.5031207791373820e-03 -1.2746373353802168e-02 0.0000000000000000e+00  9.5914155397210443e-05 9.0062661264896180e-03 0.0000000000000000e+00  3.3563104517801341e-03 2.7730911906402613e-02 0.0000000000000000e+00  6.1561282266571577e-03 4.0917249871657450e-02 0.0000000000000000e+00  8.4443123118952933e-03 6.2959790437312327e-02 0.0000000000000000e+00  1.0210851443465049e-02 1.0619746208297116e-01 0.0000000000000000e+00  8.2342985922556379e-03 1.1547991908169897e-01 0.0000000000000000e+00  5.5206448716217339e-03 -2.2709474005870971e-02 0.0000000000000000e+00  -4.2696081054574529e-03 8.1271627751613437e-02 0.0000000000000000e+00  -6.4004175546153435e-03 5.9595130470617576e-02 0.0000000000000000e+00  -5.2228428871522658e-03 3.7515929838705685e-02 0.0000000000000000e+00  -2.8872780162978069e-03 2.2092134884781012e-02 0.0000000000000000e+00  4.1025119605075255e-04 4.3611648323973974e-03 0.0000000000000000e+00  3.5287287108827850e-03 -1.1938615584159176e-02 0.0000000000000000e+00  1.7523263951929569e-03 1.0474233134687432e-01 0.0000000000000000e+00  -2.6588868304818269e-02 -2.8926302125052028e-01 0.0000000000000000e+00  1.6535514124458508e-03 -2.2539675804050330e-03 0.0000000000000000e+00  -1.3383809451642864e-03 1.3599116767493872e-02 0.0000000000000000e+00  -4.2826863241506195e-03 3.1138235178423103e-02 0.0000000000000000e+00  -6.1011258199282752e-03 4.8069641298963114e-02 0.0000000000000000e+00  -5.9861298298271260e-03 7.0448400405726586e-02 0.0000000000000000e+00  -1.6138332142943243e-03 9.3621803166317283e-02 0.0000000000000000e+00  5.2185215537853677e-03 1.1242111899957562e-01 0.0000000000000000e+00  9.9770085841489210e-03 1.1345026776705248e-01 0.0000000000000000e+00  8.1344247136420061e-03 8.4626659527310633e-02 0.0000000000000000e+00  7.4480260108530988e-03 5.2244328390414645e-02 0.0000000000000000e+00  6.3025212816134020e-03 4.4443308300711706e-02 0.0000000000000000e+00  2.1031150637678716e-03 2.0161548497502114e-02 0.0000000000000000e+00  -6.9591030508273555e-04 7.6967049260041479e-03 0.0000000000000000e+00  -5.4197655089959018e-03 -2.2006798161982744e-02 0.0000000000000000e+00  1.0267759983129291e-02 8.7149442604928580e-04 0.0000000000000000e+00  2.1731826725984234e-02 -1.6400741251230933e-01 0.0000000000000000e+00  4.8636142427281689e-02 -3.7964323528785530e-02 0.0000000000000000e+00  -1.6611462274063327e-01 1.3538721995472205e-02 0.0000000000000000e+00  3.3162873597150297e-02 -1.0744305605044692e-01 0.0000000000000000e+00  2.8614427002917442e-02 -4.1328413021658031e-02 0.0000000000000000e+00  7.2364849892138761e-02 -2.8663000195158321e-02 0.0000000000000000e+00  4.9492158163983065e-02 -4.6660401026449323e-03 0.0000000000000000e+00  1.6358021450081573e-02 -1.2034234146117083e-01 0.0000000000000000e+00  -6.6692829242038065e-02 1.5234668430083839e-01 0.0000000000000000e+00  8.7906286509496931e-02 -1.4821601976147769e-01 0.0000000000000000e+00  -1.1752942764773290e-01 1.2814542966455469e-01 0.0000000000000000e+00  3.8053206592839742e-02 -3.3994606889863714e-02 0.0000000000000000e+00  -1.3011893111627038e-01 5.5686666467436335e-02 0.0000000000000000e+00  2.2357749190761506e-01 -2.5248419779230136e-02 0.0000000000000000e+00  8.5090277344825635e-04 -4.3037740217118873e-03 0.0000000000000000e+00  1.2021677278387874e-01 -7.2522953378459994e-04 0.0000000000000000e+00  7.0237665985109693e-02 -7.2096251476124916e-03 0.0000000000000000e+00  4.3615414498321646e-02 -1.1148171625492643e-04 0.0000000000000000e+00  3.3088272245395532e-02 3.8097483338375070e-04 0.0000000000000000e+00  2.7642439606033981e-02 4.5042494985317723e-04 0.0000000000000000e+00  2.4166878948464306e-02 1.1483020015150180e-04 0.0000000000000000e+00  2.3327116028332911e-02 -2.3907498414488232e-04 0.0000000000000000e+00  2.3378116498591194e-02 -5.1350974014922326e-04 0.0000000000000000e+00  2.4201599026211440e-02 -8.6448437772250442e-04 0.0000000000000000e+00  2.8551940693680410e-02 -1.2554722267985215e-03 0.0000000000000000e+00  3.5902993559990895e-02 -1.4181560376142820e-03 0.0000000000000000e+00  5.2642940254521847e-02 -1.3962120134039626e-03 0.0000000000000000e+00  4.3380596506577988e-02 -1.4483265082410137e-03 0.0000000000000000e+00  5.0251516458134193e-02 1.1088931995778546e-04 0.0000000000000000e+00  2.9464060707059217e-02 4.0800767100055509e-04 0.0000000000000000e+00  2.3939235538105692e-02 -1.2841945301657849e-04 0.0000000000000000e+00  2.4128276038954816e-02 -6.5873651967715920e-04 0.0000000000000000e+00  3.1359731371727165e-02 -1.3216015774031760e-03 0.0000000000000000e+00  5.0614847431807296e-02 -1.2130118290312071e-03 0.0000000000000000e+00  3.7650726234758139e-02 3.7521715142798073e-04 0.0000000000000000e+00  2.6065533215819777e-02 4.1931193943953312e-04 0.0000000000000000e+00  2.3185164137788036e-02 -3.7375198175856514e-04 0.0000000000000000e+00  2.4605473627488821e-02 -1.1068008198836287e-03 0.0000000000000000e+00  4.0222219144775237e-02 -1.4704641030252185e-03 0.0000000000000000e+00  3.2140175038918251e-02 2.2974111389782326e-01 0.0000000000000000e+00  -5.6516788175676930e-02 3.1090981035434453e-03 0.0000000000000000e+00  3.7197925478756326e-02 3.1142916755558955e-02 0.0000000000000000e+00  1.6710295167354179e-02 1.1996324375347682e-01 0.0000000000000000e+00  5.9312489803007656e-02 7.5399306228585653e-03 0.0000000000000000e+00  6.1916952949567061e-02 2.7742645638631127e-02 0.0000000000000000e+00  3.2741654939447466e-02 4.2789030850542836e-02 0.0000000000000000e+00  3.1306152428852471e-02 9.6900867512406078e-02 0.0000000000000000e+00  4.3541529045839716e-02 9.6636134023363723e-03 0.0000000000000000e+00  1.2967696247932858e-01 3.9804985081309712e-03 0.0000000000000000e+00  -3.9773860400560815e-02 -6.5522983660680804e-04 0.0000000000000000e+00  3.3467067726248738e-02 2.3247937273201270e-02 0.0000000000000000e+00  -6.1555780203527269e-02 -5.3376878059228451e-02 0.0000000000000000e+00  6.7474920728935128e-02 1.0831269994429099e-01 0.0000000000000000e+00  -4.2826262453480451e-02 -6.8817651938968119e-02 0.0000000000000000e+00  1.3928832134957384e-02 9.4881140774304276e-02 0.0000000000000000e+00  2.6972493305176723e-03 -6.4929047870874251e-02 0.0000000000000000e+00  3.4142942885067489e-03 7.8648594804886576e-03 0.0000000000000000e+00  5.2367752066262378e-03 1.3479807326066164e-02 0.0000000000000000e+00  3.3313349605858644e-03 5.6489454349357262e-03 0.0000000000000000e+00  1.4616686791149680e-03 -1.7838396848879022e-03 0.0000000000000000e+00  4.6222324805199966e-06 -5.4350838416985063e-03 0.0000000000000000e+00  -1.1883929998358317e-03 -8.7809350104551698e-03 0.0000000000000000e+00  -2.5002548639364510e-03 -1.3241462311854418e-02 0.0000000000000000e+00  -2.7997583061201846e-03 -1.2765105856412657e-02 0.0000000000000000e+00  -3.9565785153422824e-03 -1.7382887262926690e-02 0.0000000000000000e+00  -5.0953672177932383e-03 -2.3838810856426161e-02 0.0000000000000000e+00  -6.0035842148657243e-03 -3.2374933512289740e-02 0.0000000000000000e+00  -6.0532862760122241e-03 -3.9089498245132692e-02 0.0000000000000000e+00  -5.1441564698334209e-03 -4.8173025052445355e-02 0.0000000000000000e+00  -3.2712096519128364e-03 -5.6714496975488971e-02 0.0000000000000000e+00  -6.3606930644440312e-04 -6.2192881030020575e-02 0.0000000000000000e+00  -1.1483839276875988e-02 -9.2875147192585286e-02 0.0000000000000000e+00  6.1143718597019359e-03 -6.4887885800712683e-02 0.0000000000000000e+00  8.9071105643343459e-03 -6.3690687621484124e-02 0.0000000000000000e+00  1.0985995087472817e-02 -6.1396735701123584e-02 0.0000000000000000e+00  1.1967860373352655e-02 -6.4172086552814034e-02 0.0000000000000000e+00  1.1273868918968545e-02 -5.8691621262797075e-02 0.0000000000000000e+00  9.8637634827678077e-03 -5.1100322635262367e-02 0.0000000000000000e+00  8.1020755530776031e-03 -4.2262314946717547e-02 0.0000000000000000e+00  6.6891267335661992e-03 -3.8108621816906239e-02 0.0000000000000000e+00  4.3334232403878731e-03 -2.6761750066621504e-02 0.0000000000000000e+00  2.0810576159053964e-03 -1.6789562503182531e-02 0.0000000000000000e+00  -1.3642780192693577e-04 -6.8347427017123640e-03 0.0000000000000000e+00  -2.3701858875242628e-03 3.4489818734366176e-03 0.0000000000000000e+00  -4.2911702928800323e-03 1.2623062240855899e-02 0.0000000000000000e+00  -3.1553535848277310e-03 1.0865280324614099e-02 0.0000000000000000e+00  1.0895343304917034e-02 -9.7568453613296718e-02 0.0000000000000000e+00  -2.7739684666250337e-02 2.4630188119556282e-01 0.0000000000000000e+00  -1.0146460098747725e-02 4.0687259558607608e-02 0.0000000000000000e+00  -3.3711384118131553e-03 7.7173797221314362e-03 0.0000000000000000e+00  9.5576451832526932e-04 -1.1776170285806551e-02 0.0000000000000000e+00  5.4230828353219887e-03 -3.1843563079019553e-02 0.0000000000000000e+00  9.0271872190586383e-03 -4.6872744104957537e-02 0.0000000000000000e+00  1.1689155763753676e-02 -6.2919301850864071e-02 0.0000000000000000e+00  9.7805325439748580e-03 -6.1859557925470959e-02 0.0000000000000000e+00  4.5445757589901792e-03 -6.4368951158003951e-02 0.0000000000000000e+00  -1.8918966328758996e-03 -6.0566084451209035e-02 0.0000000000000000e+00  -5.6812513423307037e-03 -4.3482577667079747e-02 0.0000000000000000e+00  -5.5342856864779291e-03 -2.7810120314128599e-02 0.0000000000000000e+00  -3.3334132327446928e-03 -1.4571283521542168e-02 0.0000000000000000e+00  -1.6912947174055942e-03 -1.0199726556007560e-02 0.0000000000000000e+00  9.0359302850076333e-04 -2.5764424363839606e-03 0.0000000000000000e+00  4.5885488221576011e-03 1.0936975300046670e-02 0.0000000000000000e+00  1.1470359157211969e-02 3.8752788690306690e-02 0.0000000000000000e+00  -5.7900868193110772e-03 1.9218830152353795e-02 0.0000000000000000e+00  -1.2579766490356350e-03 -1.5481319494757605e-03 0.0000000000000000e+00  3.2270203289511386e-03 -2.1986857419769284e-02 0.0000000000000000e+00  7.5653561479568383e-03 -4.0966730635970346e-02 0.0000000000000000e+00  1.0601846940158607e-02 -5.5322227572347608e-02 0.0000000000000000e+00  1.2458883363623103e-02 -6.3004672497215669e-02 0.0000000000000000e+00  7.5961840289474059e-03 -6.4285299612874519e-02 0.0000000000000000e+00  4.0767095988495733e-04 -6.4716204540045452e-02 0.0000000000000000e+00  -4.2797274706916945e-03 -5.2514340575609865e-02 0.0000000000000000e+00  -6.3507447422671498e-03 -3.6043257226411246e-02 0.0000000000000000e+00  -4.5179934398210803e-03 -2.0389962520469696e-02 0.0000000000000000e+00  -2.9278135626558659e-03 -1.4395868588776766e-02 0.0000000000000000e+00  -5.4649116289336088e-04 -6.9497331109996136e-03 0.0000000000000000e+00  1.8239043479426984e-03 -1.3877226319946583e-03 0.0000000000000000e+00  6.8089673430663201e-03 1.8999881518727932e-02 0.0000000000000000e+00  -3.6938004545507892e-02 -3.4295060363037422e-04 0.0000000000000000e+00  -1.4876354129835762e-02 1.2610426542387279e-01 0.0000000000000000e+00  -4.1062040280973711e-02 3.5507325801763023e-02 0.0000000000000000e+00  9.2977850699267117e-02 -1.7829660733263458e-03 0.0000000000000000e+00  -3.0331490728249835e-02 1.0027590370102275e-01 0.0000000000000000e+00  -2.9622992575282715e-02 4.1292715185398385e-02 0.0000000000000000e+00  -6.5751223821082130e-02 2.8087095553363035e-02 0.0000000000000000e+00  -5.6030413631143992e-02 6.9351282790418274e-03 0.0000000000000000e+00  -1.2450785542801008e-02 9.9090653803531853e-02 0.0000000000000000e+00  4.7569989384247079e-02 -8.7187731073444449e-02 0.0000000000000000e+00  -6.9695488108482834e-02 1.1724672508562371e-01 0.0000000000000000e+00  7.8001432161200021e-02 -7.5922446645400696e-02 0.0000000000000000e+00  -2.8543833532299879e-02 2.3262900659017594e-02 0.0000000000000000e+00  6.9347885463381123e-02 -1.8145944104016647e-02 0.0000000000000000e+00  -1.5674005885051065e-01 9.8667910931847617e-03 0.0000000000000000e+00  -2.9794753974389788e-02 8.5441355586729165e-03 0.0000000000000000e+00  -8.3207576733294181e-02 -5.0206652175950944e-03 0.0000000000000000e+00  -1.0610110076826859e-01 1.8343580390941946e-03 0.0000000000000000e+00  -4.9829051829586836e-02 -8.5830460994505730e-04 0.0000000000000000e+00  -3.4533549389342680e-02 -1.0434145563964004e-03 0.0000000000000000e+00  -2.7383533971692683e-02 -9.6145213099892277e-04 0.0000000000000000e+00  -2.3029198670419346e-02 -5.8145355439336748e-04 0.0000000000000000e+00  -2.2100236128295262e-02 -2.1938167172186763e-04 0.0000000000000000e+00  -2.1951387236213833e-02 5.4348943488428852e-05 0.0000000000000000e+00  -2.2703967758061695e-02 4.1093090232756889e-04 0.0000000000000000e+00  -2.6287873394009755e-02 7.6621410740464581e-04 0.0000000000000000e+00  -3.2549209775691972e-02 7.7133278865396029e-04 0.0000000000000000e+00  -4.5164259274430643e-02 4.2345468958598448e-04 0.0000000000000000e+00  -2.3715008618753936e-02 2.9786308738867642e-04 0.0000000000000000e+00  -5.0672867834897488e-02 -9.0457053621166496e-04 0.0000000000000000e+00  -3.0095430608547212e-02 -9.8523337554208947e-04 0.0000000000000000e+00  -2.2913751275534255e-02 -3.5203587678739871e-04 0.0000000000000000e+00  -2.2567944155617244e-02 1.7391197746889091e-04 0.0000000000000000e+00  -2.8519298856412165e-02 7.5295460919556055e-04 0.0000000000000000e+00  -4.9506774741226542e-02 5.9652416644969774e-04 0.0000000000000000e+00  -3.9098960522026847e-02 -1.0889827070401723e-03 0.0000000000000000e+00  -2.3848902296725129e-02 -8.6819859096129220e-04 0.0000000000000000e+00  -2.1853028063781598e-02 -8.0483153586490553e-05 0.0000000000000000e+00  -2.4108290544948806e-02 7.1595068591188082e-04 0.0000000000000000e+00  -3.7172850403411506e-02 7.9977942318597533e-04 0.0000000000000000e+00  1.2603223017915230e-01 5.4786600031596789e-03 0.0000000000000000e+00  -3.9784049748493366e-02 -3.2410081807797621e-02 0.0000000000000000e+00  -1.6890172387368816e-02 -1.5448736157111800e-01 0.0000000000000000e+00  -5.2108532077568659e-02 -5.9036341192042945e-03 0.0000000000000000e+00  -6.8810257511191436e-02 -2.9379101020411878e-02 0.0000000000000000e+00  -2.7397037587092644e-02 -4.0745907866498572e-02 0.0000000000000000e+00  -2.9865087026347801e-02 -1.0971398279352348e-01 0.0000000000000000e+00  -1.4419223832940207e-02 -6.2623209578548718e-03 0.0000000000000000e+00  -1.9326895064723451e-01 -1.9227470588458265e-02 0.0000000000000000e+00  9.9958542580249651e-02 3.7980798765756371e-02 0.0000000000000000e+00  -3.0957450221689185e-02 -2.7853604957682219e-02 0.0000000000000000e+00  1.0101901751377973e-01 1.0742627545389614e-01 0.0000000000000000e+00  -7.8475505550290911e-02 -1.3708496881700219e-01 0.0000000000000000e+00  5.4028117233087564e-02 1.1382544469508084e-01 0.0000000000000000e+00  -1.0899669392008449e-02 -1.0979657560232053e-01 0.0000000000000000e+00  1.3355097180512440e-05 3.4291280153929908e-05 0.0000000000000000e+00  -2.1695643393896742e-05 -3.7401547152937605e-05 0.0000000000000000e+00  9.5645887245011750e-06 -3.2676391367973006e-06 0.0000000000000000e+00  1.0697517872617967e-05 -6.5261150486370636e-05 0.0000000000000000e+00  -5.4513973088604389e-06 5.5264243299675259e-05 0.0000000000000000e+00  -3.3460164228084455e-05 8.1033723401567945e-06 0.0000000000000000e+00  -1.2440673124012065e-05 -1.5644763373086112e-05 0.0000000000000000e+00  4.6708846901135335e-06 8.1262804864225095e-06 0.0000000000000000e+00  8.5674481731184640e-06 -1.2428664911741738e-05 0.0000000000000000e+00  -2.1546928336194145e-06 4.2023050325532642e-06 0.0000000000000000e+00  -7.8976847331275752e-06 5.9362479503489220e-05 0.0000000000000000e+00  -1.6484305086246888e-06 1.7078563897712096e-05 0.0000000000000000e+00  -2.2316582658886289e-06 1.7361889134747638e-05 0.0000000000000000e+00  -3.4268311435538468e-06 -2.1748043347326280e-05 0.0000000000000000e+00  -1.3582031745483419e-05 -4.6342603999896049e-05 0.0000000000000000e+00  -1.1431169971611038e-06 -9.6813200645628431e-06 0.0000000000000000e+00  -1.5996858707507120e-05 3.8840547356550222e-05 0.0000000000000000e+00  -8.4492549020807824e-05 -7.8894632375744306e-05 0.0000000000000000e+00  -1.6631351673101862e-04 -1.7382105991436096e-04 0.0000000000000000e+00  4.5769921114256410e-04 -1.2056866554759673e-04 0.0000000000000000e+00  3.4963864558826030e-06 1.2407287032634848e-05 0.0000000000000000e+00  1.7799950630444192e-05 -4.1226386973708829e-05 0.0000000000000000e+00  -3.2456918145152614e-06 -7.9327938371194842e-06 0.0000000000000000e+00  1.5573446696601483e-05 -6.6521278974183376e-05 0.0000000000000000e+00  7.6317497532142270e-06 -3.3510633948793088e-05 0.0000000000000000e+00  1.4998588483090066e-07 -3.5178303495100708e-06 0.0000000000000000e+00  3.0167362751262077e-06 2.6099223640553473e-05 0.0000000000000000e+00  -1.6544393025132766e-05 -6.7665223809429252e-05 0.0000000000000000e+00  6.5505432688465451e-06 4.2099693141404277e-06 0.0000000000000000e+00  9.4843630996303656e-06 6.3663556357255639e-05 0.0000000000000000e+00  3.4017917640755574e-06 5.6661224749957704e-05 0.0000000000000000e+00  -2.3014088465749019e-05 4.0494676937597383e-05 0.0000000000000000e+00  -1.9264244776504923e-05 -4.7787801974981258e-05 0.0000000000000000e+00  -1.9810241078582188e-05 -1.0143961038754681e-05 0.0000000000000000e+00  2.6422060688826379e-05 -4.6613745134258748e-05 0.0000000000000000e+00  -1.2940541995036621e-05 -4.1663629567810018e-05 0.0000000000000000e+00  9.0276678580597421e-06 -3.8460964971903918e-05 0.0000000000000000e+00  2.5146562087678356e-07 -5.2688233016287534e-06 0.0000000000000000e+00  -1.2492452486393042e-05 -5.8389265998718575e-05 0.0000000000000000e+00  1.5976032258814080e-05 3.0693913413424960e-05 0.0000000000000000e+00  -3.65