<?xml version="1.0"?>
<VTKFile type="UnstructuredGrid"  version="0.1"  >
<UnstructuredGrid>
<Piece  NumberOfPoints="4153" NumberOfCells="8064">
<Points>
<DataArray  type="Float64"  NumberOfComponents="3"  format="ascii">-0.4200022915044353 -0.5767040434433444 0  -0.0491901931971602 -0.685824712140602 0  -0.0980897406961027 -0.6815332088275069 0  -0.1464417122251523 -0.6740239075548737 0  -0.1941296836434129 -0.6638988880424619 0  -0.2413673303541524 -0.6520798220633662 0  -0.2877727942814416 -0.6364123216116543 0  -0.3330326314550285 -0.6181967653627686 0  -0.3771213060493326 -0.5982208463252715 0  -2.550545884097725e-06 -0.6865221839790664 0  -0.4619759811204243 -0.5558058783721793 0  -0.5033039871442732 -0.5350835001078506 0  -0.5440555673818874 -0.5148316500924589 0  -0.5842958577293913 -0.4954130633491324 0  -0.6242228335981882 -0.4771209510897629 0  -0.6638197000208663 -0.4600225888731634 0  -0.7032121630065472 -0.4449057638143361 0  0.6827177093609735 -0.4613527609919932 0  0.04916263575235812 -0.6835961392970575 0  0.09799859383769784 -0.6771295781028175 0  0.1462244935381867 -0.6673864110271321 0  0.1936112262847883 -0.6547481107764276 0  0.240051139504132 -0.6399537158057053 0  0.2855408111898984 -0.6234899580060802 0  0.3301042866431004 -0.6058164871165963 0  0.3737834326165811 -0.5874151160460791 0  0.416703928940228 -0.5687200079899549 0  0.458963366308387 -0.5500604393815545 0  0.5006542112828942 -0.5316910157495542 0  0.5418483643865528 -0.5139513125350884 0  0.5826177751931445 -0.4969329743057074 0  0.6230075586839829 -0.481048028150621 0  0.6631393426178217 -0.466935699991764 0  0.6430005411648939 -0.4740009748705649 0  -0.6833949311515775 -0.4524822080301303 0  -0.604303891172847 -0.4861724419434892 0  -0.523739940664953 -0.5248926581888246 0  -0.4410520211662138 -0.5662212555349191 0  -0.3552228905538884 -0.6083258383210705 0  -0.2647077761844699 -0.6446153444582901 0  -0.1703681391264796 -0.6692755409311085 0  -0.07369487135551397 -0.6841103380263099 0  0.6028491485539417 -0.4889116957448492 0  0.1222032938565662 -0.6726431355214425 0  0.2169496753357285 -0.6475893760105297 0  0.3079329691482035 -0.6147867723495901 0  0.3953343689311619 -0.5780836672207145 0  0.4798721956490141 -0.5408376959308711 0  0.5622895874122766 -0.5053412750355344 0  0.02460209137682378 -0.6855112817129535 0  -0.7223598116330805 -0.4387457587695223 0  0.5212960076601343 -0.522720063237205 0  0.4379100358499488 -0.5593731430710331 0  0.3520434858702514 -0.5966615496582592 0  0.2629141445308031 -0.6319047041623294 0  0.1700379434940722 -0.6613895269000272 0  0.07364045729313742 -0.6807929802513002 0  -0.02461196695911334 -0.6866325259678726 0  -0.1223456198646397 -0.6781512686980885 0  -0.2177508476901969 -0.6583493961726008 0  -0.3105466412474638 -0.6275566613694206 0  -0.3987928426770179 -0.5875990170127484 0  -0.4827164808400071 -0.54540658368408 0  -0.564224941758485 -0.5049615257303753 0  -0.6440443421807537 -0.4685051484069235 0  0.8397916830455956 -0.2728536501003662 0  0.7441937625751286 -0.4388214258523616 0  0.7963798662928283 -0.3969449312414818 0  0.8300357484658939 -0.3394033273495523 0  0.7137737372323025 -0.4505060035724286 0  0.7710699714481433 -0.4189146948644698 0  0.8120124095028328 -0.3672577873822953 0  0.8341718243613702 -0.3057847775130213 0  0.6984499090820124 -0.4568710915565541 0  0.7289080664653339 -0.4442104371447242 0  0.7576889467377391 -0.4290315577684113 0  0.7833235840280032 -0.4071924868902823 0  0.8052570992232084 -0.3826734940391275 0  0.8205172907105938 -0.3531959763622739 0  0.8316447872448783 -0.3224307424733 0  0.8365138047968872 -0.2892232770393156 0  0.8391716971404263 -0.2513486931901352 0  0.8440195321608986 0.2226485526269127 0  0.843541947985567 0.1799708293757707 0  0.8441907882133517 0.1371961632596635 0  0.8453576200673246 0.09420886358091621 0  0.8467724613186075 0.05090682063457268 0  0.8471918929391775 0.00734767633765443 0  0.8466731355058416 -0.0362670489304119 0  0.8452243923461619 -0.07980306910806348 0  0.8428671665554407 -0.1230544466620334 0  0.8408226449328006 -0.165995579477215 0  0.8393645243274545 -0.2087181820110241 0  0.845187036015363 0.2441275601346387 0  0.8435935484082863 0.2013099502339251 0  0.8447343004704247 0.1157336876103741 0  0.847100408777693 0.02914346984325908 0  0.8460682437041629 -0.05805384309666354 0  0.8418023625169699 -0.1445583163252342 0  0.8390650907328133 -0.2300362806551007 0  0.8437809371439469 0.1586047406539561 0  0.8461176634402766 0.07261424713043498 0  0.8470458064234808 -0.01446103727436618 0  0.8440779164083672 -0.1014853060272153 0  0.8400019246095166 -0.1873789886212822 0  0.6933024737644069 0.4347606012800541 0  0.8370935663001022 0.3109816619462499 0  0.8049183417362535 0.3692877133121242 0  0.7539123979573906 0.4119689815542181 0  0.8405979581624246 0.2772326112644428 0  0.8201638972879245 0.3394193949425339 0  0.7801869530098187 0.3915198179805964 0  0.7238749201757479 0.423785260292282 0  0.842587925431162 0.2606109236567118 0  0.8384853705031862 0.2939579886049786 0  0.8282377577854654 0.3250801163983777 0  0.8133648875037657 0.3547565575294401 0  0.7921534927916504 0.3796805582455997 0  0.767093522931146 0.4018633370904894 0  0.7388175944492645 0.4174833005316492 0  0.7087570780163991 0.430104311133868 0  -0.03544702624115579 0.6939316836852805 0  0.6348159054785024 0.4558906489591768 0  0.5952673348762787 0.4729508803635109 0  0.5553479486574965 0.4912529125869519 0  0.5150310355889971 0.5106412345287044 0  0.4741468369620367 0.5308068934212348 0  0.4326123323415775 0.5514181422710219 0  0.390323702395181 0.5721968294455496 0  0.3471604425031803 0.5929212160165296 0  0.3029554934732659 0.6130043100996669 0  0.2576655997541241 0.6319980389386539 0  0.2112456983348416 0.6494279473908909 0  0.1636634165208789 0.664860536256995 0  0.1149812555733485 0.6773640590603579 0  0.06540393252533994 0.6865496031903613 0  0.01518401683588221 0.6920556473370819 0  0.6741524581365885 0.4407801724351499 0  -0.08608131384184572 0.6910047104273257 0  -0.1362008162180615 0.6837577759184564 0  -0.1853961394332356 0.6725552172017627 0  -0.233195604212123 0.6574094769733504 0  -0.2796307632671841 0.6407982136749582 0  -0.3248820967580737 0.6227737291056532 0  -0.3690311546086921 0.60371761513322 0  -0.4121251854565299 0.5839317140382694 0  -0.454405927422336 0.5643127031147657 0  -0.4960267660214761 0.5448993731469792 0  -0.5370871285084056 0.5259043155662918 0  -0.5776720028900827 0.5075511976130349 0  -0.6178387133332925 0.4900512288315124 0  -0.6576681344224061 0.473779709283881 0  -0.6973037549941289 0.459391167551126 0  -0.7166354198927519 0.4537116268215147 0  -0.6773982689918321 0.4665979647394554 0  -0.5978046784897108 0.4986873099800317 0  -0.5166215769095138 0.535338594897145 0  -0.4333517433735117 0.5741104908123328 0  -0.3470878320942878 0.6133429468095142 0  -0.256564690421904 0.6493153265098506 0  -0.1609365360847224 0.6785760898238792 0  -0.06079681978678342 0.6930039472960279 0  0.04035879636903403 0.6897939431333212 0  0.1394482478470566 0.6714878242044996 0  0.234597187530269 0.6409403586851294 0  0.3251876979642672 0.6030743869427443 0  0.4115674409053993 0.5618043624541645 0  0.4946611021271921 0.5206559595062102 0  0.5753587970612979 0.4819943750621289 0  0.6543935945983749 0.4483456810019386 0  -0.6377841182577185 0.4818294957198372 0  -0.5574329495353935 0.5166395188445616 0  -0.4752920224848753 0.5545664785158095 0  -0.390717379448533 0.5938574996184099 0  -0.3023987557601636 0.6319376923590622 0  -0.2095451832863154 0.6653721975716689 0  -0.1112319787852138 0.6878945812506533 0  -0.01006814935844227 0.6935364128026253 0  0.09029023835369396 0.6823969605921139 0  0.1876134727936044 0.6574678487055933 0  0.2804497561008421 0.622667782586239 0  0.3688690344788682 0.5825911027293552 0  0.453466900839591 0.5410761106896007 0  0.5352511154065921 0.5008095683180125 0  0.6150763101180886 0.4643309181998418 0  -0.8715111647717894 0.2653106171574695 0  -0.7776863596214285 0.4315252952837227 0  -0.8293658838100495 0.3895286221199465 0  -0.862395661133501 0.3318130696323709 0  -0.7474258166565502 0.443038839573006 0  -0.8042882088357862 0.4114833823819128 0  -0.8448594607914307 0.3598589509966657 0  -0.8663088220366943 0.2982288135513524 0  -0.7322035529595138 0.44925100910049 0  -0.7624746940313724 0.4368648317238161 0  -0.7910305151093276 0.4216401374557249 0  -0.8164186564038839 0.3997703797786748 0  -0.8380460936092118 0.3751754655849531 0  -0.8531838919242566 0.3457134802815762 0  -0.8639421749509935 0.3148650972546239 0  -0.8685306875857608 0.2816907888056842 0  -0.8706908196804063 0.2438878920918784 0  -0.8741406894341597 -0.2280836515593026 0  -0.8734907802854373 -0.1855611975720808 0  -0.8740888830387694 -0.1429818163459188 0  -0.8752863289284479 -0.1002099888998023 0  -0.876829172792245 -0.05713822376890386 0  -0.8774444104297071 -0.01379709263726901 0  -0.8771503380085094 0.02960847343529624 0  -0.8759510760282421 0.07294954901657816 0  -0.8738179038789865 0.1160277687021538 0  -0.8719888819548287 0.1588046798279854 0  -0.8707313807734 0.2013841672136508 0  -0.8752652245123123 -0.2495420305119449 0  -0.8736135511912465 -0.2068184012246471 0  -0.8746417358490336 -0.1216262456193661 0  -0.8772532871727226 -0.03548447156015141 0  -0.8766654001088022 0.05129586799127867 0  -0.8728589916318844 0.1374462310049595 0  -0.8705104922341147 0.2226344693220174 0  -0.8736963411959207 -0.1642895056639208 0  -0.876091834371328 -0.07873087387400754 0  -0.8774071323642337 0.007905734366051166 0  -0.8749255180186117 0.09454430782558754 0  -0.8712695691457241 0.1801135093366176 0  -0.866861744333188 -0.3161913081642034 0  -0.8342733306845709 -0.3740577645603252 0  -0.7830460942199661 -0.4163844770224031 0  -0.8704599403346025 -0.2825262168994273 0  -0.8495827743735955 -0.3443251373026288 0  -0.809485961355863 -0.3962691138231036 0  -0.7529749980554193 -0.4281303825989493 0  -0.8724695554778061 -0.2659470495414114 0  -0.868260891
[...]
<PointData  Vectors="f_3998"> 
<DataArray  type="Float64"  Name="f_3998"  NumberOfComponents="3" format="ascii">9.7223022426054101e-03 1.9228864913112088e-02 0.0000000000000000e+00  2.4273459217818262e-03 4.7197238224245444e-02 0.0000000000000000e+00  5.9443865922826815e-03 4.8522205234422092e-02 0.0000000000000000e+00  8.8945809322964666e-03 4.8099918169318537e-02 0.0000000000000000e+00  9.5736408795506506e-03 4.1434021495867522e-02 0.0000000000000000e+00  9.0596070049647585e-03 3.0831655087793331e-02 0.0000000000000000e+00  1.2941646843784236e-02 3.4794550761655496e-02 0.0000000000000000e+00  1.3154637473273653e-02 3.0612209216931655e-02 0.0000000000000000e+00  1.1204962890849978e-02 2.3577231108949093e-02 0.0000000000000000e+00  -1.0421781821375407e-03 4.5813150633909720e-02 0.0000000000000000e+00  8.7223557053054002e-03 1.7458706494127608e-02 0.0000000000000000e+00  7.5936026260346109e-03 1.5187569814374264e-02 0.0000000000000000e+00  5.7025252814489301e-03 1.1586881006834039e-02 0.0000000000000000e+00  6.5219713800333066e-03 1.3931067815644011e-02 0.0000000000000000e+00  4.9630660853821236e-03 1.1272189112985106e-02 0.0000000000000000e+00  9.7384516171586440e-03 2.4406626931856600e-02 0.0000000000000000e+00  3.0047188808301432e-03 9.4899483217169324e-03 0.0000000000000000e+00  4.0757591387584969e-03 -1.6471462292582707e-02 0.0000000000000000e+00  -4.2810006794862269e-03 4.4493976731677445e-02 0.0000000000000000e+00  -7.2506745732617483e-03 4.3208806765005402e-02 0.0000000000000000e+00  -9.7907924007606603e-03 4.1634823965855564e-02 0.0000000000000000e+00  -1.1487736755169392e-02 3.9065565105860414e-02 0.0000000000000000e+00  -1.1851543998630948e-02 3.4735321483294265e-02 0.0000000000000000e+00  -1.1288658095344560e-02 2.9687129435987478e-02 0.0000000000000000e+00  -1.0079646725241000e-02 2.4534537248545128e-02 0.0000000000000000e+00  -8.9599175767614316e-03 2.0881492881860652e-02 0.0000000000000000e+00  -7.4036049075641595e-03 1.6846366666006658e-02 0.0000000000000000e+00  -5.8065032669147709e-03 1.3146318552940994e-02 0.0000000000000000e+00  -3.8303808696074368e-03 8.7633167374476274e-03 0.0000000000000000e+00  -2.3668855154641349e-03 5.5887793391059390e-03 0.0000000000000000e+00  -2.8315022432371640e-03 7.0877913633257007e-03 0.0000000000000000e+00  -6.0836504476373321e-03 1.6865782986428129e-02 0.0000000000000000e+00  -3.8829992335919212e-03 1.3454848336145679e-02 0.0000000000000000e+00  5.1659678593965301e-03 -1.5505315437008374e-02 0.0000000000000000e+00  -4.1671273344490818e-03 -1.1446053093722913e-02 0.0000000000000000e+00  2.2538240967513090e-03 4.8657505102204226e-03 0.0000000000000000e+00  6.7456686740909747e-03 1.3575653003254019e-02 0.0000000000000000e+00  1.2118310020295049e-02 2.4322944231739033e-02 0.0000000000000000e+00  1.1883291745704322e-02 2.6191093711103848e-02 0.0000000000000000e+00  1.1884829077201887e-02 3.5222806226267549e-02 0.0000000000000000e+00  9.9603989608468852e-03 4.7034791835107025e-02 0.0000000000000000e+00  4.2068435506060322e-03 4.7943384476144990e-02 0.0000000000000000e+00  2.3274814235861255e-03 -6.1454673651314493e-03 0.0000000000000000e+00  -8.5723139589943854e-03 4.2420413665909214e-02 0.0000000000000000e+00  -1.1875270910467368e-02 3.7285498996444913e-02 0.0000000000000000e+00  -1.0760268593841413e-02 2.7138153801117261e-02 0.0000000000000000e+00  -8.0564998208150114e-03 1.8496638522136163e-02 0.0000000000000000e+00  -4.6561813505019162e-03 1.0566427183409732e-02 0.0000000000000000e+00  -4.1560599711275753e-04 9.6558331488053896e-04 0.0000000000000000e+00  -2.6864423223049009e-03 4.5133371443479661e-02 0.0000000000000000e+00  1.1717953723763606e-02 3.5844789506300843e-02 0.0000000000000000e+00  -3.8992747066738998e-03 9.0547078359903572e-03 0.0000000000000000e+00  -6.4579309370842450e-03 1.4626432598640311e-02 0.0000000000000000e+00  -9.7617385788362904e-03 2.3168247380787908e-02 0.0000000000000000e+00  -1.1679508238088219e-02 3.2280900755145468e-02 0.0000000000000000e+00  -1.1025518852806835e-02 4.1347515256022004e-02 0.0000000000000000e+00  -5.8052138190271430e-03 4.3837483398196091e-02 0.0000000000000000e+00  6.5792467082530193e-04 4.6343060881423467e-02 0.0000000000000000e+00  7.6257380908501173e-03 4.9142301470393078e-02 0.0000000000000000e+00  6.8610928589221375e-03 2.7544724749593939e-02 0.0000000000000000e+00  1.2715130601025181e-02 3.1586833396345042e-02 0.0000000000000000e+00  1.3615186343272015e-02 2.7161963510749162e-02 0.0000000000000000e+00  8.0610408142679710e-03 1.6077071871710587e-02 0.0000000000000000e+00  6.4883412156081692e-03 1.3453585754823324e-02 0.0000000000000000e+00  -1.4618586147515408e-03 -3.6092035195661970e-03 0.0000000000000000e+00  3.4712411814105552e-02 -2.0740641815087833e-03 0.0000000000000000e+00  5.6109391102455795e-02 -9.7504288778426637e-02 0.0000000000000000e+00  7.0277465737119543e-02 -5.4075641575556423e-02 0.0000000000000000e+00  -1.1247363391962510e-01 4.3209290450316268e-02 0.0000000000000000e+00  3.4337661128669879e-02 -8.4707841659190222e-02 0.0000000000000000e+00  1.7124048884638764e-02 -1.9253019749560667e-02 0.0000000000000000e+00  1.1060539891705265e-01 -5.6048666029916580e-02 0.0000000000000000e+00  3.2967203818621255e-02 -4.8477855394644335e-03 0.0000000000000000e+00  2.9106148451033317e-02 -8.1656162786800435e-02 0.0000000000000000e+00  -5.0510766172224643e-02 1.2211605332330158e-01 0.0000000000000000e+00  4.4223298069932707e-02 -6.4401118080212413e-02 0.0000000000000000e+00  -4.2554019093146510e-02 4.3775757258621165e-02 0.0000000000000000e+00  -1.0060468152716814e-01 5.5531545888917268e-02 0.0000000000000000e+00  -1.2998867249478402e-01 7.5926027056552964e-02 0.0000000000000000e+00  1.7231130214505266e-01 -2.2464338164671749e-02 0.0000000000000000e+00  1.2513948914559482e-02 -2.7117604049863718e-03 0.0000000000000000e+00  7.7413187720194884e-02 6.5595109175261809e-04 0.0000000000000000e+00  6.2181914796429177e-02 -2.0057089973752489e-03 0.0000000000000000e+00  2.6665764655547524e-02 1.1302826883900182e-04 0.0000000000000000e+00  1.7524066271406461e-02 3.8835690341935145e-04 0.0000000000000000e+00  1.3939323887144413e-02 4.4524130286252155e-04 0.0000000000000000e+00  1.3034807447233693e-02 2.9657684229218381e-04 0.0000000000000000e+00  1.2901564467149469e-02 -1.5685471909354492e-05 0.0000000000000000e+00  1.2849846614105426e-02 -2.8829842569616851e-04 0.0000000000000000e+00  1.2755315728672195e-02 -5.8443283599934231e-04 0.0000000000000000e+00  1.3877120843421485e-02 -7.3067840739614266e-04 0.0000000000000000e+00  1.8078806199559514e-02 -7.5796532808533883e-04 0.0000000000000000e+00  3.0108827578764721e-02 -6.5557709804172726e-04 0.0000000000000000e+00  2.9734835951326123e-02 1.1497174152739098e-03 0.0000000000000000e+00  2.9826074466396239e-02 -3.3726481763690787e-04 0.0000000000000000e+00  1.4972450322727216e-02 4.0647180096167035e-04 0.0000000000000000e+00  1.3284141456468602e-02 1.2679097047201628e-04 0.0000000000000000e+00  1.3233178168105488e-02 -4.4008599511876576e-04 0.0000000000000000e+00  1.5130177467903336e-02 -7.2086394407568706e-04 0.0000000000000000e+00  3.0211852980870414e-02 -1.4923474464644275e-04 0.0000000000000000e+00  2.0567173952124072e-02 3.0869037569313337e-04 0.0000000000000000e+00  1.3336324288429166e-02 4.3272230894410426e-04 0.0000000000000000e+00  1.2807293558863118e-02 -1.5241824953388916e-04 0.0000000000000000e+00  1.2495379768043003e-02 -6.7948598315704760e-04 0.0000000000000000e+00  2.0995791215304330e-02 -7.1211195788475630e-04 0.0000000000000000e+00  8.8677298350293987e-04 5.0916578170761432e-03 0.0000000000000000e+00  -4.8517915313996442e-02 -1.7515864880487678e-02 0.0000000000000000e+00  6.1388558632962754e-02 4.3470522154957794e-02 0.0000000000000000e+00  5.3025033480378292e-02 8.8532951765944973e-02 0.0000000000000000e+00  3.8347282076061542e-02 4.7261471958501659e-03 0.0000000000000000e+00  7.2192315239802546e-02 3.5570956109582573e-02 0.0000000000000000e+00  2.1382319610099069e-02 2.3598256661756280e-02 0.0000000000000000e+00  3.1405822123764429e-02 7.6361999242393730e-02 0.0000000000000000e+00  2.7816305523714505e-02 4.1504496265383651e-03 0.0000000000000000e+00  1.2330831673190067e-01 1.3540864350811610e-02 0.0000000000000000e+00  -5.7357744828109472e-02 -2.9857536558531152e-02 0.0000000000000000e+00  -3.9182581465769771e-02 -2.1374367569874517e-02 0.0000000000000000e+00  -3.3075480254853046e-02 -3.2516595763286554e-02 0.0000000000000000e+00  4.5182941360332331e-02 6.1784893396534694e-02 0.0000000000000000e+00  -4.0542944099256836e-02 -9.4662363042504222e-02 0.0000000000000000e+00  2.7993107453739282e-02 7.6662158655407542e-02 0.0000000000000000e+00  4.1277477115373232e-04 -3.7136823758547474e-02 0.0000000000000000e+00  -9.6309951317387621e-03 -2.4168813616781481e-02 0.0000000000000000e+00  -4.4222829688918405e-03 -1.0044703401706724e-02 0.0000000000000000e+00  -5.4470221917580419e-03 -1.1631826927022360e-02 0.0000000000000000e+00  -5.5530994872126562e-03 -1.1361190660330063e-02 0.0000000000000000e+00  -7.1932962006419450e-03 -1.4512663229856230e-02 0.0000000000000000e+00  -8.7689176377823922e-03 -1.7725496364532557e-02 0.0000000000000000e+00  -1.0687946737660773e-02 -2.1955152406622335e-02 0.0000000000000000e+00  -1.2053329738024390e-02 -2.5711982383988436e-02 0.0000000000000000e+00  -1.3534144780822063e-02 -3.0907498881084829e-02 0.0000000000000000e+00  -1.4421893304781719e-02 -3.6196901367962463e-02 0.0000000000000000e+00  -1.4150343443955559e-02 -4.0245789995008843e-02 0.0000000000000000e+00  -1.2657721223552095e-02 -4.3502109778950436e-02 0.0000000000000000e+00  -9.6711585622834724e-03 -4.3588997967402524e-02 0.0000000000000000e+00  -6.3055947026204240e-03 -4.2576691670392554e-02 0.0000000000000000e+00  -2.9991020363271600e-03 -4.0564984012770484e-02 0.0000000000000000e+00  -7.2333940774674949e-03 -2.1952734511340034e-02 0.0000000000000000e+00  3.9845438154359975e-03 -3.9261025641736301e-02 0.0000000000000000e+00  8.1862315507840368e-03 -4.3697683782771821e-02 0.0000000000000000e+00  1.3333420868441817e-02 -4.9153455803068881e-02 0.0000000000000000e+00  1.2604916739189946e-02 -3.6994208258180325e-02 0.0000000000000000e+00  1.3808363297828403e-02 -3.6425327833502406e-02 0.0000000000000000e+00  1.2867884244289380e-02 -3.0937909159835762e-02 0.0000000000000000e+00  1.1517654355722648e-02 -2.5807993226513930e-02 0.0000000000000000e+00  1.0467664163385400e-02 -2.2600287919028572e-02 0.0000000000000000e+00  8.4780703199327633e-03 -1.8193623067137510e-02 0.0000000000000000e+00  6.7784619871012926e-03 -1.4571428586582520e-02 0.0000000000000000e+00  5.1098163592833389e-03 -1.1157415171901464e-02 0.0000000000000000e+00  3.6202947555618002e-03 -8.1599422732536037e-03 0.0000000000000000e+00  4.6515372672336144e-03 -1.1144893857702641e-02 0.0000000000000000e+00  9.6993697863891198e-03 -2.5771993844742862e-02 0.0000000000000000e+00  7.7100405734642176e-03 -2.4891260477938479e-02 0.0000000000000000e+00  -1.4145530042120652e-03 7.3769277389319149e-03 0.0000000000000000e+00  -4.2984926250043062e-03 1.2684397819318726e-02 0.0000000000000000e+00  1.9057833407885704e-03 -4.3376908332654583e-03 0.0000000000000000e+00  5.8209952000527736e-03 -1.2583365617582403e-02 0.0000000000000000e+00  9.9031705499601913e-03 -2.1342843008092506e-02 0.0000000000000000e+00  1.2142621934674006e-02 -2.8121425021393844e-02 0.0000000000000000e+00  1.4304588409060324e-02 -3.9983924629527254e-02 0.0000000000000000e+00  9.7525615515539031e-03 -4.2652526440583954e-02 0.0000000000000000e+00  2.2029687310565495e-03 -3.8171163460253489e-02 0.0000000000000000e+00  -4.5995019262042146e-03 -4.1848467410073378e-02 0.0000000000000000e+00  -1.1153185526197167e-02 -4.3406864373504446e-02 0.0000000000000000e+00  -1.4551363523245668e-02 -3.8759116149098098e-02 0.0000000000000000e+00  -1.2809977319853059e-02 -2.8197133780356376e-02 0.0000000000000000e+00  -9.7881160478366282e-03 -1.9921698694808775e-02 0.0000000000000000e+00  -6.4240563472645149e-03 -1.3025987167874030e-02 0.0000000000000000e+00  -2.2913098310438484e-03 -4.9542769123678658e-03 0.0000000000000000e+00  4.3272156136227764e-03 1.1975840856376447e-02 0.0000000000000000e+00  -1.2506959231132653e-03 3.3081102504207783e-03 0.0000000000000000e+00  4.1433475795693208e-03 -9.1592859965835688e-03 0.0000000000000000e+00  7.6827493632352934e-03 -1.6472104148891435e-02 0.0000000000000000e+00  1.0717280765852325e-02 -2.3340669751064594e-02 0.0000000000000000e+00  1.3400747702049853e-02 -3.3646523236376194e-02 0.0000000000000000e+00  1.8301690332687144e-02 -5.7942785506061002e-02 0.0000000000000000e+00  5.8270821549819621e-03 -4.0226361021860120e-02 0.0000000000000000e+00  -1.3633158984956220e-03 -3.6402480186384464e-02 0.0000000000000000e+00  -7.9764096754754970e-03 -4.3029659252581710e-02 0.0000000000000000e+00  -1.4080462445622418e-02 -4.3434953224311561e-02 0.0000000000000000e+00  -1.4096845188687089e-02 -3.3620347411797556e-02 0.0000000000000000e+00  -1.1401264152006553e-02 -2.3744875848099166e-02 0.0000000000000000e+00  -7.9030646404201644e-03 -1.5926494882246608e-02 0.0000000000000000e+00  -5.5061793637521750e-03 -1.1453067364798460e-02 0.0000000000000000e+00  1.1429457468111264e-03 2.8612836195512376e-03 0.0000000000000000e+00  -2.9218931232108097e-02 1.3340833209784064e-03 0.0000000000000000e+00  -5.5672609172644417e-02 9.5623949975957218e-02 0.0000000000000000e+00  -6.8327888308138893e-02 5.0523936195011040e-02 0.0000000000000000e+00  8.7537170384805851e-02 -3.2767647046715295e-02 0.0000000000000000e+00  -3.3049839330571124e-02 8.2675465494123898e-02 0.0000000000000000e+00  -1.8049613230095629e-02 2.0227247806719559e-02 0.0000000000000000e+00  -9.2808201683880057e-02 4.6722245653112345e-02 0.0000000000000000e+00  -3.4497003181285797e-02 4.7826857305231247e-03 0.0000000000000000e+00  -2.8353930257339066e-02 8.0199150123324403e-02 0.0000000000000000e+00  4.8663882920772727e-02 -1.1816108908196514e-01 0.0000000000000000e+00  -4.5726922476409318e-02 6.5165260337173819e-02 0.0000000000000000e+00  4.4116411954784933e-02 -4.5321012948990172e-02 0.0000000000000000e+00  7.3980393780748485e-02 -4.0632593621498930e-02 0.0000000000000000e+00  1.0150392135810186e-01 -5.6963888675891285e-02 0.0000000000000000e+00  -1.5716915699582787e-01 1.9486961331856383e-02 0.0000000000000000e+00  -1.7445049483506309e-02 3.2757763999380460e-03 0.0000000000000000e+00  -7.6689479734456084e-02 -1.2202737638252717e-03 0.0000000000000000e+00  -6.4423385383631362e-02 2.1172200863730116e-03 0.0000000000000000e+00  -2.7429046898050730e-02 -4.9435913483205897e-05 0.0000000000000000e+00  -1.7357327072262393e-02 -3.8303479784331776e-04 0.0000000000000000e+00  -1.3456616291801790e-02 -4.5271553035391814e-04 0.0000000000000000e+00  -1.2538410593599995e-02 -3.3803701887321751e-04 0.0000000000000000e+00  -1.2497878463811828e-02 -4.4700262011048039e-05 0.0000000000000000e+00  -1.2494314790736356e-02 2.1376113216154205e-04 0.0000000000000000e+00  -1.2513115529786357e-02 5.0377566914338874e-04 0.0000000000000000e+00  -1.3544766083514022e-02 6.4997823058502119e-04 0.0000000000000000e+00  -1.7639537537912559e-02 6.5518880796822750e-04 0.0000000000000000e+00  -2.8977660018755211e-02 5.1097967766190007e-04 0.0000000000000000e+00  -3.2918482510977357e-02 -1.4600304552505939e-03 0.0000000000000000e+00  -3.0381203571334590e-02 4.6168028687422355e-04 0.0000000000000000e+00  -1.4624545963263735e-02 -4.0964637497193778e-04 0.0000000000000000e+00  -1.2872531428529238e-02 -1.8175552003847213e-04 0.0000000000000000e+00  -1.2917050393654055e-02 3.5708724939830660e-04 0.0000000000000000e+00  -1.4809198006305329e-02 6.3370072506969619e-04 0.0000000000000000e+00  -2.9861115840367044e-02 3.5239420675490671e-05 0.0000000000000000e+00  -2.0514511104864831e-02 -2.8431181961866307e-04 0.0000000000000000e+00  -1.2673841670932572e-02 -4.5134088713149554e-04 0.0000000000000000e+00  -1.2432098897191506e-02 8.4286799258605167e-05 0.0000000000000000e+00  -1.2347509198403229e-02 6.0962135368733991e-04 0.0000000000000000e+00  -2.0657023211351083e-02 6.0609709838957762e-04 0.0000000000000000e+00  6.4671643794110431e-02 2.3697435331193718e-02 0.0000000000000000e+00  -6.3728332439491747e-02 -4.7325572685591892e-02 0.0000000000000000e+00  -5.2706259996701837e-02 -8.9449468591544096e-02 0.0000000000000000e+00  -3.7399716086363492e-02 -4.7452972154429273e-03 0.0000000000000000e+00  -8.6153840433344495e-02 -4.2533304849165329e-02 0.0000000000000000e+00  -2.0178548954606926e-02 -2.2284756412880777e-02 0.0000000000000000e+00  -3.1441587691772389e-02 -7.7708138960388973e-02 0.0000000000000000e+00  -2.4683097021338220e-02 -3.9342773658184345e-03 0.0000000000000000e+00  -1.3289605168656707e-01 -1.4966787704750637e-02 0.0000000000000000e+00  7.8828514267403463e-02 4.2990820138576635e-02 0.0000000000000000e+00  6.4427446329010651e-02 3.5063598880527340e-02 0.0000000000000000e+00  3.0816088933910118e-02 3.0032872144327920e-02 0.0000000000000000e+00  -4.3435092382007282e-02 -6.1086445452776930e-02 0.0000000000000000e+00  4.0962034829452106e-02 9.6553876868949798e-02 0.0000000000000000e+00  -3.2878211265272857e-02 -9.2644164809893986e-02 0.0000000000000000e+00  8.8329640109200717e-09 -2.2381316199986542e-08 0.0000000000000000e+00  -8.1213383925323581e-09 2.2678872265288403e-08 0.0000000000000000e+00  5.2828548901440869e-09 3.4608562603380798e-08 0.0000000000000000e+00  5.6761702231347573e-09 1.1351431668450862e-08 0.0000000000000000e+00  -5.5933220365791477e-09 -1.1308110039360645e-08 0.0000000000000000e+00  -5.3892369670076876e-09 -2.9154226163602922e-08 0.0000000000000000e+00  1.2636766767841909e-08 -3.7156239142355437e-10 0.0000000000000000e+00  -1.2655874915678050e-08 3.1155225312865295e-10 0.0000000000000000e+00  -1.2736353239194277e-08 -1.2036473887642786e-10 0.0000000000000000e+00  1.2604600662308678e-08 1.3653907269152858e-10 0.0000000000000000e+00  -7.4571928685930908e-10 -1.8872240112602687e-09 0.0000000000000000e+00  -3.4096241959477572e-15 -7.5095006699223028e-15 0.0000000000000000e+00  -9.9932448284494574e-15 -2.1119554940793998e-14 0.0000000000000000e+00  5.0491383725018958e-21 -3.5624590542740663e-21 0.0000000000000000e+00  -2.7051430642434264e-20 -6.3700478010557702e-21 0.0000000000000000e+00  1.6984325742594533e-14 -1.8322535984325826e-16 0.0000000000000000e+00  -1.1683960517102682e-14 -3.6897182389421579e-14 0.0000000000000000e+00  -1.5369975566879389e-20 -8.2464860730683935e-21 0.0000000000000000e+00  -1.1144482201150229e-15 -3.5042950345828196e-14 0.0000000000000000e+00  2.0629483226380226e-20 2.1480885650782285e-21 0.0000000000000000e+00  1.0055161023995194e-14 -3.3505416346874275e-14 0.0000000000000000e+00  1.5286115433504661e-16 3.8613833521119232e-16 0.0000000000000000e+00  2.8634862923672631e-20 -2.2292999319593288e-20 0.0000000000000000e+00  7.4035100831430123e-10 1.8759044525092043e-09 0.0000000000000000e+00  3.9549884143742072e-15 8.6264967087836442e-15 0.0000000000000000e+00  -1.7029621722592361e-14 1.2446157285833552e-16 0.0000000000000000e+00  2.6904245429445618e-15 -6.4041671092510229e-15 0.0000000000000000e+00  1.2703010985211024e-10 -2.2055971534394882e-10 0.0000000000000000e+00  4.0656886469704459e-09 -2.7898366760173524e-08 0.0000000000000000e+00  7.3991135921645796e-10 -1.9995683207792392e-09 0.0000000000000000e+00  5.2059637657991642e-09 -1.1186995821122728e-08 0.0000000000000000e+00  -9.5650552690536606e-09 -2.3022758674364572e-08 0.0000000000000000e+00  -8.4578501728523648e-15 2.0367629316975801e-14 0.0000000000000000e+00  -4.1275868968075440e-09 3.1565406206409405e-08 0.0000000000000000e+00  8.2436157166860238e-09 2.0737145622660986e-08 0.0000000000000000e+00  -1.9980160045752264e-15 5.1223831074772533e-15 0.0000000000000000e+00  1.2169268572198144e-14 2.5032719915143748e-14 0.0000000000000000e+00  -2.9228820515565006e-21 1.0918708866164722e-22 0.0000000000000000e+00  -4.6061761944121004e-09 1.0470361992207921e-08 0.0000000000000000e+00  -2.2088342604764133e-08 3.4700824566331255e-08 0.0000000000000000e+00  -9.6175