<?xml version="1.0"?>
<VTKFile type="UnstructuredGrid"  version="0.1"  >
<UnstructuredGrid>
<Piece  NumberOfPoints="4153" NumberOfCells="8064">
<Points>
<DataArray  type="Float64"  NumberOfComponents="3"  format="ascii">-0.4239047651919077 -0.6109530605484605 0  -0.05204200783384334 -0.7552446029438185 0  -0.1030743137080657 -0.7502420294178269 0  -0.1532599422154592 -0.7406601766154527 0  -0.2022822926267493 -0.7271208912681552 0  -0.2502705489704299 -0.7109445949316926 0  -0.2966610425122901 -0.6899189356078539 0  -0.3410574591651435 -0.6656957300084583 0  -0.3834544680295345 -0.6392445601527964 0  -0.0006574412466812717 -0.7552912651950581 0  -0.462646268290035 -0.5830125747814274 0  -0.5002684669212232 -0.5553102351246377 0  -0.536853399214394 -0.5281261880071599 0  -0.5725574800093175 -0.501852097806474 0  -0.60773292875708 -0.4770032690816416 0  -0.6424892988155613 -0.4537482618779431 0  -0.6769937893759408 -0.4329786975963663 0  0.6514873811007157 -0.4426890625182654 0  0.0505345997134669 -0.7504191455717122 0  0.1010143563748887 -0.7408117387111337 0  0.1503294045986162 -0.726889956434426 0  0.1981275639862374 -0.7091880319729489 0  0.2442507238084773 -0.6886666820141399 0  0.2886932515645302 -0.6659755639396439 0  0.331509965109324 -0.6417431848415359 0  0.3727826423734451 -0.6165420558642071 0  0.412740442974422 -0.5909961155688721 0  0.4515605159759005 -0.5655064334988593 0  0.4894222953835714 -0.5404104654581434 0  0.5264628272909287 -0.5160754025285208 0  0.5628624165885333 -0.4926901447422911 0  0.5987357276359507 -0.4707275328824556 0  0.6342905450119045 -0.450989332356324 0  0.616374309262489 -0.4608342031852565 0  -0.6595335385602537 -0.4432488594489731 0  -0.5902023245095712 -0.4893200953922353 0  -0.5186686751486546 -0.5416357147522717 0  -0.4433849158325727 -0.5969160591794608 0  -0.3625052881990155 -0.6526040463162711 0  -0.2737083808614111 -0.7009028726122356 0  -0.1779280798542432 -0.7344099192967899 0  -0.07763613201116447 -0.7533456492485894 0  0.5808312484366904 -0.4816576582446392 0  0.1258415324948313 -0.7343516366170355 0  0.2213996927714051 -0.6992404285319613 0  0.3102938427945119 -0.6540220730643426 0  0.3929179337548359 -0.6037911606212036 0  0.470595796998396 -0.5529062048561618 0  0.5447495990700464 -0.5042951202906996 0  0.02499604108025226 -0.7534650954675136 0  -0.6937039525895805 -0.4241329975008878 0  0.5080217060262656 -0.5281203664050982 0  0.4322802289563986 -0.5782293280785578 0  0.3523262221553863 -0.6292074542265549 0  0.2666804863797616 -0.6775590134890278 0  0.1744417444563065 -0.7184647565893566 0  0.07589411152795432 -0.7461857485314753 0  -0.02635772627405516 -0.7558949602197083 0  -0.1282983557450094 -0.7459993318357775 0  -0.2263219953859573 -0.7194554354159759 0  -0.3190974132924457 -0.6780923951878646 0  -0.4040599821756062 -0.6253983082670472 0  -0.481600490258862 -0.569131299996729 0  -0.5548061016102817 -0.5148350978669056 0  -0.6251153459170837 -0.4653142908004934 0  0.7910335656737182 -0.254290098167925 0  0.7063677259873974 -0.4154158345586502 0  0.7531616605638259 -0.3729552977947374 0  0.7830310268502076 -0.3176570111853264 0  0.679377034043161 -0.4295525092010166 0  0.7307637675973223 -0.3954179692534334 0  0.7665434118433565 -0.3440906441156937 0  0.7860624500068257 -0.2855744449552072 0  0.6655948173498031 -0.4369647360524108 0  0.6928114394338188 -0.4218741751363824 0  0.7186610624881469 -0.4055890868549089 0  0.7415903213287499 -0.3833815848318327 0  0.7615484810646795 -0.3594228974803552 0  0.7740660801384261 -0.3306927119000688 0  0.7838078034366297 -0.3013971088859606 0  0.7879620932157303 -0.2698065595453688 0  0.7903678740855495 -0.2338522662069461 0  0.7948621591042798 0.2195862678831072 0  0.7947158069110808 0.1790601129268147 0  0.7958787589969969 0.1382997092205377 0  0.7975598763816744 0.09718982677885894 0  0.7994472772363649 0.05564006185524011 0  0.8001022519230767 0.01373928902259708 0  0.7996082694059226 -0.02824118582389622 0  0.7979707488846901 -0.07011318018889388 0  0.7952020511117254 -0.1115992812759747 0  0.7927070896273115 -0.1526557077210937 0  0.790796738539415 -0.1933606746053909 0  0.7961520743578636 0.2399689784951774 0  0.7945735805863609 0.1993400562554231 0  0.796688544784938 0.1177925043033946 0  0.799918006878889 0.03471253478329008 0  0.7989359942566573 -0.04920318343720917 0  0.7939233646565859 -0.1321779887307396 0  0.7903521326143262 -0.2136231910238223 0  0.7952055629913949 0.1587189926789347 0  0.7985727774339121 0.0764899285188296 0  0.7999943820934317 -0.00725261464699786 0  0.7966289902404765 -0.09093104042808099 0  0.7916564003188786 -0.1730478366059942 0  0.662567460422973 0.4305001694382153 0  0.7899198370654515 0.3036029504514486 0  0.761709169679163 0.359756270923499 0  0.7163289531672288 0.4029941322422836 0  0.7922787973363449 0.2714111471456462 0  0.7747204807600698 0.3307568890855889 0  0.7399699371622459 0.3823958135057587 0  0.6897837584264679 0.4171301075165106 0  0.79381831096225 0.2556053909921328 0  0.7905508480064187 0.287317655635127 0  0.7817598941441347 0.3170101811316133 0  0.7694485987062301 0.3458540576742047 0  0.7504424889227064 0.3702730875854767 0  0.7282233042105445 0.3928100076176703 0  0.7029808709343577 0.4095164659374725 0  0.6762916108969599 0.4245188449210009 0  -0.036698238983231 0.7760605998468491 0  0.6114977289023529 0.4600607146651387 0  0.5768378008425339 0.483354854834302 0  0.5417153558965009 0.5082829367952922 0  0.5059835923309467 0.5345956685897555 0  0.4693387047903665 0.5618272594907612 0  0.431607387399683 0.5896089629198265 0  0.3925918300121535 0.6175828957274224 0  0.3520475294552301 0.6454077652401673 0  0.3096795533791963 0.6722458297887191 0  0.2653982111422125 0.6975179648132167 0  0.2191294509044363 0.7205385748357045 0  0.1708629555867556 0.7406929089901121 0  0.1207315628933685 0.7567854374118181 0  0.06911128564210868 0.7682758548080166 0  0.01647311779496947 0.7746694841557166 0  0.645923360950213 0.4392432458173652 0  -0.08971821181846365 0.7711956671823714 0  -0.1418020352020732 0.7607945942359263 0  -0.1923553496017281 0.745448789670705 0  -0.2407339049221709 0.7251242631112256 0  -0.2870106136715437 0.7028343044484735 0  -0.3313159933028576 0.6785065763699795 0  -0.3737517672071665 0.6527235852993201 0  -0.414402222172746 0.6258710387995344 0  -0.4536054961571492 0.5990930436144127 0  -0.4916680435562034 0.5725641868385285 0  -0.5287625345225555 0.5465563593935275 0  -0.565055608926099 0.5213555919460644 0  -0.6006893454922663 0.497220590466627 0  -0.6358500174153554 0.4746456067334283 0  -0.6707607424587916 0.4544519624638779 0  -0.6876371509497973 0.4459590860832904 0  -0.6531337739518475 0.4644951941697021 0  -0.5829501983279823 0.5091834977176196 0  -0.5103258623882643 0.5594832217705725 0  -0.4341483428296206 0.6124590809582048 0  -0.3527561055446691 0.665739356774361 0  -0.264116249556696 0.7142765130064664 0  -0.1672955467281805 0.7535954677622001 0  -0.06327692888510021 0.7743232699563705 0  0.04289184059043975 0.7721566721511999 0  0.1460091280776663 0.7492593721724594 0  0.2425126062596198 0.7093555843342619 0  0.3310912300610575 0.658980179441267 0  0.41227052473632 0.6035946538874064 0  0.4877804697550245 0.5481238096592079 0  0.5593438429507427 0.49569838695999 0  0.6285365361416068 0.4495801176720268 0  -0.6182907078291059 0.4858722258151451 0  -0.5469979847572781 0.5338506441288478 0  -0.4727692024526324 0.5857821075198592 0  -0.3943206416110563 0.6393903064608002 0  -0.3094025061546501 0.6908815928508327 0  -0.2169437427404721 0.7358884845194915 0  -0.1159153147808982 0.7666354739978802 0  -0.01004048236665664 0.7760730442529495 0  0.09508116080734033 0.7631401084000692 0  0.1952640271626434 0.7310773774211694 0  0.2877847426458909 0.6851221490054098 0  0.3725450056970569 0.6315635396763424 0  0.4506207277482978 0.575674657635415 0  0.5239546642890816 0.5212946058185587 0  0.5941900772482542 0.471629995631318 0  -0.8247718292933333 0.2576058293030429 0  -0.7419879469422304 0.4189716763132197 0  -0.7881861053725999 0.3763899976292404 0  -0.8174045972978999 0.3209034684541708 0  -0.7151804504689926 0.4329152845811781 0  -0.766061649921936 0.398827068873882 0  -0.8014506298001882 0.3475713237023408 0  -0.8202092201505498 0.2888662099726186 0  -0.7015324565420672 0.4401978633003281 0  -0.7285132973938613 0.4253711759890563 0  -0.7541030094568858 0.4090393471300461 0  -0.7767367198495017 0.3868001881285512 0  -0.7963026338371768 0.3627422787103615 0  -0.8087795070772645 0.3340640334704873 0  -0.8181559064281708 0.3046806293700871 0  -0.8219892090285711 0.2731316286257013 0  -0.8238625422342428 0.2372541358640271 0  -0.8270136949109556 -0.2143245011387071 0  -0.8267094010065354 -0.173934651003365 0  -0.8278426638051218 -0.1333483826715831 0  -0.8295611013663609 -0.09243110174441475 0  -0.8315639065345971 -0.05109011431141584 0  -0.8323989949589091 -0.009387537364258666 0  -0.832113508197844 0.03240190071145385 0  -0.8307113439009834 0.07409519930674474 0  -0.8281544501992121 0.1154224898763924 0  -0.8258668097722482 0.1563251511743359 0  -0.8241521422238566 0.1968923969003689 0  -0.828238929964479 -0.2346953567144503 0  -0.8266301111697562 -0.1941418060717208 0  -0.8286675539224685 -0.1129368688428518 0  -0.8321233150994491 -0.03026204796295404 0  -0.8315533928818623 0.05327284117807243 0  -0.8269774918923178 0.1359213984501586 0  -0.8237775888362476 0.2170878753370415 0  -0.8271783454796163 -0.1536777490677771 0  -0.8306141814798059 -0.07183551475612548 0  -0.8323918441861048 0.01150777934386642 0  -0.8294842416715046 0.09483330780090041 0  -0.8249129958913636 0.1766459338254397 0  -0.8217024617736819 -0.2981523116204747 0  -0.7931107054224253 -0.3538924476654913 0  -0.7475168803132471 -0.3968587512674368 0  -0.8241568128400257 -0.266031922288783 0  -0.806157027033183 -0.3249961980240483 0  -0.7713215688945901 -0.3765511983502168 0  -0.7209440219216142 -0.4109949415277865 0  -0.8257142951591739 -0.2502590699845145 0  -0.822315522
[...]
<PointData  Vectors="f_13221"> 
<DataArray  type="Float64"  Name="f_13221"  NumberOfComponents="3" format="ascii">1.0019055976641883e-02 1.2990753830013890e-02 0.0000000000000000e+00  1.8789958530158817e-03 3.9504045755522223e-02 0.0000000000000000e+00  6.3201793649757679e-03 4.2331297458962108e-02 0.0000000000000000e+00  1.0791039122913553e-02 4.4781198235490240e-02 0.0000000000000000e+00  1.2898024178765859e-02 3.9568155008657367e-02 0.0000000000000000e+00  2.1303206818470140e-02 4.7204941966383480e-02 0.0000000000000000e+00  3.1173186160675243e-02 5.8822931315867341e-02 0.0000000000000000e+00  3.2810110820128996e-02 5.3791790875827049e-02 0.0000000000000000e+00  2.8378025965534931e-02 4.1818318617872836e-02 0.0000000000000000e+00  -2.2636947688774683e-03 3.8838618026659499e-02 0.0000000000000000e+00  1.4495613710320859e-02 2.0180552091127797e-02 0.0000000000000000e+00  1.0569283494649742e-02 1.4738455546091043e-02 0.0000000000000000e+00  8.0891613246817391e-03 1.1995270109588209e-02 0.0000000000000000e+00  1.0338311725547956e-02 1.6791304312678362e-02 0.0000000000000000e+00  9.9636264665049247e-03 1.8197607697947853e-02 0.0000000000000000e+00  6.9087288768812762e-03 1.9347437350893341e-02 0.0000000000000000e+00  -2.0906714473955261e-03 1.6324827264162418e-02 0.0000000000000000e+00  -5.6634158997005829e-02 1.2705791781603978e-01 0.0000000000000000e+00  -6.4526418955140287e-03 4.0231281696100157e-02 0.0000000000000000e+00  -1.1114692714499353e-02 4.3033927198486720e-02 0.0000000000000000e+00  -1.5937834485652714e-02 4.5646898921329539e-02 0.0000000000000000e+00  -1.9520397937958223e-02 4.5285464241079258e-02 0.0000000000000000e+00  -2.1161161979804086e-02 4.2261430986435207e-02 0.0000000000000000e+00  -2.0800030823944285e-02 3.7032008267659740e-02 0.0000000000000000e+00  -1.9070569711101541e-02 3.1263860230955232e-02 0.0000000000000000e+00  -1.5629081960748387e-02 2.4621623419341671e-02 0.0000000000000000e+00  -1.2374901083350041e-02 1.9143625839020788e-02 0.0000000000000000e+00  -9.3807609803838159e-03 1.4784494424130972e-02 0.0000000000000000e+00  -6.1141925018368907e-03 1.0420845929308978e-02 0.0000000000000000e+00  -6.6570193502034974e-03 1.2094433199071657e-02 0.0000000000000000e+00  -7.6263746769769910e-03 1.5766068943814320e-02 0.0000000000000000e+00  -7.1660347023786318e-03 2.1180089893126489e-02 0.0000000000000000e+00  9.6638805263729224e-03 4.5363141663172860e-03 0.0000000000000000e+00  2.1717993185926083e-03 3.1858572425142806e-03 0.0000000000000000e+00  7.6949483309820413e-03 2.1106057160584987e-02 0.0000000000000000e+00  5.0978055706204835e-03 9.6478587579059954e-03 0.0000000000000000e+00  9.5001834128954077e-03 1.3580018339183503e-02 0.0000000000000000e+00  1.7359837390651053e-02 2.4817590846109530e-02 0.0000000000000000e+00  2.8193393935100106e-02 4.3323188528983890e-02 0.0000000000000000e+00  2.7644362980395316e-02 5.6735684946669925e-02 0.0000000000000000e+00  1.3200973101223498e-02 4.5823396934938733e-02 0.0000000000000000e+00  4.0700103061771650e-03 4.0848297009299366e-02 0.0000000000000000e+00  2.1910825757075723e-03 2.1379732358768917e-04 0.0000000000000000e+00  -1.3512996977762317e-02 4.4354821230375222e-02 0.0000000000000000e+00  -2.0715924930914280e-02 4.4470963092348492e-02 0.0000000000000000e+00  -1.9999451097482794e-02 3.4102872232903467e-02 0.0000000000000000e+00  -1.4067361578164688e-02 2.1845202790193068e-02 0.0000000000000000e+00  -7.9586419028100652e-03 1.2850770451860455e-02 0.0000000000000000e+00  -9.4764693162364641e-04 3.6800656040539086e-03 0.0000000000000000e+00  -4.2938860027170187e-03 3.9207528000229794e-02 0.0000000000000000e+00  5.2811107058274451e-02 1.2586429647178582e-01 0.0000000000000000e+00  -5.7550612289201976e-03 1.0427792360658741e-02 0.0000000000000000e+00  -1.0797825653567098e-02 1.6786427784880577e-02 0.0000000000000000e+00  -1.7247800302769629e-02 2.7509359344363913e-02 0.0000000000000000e+00  -2.1299474349256619e-02 4.0008462157365199e-02 0.0000000000000000e+00  -1.8690765334022572e-02 4.7466165826871957e-02 0.0000000000000000e+00  -8.7015993071067402e-03 4.1461984218085883e-02 0.0000000000000000e+00  -2.4709242578391580e-04 3.8836104972010309e-02 0.0000000000000000e+00  8.9258645158955003e-03 4.4855630100342783e-02 0.0000000000000000e+00  1.0025230470317489e-02 2.8164610861207039e-02 0.0000000000000000e+00  2.9522638822411861e-02 5.1693821475092369e-02 0.0000000000000000e+00  4.1880538399459072e-02 5.7985591890325483e-02 0.0000000000000000e+00  1.2302596763673644e-02 1.6932577842106496e-02 0.0000000000000000e+00  6.4392484021997326e-03 1.0348207193250953e-02 0.0000000000000000e+00  7.9721681690346860e-04 5.0173284240514352e-03 0.0000000000000000e+00  5.2151534091915766e-02 1.4885296385223432e-03 0.0000000000000000e+00  7.6325320481206119e-02 -1.2558235171721116e-01 0.0000000000000000e+00  3.4579071601681416e-02 -5.8887779460701978e-02 0.0000000000000000e+00  -2.3699230588990813e-01 4.0113675225555513e-02 0.0000000000000000e+00  3.6946992252077440e-02 -7.7375158719198409e-02 0.0000000000000000e+00  2.4344936456874924e-02 -2.4416734151193546e-02 0.0000000000000000e+00  2.4555326557681192e-01 -6.3064412795819633e-02 0.0000000000000000e+00  3.9363722729346691e-02 -3.1188933240372746e-03 0.0000000000000000e+00  4.5079390979344623e-02 -1.2133000625080585e-01 0.0000000000000000e+00  -9.6552594925219976e-02 1.5619922294370256e-01 0.0000000000000000e+00  3.6315503665740045e-02 -7.5220379984391628e-02 0.0000000000000000e+00  -3.8239164073534511e-02 2.6113289368274711e-02 0.0000000000000000e+00  -2.1421555763949146e-01 9.0958264734592995e-02 0.0000000000000000e+00  -3.3568231455168102e-01 1.5085413353705485e-01 0.0000000000000000e+00  2.5149077713906093e-01 -4.5139105523103011e-03 0.0000000000000000e+00  9.0893509446854561e-03 -4.2760061281973865e-03 0.0000000000000000e+00  1.0439459086237757e-01 2.3865721052376866e-03 0.0000000000000000e+00  6.8920042152917721e-02 -4.8668316156973970e-03 0.0000000000000000e+00  2.5180485793411221e-02 1.3036865717313596e-03 0.0000000000000000e+00  1.5231318548261468e-02 1.0519397698881897e-03 0.0000000000000000e+00  1.2191452693491140e-02 8.2563583836166982e-04 0.0000000000000000e+00  1.2845953182215066e-02 4.1919014476739859e-04 0.0000000000000000e+00  1.3073526739623411e-02 -4.3751752282222237e-06 0.0000000000000000e+00  1.3016630329605988e-02 -3.4301704311816950e-04 0.0000000000000000e+00  1.2235944675751488e-02 -7.2620317956996656e-04 0.0000000000000000e+00  1.1970971643936091e-02 -9.7662036714159608e-04 0.0000000000000000e+00  1.5998697179150218e-02 -1.2986289377486797e-03 0.0000000000000000e+00  3.1607310555577098e-02 -1.7881651305050423e-03 0.0000000000000000e+00  3.6003689489950724e-02 -3.6110179219220511e-03 0.0000000000000000e+00  3.0566535571365894e-02 1.8429310641179773e-03 0.0000000000000000e+00  1.2795242731855869e-02 8.6843608607759003e-04 0.0000000000000000e+00  1.3292681670115544e-02 1.2090915207246747e-04 0.0000000000000000e+00  1.3356847156576521e-02 -4.9764461204172383e-04 0.0000000000000000e+00  1.3010478458626802e-02 -1.0752456159051366e-03 0.0000000000000000e+00  3.3217064542816241e-02 -1.6275683843292451e-03 0.0000000000000000e+00  1.8420807458889656e-02 1.3471115785302639e-03 0.0000000000000000e+00  1.2508472302315604e-02 7.7301203091048641e-04 0.0000000000000000e+00  1.3005295003405982e-02 -1.7937652508496796e-04 0.0000000000000000e+00  1.0760380516612347e-02 -9.3219753026674084e-04 0.0000000000000000e+00  1.9108811396053253e-02 -1.5780315311857182e-03 0.0000000000000000e+00  -5.1445308338442616e-02 -1.1693400790470630e-01 0.0000000000000000e+00  -8.1197200019681781e-02 -8.0885235703440170e-03 0.0000000000000000e+00  4.4900033341334820e-02 4.4515064023576731e-02 0.0000000000000000e+00  6.7235472650240796e-02 1.1151640919031094e-01 0.0000000000000000e+00  4.7212073040248222e-02 4.9275148810836028e-03 0.0000000000000000e+00  1.1699081290620898e-01 3.2752051496127109e-02 0.0000000000000000e+00  2.9649570570087238e-02 2.9144281038579772e-02 0.0000000000000000e+00  3.6028044255330821e-02 7.0414025116349546e-02 0.0000000000000000e+00  3.2499511986953812e-02 5.7640278310236038e-03 0.0000000000000000e+00  1.5205499923776886e-01 -2.7512024458389048e-03 0.0000000000000000e+00  -1.3294171247075440e-01 -3.9399619529506880e-02 0.0000000000000000e+00  -7.9930629571161496e-02 -2.9562125133235886e-02 0.0000000000000000e+00  -3.2889103161196934e-02 -2.1348676118567049e-02 0.0000000000000000e+00  4.0376312905883435e-02 7.0347852283330417e-02 0.0000000000000000e+00  -8.2140347758418386e-02 -1.2293172612680073e-01 0.0000000000000000e+00  3.6541008628095832e-02 9.4893590483105791e-02 0.0000000000000000e+00  1.8654334153626955e-03 -3.0166105285029436e-02 0.0000000000000000e+00  -9.6023238478607584e-03 -2.3725781320585036e-02 0.0000000000000000e+00  -9.8259858973455926e-03 -1.7847466384569383e-02 0.0000000000000000e+00  -9.1686980388868723e-03 -1.4916509094109477e-02 0.0000000000000000e+00  -8.2276321951192336e-03 -1.2161758392801050e-02 0.0000000000000000e+00  -1.0615833246066424e-02 -1.4804439517763366e-02 0.0000000000000000e+00  -1.3894706668213633e-02 -1.9146199451014621e-02 0.0000000000000000e+00  -1.7061554480271402e-02 -2.3917376668544058e-02 0.0000000000000000e+00  -2.2207067630444787e-02 -3.2772233360598903e-02 0.0000000000000000e+00  -2.3648368988199917e-02 -3.8042143696674073e-02 0.0000000000000000e+00  -2.3461237699576830e-02 -4.2486175497052546e-02 0.0000000000000000e+00  -2.0756798459829667e-02 -4.3772228979874823e-02 0.0000000000000000e+00  -1.6882873827679362e-02 -4.4329879170392016e-02 0.0000000000000000e+00  -1.1130212944189102e-02 -3.9521721594301548e-02 0.0000000000000000e+00  -6.1043931663260992e-03 -3.4746166611411736e-02 0.0000000000000000e+00  -2.1257926846482240e-03 -3.2062276539955470e-02 0.0000000000000000e+00  2.5509019183561966e-03 -1.7425078539583586e-02 0.0000000000000000e+00  6.6676188611103099e-03 -3.9953428597238418e-02 0.0000000000000000e+00  1.4595274954678928e-02 -5.3183935768564047e-02 0.0000000000000000e+00  2.2696193410096592e-02 -5.9945266408284535e-02 0.0000000000000000e+00  1.9265677658346293e-02 -4.0749656166628269e-02 0.0000000000000000e+00  2.5074433409072155e-02 -4.6951678223175357e-02 0.0000000000000000e+00  2.4565814884839478e-02 -4.1138103625422209e-02 0.0000000000000000e+00  2.2880320356848581e-02 -3.5279390494308185e-02 0.0000000000000000e+00  1.5192081513464042e-02 -2.2169124110697019e-02 0.0000000000000000e+00  1.3329917159425980e-02 -1.9540422937655552e-02 0.0000000000000000e+00  1.0150164535575861e-02 -1.5133782258853586e-02 0.0000000000000000e+00  7.6793118262110886e-03 -1.2164548587519653e-02 0.0000000000000000e+00  7.1314095771467549e-03 -1.2287686432527247e-02 0.0000000000000000e+00  9.9817799288351317e-03 -1.8984319211908136e-02 0.0000000000000000e+00  9.7346105500020295e-03 -2.5246850736285440e-02 0.0000000000000000e+00  -4.2672453502319314e-03 -1.5506333040537449e-02 0.0000000000000000e+00  6.2973112363727241e-02 -1.4557234376089703e-01 0.0000000000000000e+00  2.7997334941089204e-03 -1.2663977277616225e-02 0.0000000000000000e+00  2.4691601179755154e-03 -5.9733819223740815e-03 0.0000000000000000e+00  8.5927327467599599e-03 -1.3128072277635296e-02 0.0000000000000000e+00  1.5510783386270864e-02 -2.2981722060993599e-02 0.0000000000000000e+00  2.2796285798404096e-02 -3.6418294638062794e-02 0.0000000000000000e+00  2.3270026199049932e-02 -4.7728533887473973e-02 0.0000000000000000e+00  1.7065035299047720e-02 -5.2679287619791244e-02 0.0000000000000000e+00  3.9472636606638625e-03 -3.5080739320084611e-02 0.0000000000000000e+00  -3.8558663490720056e-03 -3.2671591046419812e-02 0.0000000000000000e+00  -1.3864924611863821e-02 -4.1748176497629921e-02 0.0000000000000000e+00  -2.2430046642615754e-02 -4.3792496400396230e-02 0.0000000000000000e+00  -2.2721586439086013e-02 -3.4884616289020454e-02 0.0000000000000000e+00  -1.5879481269749626e-02 -2.2085690482999840e-02 0.0000000000000000e+00  -9.3523890514239233e-03 -1.3346402308464646e-02 0.0000000000000000e+00  -4.7253617263871665e-03 -9.0623938497963376e-03 0.0000000000000000e+00  -3.2432276228315615e-03 -1.3358800769489684e-02 0.0000000000000000e+00  -3.4512790718489934e-04 -3.4157153168169752e-03 0.0000000000000000e+00  6.0328114118045652e-03 -1.0181553205129572e-02 0.0000000000000000e+00  1.1584725190681704e-02 -1.7027671416433708e-02 0.0000000000000000e+00  2.1153514227179770e-02 -3.1101274864640073e-02 0.0000000000000000e+00  2.4335155675645242e-02 -4.3027097026714888e-02 0.0000000000000000e+00  4.0319156382668676e-02 -9.1743274703792024e-02 0.0000000000000000e+00  9.5761290271408946e-03 -4.3706437319328259e-02 0.0000000000000000e+00  -5.2999116238997696e-04 -2.6604260292600188e-02 0.0000000000000000e+00  -8.3543640893589486e-03 -3.6631671556410589e-02 0.0000000000000000e+00  -2.0627213681158794e-02 -4.7659969337735072e-02 0.0000000000000000e+00  -2.3791653371082109e-02 -4.0452985963756960e-02 0.0000000000000000e+00  -2.0131149648048591e-02 -2.8636274601021350e-02 0.0000000000000000e+00  -1.2217337944676132e-02 -1.6851522733310219e-02 0.0000000000000000e+00  -6.5677286117411986e-03 -1.0444694384075335e-02 0.0000000000000000e+00  -5.4783840759810255e-04 -4.7152950570924276e-03 0.0000000000000000e+00  -4.2130505061480160e-02 -2.9876191721147417e-03 0.0000000000000000e+00  -7.4718056042136549e-02 1.2382207374776494e-01 0.0000000000000000e+00  -4.0922275830219512e-02 5.4096502374007649e-02 0.0000000000000000e+00  1.7356600697303978e-01 -2.5339738242762751e-02 0.0000000000000000e+00  -3.6448495151580738e-02 7.5330535923633118e-02 0.0000000000000000e+00  -2.5298447668814041e-02 2.5493705368316071e-02 0.0000000000000000e+00  -1.8859013949898878e-01 4.9942090056200740e-02 0.0000000000000000e+00  -4.1802743701481300e-02 3.7658342656872331e-03 0.0000000000000000e+00  -4.0826743541757290e-02 1.1054067028922411e-01 0.0000000000000000e+00  9.6771142777181074e-02 -1.5355315383508666e-01 0.0000000000000000e+00  -3.8273748088196870e-02 7.4767393599764073e-02 0.0000000000000000e+00  4.2517962639871593e-02 -3.0284242306852192e-02 0.0000000000000000e+00  1.6129827754193149e-01 -6.5860309296394678e-02 0.0000000000000000e+00  2.5606484239875094e-01 -1.0461832141563550e-01 0.0000000000000000e+00  -2.1819199610802609e-01 2.6332241809326547e-03 0.0000000000000000e+00  -1.5087671577927548e-02 4.7633188619119540e-03 0.0000000000000000e+00  -9.9915582087698310e-02 -3.4845674478457510e-03 0.0000000000000000e+00  -7.8073136229292517e-02 5.2507109200021426e-03 0.0000000000000000e+00  -2.6608157061603174e-02 -1.3334266644082781e-03 0.0000000000000000e+00  -1.4972682331725842e-02 -1.0682715609843076e-03 0.0000000000000000e+00  -1.1494869993253646e-02 -8.1445471409540254e-04 0.0000000000000000e+00  -1.2154981037026396e-02 -4.6398197513483662e-04 0.0000000000000000e+00  -1.2542818200919632e-02 -6.1772220825845420e-05 0.0000000000000000e+00  -1.2538073553505167e-02 2.5726303316156191e-04 0.0000000000000000e+00  -1.1980730036325379e-02 6.3208597004689546e-04 0.0000000000000000e+00  -1.1491448536900345e-02 9.1975838281031731e-04 0.0000000000000000e+00  -1.5292630695416793e-02 1.2194237097100545e-03 0.0000000000000000e+00  -2.9355572755595524e-02 1.6507238866485757e-03 0.0000000000000000e+00  -3.9815214258231618e-02 3.3314353867068712e-03 0.0000000000000000e+00  -3.1655373963693459e-02 -1.5612178676944176e-03 0.0000000000000000e+00  -1.2340787986265228e-02 -8.8056454309200997e-04 0.0000000000000000e+00  -1.2791896486599534e-02 -1.8446492682805594e-04 0.0000000000000000e+00  -1.2898471489689837e-02 3.9439064879775803e-04 0.0000000000000000e+00  -1.2527457536462070e-02 1.0078763000844814e-03 0.0000000000000000e+00  -3.1892346670665289e-02 1.7210603036035940e-03 0.0000000000000000e+00  -1.8321791088311484e-02 -1.3580805578650148e-03 0.0000000000000000e+00  -1.1460033358794889e-02 -7.7665746342027702e-04 0.0000000000000000e+00  -1.2512131356063291e-02 9.8563434204225416e-05 0.0000000000000000e+00  -1.0744107437366588e-02 8.8000818027919050e-04 0.0000000000000000e+00  -1.8528433274735533e-02 1.5118879913897775e-03 0.0000000000000000e+00  1.1835189511359864e-01 1.4705065937318101e-02 0.0000000000000000e+00  -4.1438048968954130e-02 -4.9779902988554323e-02 0.0000000000000000e+00  -7.0983592640224649e-02 -1.1743021544867054e-01 0.0000000000000000e+00  -4.5575291911014497e-02 -4.4977252374375004e-03 0.0000000000000000e+00  -1.5363453365148480e-01 -4.1202749785874487e-02 0.0000000000000000e+00  -2.9676820869988640e-02 -2.8851498593159948e-02 0.0000000000000000e+00  -3.1589313940433045e-02 -6.5183389422272253e-02 0.0000000000000000e+00  -2.7355002979854159e-02 -5.5748995791000651e-03 0.0000000000000000e+00  -1.7239260356233627e-01 2.2462725997318875e-03 0.0000000000000000e+00  1.8560689140107561e-01 6.6074784766449110e-02 0.0000000000000000e+00  1.2122175572237390e-01 4.7788763823368385e-02 0.0000000000000000e+00  2.6931096029053924e-02 1.6322286137599829e-02 0.0000000000000000e+00  -3.8026650438732434e-02 -7.1065347853574296e-02 0.0000000000000000e+00  8.1318249425691949e-02 1.2269427669707343e-01 0.0000000000000000e+00  -3.6141048407238786e-02 -9.9648534658828475e-02 0.0000000000000000e+00  3.4900631339244658e-05 1.5247548416639465e-05 0.0000000000000000e+00  -2.7649594171758526e-05 -1.3087316452532126e-05 0.0000000000000000e+00  1.5588693671732739e-05 -1.6415285778300653e-06 0.0000000000000000e+00  1.3756591910629067e-05 -2.4439384044611719e-05 0.0000000000000000e+00  -1.2143220477211990e-05 2.3065155129402837e-05 0.0000000000000000e+00  -2.6771065452474798e-05 3.7126283538343991e-06 0.0000000000000000e+00  -2.6215590584303486e-06 -4.4544348378461928e-06 0.0000000000000000e+00  1.7757984042928834e-06 3.2840537138106187e-06 0.0000000000000000e+00  8.9593085452784179e-07 -1.7931657027281378e-06 0.0000000000000000e+00  -4.4225785360047128e-07 1.0143376860111905e-06 0.0000000000000000e+00  -1.8487540859987223e-06 2.3570849978462139e-05 0.0000000000000000e+00  -4.0587238836112775e-06 1.6356863717750510e-05 0.0000000000000000e+00  -1.8175377280069295e-05 3.9072615629289308e-05 0.0000000000000000e+00  -3.4954949915751328e-07 -5.1970836188213105e-06 0.0000000000000000e+00  1.7854579850296720e-06 -1.1710818675869184e-05 0.0000000000000000e+00  -7.4255843272402712e-08 -2.4433261715555987e-06 0.0000000000000000e+00  -6.9087331300919273e-05 6.6973927530338922e-05 0.0000000000000000e+00  9.5542117373173736e-06 2.5405338301507242e-06 0.0000000000000000e+00  -1.4240793031583543e-05 -3.5687143015185590e-08 0.0000000000000000e+00  1.4387044691807036e-04 -2.6913772868414278e-05 0.0000000000000000e+00  8.9348502800356362e-05 9.0848789834701503e-05 0.0000000000000000e+00  3.1774916410894175e-05 -5.9165067612541942e-05 0.0000000000000000e+00  -1.2397829742816593e-05 4.8762244877364498e-06 0.0000000000000000e+00  2.2671709300273247e-06 -2.4015360634748213e-05 0.0000000000000000e+00  4.6109899802710032e-06 -1.6868091845038182e-05 0.0000000000000000e+00  -7.4366907363147589e-09 8.8949206002472247e-07 0.0000000000000000e+00  5.4383826799006169e-06 2.0354142820369106e-05 0.0000000000000000e+00  -2.3186171752834954e-06 -2.7278760150301102e-05 0.0000000000000000e+00  3.3804953376235749e-05 4.0256342803569726e-06 0.0000000000000000e+00  2.3025329810233422e-06 2.5519108878604880e-05 0.0000000000000000e+00  1.2446876563731779e-05 2.1533292388916327e-05 0.0000000000000000e+00  -3.3215365543349150e-05 1.7559560614364920e-05 0.0000000000000000e+00  -2.1104758818570960e-05 -3.5809318711550284e-05 0.0000000000000000e+00  -2.3842403165791624e-05 -2.6067823036036872e-06 0.0000000000000000e+00  4.4992201931655796e-05 -2.4554910844752218e-05 0.0000000000000000e+00  -6.6338564212115519e-06 -2.1515840415275315e-05 0.0000000000000000e+00  1.6621816088474327e-05 -3.4564965415045720e-05 0.0000000000000000e+00  5.3675616228557430e-07 4.5793781766765906e-06 0.0000000000000000e+00  -1.1532630633406333e-05 -2.1643096684014584e-05 0.0000000000000000e+00  4.5613818514335153e-06 1.3452447354291238e-05 0.0000000000000000e+00  -5.20