<?xml version="1.0"?>
<VTKFile type="UnstructuredGrid"  version="0.1"  >
<UnstructuredGrid>
<Piece  NumberOfPoints="4153" NumberOfCells="8064">
<Points>
<DataArray  type="Float64"  NumberOfComponents="3"  format="ascii">-0.4239047651918698 -0.6109530605480015 0  -0.05204200783385295 -0.7552446029429709 0  -0.1030743137080439 -0.7502420294169908 0  -0.1532599422154101 -0.7406601766146428 0  -0.2022822926266795 -0.7271208912673863 0  -0.2502705489703478 -0.7109445949309758 0  -0.2966610425122062 -0.6899189356071976 0  -0.3410574591650666 -0.6656957300078659 0  -0.3834544680294736 -0.6392445601522708 0  -0.000657441246723359 -0.7552912651942141 0  -0.4626462682900286 -0.5830125747810375 0  -0.5002684669212559 -0.5553102351243183 0  -0.5368533992144731 -0.5281261880069118 0  -0.5725574800094489 -0.5018520978062972 0  -0.6077329287572687 -0.477003269081535 0  -0.64248929881581 -0.4537482618779036 0  -0.6769937893762521 -0.4329786975963913 0  0.6514873811010182 -0.4426890625183927 0  0.05053459971339414 -0.7504191455708862 0  0.1010143563747898 -0.7408117387103391 0  0.1503294045984978 -0.7268899564336747 0  0.198127563986108 -0.7091880319722513 0  0.2442507238083462 -0.6886666820135041 0  0.2886932515644069 -0.6659755639390761 0  0.331509965109218 -0.6417431848410406 0  0.3727826423733656 -0.6165420558637874 0  0.4127404429743769 -0.590996115568529 0  0.4515605159758967 -0.5655064334985931 0  0.4894222953836149 -0.5404104654579531 0  0.5264628272910247 -0.5160754025284054 0  0.5628624165886852 -0.4926901447422483 0  0.5987357276361615 -0.4707275328824829 0  0.6342905450121763 -0.4509893323564179 0  0.6163743092627311 -0.460834203185318 0  -0.659533538560534 -0.443248859448967 0  -0.590202324509731 -0.4893200953920934 0  -0.5186686751487096 -0.5416357147519879 0  -0.4433849158325495 -0.596916059179036 0  -0.3625052881989455 -0.652604046315712 0  -0.2737083808613272 -0.7009028726115489 0  -0.1779280798541827 -0.7344099192959981 0  -0.07763613201115806 -0.7533456492477457 0  0.5808312484368718 -0.4816576582446311 0  0.1258415324947217 -0.7343516366162612 0  0.2213996927712736 -0.6992404285312936 0  0.3102938427943961 -0.6540220730638108 0  0.3929179337547727 -0.6037911606208222 0  0.4705957969984153 -0.5529062048559337 0  0.5447495990701698 -0.5042951202906201 0  0.02499604108019444 -0.7534650954666768 0  -0.6937039525899225 -0.4241329975009446 0  0.5080217060263347 -0.5281203664049453 0  0.4322802289563733 -0.5782293280782531 0  0.3523262221552924 -0.6292074542260971 0  0.2666804863796332 -0.6775590134884253 0  0.1744417444561814 -0.718464756588631 0  0.07589411152786778 -0.7461857485306634 0  -0.02635772627408106 -0.7558949602188606 0  -0.1282983557449733 -0.7459993318349525 0  -0.2263219953858807 -0.7194554354152325 0  -0.3190974132923646 -0.6780923951872406 0  -0.4040599821755547 -0.6253983082665527 0  -0.4816004902588742 -0.569131299996374 0  -0.554806101610386 -0.5148350978666928 0  -0.6251153459173026 -0.4653142908004203 0  0.7910335656742425 -0.2542900981680736 0  0.7063677259877902 -0.4154158345588465 0  0.7531616605642872 -0.3729552977949456 0  0.7830310268507159 -0.3176570111855102 0  0.6793770340435074 -0.4295525092011787 0  0.7307637675977473 -0.3954179692536346 0  0.7665434118438459 -0.3440906441158934 0  0.786062450007345 -0.2855744449553734 0  0.6655948173501302 -0.4369647360525609 0  0.692811439434188 -0.4218741751365635 0  0.7186610624885553 -0.4055890868551077 0  0.7415903213291923 -0.3833815848320379 0  0.7615484810651451 -0.3594228974805547 0  0.7740660801389275 -0.3306927119002607 0  0.7838078034371478 -0.3013971088861361 0  0.7879620932162533 -0.2698065595455266 0  0.790367874086072 -0.2338522662070836 0  0.7948621591048173 0.2195862678831584 0  0.7947158069116083 0.1790601129268445 0  0.7958787589975145 0.1382997092205486 0  0.7975598763821838 0.09718982677885292 0  0.7994472772368683 0.05564006185521875 0  0.8001022519235766 0.01373928902256138 0  0.7996082694064214 -0.02824118582394599 0  0.7979707488851902 -0.07011318018895807 0  0.7952020511122291 -0.1115992812760545 0  0.7927070896278205 -0.1526557077211906 0  0.7907967385399312 -0.1933606746055069 0  0.796152074358403 0.2399689784952402 0  0.7945735805868933 0.1993400562554633 0  0.7966885447854513 0.1177925043033968 0  0.7999180068793905 0.03471253478326148 0  0.7989359942571564 -0.04920318343726607 0  0.7939233646570919 -0.1321779887308276 0  0.7903521326148456 -0.2136231910239487 0  0.7952055629919172 0.1587189926789548 0  0.7985727774344182 0.07648992851881571 0  0.7999943820939308 -0.007252614647040587 0  0.7966289902409782 -0.09093104042815277 0  0.791656400319391 -0.1730478366061004 0  0.6625674604232886 0.4305001694382611 0  0.7899198370659765 0.3036029504515474 0  0.7617091696796414 0.3597562709236216 0  0.7163289531676367 0.4029941322423959 0  0.7922787973368798 0.2714111471457271 0  0.7747204807605744 0.3307568890857017 0  0.7399699371626877 0.382395813505876 0  0.6897837584268294 0.4171301075165916 0  0.7938183109627881 0.2556053909922047 0  0.7905508480069512 0.2873176556352171 0  0.7817598941446514 0.3170101811317196 0  0.7694485987067164 0.3458540576743203 0  0.7504424889231662 0.3702730875855973 0  0.7282233042109689 0.3928100076177853 0  0.7029808709347423 0.4095164659375711 0  0.6762916108973007 0.4245188449210689 0  -0.03669823898322232 0.7760605998460111 0  0.6114977289025735 0.4600607146650887 0  0.5768378008426931 0.4833548548341846 0  0.5417153558966012 0.5082829367951044 0  0.5059835923309925 0.5345956685894955 0  0.4693387047903634 0.5618272594904281 0  0.4316073873996376 0.5896089629194201 0  0.3925918300120735 0.6175828957269431 0  0.3520475294551241 0.6454077652396167 0  0.3096795533790743 0.6722458297881008 0  0.2653982111420847 0.6975179648125359 0  0.2191294509043131 0.7205385748349685 0  0.1708629555866464 0.74069290898933 0  0.1207315628932818 0.7567854374110012 0  0.06911128564205096 0.768275854807178 0  0.01647311779494456 0.7746694841548708 0  0.6459233609504972 0.4392432458173794 0  -0.08971821181842383 0.7711956671815545 0  -0.1418020352020072 0.760794594235142 0  -0.1923553496016427 0.7454487896699633 0  -0.2407339049220744 0.7251242631105349 0  -0.2870106136714433 0.7028343044478383 0  -0.3313159933027635 0.6785065763694084 0  -0.3737517672070885 0.6527235852988182 0  -0.4144022221726932 0.6258710387991051 0  -0.4536054961571304 0.5990930436140577 0  -0.4916680435562255 0.5725641868382483 0  -0.5287625345226247 0.5465563593933217 0  -0.5650556089262204 0.521355591945932 0  -0.600689345492444 0.4972205904665661 0  -0.6358500174155924 0.4746456067334366 0  -0.6707607424590905 0.4544519624639524 0  -0.687637150950127 0.4459590860833982 0  -0.6531337739521161 0.4644951941697447 0  -0.5829501983281314 0.5091834977175225 0  -0.5103258623883091 0.5594832217703295 0  -0.4341483428295839 0.6124590809578125 0  -0.3527561055445819 0.6657393567738243 0  -0.2641162495565963 0.7142765130058022 0  -0.1672955467281039 0.7535954677614366 0  -0.06327692888507555 0.7743232699555416 0  0.0428918405903981 0.7721566721503558 0  0.1460091280775674 0.7492593721716585 0  0.2425126062594931 0.7093555843335525 0  0.3310912300609423 0.6589801794406822 0  0.4122705247362562 0.6035946538869634 0  0.487780469755045 0.5481238096589115 0  0.5593438429508721 0.4956983869598373 0  0.6285365361418598 0.4495801176720098 0  -0.6182907078293134 0.4858722258151186 0  -0.5469979847573728 0.5338506441286786 0  -0.4727692024526332 0.5857821075195415 0  -0.3943206416109896 0.6393903064603339 0  -0.3094025061545516 0.690881592850229 0  -0.2169437427403789 0.7358884845187718 0  -0.1159153147808446 0.7666354739970787 0  -0.01004048236666472 0.776073044252106 0  0.09508116080726747 0.7631401083992397 0  0.195264027162526 0.7310773774204089 0  0.2877847426457648 0.6851221490047595 0  0.3725450056969626 0.631563539675827 0  0.4506207277482726 0.5756746576350453 0  0.5239546642891538 0.5212946058183345 0  0.5941900772484442 0.4716299956312341 0  -0.824771829293884 0.2576058293031726 0  -0.7419879469426512 0.4189716763133972 0  -0.7881861053730899 0.3763899976294295 0  -0.817404597298436 0.3209034684543357 0  -0.7151804504693671 0.4329152845813219 0  -0.7660616499223896 0.3988270688740644 0  -0.8014506298007051 0.3475713237025209 0  -0.8202092201510961 0.288866209972766 0  -0.701532456542422 0.4401978633004593 0  -0.7285132973942586 0.4253711759892189 0  -0.7541030094573224 0.409039347130226 0  -0.7767367198499727 0.3868001881287375 0  -0.7963026338376722 0.3627422787105425 0  -0.8087795070777933 0.3340640334706602 0  -0.8181559064287156 0.3046806293702437 0  -0.8219892090291209 0.2731316286258401 0  -0.8238625422347918 0.2372541358641456 0  -0.827013694911517 -0.2143245011387723 0  -0.8267094010070866 -0.1739346510034091 0  -0.8278426638056627 -0.1333483826716087 0  -0.8295611013668935 -0.09243110174442384 0  -0.8315639065351237 -0.05109011431141004 0  -0.8323989949594325 -0.009387537364239019 0  -0.8321135081983664 0.03240190071148707 0  -0.8307113439015072 0.07409519930679187 0  -0.82815445019974 0.1154224898764546 0  -0.825866809772782 0.1563251511744146 0  -0.8241521422243981 0.1968923969004663 0  -0.8282389299650427 -0.2346953567145268 0  -0.8266301111703124 -0.1941418060717751 0  -0.8286675539230048 -0.1129368688428689 0  -0.8321233150999738 -0.03026204796294124 0  -0.8315533928823851 0.05327284117811252 0  -0.8269774918928483 0.1359213984502289 0  -0.823777588836793 0.2170878753371492 0  -0.8271783454801621 -0.1536777490678117 0  -0.8306141814803353 -0.07183551475612693 0  -0.8323918441866274 0.01150777934389285 0  -0.8294842416720303 0.09483330780095485 0  -0.824912995891901 0.1766459338255275 0  -0.8217024617742316 -0.2981523116205869 0  -0.7931107054229287 -0.3538924476656271 0  -0.7475168803136808 -0.3968587512675616 0  -0.8241568128405852 -0.2660319222888775 0  -0.8061570270337127 -0.3249961980241747 0  -0.7713215688950572 -0.3765511983503469 0  -0.7209440219220018 -0.4109949415278794 0  -0.8257142951597364 -0.2502590699846001 0  -0.822
[...]
<PointData  Vectors="f_45"> 
<DataArray  type="Float64"  Name="f_45"  NumberOfComponents="3" format="ascii">-6.7850801156120299e-02 2.1311623788622694e-01 0.0000000000000000e+00  -2.2259093296129645e-01 2.2244775636681327e-02 0.0000000000000000e+00  -2.1449141900887927e-01 6.3563569967269834e-02 0.0000000000000000e+00  -2.0072873894103749e-01 9.8863122787586424e-02 0.0000000000000000e+00  -1.8408961322497780e-01 1.2701782414892449e-01 0.0000000000000000e+00  -1.6418430057898761e-01 1.5164402632972829e-01 0.0000000000000000e+00  -1.3309900484442447e-01 1.7960390195891257e-01 0.0000000000000000e+00  -1.0869504741353495e-01 1.9537442285472092e-01 0.0000000000000000e+00  -9.0917441284716294e-02 2.0439350844471249e-01 0.0000000000000000e+00  -2.2269481778814995e-01 -2.1165061641132969e-02 0.0000000000000000e+00  -6.8966379290636329e-02 2.1270786655784898e-01 0.0000000000000000e+00  -6.4674940584543608e-02 2.1404959026688994e-01 0.0000000000000000e+00  -6.4819406736036519e-02 2.1400112359138490e-01 0.0000000000000000e+00  -7.1020505040820747e-02 2.1200143539483976e-01 0.0000000000000000e+00  -8.0313459404823637e-02 2.0861428142398342e-01 0.0000000000000000e+00  -9.2476295415802032e-02 2.0350892262104367e-01 0.0000000000000000e+00  -1.1348423513024956e-01 1.9324901356548710e-01 0.0000000000000000e+00  -1.5521125890711543e-01 -1.6119123658468892e-01 0.0000000000000000e+00  -2.1469260542459537e-01 -6.2799468963874491e-02 0.0000000000000000e+00  -1.9981398052930135e-01 -1.0051764342765834e-01 0.0000000000000000e+00  -1.8042593515223543e-01 -1.3218481720808986e-01 0.0000000000000000e+00  -1.5923635511691456e-01 -1.5705600345799095e-01 0.0000000000000000e+00  -1.4005855712717996e-01 -1.7435365523393118e-01 0.0000000000000000e+00  -1.2254222879969973e-01 -1.8706283628764325e-01 0.0000000000000000e+00  -1.0776556004286766e-01 -1.9593349037995911e-01 0.0000000000000000e+00  -9.7581317702322548e-02 -2.0119485722636249e-01 0.0000000000000000e+00  -9.0821432499225002e-02 -2.0433491118012917e-01 0.0000000000000000e+00  -8.7537260919456544e-02 -2.0576112979905065e-01 0.0000000000000000e+00  -8.7012341761172174e-02 -2.0598166915303770e-01 0.0000000000000000e+00  -9.1575558423745027e-02 -2.0398181020904416e-01 0.0000000000000000e+00  -9.7698088952519468e-02 -2.0105574266823534e-01 0.0000000000000000e+00  -1.0908802699736003e-01 -1.9501231001766622e-01 0.0000000000000000e+00  -1.2559675935003295e-01 -1.8527278635268954e-01 0.0000000000000000e+00  -1.1867486003795917e-01 -1.8960296005892430e-01 0.0000000000000000e+00  -1.0544283342532954e-01 1.9716239912424260e-01 0.0000000000000000e+00  -7.4267542490696836e-02 2.1096370418907123e-01 0.0000000000000000e+00  -6.4416103474756042e-02 2.1412864216795011e-01 0.0000000000000000e+00  -7.1677361809737855e-02 2.1180324953250060e-01 0.0000000000000000e+00  -9.7501211612270267e-02 2.0127018157603516e-01 0.0000000000000000e+00  -1.4657379250378391e-01 1.6920286598933668e-01 0.0000000000000000e+00  -1.9139882945427514e-01 1.1551730720095935e-01 0.0000000000000000e+00  -2.1938456444594820e-01 4.3615510721389784e-02 0.0000000000000000e+00  -1.0083266096635125e-01 -1.9970363420428835e-01 0.0000000000000000e+00  -1.9058740145935574e-01 -1.1708020210020822e-01 0.0000000000000000e+00  -1.4962611164702300e-01 -1.6619531178469510e-01 0.0000000000000000e+00  -1.1504729038322137e-01 -1.9175633094607455e-01 0.0000000000000000e+00  -9.3662018184049636e-02 -2.0304720200144225e-01 0.0000000000000000e+00  -8.7011062240619552e-02 -2.0598306606905906e-01 0.0000000000000000e+00  -9.2111181594135769e-02 -2.0379567667655779e-01 0.0000000000000000e+00  -2.1966791604382851e-01 -4.2207978395452532e-02 0.0000000000000000e+00  -1.4326777949015040e-01 1.7109198568344935e-01 0.0000000000000000e+00  -8.8519235147813749e-02 -2.0534601626019300e-01 0.0000000000000000e+00  -8.8726690254734661e-02 -2.0524931077498329e-01 0.0000000000000000e+00  -1.0186818222622748e-01 -1.9906531433577615e-01 0.0000000000000000e+00  -1.3097487814691491e-01 -1.8125335350415875e-01 0.0000000000000000e+00  -1.6939788390538654e-01 -1.4602347002896707e-01 0.0000000000000000e+00  -2.0801194710642656e-01 -8.2257001363068766e-02 0.0000000000000000e+00  -2.2368887718015593e-01 3.4165153717575825e-04 0.0000000000000000e+00  -2.0770504351392860e-01 8.2856132425974269e-02 0.0000000000000000e+00  -1.7976934792653018e-01 1.3325635548489603e-01 0.0000000000000000e+00  -1.2098184202893821e-01 1.8819458137584394e-01 0.0000000000000000e+00  -7.5246957461088518e-02 2.1047291619688660e-01 0.0000000000000000e+00  -6.6153549959853369e-02 2.1359802313346771e-01 0.0000000000000000e+00  -6.5806522442244247e-02 2.1372234625416939e-01 0.0000000000000000e+00  -8.4773787555031246e-02 2.0700290103515590e-01 0.0000000000000000e+00  2.1420420318491176e-01 -3.1986574033680347e-02 0.0000000000000000e+00  -9.6075469790579723e-02 -1.9375309946679647e-01 0.0000000000000000e+00  1.7482248115363159e-02 -2.2176503509691023e-01 0.0000000000000000e+00  1.5159892680065254e-01 -1.0683074720461426e-01 0.0000000000000000e+00  -1.0579314920924306e-01 -1.9841716560256481e-01 0.0000000000000000e+00  6.3609777152405695e-04 -2.1985948183062767e-01 0.0000000000000000e+00  1.6532779364891836e-01 -1.4251280272698807e-01 0.0000000000000000e+00  2.1169915129182118e-01 -6.1593153894021015e-02 0.0000000000000000e+00  -1.4728011935195548e-01 -1.6706241023018117e-01 0.0000000000000000e+00  -1.3996618415655865e-01 -1.7688700434155188e-01 0.0000000000000000e+00  -4.1987942643420026e-02 -2.2537307970233900e-01 0.0000000000000000e+00  -3.4830471570395137e-03 -2.2316974057839647e-01 0.0000000000000000e+00  1.6459900184739756e-01 -1.5770064206372902e-01 0.0000000000000000e+00  6.7735242262102355e-02 -2.3777803021153476e-01 0.0000000000000000e+00  2.3733911305373190e-01 -2.0337176371777448e-02 0.0000000000000000e+00  2.1150583571108164e-01 -8.0262487553001402e-02 0.0000000000000000e+00  2.2576538278555014e-01 2.1511834877176943e-02 0.0000000000000000e+00  2.2386092883842953e-01 -3.0162597099842339e-02 0.0000000000000000e+00  2.2352412177141878e-01 6.1645276533917248e-03 0.0000000000000000e+00  2.2299896937765118e-01 1.6364734096008589e-02 0.0000000000000000e+00  2.2264589411302388e-01 2.0590769717732882e-02 0.0000000000000000e+00  2.2312415895835896e-01 1.4510870451501141e-02 0.0000000000000000e+00  2.2360292548182809e-01 8.8419060872669988e-04 0.0000000000000000e+00  2.2331975880807700e-01 -1.1308603873227685e-02 0.0000000000000000e+00  2.2220084939876952e-01 -2.4936608420408204e-02 0.0000000000000000e+00  2.2166989056321160e-01 -2.9290199715110078e-02 0.0000000000000000e+00  2.2221149337994933e-01 -2.4893960184977814e-02 0.0000000000000000e+00  2.2326205689970705e-01 -1.3848814159378347e-02 0.0000000000000000e+00  2.1709895829463202e-01 1.3071271574254537e-02 0.0000000000000000e+00  2.2347941727718301e-01 3.5703527449698468e-03 0.0000000000000000e+00  2.2287796792368936e-01 1.8144743072928713e-02 0.0000000000000000e+00  2.2353295201136317e-01 6.6370135695581860e-03 0.0000000000000000e+00  2.2297228298601732e-01 -1.7133628937038681e-02 0.0000000000000000e+00  2.2197080728263927e-01 -2.7066168834296842e-02 0.0000000000000000e+00  2.2299216303322816e-01 -9.0097201934128089e-03 0.0000000000000000e+00  2.2322084541541856e-01 1.3485605917102779e-02 0.0000000000000000e+00  2.2257779920519180e-01 2.1638408857828102e-02 0.0000000000000000e+00  2.2355719633634372e-01 -5.2856306590156879e-03 0.0000000000000000e+00  2.2146402993938255e-01 -3.1017261456017128e-02 0.0000000000000000e+00  2.2255400987376525e-01 -2.1720522901423733e-02 0.0000000000000000e+00  -1.4420478527012254e-01 1.7073046317300974e-01 0.0000000000000000e+00  1.6276449830670800e-01 1.0177694761592358e-01 0.0000000000000000e+00  3.4665551183953036e-02 2.1425895032233427e-01 0.0000000000000000e+00  -8.5991245009918060e-02 1.9682947274188484e-01 0.0000000000000000e+00  2.1490228406063103e-01 4.9296443615532266e-02 0.0000000000000000e+00  1.6368756604227216e-01 1.4506347773259348e-01 0.0000000000000000e+00  1.0874449474490998e-02 2.1916988282887048e-01 0.0000000000000000e+00  -1.0392180427850724e-01 1.9881331394660928e-01 0.0000000000000000e+00  2.1695941017634160e-01 6.5682978013702029e-02 0.0000000000000000e+00  2.3673016184703924e-01 1.0886642529808456e-02 0.0000000000000000e+00  9.3288423596634654e-02 2.2351564973239485e-01 0.0000000000000000e+00  1.7003806357997076e-01 1.5705810943833642e-01 0.0000000000000000e+00  2.2570244804890937e-03 2.2482609334696535e-01 0.0000000000000000e+00  -2.7164755168260408e-02 2.2819555943270275e-01 0.0000000000000000e+00  -1.3922806574739555e-01 1.7873150517524167e-01 0.0000000000000000e+00  -1.4226945637199889e-01 1.7191970802047327e-01 0.0000000000000000e+00  -2.2314180630124453e-01 -1.4951638347426728e-02 0.0000000000000000e+00  -9.2628607684357656e-02 2.0337185196844107e-01 0.0000000000000000e+00  -7.9521684518177385e-02 2.0891120294917145e-01 0.0000000000000000e+00  -7.0259609302340542e-02 2.1225743483104703e-01 0.0000000000000000e+00  -6.4828358693420116e-02 2.1399902301814644e-01 0.0000000000000000e+00  -6.4811544998837484e-02 2.1400830184817476e-01 0.0000000000000000e+00  -6.8529940021427732e-02 2.1284937385141184e-01 0.0000000000000000e+00  -7.5157698522411512e-02 2.1060420152345583e-01 0.0000000000000000e+00  -8.7380631170921347e-02 2.0583749548879679e-01 0.0000000000000000e+00  -1.0393424817011054e-01 1.9800575870662182e-01 0.0000000000000000e+00  -1.2379274011490891e-01 1.8626333306720133e-01 0.0000000000000000e+00  -1.4533486023084244e-01 1.7002374267517303e-01 0.0000000000000000e+00  -1.7007300758619143e-01 1.4527818957351737e-01 0.0000000000000000e+00  -1.9260590276866110e-01 1.1373359292743673e-01 0.0000000000000000e+00  -2.1064680724545531e-01 7.5416376719612016e-02 0.0000000000000000e+00  -2.2132093816445214e-01 3.2763369592081135e-02 0.0000000000000000e+00  -1.1295623318292689e-01 1.9337034729257704e-01 0.0000000000000000e+00  -2.1424667089771873e-01 -6.4015537378537268e-02 0.0000000000000000e+00  -1.9622657646036901e-01 -1.0714612401357460e-01 0.0000000000000000e+00  -1.7417076912052343e-01 -1.4039496777208205e-01 0.0000000000000000e+00  -1.4525406254819198e-01 -1.7014450137800513e-01 0.0000000000000000e+00  -1.2888893639243862e-01 -1.8280850660808876e-01 0.0000000000000000e+00  -1.1078513979422609e-01 -1.9424732542592629e-01 0.0000000000000000e+00  -9.5591148210662891e-02 -2.0215739374132100e-01 0.0000000000000000e+00  -8.2785341526953937e-02 -2.0772679839404520e-01 0.0000000000000000e+00  -7.9031375510484461e-02 -2.0917699153572625e-01 0.0000000000000000e+00  -7.6382877142551361e-02 -2.1015626178777896e-01 0.0000000000000000e+00  -7.6778232382613013e-02 -2.1000904188295030e-01 0.0000000000000000e+00  -8.0700627158927757e-02 -2.0851747857981628e-01 0.0000000000000000e+00  -8.8410250249509797e-02 -2.0530472994604340e-01 0.0000000000000000e+00  -1.0085947516224954e-01 -1.9941143751257531e-01 0.0000000000000000e+00  -1.1964607789954888e-01 -1.8932095955387843e-01 0.0000000000000000e+00  -1.5039268605023878e-01 -1.6533675922438068e-01 0.0000000000000000e+00  -1.1206259961833541e-01 -1.9355362568676696e-01 0.0000000000000000e+00  -8.2183226006495247e-02 -2.0800481033478255e-01 0.0000000000000000e+00  -7.6039907241655422e-02 -2.1028169119356754e-01 0.0000000000000000e+00  -8.1538188803128520e-02 -2.0820760635689625e-01 0.0000000000000000e+00  -1.0290599733408472e-01 -1.9854609467831102e-01 0.0000000000000000e+00  -1.4044683683102210e-01 -1.7392750286080935e-01 0.0000000000000000e+00  -1.8598476010586520e-01 -1.2444551978768581e-01 0.0000000000000000e+00  -2.2000819071010363e-01 -4.1214775533109739e-02 0.0000000000000000e+00  -2.1722142539686107e-01 5.3148363632944479e-02 0.0000000000000000e+00  -1.8181713044176778e-01 1.3030456956554182e-01 0.0000000000000000e+00  -1.3490452008850962e-01 1.7834318261389495e-01 0.0000000000000000e+00  -9.5440309751101543e-02 2.0223675583253051e-01 0.0000000000000000e+00  -7.1709165693666255e-02 2.1179674712509705e-01 0.0000000000000000e+00  -6.4345711178842802e-02 2.1414974055575942e-01 0.0000000000000000e+00  -7.3256889997220520e-02 2.1131722771584333e-01 0.0000000000000000e+00  -1.0434928965661108e-01 1.9782835525518441e-01 0.0000000000000000e+00  -9.2286472657959487e-02 -2.0379479265712205e-01 0.0000000000000000e+00  -7.7825641661583539e-02 -2.0963583377255715e-01 0.0000000000000000e+00  -7.7224936714897829e-02 -2.0984843635785605e-01 0.0000000000000000e+00  -8.6985393431619706e-02 -2.0599757282438017e-01 0.0000000000000000e+00  -1.2002132735948837e-01 -1.8868148134282003e-01 0.0000000000000000e+00  -1.5453832770393364e-01 -1.6159603191406460e-01 0.0000000000000000e+00  -2.0668085044534165e-01 -8.5886707943268123e-02 0.0000000000000000e+00  -2.2335809214802119e-01 1.3084666355876932e-02 0.0000000000000000e+00  -2.0257976492250837e-01 9.4831693409276135e-02 0.0000000000000000e+00  -1.5675084744934425e-01 1.5951735516666793e-01 0.0000000000000000e+00  -1.1358751006350348e-01 1.9263251311742696e-01 0.0000000000000000e+00  -7.9958431332686597e-02 2.0883086192171246e-01 0.0000000000000000e+00  -6.6240046781069914e-02 2.1357056817098377e-01 0.0000000000000000e+00  -6.5780976327872567e-02 2.1372709852204749e-01 0.0000000000000000e+00  -8.3657341407702937e-02 2.0748600490261757e-01 0.0000000000000000e+00  2.1550498833318577e-01 -2.4486732469055358e-02 0.0000000000000000e+00  -9.3017595824850877e-02 -1.9429696684648781e-01 0.0000000000000000e+00  2.3806771898487400e-02 -2.1866600324815147e-01 0.0000000000000000e+00  1.5607424552439061e-01 -1.0559882784709736e-01 0.0000000000000000e+00  -1.0748310635455162e-01 -1.9716316953422439e-01 0.0000000000000000e+00  3.8140715950372621e-03 -2.1954434765705544e-01 0.0000000000000000e+00  1.6378944243770685e-01 -1.4459784007729873e-01 0.0000000000000000e+00  2.1291065122130950e-01 -5.7242107235634672e-02 0.0000000000000000e+00  -1.4720262991936661e-01 -1.6752909262241300e-01 0.0000000000000000e+00  -1.4190282585439210e-01 -1.7604574716600624e-01 0.0000000000000000e+00  -3.6873214294380549e-02 -2.2661635772191552e-01 0.0000000000000000e+00  -2.1282201241557526e-03 -2.2390375222288536e-01 0.0000000000000000e+00  1.6632265735038917e-01 -1.5848439276754797e-01 0.0000000000000000e+00  7.8113378183481366e-02 -2.3209082017663996e-01 0.0000000000000000e+00  2.3705901447622266e-01 -1.7258135626339023e-02 0.0000000000000000e+00  2.1364283138290227e-01 -7.5218537732172852e-02 0.0000000000000000e+00  2.2506914720302876e-01 2.4572344863514319e-02 0.0000000000000000e+00  2.2418362637862546e-01 -3.1270888239294928e-02 0.0000000000000000e+00  2.2358203053561063e-01 5.4234117981407804e-03 0.0000000000000000e+00  2.2298900267966751e-01 1.6509051344047995e-02 0.0000000000000000e+00  2.2258032577585146e-01 2.1277864485236053e-02 0.0000000000000000e+00  2.2299034719524613e-01 1.6422360131168174e-02 0.0000000000000000e+00  2.2358552170732668e-01 2.9297059199362998e-03 0.0000000000000000e+00  2.2342251231749255e-01 -9.0287959102119311e-03 0.0000000000000000e+00  2.2246811693916646e-01 -2.2418396384155281e-02 0.0000000000000000e+00  2.2191977679048250e-01 -2.7325656418825266e-02 0.0000000000000000e+00  2.2243522766266136e-01 -2.2793573158251926e-02 0.0000000000000000e+00  2.2333515887504651e-01 -1.1913388529349133e-02 0.0000000000000000e+00  2.1625807217042634e-01 1.7398595849746495e-02 0.0000000000000000e+00  2.2334264621179942e-01 1.4048150847329448e-03 0.0000000000000000e+00  2.2283531882230470e-01 1.8673711057214711e-02 0.0000000000000000e+00  2.2346599190405764e-01 8.5917313268211240e-03 0.0000000000000000e+00  2.2314858145508565e-01 -1.4673760809787943e-02 0.0000000000000000e+00  2.2222847453765598e-01 -2.4868544719665972e-02 0.0000000000000000e+00  2.2318809797641745e-01 -7.9691106773016000e-03 0.0000000000000000e+00  2.2322994436670598e-01 1.3226989773395073e-02 0.0000000000000000e+00  2.2244167419397079e-01 2.3001187357648285e-02 0.0000000000000000e+00  2.2359863857690793e-01 -3.0573257660902603e-03 0.0000000000000000e+00  2.2174992036218399e-01 -2.8912579581212725e-02 0.0000000000000000e+00  2.2275717490446983e-01 -1.9619700876247079e-02 0.0000000000000000e+00  1.5921260653282676e-01 1.0246264150314929e-01 0.0000000000000000e+00  2.8988973008605631e-02 2.1802244591959541e-01 0.0000000000000000e+00  -8.8745470719828412e-02 1.9623324784212373e-01 0.0000000000000000e+00  2.1439486843274821e-01 5.1066653919925112e-02 0.0000000000000000e+00  1.6636328726299560e-01 1.4205216775666404e-01 0.0000000000000000e+00  8.1287663426881270e-03 2.1927103028413669e-01 0.0000000000000000e+00  -1.0612850190829667e-01 1.9754469490855422e-01 0.0000000000000000e+00  2.1592394065827211e-01 6.8622077037681334e-02 0.0000000000000000e+00  2.3724091599967687e-01 1.2300324273184549e-02 0.0000000000000000e+00  8.5010813895095835e-02 2.2892308798455410e-01 0.0000000000000000e+00  1.6813802832272817e-01 1.5638171780894569e-01 0.0000000000000000e+00  3.8748871856285733e-03 2.2395694694353221e-01 0.0000000000000000e+00  -3.2730236570954752e-02 2.2727782148876283e-01 0.0000000000000000e+00  -1.3822054266481676e-01 1.7903800627367425e-01 0.0000000000000000e+00  -1.4585737677362282e-01 1.6926640415289584e-01 0.0000000000000000e+00  -1.3441168153068092e-01 -1.7876465182082771e-01 0.0000000000000000e+00  -1.3330904968997132e-01 -1.7959107445755423e-01 0.0000000000000000e+00  -2.1502482332812681e-01 6.1563207804097846e-02 0.0000000000000000e+00  -1.8232794767225231e-02 2.2295414345975353e-01 0.0000000000000000e+00  -1.6458300327451394e-02 2.2308907934594063e-01 0.0000000000000000e+00  -2.0854276051703705e-01 8.0853429562873155e-02 0.0000000000000000e+00  1.9372051741948290e-01 -1.1185358779396978e-01 0.0000000000000000e+00  1.9550133831543584e-01 -1.0869763772378113e-01 0.0000000000000000e+00  1.9894082696747237e-01 1.0225368695995272e-01 0.0000000000000000e+00  2.0057361776415150e-01 9.9011679095989166e-02 0.0000000000000000e+00  6.0094025199950780e-02 2.1550777146312575e-01 0.0000000000000000e+00  1.6452274680114903e-01 1.5165996741888510e-01 0.0000000000000000e+00  1.0452290204618357e-01 1.9807063746095729e-01 0.0000000000000000e+00  2.2158568346870947e-01 -3.1809159124254048e-02 0.0000000000000000e+00  2.0948041811369053e-01 -8.0308197380306021e-02 0.0000000000000000e+00  2.2355257949148702e-01 -8.2955145330324762e-03 0.0000000000000000e+00  -3.3784490730650062e-02 2.2168042174984373e-01 0.0000000000000000e+00  6.5215559193395223e-02 -2.1653843961134808e-01 0.0000000000000000e+00  -2.1783281673930460e-01 5.2326276059406991e-02 0.0000000000000000e+00  -1.5431737362789905e-01 1.6471605578633927e-01 0.0000000000000000e+00  -3.0133265891287189e-02 -2.2245288802463500e-01 0.0000000000000000e+00  8.3108283960823509e-02 2.0851401241903700e-01 0.0000000000000000e+00  2.1687690103905036e-01 -5.6215746181190553e-02 0.0000000000000000e+00  5.6976892167995799e-02 2.1635107626302655e-01 0.0000000000000000e+00  1.6298629427986003e-01 1.5330082136538889e-01 0.0000000000000000e+00  2.2368858988894158e-01 -2.3900732688339620e-03 0.0000000000000000e+00  1.5002342505979946e-01 -1.6602866920112694e-01 0.0000000000000000e+00  3.0932139007782682e-02 -2.2157785128058588e-01 0.0000000000000000e+00  -2.1320764748675591e-01 -6.7619151914217052e-02 0.0000000000000000e+00  4.4867974140539092e-02 -2.1917918419204097e-01 0.0000000000000000e+00  -3.6327700794594499e-02 -2.2071112373600887e-01 0.0000000000000000e+00  -1.1924725131395272e-01 1.8924207105106200e-01 0.0000000000000000e+00  5.6341434012426445e-02 -2.1664819804205257e-01 0.0000000000000000e+00  -2.0855654756679443e-01 -8.0801021281902932e-02 0.0000000000000000e+00  -1.2498391337307857e-01 1.8554282639372544e-01 0.0000000000000000e+00  1.3865916545481771e-01 -1.7563532237445395e-01 0.0000000000000000e+00  1.1312011316430355e-01 1.9324217537463614e-01 0.0000000000000000e+00  2.2303029764762894e-01 -1.9224978250400426e-02 0.0000000000000000e+00  -4.4500475612929781e-02 -2.1920457046891245e-01 0.0000000000000000e+00  1.0476327822592039e-01 -1.9763645731414964e-01 0.0000