<?xml version="1.0"?>
<VTKFile type="UnstructuredGrid"  version="0.1"  >
<UnstructuredGrid>
<Piece  NumberOfPoints="4153" NumberOfCells="8064">
<Points>
<DataArray  type="Float64"  NumberOfComponents="3"  format="ascii">-0.4200022915044353 -0.5767040434433444 0  -0.0491901931971602 -0.685824712140602 0  -0.0980897406961027 -0.6815332088275069 0  -0.1464417122251523 -0.6740239075548737 0  -0.1941296836434129 -0.6638988880424619 0  -0.2413673303541524 -0.6520798220633662 0  -0.2877727942814416 -0.6364123216116543 0  -0.3330326314550285 -0.6181967653627686 0  -0.3771213060493326 -0.5982208463252715 0  -2.550545884097725e-06 -0.6865221839790664 0  -0.4619759811204243 -0.5558058783721793 0  -0.5033039871442732 -0.5350835001078506 0  -0.5440555673818874 -0.5148316500924589 0  -0.5842958577293913 -0.4954130633491324 0  -0.6242228335981882 -0.4771209510897629 0  -0.6638197000208663 -0.4600225888731634 0  -0.7032121630065472 -0.4449057638143361 0  0.6827177093609735 -0.4613527609919932 0  0.04916263575235812 -0.6835961392970575 0  0.09799859383769784 -0.6771295781028175 0  0.1462244935381867 -0.6673864110271321 0  0.1936112262847883 -0.6547481107764276 0  0.240051139504132 -0.6399537158057053 0  0.2855408111898984 -0.6234899580060802 0  0.3301042866431004 -0.6058164871165963 0  0.3737834326165811 -0.5874151160460791 0  0.416703928940228 -0.5687200079899549 0  0.458963366308387 -0.5500604393815545 0  0.5006542112828942 -0.5316910157495542 0  0.5418483643865528 -0.5139513125350884 0  0.5826177751931445 -0.4969329743057074 0  0.6230075586839829 -0.481048028150621 0  0.6631393426178217 -0.466935699991764 0  0.6430005411648939 -0.4740009748705649 0  -0.6833949311515775 -0.4524822080301303 0  -0.604303891172847 -0.4861724419434892 0  -0.523739940664953 -0.5248926581888246 0  -0.4410520211662138 -0.5662212555349191 0  -0.3552228905538884 -0.6083258383210705 0  -0.2647077761844699 -0.6446153444582901 0  -0.1703681391264796 -0.6692755409311085 0  -0.07369487135551397 -0.6841103380263099 0  0.6028491485539417 -0.4889116957448492 0  0.1222032938565662 -0.6726431355214425 0  0.2169496753357285 -0.6475893760105297 0  0.3079329691482035 -0.6147867723495901 0  0.3953343689311619 -0.5780836672207145 0  0.4798721956490141 -0.5408376959308711 0  0.5622895874122766 -0.5053412750355344 0  0.02460209137682378 -0.6855112817129535 0  -0.7223598116330805 -0.4387457587695223 0  0.5212960076601343 -0.522720063237205 0  0.4379100358499488 -0.5593731430710331 0  0.3520434858702514 -0.5966615496582592 0  0.2629141445308031 -0.6319047041623294 0  0.1700379434940722 -0.6613895269000272 0  0.07364045729313742 -0.6807929802513002 0  -0.02461196695911334 -0.6866325259678726 0  -0.1223456198646397 -0.6781512686980885 0  -0.2177508476901969 -0.6583493961726008 0  -0.3105466412474638 -0.6275566613694206 0  -0.3987928426770179 -0.5875990170127484 0  -0.4827164808400071 -0.54540658368408 0  -0.564224941758485 -0.5049615257303753 0  -0.6440443421807537 -0.4685051484069235 0  0.8397916830455956 -0.2728536501003662 0  0.7441937625751286 -0.4388214258523616 0  0.7963798662928283 -0.3969449312414818 0  0.8300357484658939 -0.3394033273495523 0  0.7137737372323025 -0.4505060035724286 0  0.7710699714481433 -0.4189146948644698 0  0.8120124095028328 -0.3672577873822953 0  0.8341718243613702 -0.3057847775130213 0  0.6984499090820124 -0.4568710915565541 0  0.7289080664653339 -0.4442104371447242 0  0.7576889467377391 -0.4290315577684113 0  0.7833235840280032 -0.4071924868902823 0  0.8052570992232084 -0.3826734940391275 0  0.8205172907105938 -0.3531959763622739 0  0.8316447872448783 -0.3224307424733 0  0.8365138047968872 -0.2892232770393156 0  0.8391716971404263 -0.2513486931901352 0  0.8440195321608986 0.2226485526269127 0  0.843541947985567 0.1799708293757707 0  0.8441907882133517 0.1371961632596635 0  0.8453576200673246 0.09420886358091621 0  0.8467724613186075 0.05090682063457268 0  0.8471918929391775 0.00734767633765443 0  0.8466731355058416 -0.0362670489304119 0  0.8452243923461619 -0.07980306910806348 0  0.8428671665554407 -0.1230544466620334 0  0.8408226449328006 -0.165995579477215 0  0.8393645243274545 -0.2087181820110241 0  0.845187036015363 0.2441275601346387 0  0.8435935484082863 0.2013099502339251 0  0.8447343004704247 0.1157336876103741 0  0.847100408777693 0.02914346984325908 0  0.8460682437041629 -0.05805384309666354 0  0.8418023625169699 -0.1445583163252342 0  0.8390650907328133 -0.2300362806551007 0  0.8437809371439469 0.1586047406539561 0  0.8461176634402766 0.07261424713043498 0  0.8470458064234808 -0.01446103727436618 0  0.8440779164083672 -0.1014853060272153 0  0.8400019246095166 -0.1873789886212822 0  0.6933024737644069 0.4347606012800541 0  0.8370935663001022 0.3109816619462499 0  0.8049183417362535 0.3692877133121242 0  0.7539123979573906 0.4119689815542181 0  0.8405979581624246 0.2772326112644428 0  0.8201638972879245 0.3394193949425339 0  0.7801869530098187 0.3915198179805964 0  0.7238749201757479 0.423785260292282 0  0.842587925431162 0.2606109236567118 0  0.8384853705031862 0.2939579886049786 0  0.8282377577854654 0.3250801163983777 0  0.8133648875037657 0.3547565575294401 0  0.7921534927916504 0.3796805582455997 0  0.767093522931146 0.4018633370904894 0  0.7388175944492645 0.4174833005316492 0  0.7087570780163991 0.430104311133868 0  -0.03544702624115579 0.6939316836852805 0  0.6348159054785024 0.4558906489591768 0  0.5952673348762787 0.4729508803635109 0  0.5553479486574965 0.4912529125869519 0  0.5150310355889971 0.5106412345287044 0  0.4741468369620367 0.5308068934212348 0  0.4326123323415775 0.5514181422710219 0  0.390323702395181 0.5721968294455496 0  0.3471604425031803 0.5929212160165296 0  0.3029554934732659 0.6130043100996669 0  0.2576655997541241 0.6319980389386539 0  0.2112456983348416 0.6494279473908909 0  0.1636634165208789 0.664860536256995 0  0.1149812555733485 0.6773640590603579 0  0.06540393252533994 0.6865496031903613 0  0.01518401683588221 0.6920556473370819 0  0.6741524581365885 0.4407801724351499 0  -0.08608131384184572 0.6910047104273257 0  -0.1362008162180615 0.6837577759184564 0  -0.1853961394332356 0.6725552172017627 0  -0.233195604212123 0.6574094769733504 0  -0.2796307632671841 0.6407982136749582 0  -0.3248820967580737 0.6227737291056532 0  -0.3690311546086921 0.60371761513322 0  -0.4121251854565299 0.5839317140382694 0  -0.454405927422336 0.5643127031147657 0  -0.4960267660214761 0.5448993731469792 0  -0.5370871285084056 0.5259043155662918 0  -0.5776720028900827 0.5075511976130349 0  -0.6178387133332925 0.4900512288315124 0  -0.6576681344224061 0.473779709283881 0  -0.6973037549941289 0.459391167551126 0  -0.7166354198927519 0.4537116268215147 0  -0.6773982689918321 0.4665979647394554 0  -0.5978046784897108 0.4986873099800317 0  -0.5166215769095138 0.535338594897145 0  -0.4333517433735117 0.5741104908123328 0  -0.3470878320942878 0.6133429468095142 0  -0.256564690421904 0.6493153265098506 0  -0.1609365360847224 0.6785760898238792 0  -0.06079681978678342 0.6930039472960279 0  0.04035879636903403 0.6897939431333212 0  0.1394482478470566 0.6714878242044996 0  0.234597187530269 0.6409403586851294 0  0.3251876979642672 0.6030743869427443 0  0.4115674409053993 0.5618043624541645 0  0.4946611021271921 0.5206559595062102 0  0.5753587970612979 0.4819943750621289 0  0.6543935945983749 0.4483456810019386 0  -0.6377841182577185 0.4818294957198372 0  -0.5574329495353935 0.5166395188445616 0  -0.4752920224848753 0.5545664785158095 0  -0.390717379448533 0.5938574996184099 0  -0.3023987557601636 0.6319376923590622 0  -0.2095451832863154 0.6653721975716689 0  -0.1112319787852138 0.6878945812506533 0  -0.01006814935844227 0.6935364128026253 0  0.09029023835369396 0.6823969605921139 0  0.1876134727936044 0.6574678487055933 0  0.2804497561008421 0.622667782586239 0  0.3688690344788682 0.5825911027293552 0  0.453466900839591 0.5410761106896007 0  0.5352511154065921 0.5008095683180125 0  0.6150763101180886 0.4643309181998418 0  -0.8715111647717894 0.2653106171574695 0  -0.7776863596214285 0.4315252952837227 0  -0.8293658838100495 0.3895286221199465 0  -0.862395661133501 0.3318130696323709 0  -0.7474258166565502 0.443038839573006 0  -0.8042882088357862 0.4114833823819128 0  -0.8448594607914307 0.3598589509966657 0  -0.8663088220366943 0.2982288135513524 0  -0.7322035529595138 0.44925100910049 0  -0.7624746940313724 0.4368648317238161 0  -0.7910305151093276 0.4216401374557249 0  -0.8164186564038839 0.3997703797786748 0  -0.8380460936092118 0.3751754655849531 0  -0.8531838919242566 0.3457134802815762 0  -0.8639421749509935 0.3148650972546239 0  -0.8685306875857608 0.2816907888056842 0  -0.8706908196804063 0.2438878920918784 0  -0.8741406894341597 -0.2280836515593026 0  -0.8734907802854373 -0.1855611975720808 0  -0.8740888830387694 -0.1429818163459188 0  -0.8752863289284479 -0.1002099888998023 0  -0.876829172792245 -0.05713822376890386 0  -0.8774444104297071 -0.01379709263726901 0  -0.8771503380085094 0.02960847343529624 0  -0.8759510760282421 0.07294954901657816 0  -0.8738179038789865 0.1160277687021538 0  -0.8719888819548287 0.1588046798279854 0  -0.8707313807734 0.2013841672136508 0  -0.8752652245123123 -0.2495420305119449 0  -0.8736135511912465 -0.2068184012246471 0  -0.8746417358490336 -0.1216262456193661 0  -0.8772532871727226 -0.03548447156015141 0  -0.8766654001088022 0.05129586799127867 0  -0.8728589916318844 0.1374462310049595 0  -0.8705104922341147 0.2226344693220174 0  -0.8736963411959207 -0.1642895056639208 0  -0.876091834371328 -0.07873087387400754 0  -0.8774071323642337 0.007905734366051166 0  -0.8749255180186117 0.09454430782558754 0  -0.8712695691457241 0.1801135093366176 0  -0.866861744333188 -0.3161913081642034 0  -0.8342733306845709 -0.3740577645603252 0  -0.7830460942199661 -0.4163844770224031 0  -0.8704599403346025 -0.2825262168994273 0  -0.8495827743735955 -0.3443251373026288 0  -0.809485961355863 -0.3962691138231036 0  -0.7529749980554193 -0.4281303825989493 0  -0.8724695554778061 -0.2659470495414114 0  -0.868260891
[...]
<PointData  Vectors="f_45"> 
<DataArray  type="Float64"  Name="f_45"  NumberOfComponents="3" format="ascii">-1.3177626171153181e-01 1.8062211516615398e-01 0.0000000000000000e+00  -2.2247274566723613e-01 2.3004576697102402e-02 0.0000000000000000e+00  -2.1702024236872350e-01 5.4084556722352774e-02 0.0000000000000000e+00  -2.0892392397065038e-01 7.9871332878425169e-02 0.0000000000000000e+00  -2.0093296597760263e-01 9.8147852620892664e-02 0.0000000000000000e+00  -1.8825584212355143e-01 1.2058565915944364e-01 0.0000000000000000e+00  -1.6906559367694338e-01 1.4630752188645169e-01 0.0000000000000000e+00  -1.5332609699884248e-01 1.6273528211571253e-01 0.0000000000000000e+00  -1.4170262650324342e-01 1.7298345422284481e-01 0.0000000000000000e+00  -2.2342761620232943e-01 -1.0208124812099213e-02 0.0000000000000000e+00  -1.3410431016883803e-01 1.7892520954274796e-01 0.0000000000000000e+00  -1.3407219513789945e-01 1.7895400028099206e-01 0.0000000000000000e+00  -1.3608635232108440e-01 1.7742963513525248e-01 0.0000000000000000e+00  -1.4342223158120790e-01 1.7154015899130787e-01 0.0000000000000000e+00  -1.5018048508106815e-01 1.6558391142613577e-01 0.0000000000000000e+00  -1.6020253050724709e-01 1.5571471907873755e-01 0.0000000000000000e+00  -1.7164391956651651e-01 1.4311344050612440e-01 0.0000000000000000e+00  -1.9590028052018596e-01 -1.0994445634245624e-01 0.0000000000000000e+00  -2.1954072934825034e-01 -4.2708020176883355e-02 0.0000000000000000e+00  -2.1135124892071980e-01 -7.3134963567575817e-02 0.0000000000000000e+00  -2.0012665353953096e-01 -9.9821215972314692e-02 0.0000000000000000e+00  -1.8788159458343601e-01 -1.2129453825138864e-01 0.0000000000000000e+00  -1.7688150854054902e-01 -1.3682459188956150e-01 0.0000000000000000e+00  -1.6702631708719318e-01 -1.4868559787225641e-01 0.0000000000000000e+00  -1.5877620077501176e-01 -1.5745460350009013e-01 0.0000000000000000e+00  -1.5401948448801481e-01 -1.6210494106398521e-01 0.0000000000000000e+00  -1.5115631716252981e-01 -1.6477825384977862e-01 0.0000000000000000e+00  -1.5055300759626353e-01 -1.6532903040464833e-01 0.0000000000000000e+00  -1.5156922585304544e-01 -1.6439896510531743e-01 0.0000000000000000e+00  -1.5561447653876409e-01 -1.6056669784486013e-01 0.0000000000000000e+00  -1.6093754735447802e-01 -1.5516785556906934e-01 0.0000000000000000e+00  -1.6980269663940298e-01 -1.4518350544317532e-01 0.0000000000000000e+00  -1.8083162537944780e-01 -1.3070040712509959e-01 0.0000000000000000e+00  -1.7391885343717572e-01 -1.4097488846024114e-01 0.0000000000000000e+00  -1.6632469244727979e-01 1.4969340007504783e-01 0.0000000000000000e+00  -1.4563787047120227e-01 1.6972255053243052e-01 0.0000000000000000e+00  -1.3501246804085079e-01 1.7824617688819361e-01 0.0000000000000000e+00  -1.3568440950758959e-01 1.7775763107702555e-01 0.0000000000000000e+00  -1.4736674632501184e-01 1.6822672201802785e-01 0.0000000000000000e+00  -1.7729791360797509e-01 1.3648354426700224e-01 0.0000000000000000e+00  -2.0390064620130924e-01 9.1733595557371386e-02 0.0000000000000000e+00  -2.2020179055615247e-01 3.9118783491102913e-02 0.0000000000000000e+00  -1.6286626298460530e-01 -1.5338744919917771e-01 0.0000000000000000e+00  -2.0607225202616131e-01 -8.6909521725817410e-02 0.0000000000000000e+00  -1.8234393480609326e-01 -1.2944520250877803e-01 0.0000000000000000e+00  -1.6276191056175282e-01 -1.5333220290207947e-01 0.0000000000000000e+00  -1.5213585750350192e-01 -1.6387580638158092e-01 0.0000000000000000e+00  -1.5082137279083122e-01 -1.6508512977222706e-01 0.0000000000000000e+00  -1.5672941625101044e-01 -1.5952349287297199e-01 0.0000000000000000e+00  -2.2207570525037218e-01 -2.6525168707112998e-02 0.0000000000000000e+00  -1.9127175179347930e-01 1.1714552932168398e-01 0.0000000000000000e+00  -1.5367170203380340e-01 -1.6243791032217106e-01 0.0000000000000000e+00  -1.5053437876379133e-01 -1.6534635280172860e-01 0.0000000000000000e+00  -1.5608971041636019e-01 -1.6011762131024415e-01 0.0000000000000000e+00  -1.7169585872618673e-01 -1.4326194220057395e-01 0.0000000000000000e+00  -1.9374277882398111e-01 -1.1169348054430571e-01 0.0000000000000000e+00  -2.1592657815361610e-01 -5.8281262980440736e-02 0.0000000000000000e+00  -2.2356647270159888e-01 6.3075214606744239e-03 0.0000000000000000e+00  -2.1296885861265658e-01 6.8195635097685947e-02 0.0000000000000000e+00  -1.9848114316348744e-01 1.0318573859029440e-01 0.0000000000000000e+00  -1.6122677920211559e-01 1.5502851216593316e-01 0.0000000000000000e+00  -1.3206159635416392e-01 1.8046224367462294e-01 0.0000000000000000e+00  -1.3359537584110204e-01 1.7931225149235575e-01 0.0000000000000000e+00  -1.3882224729062684e-01 1.7530427717608377e-01 0.0000000000000000e+00  -1.5239310546246823e-01 1.6381135228043597e-01 0.0000000000000000e+00  2.1439726826343886e-01 -3.2609453577632341e-02 0.0000000000000000e+00  -1.2146596721634599e-01 -1.7482762794780832e-01 0.0000000000000000e+00  7.2411287625240694e-03 -2.1305699978617859e-01 0.0000000000000000e+00  1.4964174781572279e-01 -1.2079536864482693e-01 0.0000000000000000e+00  -1.4747400894914084e-01 -1.6877907928559846e-01 0.0000000000000000e+00  -2.7353877654300286e-02 -2.1755893794954281e-01 0.0000000000000000e+00  1.3745859388938528e-01 -1.6885631838897633e-01 0.0000000000000000e+00  2.1003631711310905e-01 -6.6148545911366402e-02 0.0000000000000000e+00  -1.7494998411203969e-01 -1.3762805386682767e-01 0.0000000000000000e+00  -1.8151087659165679e-01 -1.3830342849195823e-01 0.0000000000000000e+00  -6.0613852000825773e-02 -2.2265335657514107e-01 0.0000000000000000e+00  -4.1808523454837467e-02 -2.2282660857392692e-01 0.0000000000000000e+00  1.5163605771891805e-01 -1.7824303095142938e-01 0.0000000000000000e+00  6.5385318476697735e-02 -2.3311085334370549e-01 0.0000000000000000e+00  2.3507018591429468e-01 -3.4350546925259393e-02 0.0000000000000000e+00  2.0980276039367304e-01 -8.6360103895040161e-02 0.0000000000000000e+00  2.2578112326190630e-01 2.1055248811961559e-02 0.0000000000000000e+00  2.2419199372062515e-01 -2.9015107869797756e-02 0.0000000000000000e+00  2.2366794016887950e-01 1.2466275072583338e-03 0.0000000000000000e+00  2.2337940108755591e-01 1.0063523744225419e-02 0.0000000000000000e+00  2.2312512246941615e-01 1.4563044033783628e-02 0.0000000000000000e+00  2.2336599953557035e-01 1.0226045685870860e-02 0.0000000000000000e+00  2.2360521948120568e-01 -5.1292953764092047e-04 0.0000000000000000e+00  2.2338070715269129e-01 -1.0047106599789642e-02 0.0000000000000000e+00  2.2264160256382007e-01 -2.0683665528154326e-02 0.0000000000000000e+00  2.2234128693801666e-01 -2.3694068135293220e-02 0.0000000000000000e+00  2.2280885594670760e-01 -1.8892379250402633e-02 0.0000000000000000e+00  2.2353528190266639e-01 -9.2713492622371538e-03 0.0000000000000000e+00  2.1708748093428751e-01 1.6890649999592288e-02 0.0000000000000000e+00  2.2330961374252226e-01 -5.6193588501629946e-04 0.0000000000000000e+00  2.2328807113604285e-01 1.2036653830789437e-02 0.0000000000000000e+00  2.2358534625432261e-01 4.0319386355880966e-03 0.0000000000000000e+00  2.2314215083489589e-01 -1.4615880808037697e-02 0.0000000000000000e+00  2.2260317625012385e-01 -2.1218178602845326e-02 0.0000000000000000e+00  2.2300663237766100e-01 -5.9782934735276242e-03 0.0000000000000000e+00  2.2348350922963356e-01 7.3430155537916129e-03 0.0000000000000000e+00  2.2306764931672307e-01 1.5700047480185501e-02 0.0000000000000000e+00  2.2355072838651710e-01 -5.3372297384671266e-03 0.0000000000000000e+00  2.2217587961875615e-01 -2.5359112517525192e-02 0.0000000000000000e+00  2.2303178573143345e-01 -1.5823836670387798e-02 0.0000000000000000e+00  -1.9049162625496815e-01 1.1867980916474316e-01 0.0000000000000000e+00  1.5895728085798469e-01 1.1491861236638354e-01 0.0000000000000000e+00  1.9605259568595858e-02 2.0973387687540171e-01 0.0000000000000000e+00  -1.1356105247259005e-01 1.7881434770701166e-01 0.0000000000000000e+00  2.1285217232756157e-01 5.6683732732877690e-02 0.0000000000000000e+00  1.3942827423440854e-01 1.6769793904054855e-01 0.0000000000000000e+00  -1.9322103191546283e-02 2.1816719313846408e-01 0.0000000000000000e+00  -1.4653053905597649e-01 1.6907665723954118e-01 0.0000000000000000e+00  2.1505577299170198e-01 7.2764303836536343e-02 0.0000000000000000e+00  2.3507168796138539e-01 2.5849936299221554e-02 0.0000000000000000e+00  8.5066214852130548e-02 2.2393821383303791e-01 0.0000000000000000e+00  1.5585714907947648e-01 1.7564648886140846e-01 0.0000000000000000e+00  -3.5393209961835717e-02 2.2495818077750027e-01 0.0000000000000000e+00  -4.9180909268243769e-02 2.2583992864342745e-01 0.0000000000000000e+00  -1.8015837845271432e-01 1.4129134275823252e-01 0.0000000000000000e+00  -1.7327429887615306e-01 1.4015787664606175e-01 0.0000000000000000e+00  -2.2358355561042931e-01 -4.9386790906754763e-03 0.0000000000000000e+00  -1.6058237692003874e-01 1.5529431430469814e-01 0.0000000000000000e+00  -1.5010529281572163e-01 1.6565507040604729e-01 0.0000000000000000e+00  -1.4317858192578084e-01 1.7174197628278617e-01 0.0000000000000000e+00  -1.3713939761934429e-01 1.7661484541479938e-01 0.0000000000000000e+00  -1.3529540140956556e-01 1.7803135592779254e-01 0.0000000000000000e+00  -1.3557841468961768e-01 1.7781644977935432e-01 0.0000000000000000e+00  -1.3784357774349867e-01 1.7606682087112321e-01 0.0000000000000000e+00  -1.4282428556017357e-01 1.7205393460536184e-01 0.0000000000000000e+00  -1.5150801849496967e-01 1.6446674557125177e-01 0.0000000000000000e+00  -1.6218605907147185e-01 1.5396192524950733e-01 0.0000000000000000e+00  -1.7421042442929413e-01 1.4023048219453091e-01 0.0000000000000000e+00  -1.8869971535445515e-01 1.2002832753998999e-01 0.0000000000000000e+00  -2.0255376312932927e-01 9.4812906837010949e-02 0.0000000000000000e+00  -2.1399126377337305e-01 6.5135582633398623e-02 0.0000000000000000e+00  -2.2123589222337325e-01 3.3022644556356152e-02 0.0000000000000000e+00  -1.7314160061940659e-01 1.4086824941636944e-01 0.0000000000000000e+00  -2.1908130649072782e-01 -4.4815900201969870e-02 0.0000000000000000e+00  -2.0826015177751112e-01 -8.1387457734747995e-02 0.0000000000000000e+00  -1.9314165450644763e-01 -1.1269743169507740e-01 0.0000000000000000e+00  -1.7661137095763371e-01 -1.3719541316111980e-01 0.0000000000000000e+00  -1.6713348031711095e-01 -1.4859513420749954e-01 0.0000000000000000e+00  -1.5743981064583470e-01 -1.5879381879336352e-01 0.0000000000000000e+00  -1.4919029953965462e-01 -1.6655966010786560e-01 0.0000000000000000e+00  -1.4449379031502546e-01 -1.7064888099660408e-01 0.0000000000000000e+00  -1.4369212787900426e-01 -1.7132644301522018e-01 0.0000000000000000e+00  -1.4397632191185614e-01 -1.7108693420169135e-01 0.0000000000000000e+00  -1.4595625943589940e-01 -1.6939968220112148e-01 0.0000000000000000e+00  -1.4981513986698497e-01 -1.6598537137629304e-01 0.0000000000000000e+00  -1.5648511107671279e-01 -1.5964626424438486e-01 0.0000000000000000e+00  -1.6642587913957002e-01 -1.4901441078216379e-01 0.0000000000000000e+00  -1.7832163283557281e-01 -1.3416074302536959e-01 0.0000000000000000e+00  -1.9453916791084863e-01 -1.1211543815795452e-01 0.0000000000000000e+00  -1.7110100462172645e-01 -1.4438727623102499e-01 0.0000000000000000e+00  -1.5181469970487674e-01 -1.6421643011257137e-01 0.0000000000000000e+00  -1.4467317398942953e-01 -1.7049979393207343e-01 0.0000000000000000e+00  -1.4451571671927363e-01 -1.7063166560810394e-01 0.0000000000000000e+00  -1.5337951824188956e-01 -1.6272598786025735e-01 0.0000000000000000e+00  -1.7330759865363077e-01 -1.4126413041619926e-01 0.0000000000000000e+00  -2.0179959612215459e-01 -9.6629258498338241e-02 0.0000000000000000e+00  -2.2221141715042697e-01 -2.6175801527560303e-02 0.0000000000000000e+00  -2.1838287871424447e-01 4.8082262297642245e-02 0.0000000000000000e+00  -1.9593434965970177e-01 1.0784816650048264e-01 0.0000000000000000e+00  -1.6835711375231649e-01 1.4716747503235439e-01 0.0000000000000000e+00  -1.4703148774361974e-01 1.6847783515519177e-01 0.0000000000000000e+00  -1.3659245869366538e-01 1.7703807079388686e-01 0.0000000000000000e+00  -1.3603751618124532e-01 1.7746545907170361e-01 0.0000000000000000e+00  -1.4557652823748055e-01 1.6977348722824501e-01 0.0000000000000000e+00  -1.6570829112080215e-01 1.5052408517208454e-01 0.0000000000000000e+00  -1.5873977905217709e-01 -1.5767657663764817e-01 0.0000000000000000e+00  -1.4757653927027337e-01 -1.6799903830724033e-01 0.0000000000000000e+00  -1.4362777618708894e-01 -1.7137989972187964e-01 0.0000000000000000e+00  -1.4518638347068422e-01 -1.7006894294431688e-01 0.0000000000000000e+00  -1.6237119299274941e-01 -1.5374380462257001e-01 0.0000000000000000e+00  -1.8157244276045736e-01 -1.3059590840155871e-01 0.0000000000000000e+00  -2.1456299761508210e-01 -6.3384303153218691e-02 0.0000000000000000e+00  -2.2297544047692430e-01 1.7794122926034512e-02 0.0000000000000000e+00  -2.0880876104569562e-01 8.0103573883702900e-02 0.0000000000000000e+00  -1.8071553910293436e-01 1.3172740718754863e-01 0.0000000000000000e+00  -1.5660921150596763e-01 1.5961552567389245e-01 0.0000000000000000e+00  -1.3955824039748080e-01 1.7471363011176272e-01 0.0000000000000000e+00  -1.3513865696703342e-01 1.7815031019987723e-01 0.0000000000000000e+00  -1.3933322119287705e-01 1.7489893150724575e-01 0.0000000000000000e+00  -1.5249734335288248e-01 1.6372441805204882e-01 0.0000000000000000e+00  2.1574798716068228e-01 -2.6085143810112784e-02 0.0000000000000000e+00  -1.1912904585098451e-01 -1.7545474676546630e-01 0.0000000000000000e+00  1.1757051851682816e-02 -2.1131650146392311e-01 0.0000000000000000e+00  1.5368276127902664e-01 -1.1887933992021396e-01 0.0000000000000000e+00  -1.4944932130118335e-01 -1.6669593113011955e-01 0.0000000000000000e+00  -2.5055355622874011e-02 -2.1764213353684667e-01 0.0000000000000000e+00  1.3712171857705935e-01 -1.6929212923981321e-01 0.0000000000000000e+00  2.1105280354688633e-01 -6.2953131242484764e-02 0.0000000000000000e+00  -1.7599682139609010e-01 -1.3655925395248480e-01 0.0000000000000000e+00  -1.8306540446676725e-01 -1.3713125224569928e-01 0.0000000000000000e+00  -5.6522178573526927e-02 -2.2405300801212374e-01 0.0000000000000000e+00  -4.0707771730004561e-02 -2.2359339622878777e-01 0.0000000000000000e+00  1.5296180936503342e-01 -1.7793059746519080e-01 0.0000000000000000e+00  7.3918264111705434e-02 -2.2917735033610415e-01 0.0000000000000000e+00  2.3491897713287449e-01 -3.1471041280750366e-02 0.0000000000000000e+00  2.1202109640125003e-01 -8.1050669186494645e-02 0.0000000000000000e+00  2.2517321806909016e-01 2.3421915873143836e-02 0.0000000000000000e+00  2.2445884449246545e-01 -3.0419897605356273e-02 0.0000000000000000e+00  2.2370650089797151e-01 2.7163112609453259e-04 0.0000000000000000e+00  2.2338167229263595e-01 1.0034890843526045e-02 0.0000000000000000e+00  2.2307798668254911e-01 1.5254939402457889e-02 0.0000000000000000e+00  2.2326560636072731e-01 1.2204180898521304e-02 0.0000000000000000e+00  2.2359991777490404e-01 1.6197643379736281e-03 0.0000000000000000e+00  2.2347380616303628e-01 -7.6825659690818926e-03 0.0000000000000000e+00  2.2286413304270530e-01 -1.8122594503476416e-02 0.0000000000000000e+00  2.2254574833442572e-01 -2.1684037058244787e-02 0.0000000000000000e+00  2.2297804094183796e-01 -1.6757700935662170e-02 0.0000000000000000e+00  2.2357464145040032e-01 -7.3650725236880455e-03 0.0000000000000000e+00  2.1617628208394563e-01 2.0729918766802604e-02 0.0000000000000000e+00  2.2315156817917647e-01 -2.7088758971072777e-03 0.0000000000000000e+00  2.2326706425629700e-01 1.2441118698689795e-02 0.0000000000000000e+00  2.2353916175508148e-01 6.0658482107262745e-03 0.0000000000000000e+00  2.2329351143956513e-01 -1.2096933145615812e-02 0.0000000000000000e+00  2.2280256124759365e-01 -1.9017576145923993e-02 0.0000000000000000e+00  2.2316282631769443e-01 -4.6547527563666887e-03 0.0000000000000000e+00  2.2349303654759714e-01 6.8417955378465923e-03 0.0000000000000000e+00  2.2296267756458371e-01 1.7135250592053067e-02 0.0000000000000000e+00  2.2359382325135285e-01 -3.0285872851117251e-03 0.0000000000000000e+00  2.2241389573713802e-01 -2.3187097542646334e-02 0.0000000000000000e+00  2.2317565306515483e-01 -1.3760295658487015e-02 0.0000000000000000e+00  1.5548479373425569e-01 1.1617589923685294e-01 0.0000000000000000e+00  1.4585808628535856e-02 2.1216448516512440e-01 0.0000000000000000e+00  -1.1659249850384848e-01 1.7760491668506106e-01 0.0000000000000000e+00  2.1241998354145042e-01 5.7815918794964401e-02 0.0000000000000000e+00  1.4078235607233913e-01 1.6650047989040151e-01 0.0000000000000000e+00  -2.1781474733298077e-02 2.1790707785129493e-01 0.0000000000000000e+00  -1.4736668113084389e-01 1.6883966306554898e-01 0.0000000000000000e+00  2.1394834782861841e-01 7.5933172206147218e-02 0.0000000000000000e+00  2.3556087904081002e-01 2.7206988852969571e-02 0.0000000000000000e+00  7.7353391672801225e-02 2.2812902308549909e-01 0.0000000000000000e+00  1.5425611720916013e-01 1.7598630080861213e-01 0.0000000000000000e+00  -3.4576706801415252e-02 2.2429449234390483e-01 0.0000000000000000e+00  -5.4943024685842987e-02 2.2430387400398619e-01 0.0000000000000000e+00  -1.8028302991528622e-01 1.4046399378430602e-01 0.0000000000000000e+00  -1.7713863010878023e-01 1.3465602467497717e-01 0.0000000000000000e+00  -1.3801477173466301e-01 -1.7602604835508825e-01 0.0000000000000000e+00  -1.4037513182722375e-01 -1.7415779519039989e-01 0.0000000000000000e+00  -2.1497425292082803e-01 6.1744606278326772e-02 0.0000000000000000e+00  -3.2925336303732178e-02 2.2130044476292432e-01 0.0000000000000000e+00  -3.3170058134863199e-02 2.2126205297574161e-01 0.0000000000000000e+00  -2.0798562354657973e-01 8.2306673523451876e-02 0.0000000000000000e+00  1.8935662951014912e-01 -1.1912628733744673e-01 0.0000000000000000e+00  1.9066097152104242e-01 -1.1701370550506519e-01 0.0000000000000000e+00  1.9491217674840625e-01 1.0977129607760112e-01 0.0000000000000000e+00  1.9624581678827677e-01 1.0736899162604262e-01 0.0000000000000000e+00  3.1114797581996471e-02 2.2159921849048103e-01 0.0000000000000000e+00  1.6135975677811443e-01 1.5502820930761788e-01 0.0000000000000000e+00  1.1704490931549968e-01 1.9091130261737296e-01 0.0000000000000000e+00  2.2176291937252146e-01 -3.0366318204801731e-02 0.0000000000000000e+00  2.1235465646813109e-01 -7.1838085933433771e-02 0.0000000000000000e+00  2.2358105563006178e-01 -7.7828704179423100e-03 0.0000000000000000e+00  -2.8242489521299592e-03 2.2425653158196626e-01 0.0000000000000000e+00  9.3960244152511863e-02 -2.0528231356781135e-01 0.0000000000000000e+00  -2.1642687641206312e-01 5.8789342532665927e-02 0.0000000000000000e+00  -1.3245841742584064e-01 1.8333825347828223e-01 0.0000000000000000e+00  1.7061341716175992e-03 -2.2447349603113925e-01 0.0000000000000000e+00  1.1089935457748917e-01 1.9503158707124918e-01 0.0000000000000000e+00  2.1752051446650783e-01 -5.3287056860885355e-02 0.0000000000000000e+00  2.9185883841350364e-02 2.2185974208521239e-01 0.0000000000000000e+00  1.6108274005333592e-01 1.5530728610440317e-01 0.0000000000000000e+00  2.2368431879854128e-01 -3.4527580256623392e-03 0.0000000000000000e+00  1.4576588270746196e-01 -1.6978183439404221e-01 0.0000000000000000e+00  8.4444876982502646e-04 -2.2376742521714718e-01 0.0000000000000000e+00  -2.1253530978569468e-01 -6.9750050479359421e-02 0.0000000000000000e+00  1.4902516060656519e-02 -2.2326942970152380e-01 0.0000000000000000e+00  -5.6268527597835613e-02 -2.1652070552027236e-01 0.0000000000000000e+00  -1.2124293420678563e-01 1.8800945377421752e-01 0.0000000000000000e+00  6.8069006373405891e-02 -2.1325150337189755e-01 0.0000000000000000e+00  -2.0949387439545200e-01 -7.8366830069811627e-02 0.0000000000000000e+00  -1.2054410281343077e-01 1.8851111400666601e-01 0.0000000000000000e+00  1.3497695981816557e-01 -1.7848866579305520e-01 0.0000000000000000e+00  1.2593294791820547e-01 1.8512213287544801e-01 0.0000000000000000e+00  2.2289001998469704e-01 -2.0522301284317267e-02 0.0000000000000000e+00  -6.5243177840125011e-02 -2.1398554782420831e-01 0.0000000000000000e+00  8.1271158541291202e-02 -2.0843286329524555e-0