<?xml version="1.0"?>
<VTKFile type="UnstructuredGrid"  version="0.1"  >
<UnstructuredGrid>
<Piece  NumberOfPoints="4153" NumberOfCells="8064">
<Points>
<DataArray  type="Float64"  NumberOfComponents="3"  format="ascii">-0.4177982853532611 -0.5674407136875121 0  -0.04711151113254782 -0.6675294844492503 0  -0.09550192653014532 -0.6633500579618272 0  -0.1434146441903849 -0.6563142377960627 0  -0.1907825575832711 -0.6470186853134713 0  -0.2378368715324466 -0.6362810222875651 0  -0.2842479950110101 -0.6219896641443454 0  -0.3297340138636713 -0.6053548106179086 0  -0.3742689686798194 -0.5871118549631784 0  0.001556549415354502 -0.6684743660811926 0  -0.4606293460204018 -0.5484631336758365 0  -0.502933046142312 -0.5296411407135362 0  -0.5447734406268838 -0.5112717913955946 0  -0.586192755831913 -0.4937118193538954 0  -0.62734566722965 -0.4771857233456466 0  -0.6681867306164858 -0.4617396727503747 0  -0.7088291897059457 -0.4481228153106184 0  0.6924019549823861 -0.4664105249596054 0  0.05025089128693605 -0.666133796367384 0  0.0987176897069493 -0.6605607386006109 0  0.1467180238658817 -0.6519748739474218 0  0.1940517061446234 -0.6407158043563974 0  0.2406217206261953 -0.6274631270580414 0  0.2864221568962733 -0.612659394885974 0  0.331467267540566 -0.5967205390707342 0  0.3757876734350695 -0.5801065134397325 0  0.4194822316049671 -0.563203266068519 0  0.4626285220185245 -0.5463228666048471 0  0.50529728909273 -0.5296996433086024 0  0.5475447645007921 -0.5136663823965076 0  0.5894170702931379 -0.4982926245013781 0  0.6309420998837616 -0.4839728527036693 0  0.6722193664555719 -0.4712980257166886 0  0.6515257634926669 -0.4776499353815271 0  -0.6884119707657078 -0.4549860006209735 0  -0.6068104799686905 -0.4853585822594177 0  -0.5239020273651243 -0.5203972378087689 0  -0.4392664312824912 -0.5579303732498108 0  -0.3521197829558709 -0.5963431195081889 0  -0.261152996652026 -0.6294728131747803 0  -0.1671634008048757 -0.6519276119794605 0  -0.07135650096681691 -0.6658259392052082 0  0.6102169674458578 -0.4910461588381151 0  0.1227896038735523 -0.6566238120649084 0  0.2174323155107412 -0.6343101242999536 0  0.3090352660224316 -0.6048169651459798 0  0.397709902989253 -0.571670338448047 0  0.4840168673040843 -0.5379774583348385 0  0.5685299972473967 -0.5058763340737017 0  0.02591614712176782 -0.6677152878500188 0  -0.7286062230702633 -0.442674621386145 0  0.5264582539852978 -0.5215895253369356 0  0.4411192223809501 -0.5547480889330226 0  0.3537079782790351 -0.5884559476373983 0  0.2636178945619613 -0.620231203175835 0  0.1704814177086355 -0.6466418299763592 0  0.07452848789284296 -0.6637414525353122 0  -0.02279573270550873 -0.6684168330751368 0  -0.1195259685563211 -0.6601586269422468 0  -0.2143018507893682 -0.6419887719741612 0  -0.307109392238144 -0.613910031279831 0  -0.396226033738285 -0.577369489324751 0  -0.4818409700532928 -0.5390119987129131 0  -0.5655200083332415 -0.5023312770016111 0  -0.6477941064800635 -0.469393817181916 0  0.8539326942616294 -0.2776906198721681 0  0.755532245314677 -0.4450150103096336 0  0.8090850826676393 -0.4032407889772089 0  0.8437059198361109 -0.3450902960221438 0  0.7242493126007165 -0.4560997036236935 0  0.7830325790095554 -0.4250982430846696 0  0.8252934398551525 -0.3733269295573835 0  0.8481358709509571 -0.3110639196789877 0  0.7085323254466014 -0.4621969311446638 0  0.7398125658000186 -0.4501449905537546 0  0.7693303875704949 -0.4352171777397665 0  0.7956523802491294 -0.413451867545335 0  0.8180942422675794 -0.3887732936370736 0  0.8340485246595392 -0.3590867741674475 0  0.8455297819374766 -0.3279284132011841 0  0.8505987508384688 -0.2942892880931963 0  0.8533354620413772 -0.2558983201731782 0  0.8582595337825033 0.2238157544749936 0  0.8577191140054196 0.180550812324452 0  0.8582478257315712 0.1372194454300615 0  0.8592853485031589 0.09370796710070703 0  0.8605734223372492 0.04991360886966554 0  0.8609301975913819 0.00588703108996616 0  0.8604063732262029 -0.03818879586008213 0  0.8590107692687813 -0.08219354049666783 0  0.8567667343449848 -0.1259401582478015 0  0.8548374716230384 -0.1694064290642719 0  0.8534864397330033 -0.2126852757374292 0  0.859382774895794 0.2455901701022075 0  0.8578109183139123 0.2021800116398698 0  0.8587254307065796 0.1154908310344717 0  0.8608631381452075 0.02791480834889599 0  0.859820662355789 -0.06020808989393346 0  0.8557576875654489 -0.1477024626643415 0  0.8532162897920454 -0.2342918724121003 0  0.8579008364300684 0.1589022457609526 0  0.8599780663083345 0.07186222086483927 0  0.8607745435146195 -0.01615216192608056 0  0.8579184933642983 -0.1041185652172216 0  0.8540723238008566 -0.1910639790059639 0  0.7028358096855881 0.4364485969925687 0  0.8507831452304425 0.313303721203034 0  0.8175921117955706 0.3721954412264797 0  0.7651609658395875 0.4147801737624771 0  0.8545946325705014 0.2791410573787194 0  0.8334115792517456 0.3420887459219199 0  0.7920978221119275 0.3943368012058782 0  0.7342454169795789 0.4260320734922144 0  0.8567089093038723 0.2623008779147634 0  0.8523753530858708 0.2960843669994153 0  0.8417502421610142 0.3275886158942481 0  0.8262212395349772 0.3574941313097888 0  0.8044469008828599 0.3825652053380391 0  0.7786661401368558 0.4046777824468701 0  0.7496276712958536 0.4200514056485628 0  0.7187151710646038 0.4320833883529656 0  -0.03390414533314685 0.6724371658830622 0  0.6424819275968622 0.4554166261954913 0  0.6017027680573263 0.470863230441687 0  0.5605710759108581 0.4874443790076615 0  0.5190866479153164 0.5050238824222696 0  0.4771136226081594 0.523336329704907 0  0.4345907579502232 0.5420574459501649 0  0.391437894003153 0.5609292193863242 0  0.3475660283772911 0.5797596279164176 0  0.3028421165756977 0.5980290038198118 0  0.2572367321058104 0.6153225052659248 0  0.2107150586487602 0.6312215598729143 0  0.163243816266068 0.6453426754664688 0  0.1148709722595817 0.656827061803466 0  0.06576071117320413 0.6653266761149625 0  0.01611250287885237 0.6705175318368429 0  0.6830487104364364 0.4417673700978705 0  -0.0839509401656641 0.6699496550359182 0  -0.1335819690286562 0.6634793231227469 0  -0.1824395992947727 0.6533329515674769 0  -0.2301031383100463 0.6395449212114656 0  -0.2765987644429748 0.6244429024357799 0  -0.3221110289081512 0.6080967940547441 0  -0.3667167757821622 0.5908390303687248 0  -0.4104556611340795 0.5729533995888119 0  -0.4535400398730907 0.555257807247441 0  -0.4960852162200381 0.5377573716130873 0  -0.5381708021967527 0.5206468349815681 0  -0.5798606584959444 0.5041314056827964 0  -0.6211910716390782 0.4884096820769302 0  -0.6622144230954016 0.4738206649401754 0  -0.7030515960510723 0.4609648685305741 0  -0.7230154896317009 0.4560287287315021 0  -0.6825680233671442 0.4674205128007566 0  -0.6005681974056577 0.4961562593109302 0  -0.5171813319519684 0.5291429108089046 0  -0.432069455918482 0.5640968840517289 0  -0.3445218181029448 0.5995567240471601 0  -0.2534786640950819 0.63218235618029 0  -0.1581285448362835 0.6588074049137619 0  -0.05895225313607829 0.6716856201223194 0  0.04099138515922409 0.6683629589917072 0  0.1391607915112262 0.6514232425929195 0  0.234090581732751 0.6234746957701622 0  0.3253099034765192 0.5889961878784388 0  0.4130969734936392 0.5514912633951473 0  0.4981617184749013 0.5141185746671558 0  0.5811844178570311 0.47905076900121 0  0.6626982918373008 0.4486227951168885 0  -0.6417353902439965 0.4810224256088134 0  -0.5590606113650702 0.5123067491942721 0  -0.4748742633138715 0.5464701185921063 0  -0.3886988470304554 0.5819129170597578 0  -0.299472469935525 0.6164045167464249 0  -0.2064835045002783 0.6467764639639533 0  -0.1088415840380926 0.6671910635201962 0  -0.008836544596050227 0.6719744736293053 0  0.0903967106007713 0.6614729341511338 0  0.1871103794524508 0.6385702803883654 0  0.2801522276568199 0.6068243346496822 0  0.3696052980337686 0.5703685305476193 0  0.4559254793603265 0.5326634800384522 0  0.539880627719957 0.4961003585550909 0  0.6221302252376534 0.4630459749771647 0  -0.8825218048127569 0.2675413642574492 0  -0.7857747010765568 0.4350415984151174 0  -0.8388773061194985 0.3931863016957707 0  -0.8729129599087903 0.3348887952944312 0  -0.7546319266463246 0.4459398921527286 0  -0.8130313893280673 0.415016828654207 0  -0.8549581141343631 0.3632951399920983 0  -0.877133654675867 0.3008996056094352 0  -0.7390006354724512 0.4518650746044002 0  -0.7701206921220262 0.4401144944517769 0  -0.7994383221841499 0.42516442935933 0  -0.8255434952974208 0.4033876810285542 0  -0.8477174251643279 0.3786531878042502 0  -0.8635442333309572 0.3489833458291553 0  -0.8746717084538362 0.317751462110092 0  -0.8794810002087621 0.2841483637152502 0  -0.8817393624211219 0.245832140065985 0  -0.8852397550258078 -0.231734731905764 0  -0.8845282843378045 -0.1886364786790971 0  -0.8850045810927176 -0.1455132599861382 0  -0.8860753741803692 -0.1022312356787189 0  -0.8875012146508149 -0.05868076733857339 0  -0.8880613999898765 -0.01488491465970023 0  -0.8877672824063652 0.02896960782057296 0  -0.8866229572651857 0.07276780524027301 0  -0.8846018866011469 0.1163298875240607 0  -0.8828881040011565 0.1596220545553426 0  -0.8817373198440045 0.2027502039038947 0  -0.886322134789201 -0.2534834506941126 0  -0.8846910733097565 -0.2101780835642165 0  -0.8854920686736304 -0.1238984288783919 0  -0.8878911493449358 -0.03679800389965755 0  -0.887302972149926 0.05088364367321142 0  -0.8836986505292883 0.1380016511279868 0  -0.8815469688133551 0.2242861420542652 0  -0.8846751938957996 -0.1670885398777313 0  -0.8868181859155529 -0.08050803600865503 0  -0.8880173856971082 0.007042245476999588 0  -0.8856509775349036 0.09459958761623466 0  -0.8822247952850534 0.18120095304662 0  -0.8773898950812601 -0.3209735309561035 0  -0.8437448252531784 -0.379395253272938 0  -0.7910509735217457 -0.4215595476589204 0  -0.8813066732959951 -0.2869044309390731 0  -0.8596524430454057 -0.3494459513024508 0  -0.8181742780702037 -0.4014869651165999 0  -0.7600829084430044 -0.4326930113283161 0  -0.8834458703499501 -0.2701118477938351 0  -0.87900171606765
[...]
<PointData  Vectors="f_45"> 
<DataArray  type="Float64"  Name="f_45"  NumberOfComponents="3" format="ascii">-1.4742030761345723e-01 1.6808357824748918e-01 0.0000000000000000e+00  -2.2237092931756669e-01 2.3882219043728659e-02 0.0000000000000000e+00  -2.1750987323878765e-01 5.2031968855228608e-02 0.0000000000000000e+00  -2.1069812099945434e-01 7.5015320373075012e-02 0.0000000000000000e+00  -2.0455480107927662e-01 9.0339553885810261e-02 0.0000000000000000e+00  -1.9368825081807173e-01 1.1167420043836980e-01 0.0000000000000000e+00  -1.7750160783706809e-01 1.3595968210476986e-01 0.0000000000000000e+00  -1.6412165388763547e-01 1.5184566364118346e-01 0.0000000000000000e+00  -1.5419054706779972e-01 1.6192826286636072e-01 0.0000000000000000e+00  -2.2355878779237806e-01 -6.4546375160319802e-03 0.0000000000000000e+00  -1.4963430144903964e-01 1.6615532867488467e-01 0.0000000000000000e+00  -1.5031638812379239e-01 1.6554439051426595e-01 0.0000000000000000e+00  -1.5240025351465442e-01 1.6363341840093984e-01 0.0000000000000000e+00  -1.5933411769076083e-01 1.5687818126012240e-01 0.0000000000000000e+00  -1.6504396832438409e-01 1.5078223733470231e-01 0.0000000000000000e+00  -1.7400866815255059e-01 1.4010115940825063e-01 0.0000000000000000e+00  -1.8304574383293895e-01 1.2793433670702301e-01 0.0000000000000000e+00  -2.0256769737261190e-01 -9.7133839857941745e-02 0.0000000000000000e+00  -2.2067100875740672e-01 -3.6373699093379071e-02 0.0000000000000000e+00  -2.1408588106981266e-01 -6.4674121768024798e-02 0.0000000000000000e+00  -2.0481045326034331e-01 -8.9806552606020218e-02 0.0000000000000000e+00  -1.9465830114526805e-01 -1.1008092119253493e-01 0.0000000000000000e+00  -1.8551454037649823e-01 -1.2486359176011197e-01 0.0000000000000000e+00  -1.7734938805208281e-01 -1.3620433687953157e-01 0.0000000000000000e+00  -1.7050407142462320e-01 -1.4467196799830639e-01 0.0000000000000000e+00  -1.6676327126591936e-01 -1.4896267066284066e-01 0.0000000000000000e+00  -1.6456465939879775e-01 -1.5138844324184125e-01 0.0000000000000000e+00  -1.6429046374423237e-01 -1.5168551937621691e-01 0.0000000000000000e+00  -1.6537644694849180e-01 -1.5050237791862212e-01 0.0000000000000000e+00  -1.6893052816314319e-01 -1.4649534326387270e-01 0.0000000000000000e+00  -1.7368884548145841e-01 -1.4076161679227020e-01 0.0000000000000000e+00  -1.8152387104783968e-01 -1.3024392652326144e-01 0.0000000000000000e+00  -1.9107433338339444e-01 -1.1500277706015516e-01 0.0000000000000000e+00  -1.8445322565091019e-01 -1.2693544839362059e-01 0.0000000000000000e+00  -1.7843334412047490e-01 1.3507525291758285e-01 0.0000000000000000e+00  -1.6115893305941587e-01 1.5505244150249481e-01 0.0000000000000000e+00  -1.5132574100857304e-01 1.6462201801777654e-01 0.0000000000000000e+00  -1.5106419326167736e-01 1.6489023588418569e-01 0.0000000000000000e+00  -1.5941862228554421e-01 1.5685191957596561e-01 0.0000000000000000e+00  -1.8439443848169779e-01 1.2668759296903401e-01 0.0000000000000000e+00  -2.0664332375260899e-01 8.5393127175427630e-02 0.0000000000000000e+00  -2.2030264740585978e-01 3.8505706796114224e-02 0.0000000000000000e+00  -1.7531225419670055e-01 -1.3898119127221109e-01 0.0000000000000000e+00  -2.0974848532596807e-01 -7.7600546287445338e-02 0.0000000000000000e+00  -1.9005341249500493e-01 -1.1783195926021794e-01 0.0000000000000000e+00  -1.7377938995031106e-01 -1.4072047842785551e-01 0.0000000000000000e+00  -1.6525287454939031e-01 -1.5063882069127979e-01 0.0000000000000000e+00  -1.6459503173233522e-01 -1.5135624035165074e-01 0.0000000000000000e+00  -1.7006543621606776e-01 -1.4521411758947203e-01 0.0000000000000000e+00  -2.2261658886182462e-01 -2.1442058892733339e-02 0.0000000000000000e+00  -1.9968612882415229e-01 1.0262953005499356e-01 0.0000000000000000e+00  -1.6737823548963435e-01 -1.4827415490634310e-01 0.0000000000000000e+00  -1.6414681852994759e-01 -1.5184166390523193e-01 0.0000000000000000e+00  -1.6843636603731632e-01 -1.4707287378374687e-01 0.0000000000000000e+00  -1.8120323651868334e-01 -1.3102753999568578e-01 0.0000000000000000e+00  -1.9951998839513690e-01 -1.0100465249114007e-01 0.0000000000000000e+00  -2.1779447931369070e-01 -5.0826596286435648e-02 0.0000000000000000e+00  -2.2347987922459850e-01 8.6576541296431719e-03 0.0000000000000000e+00  -2.1407526365128196e-01 6.4634700860128749e-02 0.0000000000000000e+00  -2.0254342769903649e-01 9.4926688595943137e-02 0.0000000000000000e+00  -1.7080370261253375e-01 1.4438918850432433e-01 0.0000000000000000e+00  -1.4621506997646233e-01 1.6921997947935269e-01 0.0000000000000000e+00  -1.4957209333282170e-01 1.6621917414990622e-01 0.0000000000000000e+00  -1.5526498723430426e-01 1.6091685684042389e-01 0.0000000000000000e+00  -1.6670544908135698e-01 1.4922643004163982e-01 0.0000000000000000e+00  2.1446042651683206e-01 -3.2891201681540062e-02 0.0000000000000000e+00  -1.2661147598337008e-01 -1.7010653800593747e-01 0.0000000000000000e+00  5.1712952307598212e-03 -2.1095443453111482e-01 0.0000000000000000e+00  1.4907770623752006e-01 -1.2403222942148841e-01 0.0000000000000000e+00  -1.5624633904052893e-01 -1.6024628495963605e-01 0.0000000000000000e+00  -3.3801747422880973e-02 -2.1651306501554698e-01 0.0000000000000000e+00  1.3037487617939977e-01 -1.7433652260738672e-01 0.0000000000000000e+00  2.0958629324067896e-01 -6.7454676812863185e-02 0.0000000000000000e+00  -1.8034596023263183e-01 -1.3085741106859075e-01 0.0000000000000000e+00  -1.8951232807408605e-01 -1.2833910623767880e-01 0.0000000000000000e+00  -6.4564753926358229e-02 -2.2193147305081007e-01 0.0000000000000000e+00  -5.0782295228283217e-02 -2.2192757880110181e-01 0.0000000000000000e+00  1.4794449380878866e-01 -1.8261043007812378e-01 0.0000000000000000e+00  6.5181846325656476e-02 -2.3201102112561323e-01 0.0000000000000000e+00  2.3428404401191508e-01 -3.7831300531056364e-02 0.0000000000000000e+00  2.0931913090980636e-01 -8.7858487987877501e-02 0.0000000000000000e+00  2.2579040257414396e-01 2.0681054559726571e-02 0.0000000000000000e+00  2.2429109483196052e-01 -2.8436743756412176e-02 0.0000000000000000e+00  2.2368418146851798e-01 2.3000311041203905e-04 0.0000000000000000e+00  2.2344219105592997e-01 8.5997645589584309e-03 0.0000000000000000e+00  2.2321931674847520e-01 1.3057215136669843e-02 0.0000000000000000e+00  2.2341493730773945e-01 9.1202670777159826e-03 0.0000000000000000e+00  2.2360440531756035e-01 -8.5793473718021214e-04 0.0000000000000000e+00  2.2339621028184217e-01 -9.6993049798357305e-03 0.0000000000000000e+00  2.2274478417942176e-01 -1.9553096785620925e-02 0.0000000000000000e+00  2.2249021484494155e-01 -2.2261768843983586e-02 0.0000000000000000e+00  2.2292667586053877e-01 -1.7467111206743560e-02 0.0000000000000000e+00  2.2358056115162817e-01 -8.2975729264130865e-03 0.0000000000000000e+00  2.1708501160405141e-01 1.8010838578265694e-02 0.0000000000000000e+00  2.2326611818734449e-01 -1.3232239896495044e-03 0.0000000000000000e+00  2.2336137626043401e-01 1.0570698496874080e-02 0.0000000000000000e+00  2.2359409414138798e-01 3.3714034640939276e-03 0.0000000000000000e+00  2.2318328812151511e-01 -1.3940874891172931e-02 0.0000000000000000e+00  2.2273455636910294e-01 -1.9781843710839315e-02 0.0000000000000000e+00  2.2300484431042425e-01 -5.4389203997375034e-03 0.0000000000000000e+00  2.2351909488018151e-01 5.9744306945341665e-03 0.0000000000000000e+00  2.2316821203786699e-01 1.4170695319320773e-02 0.0000000000000000e+00  2.2354971617671865e-01 -5.3316393221289355e-03 0.0000000000000000e+00  2.2233934837881283e-01 -2.3867908784876803e-02 0.0000000000000000e+00  2.2311915041801686e-01 -1.4476460672373084e-02 0.0000000000000000e+00  -1.9828358450086397e-01 1.0529329103778591e-01 0.0000000000000000e+00  1.5794256625777378e-01 1.1805513615379654e-01 0.0000000000000000e+00  1.6397036911478965e-02 2.0849960886965380e-01 0.0000000000000000e+00  -1.1921916816439157e-01 1.7424832874881407e-01 0.0000000000000000e+00  2.1229399734027837e-01 5.8643652591864485e-02 0.0000000000000000e+00  1.3325332949051705e-01 1.7254260928743118e-01 0.0000000000000000e+00  -2.6271215442732032e-02 2.1734751335631022e-01 0.0000000000000000e+00  -1.5536748480157012e-01 1.6063072470636000e-01 0.0000000000000000e+00  2.1449374358391393e-01 7.4591944924907630e-02 0.0000000000000000e+00  2.3444791242901220e-01 2.9605812999974765e-02 0.0000000000000000e+00  8.3351405594240716e-02 2.2391576591044510e-01 0.0000000000000000e+00  1.5205736718326804e-01 1.7972378959672336e-01 0.0000000000000000e+00  -4.4209371495171887e-02 2.2416865026600497e-01 0.0000000000000000e+00  -5.3918889140983910e-02 2.2508525602086074e-01 0.0000000000000000e+00  -1.8802534937053994e-01 1.3167628316338190e-01 0.0000000000000000e+00  -1.7916082053938864e-01 1.3279285644401587e-01 0.0000000000000000e+00  -2.2361756110085462e-01 -2.8086196906330465e-03 0.0000000000000000e+00  -1.7396639978551309e-01 1.4013994071053967e-01 0.0000000000000000e+00  -1.6463848519319774e-01 1.5123028088432305e-01 0.0000000000000000e+00  -1.5871161750712312e-01 1.5750482380944417e-01 0.0000000000000000e+00  -1.5310712733215784e-01 1.6296867629602538e-01 0.0000000000000000e+00  -1.5124722772894170e-01 1.6469461211087208e-01 0.0000000000000000e+00  -1.5109529001051972e-01 1.6483421032917284e-01 0.0000000000000000e+00  -1.5266579126919691e-01 1.6338085855022821e-01 0.0000000000000000e+00  -1.5623375651515509e-01 1.5997485437557360e-01 0.0000000000000000e+00  -1.6320466130748659e-01 1.5286391424850826e-01 0.0000000000000000e+00  -1.7181172270165537e-01 1.4313413221837043e-01 0.0000000000000000e+00  -1.8163042582837247e-01 1.3046448216647849e-01 0.0000000000000000e+00  -1.9363711114198351e-01 1.1187382452934073e-01 0.0000000000000000e+00  -2.0533054809156301e-01 8.8620786336729401e-02 0.0000000000000000e+00  -2.1506259983416542e-01 6.1457843843281131e-02 0.0000000000000000e+00  -2.2133121897222888e-01 3.2293147461733465e-02 0.0000000000000000e+00  -1.8451370009761089e-01 1.2536157703335904e-01 0.0000000000000000e+00  -2.2002819409756108e-01 -3.9915551978796593e-02 0.0000000000000000e+00  -2.1090729498566910e-01 -7.4274630665872365e-02 0.0000000000000000e+00  -1.9766311638581396e-01 -1.0453849224459917e-01 0.0000000000000000e+00  -1.8407318809954668e-01 -1.2698683706888966e-01 0.0000000000000000e+00  -1.7630509204318304e-01 -1.3757647512534391e-01 0.0000000000000000e+00  -1.6859529043740390e-01 -1.4689408792356193e-01 0.0000000000000000e+00  -1.6199173137594045e-01 -1.5413625456234650e-01 0.0000000000000000e+00  -1.5899933972514657e-01 -1.5722081774174734e-01 0.0000000000000000e+00  -1.5864536847562088e-01 -1.5758084922656410e-01 0.0000000000000000e+00  -1.5931767050120421e-01 -1.5690075012059607e-01 0.0000000000000000e+00  -1.6133400994872887e-01 -1.5482601782725294e-01 0.0000000000000000e+00  -1.6479770856725565e-01 -1.5112494835799661e-01 0.0000000000000000e+00  -1.7070563456998214e-01 -1.4435340882416492e-01 0.0000000000000000e+00  -1.7947209629885388e-01 -1.3302074206412515e-01 0.0000000000000000e+00  -1.8948767883403042e-01 -1.1760699588555039e-01 0.0000000000000000e+00  -2.0196417331088251e-01 -9.8206332880531405e-02 0.0000000000000000e+00  -1.8267601862927776e-01 -1.2949276775143323e-01 0.0000000000000000e+00  -1.6673488756864813e-01 -1.4903501183441875e-01 0.0000000000000000e+00  -1.6009292833987582e-01 -1.5611119361252609e-01 0.0000000000000000e+00  -1.5917125037286656e-01 -1.5704970952398506e-01 0.0000000000000000e+00  -1.6540575746968506e-01 -1.5048181996074672e-01 0.0000000000000000e+00  -1.8125036287280433e-01 -1.3092740541550701e-01 0.0000000000000000e+00  -2.0535659185790414e-01 -8.8783398496403154e-02 0.0000000000000000e+00  -2.2258742019986869e-01 -2.2553406900700141e-02 0.0000000000000000e+00  -2.1884979875220537e-01 4.5898563954015807e-02 0.0000000000000000e+00  -1.9975123884142243e-01 1.0058498128902738e-01 0.0000000000000000e+00  -1.7684352992859301e-01 1.3685092523543976e-01 0.0000000000000000e+00  -1.5960178308440451e-01 1.5661860607466449e-01 0.0000000000000000e+00  -1.5176957066994401e-01 1.6421323812588021e-01 0.0000000000000000e+00  -1.5205098380255375e-01 1.6395298225745700e-01 0.0000000000000000e+00  -1.6079742915434458e-01 1.5542524619956055e-01 0.0000000000000000e+00  -1.7756183510503326e-01 1.3639074033501478e-01 0.0000000000000000e+00  -1.7255149540240389e-01 -1.4242140014526833e-01 0.0000000000000000e+00  -1.6288178964072370e-01 -1.5320381524336210e-01 0.0000000000000000e+00  -1.5884314752815107e-01 -1.5738138279789166e-01 0.0000000000000000e+00  -1.5905523703575195e-01 -1.5717428496961117e-01 0.0000000000000000e+00  -1.7250995436593589e-01 -1.4227128389945801e-01 0.0000000000000000e+00  -1.8802500132136554e-01 -1.2112709185091447e-01 0.0000000000000000e+00  -2.1622370042459846e-01 -5.7385467207083422e-02 0.0000000000000000e+00  -2.2291957868727200e-01 1.8330655367801544e-02 0.0000000000000000e+00  -2.1063534076332469e-01 7.5148146174953578e-02 0.0000000000000000e+00  -1.8696493958617566e-01 1.2268976394918256e-01 0.0000000000000000e+00  -1.6729230397998110e-01 1.4837739311517514e-01 0.0000000000000000e+00  -1.5382240575014094e-01 1.6229484107947095e-01 0.0000000000000000e+00  -1.5091096743926191e-01 1.6500269791217134e-01 0.0000000000000000e+00  -1.5532883954604199e-01 1.6085750438934532e-01 0.0000000000000000e+00  -1.6658850988165039e-01 1.4935816741417621e-01 0.0000000000000000e+00  2.1579438901093481e-01 -2.6737738541945812e-02 0.0000000000000000e+00  -1.2474364790988250e-01 -1.7053678946293907e-01 0.0000000000000000e+00  8.9610942668549212e-03 -2.0954572090294829e-01 0.0000000000000000e+00  1.5287874238197208e-01 -1.2211451328515675e-01 0.0000000000000000e+00  -1.5849019592713676e-01 -1.5769444171759869e-01 0.0000000000000000e+00  -3.2033623387903797e-02 -2.1660818623182754e-01 0.0000000000000000e+00  1.3022524708444211e-01 -1.7457259800022787e-01 0.0000000000000000e+00  2.1050465062925891e-01 -6.4662161177415148e-02 0.0000000000000000e+00  -1.8178828361740598e-01 -1.2909199522856077e-01 0.0000000000000000e+00  -1.9110889260980754e-01 -1.2686589514876201e-01 0.0000000000000000e+00  -6.1124122815727523e-02 -2.2321589019424259e-01 0.0000000000000000e+00  -4.9985202235664418e-02 -2.2261682778476163e-01 0.0000000000000000e+00  1.4903428255094023e-01 -1.8227674212899342e-01 0.0000000000000000e+00  7.2943828560895485e-02 -2.2856230207187062e-01 0.0000000000000000e+00  2.3416221801236381e-01 -3.5184095115081797e-02 0.0000000000000000e+00  2.1150095374906600e-01 -8.2646933464018774e-02 0.0000000000000000e+00  2.2521820575037005e-01 2.2830627920400959e-02 0.0000000000000000e+00  2.2455833391226823e-01 -2.9856176931945165e-02 0.0000000000000000e+00  2.2371780066479746e-01 -7.5779309435619949e-04 0.0000000000000000e+00  2.2344440138200933e-01 8.5707374564704258e-03 0.0000000000000000e+00  2.2317312113203691e-01 1.3809393021229199e-02 0.0000000000000000e+00  2.2332079551332021e-01 1.1169694417727598e-02 0.0000000000000000e+00  2.2360212259760046e-01 1.3168481279154729e-03 0.0000000000000000e+00  2.2348611043566993e-01 -7.3218118781226927e-03 0.0000000000000000e+00  2.2295183727181536e-01 -1.7023515310010277e-02 0.0000000000000000e+00  2.2267929035914324e-01 -2.0277298384844076e-02 0.0000000000000000e+00  2.2308120007453341e-01 -1.5345992237863686e-02 0.0000000000000000e+00  2.2361290481651566e-01 -6.4201932715896078e-03 0.0000000000000000e+00  2.1614149581173484e-01 2.1822615659452635e-02 0.0000000000000000e+00  2.2310465014905695e-01 -3.4120819988089760e-03 0.0000000000000000e+00  2.2334237712384963e-01 1.0989034342395105e-02 0.0000000000000000e+00  2.2355276427276699e-01 5.4584250990667811e-03 0.0000000000000000e+00  2.2332668116091198e-01 -1.1428870815610542e-02 0.0000000000000000e+00  2.2291768990801852e-01 -1.7606220206263061e-02 0.0000000000000000e+00  2.2314938186875569e-01 -4.0725198491015019e-03 0.0000000000000000e+00  2.2352590171923323e-01 5.4532324409045556e-03 0.0000000000000000e+00  2.2306693908689398e-01 1.5695795940919390e-02 0.0000000000000000e+00  2.2359315638750699e-01 -2.9972475548865922e-03 0.0000000000000000e+00  2.2255906769319977e-01 -2.1732387388575043e-02 0.0000000000000000e+00  2.2324848851813495e-01 -1.2442789547065710e-02 0.0000000000000000e+00  1.5435531191787236e-01 1.1957220679855107e-01 0.0000000000000000e+00  1.1235541311325793e-02 2.1064775665891458e-01 0.0000000000000000e+00  -1.2265563727467177e-01 1.7264481682993926e-01 0.0000000000000000e+00  2.1184122345098960e-01 5.9770292054666975e-02 0.0000000000000000e+00  1.3404377465382858e-01 1.7184936748830318e-01 0.0000000000000000e+00  -2.9036747058203628e-02 2.1696168309682287e-01 0.0000000000000000e+00  -1.5630762499378323e-01 1.6037654934000720e-01 0.0000000000000000e+00  2.1332310855144368e-01 7.7941411408266950e-02 0.0000000000000000e+00  2.3490941965147777e-01 3.1120197743832772e-02 0.0000000000000000e+00  7.5548283645136272e-02 2.2793956395103415e-01 0.0000000000000000e+00  1.5023394569492340e-01 1.8045664868637259e-01 0.0000000000000000e+00  -4.3934898383450868e-02 2.2346129110682419e-01 0.0000000000000000e+00  -6.0166594009736091e-02 2.2328768355837375e-01 0.0000000000000000e+00  -1.8861108045631156e-01 1.3011481911698480e-01 0.0000000000000000e+00  -1.8327413515882821e-01 1.2606574432011933e-01 0.0000000000000000e+00  -1.3569021197767681e-01 -1.7783826137985334e-01 0.0000000000000000e+00  -1.4505994500377442e-01 -1.7028272377269413e-01 0.0000000000000000e+00  -2.1358758330680680e-01 6.6385390876820993e-02 0.0000000000000000e+00  -3.6142461230085507e-02 2.2080929645455510e-01 0.0000000000000000e+00  -3.9531124287280700e-02 2.2022587341018079e-01 0.0000000000000000e+00  -2.0973341202292420e-01 7.7749983702262271e-02 0.0000000000000000e+00  1.8786783684057351e-01 -1.2147143978905435e-01 0.0000000000000000e+00  1.8951192464505764e-01 -1.1887447917263702e-01 0.0000000000000000e+00  1.9369344723912352e-01 1.1191688873073934e-01 0.0000000000000000e+00  1.9501590089211671e-01 1.0959747131907256e-01 0.0000000000000000e+00  2.2831268890406681e-02 2.2261768216358857e-01 0.0000000000000000e+00  1.5988206039474573e-01 1.5655780667716393e-01 0.0000000000000000e+00  1.1787778016407430e-01 1.9040111148299835e-01 0.0000000000000000e+00  2.2159049922240082e-01 -3.1605046880961683e-02 0.0000000000000000e+00  2.1159348773375408e-01 -7.4020875963283619e-02 0.0000000000000000e+00  2.2357000910213415e-01 -8.2142785715594510e-03 0.0000000000000000e+00  -3.2925094103981967e-03 2.2426914687714811e-01 0.0000000000000000e+00  8.0667531013106850e-02 -2.1090575367399730e-01 0.0000000000000000e+00  -2.2158699325289527e-01 3.4905044785601233e-02 0.0000000000000000e+00  -1.0580569097157262e-01 1.9978707223258357e-01 0.0000000000000000e+00  2.1394192534129674e-02 -2.2343961911337551e-01 0.0000000000000000e+00  1.2079777724971748e-01 1.8898686582265498e-01 0.0000000000000000e+00  2.1826628311872046e-01 -5.0000241106011069e-02 0.0000000000000000e+00  2.1622262381231220e-02 2.2273649886723387e-01 0.0000000000000000e+00  1.6031799115559320e-01 1.5609764085013145e-01 0.0000000000000000e+00  2.2369098245693064e-01 -3.1648962440452132e-03 0.0000000000000000e+00  1.4545125098496189e-01 -1.7005145163901444e-01 0.0000000000000000e+00  -8.0952113963474893e-03 -2.2363384759698759e-01 0.0000000000000000e+00  -2.1016060327898692e-01 -7.6633503125139280e-02 0.0000000000000000e+00  7.4563038000022702e-03 -2.2365435445109419e-01 0.0000000000000000e+00  -5.9980000301270785e-02 -2.1553326262066294e-01 0.0000000000000000e+00  -1.2468389390697604e-01 1.8575547380577165e-01 0.0000000000000000e+00  6.6076288675103650e-02 -2.1387824136193023e-01 0.0000000000000000e+00  -2.1129656058325658e-01 -7.3369839846114324e-02 0.0000000000000000e+00  -1.1601958769337856e-01 1.9134702316390750e-01 0.0000000000000000e+00  1.3205877890793963e-01 -1.8066349055453140e-01 0.0000000000000000e+00  1.2980640523232875e-01 1.8241225109001935e-01 0.0000000000000000e+00  2.2295937063649832e-01 -1.9655820398482838e-02 0.0000000000000000e+00  -7.2985927663683364e-02 -2.1147887184773145e-01 0.0000000000000000e+00  7.5325432239114545e-02 -2.1066397479391449e