<?xml version="1.0"?>
<VTKFile type="UnstructuredGrid"  version="0.1"  >
<UnstructuredGrid>
<Piece  NumberOfPoints="4153" NumberOfCells="8064">
<Points>
<DataArray  type="Float64"  NumberOfComponents="3"  format="ascii">-0.4239047651918698 -0.6109530605480015 0  -0.05204200783385295 -0.7552446029429709 0  -0.1030743137080439 -0.7502420294169908 0  -0.1532599422154101 -0.7406601766146428 0  -0.2022822926266795 -0.7271208912673863 0  -0.2502705489703478 -0.7109445949309758 0  -0.2966610425122062 -0.6899189356071976 0  -0.3410574591650666 -0.6656957300078659 0  -0.3834544680294736 -0.6392445601522708 0  -0.000657441246723359 -0.7552912651942141 0  -0.4626462682900286 -0.5830125747810375 0  -0.5002684669212559 -0.5553102351243183 0  -0.5368533992144731 -0.5281261880069118 0  -0.5725574800094489 -0.5018520978062972 0  -0.6077329287572687 -0.477003269081535 0  -0.64248929881581 -0.4537482618779036 0  -0.6769937893762521 -0.4329786975963913 0  0.6514873811010182 -0.4426890625183927 0  0.05053459971339414 -0.7504191455708862 0  0.1010143563747898 -0.7408117387103391 0  0.1503294045984978 -0.7268899564336747 0  0.198127563986108 -0.7091880319722513 0  0.2442507238083462 -0.6886666820135041 0  0.2886932515644069 -0.6659755639390761 0  0.331509965109218 -0.6417431848410406 0  0.3727826423733656 -0.6165420558637874 0  0.4127404429743769 -0.590996115568529 0  0.4515605159758967 -0.5655064334985931 0  0.4894222953836149 -0.5404104654579531 0  0.5264628272910247 -0.5160754025284054 0  0.5628624165886852 -0.4926901447422483 0  0.5987357276361615 -0.4707275328824829 0  0.6342905450121763 -0.4509893323564179 0  0.6163743092627311 -0.460834203185318 0  -0.659533538560534 -0.443248859448967 0  -0.590202324509731 -0.4893200953920934 0  -0.5186686751487096 -0.5416357147519879 0  -0.4433849158325495 -0.596916059179036 0  -0.3625052881989455 -0.652604046315712 0  -0.2737083808613272 -0.7009028726115489 0  -0.1779280798541827 -0.7344099192959981 0  -0.07763613201115806 -0.7533456492477457 0  0.5808312484368718 -0.4816576582446311 0  0.1258415324947217 -0.7343516366162612 0  0.2213996927712736 -0.6992404285312936 0  0.3102938427943961 -0.6540220730638108 0  0.3929179337547727 -0.6037911606208222 0  0.4705957969984153 -0.5529062048559337 0  0.5447495990701698 -0.5042951202906201 0  0.02499604108019444 -0.7534650954666768 0  -0.6937039525899225 -0.4241329975009446 0  0.5080217060263347 -0.5281203664049453 0  0.4322802289563733 -0.5782293280782531 0  0.3523262221552924 -0.6292074542260971 0  0.2666804863796332 -0.6775590134884253 0  0.1744417444561814 -0.718464756588631 0  0.07589411152786778 -0.7461857485306634 0  -0.02635772627408106 -0.7558949602188606 0  -0.1282983557449733 -0.7459993318349525 0  -0.2263219953858807 -0.7194554354152325 0  -0.3190974132923646 -0.6780923951872406 0  -0.4040599821755547 -0.6253983082665527 0  -0.4816004902588742 -0.569131299996374 0  -0.554806101610386 -0.5148350978666928 0  -0.6251153459173026 -0.4653142908004203 0  0.7910335656742425 -0.2542900981680736 0  0.7063677259877902 -0.4154158345588465 0  0.7531616605642872 -0.3729552977949456 0  0.7830310268507159 -0.3176570111855102 0  0.6793770340435074 -0.4295525092011787 0  0.7307637675977473 -0.3954179692536346 0  0.7665434118438459 -0.3440906441158934 0  0.786062450007345 -0.2855744449553734 0  0.6655948173501302 -0.4369647360525609 0  0.692811439434188 -0.4218741751365635 0  0.7186610624885553 -0.4055890868551077 0  0.7415903213291923 -0.3833815848320379 0  0.7615484810651451 -0.3594228974805547 0  0.7740660801389275 -0.3306927119002607 0  0.7838078034371478 -0.3013971088861361 0  0.7879620932162533 -0.2698065595455266 0  0.790367874086072 -0.2338522662070836 0  0.7948621591048173 0.2195862678831584 0  0.7947158069116083 0.1790601129268445 0  0.7958787589975145 0.1382997092205486 0  0.7975598763821838 0.09718982677885292 0  0.7994472772368683 0.05564006185521875 0  0.8001022519235766 0.01373928902256138 0  0.7996082694064214 -0.02824118582394599 0  0.7979707488851902 -0.07011318018895807 0  0.7952020511122291 -0.1115992812760545 0  0.7927070896278205 -0.1526557077211906 0  0.7907967385399312 -0.1933606746055069 0  0.796152074358403 0.2399689784952402 0  0.7945735805868933 0.1993400562554633 0  0.7966885447854513 0.1177925043033968 0  0.7999180068793905 0.03471253478326148 0  0.7989359942571564 -0.04920318343726607 0  0.7939233646570919 -0.1321779887308276 0  0.7903521326148456 -0.2136231910239487 0  0.7952055629919172 0.1587189926789548 0  0.7985727774344182 0.07648992851881571 0  0.7999943820939308 -0.007252614647040587 0  0.7966289902409782 -0.09093104042815277 0  0.791656400319391 -0.1730478366061004 0  0.6625674604232886 0.4305001694382611 0  0.7899198370659765 0.3036029504515474 0  0.7617091696796414 0.3597562709236216 0  0.7163289531676367 0.4029941322423959 0  0.7922787973368798 0.2714111471457271 0  0.7747204807605744 0.3307568890857017 0  0.7399699371626877 0.382395813505876 0  0.6897837584268294 0.4171301075165916 0  0.7938183109627881 0.2556053909922047 0  0.7905508480069512 0.2873176556352171 0  0.7817598941446514 0.3170101811317196 0  0.7694485987067164 0.3458540576743203 0  0.7504424889231662 0.3702730875855973 0  0.7282233042109689 0.3928100076177853 0  0.7029808709347423 0.4095164659375711 0  0.6762916108973007 0.4245188449210689 0  -0.03669823898322232 0.7760605998460111 0  0.6114977289025735 0.4600607146650887 0  0.5768378008426931 0.4833548548341846 0  0.5417153558966012 0.5082829367951044 0  0.5059835923309925 0.5345956685894955 0  0.4693387047903634 0.5618272594904281 0  0.4316073873996376 0.5896089629194201 0  0.3925918300120735 0.6175828957269431 0  0.3520475294551241 0.6454077652396167 0  0.3096795533790743 0.6722458297881008 0  0.2653982111420847 0.6975179648125359 0  0.2191294509043131 0.7205385748349685 0  0.1708629555866464 0.74069290898933 0  0.1207315628932818 0.7567854374110012 0  0.06911128564205096 0.768275854807178 0  0.01647311779494456 0.7746694841548708 0  0.6459233609504972 0.4392432458173794 0  -0.08971821181842383 0.7711956671815545 0  -0.1418020352020072 0.760794594235142 0  -0.1923553496016427 0.7454487896699633 0  -0.2407339049220744 0.7251242631105349 0  -0.2870106136714433 0.7028343044478383 0  -0.3313159933027635 0.6785065763694084 0  -0.3737517672070885 0.6527235852988182 0  -0.4144022221726932 0.6258710387991051 0  -0.4536054961571304 0.5990930436140577 0  -0.4916680435562255 0.5725641868382483 0  -0.5287625345226247 0.5465563593933217 0  -0.5650556089262204 0.521355591945932 0  -0.600689345492444 0.4972205904665661 0  -0.6358500174155924 0.4746456067334366 0  -0.6707607424590905 0.4544519624639524 0  -0.687637150950127 0.4459590860833982 0  -0.6531337739521161 0.4644951941697447 0  -0.5829501983281314 0.5091834977175225 0  -0.5103258623883091 0.5594832217703295 0  -0.4341483428295839 0.6124590809578125 0  -0.3527561055445819 0.6657393567738243 0  -0.2641162495565963 0.7142765130058022 0  -0.1672955467281039 0.7535954677614366 0  -0.06327692888507555 0.7743232699555416 0  0.0428918405903981 0.7721566721503558 0  0.1460091280775674 0.7492593721716585 0  0.2425126062594931 0.7093555843335525 0  0.3310912300609423 0.6589801794406822 0  0.4122705247362562 0.6035946538869634 0  0.487780469755045 0.5481238096589115 0  0.5593438429508721 0.4956983869598373 0  0.6285365361418598 0.4495801176720098 0  -0.6182907078293134 0.4858722258151186 0  -0.5469979847573728 0.5338506441286786 0  -0.4727692024526332 0.5857821075195415 0  -0.3943206416109896 0.6393903064603339 0  -0.3094025061545516 0.690881592850229 0  -0.2169437427403789 0.7358884845187718 0  -0.1159153147808446 0.7666354739970787 0  -0.01004048236666472 0.776073044252106 0  0.09508116080726747 0.7631401083992397 0  0.195264027162526 0.7310773774204089 0  0.2877847426457648 0.6851221490047595 0  0.3725450056969626 0.631563539675827 0  0.4506207277482726 0.5756746576350453 0  0.5239546642891538 0.5212946058183345 0  0.5941900772484442 0.4716299956312341 0  -0.824771829293884 0.2576058293031726 0  -0.7419879469426512 0.4189716763133972 0  -0.7881861053730899 0.3763899976294295 0  -0.817404597298436 0.3209034684543357 0  -0.7151804504693671 0.4329152845813219 0  -0.7660616499223896 0.3988270688740644 0  -0.8014506298007051 0.3475713237025209 0  -0.8202092201510961 0.288866209972766 0  -0.701532456542422 0.4401978633004593 0  -0.7285132973942586 0.4253711759892189 0  -0.7541030094573224 0.409039347130226 0  -0.7767367198499727 0.3868001881287375 0  -0.7963026338376722 0.3627422787105425 0  -0.8087795070777933 0.3340640334706602 0  -0.8181559064287156 0.3046806293702437 0  -0.8219892090291209 0.2731316286258401 0  -0.8238625422347918 0.2372541358641456 0  -0.827013694911517 -0.2143245011387723 0  -0.8267094010070866 -0.1739346510034091 0  -0.8278426638056627 -0.1333483826716087 0  -0.8295611013668935 -0.09243110174442384 0  -0.8315639065351237 -0.05109011431141004 0  -0.8323989949594325 -0.009387537364239019 0  -0.8321135081983664 0.03240190071148707 0  -0.8307113439015072 0.07409519930679187 0  -0.82815445019974 0.1154224898764546 0  -0.825866809772782 0.1563251511744146 0  -0.8241521422243981 0.1968923969004663 0  -0.8282389299650427 -0.2346953567145268 0  -0.8266301111703124 -0.1941418060717751 0  -0.8286675539230048 -0.1129368688428689 0  -0.8321233150999738 -0.03026204796294124 0  -0.8315533928823851 0.05327284117811252 0  -0.8269774918928483 0.1359213984502289 0  -0.823777588836793 0.2170878753371492 0  -0.8271783454801621 -0.1536777490678117 0  -0.8306141814803353 -0.07183551475612693 0  -0.8323918441866274 0.01150777934389285 0  -0.8294842416720303 0.09483330780095485 0  -0.824912995891901 0.1766459338255275 0  -0.8217024617742316 -0.2981523116205869 0  -0.7931107054229287 -0.3538924476656271 0  -0.7475168803136808 -0.3968587512675616 0  -0.8241568128405852 -0.2660319222888775 0  -0.8061570270337127 -0.3249961980241747 0  -0.7713215688950572 -0.3765511983503469 0  -0.7209440219220018 -0.4109949415278794 0  -0.8257142951597364 -0.2502590699846001 0  -0.822
[...]
<PointData  Vectors="f_4649"> 
<DataArray  type="Float64"  Name="f_4649"  NumberOfComponents="3" format="ascii">-2.6096356356988430e-06 -3.1543909448103583e-05 0.0000000000000000e+00  6.6026059497889474e-07 -5.8240197841327120e-05 0.0000000000000000e+00  -1.4980993417112942e-06 -5.7458285190469992e-05 0.0000000000000000e+00  -3.3807346346207868e-06 -5.5654909952909612e-05 0.0000000000000000e+00  -4.7972901066788454e-06 -5.2831973983015587e-05 0.0000000000000000e+00  -5.6365005795710923e-06 -4.9252956053510301e-05 0.0000000000000000e+00  -5.7706952631199491e-06 -4.5096289907036274e-05 0.0000000000000000e+00  -5.2844522670538888e-06 -4.0713140891108941e-05 0.0000000000000000e+00  -4.1802977453179400e-06 -3.6113870347329876e-05 0.0000000000000000e+00  2.8922190372604075e-06 -5.7999948076363969e-05 0.0000000000000000e+00  -4.3626006221324290e-07 -2.6791817899771871e-05 0.0000000000000000e+00  2.2489422666478536e-06 -2.1950807214160164e-05 0.0000000000000000e+00  5.4350350990703630e-06 -1.7050359497035833e-05 0.0000000000000000e+00  9.0326513258952404e-06 -1.2149418492852243e-05 0.0000000000000000e+00  1.2968087199774860e-05 -7.3303322016018764e-06 0.0000000000000000e+00  1.7090674331973514e-05 -2.7179108197930471e-06 0.0000000000000000e+00  2.1393276604199404e-05 1.7186047272465241e-06 0.0000000000000000e+00  -2.0792742668785854e-05 8.7517728621710759e-06 0.0000000000000000e+00  4.9994681568371136e-06 -5.6766445253739442e-05 0.0000000000000000e+00  6.7970382270883915e-06 -5.4604792365318853e-05 0.0000000000000000e+00  8.1329237363075884e-06 -5.1624547233745086e-05 0.0000000000000000e+00  8.8906239343828952e-06 -4.7933253182782875e-05 0.0000000000000000e+00  9.0146839263191228e-06 -4.3693554568749250e-05 0.0000000000000000e+00  8.4742857811044937e-06 -3.9014625519366769e-05 0.0000000000000000e+00  7.2822567425933116e-06 -3.4036069836019540e-05 0.0000000000000000e+00  5.4624671432354274e-06 -2.8836029532100137e-05 0.0000000000000000e+00  3.1009047341611335e-06 -2.3571407108645411e-05 0.0000000000000000e+00  2.5797454298955263e-07 -1.8295404899211656e-05 0.0000000000000000e+00  -2.9916428559952247e-06 -1.3077058851351235e-05 0.0000000000000000e+00  -6.5940009528418753e-06 -7.9263008622914062e-06 0.0000000000000000e+00  -1.0439558552679260e-05 -2.9399753749663308e-06 0.0000000000000000e+00  -1.4484079243072147e-05 1.8718204582327267e-06 0.0000000000000000e+00  -1.8675390724432186e-05 6.4488125650782351e-06 0.0000000000000000e+00  -1.6628975171807451e-05 4.2240923614539153e-06 0.0000000000000000e+00  1.9265889312100841e-05 -4.2339909666898503e-07 0.0000000000000000e+00  1.0978660510964305e-05 -9.7479520134072924e-06 0.0000000000000000e+00  3.7850404319947678e-06 -1.9502343879075362e-05 0.0000000000000000e+00  -1.5966458226292323e-06 -2.9191035636175331e-05 0.0000000000000000e+00  -4.8129338277232172e-06 -3.8419559994029330e-05 0.0000000000000000e+00  -5.7692115021510389e-06 -4.7191144325248566e-05 0.0000000000000000e+00  -4.1625097749020956e-06 -5.4410182154413280e-05 0.0000000000000000e+00  -4.4073683496979075e-07 -5.7978141430050904e-05 0.0000000000000000e+00  -1.2465412937179415e-05 -5.5818639831284792e-07 0.0000000000000000e+00  7.5303243227772574e-06 -5.3205942782536782e-05 0.0000000000000000e+00  9.0359618972997799e-06 -4.5879759496555083e-05 0.0000000000000000e+00  7.9537822601668685e-06 -3.6547547396361658e-05 0.0000000000000000e+00  4.3466418617140320e-06 -2.6212776082750865e-05 0.0000000000000000e+00  -1.3225650134413201e-06 -1.5677648938049221e-05 0.0000000000000000e+00  -8.4835087372569483e-06 -5.4615106514887879e-06 0.0000000000000000e+00  3.9737699563742435e-06 -5.7504941498953253e-05 0.0000000000000000e+00  2.3500271588090035e-05 3.9005631740310150e-06 0.0000000000000000e+00  -4.7464500656776024e-06 -1.0504988149652735e-05 0.0000000000000000e+00  1.7344815549559026e-06 -2.0933485491267066e-05 0.0000000000000000e+00  6.4526646122130441e-06 -3.1458409543108569e-05 0.0000000000000000e+00  8.8275170627829338e-06 -4.1401967091215871e-05 0.0000000000000000e+00  8.5934042687960352e-06 -4.9864896727599099e-05 0.0000000000000000e+00  5.9473549566192756e-06 -5.5794921343445915e-05 0.0000000000000000e+00  1.7800571517762930e-06 -5.8247159898504349e-05 0.0000000000000000e+00  -2.4867971819987026e-06 -5.6692454190052822e-05 0.0000000000000000e+00  -5.2625585646374366e-06 -5.1087251164675674e-05 0.0000000000000000e+00  -5.5776298064440499e-06 -4.2875324002008720e-05 0.0000000000000000e+00  -3.5397106049127869e-06 -3.3978082462029174e-05 0.0000000000000000e+00  8.3791970863131290e-07 -2.4387673333204184e-05 0.0000000000000000e+00  7.1720837335060883e-06 -1.4628297235358117e-05 0.0000000000000000e+00  1.5038471085863626e-05 -5.0194018923889578e-06 0.0000000000000000e+00  -3.6036744715049094e-05 1.0212448111033939e-05 0.0000000000000000e+00  -2.6990365790384288e-05 1.3488898292644591e-05 0.0000000000000000e+00  -3.1699552264418478e-05 1.4313941765186074e-05 0.0000000000000000e+00  -3.4926386266615526e-05 1.2625589624709431e-05 0.0000000000000000e+00  -2.3800618541125450e-05 1.1141142400434330e-05 0.0000000000000000e+00  -2.9207777920934382e-05 1.3824884010327776e-05 0.0000000000000000e+00  -3.3630904002039257e-05 1.3720753765689877e-05 0.0000000000000000e+00  -3.5680663178444943e-05 1.1425687509946820e-05 0.0000000000000000e+00  -2.2476656943978833e-05 1.0311552279123406e-05 0.0000000000000000e+00  -2.5369210717058769e-05 1.2448793712130680e-05 0.0000000000000000e+00  -2.8065210907946974e-05 1.3663303833746527e-05 0.0000000000000000e+00  -3.0400681557343820e-05 1.4103417375662418e-05 0.0000000000000000e+00  -3.1989175542522889e-05 1.3708544275750285e-05 0.0000000000000000e+00  -3.4451599141725673e-05 1.3192840243054464e-05 0.0000000000000000e+00  -3.5606922239962252e-05 1.2066305794460364e-05 0.0000000000000000e+00  -3.5942277989017672e-05 1.0844119843513002e-05 0.0000000000000000e+00  -3.5905141881806586e-05 9.4457043059516626e-06 0.0000000000000000e+00  -3.6937689114105347e-05 -3.5184443699014120e-06 0.0000000000000000e+00  -3.6247554682524718e-05 -2.0483574748694254e-06 0.0000000000000000e+00  -3.5566463711082036e-05 -7.4708020827595751e-07 0.0000000000000000e+00  -3.5013682135640411e-05 4.1366306894988834e-07 0.0000000000000000e+00  -3.4592881069430905e-05 1.4681104698699167e-06 0.0000000000000000e+00  -3.4358917987587115e-05 2.4530970744501616e-06 0.0000000000000000e+00  -3.4280305700520145e-05 3.4199751366958315e-06 0.0000000000000000e+00  -3.4360808708455680e-05 4.4112048975224318e-06 0.0000000000000000e+00  -3.4612589217118022e-05 5.4818019134897174e-06 0.0000000000000000e+00  -3.4982541250260097e-05 6.6575477841098533e-06 0.0000000000000000e+00  -3.5466471641772907e-05 7.9748706542541253e-06 0.0000000000000000e+00  -3.7066698236825679e-05 -4.3151559538550666e-06 0.0000000000000000e+00  -3.6591373650805449e-05 -2.7613319669564093e-06 0.0000000000000000e+00  -3.5268387106267873e-05 -1.5112716785317343e-07 0.0000000000000000e+00  -3.4458300402026111e-05 1.9657481030510619e-06 0.0000000000000000e+00  -3.4300427001020175e-05 3.9098387158277674e-06 0.0000000000000000e+00  -3.4774739211230350e-05 6.0523159004771829e-06 0.0000000000000000e+00  -3.5687565705413197e-05 8.6892067561429335e-06 0.0000000000000000e+00  -3.5893870397721003e-05 -1.3780877111709952e-06 0.0000000000000000e+00  -3.4783548011939337e-05 9.5459732257047982e-07 0.0000000000000000e+00  -3.4300439999851197e-05 2.9362001605683228e-06 0.0000000000000000e+00  -3.4475738383768433e-05 4.9325390035302934e-06 0.0000000000000000e+00  -3.5212747367383950e-05 7.2958871477997304e-06 0.0000000000000000e+00  -2.1693059182059183e-05 -3.1491590975225228e-06 0.0000000000000000e+00  -3.6073658164049470e-05 -6.7849467106888337e-06 0.0000000000000000e+00  -3.2877225485234336e-05 -8.4222270075312962e-06 0.0000000000000000e+00  -2.8027224033552463e-05 -7.7155129256193787e-06 0.0000000000000000e+00  -3.6759980740697020e-05 -5.5573193691799280e-06 0.0000000000000000e+00  -3.4673475308459649e-05 -7.7530940240351161e-06 0.0000000000000000e+00  -3.0359373542085615e-05 -8.0581250434394325e-06 0.0000000000000000e+00  -2.4844408128632125e-05 -5.5689658857370086e-06 0.0000000000000000e+00  -3.6976731344201670e-05 -4.9422089264349797e-06 0.0000000000000000e+00  -3.6591533262442534e-05 -6.1922349014559850e-06 0.0000000000000000e+00  -3.5506393108748985e-05 -7.3043232251891843e-06 0.0000000000000000e+00  -3.3424424104763769e-05 -7.9414090335942664e-06 0.0000000000000000e+00  -3.1601953957838916e-05 -8.2897501695727719e-06 0.0000000000000000e+00  -2.9167256135212927e-05 -7.9008003561397789e-06 0.0000000000000000e+00  -2.6430839542842692e-05 -6.7717565318682995e-06 0.0000000000000000e+00  -2.3425488503200975e-05 -4.6727827357850972e-06 0.0000000000000000e+00  -5.9629032190126090e-07 5.7584638857719401e-05 0.0000000000000000e+00  -1.5163333237553234e-05 3.4377394897599598e-06 0.0000000000000000e+00  -1.0941630483323380e-05 8.0682061456984403e-06 0.0000000000000000e+00  -6.8936663736911099e-06 1.2909048456387465e-05 0.0000000000000000e+00  -3.1475624333145496e-06 1.7869011788732653e-05 0.0000000000000000e+00  2.1574183818720084e-07 2.2885431260381758e-05 0.0000000000000000e+00  3.1220961199483204e-06 2.7926647390963903e-05 0.0000000000000000e+00  5.5013913311712832e-06 3.2933647033183886e-05 0.0000000000000000e+00  7.2806311556778549e-06 3.7836986468548837e-05 0.0000000000000000e+00  8.3806517026351176e-06 4.2485355897984373e-05 0.0000000000000000e+00  8.7791356137780132e-06 4.6783564634242921e-05 0.0000000000000000e+00  8.4676557641373298e-06 5.0573357756339281e-05 0.0000000000000000e+00  7.5021663709788200e-06 5.3742944227024729e-05 0.0000000000000000e+00  5.9556319082814753e-06 5.6136356006672973e-05 0.0000000000000000e+00  3.9659152761506867e-06 5.7629776517604252e-05 0.0000000000000000e+00  1.7118146885730694e-06 5.8120514612270758e-05 0.0000000000000000e+00  -1.9532218001165241e-05 -9.7769647852115746e-07 0.0000000000000000e+00  -2.7362947352739097e-06 5.6134002261198995e-05 0.0000000000000000e+00  -4.5409579404357736e-06 5.3900614663957579e-05 0.0000000000000000e+00  -5.8683782311021563e-06 5.0973485471656278e-05 0.0000000000000000e+00  -6.6327778533908137e-06 4.7462726889806742e-05 0.0000000000000000e+00  -6.9048931328133632e-06 4.3646937892351878e-05 0.0000000000000000e+00  -6.4714666431570721e-06 3.9243636683469154e-05 0.0000000000000000e+00  -5.3595684968811027e-06 3.4484587008961639e-05 0.0000000000000000e+00  -3.6254932828989305e-06 2.9505819839571729e-05 0.0000000000000000e+00  -1.2978349315371820e-06 2.4396094136414733e-05 0.0000000000000000e+00  1.5146902043079694e-06 1.9256603125955804e-05 0.0000000000000000e+00  4.7547494064931166e-06 1.4142264557412696e-05 0.0000000000000000e+00  8.3501230850902188e-06 9.1012510445416270e-06 0.0000000000000000e+00  1.2215754469568584e-05 4.1828842285947782e-06 0.0000000000000000e+00  1.6290561826371519e-05 -5.7154382206035267e-07 0.0000000000000000e+00  2.0535564259073580e-05 -5.1230102328652753e-06 0.0000000000000000e+00  2.2656483249981790e-05 -7.4087752189888777e-06 0.0000000000000000e+00  1.8462245275555905e-05 -2.9251738523782540e-06 0.0000000000000000e+00  1.0248520196783911e-05 6.6725912991651750e-06 0.0000000000000000e+00  3.0848320997831393e-06 1.6697954198374956e-05 0.0000000000000000e+00  -2.5239416295245533e-06 2.6955803663580321e-05 0.0000000000000000e+00  -5.9949959524625282e-06 3.6884011600628310e-05 0.0000000000000000e+00  -6.8527531796172832e-06 4.5643096712256642e-05 0.0000000000000000e+00  -5.2635448906511588e-06 5.2468099427479684e-05 0.0000000000000000e+00  -1.6949307938947417e-06 5.6959260459206850e-05 0.0000000000000000e+00  2.8622883147541421e-06 5.8009775921547323e-05 0.0000000000000000e+00  6.7940624923856319e-06 5.5041122375628162e-05 0.0000000000000000e+00  8.7124376571757919e-06 4.8754676023275358e-05 0.0000000000000000e+00  7.9126390131361692e-06 4.0187416051093378e-05 0.0000000000000000e+00  4.3825953844499722e-06 3.0440542383669197e-05 0.0000000000000000e+00  -1.4123796754913806e-06 2.0373098949759823e-05 0.0000000000000000e+00  -8.8921497420140889e-06 1.0498307203110777e-05 0.0000000000000000e+00  -1.7385779218228974e-05 1.1642474988548914e-06 0.0000000000000000e+00  1.4261166198767964e-05 1.8228308944453384e-06 0.0000000000000000e+00  6.5085923029170801e-06 1.1626835594737251e-05 0.0000000000000000e+00  4.8459997821537514e-08 2.1830640913853821e-05 0.0000000000000000e+00  -4.5870020965399872e-06 3.2046852505968777e-05 0.0000000000000000e+00  -6.7711834738597623e-06 4.1489657936363752e-05 0.0000000000000000e+00  -6.4035447881059757e-06 4.9457725030753999e-05 0.0000000000000000e+00  -3.6848802200391587e-06 5.5086527444655816e-05 0.0000000000000000e+00  5.5545905535579877e-07 5.7964580829157959e-05 0.0000000000000000e+00  5.0065634374156508e-06 5.7002227350096459e-05 0.0000000000000000e+00  8.0703663384232305e-06 5.2258427954627180e-05 0.0000000000000000e+00  8.6687057966394904e-06 4.4687133896770266e-05 0.0000000000000000e+00  6.4805488201961463e-06 3.5416268553057953e-05 0.0000000000000000e+00  1.7303650337954913e-06 2.5406740447645174e-05 0.0000000000000000e+00  -4.9673180303236753e-06 1.5403308415085010e-05 0.0000000000000000e+00  -1.3056313906871508e-05 5.7620290117327491e-06 0.0000000000000000e+00  3.7847381443625254e-05 -8.9112058930051665e-06 0.0000000000000000e+00  2.8919697392071912e-05 -1.2192556331868617e-05 0.0000000000000000e+00  3.3669496604450391e-05 -1.2996868612569365e-05 0.0000000000000000e+00  3.6833320165065667e-05 -1.1331996536904649e-05 0.0000000000000000e+00  2.5736442001635802e-05 -9.8838902484089760e-06 0.0000000000000000e+00  3.1163557576192661e-05 -1.2530519211020890e-05 0.0000000000000000e+00  3.5521481205991559e-05 -1.2373201301096848e-05 0.0000000000000000e+00  3.7541262900301069e-05 -1.0127927406900830e-05 0.0000000000000000e+00  2.4383048679218785e-05 -9.0190632034838635e-06 0.0000000000000000e+00  2.7308238172379764e-05 -1.1171806305168566e-05 0.0000000000000000e+00  3.0008520010922243e-05 -1.2368679009312621e-05 0.0000000000000000e+00  3.2372668747980096e-05 -1.2802552449569654e-05 0.0000000000000000e+00  3.4044119793880607e-05 -1.2435818144635390e-05 0.0000000000000000e+00  3.6341969783524701e-05 -1.1882372711992922e-05 0.0000000000000000e+00  3.7435327998630219e-05 -1.0761354630842374e-05 0.0000000000000000e+00  3.7780763808698684e-05 -9.5379465554525496e-06 0.0000000000000000e+00  3.7730632115425453e-05 -8.1478746155024077e-06 0.0000000000000000e+00  3.8580780854528261e-05 4.4792409563664876e-06 0.0000000000000000e+00  3.7872451073344826e-05 3.0311818107720415e-06 0.0000000000000000e+00  3.7167843605697287e-05 1.7554208789290426e-06 0.0000000000000000e+00  3.6603136717170078e-05 6.2454203790982248e-07 0.0000000000000000e+00  3.6186124077215593e-05 -3.9855933278191343e-07 0.0000000000000000e+00  3.5961316342782654e-05 -1.3501878090446005e-06 0.0000000000000000e+00  3.5898115259250157e-05 -2.2824675966231286e-06 0.0000000000000000e+00  3.5998134489808528e-05 -3.2382232675241770e-06 0.0000000000000000e+00  3.6276910744891472e-05 -4.2720283622885190e-06 0.0000000000000000e+00  3.6683629795834435e-05 -5.4125902102222262e-06 0.0000000000000000e+00  3.7215887995977675e-05 -6.6982650008276393e-06 0.0000000000000000e+00  3.8732077453028598e-05 5.2624702957003323e-06 0.0000000000000000e+00  3.8227060845326870e-05 3.7323261110691435e-06 0.0000000000000000e+00  3.6861399131983471e-05 1.1736525045261023e-06 0.0000000000000000e+00  3.6054921703125746e-05 -8.7962890671194067e-07 0.0000000000000000e+00  3.5928068240431757e-05 -2.7546815931849506e-06 0.0000000000000000e+00  3.6456092610982581e-05 -4.8250112847864288e-06 0.0000000000000000e+00  3.7473436233967798e-05 -7.3999301008774978e-06 0.0000000000000000e+00  3.7505862625721350e-05 2.3729075069313539e-06 0.0000000000000000e+00  3.6374910145823753e-05 9.9214147196204483e-08 0.0000000000000000e+00  3.5909777913733915e-05 -1.8160978369487153e-06 0.0000000000000000e+00  3.6124434133245102e-05 -3.7410108868557940e-06 0.0000000000000000e+00  3.6937457570140444e-05 -6.0348447408652716e-06 0.0000000000000000e+00  3.7775370954857723e-05 7.7055590427924339e-06 0.0000000000000000e+00  3.4589045174648856e-05 9.3322067835831440e-06 0.0000000000000000e+00  2.9797795555685785e-05 8.5772287861537939e-06 0.0000000000000000e+00  3.8444047195130352e-05 6.4887798570714664e-06 0.0000000000000000e+00  3.6401487409803476e-05 8.6884912247204043e-06 0.0000000000000000e+00  3.2096082707320734e-05 8.9414771351055611e-06 0.0000000000000000e+00  2.6632221789022286e-05 6.3807161654538858e-06 0.0000000000000000e+00  3.8654158908011363e-05 5.8848951637388208e-06 0.0000000000000000e+00  3.8314915323132216e-05 7.1211852543578932e-06 0.0000000000000000e+00  3.7226835073909211e-05 8.2274029335836757e-06 0.0000000000000000e+00  3.5061627588314408e-05 8.8254886331921691e-06 0.0000000000000000e+00  3.3313338553161611e-05 9.1791221152732916e-06 0.0000000000000000e+00  3.0920743447954324e-05 8.7753451279340592e-06 0.0000000000000000e+00  2.8203119292984610e-05 7.6075851709768780e-06 0.0000000000000000e+00  2.5242026465204228e-05 5.4996863951426377e-06 0.0000000000000000e+00  7.4562208113570982e-06 3.2646810063553344e-05 0.0000000000000000e+00  -5.4850275743822468e-06 -3.2241446349505708e-05 0.0000000000000000e+00  2.4558444522716411e-06 -4.2055794188954438e-05 0.0000000000000000e+00  1.7310364919253332e-05 -2.1031646512339628e-05 0.0000000000000000e+00  -1.4911283764376698e-05 2.2438328487258581e-05 0.0000000000000000e+00  -5.6403609914123067e-07 4.0166414983539592e-05 0.0000000000000000e+00  -3.2844193916297149e-05 4.5968832320078750e-06 0.0000000000000000e+00  3.4521670234676397e-05 -3.3493019570548196e-06 0.0000000000000000e+00  3.4954553292352897e-05 7.3360269494126966e-08 0.0000000000000000e+00  -3.3316703825618573e-05 9.0516814920301972e-07 0.0000000000000000e+00  -2.5965979539728660e-05 7.9690597684885519e-06 0.0000000000000000e+00  -2.6360088388371358e-05 8.1785427314275507e-06 0.0000000000000000e+00  -1.7333218773282708e-05 1.3795553586394869e-05 0.0000000000000000e+00  -2.3576869300557525e-05 1.0245738436647976e-06 0.0000000000000000e+00  -1.4685570693401301e-05 -1.4488788574359491e-06 0.0000000000000000e+00  -3.0684616923003683e-05 2.4379483619749561e-06 0.0000000000000000e+00  -8.4056026571624502e-06 1.6630502250199690e-05 0.0000000000000000e+00  -5.4667446176392668e-06 -5.6938424861559038e-06 0.0000000000000000e+00  7.5867916635991791e-08 1.5402130742840873e-05 0.0000000000000000e+00  3.5729256823560417e-06 -9.1568335087369705e-06 0.0000000000000000e+00  1.0024225916964958e-05 1.3670774988763713e-05 0.0000000000000000e+00  1.2346604803348060e-05 -1.0082912260097747e-05 0.0000000000000000e+00  1.8050535619764367e-05 1.8085090031372745e-06 0.0000000000000000e+00  2.7791177581396493e-05 -7.0473321178673293e-06 0.0000000000000000e+00  2.8267635172118158e-05 -6.9819023101594524e-06 0.0000000000000000e+00  3.2357957301771540e-05 -1.3944147955619216e-06 0.0000000000000000e+00  2.7660208392870729e-05 5.1693365484158735e-06 0.0000000000000000e+00  -2.4663322610365025e-05 -3.3600704561404290e-06 0.0000000000000000e+00  3.1782506237651497e-06 3.7814041729624104e-05 0.0000000000000000e+00  2.6811175157679737e-05 4.4443661987419752e-06 0.0000000000000000e+00  1.5635921784592861e-05 2.0055983845587597e-05 0.0000000000000000e+00  -6.0386059704268533e-06 3.3874163868836348e-05 0.0000000000000000e+00  -1.7462327166476128e-05 -1.2539448766297440e-05 0.0000000000000000e+00  -5.8362309038694225e-07 -4.0806052564847530e-05 0.0000000000000000e+00  9.2308205264499176e-06 -3.1098815406786267e-05 0.0000000000000000e+00  -2.5865758068215803e-05 -4.3879040092417165e-06 0.0000000000000000e+00  2.0066550002432694e-05 -1.1900189802124948e-05 0.0000000000000000e+00  2.5537038487995193e-05 -2.6043862008393058e-07 0.0000000000000000e+00  -1.3933012967327650e-05 -1.8855607424486742e-05 0.0000000000000000e+00  3.3259226037715578e-05 -6.4550317732044873e-06 0.0000000000000000e+00  -8.85845446971175