<?xml version="1.0"?>
<VTKFile type="UnstructuredGrid"  version="0.1"  >
<UnstructuredGrid>
<Piece  NumberOfPoints="4153" NumberOfCells="8064">
<Points>
<DataArray  type="Float64"  NumberOfComponents="3"  format="ascii">-0.4249999999999999 -0.5 0  -0.02499999999999988 -0.5 0  -0.07499999999999987 -0.5 0  -0.1249999999999998 -0.5 0  -0.1749999999999998 -0.5 0  -0.2249999999999998 -0.5 0  -0.2749999999999998 -0.5 0  -0.3249999999999998 -0.5 0  -0.3749999999999999 -0.5 0  0.02500000000000016 -0.5 0  -0.4749999999999998 -0.5 0  -0.5249999999999998 -0.5 0  -0.5749999999999998 -0.5 0  -0.6249999999999999 -0.5 0  -0.6749999999999999 -0.5 0  -0.725 -0.5 0  -0.775 -0.5 0  0.8 -0.5 0  0.07500000000000025 -0.5 0  0.1250000000000003 -0.5 0  0.1750000000000004 -0.5 0  0.2250000000000004 -0.5 0  0.2750000000000004 -0.5 0  0.3250000000000003 -0.5 0  0.3750000000000001 -0.5 0  0.4250000000000002 -0.5 0  0.4750000000000002 -0.5 0  0.5250000000000001 -0.5 0  0.5750000000000002 -0.5 0  0.625 -0.5 0  0.675 -0.5 0  0.725 -0.5 0  0.775 -0.5 0  0.75 -0.5 0  -0.75 -0.5 0  -0.6499999999999999 -0.5 0  -0.5499999999999998 -0.5 0  -0.4499999999999998 -0.5 0  -0.3499999999999999 -0.5 0  -0.2499999999999998 -0.5 0  -0.1499999999999998 -0.5 0  -0.04999999999999988 -0.5 0  0.7 -0.5 0  0.1500000000000004 -0.5 0  0.2500000000000003 -0.5 0  0.3500000000000002 -0.5 0  0.4500000000000002 -0.5 0  0.5500000000000002 -0.5 0  0.65 -0.5 0  0.0500000000000002 -0.5 0  -0.8 -0.5 0  0.6000000000000001 -0.5 0  0.5000000000000002 -0.5 0  0.4000000000000001 -0.5 0  0.3000000000000003 -0.5 0  0.2000000000000004 -0.5 0  0.1000000000000003 -0.5 0  1.110223024625157e-16 -0.5 0  -0.09999999999999987 -0.5 0  -0.1999999999999998 -0.5 0  -0.2999999999999998 -0.5 0  -0.3999999999999999 -0.5 0  -0.4999999999999998 -0.5 0  -0.5999999999999999 -0.5 0  -0.7 -0.5 0  1 -0.3 0  0.8765366864730179 -0.4847759065022574 0  0.9414213562373094 -0.4414213562373097 0  0.9847759065022573 -0.3765366864730181 0  0.838268343236509 -0.4923879532511287 0  0.9089790213551636 -0.4630986313697836 0  0.9630986313697834 -0.4089790213551639 0  0.9923879532511286 -0.338268343236509 0  0.8191341716182545 -0.4961939766255644 0  0.8574025148547635 -0.488581929876693 0  0.8927578539140908 -0.4739372689360205 0  0.9252001887962364 -0.4522599938035466 0  0.9522599938035463 -0.4252001887962368 0  0.9739372689360204 -0.392757853914091 0  0.9885819298766929 -0.3574025148547635 0  0.9961939766255643 -0.3191341716182545 0  1 -0.275 0  1 0.275 0  1 0.225 0  1 0.175 0  1 0.125 0  1 0.07499999999999994 0  1 0.02499999999999987 0  1 -0.0250000000000002 0  1 -0.07500000000000026 0  1 -0.1250000000000003 0  1 -0.1750000000000002 0  1 -0.2250000000000001 0  1 0.3 0  1 0.25 0  1 0.15 0  1 0.04999999999999991 0  1 -0.05000000000000023 0  1 -0.1500000000000002 0  1 -0.2500000000000001 0  1 0.2 0  1 0.09999999999999998 0  1 -1.665334536937735e-16 0  1 -0.1000000000000003 0  1 -0.2000000000000002 0  0.8 0.5 0  0.9847759065022573 0.3765366864730181 0  0.9414213562373094 0.4414213562373097 0  0.8765366864730179 0.4847759065022574 0  0.9923879532511286 0.338268343236509 0  0.9630986313697834 0.4089790213551639 0  0.9089790213551636 0.4630986313697836 0  0.838268343236509 0.4923879532511287 0  0.9961939766255643 0.3191341716182545 0  0.9885819298766929 0.3574025148547635 0  0.9739372689360204 0.392757853914091 0  0.9522599938035463 0.4252001887962368 0  0.9252001887962364 0.4522599938035466 0  0.8927578539140908 0.4739372689360205 0  0.8574025148547635 0.488581929876693 0  0.8191341716182545 0.4961939766255644 0  -0.02500000000000016 0.5 0  0.725 0.5 0  0.6749999999999999 0.5 0  0.6249999999999999 0.5 0  0.5749999999999998 0.5 0  0.5249999999999998 0.5 0  0.4749999999999998 0.5 0  0.4249999999999999 0.5 0  0.3749999999999999 0.5 0  0.3249999999999998 0.5 0  0.2749999999999998 0.5 0  0.2249999999999998 0.5 0  0.1749999999999998 0.5 0  0.1249999999999998 0.5 0  0.07499999999999987 0.5 0  0.02499999999999988 0.5 0  0.775 0.5 0  -0.07500000000000025 0.5 0  -0.1250000000000003 0.5 0  -0.1750000000000004 0.5 0  -0.2250000000000004 0.5 0  -0.2750000000000004 0.5 0  -0.3250000000000003 0.5 0  -0.3750000000000001 0.5 0  -0.4250000000000002 0.5 0  -0.4750000000000002 0.5 0  -0.5250000000000001 0.5 0  -0.5750000000000002 0.5 0  -0.625 0.5 0  -0.675 0.5 0  -0.725 0.5 0  -0.775 0.5 0  -0.8 0.5 0  -0.75 0.5 0  -0.65 0.5 0  -0.5500000000000002 0.5 0  -0.4500000000000002 0.5 0  -0.3500000000000002 0.5 0  -0.2500000000000003 0.5 0  -0.1500000000000004 0.5 0  -0.0500000000000002 0.5 0  0.04999999999999988 0.5 0  0.1499999999999998 0.5 0  0.2499999999999998 0.5 0  0.3499999999999999 0.5 0  0.4499999999999998 0.5 0  0.5499999999999998 0.5 0  0.6499999999999999 0.5 0  0.75 0.5 0  -0.7 0.5 0  -0.6000000000000001 0.5 0  -0.5000000000000002 0.5 0  -0.4000000000000001 0.5 0  -0.3000000000000003 0.5 0  -0.2000000000000004 0.5 0  -0.1000000000000003 0.5 0  -1.110223024625157e-16 0.5 0  0.09999999999999987 0.5 0  0.1999999999999998 0.5 0  0.2999999999999998 0.5 0  0.3999999999999999 0.5 0  0.4999999999999998 0.5 0  0.5999999999999999 0.5 0  0.7 0.5 0  -1 0.3 0  -0.8765366864730181 0.4847759065022573 0  -0.9414213562373097 0.4414213562373094 0  -0.9847759065022574 0.3765366864730179 0  -0.838268343236509 0.4923879532511287 0  -0.9089790213551638 0.4630986313697834 0  -0.9630986313697836 0.4089790213551636 0  -0.9923879532511287 0.338268343236509 0  -0.8191341716182545 0.4961939766255643 0  -0.8574025148547635 0.488581929876693 0  -0.892757853914091 0.4739372689360203 0  -0.9252001887962368 0.4522599938035464 0  -0.9522599938035466 0.4252001887962365 0  -0.9739372689360205 0.3927578539140908 0  -0.9885819298766931 0.3574025148547634 0  -0.9961939766255643 0.3191341716182545 0  -1 0.275 0  -1 -0.275 0  -1 -0.225 0  -1 -0.175 0  -1 -0.125 0  -1 -0.07499999999999994 0  -1 -0.02499999999999987 0  -1 0.0250000000000002 0  -1 0.07500000000000026 0  -1 0.1250000000000003 0  -1 0.1750000000000002 0  -1 0.2250000000000001 0  -1 -0.3 0  -1 -0.25 0  -1 -0.15 0  -1 -0.04999999999999991 0  -1 0.05000000000000023 0  -1 0.1500000000000002 0  -1 0.2500000000000001 0  -1 -0.2 0  -1 -0.09999999999999998 0  -1 1.665334536937735e-16 0  -1 0.1000000000000003 0  -1 0.2000000000000002 0  -0.9847759065022574 -0.3765366864730179 0  -0.9414213562373096 -0.4414213562373094 0  -0.8765366864730181 -0.4847759065022573 0  -0.9923879532511287 -0.338268343236509 0  -0.9630986313697836 -0.4089790213551636 0  -0.9089790213551638 -0.4630986313697834 0  -0.838268343236509 -0.4923879532511287 0  -0.9961939766255643 -0.3191341716182545 0  -0.9885819298766931 -0.3574025148547634 0  -0.9739372689360205 -0.3927578539140908 0  -0.9522599938035465 -0.4252001887962365 0  -0.9252001887962367 -0.4522599938035464 0  -0.892757853914091 -0.4739372689360203 0  -0.8574025148547635 -0.488581929876693 0  -0.8191341716182545 -0.4961939766255643 0  -0.3000000000000003 0.3267949192431125 0  0.3181343990330772 -0.3439416921723297 0  -0.08257249764926196 -0.3383308877677023 0  -0.50979744334887 -0.3255818518047211 0  0.5060441378325211 0.3274561643884037 0  0.1037631564626732 0.3131559137665553 0  0.843149210446875 -0.1923130104173427 0  -0.8418263458721231 0.1927503215247096 0  -0.8408809410250262 -0.1897116835785854 0  0.8409071959036176 0.1896235182386696 0  0.705967194587281 0.3354524287114743 0  0.6276370409402552 0.1658336215477063 0  0.4215070288293651 0.1446794873901968 0  0.5369019087152576 -0.01677883310260353 0  0.3378219718963524 -0.0304857337078401 0  0.7359191653189867 -0.0003779706345871367 0  0.2206709281181736 0.1292871338121241 0  0.1390057666500616 -0.05482518983879574 0  0.02156604114872933 0.1091113821954512 0  -0.05991856886335568 -0.07544049830328706 0  -0.2091026540303009 0.113218101697482 0  -0.2557387210741711 -0.08957125969209863 0  -0.3742518736706093 0.02381865171750689 0  -0.7065883696935737 -0.3351547375041799 0  -0.6319769825415822 -0.1640183941417108 0  -0.7379485134301987 -0.0003221286420197649 0  -0.6263925638672921 0.1747922261462193 0  0.7000000000000003 -0.3471147448144379 0  -0.09731754444756222 0.2985839976753261 0  -0.7019016658227 0.339872535812372 0  -0.5036626740707574 0.3416097573515475 0  0.3086642085404555 0.31909644989288 0  0.4355889359290377 -0.1794947220360297 0  0.1233906847482294 -0.33992001942789 0  -0.2910439982708135 -0.2942818290560931 0  0.6252598700683595 -0.1832373653183336 0  -0.4390211493546888 -0.1414717198202583 0  -0.5445756908252299 0.01225332998817602 0  0.5094027625036279 -0.3483114655372777 0  -0.8570298735864267 0.3548088427148782 0  0.2432245006188761 -0.181388344807941 0  0.8576591493456415 0.3532994606374906 0  -0.8577781333911819 -0.3532575554640149 0  0.856914113336837 -0.3561698222938181 0  -0.4103395160999327 0.186370105143853 0  0.04059278020228735 -0.1932320619509051 0  -0.894759031223147 0.000141425932117211 0  0.8948577502800618 -0.0001596971477125707 0  -0.1430838089440986 -0.1942958300671257 0  -0.4774576034625814 0.09931171756601452 0  -0.5183660399836124 0.1805811656450362 0  -0.585484127346261 0.09352277806719765 0  -0.3551697580499665 0.2565825121934828 0  -0.3097210850651168 0.1497941034206675 0  -0.2545513270151506 0.2200065104702973 0  -0.3922956948852711 0.10509437843068 0  -0.4594137822479196 0.01803599085284146 0  -0.1532100992389315 0.205901049686404 0  -0.1986587722237813 0.3126894584592193 0  -0.1486587722237813 0.399291998837663 0  -0.04865877222378117 0.399291998837663 0  0.5673313162859936 -0.2657744154278056 0  0.6047013812518141 -0.3477131051758577 0  0.6626299350341799 -0.2651760550663858 0  0.4724958492163328 -0.2639030937866537 0  0.5304244029986986 -0.1813660436771817 0  -0.3650325738127511 -0.2178767744381757 0  -0.4744092963517794 -0.2335267858124897 0  -0.4004207208098418 -0.3099318404304071 0  -0.3473799352144299 -0.1155214897561785 0  -0.2733913596724923 -0.1919265443740958 0  0.06266459880570127 0.2111336479810033 0  0.1211184846334515 0.1191992580037876 0  0.1622170422904234 0.2212215237893397 0  
[...]
<PointData  Vectors="f_608"> 
<DataArray  type="Float64"  Name="f_608"  NumberOfComponents="3" format="ascii">2.4973248986412291e-05 3.1649075058552250e-05 0.0000000000000000e+00  1.0446828096191017e-07 -1.4331202856186878e-05 0.0000000000000000e+00  2.8985643443220130e-06 -1.0939335880482054e-05 0.0000000000000000e+00  5.8443208203089492e-06 -6.7080387807094278e-06 0.0000000000000000e+00  8.9071719822140091e-06 -1.9919213546843866e-06 0.0000000000000000e+00  1.1946414240087855e-05 3.0058940682306148e-06 0.0000000000000000e+00  1.5008981229721405e-05 9.2070973337400161e-06 0.0000000000000000e+00  1.8181379281747506e-05 1.6170070510006107e-05 0.0000000000000000e+00  2.1478723915777085e-05 2.3685392455768148e-05 0.0000000000000000e+00  -2.5451926502495694e-06 -1.6571472641208500e-05 0.0000000000000000e+00  2.8554126426272024e-05 3.9229068483397867e-05 0.0000000000000000e+00  3.2229118948686254e-05 4.6871902384765861e-05 0.0000000000000000e+00  3.6009496991479106e-05 5.4428086206992833e-05 0.0000000000000000e+00  3.9914681007040809e-05 6.1609825867202532e-05 0.0000000000000000e+00  4.3922073996465250e-05 6.8464522548977464e-05 0.0000000000000000e+00  4.8087489824240754e-05 7.4850527141361598e-05 0.0000000000000000e+00  5.2426838790822806e-05 8.0633142311432006e-05 0.0000000000000000e+00  -5.2526586428510662e-05 6.5243818319731664e-05 0.0000000000000000e+00  -5.0797847807035264e-06 -1.7452761539905794e-05 0.0000000000000000e+00  -7.5455683783574459e-06 -1.6812910790286856e-05 0.0000000000000000e+00  -1.0006052019657862e-05 -1.4591123448463772e-05 0.0000000000000000e+00  -1.2536096357724236e-05 -1.0860727563731629e-05 0.0000000000000000e+00  -1.5183001588766223e-05 -5.9245643808168565e-06 0.0000000000000000e+00  -1.7967138916787984e-05 2.2651127215445540e-08 0.0000000000000000e+00  -2.0908293301854677e-05 6.7717218556643568e-06 0.0000000000000000e+00  -2.4021794743690406e-05 1.4022611471207349e-05 0.0000000000000000e+00  -2.7297567288498596e-05 2.1586418473954585e-05 0.0000000000000000e+00  -3.0729342482366363e-05 2.9259705826554310e-05 0.0000000000000000e+00  -3.4314290760347220e-05 3.6893832623436473e-05 0.0000000000000000e+00  -3.8050233865123688e-05 4.4265901497119668e-05 0.0000000000000000e+00  -4.1944282922534125e-05 5.1329110045074035e-05 0.0000000000000000e+00  -4.6007055697877376e-05 5.7815864148928306e-05 0.0000000000000000e+00  -5.0241110756204503e-05 6.3574964420186965e-05 0.0000000000000000e+00  -4.8117465651198482e-05 6.0717712768458379e-05 0.0000000000000000e+00  5.0258118006754602e-05 7.7687237113195116e-05 0.0000000000000000e+00  4.1900648232215432e-05 6.5078065613765603e-05 0.0000000000000000e+00  3.4106050735192877e-05 5.0658698488988256e-05 0.0000000000000000e+00  2.6750091169211889e-05 3.5388384340458806e-05 0.0000000000000000e+00  1.9814447306773619e-05 1.9866168237558483e-05 0.0000000000000000e+00  1.3467029535300361e-05 6.0044690615622767e-06 0.0000000000000000e+00  7.3653755129334429e-06 -4.3880690736771100e-06 0.0000000000000000e+00  1.4820003164089893e-06 -1.2761461711521684e-05 0.0000000000000000e+00  -4.3954318386624912e-05 5.4655997462585948e-05 0.0000000000000000e+00  -8.7721696870550448e-06 -1.5899256050690573e-05 0.0000000000000000e+00  -1.3843864331391308e-05 -8.5321684676844817e-06 0.0000000000000000e+00  -1.9417441415065077e-05 3.3062779128107172e-06 0.0000000000000000e+00  -2.5639920058994625e-05 1.7782703459862064e-05 0.0000000000000000e+00  -3.2502923005602797e-05 3.3087200129240352e-05 0.0000000000000000e+00  -3.9977089395319760e-05 4.7862742826802975e-05 0.0000000000000000e+00  -3.8245824874400737e-06 -1.7193493869695512e-05 0.0000000000000000e+00  5.4826175538254769e-05 8.2238353660962760e-05 0.0000000000000000e+00  -3.6168548186099240e-05 4.0613404916062755e-05 0.0000000000000000e+00  -2.8994253080459595e-05 2.5418824019912874e-05 0.0000000000000000e+00  -2.2446830550382279e-05 1.0353413615294625e-05 0.0000000000000000e+00  -1.6556524319678747e-05 -3.0646164672613842e-06 0.0000000000000000e+00  -1.1256816791884073e-05 -1.2895229304296345e-05 0.0000000000000000e+00  -6.3175514711337178e-06 -1.7329526233147105e-05 0.0000000000000000e+00  -1.2366982004611777e-06 -1.5611039378305081e-05 0.0000000000000000e+00  4.3536067192687327e-06 -8.9073385543402609e-06 0.0000000000000000e+00  1.0449158561401426e-05 3.8338994103680431e-07 0.0000000000000000e+00  1.6580189704734964e-05 1.2609389269372249e-05 0.0000000000000000e+00  2.3181854327361653e-05 2.7734256935581452e-05 0.0000000000000000e+00  3.0379158566432176e-05 4.3051739166473572e-05 0.0000000000000000e+00  3.7953706029090356e-05 5.8089932370523282e-05 0.0000000000000000e+00  4.5983843654200208e-05 7.1725178908603951e-05 0.0000000000000000e+00  -7.0960278583405474e-05 5.6994483589687436e-05 0.0000000000000000e+00  -5.9079915281137097e-05 6.7407634896903755e-05 0.0000000000000000e+00  -6.4469260890126257e-05 6.5824672801176315e-05 0.0000000000000000e+00  -6.8718330571252976e-05 6.2022798739638568e-05 0.0000000000000000e+00  -5.5713550405833019e-05 6.6256349229137563e-05 0.0000000000000000e+00  -6.1406474046606061e-05 6.6108261865998014e-05 0.0000000000000000e+00  -6.7150542886904328e-05 6.4330132407954639e-05 0.0000000000000000e+00  -7.0181639709590040e-05 5.9675551510811548e-05 0.0000000000000000e+00  -5.4043533160886531e-05 6.5349552105470988e-05 0.0000000000000000e+00  -5.7451586951243037e-05 6.7022199497122377e-05 0.0000000000000000e+00  -6.0232194108760019e-05 6.6651989355776973e-05 0.0000000000000000e+00  -6.3260586902134098e-05 6.6467134245057412e-05 0.0000000000000000e+00  -6.5476461457636677e-05 6.4911488175180268e-05 0.0000000000000000e+00  -6.8121154109001216e-05 6.3222872592054981e-05 0.0000000000000000e+00  -6.9612605081343344e-05 6.0921233756666925e-05 0.0000000000000000e+00  -7.0764403303845197e-05 5.8369473202221822e-05 0.0000000000000000e+00  -7.1120602666115089e-05 5.5219824018119792e-05 0.0000000000000000e+00  -6.2587497381745656e-05 1.6657175855974832e-05 0.0000000000000000e+00  -6.3637188550830223e-05 2.0301768741502012e-05 0.0000000000000000e+00  -6.3959161367637950e-05 2.3964722145828971e-05 0.0000000000000000e+00  -6.3893520409044789e-05 2.7554327771717046e-05 0.0000000000000000e+00  -6.3617411267396343e-05 3.0994326860976472e-05 0.0000000000000000e+00  -6.3852684317605739e-05 3.4301616195576751e-05 0.0000000000000000e+00  -6.4601201677398767e-05 3.7571070454166789e-05 0.0000000000000000e+00  -6.5865219280608571e-05 4.0862802053166310e-05 0.0000000000000000e+00  -6.7651839026970073e-05 4.4275785015038582e-05 0.0000000000000000e+00  -6.9266679722292731e-05 4.7841406400251584e-05 0.0000000000000000e+00  -7.0535079699817873e-05 5.1508030360947225e-05 0.0000000000000000e+00  -6.1642357129598332e-05 1.4969351249654051e-05 0.0000000000000000e+00  -6.3235065226916628e-05 1.8469347308130652e-05 0.0000000000000000e+00  -6.3961224404358614e-05 2.5772707639372856e-05 0.0000000000000000e+00  -6.3669372515265287e-05 3.2656713810746060e-05 0.0000000000000000e+00  -6.5167171725987307e-05 3.9209919255213132e-05 0.0000000000000000e+00  -6.8489029812941979e-05 4.6043654815047935e-05 0.0000000000000000e+00  -7.0942501740805776e-05 5.3363346741191658e-05 0.0000000000000000e+00  -6.3856946247651584e-05 2.2137810377989585e-05 0.0000000000000000e+00  -6.3734059079370028e-05 2.9302574974039299e-05 0.0000000000000000e+00  -6.4164598210085557e-05 3.5937379599389870e-05 0.0000000000000000e+00  -6.6733691127922619e-05 4.2542012916360642e-05 0.0000000000000000e+00  -6.9955475019327479e-05 4.9664749879128272e-05 0.0000000000000000e+00  -3.6241953372826262e-05 1.2236999527461996e-05 0.0000000000000000e+00  -5.7151666550339936e-05 1.0510714005714387e-05 0.0000000000000000e+00  -5.0987614857343260e-05 7.8082274647420091e-06 0.0000000000000000e+00  -4.3982963374550591e-05 8.0032842922299596e-06 0.0000000000000000e+00  -5.9703920823909420e-05 1.2519397374097137e-05 0.0000000000000000e+00  -5.4590100824059290e-05 8.6980731290086321e-06 0.0000000000000000e+00  -4.6997422759330057e-05 8.4672637133663453e-06 0.0000000000000000e+00  -3.9966405015772917e-05 1.0312726743533254e-05 0.0000000000000000e+00  -6.0884222584901352e-05 1.3692622693619960e-05 0.0000000000000000e+00  -5.8577228907700959e-05 1.1430514187850779e-05 0.0000000000000000e+00  -5.6060519643769673e-05 9.5391852592032448e-06 0.0000000000000000e+00  -5.2414887129138341e-05 8.4284093635019058e-06 0.0000000000000000e+00  -4.9324739760430936e-05 7.5802790283949984e-06 0.0000000000000000e+00  -4.5469960754325944e-05 8.3386597133742244e-06 0.0000000000000000e+00  -4.2015377623108845e-05 8.9801112493516231e-06 0.0000000000000000e+00  -3.8017032542266542e-05 1.1753674976089331e-05 0.0000000000000000e+00  5.9353624115056220e-06 1.5016557714714722e-04 0.0000000000000000e+00  -2.8763231705007312e-05 2.3496345528783299e-05 0.0000000000000000e+00  -2.4242318830345466e-05 3.2934013413936425e-05 0.0000000000000000e+00  -2.0005279032311284e-05 4.3199064754542844e-05 0.0000000000000000e+00  -1.6034118970481195e-05 5.4149425225790248e-05 0.0000000000000000e+00  -1.2375731058424654e-05 6.5676713392593696e-05 0.0000000000000000e+00  -9.0408041441852644e-06 7.7483854494380178e-05 0.0000000000000000e+00  -6.0483084121197296e-06 8.9362958354399273e-05 0.0000000000000000e+00  -3.4183094719048138e-06 1.0113932399108688e-04 0.0000000000000000e+00  -1.1923312223835469e-06 1.1243065706199488e-04 0.0000000000000000e+00  6.5228558959121408e-07 1.2284837537031158e-04 0.0000000000000000e+00  2.1344975793759673e-06 1.3208537643856318e-04 0.0000000000000000e+00  3.2735860614879520e-06 1.3990317034186570e-04 0.0000000000000000e+00  4.1254787331827571e-06 1.4570615077512283e-04 0.0000000000000000e+00  4.7999381425431972e-06 1.4934827453998896e-04 0.0000000000000000e+00  5.3902748422880131e-06 1.5077713718460238e-04 0.0000000000000000e+00  -3.3562915247409214e-05 1.5024837931710123e-05 0.0000000000000000e+00  6.5504764466059273e-06 1.4685221831331813e-04 0.0000000000000000e+00  7.3992814637166583e-06 1.4127287251967447e-04 0.0000000000000000e+00  8.5752220709108597e-06 1.3377070873305617e-04 0.0000000000000000e+00  1.0207013062500050e-05 1.2456783935430672e-04 0.0000000000000000e+00  1.2272473856769151e-05 1.1508972347476421e-04 0.0000000000000000e+00  1.4662585842371455e-05 1.0530250787861457e-04 0.0000000000000000e+00  1.7338918237456624e-05 9.5316856416061271e-05 0.0000000000000000e+00  2.0297757456759671e-05 8.5270396523188133e-05 0.0000000000000000e+00  2.3482495882135169e-05 7.5468316983553775e-05 0.0000000000000000e+00  2.6872450008168488e-05 6.5854999519434704e-05 0.0000000000000000e+00  3.0461829546621687e-05 5.6511676025133837e-05 0.0000000000000000e+00  3.4253030020846329e-05 4.7535437316040400e-05 0.0000000000000000e+00  3.8261696533412909e-05 3.9051838170970519e-05 0.0000000000000000e+00  4.2500429962056128e-05 3.1263515621574390e-05 0.0000000000000000e+00  4.6974715554297172e-05 2.4283396096480455e-05 0.0000000000000000e+00  4.9450892208056489e-05 2.2158733225643650e-05 0.0000000000000000e+00  4.4727722979422464e-05 2.7778868365650505e-05 0.0000000000000000e+00  3.6229724459005117e-05 4.3216276844701820e-05 0.0000000000000000e+00  2.8642131005667968e-05 6.1144127331998443e-05 0.0000000000000000e+00  2.1863077171137157e-05 8.0357326950667945e-05 0.0000000000000000e+00  1.5966766881841344e-05 1.0033053168949744e-04 0.0000000000000000e+00  1.1194547743800229e-05 1.1988855064921678e-04 0.0000000000000000e+00  7.9405304489373469e-06 1.3773266745349669e-04 0.0000000000000000e+00  6.2216230903385222e-06 1.4880473508535079e-04 0.0000000000000000e+00  5.1011210372678294e-06 1.5034500578291587e-04 0.0000000000000000e+00  3.7280584743837714e-06 1.4306335421697240e-04 0.0000000000000000e+00  1.4374583356566457e-06 1.2763866009587584e-04 0.0000000000000000e+00  -2.2572015372178257e-06 1.0688023888780450e-04 0.0000000000000000e+00  -7.5001615948525853e-06 8.3432029058372120e-05 0.0000000000000000e+00  -1.4166129000059293e-05 5.9871760294017308e-05 0.0000000000000000e+00  -2.2088448976254415e-05 3.7982756157347007e-05 0.0000000000000000e+00  -3.1151798011336272e-05 1.9271622715439091e-05 0.0000000000000000e+00  4.0351849142515194e-05 3.5060972734205745e-05 0.0000000000000000e+00  3.2332159069260837e-05 5.1974444423808370e-05 0.0000000000000000e+00  2.5152403726511019e-05 7.0633470125926523e-05 0.0000000000000000e+00  1.8780951696471036e-05 9.0261594931284394e-05 0.0000000000000000e+00  1.3429834942777145e-05 1.1022810438420556e-04 0.0000000000000000e+00  9.3072423147921795e-06 1.2927924749956654e-04 0.0000000000000000e+00  6.9392173685816278e-06 1.4432307962855049e-04 0.0000000000000000e+00  5.6818060815825824e-06 1.5077413584431266e-04 0.0000000000000000e+00  4.4788513563796882e-06 1.4780425778858526e-04 0.0000000000000000e+00  2.7521905298467157e-06 1.3620761107453478e-04 0.0000000000000000e+00  -2.2331053243744114e-07 1.1776786084300263e-04 0.0000000000000000e+00  -4.6839713074688460e-06 9.5268549896797148e-05 0.0000000000000000e+00  -1.0666714578017054e-05 7.1558141402288175e-05 0.0000000000000000e+00  -1.7985576933261322e-05 4.8572562223132432e-05 0.0000000000000000e+00  -2.6467747858920546e-05 2.8101725680933097e-05 0.0000000000000000e+00  7.1104829649697483e-05 2.8493874138311048e-05 0.0000000000000000e+00  5.6501207071868089e-05 1.9321373983951592e-05 0.0000000000000000e+00  6.2565807316749200e-05 2.0246037060285642e-05 0.0000000000000000e+00  6.7698252035166420e-05 2.3643854274596948e-05 0.0000000000000000e+00  5.2850480033235001e-05 2.0922689462610224e-05 0.0000000000000000e+00  5.9075794973357758e-05 2.0374503158945076e-05 0.0000000000000000e+00  6.5712430096056843e-05 2.1485008624372804e-05 0.0000000000000000e+00  6.9743921788862891e-05 2.5861131562504094e-05 0.0000000000000000e+00  5.1064955767727065e-05 2.2019058900110579e-05 0.0000000000000000e+00  5.4723656552084737e-05 1.9947248665082886e-05 0.0000000000000000e+00  5.7772053394094608e-05 1.9966783085824611e-05 0.0000000000000000e+00  6.1163523979448789e-05 1.9759138352351035e-05 0.0000000000000000e+00  6.3757602858805119e-05 2.1052994204028279e-05 0.0000000000000000e+00  6.6902589022935086e-05 2.2509821169783340e-05 0.0000000000000000e+00  6.8878948410422788e-05 2.4672181629213792e-05 0.0000000000000000e+00  7.0652959041886705e-05 2.7129134380151348e-05 0.0000000000000000e+00  7.1714401283207494e-05 3.0259971185322781e-05 0.0000000000000000e+00  7.4026006020352225e-05 7.0583719227794995e-05 0.0000000000000000e+00  7.3904783506463826e-05 6.6767401033882636e-05 0.0000000000000000e+00  7.3135278235942882e-05 6.2960946754208241e-05 0.0000000000000000e+00  7.2030414815708394e-05 5.9229695121506855e-05 0.0000000000000000e+00  7.0733104830304012e-05 5.5640879540857364e-05 0.0000000000000000e+00  7.0010507683523573e-05 5.2173187354213724e-05 0.0000000000000000e+00  6.9842548434097412e-05 4.8726338855287492e-05 0.0000000000000000e+00  7.0219034597044237e-05 4.5244032958666804e-05 0.0000000000000000e+00  7.1134413922700748e-05 4.1631827860274915e-05 0.0000000000000000e+00  7.1826671267503632e-05 3.7876450540135298e-05 0.0000000000000000e+00  7.2131072535063992e-05 3.4057710417272158e-05 0.0000000000000000e+00  7.3658560388966315e-05 7.2391035379454458e-05 0.0000000000000000e+00  7.4075514700716738e-05 6.8679951487897841e-05 0.0000000000000000e+00  7.2612611103268346e-05 6.1082867868887252e-05 0.0000000000000000e+00  7.0300190913087383e-05 5.3900383264254076e-05 0.0000000000000000e+00  6.9961246078251583e-05 4.6993439220792402e-05 0.0000000000000000e+00  7.1516247296627916e-05 3.9766023701326775e-05 0.0000000000000000e+00  7.2046778614031682e-05 3.2149764547138029e-05 0.0000000000000000e+00  7.3571478999992954e-05 6.4858053188262410e-05 0.0000000000000000e+00  7.1355817345939760e-05 5.7407027135366946e-05 0.0000000000000000e+00  6.9860112280970165e-05 5.0450732459218840e-05 0.0000000000000000e+00  7.0654881445386236e-05 4.3466183950244922e-05 0.0000000000000000e+00  7.2036673668530329e-05 3.5970572150056007e-05 0.0000000000000000e+00  7.1039685472264788e-05 7.7484136744770664e-05 0.0000000000000000e+00  6.6746094308328861e-05 8.1475188953651569e-05 0.0000000000000000e+00  6.1376983714272587e-05 8.3415901732212039e-05 0.0000000000000000e+00  7.2619965131772384e-05 7.5098509389694127e-05 0.0000000000000000e+00  6.9382435737143735e-05 7.9833510337452913e-05 0.0000000000000000e+00  6.3628630467463644e-05 8.1820378131475621e-05 0.0000000000000000e+00  5.8003646400797539e-05 8.2542130223870678e-05 0.0000000000000000e+00  7.3318009048153711e-05 7.3779730138099516e-05 0.0000000000000000e+00  7.1976437231137164e-05 7.6360419805477741e-05 0.0000000000000000e+00  7.0388645223737684e-05 7.8699081675065487e-05 0.0000000000000000e+00  6.7716443680469223e-05 8.0470605770462580e-05 0.0000000000000000e+00  6.5511841764417450e-05 8.2156574715522626e-05 0.0000000000000000e+00  6.2497409009396049e-05 8.2500647325247210e-05 0.0000000000000000e+00  5.9741763576823979e-05 8.3128421238039710e-05 0.0000000000000000e+00  5.6343966306667684e-05 8.1907333707348552e-05 0.0000000000000000e+00  3.4020025825964200e-05 9.3289829993342956e-05 0.0000000000000000e+00  -2.9650432731578691e-05 1.5897309977737448e-05 0.0000000000000000e+00  1.1176917851894453e-05 1.1559364656355390e-05 0.0000000000000000e+00  4.8821720518329745e-05 4.8501140804554047e-05 0.0000000000000000e+00  -3.7114689449615716e-05 6.2752548511434960e-05 0.0000000000000000e+00  -4.0149391474788812e-06 1.1380352478134691e-04 0.0000000000000000e+00  -6.5190207008718968e-05 4.9699181477462005e-05 0.0000000000000000e+00  6.7338484607960963e-05 3.9199422304444285e-05 0.0000000000000000e+00  6.8572637048417361e-05 6.3604331422742938e-05 0.0000000000000000e+00  -5.9502235550500458e-05 2.7860496162239381e-05 0.0000000000000000e+00  -4.7008501020885791e-05 3.2443851842384121e-05 0.0000000000000000e+00  -5.3314367959943946e-05 4.4194439243807563e-05 0.0000000000000000e+00  -4.1195852374567170e-05 6.2461139660327991e-05 0.0000000000000000e+00  -5.2389278790259429e-05 4.6716392668415176e-05 0.0000000000000000e+00  -3.6098087504693913e-05 5.0708422893340724e-05 0.0000000000000000e+00  -6.0853454729936663e-05 4.1341932638527580e-05 0.0000000000000000e+00  -2.1439665624611489e-05 7.6133856498420335e-05 0.0000000000000000e+00  -1.2972064357822450e-05 5.0987330390430378e-05 0.0000000000000000e+00  3.3482516305226344e-06 7.9567343146910266e-05 0.0000000000000000e+00  1.2790247583936654e-05 5.0102498025955459e-05 0.0000000000000000e+00  3.1542512612402488e-05 7.5791296949179432e-05 0.0000000000000000e+00  3.5636089184311319e-05 5.0536271704205879e-05 0.0000000000000000e+00  4.7718190233431634e-05 6.0502627675654329e-05 0.0000000000000000e+00  5.9418418557919456e-05 6.5819080119604650e-05 0.0000000000000000e+00  6.1787198904927424e-05 5.6859155413218074e-05 0.0000000000000000e+00  6.6519888302189718e-05 5.2714859822464967e-05 0.0000000000000000e+00  6.0892384722070816e-05 5.1788697314403878e-05 0.0000000000000000e+00  -5.6206724689658878e-05 5.0536144401601847e-05 0.0000000000000000e+00  1.7194081261782214e-05 1.1011172584437326e-04 0.0000000000000000e+00  5.6568195306698363e-05 4.0655987355857253e-05 0.0000000000000000e+00  4.6214636666538901e-05 6.5519542542129123e-05 0.0000000000000000e+00  -2.3301252145020310e-05 9.3714226056732582e-05 0.0000000000000000e+00  -4.4670605673700346e-05 3.7801230841347454e-05 0.0000000000000000e+00  -1.0427248430770666e-05 7.0792465860653724e-06 0.0000000000000000e+00  3.3402558880151599e-05 3.0772707134400944e-05 0.0000000000000000e+00  -5.7133439923245439e-05 4.4238969462615599e-05 0.0000000000000000e+00  5.1086538653068111e-05 5.0530522181675001e-05 0.0000000000000000e+00  5.9246876592597814e-05 5.5852909406535502e-05 0.0000000000000000e+00  -4.4746143732009559e-05 3.3071520169852960e-05 0.0000000000000000e+00  6.2455892249326992e-05 2.8459175376661957e-05 0.0000000000000000e+00  -2.5546361398212347e-05 3.2568486061977333e-05 0.0000000000000000e+00  -5.2269228260906450e-05 1.7238827022631605e-05 0.0000000000000000e+00  