<?xml version="1.0"?>
<VTKFile type="UnstructuredGrid"  version="0.1"  >
<UnstructuredGrid>
<Piece  NumberOfPoints="4153" NumberOfCells="8064">
<Points>
<DataArray  type="Float64"  NumberOfComponents="3"  format="ascii">-0.4200022915044353 -0.5767040434433444 0  -0.0491901931971602 -0.685824712140602 0  -0.0980897406961027 -0.6815332088275069 0  -0.1464417122251523 -0.6740239075548737 0  -0.1941296836434129 -0.6638988880424619 0  -0.2413673303541524 -0.6520798220633662 0  -0.2877727942814416 -0.6364123216116543 0  -0.3330326314550285 -0.6181967653627686 0  -0.3771213060493326 -0.5982208463252715 0  -2.550545884097725e-06 -0.6865221839790664 0  -0.4619759811204243 -0.5558058783721793 0  -0.5033039871442732 -0.5350835001078506 0  -0.5440555673818874 -0.5148316500924589 0  -0.5842958577293913 -0.4954130633491324 0  -0.6242228335981882 -0.4771209510897629 0  -0.6638197000208663 -0.4600225888731634 0  -0.7032121630065472 -0.4449057638143361 0  0.6827177093609735 -0.4613527609919932 0  0.04916263575235812 -0.6835961392970575 0  0.09799859383769784 -0.6771295781028175 0  0.1462244935381867 -0.6673864110271321 0  0.1936112262847883 -0.6547481107764276 0  0.240051139504132 -0.6399537158057053 0  0.2855408111898984 -0.6234899580060802 0  0.3301042866431004 -0.6058164871165963 0  0.3737834326165811 -0.5874151160460791 0  0.416703928940228 -0.5687200079899549 0  0.458963366308387 -0.5500604393815545 0  0.5006542112828942 -0.5316910157495542 0  0.5418483643865528 -0.5139513125350884 0  0.5826177751931445 -0.4969329743057074 0  0.6230075586839829 -0.481048028150621 0  0.6631393426178217 -0.466935699991764 0  0.6430005411648939 -0.4740009748705649 0  -0.6833949311515775 -0.4524822080301303 0  -0.604303891172847 -0.4861724419434892 0  -0.523739940664953 -0.5248926581888246 0  -0.4410520211662138 -0.5662212555349191 0  -0.3552228905538884 -0.6083258383210705 0  -0.2647077761844699 -0.6446153444582901 0  -0.1703681391264796 -0.6692755409311085 0  -0.07369487135551397 -0.6841103380263099 0  0.6028491485539417 -0.4889116957448492 0  0.1222032938565662 -0.6726431355214425 0  0.2169496753357285 -0.6475893760105297 0  0.3079329691482035 -0.6147867723495901 0  0.3953343689311619 -0.5780836672207145 0  0.4798721956490141 -0.5408376959308711 0  0.5622895874122766 -0.5053412750355344 0  0.02460209137682378 -0.6855112817129535 0  -0.7223598116330805 -0.4387457587695223 0  0.5212960076601343 -0.522720063237205 0  0.4379100358499488 -0.5593731430710331 0  0.3520434858702514 -0.5966615496582592 0  0.2629141445308031 -0.6319047041623294 0  0.1700379434940722 -0.6613895269000272 0  0.07364045729313742 -0.6807929802513002 0  -0.02461196695911334 -0.6866325259678726 0  -0.1223456198646397 -0.6781512686980885 0  -0.2177508476901969 -0.6583493961726008 0  -0.3105466412474638 -0.6275566613694206 0  -0.3987928426770179 -0.5875990170127484 0  -0.4827164808400071 -0.54540658368408 0  -0.564224941758485 -0.5049615257303753 0  -0.6440443421807537 -0.4685051484069235 0  0.8397916830455956 -0.2728536501003662 0  0.7441937625751286 -0.4388214258523616 0  0.7963798662928283 -0.3969449312414818 0  0.8300357484658939 -0.3394033273495523 0  0.7137737372323025 -0.4505060035724286 0  0.7710699714481433 -0.4189146948644698 0  0.8120124095028328 -0.3672577873822953 0  0.8341718243613702 -0.3057847775130213 0  0.6984499090820124 -0.4568710915565541 0  0.7289080664653339 -0.4442104371447242 0  0.7576889467377391 -0.4290315577684113 0  0.7833235840280032 -0.4071924868902823 0  0.8052570992232084 -0.3826734940391275 0  0.8205172907105938 -0.3531959763622739 0  0.8316447872448783 -0.3224307424733 0  0.8365138047968872 -0.2892232770393156 0  0.8391716971404263 -0.2513486931901352 0  0.8440195321608986 0.2226485526269127 0  0.843541947985567 0.1799708293757707 0  0.8441907882133517 0.1371961632596635 0  0.8453576200673246 0.09420886358091621 0  0.8467724613186075 0.05090682063457268 0  0.8471918929391775 0.00734767633765443 0  0.8466731355058416 -0.0362670489304119 0  0.8452243923461619 -0.07980306910806348 0  0.8428671665554407 -0.1230544466620334 0  0.8408226449328006 -0.165995579477215 0  0.8393645243274545 -0.2087181820110241 0  0.845187036015363 0.2441275601346387 0  0.8435935484082863 0.2013099502339251 0  0.8447343004704247 0.1157336876103741 0  0.847100408777693 0.02914346984325908 0  0.8460682437041629 -0.05805384309666354 0  0.8418023625169699 -0.1445583163252342 0  0.8390650907328133 -0.2300362806551007 0  0.8437809371439469 0.1586047406539561 0  0.8461176634402766 0.07261424713043498 0  0.8470458064234808 -0.01446103727436618 0  0.8440779164083672 -0.1014853060272153 0  0.8400019246095166 -0.1873789886212822 0  0.6933024737644069 0.4347606012800541 0  0.8370935663001022 0.3109816619462499 0  0.8049183417362535 0.3692877133121242 0  0.7539123979573906 0.4119689815542181 0  0.8405979581624246 0.2772326112644428 0  0.8201638972879245 0.3394193949425339 0  0.7801869530098187 0.3915198179805964 0  0.7238749201757479 0.423785260292282 0  0.842587925431162 0.2606109236567118 0  0.8384853705031862 0.2939579886049786 0  0.8282377577854654 0.3250801163983777 0  0.8133648875037657 0.3547565575294401 0  0.7921534927916504 0.3796805582455997 0  0.767093522931146 0.4018633370904894 0  0.7388175944492645 0.4174833005316492 0  0.7087570780163991 0.430104311133868 0  -0.03544702624115579 0.6939316836852805 0  0.6348159054785024 0.4558906489591768 0  0.5952673348762787 0.4729508803635109 0  0.5553479486574965 0.4912529125869519 0  0.5150310355889971 0.5106412345287044 0  0.4741468369620367 0.5308068934212348 0  0.4326123323415775 0.5514181422710219 0  0.390323702395181 0.5721968294455496 0  0.3471604425031803 0.5929212160165296 0  0.3029554934732659 0.6130043100996669 0  0.2576655997541241 0.6319980389386539 0  0.2112456983348416 0.6494279473908909 0  0.1636634165208789 0.664860536256995 0  0.1149812555733485 0.6773640590603579 0  0.06540393252533994 0.6865496031903613 0  0.01518401683588221 0.6920556473370819 0  0.6741524581365885 0.4407801724351499 0  -0.08608131384184572 0.6910047104273257 0  -0.1362008162180615 0.6837577759184564 0  -0.1853961394332356 0.6725552172017627 0  -0.233195604212123 0.6574094769733504 0  -0.2796307632671841 0.6407982136749582 0  -0.3248820967580737 0.6227737291056532 0  -0.3690311546086921 0.60371761513322 0  -0.4121251854565299 0.5839317140382694 0  -0.454405927422336 0.5643127031147657 0  -0.4960267660214761 0.5448993731469792 0  -0.5370871285084056 0.5259043155662918 0  -0.5776720028900827 0.5075511976130349 0  -0.6178387133332925 0.4900512288315124 0  -0.6576681344224061 0.473779709283881 0  -0.6973037549941289 0.459391167551126 0  -0.7166354198927519 0.4537116268215147 0  -0.6773982689918321 0.4665979647394554 0  -0.5978046784897108 0.4986873099800317 0  -0.5166215769095138 0.535338594897145 0  -0.4333517433735117 0.5741104908123328 0  -0.3470878320942878 0.6133429468095142 0  -0.256564690421904 0.6493153265098506 0  -0.1609365360847224 0.6785760898238792 0  -0.06079681978678342 0.6930039472960279 0  0.04035879636903403 0.6897939431333212 0  0.1394482478470566 0.6714878242044996 0  0.234597187530269 0.6409403586851294 0  0.3251876979642672 0.6030743869427443 0  0.4115674409053993 0.5618043624541645 0  0.4946611021271921 0.5206559595062102 0  0.5753587970612979 0.4819943750621289 0  0.6543935945983749 0.4483456810019386 0  -0.6377841182577185 0.4818294957198372 0  -0.5574329495353935 0.5166395188445616 0  -0.4752920224848753 0.5545664785158095 0  -0.390717379448533 0.5938574996184099 0  -0.3023987557601636 0.6319376923590622 0  -0.2095451832863154 0.6653721975716689 0  -0.1112319787852138 0.6878945812506533 0  -0.01006814935844227 0.6935364128026253 0  0.09029023835369396 0.6823969605921139 0  0.1876134727936044 0.6574678487055933 0  0.2804497561008421 0.622667782586239 0  0.3688690344788682 0.5825911027293552 0  0.453466900839591 0.5410761106896007 0  0.5352511154065921 0.5008095683180125 0  0.6150763101180886 0.4643309181998418 0  -0.8715111647717894 0.2653106171574695 0  -0.7776863596214285 0.4315252952837227 0  -0.8293658838100495 0.3895286221199465 0  -0.862395661133501 0.3318130696323709 0  -0.7474258166565502 0.443038839573006 0  -0.8042882088357862 0.4114833823819128 0  -0.8448594607914307 0.3598589509966657 0  -0.8663088220366943 0.2982288135513524 0  -0.7322035529595138 0.44925100910049 0  -0.7624746940313724 0.4368648317238161 0  -0.7910305151093276 0.4216401374557249 0  -0.8164186564038839 0.3997703797786748 0  -0.8380460936092118 0.3751754655849531 0  -0.8531838919242566 0.3457134802815762 0  -0.8639421749509935 0.3148650972546239 0  -0.8685306875857608 0.2816907888056842 0  -0.8706908196804063 0.2438878920918784 0  -0.8741406894341597 -0.2280836515593026 0  -0.8734907802854373 -0.1855611975720808 0  -0.8740888830387694 -0.1429818163459188 0  -0.8752863289284479 -0.1002099888998023 0  -0.876829172792245 -0.05713822376890386 0  -0.8774444104297071 -0.01379709263726901 0  -0.8771503380085094 0.02960847343529624 0  -0.8759510760282421 0.07294954901657816 0  -0.8738179038789865 0.1160277687021538 0  -0.8719888819548287 0.1588046798279854 0  -0.8707313807734 0.2013841672136508 0  -0.8752652245123123 -0.2495420305119449 0  -0.8736135511912465 -0.2068184012246471 0  -0.8746417358490336 -0.1216262456193661 0  -0.8772532871727226 -0.03548447156015141 0  -0.8766654001088022 0.05129586799127867 0  -0.8728589916318844 0.1374462310049595 0  -0.8705104922341147 0.2226344693220174 0  -0.8736963411959207 -0.1642895056639208 0  -0.876091834371328 -0.07873087387400754 0  -0.8774071323642337 0.007905734366051166 0  -0.8749255180186117 0.09454430782558754 0  -0.8712695691457241 0.1801135093366176 0  -0.866861744333188 -0.3161913081642034 0  -0.8342733306845709 -0.3740577645603252 0  -0.7830460942199661 -0.4163844770224031 0  -0.8704599403346025 -0.2825262168994273 0  -0.8495827743735955 -0.3443251373026288 0  -0.809485961355863 -0.3962691138231036 0  -0.7529749980554193 -0.4281303825989493 0  -0.8724695554778061 -0.2659470495414114 0  -0.868260891
[...]
<CellData  Scalars="f_4074"> 
<DataArray  type="Float64"  Name="f_4074"  format="ascii">1.1177090608202668e-01   1.1177195482580236e-01   1.1176859818819833e-01   1.1177012844979650e-01   1.1177162447920476e-01   1.1176855393402110e-01   1.1177298670203356e-01   1.1177312718034127e-01   1.1176678318026816e-01   1.1177185594058348e-01   1.1176540758300769e-01   1.1176682353033070e-01   1.1177101071341194e-01   1.1177444234619038e-01   1.1176998341080358e-01   1.1177158424422118e-01   1.1177231508335955e-01   1.1176570723819655e-01   1.1177356447189624e-01   1.1177311968139597e-01   1.1176783213573904e-01   1.1177472469662850e-01   1.1176996290689495e-01   1.1176872420941064e-01   1.1177574596085600e-01   1.1177095185316832e-01   1.1177542305912301e-01   1.1177637751210229e-01   1.1177458012298841e-01   1.1177122789840090e-01   1.1177572854083571e-01   1.1177551977348875e-01   1.1176453263879542e-01   1.1177333265404808e-01   1.1176357441121944e-01   1.1176499746165422e-01   1.1177400845431168e-01   1.1176642794195139e-01   1.1177380529579607e-01   1.1177511463720398e-01   1.1176703054447169e-01   1.1177761084349280e-01   1.1175611367722167e-01   1.1176262771041068e-01   1.1176915693775370e-01   1.1177515075144051e-01   1.1176385177764729e-01   1.1176581280118658e-01   1.1177230059183191e-01   1.1177628873607059e-01   1.1177224192846368e-01   1.1177275266565373e-01   1.1177707984753174e-01   1.1177447735492031e-01   1.1177631462762609e-01   1.1177728114690912e-01   1.1177261402093096e-01   1.1177581860985919e-01   1.1176747704580120e-01   1.1176895310651655e-01   1.1177427010497951e-01   1.1177608689562321e-01   1.1177075896940397e-01   1.1176983946364465e-01   1.1179718203902830e-01   1.1178667036619960e-01   1.1178932824571983e-01   1.1179511461939252e-01   1.1178059316439989e-01   1.1178412751146374e-01   1.1177436269476075e-01   1.1178133845106115e-01   1.1178860765993572e-01   1.1177771443304266e-01   1.1178554628706117e-01   1.1178414799878121e-01   1.1179364671361089e-01   1.1177588844224721e-01   1.1177989915809822e-01   1.1179187593507313e-01   1.1177407706217887e-01   1.1178193735873909e-01   1.1176727626118686e-01   1.1177140377520738e-01   1.1177628508348957e-01   1.1176321564102276e-01   1.1177432143172118e-01   1.1178034280707727e-01   1.1176029324549289e-01   1.1177587879942386e-01   1.1174393301082458e-01   1.1175493058463622e-01   1.1176705181889458e-01   1.1177484547002134e-01   1.1175716241726477e-01   1.1176859267391639e-01   1.1178273547521160e-01   1.1177014897118243e-01   1.1177856003529121e-01   1.1177888114653921e-01   1.1176849093100613e-01   1.1178076256694706e-01   1.1175796691646872e-01   1.1176502913847669e-01   1.1177731954073522e-01   1.1175675330085290e-01   1.1176647099478185e-01   1.1175976516355314e-01   1.1177801013065376e-01   1.1175088210676697e-01   1.1175673808224257e-01   1.1175182493919571e-01   1.1179057210227163e-01   1.1175814965046366e-01   1.1176699486906669e-01   1.1178776399759204e-01   1.1174569369771795e-01   1.1176638676178569e-01   1.1172380395878201e-01   1.1174843325660999e-01   1.1177374486582699e-01   1.1173420240616327e-01   1.1174567493412152e-01   1.1174105105648634e-01   1.1179273232081295e-01   1.1170891116906118e-01   1.1172002353448854e-01   1.1177873680863909e-01   1.1169101668904634e-01   1.1173052454929665e-01   1.1171187712244282e-01   1.1175169106219381e-01   1.1173578279226930e-01   1.1176459528666097e-01   1.1175591538702653e-01   1.1175160258118520e-01   1.1171648339845032e-01   1.1173598515592309e-01   1.1172210564458700e-01   1.1176569152220474e-01   1.1174560858661554e-01   1.1175349941021420e-01   1.1175879701008345e-01   1.1175195891769278e-01   1.1173969409905504e-01   1.1176929853844039e-01   1.1175833227372041e-01   1.1175645460152314e-01   1.1176311859713473e-01   1.1175738905252094e-01   1.1176369581708090e-01   1.1175975152028060e-01   1.1175924600914161e-01   1.1176683616282838e-01   1.1176189199471868e-01   1.1176138003934036e-01   1.1175685807313289e-01   1.1176306548328134e-01   1.1176087053627540e-01   1.1175784698181188e-01   1.1172858440387942e-01   1.1174346168686872e-01   1.1173522992527374e-01   1.1177190889400526e-01   1.1174853600426327e-01   1.1177489209418597e-01   1.1176248445963283e-01   1.1176063619668561e-01   1.1174118270393772e-01   1.1175140834167865e-01   1.1174741918638822e-01   1.1177521905539842e-01   1.1176631536935719e-01   1.1176036288466616e-01   1.1176678884823460e-01   1.1176685462985070e-01   1.1175543423914858e-01   1.1176113036214175e-01   1.1176508479492686e-01   1.1175891544442719e-01   1.1176387929719042e-01   1.1176763588091973e-01   1.1176609754943159e-01   1.1176437760352230e-01   1.1176589854973734e-01   1.1176343260195246e-01   1.1176613923161643e-01   1.1176613497051686e-01   1.1176182021262338e-01   1.1176577584539502e-01   1.1176792023318623e-01   1.1176625701184784e-01   1.1166376820525728e-01   1.1174899030696882e-01   1.1172390232025260e-01   1.1169279820441207e-01   1.1176447170412121e-01   1.1174467733538852e-01   1.1176973769148907e-01   1.1175740756415549e-01   1.1174068510477458e-01   1.1176626295868958e-01   1.1175995461787470e-01   1.1175220404215595e-01   1.1172154886753477e-01   1.1176617065802372e-01   1.1176074201560272e-01   1.1174163400024623e-01   1.1177038295287559e-01   1.1176398068480109e-01   1.1177480356092682e-01   1.1177098594250476e-01   1.1177446269024012e-01   1.1177785910596402e-01   1.1177424101884587e-01   1.1176611747812927e-01   1.1178118102246892e-01   1.1178080952705646e-01   1.1178501625434606e-01   1.1178287894489716e-01   1.1177621726150459e-01   1.1177083572323879e-01   1.1178118249350877e-01   1.1177273381333140e-01   1.1177157273482903e-01   1.1177462406735775e-01   1.1177943293577032e-01   1.1177185786150640e-01   1.1177846110281824e-01   1.1177817756001888e-01   1.1178123577232217e-01   1.1177839989483529e-01   1.1178543671290377e-01   1.1178222242040746e-01   1.1178659101795752e-01   1.1178120938765516e-01   1.1178038521740162e-01   1.1178345080941988e-01   1.1178307974281093e-01   1.1178313344373753e-01   1.1175575332322260e-01   1.1177850751429588e-01   1.1177816644663288e-01   1.1176614414900658e-01   1.1178555336444214e-01   1.1178411831619743e-01   1.1178849866168497e-01   1.1178348145604035e-01   1.1178104986268624e-01   1.1178641010550476e-01   1.1178377264464859e-01   1.1178382954293542e-01   1.1177459567856199e-01   1.1178667593574050e-01   1.1178614871683802e-01   1.1177922032770853e-01   1.1175287402281170e-01   1.1178880736283808e-01   1.1179815051263491e-01   1.1178597961109342e-01   1.1179299388121383e-01   1.1179125148089997e-01   1.1179292695917024e-01   1.1180380472681790e-01   1.1179336442311708e-01   1.1179344965320406e-01   1.1179294684303570e-01   1.1179217209872373e-01   1.1179305308210132e-01   1.1177938863917698e-01   1.1179230320929984e-01   1.1178129515307707e-01   1.1179200317426255e-01   1.1179198832552480e-01   1.1179160098673040e-01   1.1179242238460166e-01   1.1179127410704220e-01   1.1179205811554306e-01   1.1179034325247786e-01   1.1179093826108896e-01   1.1179114007392787e-01   1.1179067822373302e-01   1.1179092807313669e-01   1.1179188741571520e-01   1.1179356297195149e-01   1.1179153276150595e-01   1.1179270247063357e-01   1.1180163782077096e-01   1.1179159639737435e-01   1.1179032595437245e-01   1.1179005848540703e-01   1.1179131961206881e-01   1.1178813852528237e-01   1.1179026926799092e-01   1.1178805516862826e-01   1.1178998033534814e-01   1.1178776702565828e-01   1.1178510274414109e-01   1.1178710689337354e-01   1.1178928233865658e-01   1.1179063342009946e-01   1.1178968595984450e-01   1.1179011463045099e-01   1.1179067579248109e-01   1.1178537305139985e-01   1.1178156917274729e-01   1.1178996094808437e-01   1.1178985085326164e-01   1.1179226925440752e-01   1.1178859948903372e-01   1.1179248997229439e-01   1.1180161707058203e-01   1.1179004014382089e-01   1.1179199848129608e-01   1.1179071844240157e-01   1.1178978650237095e-01   1.1178089768684119e-01   1.1178694821923726e-01   1.1179154811275539e-01   1.1176305717113316e-01   1.1177766584359608e-01   1.1177714915309987e-01   1.1177694248252194e-01   1.1177605990385860e-01   1.1177824672365164e-01   1.1177692034016547e-01   1.1177802980442028e-01   1.1177757861935084e-01   1.1177735061425730e-01   1.1177920849872541e-01   1.1177845124340963e-01   1.1177764529695780e-01   1.1177692289638642e-01   1.1177699212387870e-01   1.1177722836117321e-01   1.1177681477748511e-01   1.1178064584326065e-01   1.1177898081868955e-01   1.1178084708798276e-01   1.1177925167871698e-01   1.1177951898340691e-01   1.1177920378151314e-01   1.1177834826121122e-01   1.1177827913327520e-01   1.1178144972193825e-01   1.1178109295550098e-01   1.1177987092443097e-01   1.1177938517265433e-01   1.1177788006186118e-01   1.1177739870303501e-01   1.1177735394531030e-01   1.1177643178189149e-01   1.1178001256515112e-01   1.1178244140732488e-01   1.1178176103850754e-01   1.1178052199376400e-01   1.1178495262308971e-01   1.1178364662083773e-01   1.1178421848682855e-01   1.1178325326693976e-01   1.1178495031088895e-01   1.1178593343434830e-01   1.1178341158282813e-01   1.1178154636782481e-01   1.1178246518792087e-01   1.1178219661077947e-01   1.1177996137819837e-01   1.1177806802933847e-01   1.1177664417056041e-01   1.1177538451379561e-01   1.1177704827760003e-01   1.1177586857580654e-01   1.1177704888681386e-01   1.1177797479923342e-01   1.1177421445053602e-01   1.1177463356780469e-01   1.1177959550688091e-01   1.1177719970358545e-01   1.1177596568609389e-01   1.1177362473359038e-01   1.1177600996971550e-01   1.1177028651685877e-01   1.1177091858200359e-01   1.1176903024810828e-01   1.1177205500489105e-01   1.1176949251809982e-01   1.1177952003664549e-01   1.1177344342821068e-01   1.1177366799807546e-01   1.1177945375293387e-01   1.1177443658303314e-01   1.1177058913762035e-01   1.1178057690682378e-01   1.1177618176400508e-01   1.1178262802398496e-01   1.1178035457187167e-01   1.1177388975811973e-01   1.1177181384792609e-01   1.1177942088932069e-01   1.1177433506265530e-01   1.1177873628290209e-01   1.1178213175369353e-01   1.1177869976816293e-01   1.1177652024166332e-01   1.1178156609698214e-01   1.1177677975633879e-01   1.1177968864958326e-01   1.1178008814561199e-01   1.1177861489665672e-01   1.1178093573980773e-01   1.1177829279481244e-01   1.1177696974966313e-01   1.1177507417413862e-01   1.1177927134515157e-01   1.1177561165043418e-01   1.1177282549271049e-01   1.1178429609706871e-01   1.1178101290562663e-01   1.1178580852124130e-01   1.1178355278969861e-01   1.1178289541807897e-01   1.1178489551269558e-01   1.1178213249125395e-01   1.1178067482957080e-01   1.1178751541412085e-01   1.1178541019419042e-01   1.1178755288434829e-01   1.1178613299564258e-01   1.1178279416106368e-01   1.1178013176432154e-01   1.1178352270892064e-01   1.1178148766747843e-01   1.1177463078505362e-01   1.1177363727867679e-01   1.1177901174241156e-01   1.1177495362164819e-01   1.1177602210350386e-01   1.1177887654383128e-01   1.1177634454001806e-01   1.1177468925962324e-01   1.1177926674027523e-01   1.1177689968292534e-01   1.1177977043205935e-01   1.1177830415602681e-01   1.1177466514981980e-01   1.1177418835350598e-01   1.1177795706274436e-01   1.1177672591028791e-01   1.1178143620059494e-01   1.1178702722942063e-01   1.1178031846286876e-01   1.1177990454570462e-01   1.1178616251934340e-01   1.1177957241308613e-01   1.1178642308519582e-01   1.1178782184148493e-01   1.1177683050023354e-01   1.1178454003651597e-01   1.1177488964838878e-01   1.1177545958751636e-01   1.1178169348071049e-01   1.1178863159595059e-01   1.1178091011497837e-01   1.1178265916408121e-01   1.1178262069359766e-01   1.1177218020294781e-01   1.1178163222788695e-01   1.1178403219692962e-01   1.1177487267522583e-01   1.1178482910358579e-01   1.1177834984887466e-01   1.1177753805960465e-01   1.1178260402777558e-01   1.1177611080523574e-01   1.1178241847036809e-01   1.1178503768283518e-01   1.1178716676465601e-01   1.1178151493132131e-01   1.1178735427423006e-01   1.1178914293466777e-01   1.1177319267424905e-01   1.1178110262923949e-01   1.1177153191464137e-01   1.1176930626985941e-01   1.1177781714360295e-01   1.1176686053496115e-01   1.1177631963548035e-01   1.1177952432652379e-01   1.1177322255363455e-01   1.1178063682801928e-01   1.1176682810097664e-01   1.1176577164163835e-01   1.1177281835374069e-01   1.1178021557513770e-01   1.1177037709690957e-01   1.1177318405375034e-01   1.1178360518053433e-01   1.1178939596360088e-01   1.1178201238883424e-01   1.1178427663874066e-01   1.1178742211570093e-01   1.1178246939558149e-01   1.1178674220853438e-01   1.1178938878850547e-01   1.1177943152020961e-01   1.1178468996556704e-01   1.1177620946436904e-01   1.1177897203371100e-01   1.1178506976671683e-01   1.1178899270534912e-01   1.1178163275226753e-01   1.1178387667563223e-01   1.1165633300743137e-01   1.1168693337400083e-01   1.1169665886021547e-01   1.1173362464590893e-01   1.1171782569083910e-01   1.1177502940798355e-01   1.1174274307530709e-01   1.1172022694571608e-01   1.1170432372838750e-01   1.1172529233851042e-01   1.1171551256542477e-01   1.1177027903011295e-01   1.1173102655735978e-01   1.1173121468884691e-01   1.1176903340061772e-01   1.1174722660980878e-01   1.1173509670318679e-01   1.1177369355630301e-01   1.1175443412942695e-01   1.1174814494295225e-01   1.1176946984382306e-01   1.1175288974563506e-01   1.1177445985296593e-01   1.1176620284203716e-01   1.1175850717467350e-01   1.1177779036623577e-01   1.1176382167893723e-01   1.1176135523709195e-01   1.1174870774146681e-01   1.1177741688462944e-01   1.1175823950693262e-01   1.1174427545690321e-01   1.1172409104123893e-01   1.1174216318773519e-01   1.1173120148176972e-01   1.1177501018923426e-01   1.1174911822277372e-01   1.1177816673139299e-01   1.1176151389659300e-01   1.1175969967715285e-01   1.1173822415153367e-01   1.1174969200366980e-01   1.1173875599233732e-01   1.1177126951194313e-01   1.1177258447779742e-01   1.1176058881744187e-01   1.1176789201939792e-01   1.1177397607120536e-01   1.1175604150546621e-01   1.1175490488761756e-01   1.1178116136650526e-01   1.1176441748096727e-01   1.1176588812609314e-01   1.1178542719293223e-01   1.1177213536448820e-01   1.1176435999998884e-01   1.1177937369935588e-01   1.1176694218642114e-01   1.1177783556470439e-01   1.1178112768858194e-01   1.1177049181714234e-01   1.1176995802745102e-01   1.1178701977108993e-01   1.1178126692382594e-01   1.1178321030714679e-01   1.1178227395306467e-01   1.1177708568197021e-01   1.1177950609923601e-01   1.1177645586509383e-01   1.1177133508584200e-01   1.1176919423974682e-01   1.1177693767661430e-01   1.1177025891449770e-01   1.1176955124764504e-01   1.1176021655102088e-01   1.1176259195747719e-01   1.1177571683498656e-01   1.1177015933010706e-01   1.1176602781194339e-01   1.1177124913248766e-01   1.1175974005308160e-01   1.1175007010219436e-01   1.1174377885191664e-01   1.1175918747690207e-01   1.1173947225399643e-01   1.1174398504647805e-01   1.1174757747280926e-01   1.1175598215606460e-01   1.1172195400236433e-01   1.1173740324663510e-01   1.1167767585527903e-01   1.1172349697724862e-01   1.1175939104454925e-01   1.1176066409791358e-01   1.1174462263209890e-01   1.1176056097492973e-01   1.1174581733526226e-01   1.1174467099506198e-01   1.1172311672033888e-01   1.1172999934806821e-01   1.1172478196173936e-01   1.1170549832682095e-01   1.1167675447968316e-01   1.1172159973221699e-01   1.1168602310652280e-01   1.1167966083686774e-01   1.1162656709605391e-01   1.1164103000503790e-01   1.1172305013233395e-01   1.1167505406863568e-01   1.1166947144524748e-01   1.1169152387339634e-01   1.1176717305051416e-01   1.1174677400390662e-01   1.1175417301122155e-01   1.1176146798051041e-01   1.1172622718100220e-01   1.1175715570686481e-01   1.1169097598979882e-01   1.1173008767743532e-01   1.1174888168908549e-01   1.1168348673459545e-01   1.1170779654638444e-01   1.1171952171586248e-01   1.1176521181814028e-01   1.1170129755191759e-01   1.1172839756110330e-01   1.1173295359739110e-01   1.1179347267372694e-01   1.1179247535884432e-01   1.1179366561430087e-01   1.1179357523558034e-01   1.1179025407769828e-01   1.1179157160944944e-01   1.1179178887320655e-01   1.1179258501725410e-01   1.1179193999377303e-01   1.1178988802942184e-01   1.1179060773726231e-01   1.1179073417234063e-01   1.1179520148088042e-01   1.1179458296552526e-01   1.1179363561319015e-01   1.1179565310277195e-01   1.1178904636378356e-01   1.1178957990543822e-01   1.1179024683109240e-01   1.1179099627603264e-01   1.1179155974054811e-01   1.1179262663958237e-01   1.1179336059061196e-01   1.1179264799091800e-01   1.1179173483355086e-01   1.1179243551936191e-01   1.1179229246754523e-01   1.1179335525358476e-01   1.1179352632547405e-01   1.1179439497065065e-01   1.1179447636976932e-01   1.1179565916446607e-01   1.1178903702346275e-01   1.1178825800519680e-01   1.1178760300656081e-01   1.1178845293691551e-01   1.1178776634007545e-01   1.1178732068803159e-01   1.1178905990826410e-01   1.1178946448578637e-01   1.1178544281030917e-01   1.1178654640067710e-01   1.1178526046072249e-01   1.1178671515304864e-01   1.1179046457203377e-01   1.1179093587085852e-01   1.1178968676235340e-01   1.1179143520700512e-01   1.1179584458874391e-01   1.1179651506263928e-01   1.1179502860015496e-01   1.1179529816118360e-01   1.1179535693924290e-01   1.1179492057980277e-01   1.1179321574563796e-01   1.1179605807734824e-01   1.1179422270155871e-01   1.1179367862325280e-01   1.1179281716199863e-01   1.1179320036598980e-01   1.1179318294405108e-01   1.1180062170526747e-01   1.1179900248317971e-01   1.1177970994773362e-01   1.1178155442747237e-01   1.1177750330458280e-01   1.1178196429387927e-01   1.1177846638086636e-01   1.1177581616783067e-01   1.1177753100131160e-01   1.1177511769347265e-01   1.1177563706752747e-01   1.1178219422311046e-01   1.1177527355550528e-01   1.1178239366324884e-01   1.1177790881518071e-01   1.1177974241349688e-01   1.1177707575123454e-01   1.1177961648958437e-01   1.1178061941777991e-01   1.1177449916072293e-01   1.1177811949366617e-01   1.1177406211505092e-01   1.1177472192244486e-01   1.1178034792240334e-01   1.1177668353987907e-01   1.1178134061354122e-01   1.1178039276799150e-01   1.1177728478678466e-01   1.1178404988476077e-01   1.1177676637358856e-01   1.1177948278016045e-01   1.1177681780682916e-01   1.1178089574826199e-01   1.1177851717459311e-01   1.1177848853017128e-01   1.1178271683246073e-01   1.1177346046415358e-01   1.1178228271218832e-01   1.1177764537691649e-01   1.1177340787506929e-01   1.1178018676479230e-01   1.1177005991788154e-01   1.1177424709000247e-01   1.1178530389631885e-01   1.1176780443655845e-01   1.1176930692288627e-01   1.1176704409232432e-01   1.1178302523187113e-01   1.1177377428739563e-01   1.1177196693394260e-01   1.1177430536165732e-01   1.1178222479105446e-01   1.1178042404754793e-01   1.1178235194942900e-01   1.1178365173520224e-01   1.1178145394130491e-01   1.1178617500011755e-01   1.1178178374438084e-01   1.1178325629295731e-01   1.1178525501546104e-01   1.1177941187752220e-01   1.1177686794350836e-01   1.1177914672642167e-01   1.1178751243837427e-01   1.1178377964305843e-01   1.1178088370881918e-01   1.1178364432747873e-01   1.1178953474475793e-01   1.1179157474625476e-01   1.1179540805548835e-01   1.1179013949210020e-01   1.1178957677783480e-01   1.1179183904472875e-01   1.1179091765233069e-01   1.1179093921196449e-01   1.1179124405052623e-01   1.1179058159885664e-01   1.1179057914492227e-01   1.1179091861578967e-01   1.1179170331480183e-01   1.1179118536985212e-01   1.1179104339979992e-01   1.1179101807662231e-01   1.1179026387908295e-01   1.1178943796115241e-01   1.1178975492228273e-01   1.1179039650014913e-01   1.1178764721220877e-01   1.1178985634304318e-01   1.1178793043553742e-01   1.1178954360008905e-01   1.1178863143480958e-01   1.1178527901925836e-01   1.1178706256398074e-01   1.1178877441204679e-01   1.1179068131