<?xml version="1.0"?>
<VTKFile type="UnstructuredGrid"  version="0.1"  >
<UnstructuredGrid>
<Piece  NumberOfPoints="4153" NumberOfCells="8064">
<Points>
<DataArray  type="Float64"  NumberOfComponents="3"  format="ascii">-0.4249999999999999 -0.5 0  -0.02499999999999988 -0.5 0  -0.07499999999999987 -0.5 0  -0.1249999999999998 -0.5 0  -0.1749999999999998 -0.5 0  -0.2249999999999998 -0.5 0  -0.2749999999999998 -0.5 0  -0.3249999999999998 -0.5 0  -0.3749999999999999 -0.5 0  0.02500000000000016 -0.5 0  -0.4749999999999998 -0.5 0  -0.5249999999999998 -0.5 0  -0.5749999999999998 -0.5 0  -0.6249999999999999 -0.5 0  -0.6749999999999999 -0.5 0  -0.725 -0.5 0  -0.775 -0.5 0  0.8 -0.5 0  0.07500000000000025 -0.5 0  0.1250000000000003 -0.5 0  0.1750000000000004 -0.5 0  0.2250000000000004 -0.5 0  0.2750000000000004 -0.5 0  0.3250000000000003 -0.5 0  0.3750000000000001 -0.5 0  0.4250000000000002 -0.5 0  0.4750000000000002 -0.5 0  0.5250000000000001 -0.5 0  0.5750000000000002 -0.5 0  0.625 -0.5 0  0.675 -0.5 0  0.725 -0.5 0  0.775 -0.5 0  0.75 -0.5 0  -0.75 -0.5 0  -0.6499999999999999 -0.5 0  -0.5499999999999998 -0.5 0  -0.4499999999999998 -0.5 0  -0.3499999999999999 -0.5 0  -0.2499999999999998 -0.5 0  -0.1499999999999998 -0.5 0  -0.04999999999999988 -0.5 0  0.7 -0.5 0  0.1500000000000004 -0.5 0  0.2500000000000003 -0.5 0  0.3500000000000002 -0.5 0  0.4500000000000002 -0.5 0  0.5500000000000002 -0.5 0  0.65 -0.5 0  0.0500000000000002 -0.5 0  -0.8 -0.5 0  0.6000000000000001 -0.5 0  0.5000000000000002 -0.5 0  0.4000000000000001 -0.5 0  0.3000000000000003 -0.5 0  0.2000000000000004 -0.5 0  0.1000000000000003 -0.5 0  1.110223024625157e-16 -0.5 0  -0.09999999999999987 -0.5 0  -0.1999999999999998 -0.5 0  -0.2999999999999998 -0.5 0  -0.3999999999999999 -0.5 0  -0.4999999999999998 -0.5 0  -0.5999999999999999 -0.5 0  -0.7 -0.5 0  1 -0.3 0  0.8765366864730179 -0.4847759065022574 0  0.9414213562373094 -0.4414213562373097 0  0.9847759065022573 -0.3765366864730181 0  0.838268343236509 -0.4923879532511287 0  0.9089790213551636 -0.4630986313697836 0  0.9630986313697834 -0.4089790213551639 0  0.9923879532511286 -0.338268343236509 0  0.8191341716182545 -0.4961939766255644 0  0.8574025148547635 -0.488581929876693 0  0.8927578539140908 -0.4739372689360205 0  0.9252001887962364 -0.4522599938035466 0  0.9522599938035463 -0.4252001887962368 0  0.9739372689360204 -0.392757853914091 0  0.9885819298766929 -0.3574025148547635 0  0.9961939766255643 -0.3191341716182545 0  1 -0.275 0  1 0.275 0  1 0.225 0  1 0.175 0  1 0.125 0  1 0.07499999999999994 0  1 0.02499999999999987 0  1 -0.0250000000000002 0  1 -0.07500000000000026 0  1 -0.1250000000000003 0  1 -0.1750000000000002 0  1 -0.2250000000000001 0  1 0.3 0  1 0.25 0  1 0.15 0  1 0.04999999999999991 0  1 -0.05000000000000023 0  1 -0.1500000000000002 0  1 -0.2500000000000001 0  1 0.2 0  1 0.09999999999999998 0  1 -1.665334536937735e-16 0  1 -0.1000000000000003 0  1 -0.2000000000000002 0  0.8 0.5 0  0.9847759065022573 0.3765366864730181 0  0.9414213562373094 0.4414213562373097 0  0.8765366864730179 0.4847759065022574 0  0.9923879532511286 0.338268343236509 0  0.9630986313697834 0.4089790213551639 0  0.9089790213551636 0.4630986313697836 0  0.838268343236509 0.4923879532511287 0  0.9961939766255643 0.3191341716182545 0  0.9885819298766929 0.3574025148547635 0  0.9739372689360204 0.392757853914091 0  0.9522599938035463 0.4252001887962368 0  0.9252001887962364 0.4522599938035466 0  0.8927578539140908 0.4739372689360205 0  0.8574025148547635 0.488581929876693 0  0.8191341716182545 0.4961939766255644 0  -0.02500000000000016 0.5 0  0.725 0.5 0  0.6749999999999999 0.5 0  0.6249999999999999 0.5 0  0.5749999999999998 0.5 0  0.5249999999999998 0.5 0  0.4749999999999998 0.5 0  0.4249999999999999 0.5 0  0.3749999999999999 0.5 0  0.3249999999999998 0.5 0  0.2749999999999998 0.5 0  0.2249999999999998 0.5 0  0.1749999999999998 0.5 0  0.1249999999999998 0.5 0  0.07499999999999987 0.5 0  0.02499999999999988 0.5 0  0.775 0.5 0  -0.07500000000000025 0.5 0  -0.1250000000000003 0.5 0  -0.1750000000000004 0.5 0  -0.2250000000000004 0.5 0  -0.2750000000000004 0.5 0  -0.3250000000000003 0.5 0  -0.3750000000000001 0.5 0  -0.4250000000000002 0.5 0  -0.4750000000000002 0.5 0  -0.5250000000000001 0.5 0  -0.5750000000000002 0.5 0  -0.625 0.5 0  -0.675 0.5 0  -0.725 0.5 0  -0.775 0.5 0  -0.8 0.5 0  -0.75 0.5 0  -0.65 0.5 0  -0.5500000000000002 0.5 0  -0.4500000000000002 0.5 0  -0.3500000000000002 0.5 0  -0.2500000000000003 0.5 0  -0.1500000000000004 0.5 0  -0.0500000000000002 0.5 0  0.04999999999999988 0.5 0  0.1499999999999998 0.5 0  0.2499999999999998 0.5 0  0.3499999999999999 0.5 0  0.4499999999999998 0.5 0  0.5499999999999998 0.5 0  0.6499999999999999 0.5 0  0.75 0.5 0  -0.7 0.5 0  -0.6000000000000001 0.5 0  -0.5000000000000002 0.5 0  -0.4000000000000001 0.5 0  -0.3000000000000003 0.5 0  -0.2000000000000004 0.5 0  -0.1000000000000003 0.5 0  -1.110223024625157e-16 0.5 0  0.09999999999999987 0.5 0  0.1999999999999998 0.5 0  0.2999999999999998 0.5 0  0.3999999999999999 0.5 0  0.4999999999999998 0.5 0  0.5999999999999999 0.5 0  0.7 0.5 0  -1 0.3 0  -0.8765366864730181 0.4847759065022573 0  -0.9414213562373097 0.4414213562373094 0  -0.9847759065022574 0.3765366864730179 0  -0.838268343236509 0.4923879532511287 0  -0.9089790213551638 0.4630986313697834 0  -0.9630986313697836 0.4089790213551636 0  -0.9923879532511287 0.338268343236509 0  -0.8191341716182545 0.4961939766255643 0  -0.8574025148547635 0.488581929876693 0  -0.892757853914091 0.4739372689360203 0  -0.9252001887962368 0.4522599938035464 0  -0.9522599938035466 0.4252001887962365 0  -0.9739372689360205 0.3927578539140908 0  -0.9885819298766931 0.3574025148547634 0  -0.9961939766255643 0.3191341716182545 0  -1 0.275 0  -1 -0.275 0  -1 -0.225 0  -1 -0.175 0  -1 -0.125 0  -1 -0.07499999999999994 0  -1 -0.02499999999999987 0  -1 0.0250000000000002 0  -1 0.07500000000000026 0  -1 0.1250000000000003 0  -1 0.1750000000000002 0  -1 0.2250000000000001 0  -1 -0.3 0  -1 -0.25 0  -1 -0.15 0  -1 -0.04999999999999991 0  -1 0.05000000000000023 0  -1 0.1500000000000002 0  -1 0.2500000000000001 0  -1 -0.2 0  -1 -0.09999999999999998 0  -1 1.665334536937735e-16 0  -1 0.1000000000000003 0  -1 0.2000000000000002 0  -0.9847759065022574 -0.3765366864730179 0  -0.9414213562373096 -0.4414213562373094 0  -0.8765366864730181 -0.4847759065022573 0  -0.9923879532511287 -0.338268343236509 0  -0.9630986313697836 -0.4089790213551636 0  -0.9089790213551638 -0.4630986313697834 0  -0.838268343236509 -0.4923879532511287 0  -0.9961939766255643 -0.3191341716182545 0  -0.9885819298766931 -0.3574025148547634 0  -0.9739372689360205 -0.3927578539140908 0  -0.9522599938035465 -0.4252001887962365 0  -0.9252001887962367 -0.4522599938035464 0  -0.892757853914091 -0.4739372689360203 0  -0.8574025148547635 -0.488581929876693 0  -0.8191341716182545 -0.4961939766255643 0  -0.3000000000000003 0.3267949192431125 0  0.3181343990330772 -0.3439416921723297 0  -0.08257249764926196 -0.3383308877677023 0  -0.50979744334887 -0.3255818518047211 0  0.5060441378325211 0.3274561643884037 0  0.1037631564626732 0.3131559137665553 0  0.843149210446875 -0.1923130104173427 0  -0.8418263458721231 0.1927503215247096 0  -0.8408809410250262 -0.1897116835785854 0  0.8409071959036176 0.1896235182386696 0  0.705967194587281 0.3354524287114743 0  0.6276370409402552 0.1658336215477063 0  0.4215070288293651 0.1446794873901968 0  0.5369019087152576 -0.01677883310260353 0  0.3378219718963524 -0.0304857337078401 0  0.7359191653189867 -0.0003779706345871367 0  0.2206709281181736 0.1292871338121241 0  0.1390057666500616 -0.05482518983879574 0  0.02156604114872933 0.1091113821954512 0  -0.05991856886335568 -0.07544049830328706 0  -0.2091026540303009 0.113218101697482 0  -0.2557387210741711 -0.08957125969209863 0  -0.3742518736706093 0.02381865171750689 0  -0.7065883696935737 -0.3351547375041799 0  -0.6319769825415822 -0.1640183941417108 0  -0.7379485134301987 -0.0003221286420197649 0  -0.6263925638672921 0.1747922261462193 0  0.7000000000000003 -0.3471147448144379 0  -0.09731754444756222 0.2985839976753261 0  -0.7019016658227 0.339872535812372 0  -0.5036626740707574 0.3416097573515475 0  0.3086642085404555 0.31909644989288 0  0.4355889359290377 -0.1794947220360297 0  0.1233906847482294 -0.33992001942789 0  -0.2910439982708135 -0.2942818290560931 0  0.6252598700683595 -0.1832373653183336 0  -0.4390211493546888 -0.1414717198202583 0  -0.5445756908252299 0.01225332998817602 0  0.5094027625036279 -0.3483114655372777 0  -0.8570298735864267 0.3548088427148782 0  0.2432245006188761 -0.181388344807941 0  0.8576591493456415 0.3532994606374906 0  -0.8577781333911819 -0.3532575554640149 0  0.856914113336837 -0.3561698222938181 0  -0.4103395160999327 0.186370105143853 0  0.04059278020228735 -0.1932320619509051 0  -0.894759031223147 0.000141425932117211 0  0.8948577502800618 -0.0001596971477125707 0  -0.1430838089440986 -0.1942958300671257 0  -0.4774576034625814 0.09931171756601452 0  -0.5183660399836124 0.1805811656450362 0  -0.585484127346261 0.09352277806719765 0  -0.3551697580499665 0.2565825121934828 0  -0.3097210850651168 0.1497941034206675 0  -0.2545513270151506 0.2200065104702973 0  -0.3922956948852711 0.10509437843068 0  -0.4594137822479196 0.01803599085284146 0  -0.1532100992389315 0.205901049686404 0  -0.1986587722237813 0.3126894584592193 0  -0.1486587722237813 0.399291998837663 0  -0.04865877222378117 0.399291998837663 0  0.5673313162859936 -0.2657744154278056 0  0.6047013812518141 -0.3477131051758577 0  0.6626299350341799 -0.2651760550663858 0  0.4724958492163328 -0.2639030937866537 0  0.5304244029986986 -0.1813660436771817 0  -0.3650325738127511 -0.2178767744381757 0  -0.4744092963517794 -0.2335267858124897 0  -0.4004207208098418 -0.3099318404304071 0  -0.3473799352144299 -0.1155214897561785 0  -0.2733913596724923 -0.1919265443740958 0  0.06266459880570127 0.2111336479810033 0  0.1211184846334515 0.1191992580037876 0  0.1622170422904234 0.2212215237893397 0  
[...]
<PointData  Vectors="f_84"> 
<DataArray  type="Float64"  Name="f_84"  NumberOfComponents="3" format="ascii">6.4771204374853775e-01 7.6201411368067173e-01 0.0000000000000000e+00  5.2591031693128544e-02 1.1534035274184689e+00 0.0000000000000000e+00  1.4852571255880120e-01 9.8015093907331485e-01 0.0000000000000000e+00  2.4256769870733771e-01 9.6980937418679836e-01 0.0000000000000000e+00  3.3038973455024667e-01 9.4398001714422008e-01 0.0000000000000000e+00  4.1041775247254020e-01 9.1203915434003879e-01 0.0000000000000000e+00  4.8197976548746141e-01 8.7632626042175765e-01 0.0000000000000000e+00  5.4505325187875775e-01 8.3854313626030474e-01 0.0000000000000000e+00  6.0006759828989564e-01 8.0008992547973734e-01 0.0000000000000000e+00  5.1462504391573093e-02 -1.0234065129055574e+00 0.0000000000000000e+00  6.8881035772867660e-01 7.2506354446410748e-01 0.0000000000000000e+00  7.2419593000942195e-01 6.8971045781055407e-01 0.0000000000000000e+00  7.5466137266459876e-01 6.5622734125049309e-01 0.0000000000000000e+00  7.8091587814423336e-01 6.2473277599548649e-01 0.0000000000000000e+00  8.0360086524200058e-01 5.9525998185933959e-01 0.0000000000000000e+00  8.2325350284304144e-01 5.6776110772843458e-01 0.0000000000000000e+00  8.4033725278819094e-01 5.4215310999243216e-01 0.0000000000000000e+00  8.4802263961801838e-01 -5.3001411890121974e-01 0.0000000000000000e+00  1.4840263697838563e-01 -9.8338567621617368e-01 0.0000000000000000e+00  2.4257279193812387e-01 -9.7026328653088989e-01 0.0000000000000000e+00  3.3040147977627360e-01 -9.4400954835487505e-01 0.0000000000000000e+00  4.1042166558042503e-01 -9.1204747494968841e-01 0.0000000000000000e+00  4.8197982628338659e-01 -8.7632638721984069e-01 0.0000000000000000e+00  5.4505124295424312e-01 -8.3853996230669270e-01 0.0000000000000000e+00  6.0006388324837301e-01 -8.0008487237206094e-01 0.0000000000000000e+00  6.4770519954036354e-01 -7.6200598616029003e-01 0.0000000000000000e+00  6.8880300977996967e-01 -7.2505572759945269e-01 0.0000000000000000e+00  7.2418820970266073e-01 -6.8970302781367576e-01 0.0000000000000000e+00  7.5465290954078190e-01 -6.5621992080445890e-01 0.0000000000000000e+00  7.8091036189451579e-01 -6.2472831450653599e-01 0.0000000000000000e+00  8.0359559554184146e-01 -5.9525603435662866e-01 0.0000000000000000e+00  8.2324841833925366e-01 -5.6775756553733858e-01 0.0000000000000000e+00  8.4033169369414973e-01 -5.4214950046961508e-01 0.0000000000000000e+00  8.3208372490987870e-01 -5.5472256196548309e-01 0.0000000000000000e+00  8.3208842391432447e-01 5.5472574392941798e-01 0.0000000000000000e+00  7.9266918316561596e-01 6.0974560116913701e-01 0.0000000000000000e+00  7.3999594526196133e-01 6.7272369714045310e-01 0.0000000000000000e+00  6.6902671475636388e-01 7.4336298408080426e-01 0.0000000000000000e+00  5.7352782210078945e-01 8.1932531846986001e-01 0.0000000000000000e+00  4.4727307606284489e-01 8.9454564832081385e-01 0.0000000000000000e+00  2.8738964887690149e-01 9.5799501861741687e-01 0.0000000000000000e+00  9.8666311659662095e-02 1.0003250694699792e+00 0.0000000000000000e+00  8.1377031697213575e-01 -5.8126456084730371e-01 0.0000000000000000e+00  2.8739274701800110e-01 -9.5795340819110197e-01 0.0000000000000000e+00  4.4727254411164530e-01 -8.9454436173719176e-01 0.0000000000000000e+00  5.7352463719145719e-01 -8.1932069208601632e-01 0.0000000000000000e+00  6.6901952035059775e-01 -7.4335489663072651e-01 0.0000000000000000e+00  7.3998839929221616e-01 -6.7271673682151356e-01 0.0000000000000000e+00  7.9266384708000404e-01 -6.0974145113980260e-01 0.0000000000000000e+00  9.9180158814289571e-02 -1.0147102097704963e+00 0.0000000000000000e+00  8.4802460122919465e-01 5.3001534891008706e-01 0.0000000000000000e+00  7.6826490650377133e-01 -6.4022074208587865e-01 0.0000000000000000e+00  7.0715864687631769e-01 -7.0715860064869063e-01 0.0000000000000000e+00  6.2475306416470144e-01 -7.8094100005611089e-01 0.0000000000000000e+00  5.1455789300557708e-01 -8.5759603077751811e-01 0.0000000000000000e+00  3.7144363637025840e-01 -9.2860671467248901e-01 0.0000000000000000e+00  1.9614893836701341e-01 -9.8158179802414558e-01 0.0000000000000000e+00  -9.6437912621146252e-04 -1.3367600234285590e-01 0.0000000000000000e+00  1.9612921074464260e-01 9.8339439813731377e-01 0.0000000000000000e+00  3.7144447330192742e-01 9.2860759779153501e-01 0.0000000000000000e+00  5.1455911777654195e-01 8.5759818026061263e-01 0.0000000000000000e+00  6.2475783789962891e-01 7.8094716480093040e-01 0.0000000000000000e+00  7.0716617556491213e-01 7.0716621955364212e-01 0.0000000000000000e+00  7.6827070998925762e-01 6.4022561931824151e-01 0.0000000000000000e+00  8.1377544987041939e-01 5.8126827133725889e-01 0.0000000000000000e+00  9.5785153108253851e-01 -2.8735554389873785e-01 0.0000000000000000e+00  8.7510969769125502e-01 -4.8398672570984913e-01 0.0000000000000000e+00  9.0542967947117747e-01 -4.2454525671146115e-01 0.0000000000000000e+00  9.3406999645843058e-01 -3.5714890540087602e-01 0.0000000000000000e+00  8.6227582028143701e-01 -5.0648962548364218e-01 0.0000000000000000e+00  8.9105346970094479e-01 -4.5396608710527747e-01 0.0000000000000000e+00  9.2046793272985838e-01 -3.9087595900172473e-01 0.0000000000000000e+00  9.4654406024913540e-01 -3.2264187257093258e-01 0.0000000000000000e+00  8.5533645182424423e-01 -5.1812367868192688e-01 0.0000000000000000e+00  8.6885682921046015e-01 -4.9510908945562410e-01 0.0000000000000000e+00  8.8328408411892656e-01 -4.6890792154722721e-01 0.0000000000000000e+00  8.9843740784051229e-01 -4.3917766102725420e-01 0.0000000000000000e+00  9.1312779088676865e-01 -4.0772701809355544e-01 0.0000000000000000e+00  9.2744782258841041e-01 -3.7401014814389705e-01 0.0000000000000000e+00  9.4044842319918376e-01 -3.4000079920157628e-01 0.0000000000000000e+00  9.5234720011248475e-01 -3.0508771008023139e-01 0.0000000000000000e+00  9.6424221274077859e-01 -2.6516668071419269e-01 0.0000000000000000e+00  9.6424206574337257e-01 2.6516663836780124e-01 0.0000000000000000e+00  9.7564527475812290e-01 2.1952022615834751e-01 0.0000000000000000e+00  9.8506711243692602e-01 1.7238676439856321e-01 0.0000000000000000e+00  9.9231590330209696e-01 1.2403950013434205e-01 0.0000000000000000e+00  9.9723829556140597e-01 7.4792893211563363e-02 0.0000000000000000e+00  9.9972670580183665e-01 2.4993173535297515e-02 0.0000000000000000e+00  9.9972668892735483e-01 -2.4993172222555926e-02 0.0000000000000000e+00  9.9723809549600206e-01 -7.4792875070514658e-02 0.0000000000000000e+00  9.9231580532809804e-01 -1.2403949233428060e-01 0.0000000000000000e+00  9.8506720114228430e-01 -1.7238678282765710e-01 0.0000000000000000e+00  9.7564540660972610e-01 -2.1952025774172387e-01 0.0000000000000000e+00  9.5785144391218024e-01 2.8735551654105312e-01 0.0000000000000000e+00  9.7017616149082098e-01 2.4254403976171740e-01 0.0000000000000000e+00  9.8897339442360421e-01 1.4834602708441363e-01 0.0000000000000000e+00  9.9879103609353825e-01 4.9939551185512007e-02 0.0000000000000000e+00  9.9879111233906293e-01 -4.9939557912421037e-02 0.0000000000000000e+00  9.8897353691552337e-01 -1.4834604896114559e-01 0.0000000000000000e+00  9.7017631608728327e-01 -2.4254408017409645e-01 0.0000000000000000e+00  9.8061656058568869e-01 1.9612333075778582e-01 0.0000000000000000e+00  9.9507517086230146e-01 9.9507509296625940e-02 0.0000000000000000e+00  1.0000390408870603e+00 -5.5601690802772028e-10 0.0000000000000000e+00  9.9507545471857961e-01 -9.9507540043594453e-02 0.0000000000000000e+00  9.8061668648084299e-01 -1.9612335768697867e-01 0.0000000000000000e+00  8.4802451638380949e-01 5.3001529561636318e-01 0.0000000000000000e+00  9.3406985437346990e-01 3.5714885030118709e-01 0.0000000000000000e+00  9.0542988717381834e-01 4.2454534927984994e-01 0.0000000000000000e+00  8.7511042900787916e-01 4.8398713336818833e-01 0.0000000000000000e+00  9.4654390154190171e-01 3.2264181759530025e-01 0.0000000000000000e+00  9.2046780938883854e-01 3.9087590713446069e-01 0.0000000000000000e+00  8.9105410841234467e-01 4.5396641786587105e-01 0.0000000000000000e+00  8.6227653728088471e-01 5.0649004940683029e-01 0.0000000000000000e+00  9.5234712776507136e-01 3.0508768454788965e-01 0.0000000000000000e+00  9.4044827438350553e-01 3.4000074339016867e-01 0.0000000000000000e+00  9.2744761908969342e-01 3.7401006369260120e-01 0.0000000000000000e+00  9.1312737513908626e-01 4.0772682925331749e-01 0.0000000000000000e+00  8.9843831196916135e-01 4.3917810260508000e-01 0.0000000000000000e+00  8.8328477640969483e-01 4.6890829024466990e-01 0.0000000000000000e+00  8.6885750267800343e-01 4.9510947736835453e-01 0.0000000000000000e+00  8.5533705396299664e-01 5.1812404451727412e-01 0.0000000000000000e+00  5.2140604630040492e-02 -1.0786062251719917e+00 0.0000000000000000e+00  8.2325327015413596e-01 5.6776094550592193e-01 0.0000000000000000e+00  8.0360061311228259e-01 5.9525979257990680e-01 0.0000000000000000e+00  7.8091558654423898e-01 6.2473253940267182e-01 0.0000000000000000e+00  7.5465915490658886e-01 6.5622540471745749e-01 0.0000000000000000e+00  7.2419402038684999e-01 6.8970862300493241e-01 0.0000000000000000e+00  6.8880844241284789e-01 7.2506150829207516e-01 0.0000000000000000e+00  6.4771003148310435e-01 7.6201172616040647e-01 0.0000000000000000e+00  6.0006712047736877e-01 8.0008926264509961e-01 0.0000000000000000e+00  5.4505368761495843e-01 8.3854378287417952e-01 0.0000000000000000e+00  4.8198119476098789e-01 8.7632889453550233e-01 0.0000000000000000e+00  4.1042157048736105e-01 9.1204727774451699e-01 0.0000000000000000e+00  3.3039813311865340e-01 9.4400216867693287e-01 0.0000000000000000e+00  2.4256999767521747e-01 9.7018130033157213e-01 0.0000000000000000e+00  1.4843051241601465e-01 9.8166120299320592e-01 0.0000000000000000e+00  5.2018073367210579e-02 1.0474376309312725e+00 0.0000000000000000e+00  8.4033700553477386e-01 5.4215294934304170e-01 0.0000000000000000e+00  1.4844497629231829e-01 -9.8175632716846806e-01 0.0000000000000000e+00  2.4256957718168992e-01 -9.7014952558693179e-01 0.0000000000000000e+00  3.3039937092548388e-01 -9.4400704202719499e-01 0.0000000000000000e+00  4.1041936999600304e-01 -9.1204268348658157e-01 0.0000000000000000e+00  4.8197728289379610e-01 -8.7632178346504863e-01 0.0000000000000000e+00  5.4504897314412104e-01 -8.3853648420593474e-01 0.0000000000000000e+00  6.0006182755450344e-01 -8.0008214600990590e-01 0.0000000000000000e+00  6.4770519482419164e-01 -7.6200598101574013e-01 0.0000000000000000e+00  6.8880322688344797e-01 -7.2505596123147353e-01 0.0000000000000000e+00  7.2418857366581613e-01 -6.8970338783477059e-01 0.0000000000000000e+00  7.5465284560093915e-01 -6.5621988768360817e-01 0.0000000000000000e+00  7.8091298341824622e-01 -6.2473043214903679e-01 0.0000000000000000e+00  8.0359822577181172e-01 -5.9525800318540878e-01 0.0000000000000000e+00  8.2325099896531806e-01 -5.6775936251583148e-01 0.0000000000000000e+00  8.4033457281491719e-01 -5.4215136865922553e-01 0.0000000000000000e+00  8.4802357027573949e-01 -5.3001470133839879e-01 0.0000000000000000e+00  8.3208610491479984e-01 -5.5472417379568661e-01 0.0000000000000000e+00  7.9266657370052851e-01 -6.0974357295960602e-01 0.0000000000000000e+00  7.3998910017278363e-01 -6.7271736675738103e-01 0.0000000000000000e+00  6.6901969424111696e-01 -7.4335509931048527e-01 0.0000000000000000e+00  5.7352276917638445e-01 -8.1931800509467712e-01 0.0000000000000000e+00  4.4726982199772936e-01 -8.9453891092909410e-01 0.0000000000000000e+00  2.8739078064623053e-01 -9.5794981128176315e-01 0.0000000000000000e+00  9.8939235573410084e-02 -1.0110099610549956e+00 0.0000000000000000e+00  9.9001620112807318e-02 1.0157959008861117e+00 0.0000000000000000e+00  2.8739144586986448e-01 9.5795126915591389e-01 0.0000000000000000e+00  4.4727376112581996e-01 8.9454690789913149e-01 0.0000000000000000e+00  5.7352770583192692e-01 8.1932512520914558e-01 0.0000000000000000e+00  6.6902477547996853e-01 7.4336080307067176e-01 0.0000000000000000e+00  7.3999423224111682e-01 6.7272210993089254e-01 0.0000000000000000e+00  7.9266894896690276e-01 6.0974541967221252e-01 0.0000000000000000e+00  8.3208821000380595e-01 5.5472559906674968e-01 0.0000000000000000e+00  8.1377290928810830e-01 -5.8126643454776528e-01 0.0000000000000000e+00  7.6826713021983351e-01 -6.4022264317722277e-01 0.0000000000000000e+00  7.0715899498969059e-01 -7.0715895289386144e-01 0.0000000000000000e+00  6.2475208766752965e-01 -7.8093984599544553e-01 0.0000000000000000e+00  5.1455546083691772e-01 -8.5759197956974209e-01 0.0000000000000000e+00  3.7144012728585257e-01 -9.2859674260313163e-01 0.0000000000000000e+00  1.9614476160269936e-01 -9.8219310240203428e-01 0.0000000000000000e+00  -1.1162213282764973e-03 4.0394445908381538e-02 0.0000000000000000e+00  1.9614662968174551e-01 9.8206087397086528e-01 0.0000000000000000e+00  3.7144360668275850e-01 9.2860653499898160e-01 0.0000000000000000e+00  5.1455987209322063e-01 8.5759938652670253e-01 0.0000000000000000e+00  6.2475736619622391e-01 7.8094647318394417e-01 0.0000000000000000e+00  7.0716428301316958e-01 7.0716430306317668e-01 0.0000000000000000e+00  7.6827007724659535e-01 6.4022510156338386e-01 0.0000000000000000e+00  8.1377521286663212e-01 5.8126810002539253e-01 0.0000000000000000e+00  9.5785141313311040e-01 -2.8735551074561344e-01 0.0000000000000000e+00  8.7511001591638471e-01 -4.8398690306907816e-01 0.0000000000000000e+00  9.0542976891283433e-01 -4.2454529653453926e-01 0.0000000000000000e+00  9.3406992915777187e-01 -3.5714887946694690e-01 0.0000000000000000e+00  8.6227612456179981e-01 -5.0648980528347753e-01 0.0000000000000000e+00  8.9105374646533753e-01 -4.5396623045002144e-01 0.0000000000000000e+00  9.2046787531748320e-01 -3.9087593486367361e-01 0.0000000000000000e+00  9.4654395139099401e-01 -3.2264183600979840e-01 0.0000000000000000e+00  8.5533671085123697e-01 -5.1812383596849576e-01 0.0000000000000000e+00  8.6885711908387664e-01 -4.9510925647883175e-01 0.0000000000000000e+00  8.8328438344855298e-01 -4.6890808094509928e-01 0.0000000000000000e+00  8.9843780291320297e-01 -4.3917785396230163e-01 0.0000000000000000e+00  9.1312760585139940e-01 -4.0772693405104227e-01 0.0000000000000000e+00  9.2744773054520813e-01 -3.7401010993177325e-01 0.0000000000000000e+00  9.4044836409331656e-01 -3.4000077653189614e-01 0.0000000000000000e+00  9.5234726221524146e-01 -3.0508772759041752e-01 0.0000000000000000e+00  9.6424238586946753e-01 -2.6516673033092414e-01 0.0000000000000000e+00  9.6424208144360557e-01 2.6516664286881775e-01 0.0000000000000000e+00  9.7564528111564808e-01 2.1952022771575494e-01 0.0000000000000000e+00  9.8506711600968755e-01 1.7238676513671272e-01 0.0000000000000000e+00  9.9231590067334463e-01 1.2403949995368477e-01 0.0000000000000000e+00  9.9723828997362918e-01 7.4792892714414222e-02 0.0000000000000000e+00  9.9972670497454985e-01 2.4993173534741647e-02 0.0000000000000000e+00  9.9972668332847814e-01 -2.4993171791089619e-02 0.0000000000000000e+00  9.9723803790839827e-01 -7.4792869961867722e-02 0.0000000000000000e+00  9.9231577965046203e-01 -1.2403949040861302e-01 0.0000000000000000e+00  9.8506723048776523e-01 -1.7238678884716041e-01 0.0000000000000000e+00  9.7564546472859237e-01 -2.1952027201681582e-01 0.0000000000000000e+00  9.5785143566285968e-01 2.8735551428611106e-01 0.0000000000000000e+00  9.7017616497839765e-01 2.4254404060805290e-01 0.0000000000000000e+00  9.8897339915990090e-01 1.4834602783004197e-01 0.0000000000000000e+00  9.9879103859016627e-01 4.9939551400337810e-02 0.0000000000000000e+00  9.9879113178699352e-01 -4.9939559505228541e-02 0.0000000000000000e+00  9.8897357774500949e-01 -1.4834605514197885e-01 0.0000000000000000e+00  9.7017633526032931e-01 -2.4254408425106425e-01 0.0000000000000000e+00  9.8061656530421704e-01 1.9612333175905081e-01 0.0000000000000000e+00  9.9507517991240546e-01 9.9507510311035302e-02 0.0000000000000000e+00  1.0000390424319845e+00 -6.2192313169375244e-10 0.0000000000000000e+00  9.9507553532943394e-01 -9.9507548092651998e-02 0.0000000000000000e+00  9.8061672541402622e-01 -1.9612336577427295e-01 0.0000000000000000e+00  9.3406985016559108e-01 3.5714884868169777e-01 0.0000000000000000e+00  9.0542989369935689e-01 4.2454535218480988e-01 0.0000000000000000e+00  8.7511045194881087e-01 4.8398714615923255e-01 0.0000000000000000e+00  9.4654389460778854e-01 3.2264181528981706e-01 0.0000000000000000e+00  9.2046780620650515e-01 3.9087590580162912e-01 0.0000000000000000e+00  8.9105412884419577e-01 4.5396642843389684e-01 0.0000000000000000e+00  8.6227656231571481e-01 5.0649006420930964e-01 0.0000000000000000e+00  9.5234713449362807e-01 3.0508768652431179e-01 0.0000000000000000e+00  9.4044827150621790e-01 3.4000074226257848e-01 0.0000000000000000e+00  9.2744761364453721e-01 3.7401006142283966e-01 0.0000000000000000e+00  9.1312736283479734e-01 4.0772682366648116e-01 0.0000000000000000e+00  8.9843833971010356e-01 4.3917811615710700e-01 0.0000000000000000e+00  8.8328479889729072e-01 4.6890830222255758e-01 0.0000000000000000e+00  8.6885752526660442e-01 4.9510949037554292e-01 0.0000000000000000e+00  8.5533707162837413e-01 5.1812405518428595e-01 0.0000000000000000e+00  6.7638517699403311e-01 -7.3679689974246643e-01 0.0000000000000000e+00  6.7915028908880160e-01 -7.3424340186776982e-01 0.0000000000000000e+00  2.3720193922762906e-01 9.6518377509450182e-01 0.0000000000000000e+00  8.4288121768725055e-01 5.3830551609861998e-01 0.0000000000000000e+00  8.3965033787473675e-01 5.4332940717123834e-01 0.0000000000000000e+00  3.1465746692765373e-01 9.5032529597017001e-01 0.0000000000000000e+00  9.7501230599454469e-01 -2.2238957470681470e-01 0.0000000000000000e+00  9.7482535297552475e-01 -2.2320273880538821e-01 0.0000000000000000e+00  9.7553150684147738e-01 2.2009031918397004e-01 0.0000000000000000e+00  9.7555506454283392e-01 2.1998648378112426e-01 0.0000000000000000e+00  9.0327269582914038e-01 4.2920552194329664e-01 0.0000000000000000e+00  9.6690864943337540e-01 2.5547565648707826e-01 0.0000000000000000e+00  9.4602258525706784e-01 3.2471574024817745e-01 0.0000000000000000e+00  9.9964126253852825e-01 -3.1240077752293142e-02 0.0000000000000000e+00  9.9624426228758878e-01 -8.9904156104903862e-02 0.0000000000000000e+00  1.0000826760200392e+00 -5.1365112156403830e-04 0.0000000000000000e+00  8.6337580468070296e-01 5.0583434473338484e-01 0.0000000000000000e+00  9.3172133962540038e-01 -3.6758845243995408e-01 0.0000000000000000e+00  1.9164636260150666e-01 1.3061810542101970e+00 0.0000000000000000e+00  6.2548309451982709e-01 8.0367954269506814e-01 0.0000000000000000e+00  8.8003829022818036e-01 -4.7650125925009468e-01 0.0000000000000000e+00  9.4424145117551916e-01 3.3071868840167468e-01 0.0000000000000000e+00  9.9819264038105671e-01 -6.3528173831517085e-02 0.0000000000000000e+00  9.0356650086090162e-01 4.2858699797619165e-01 0.0000000000000000e+00  9.6801727139937110e-01 2.5123167447004413e-01 0.0000000000000000e+00  1.0000801595899287e+00 4.3654984577343279e-04 0.0000000000000000e+00  9.6329121538746321e-01 -2.6880250701068947e-01 0.0000000000000000e+00  8.9595168032299188e-01 -4.4428298648722275e-01 0.0000000000000000e+00  3.0997998463031096e-01 -9.5330068311186633e-01 0.0000000000000000e+00  9.0009027010495479e-01 -4.3583880622895804e-01 0.0000000000000000e+00  8.2768227836755992e-01 -5.6137654517117208e-01 0.0000000000000000e+00  6.9540933780595537e-01 7.1891264421889889e-01 0.0000000000000000e+00  9.2472941461837121e-01 -3.8105651660614470e-01 0.0000000000000000e+00  3.4132746053842516e-01 -9.3975315284731109e-01 0.0000000000000000e+00  7.0337045240822449e-01 7.1119543854128875e-01 0.0000000000000000e+00  9.5972995628145630e-01 -2.8125658460058828e-01 0.0000000000000000e+00  9.5196963812644764e-01 3.0676540500945870e-01 0.0000000000000000e+00  9.9987325880971689e-01 -2.2497802499475025e-02 0.0000000000000000e+00  8.2555923451686275e-01 -5.6448804743550807e-01 0.0000000000000000e+00  9.2397608921048069e-01 -3.8252447711590942e-01 0.0000000000000000e+00  8.0194197238238585e-01 -5.9805969565078132e-01 0.0000000000000000e+00  9.2464913972378737e-01 3.8089496898614683e-01 0.0000000000000000e+00  9.24683