<?xml version="1.0"?>
<VTKFile type="UnstructuredGrid"  version="0.1"  >
<UnstructuredGrid>
<Piece  NumberOfPoints="11902" NumberOfCells="23402">
<Points>
<DataArray  type="Float64"  NumberOfComponents="3"  format="ascii">-5 -5 0  5 -5 0  5 5 0  -5 5 0  2.181930791656866 -0.0003360376242921881 0  -4.9 -5 0  -4.8 -5 0  -4.7 -5 0  -4.6 -5 0  -4.5 -5 0  -4.4 -5 0  -4.3 -5 0  -4.2 -5 0  -4.1 -5 0  -4 -5 0  -3.9 -5 0  -3.8 -5 0  -3.7 -5 0  -3.6 -5 0  -3.5 -5 0  -3.4 -5 0  -3.3 -5 0  -3.2 -5 0  -3.1 -5 0  -3 -5 0  -2.9 -5 0  -2.8 -5 0  -2.7 -5 0  -2.6 -5 0  -2.5 -5 0  -2.4 -5 0  -2.3 -5 0  -2.2 -5 0  -2.1 -5 0  -2 -5 0  -1.9 -5 0  -1.8 -5 0  -1.7 -5 0  -1.6 -5 0  -1.5 -5 0  -1.4 -5 0  -1.3 -5 0  -1.2 -5 0  -1.1 -5 0  -1 -5 0  -0.9000000000000004 -5 0  -0.7999999999999998 -5 0  -0.7000000000000002 -5 0  -0.5999999999999996 -5 0  -0.5 -5 0  -0.4000000000000004 -5 0  -0.2999999999999998 -5 0  -0.2000000000000002 -5 0  -0.09999999999999964 -5 0  0 -5 0  0.09999999999999964 -5 0  0.2000000000000002 -5 0  0.2999999999999998 -5 0  0.4000000000000004 -5 0  0.5 -5 0  0.5999999999999996 -5 0  0.7000000000000002 -5 0  0.7999999999999998 -5 0  0.9000000000000004 -5 0  1 -5 0  1.1 -5 0  1.2 -5 0  1.3 -5 0  1.4 -5 0  1.5 -5 0  1.6 -5 0  1.7 -5 0  1.8 -5 0  1.9 -5 0  2 -5 0  2.1 -5 0  2.2 -5 0  2.3 -5 0  2.4 -5 0  2.5 -5 0  2.6 -5 0  2.7 -5 0  2.8 -5 0  2.9 -5 0  3 -5 0  3.1 -5 0  3.199999999999999 -5 0  3.300000000000001 -5 0  3.4 -5 0  3.5 -5 0  3.6 -5 0  3.699999999999999 -5 0  3.800000000000001 -5 0  3.9 -5 0  4 -5 0  4.1 -5 0  4.199999999999999 -5 0  4.300000000000001 -5 0  4.4 -5 0  4.5 -5 0  4.6 -5 0  4.699999999999999 -5 0  4.800000000000001 -5 0  4.9 -5 0  5 -4.9 0  5 -4.8 0  5 -4.7 0  5 -4.6 0  5 -4.5 0  5 -4.4 0  5 -4.3 0  5 -4.2 0  5 -4.1 0  5 -4 0  5 -3.9 0  5 -3.8 0  5 -3.7 0  5 -3.6 0  5 -3.5 0  5 -3.4 0  5 -3.3 0  5 -3.2 0  5 -3.1 0  5 -3 0  5 -2.9 0  5 -2.8 0  5 -2.7 0  5 -2.6 0  5 -2.5 0  5 -2.4 0  5 -2.3 0  5 -2.2 0  5 -2.1 0  5 -2 0  5 -1.9 0  5 -1.8 0  5 -1.7 0  5 -1.6 0  5 -1.5 0  5 -1.4 0  5 -1.3 0  5 -1.2 0  5 -1.1 0  5 -1 0  5 -0.9000000000000004 0  5 -0.7999999999999998 0  5 -0.7000000000000002 0  5 -0.5999999999999996 0  5 -0.5 0  5 -0.4000000000000004 0  5 -0.2999999999999998 0  5 -0.2000000000000002 0  5 -0.09999999999999964 0  5 0 0  5 0.09999999999999964 0  5 0.2000000000000002 0  5 0.2999999999999998 0  5 0.4000000000000004 0  5 0.5 0  5 0.5999999999999996 0  5 0.7000000000000002 0  5 0.7999999999999998 0  5 0.9000000000000004 0  5 1 0  5 1.1 0  5 1.2 0  5 1.3 0  5 1.4 0  5 1.5 0  5 1.6 0  5 1.7 0  5 1.8 0  5 1.9 0  5 2 0  5 2.1 0  5 2.2 0  5 2.3 0  5 2.4 0  5 2.5 0  5 2.6 0  5 2.7 0  5 2.8 0  5 2.9 0  5 3 0  5 3.1 0  5 3.199999999999999 0  5 3.300000000000001 0  5 3.4 0  5 3.5 0  5 3.6 0  5 3.699999999999999 0  5 3.800000000000001 0  5 3.9 0  5 4 0  5 4.1 0  5 4.199999999999999 0  5 4.300000000000001 0  5 4.4 0  5 4.5 0  5 4.6 0  5 4.699999999999999 0  5 4.800000000000001 0  5 4.9 0  4.9 5 0  4.8 5 0  4.7 5 0  4.6 5 0  4.5 5 0  4.4 5 0  4.3 5 0  4.2 5 0  4.1 5 0  4 5 0  3.9 5 0  3.8 5 0  3.7 5 0  3.6 5 0  3.5 5 0  3.4 5 0  3.3 5 0  3.2 5 0  3.1 5 0  3 5 0  2.9 5 0  2.8 5 0  2.7 5 0  2.6 5 0  2.5 5 0  2.4 5 0  2.3 5 0  2.2 5 0  2.1 5 0  2 5 0  1.9 5 0  1.8 5 0  1.7 5 0  1.6 5 0  1.5 5 0  1.4 5 0  1.3 5 0  1.2 5 0  1.1 5 0  1 5 0  0.9000000000000004 5 0  0.7999999999999998 5 0  0.7000000000000002 5 0  0.5999999999999996 5 0  0.5 5 0  0.4000000000000004 5 0  0.2999999999999998 5 0  0.2000000000000002 5 0  0.09999999999999964 5 0  0 5 0  -0.09999999999999964 5 0  -0.2000000000000002 5 0  -0.2999999999999998 5 0  -0.4000000000000004 5 0  -0.5 5 0  -0.5999999999999996 5 0  -0.7000000000000002 5 0  -0.7999999999999998 5 0  -0.9000000000000004 5 0  -1 5 0  -1.1 5 0  -1.2 5 0  -1.3 5 0  -1.4 5 0  -1.5 5 0  -1.6 5 0  -1.7 5 0  -1.8 5 0  -1.9 5 0  -2 5 0  -2.1 5 0  -2.2 5 0  -2.3 5 0  -2.4 5 0  -2.5 5 0  -2.6 5 0  -2.7 5 0  -2.8 5 0  -2.9 5 0  -3 5 0  -3.1 5 0  -3.199999999999999 5 0  -3.300000000000001 5 0  -3.4 5 0  -3.5 5 0  -3.6 5 0  -3.699999999999999 5 0  -3.800000000000001 5 0  -3.9 5 0  -4 5 0  -4.1 5 0  -4.199999999999999 5 0  -4.300000000000001 5 0  -4.4 5 0  -4.5 5 0  -4.6 5 0  -4.699999999999999 5 0  -4.800000000000001 5 0  -4.9 5 0  -5 4.9 0  -5 4.8 0  -5 4.7 0  -5 4.6 0  -5 4.5 0  -5 4.4 0  -5 4.3 0  -5 4.2 0  -5 4.1 0  -5 4 0  -5 3.9 0  -5 3.8 0  -5 3.7 0  -5 3.6 0  -5 3.5 0  -5 3.4 0  -5 3.3 0  -5 3.2 0  -5 3.1 0  -5 3 0  -5 2.9 0  -5 2.8 0  -5 2.7 0  -5 2.6 0  -5 2.5 0  -5 2.4 0  -5 2.3 0  -5 2.2 0  -5 2.1 0  -5 2 0  -5 1.9 0  -5 1.8 0  -5 1.7 0  -5 1.6 0  -5 1.5 0  -5 1.4 0  -5 1.3 0  -5 1.2 0  -5 1.1 0  -5 1 0  -5 0.9000000000000004 0  -5 0.7999999999999998 0  -5 0.7000000000000002 0  -5 0.5999999999999996 0  -5 0.5 0  -5 0.4000000000000004 0  -5 0.2999999999999998 0  -5 0.2000000000000002 0  -5 0.09999999999999964 0  -5 0 0  -5 -0.09999999999999964 0  -5 -0.2000000000000002 0  -5 -0.2999999999999998 0  -5 -0.4000000000000004 0  -5 -0.5 0  -5 -0.5999999999999996 0  -5 -0.7000000000000002 0  -5 -0.7999999999999998 0  -5 -0.9000000000000004 0  -5 -1 0  -5 -1.1 0  -5 -1.2 0  -5 -1.3 0  -5 -1.4 0  -5 -1.5 0  -5 -1.6 0  -5 -1.7 0  -5 -1.8 0  -5 -1.9 0  -5 -2 0  -5 -2.1 0  -5 -2.2 0  -5 -2.3 0  -5 -2.4 0  -5 -2.5 0  -5 -2.6 0  -5 -2.7 0  -5 -2.8 0  -5 -2.9 0  -5 -3 0  -5 -3.1 0  -5 -3.199999999999999 0  -5 -3.300000000000001 0  -5 -3.4 0  -5 -3.5 0  -5 -3.6 0  -5 -3.699999999999999 0  -5 -3.800000000000001 0  -5 -3.9 0  -5 -4 0  -5 -4.1 0  -5 -4.199999999999999 0  -5 -4.300000000000001 0  -5 -4.4 0  -5 -4.5 0  -5 -4.6 0  -5 -4.699999999999999 0  -5 -4.800000000000001 0  -5 -4.9 0  2.172502935399593 0.2053978350191843 0  2.140217220299352 0.4093174895554236 0  2.086562435682386 0.6097170523107307 0  2.014510538065592 0.8056023379018726 0  1.921023590656414 0.9940263380255628 0  1.808220787608267 1.173265432518064 0  1.678246555943469 1.342384591569244 0  1.531204778019525 1.498681715783461 0  1.368532413111255 1.640428795329864 0  1.191797697392067 1.765873460130378 0  1.003146778214228 1.87437176183436 0  0.8041272493561429 1.963953758456063 0  0.59671496487566 2.033314910754506 0  0.3831213495886935 2.082043087281124 0  0.1655269943371628 2.109097462246213 0  -0.05380092474214393 2.114552096267661 0  -0.2725313662820008 2.098191858245589 0  -0.4883503231405535 2.059904274054487 0  -0.6991470154906836 2.001004774024587 0  -0.9027858560734048 1.921995218687395 0  -1.096913586232862 1.823050823863055 0  -1.279745550427861 1.70582661494829 0  -1.449482572991865 1.571833063015543 0  -1.604132242769533 1.422086820139488 0  -1.742583364780496 1.258887482095873 0  -1.864063804740981 1.08456889185583 0  -1.967030309977269 0.9005104994638716 0  -2.049915663552743 0.7081531201425724 0  -2.11467188312263 0.5104478848054741 0  -2.155904160916254 0.3077353672824474 0  -2.176913061914195 0.1027182394773263 0  -2.176906390162861 -0.1030678677021837 0  -2.154539408787946 -0.3079388982373941 0  -2.111482870180156 -0.510253904635056 0  -2.049752306162135 -0.709023344196566 0  -1.967063392321454 -0.9013923776485109 0  -1.864232522211456 -1.085518212540647 0  -1.742799293459423 -1.25982344414096 0  -1.604414278632547 -1.423054044460627 0  -1.449743818288229 -1.572705892947258 0  -1.279686026437642 -1.706130595988774 0  -1.096226393018338 -1.82217651786447 0  -0.9024155345521646 -1.92193857036971 0  -0.6990796131099863 -2.001932040309378 0  -0.4882738035958977 -2.060680265086625 0  -0.2724636331510016 -2.098656812293301 0  -0.05378609754885862 -2.114908501362413 0  0.1654751626032794 -2.109254918652218 0  0.3830244738672357 -2.082069315214857 0  0.5965964374991614 -2.033478566651809 0  0.8040937698321635 -1.964416992253122 0  1.003369586604564 -1.875650076570764 0  1.192333292827433 -1.767760967813423 0  1.36847493742343 -1.641383070332867 0  1.530692614330534 -1.498901251995634 0  1.677634348387367 -1.342420051709055 0  1.808245106832846 -1.173924163372132 0  1.920301763391767 -0.9942512063484745 0  2.013319079607822 -0.8057622517311231 0  2.087105189502163 -0.61055907189557 0  2.139880795672419 -0.4099933672031513 0  2.171565115759324 -0.2060133111330278 0  -2.449525289180392 4.919295923111933 0  -2.449483059865094 -4.911788617027256 0  4.910402938125271 2.448350346694495 0  4.918526996168936 -2.449771979744978 0  2.447378408812828 -4.897214197521818 0  2.441785044495743 4.900963397115454 0  -4.91043948728189 -2.448383918146297 0  -4.910451940768071 2.448389959274029 0  -1.749830951421808 4.913370805292778 0  -1.74555853499693 -4.916708980773069 0  4.920483921238659 1.744464940513303 0  4.908985138899902 -1.748288583391514 0  -4.909302614750636 -1.748027219394209 0  -4.910140036275685 1.747765054462095 0  1.747190585609816 4.907399561824004 0  1.748762557179993 -4.895828173823672 0  -1.150045762030464 4.912243906836881 0  -1.130771574725842 -4.919892797149759 0  -4.908864648849293 -1.1482382406154 0  -4.90869599103764 1.148031763322222 0  1.144966127101152 -4.916179225641224 0  1.150047228322984 4.912234313725727 0  4.908982614664942 1.146499972274751 0  4.919855881139086 -1.152254127420372 0  -0.547354633645324 -4.914160022553541 0  -0.5470534586064131 4.922471571635914 0  -4.907428887873881 -0.548861687815649 0  -4.907460417228533 0.5474066250455946 0  4.906711859442771 -0.5491746556442124 0  4.918441219825294 0.5459066259747553 0  0.5432128227924716 -4.901652261158933 0  0.5518126164822246 4.919427750541963 0  -4.91192561185019 -3.048645093706116 0  4.918493582049259 3.046629224531272 0  4.911423130210356 -3.048616913858423 0  -4.912785866227288 3.045736399036931 0  3.055911486608537 -4.917966393719812 0  -3.049287563848662 -4.911936921801416 0  3.05284302116083 4.913998613651389 0  -3.048745061604779 4.912839889228882 0  -4.906468245918534 -0.04992738272223915 0  0.04517675058241168 -4.916278300528654 0  0.04962147328200591 4.922985769532227 0  4.913535123680301 -0.0513063610095782 0  3.545951478257836 -4.919319221974362 0  -3.549280131250836 4.912251119773572 0  -3.549274005923646 -4.912254039765222 0  4.9191
[...]
<PointData  Vectors="f_750"> 
<DataArray  type="Float64"  Name="f_750"  NumberOfComponents="3" format="ascii">-2.0870069856921283e-01 -2.4351705709625698e-01 0.0000000000000000e+00  2.2881614831960145e-01 -1.9360471446831271e-01 0.0000000000000000e+00  1.3265315874344191e-01 1.5491977080568664e-01 0.0000000000000000e+00  -2.1936388679364993e-01 2.5045386842809320e-01 0.0000000000000000e+00  1.0751003292363082e+02 -9.4685000355074278e-01 0.0000000000000000e+00  8.0651789780609537e-02 -1.8387339086404444e+00 0.0000000000000000e+00  6.6542156148532206e-02 -2.9858539095460159e+00 0.0000000000000000e+00  7.2101907391671979e-02 -4.9274587262981706e+00 0.0000000000000000e+00  5.4378658512540680e-02 -6.0912986651704291e+00 0.0000000000000000e+00  -1.3384296268784246e-01 -7.9154926691148759e+00 0.0000000000000000e+00  2.7416516048672370e-02 -9.7218452083136544e+00 0.0000000000000000e+00  4.7438118117613469e-02 -1.1086371867939359e+01 0.0000000000000000e+00  -2.1755230641276123e-02 -1.2750617642902787e+01 0.0000000000000000e+00  8.1972534597718333e-02 -1.4053375866951438e+01 0.0000000000000000e+00  8.5857709215223829e-02 -1.5949715757857177e+01 0.0000000000000000e+00  -1.3283162899152452e-02 -1.7217165088795632e+01 0.0000000000000000e+00  -2.2978036744312209e-02 -1.8883963216308874e+01 0.0000000000000000e+00  1.0277531348478641e-02 -2.0507499135639542e+01 0.0000000000000000e+00  7.1701974960985760e-03 -2.2041019303954570e+01 0.0000000000000000e+00  -8.6931161717668896e-03 -2.3601312486211235e+01 0.0000000000000000e+00  5.0553271476159066e-03 -2.5227635764192861e+01 0.0000000000000000e+00  3.4184727065330184e-02 -2.6794754756625526e+01 0.0000000000000000e+00  -4.1537293712118903e-03 -2.8039327596455710e+01 0.0000000000000000e+00  -1.1477674708538750e-02 -2.9761596566419350e+01 0.0000000000000000e+00  -4.3076873369650770e-02 -3.1483476805394172e+01 0.0000000000000000e+00  1.1312542490654486e-01 -3.2696116229295328e+01 0.0000000000000000e+00  5.1997598465363344e-02 -3.4450919668451142e+01 0.0000000000000000e+00  5.9531601638591197e-02 -3.5593126940694937e+01 0.0000000000000000e+00  1.0157311163398709e-01 -3.7280427729045108e+01 0.0000000000000000e+00  -4.6963547698806493e-02 -3.8463546487921150e+01 0.0000000000000000e+00  -1.6454921380190061e-02 -4.0090223391115515e+01 0.0000000000000000e+00  -5.6991037896456662e-03 -4.1607471379986620e+01 0.0000000000000000e+00  7.4651439136382461e-02 -4.2679634113820576e+01 0.0000000000000000e+00  5.4190906619882143e-02 -4.4312572989418612e+01 0.0000000000000000e+00  5.4183878487010118e-02 -4.5280729068817926e+01 0.0000000000000000e+00  -1.2123087369508065e-01 -4.6758931691768709e+01 0.0000000000000000e+00  5.2400121664546516e-02 -4.8148437416429068e+01 0.0000000000000000e+00  8.3510728018490674e-03 -4.9155754473140128e+01 0.0000000000000000e+00  -1.7699646337274984e-03 -5.0287359945351191e+01 0.0000000000000000e+00  -1.9750058400436273e-03 -5.1373958234672855e+01 0.0000000000000000e+00  9.2861101175638512e-03 -5.2411933081747797e+01 0.0000000000000000e+00  -5.3181424269492052e-02 -5.3489692253128283e+01 0.0000000000000000e+00  6.4972458273893099e-02 -5.4304939338314426e+01 0.0000000000000000e+00  3.4796085838051750e-02 -5.5149597024609790e+01 0.0000000000000000e+00  2.6373057806299761e-02 -5.6014964950326181e+01 0.0000000000000000e+00  -1.5071444073344141e-02 -5.6764860774744001e+01 0.0000000000000000e+00  6.2909516677177715e-02 -5.7276264030470514e+01 0.0000000000000000e+00  -4.6389699234075411e-02 -5.7973285249019348e+01 0.0000000000000000e+00  2.5816686351203811e-02 -5.8549171097381411e+01 0.0000000000000000e+00  -5.5286107109541053e-03 -5.8904814198055213e+01 0.0000000000000000e+00  1.8974345321651498e-03 -5.9282050238356497e+01 0.0000000000000000e+00  -1.3207944906993660e-03 -5.9564454315663994e+01 0.0000000000000000e+00  6.2435993255747829e-04 -5.9768177766566204e+01 0.0000000000000000e+00  3.1138342574134488e-04 -5.9890695790838805e+01 0.0000000000000000e+00  2.7688128155404701e-03 -5.9932704859104945e+01 0.0000000000000000e+00  1.1536235347362961e-03 -5.9909109510329010e+01 0.0000000000000000e+00  1.1457815306321357e-02 -5.9777519199171451e+01 0.0000000000000000e+00  -1.6279084447867170e-02 -5.9531582945773167e+01 0.0000000000000000e+00  -7.5912686199591838e-03 -5.9316845557755201e+01 0.0000000000000000e+00  -3.1343756650341698e-02 -5.8877516360865307e+01 0.0000000000000000e+00  1.0233151235203315e-02 -5.8518910221468637e+01 0.0000000000000000e+00  8.7893389463326570e-03 -5.7978045462459932e+01 0.0000000000000000e+00  -6.4486110448824414e-03 -5.7363840057766915e+01 0.0000000000000000e+00  -1.3347297142315090e-03 -5.6721934920976125e+01 0.0000000000000000e+00  7.8420058547461514e-03 -5.5983442143632224e+01 0.0000000000000000e+00  -1.7478570281617100e-02 -5.5183586618478799e+01 0.0000000000000000e+00  -1.1496532787481698e-02 -5.4292695101858882e+01 0.0000000000000000e+00  1.2491535159685008e-02 -5.3489081097652765e+01 0.0000000000000000e+00  -2.9320381929172853e-02 -5.2421461852095703e+01 0.0000000000000000e+00  3.3804471486234493e-02 -5.1375474747319721e+01 0.0000000000000000e+00  -4.2782194181807537e-02 -5.0299357849390070e+01 0.0000000000000000e+00  7.4407109315243018e-03 -4.9104054793787860e+01 0.0000000000000000e+00  2.1214502207609020e-02 -4.8024726854177366e+01 0.0000000000000000e+00  -3.0836925578769717e-02 -4.6750061877679791e+01 0.0000000000000000e+00  2.1870418501292104e-02 -4.5454827507742216e+01 0.0000000000000000e+00  -1.6345700547239387e-02 -4.4145819020411039e+01 0.0000000000000000e+00  6.9362616998593423e-03 -4.2834344930192835e+01 0.0000000000000000e+00  -2.9127090901512290e-02 -4.1486974343926541e+01 0.0000000000000000e+00  -9.8135793308000256e-03 -4.0021688732860085e+01 0.0000000000000000e+00  1.2966073982420022e-02 -3.8805164307367107e+01 0.0000000000000000e+00  3.4414525403592849e-03 -3.7268704386168267e+01 0.0000000000000000e+00  1.1433673107271352e-02 -3.5776427578869061e+01 0.0000000000000000e+00  -4.2385205726803120e-02 -3.4325092621985284e+01 0.0000000000000000e+00  -1.5594289685122071e-02 -3.2686175377493093e+01 0.0000000000000000e+00  2.6906119759630621e-02 -3.1346578522063918e+01 0.0000000000000000e+00  -4.1065635788540805e-02 -2.9712170474010559e+01 0.0000000000000000e+00  1.6477254668067554e-03 -2.8255484008142421e+01 0.0000000000000000e+00  1.6663587960220341e-02 -2.6766318292478299e+01 0.0000000000000000e+00  1.7318973414849562e-02 -2.5122714166763259e+01 0.0000000000000000e+00  -4.9447499332972662e-02 -2.3628766722408045e+01 0.0000000000000000e+00  1.0071972779470558e-02 -2.1964445069099447e+01 0.0000000000000000e+00  1.0443048736252505e-02 -2.0559099435392930e+01 0.0000000000000000e+00  -3.8665392541175882e-02 -1.8871537991200750e+01 0.0000000000000000e+00  -8.3711291493209460e-04 -1.7373154295336739e+01 0.0000000000000000e+00  2.1421954544874836e-02 -1.5759651752687036e+01 0.0000000000000000e+00  -1.3253790341673591e-03 -1.4162860741539692e+01 0.0000000000000000e+00  -2.1005028972735051e-02 -1.2622946943011515e+01 0.0000000000000000e+00  -1.5878039882344246e-02 -1.0981523726803475e+01 0.0000000000000000e+00  3.1059137282858730e-02 -9.5805479746745839e+00 0.0000000000000000e+00  -4.7325931735208195e-02 -7.8839142790486703e+00 0.0000000000000000e+00  1.1497144760964370e-02 -6.3416327545691624e+00 0.0000000000000000e+00  2.5969725470492484e-02 -4.7211486176130588e+00 0.0000000000000000e+00  -4.0639794711632843e-02 -3.1347387051031910e+00 0.0000000000000000e+00  -5.0432790637556082e-02 -1.8147141799023296e+00 0.0000000000000000e+00  1.8886861829150496e+00 4.5743530211791672e-02 0.0000000000000000e+00  3.0309715988832391e+00 1.1513181999749005e-01 0.0000000000000000e+00  4.8766563739484416e+00 8.5123042159573267e-02 0.0000000000000000e+00  6.2322776716430166e+00 -2.6160104822502049e-02 0.0000000000000000e+00  7.9198016513840725e+00 1.2094094653455668e-02 0.0000000000000000e+00  9.4732146656189595e+00 -8.8622640518616971e-03 0.0000000000000000e+00  1.1048119863843983e+01 1.6567890082357889e-03 0.0000000000000000e+00  1.2629337609925040e+01 -2.6677492287350757e-03 0.0000000000000000e+00  1.4198636710838981e+01 7.9804981477250890e-04 0.0000000000000000e+00  1.5802871282724661e+01 -7.0107625383345558e-04 0.0000000000000000e+00  1.7355714467897648e+01 5.1357174156195843e-06 0.0000000000000000e+00  1.8947635910831160e+01 5.4451643260709460e-03 0.0000000000000000e+00  2.0471904013804739e+01 2.2551157631112658e-03 0.0000000000000000e+00  2.2100728375661788e+01 -1.0860350291304281e-02 0.0000000000000000e+00  2.3628607847874548e+01 5.7060420469682467e-03 0.0000000000000000e+00  2.5243620177524619e+01 4.1845949264635984e-03 0.0000000000000000e+00  2.6755457572193830e+01 -4.2898201372115622e-03 0.0000000000000000e+00  2.8283521184088318e+01 1.0684481497267563e-02 0.0000000000000000e+00  2.9880676122854393e+01 -1.0770665455050201e-02 0.0000000000000000e+00  3.1367344354183295e+01 -6.6186110239472070e-03 0.0000000000000000e+00  3.2924663625929533e+01 1.4221364647159658e-02 0.0000000000000000e+00  3.4447925181232549e+01 -1.5532232799831389e-02 0.0000000000000000e+00  3.5859581586334151e+01 1.1667867331565048e-02 0.0000000000000000e+00  3.7366009688266679e+01 2.8904159890718408e-03 0.0000000000000000e+00  3.8852427982239760e+01 6.7893225950263689e-03 0.0000000000000000e+00  4.0309350131907486e+01 -4.4623877210253661e-03 0.0000000000000000e+00  4.1713713985672960e+01 -2.9132762196218999e-03 0.0000000000000000e+00  4.3078279087564674e+01 -2.0386971434887048e-03 0.0000000000000000e+00  4.4431854835809979e+01 2.3978700935798855e-04 0.0000000000000000e+00  4.5753206443597165e+01 -4.3026175072978664e-04 0.0000000000000000e+00  4.7039339794926384e+01 3.8111353174095691e-04 0.0000000000000000e+00  4.8285070068216001e+01 -3.0579618823111175e-03 0.0000000000000000e+00  4.9475800889803068e+01 -9.6407005639265544e-04 0.0000000000000000e+00  5.0653996582089889e+01 5.8612006432955440e-03 0.0000000000000000e+00  5.1782169241977456e+01 -9.3773451006744397e-03 0.0000000000000000e+00  5.2787700002119358e+01 9.9479601044412808e-03 0.0000000000000000e+00  5.3804519414283519e+01 -5.5914064344064404e-04 0.0000000000000000e+00  5.4741363997748628e+01 1.1180889231771502e-02 0.0000000000000000e+00  5.5606696456294728e+01 1.3747312190301564e-02 0.0000000000000000e+00  5.6469263611253325e+01 -4.2058348581222905e-02 0.0000000000000000e+00  5.7276191156901092e+01 3.0394034274192322e-02 0.0000000000000000e+00  5.7886218994305878e+01 -1.3192492511672396e-02 0.0000000000000000e+00  5.8514050664464598e+01 1.8512084008828380e-03 0.0000000000000000e+00  5.9046515227190149e+01 -4.2231147917277442e-03 0.0000000000000000e+00  5.9475877977992234e+01 9.0736711870504552e-03 0.0000000000000000e+00  5.9847933725866540e+01 -1.5322427805792491e-03 0.0000000000000000e+00  6.0149342018751803e+01 6.5994077597997160e-04 0.0000000000000000e+00  6.0362379076299440e+01 -1.0024314581823829e-03 0.0000000000000000e+00  6.0490549991975719e+01 -4.2750082552993628e-04 0.0000000000000000e+00  6.0530922014756165e+01 9.2047441215478557e-04 0.0000000000000000e+00  6.0490201104807731e+01 8.6383303116499240e-04 0.0000000000000000e+00  6.0369864814298580e+01 -2.2973426442225290e-03 0.0000000000000000e+00  6.0157946335785155e+01 2.5324718842962093e-03 0.0000000000000000e+00  5.9864058350295664e+01 2.4717205600275678e-04 0.0000000000000000e+00  5.9503040036032530e+01 -4.4149908824868914e-03 0.0000000000000000e+00  5.9045272948333178e+01 5.1804702122645327e-03 0.0000000000000000e+00  5.8506602343254144e+01 -1.1553402247659698e-04 0.0000000000000000e+00  5.7908203831767608e+01 -6.1085139413103520e-03 0.0000000000000000e+00  5.7209512521972847e+01 1.2570621717342442e-03 0.0000000000000000e+00  5.6473378684156430e+01 3.0450459362311214e-03 0.0000000000000000e+00  5.5654882747914399e+01 -4.0476974372315698e-03 0.0000000000000000e+00  5.4803514050393972e+01 6.2266726019029228e-05 0.0000000000000000e+00  5.3838087051507273e+01 2.9328738162272818e-03 0.0000000000000000e+00  5.2841547458986831e+01 -2.8273049368539582e-03 0.0000000000000000e+00  5.1809510755866839e+01 9.7888532551884590e-03 0.0000000000000000e+00  5.0661691206710159e+01 -7.0000259388695966e-03 0.0000000000000000e+00  4.9531905347829159e+01 -9.9006300768996747e-03 0.0000000000000000e+00  4.8312412490038149e+01 1.2342762263704959e-02 0.0000000000000000e+00  4.7035404045394365e+01 -3.4609349472245398e-03 0.0000000000000000e+00  4.5761209135969089e+01 -6.5303192669025822e-03 0.0000000000000000e+00  4.4430633097998800e+01 5.1039937180621360e-03 0.0000000000000000e+00  4.3079559589178196e+01 4.7227364119017011e-03 0.0000000000000000e+00  4.1686464807478551e+01 -1.1752836976588986e-03 0.0000000000000000e+00  4.0283978189111828e+01 -2.7629413760740871e-04 0.0000000000000000e+00  3.8852070879243001e+01 2.9044904565571380e-03 0.0000000000000000e+00  3.7389944516939345e+01 -1.6996984803540820e-03 0.0000000000000000e+00  3.5947022273715909e+01 -3.3863153913393836e-03 0.0000000000000000e+00  3.4479060145603263e+01 9.5293319445414696e-03 0.0000000000000000e+00  3.2918797299631514e+01 -1.2483863650758183e-02 0.0000000000000000e+00  3.1395982175174364e+01 -1.6142748460398189e-03 0.0000000000000000e+00  2.9866976382086339e+01 -1.4482761763344512e-03 0.0000000000000000e+00  2.8377632521221173e+01 -6.2198456477859879e-04 0.0000000000000000e+00  2.6829501170971930e+01 1.3064353295280925e-02 0.0000000000000000e+00  2.5215858336872966e+01 -1.1052712063699240e-02 0.0000000000000000e+00  2.3653096971992255e+01 -1.7709352432073991e-03 0.0000000000000000e+00  2.2084459778092928e+01 8.0258984540448799e-04 0.0000000000000000e+00  2.0480824053877065e+01 5.1514992155725558e-03 0.0000000000000000e+00  1.8951933938430848e+01 2.5864175398011605e-03 0.0000000000000000e+00  1.7351608362922338e+01 -3.5475762779897065e-03 0.0000000000000000e+00  1.5791084082019889e+01 1.5649178936917175e-03 0.0000000000000000e+00  1.4214085138427853e+01 5.4469176943680170e-03 0.0000000000000000e+00  1.2667399367532607e+01 -1.8066844196496783e-03 0.0000000000000000e+00  1.1055917532127896e+01 -4.8126186372772937e-03 0.0000000000000000e+00  9.4764665193034521e+00 9.1384368103934032e-03 0.0000000000000000e+00  7.9249964949569369e+00 -1.5645696637229395e-02 0.0000000000000000e+00  6.3837064468885849e+00 -6.6385666813047663e-03 0.0000000000000000e+00  4.7892456709363360e+00 2.1924997975939848e-02 0.0000000000000000e+00  3.1434491214902565e+00 5.2990300737092795e-04 0.0000000000000000e+00  1.7082875604740291e+00 -5.7397163421420365e-02 0.0000000000000000e+00  -9.2317772860313368e-02 1.7638387067560077e+00 0.0000000000000000e+00  2.3332783473528886e-02 3.0634585355618715e+00 0.0000000000000000e+00  -3.9029953367428011e-02 4.7187883340605881e+00 0.0000000000000000e+00  -3.0827944045198674e-02 6.0690418614821553e+00 0.0000000000000000e+00  1.3380799444685984e-01 7.8922851976481985e+00 0.0000000000000000e+00  -3.3348228570891404e-02 9.7338035117273538e+00 0.0000000000000000e+00  -9.4299810920758620e-02 1.0886483594108041e+01 0.0000000000000000e+00  -1.3651507634194202e-01 1.2741481074423074e+01 0.0000000000000000e+00  3.8971248427242082e-02 1.4032993454379564e+01 0.0000000000000000e+00  4.2443142863103224e-02 1.5778704265282908e+01 0.0000000000000000e+00  -3.9633862150480384e-02 1.7363727779064536e+01 0.0000000000000000e+00  2.9045263669808117e-02 1.8882353215859215e+01 0.0000000000000000e+00  6.4846546258610638e-03 2.0596551753896048e+01 0.0000000000000000e+00  -5.4824164790837696e-03 2.1945449836915689e+01 0.0000000000000000e+00  -1.8229593710427029e-02 2.3610744997150498e+01 0.0000000000000000e+00  -8.3168529627136792e-03 2.5108513085763192e+01 0.0000000000000000e+00  2.2153833937999638e-02 2.6715063356009356e+01 0.0000000000000000e+00  -7.1742310480441404e-03 2.8309223408306011e+01 0.0000000000000000e+00  -1.5908437029208990e-02 2.9791654399513995e+01 0.0000000000000000e+00  -4.5685456126161421e-03 3.1400648177905818e+01 0.0000000000000000e+00  -1.6227817917785086e-02 3.2664991481448354e+01 0.0000000000000000e+00  3.5783431710273969e-02 3.4341560368117875e+01 0.0000000000000000e+00  -3.0415798018615256e-02 3.5777720388198574e+01 0.0000000000000000e+00  3.5714598975390317e-02 3.7247736264956096e+01 0.0000000000000000e+00  1.1288095576452059e-02 3.8798086993026082e+01 0.0000000000000000e+00  -8.1118157953427139e-02 3.9938820589855283e+01 0.0000000000000000e+00  -6.7848549553499726e-02 4.1614779400475321e+01 0.0000000000000000e+00  1.3989117898300417e-02 4.2735952202810488e+01 0.0000000000000000e+00  -4.4085455446028966e-02 4.4148041943660544e+01 0.0000000000000000e+00  -2.1546095854925982e-02 4.5271459986007820e+01 0.0000000000000000e+00  1.0708493372842309e-01 4.6717997855641812e+01 0.0000000000000000e+00  -3.7428999629730390e-02 4.8135989512962631e+01 0.0000000000000000e+00  -5.7402273941748905e-02 4.9026724648950818e+01 0.0000000000000000e+00  -6.2090613286355414e-02 5.0391405362393144e+01 0.0000000000000000e+00  7.7351954897243447e-03 5.1239057095960618e+01 0.0000000000000000e+00  1.9710954648906650e-02 5.2409611736677000e+01 0.0000000000000000e+00  -8.2274534110214174e-03 5.3421281536098903e+01 0.0000000000000000e+00  -2.3705349934116430e-03 5.4315384132680258e+01 0.0000000000000000e+00  1.6387303117200796e-03 5.5172662730054931e+01 0.0000000000000000e+00  2.0624354629909330e-03 5.6003993718215312e+01 0.0000000000000000e+00  -1.4880840185051992e-02 5.6745971018727388e+01 0.0000000000000000e+00  6.3024601738204816e-04 5.7280040537311741e+01 0.0000000000000000e+00  -4.6198728639327240e-04 5.7943937258504931e+01 0.0000000000000000e+00  6.3791629897795316e-03 5.8475965918664137e+01 0.0000000000000000e+00  -1.1932244724647059e-02 5.8902221451571343e+01 0.0000000000000000e+00  1.1659012917326485e-02 5.9283228633877393e+01 0.0000000000000000e+00  -4.1896391365873163e-03 5.9540589154303774e+01 0.0000000000000000e+00  -1.0353761516038524e-02 5.9761135270180212e+01 0.0000000000000000e+00  2.4995214192913098e-03 5.9877971182410086e+01 0.0000000000000000e+00  2.4384627371955314e-03 5.9926366450595296e+01 0.0000000000000000e+00  1.0697063656030042e-02 5.9872283080977191e+01 0.0000000000000000e+00  -1.1990889737533759e-02 5.9758984018253649e+01 0.0000000000000000e+00  5.4523989702392099e-03 5.9557811989528247e+01 0.0000000000000000e+00  -9.7665988239692240e-03 5.9264240446509184e+01 0.0000000000000000e+00  1.3866553602087864e-02 5.8901368454679570e+01 0.0000000000000000e+00  -1.1991680504788573e-02 5.8423639815183812e+01 0.0000000000000000e+00  2.6253243639250034e-02 5.7990060571531956e+01 0.0000000000000000e+00  3.1411323121726023e-02 5.7274344634333026e+01 0.0000000000000000e+00  1.6883991627885859e-02 5.6758693066290995e+01 0.0000000000000000e+00  6.3879872338859667e-02 5.5913457007334237e+01 0.0000000000000000e+00  -3.0665618674451285e-02 5.5269560152460002e+01 0.0000000000000000e+00  -1.1230977512358829e-02 5.4307053590565076e+01 0.0000000000000000e+00  1.2509165437169244e-02 5.3337186252546324e+01 0.0000000000000000e+00  -2.7818622064200152e-03 5.2390857565991773e+01 0.0000000000000000e+00  -9.2613551534774237e-04 5.1362307749367169e+01 0.0000000000000000e+00  -4.0988372493367068e-03 5.0250746536149641e+01 0.0000000000000000e+00  4.9023516465677257e-03 4.9129593798083320e+01 0.0000000000000000e+00  -2.3448274370390158e-02 4.7935000105321883e+01 0.0000000000000000e+00  4.2724289604517136e-02 4.6710600661576514e+01 0.0000000000000000e+00  -2.9830639726702933e-02 4.5346563985937848e+01 0.0000000000000000e+00  3.3316723626152185e-02 4.4225018493010154e+01 0.0000000000000000e+00  8.5098762015254851e-03 4.2897189251671342e+01 0.0000000000000000e+00  -3.6459341574421066e-02 4.1466549463897636e+01 0.0000000000000000e+00  2.4531458470390892e-02 4.0055826461450650e+01 0.0000000000000000e+00  -3.0490290672438219e-02 3.8659167513699167e+01 0.0000000000000000e+00  1.5042298221393935e-02 3.7142056506974605e+01 0.0000000000000000e+00  -6.4571318089943885e-03 3.5668969417242380e+01 0.0000000000000000e+00  6.2043875776368253e-02 3.4443765928566570e+01 0.000