<?xml version="1.0"?>
<VTKFile type="UnstructuredGrid"  version="0.1"  >
<UnstructuredGrid>
<Piece  NumberOfPoints="11902" NumberOfCells="23402">
<Points>
<DataArray  type="Float64"  NumberOfComponents="3"  format="ascii">-5 -5 0  5 -5 0  5 5 0  -5 5 0  1.600508247446407 -0.00021013815704066 0  -4.9 -5 0  -4.8 -5 0  -4.7 -5 0  -4.6 -5 0  -4.5 -5 0  -4.4 -5 0  -4.3 -5 0  -4.2 -5 0  -4.1 -5 0  -4 -5 0  -3.9 -5 0  -3.8 -5 0  -3.7 -5 0  -3.6 -5 0  -3.5 -5 0  -3.4 -5 0  -3.3 -5 0  -3.2 -5 0  -3.1 -5 0  -3 -5 0  -2.9 -5 0  -2.8 -5 0  -2.7 -5 0  -2.6 -5 0  -2.5 -5 0  -2.4 -5 0  -2.3 -5 0  -2.2 -5 0  -2.1 -5 0  -2 -5 0  -1.9 -5 0  -1.8 -5 0  -1.7 -5 0  -1.6 -5 0  -1.5 -5 0  -1.4 -5 0  -1.3 -5 0  -1.2 -5 0  -1.1 -5 0  -1 -5 0  -0.9000000000000004 -5 0  -0.7999999999999998 -5 0  -0.7000000000000002 -5 0  -0.5999999999999996 -5 0  -0.5 -5 0  -0.4000000000000004 -5 0  -0.2999999999999998 -5 0  -0.2000000000000002 -5 0  -0.09999999999999964 -5 0  0 -5 0  0.09999999999999964 -5 0  0.2000000000000002 -5 0  0.2999999999999998 -5 0  0.4000000000000004 -5 0  0.5 -5 0  0.5999999999999996 -5 0  0.7000000000000002 -5 0  0.7999999999999998 -5 0  0.9000000000000004 -5 0  1 -5 0  1.1 -5 0  1.2 -5 0  1.3 -5 0  1.4 -5 0  1.5 -5 0  1.6 -5 0  1.7 -5 0  1.8 -5 0  1.9 -5 0  2 -5 0  2.1 -5 0  2.2 -5 0  2.3 -5 0  2.4 -5 0  2.5 -5 0  2.6 -5 0  2.7 -5 0  2.8 -5 0  2.9 -5 0  3 -5 0  3.1 -5 0  3.199999999999999 -5 0  3.300000000000001 -5 0  3.4 -5 0  3.5 -5 0  3.6 -5 0  3.699999999999999 -5 0  3.800000000000001 -5 0  3.9 -5 0  4 -5 0  4.1 -5 0  4.199999999999999 -5 0  4.300000000000001 -5 0  4.4 -5 0  4.5 -5 0  4.6 -5 0  4.699999999999999 -5 0  4.800000000000001 -5 0  4.9 -5 0  5 -4.9 0  5 -4.8 0  5 -4.7 0  5 -4.6 0  5 -4.5 0  5 -4.4 0  5 -4.3 0  5 -4.2 0  5 -4.1 0  5 -4 0  5 -3.9 0  5 -3.8 0  5 -3.7 0  5 -3.6 0  5 -3.5 0  5 -3.4 0  5 -3.3 0  5 -3.2 0  5 -3.1 0  5 -3 0  5 -2.9 0  5 -2.8 0  5 -2.7 0  5 -2.6 0  5 -2.5 0  5 -2.4 0  5 -2.3 0  5 -2.2 0  5 -2.1 0  5 -2 0  5 -1.9 0  5 -1.8 0  5 -1.7 0  5 -1.6 0  5 -1.5 0  5 -1.4 0  5 -1.3 0  5 -1.2 0  5 -1.1 0  5 -1 0  5 -0.9000000000000004 0  5 -0.7999999999999998 0  5 -0.7000000000000002 0  5 -0.5999999999999996 0  5 -0.5 0  5 -0.4000000000000004 0  5 -0.2999999999999998 0  5 -0.2000000000000002 0  5 -0.09999999999999964 0  5 0 0  5 0.09999999999999964 0  5 0.2000000000000002 0  5 0.2999999999999998 0  5 0.4000000000000004 0  5 0.5 0  5 0.5999999999999996 0  5 0.7000000000000002 0  5 0.7999999999999998 0  5 0.9000000000000004 0  5 1 0  5 1.1 0  5 1.2 0  5 1.3 0  5 1.4 0  5 1.5 0  5 1.6 0  5 1.7 0  5 1.8 0  5 1.9 0  5 2 0  5 2.1 0  5 2.2 0  5 2.3 0  5 2.4 0  5 2.5 0  5 2.6 0  5 2.7 0  5 2.8 0  5 2.9 0  5 3 0  5 3.1 0  5 3.199999999999999 0  5 3.300000000000001 0  5 3.4 0  5 3.5 0  5 3.6 0  5 3.699999999999999 0  5 3.800000000000001 0  5 3.9 0  5 4 0  5 4.1 0  5 4.199999999999999 0  5 4.300000000000001 0  5 4.4 0  5 4.5 0  5 4.6 0  5 4.699999999999999 0  5 4.800000000000001 0  5 4.9 0  4.9 5 0  4.8 5 0  4.7 5 0  4.6 5 0  4.5 5 0  4.4 5 0  4.3 5 0  4.2 5 0  4.1 5 0  4 5 0  3.9 5 0  3.8 5 0  3.7 5 0  3.6 5 0  3.5 5 0  3.4 5 0  3.3 5 0  3.2 5 0  3.1 5 0  3 5 0  2.9 5 0  2.8 5 0  2.7 5 0  2.6 5 0  2.5 5 0  2.4 5 0  2.3 5 0  2.2 5 0  2.1 5 0  2 5 0  1.9 5 0  1.8 5 0  1.7 5 0  1.6 5 0  1.5 5 0  1.4 5 0  1.3 5 0  1.2 5 0  1.1 5 0  1 5 0  0.9000000000000004 5 0  0.7999999999999998 5 0  0.7000000000000002 5 0  0.5999999999999996 5 0  0.5 5 0  0.4000000000000004 5 0  0.2999999999999998 5 0  0.2000000000000002 5 0  0.09999999999999964 5 0  0 5 0  -0.09999999999999964 5 0  -0.2000000000000002 5 0  -0.2999999999999998 5 0  -0.4000000000000004 5 0  -0.5 5 0  -0.5999999999999996 5 0  -0.7000000000000002 5 0  -0.7999999999999998 5 0  -0.9000000000000004 5 0  -1 5 0  -1.1 5 0  -1.2 5 0  -1.3 5 0  -1.4 5 0  -1.5 5 0  -1.6 5 0  -1.7 5 0  -1.8 5 0  -1.9 5 0  -2 5 0  -2.1 5 0  -2.2 5 0  -2.3 5 0  -2.4 5 0  -2.5 5 0  -2.6 5 0  -2.7 5 0  -2.8 5 0  -2.9 5 0  -3 5 0  -3.1 5 0  -3.199999999999999 5 0  -3.300000000000001 5 0  -3.4 5 0  -3.5 5 0  -3.6 5 0  -3.699999999999999 5 0  -3.800000000000001 5 0  -3.9 5 0  -4 5 0  -4.1 5 0  -4.199999999999999 5 0  -4.300000000000001 5 0  -4.4 5 0  -4.5 5 0  -4.6 5 0  -4.699999999999999 5 0  -4.800000000000001 5 0  -4.9 5 0  -5 4.9 0  -5 4.8 0  -5 4.7 0  -5 4.6 0  -5 4.5 0  -5 4.4 0  -5 4.3 0  -5 4.2 0  -5 4.1 0  -5 4 0  -5 3.9 0  -5 3.8 0  -5 3.7 0  -5 3.6 0  -5 3.5 0  -5 3.4 0  -5 3.3 0  -5 3.2 0  -5 3.1 0  -5 3 0  -5 2.9 0  -5 2.8 0  -5 2.7 0  -5 2.6 0  -5 2.5 0  -5 2.4 0  -5 2.3 0  -5 2.2 0  -5 2.1 0  -5 2 0  -5 1.9 0  -5 1.8 0  -5 1.7 0  -5 1.6 0  -5 1.5 0  -5 1.4 0  -5 1.3 0  -5 1.2 0  -5 1.1 0  -5 1 0  -5 0.9000000000000004 0  -5 0.7999999999999998 0  -5 0.7000000000000002 0  -5 0.5999999999999996 0  -5 0.5 0  -5 0.4000000000000004 0  -5 0.2999999999999998 0  -5 0.2000000000000002 0  -5 0.09999999999999964 0  -5 0 0  -5 -0.09999999999999964 0  -5 -0.2000000000000002 0  -5 -0.2999999999999998 0  -5 -0.4000000000000004 0  -5 -0.5 0  -5 -0.5999999999999996 0  -5 -0.7000000000000002 0  -5 -0.7999999999999998 0  -5 -0.9000000000000004 0  -5 -1 0  -5 -1.1 0  -5 -1.2 0  -5 -1.3 0  -5 -1.4 0  -5 -1.5 0  -5 -1.6 0  -5 -1.7 0  -5 -1.8 0  -5 -1.9 0  -5 -2 0  -5 -2.1 0  -5 -2.2 0  -5 -2.3 0  -5 -2.4 0  -5 -2.5 0  -5 -2.6 0  -5 -2.7 0  -5 -2.8 0  -5 -2.9 0  -5 -3 0  -5 -3.1 0  -5 -3.199999999999999 0  -5 -3.300000000000001 0  -5 -3.4 0  -5 -3.5 0  -5 -3.6 0  -5 -3.699999999999999 0  -5 -3.800000000000001 0  -5 -3.9 0  -5 -4 0  -5 -4.1 0  -5 -4.199999999999999 0  -5 -4.300000000000001 0  -5 -4.4 0  -5 -4.5 0  -5 -4.6 0  -5 -4.699999999999999 0  -5 -4.800000000000001 0  -5 -4.9 0  1.59262498309371 0.1519305742263068 0  1.569010676573617 0.302655960557111 0  1.529932533203801 0.4505511191379807 0  1.475672333060843 0.5942055996233774 0  1.406759702236369 0.7322230254597779 0  1.323865259140385 0.8632525339573219 0  1.227836244165312 0.9860083994539646 0  1.119581696127126 1.099243509414665 0  1.00010321074291 1.201724658697503 0  0.870579765944182 1.292342206302319 0  0.7323438268346995 1.370174530282422 0  0.58674115700106 1.434350645640205 0  0.4352191886017431 1.484106323967334 0  0.279328980188101 1.518974028628393 0  0.1206098637959849 1.538452531317774 0  -0.03931528162600829 1.542375115717201 0  -0.1988403939121229 1.53068727114161 0  -0.3563381007685158 1.503448112022902 0  -0.510232080718783 1.461083654117568 0  -0.6589845464958816 1.404066041801941 0  -0.8010741828551042 1.332969068984524 0  -0.935099640732147 1.248620777750841 0  -1.059730866596859 1.1519325105562 0  -1.173719325273213 1.043925587711389 0  -1.275991204207179 0.9257848355845698 0  -1.365551556878148 0.7987197200098601 0  -1.441482404320245 0.663992907385159 0  -1.503135494454043 0.5229827779653164 0  -1.549909380815796 0.3770395682545299 0  -1.581301185130493 0.2275451237476169 0  -1.59705811428849 0.07592718017332251 0  -1.597059082928475 -0.07639737794993282 0  -1.581285870726769 -0.2280162334178623 0  -1.549795706546107 -0.3774746316641362 0  -1.503110259213732 -0.5234388716920435 0  -1.441474260034161 -0.6644540799401113 0  -1.365516535862372 -0.7991555622142561 0  -1.275946608754926 -0.9262029504732761 0  -1.173679898807466 -1.044339100328485 0  -1.05969598653337 -1.15234292841798 0  -0.9350782233122721 -1.249045652428702 0  -0.8010066037758377 -1.333325125053485 0  -0.6589382595534103 -1.404445810066963 0  -0.5101968945828803 -1.461470284197549 0  -0.3563212885603344 -1.503830716607684 0  -0.1988354572465174 -1.531025953161168 0  -0.03932648543535865 -1.542665552618287 0  0.120578128738228 -1.538771465188132 0  0.2792849718499842 -1.519322649976887 0  0.4351706393598138 -1.484489889994276 0  0.5866824968571395 -1.434740415178124 0  0.7322953161234731 -1.370600231588236 0  0.8705312194347632 -1.29276646173236 0  1.000015403513861 -1.202105179640562 0  1.119496002464766 -1.09963337474857 0  1.227785066098007 -0.9864302518244743 0  1.323844495589359 -0.863686046744115 0  1.406692715263532 -0.7326307628425822 0  1.475545189682666 -0.5945925827303338 0  1.529841128088034 -0.4509565569911859 0  1.568980055749215 -0.303072950329648 0  1.59258962685172 -0.1523474591360285 0  -2.449121186988228 4.918690214427534 0  -2.44903974580637 -4.911117419318561 0  4.910770103007077 2.448291690574045 0  4.918859560135406 -2.449718248238572 0  2.446867335004312 -4.896457114719198 0  2.441287289266727 4.900211050937229 0  -4.910785964584216 -2.448311296035282 0  -4.910794895566383 2.448315296009636 0  -1.749237639077238 4.912121226133154 0  -1.744988479844676 -4.915507101453211 0  4.921091713966598 1.744465719677677 0  4.909683026454633 -1.74828773689588 0  -4.909965853958195 -1.748011583645708 0  -4.910795196433294 1.747748452686605 0  1.746556635313171 4.906064347137926 0  1.748052980099364 -4.89434078025976 0  -1.1494783529836 4.91039873548317 0  -1.130265514499088 -4.918178991545167 0  -4.909862727113693 -1.148274673073458 0  -4.909692866707642 1.148067841868787 0  1.144427596080491 -4.914421031533903 0  1.149481781699658 4.910391413158857 0  4.910021516771652 1.146551034046112 0  4.920765685510203 -1.152296909930129 0  -0.5470263585781974 -4.911902695176901 0  -0.5467688539037262 4.920426818278932 0  -4.90873505315418 -0.5489042581926522 0  -4.908764865121364 0.5474499016075182 0  4.908078768021571 -0.54922610982441 0  4.919635148978185 0.5459523691888739 0  0.5428413288036152 -4.89906423570449 0  0.5515088232685528 4.917313855141207 0  -4.912091188587438 -3.04855896098394 0  4.918655945436685 3.046560482625126 0  4.911602608824121 -3.048541869755024 0  -4.912946980498351 3.045649906933831 0  3.055675701536973 -4.917680434123676 0  -3.049033230567661 -4.911628386051989 0  3.052597166050468 4.913706937580416 0  -3.048485871800126 4.912525272168833 0  -4.907894136673223 -0.0499320288153576 0  0.04514430402774412 -4.913928392012524 0  0.04959402073183321 4.92081937539454 0  4.914902332358797 -0.05131057995575417 0  3.545848008292239 -4.91918897109961 0  -3.549156405573816 4.912101848521153 0  -3.5491530979038 -4.912102317890433 0  4.91
[...]
<PointData  Vectors="f_472"> 
<DataArray  type="Float64"  Name="f_472"  NumberOfComponents="3" format="ascii">-1.1187090572991332e-01 -1.3054163607040725e-01 0.0000000000000000e+00  1.2261847636680170e-01 -1.0375237460944663e-01 0.0000000000000000e+00  7.1079104243937458e-02 8.3016598844722844e-02 0.0000000000000000e+00  -1.1758480984101698e-01 1.3425781569245182e-01 0.0000000000000000e+00  7.5928901642735937e+01 -1.1462092619903326e+00 0.0000000000000000e+00  4.3248776254343806e-02 -9.8558096236164250e-01 0.0000000000000000e+00  3.5657540034722254e-02 -1.6004133670737113e+00 0.0000000000000000e+00  3.8671424379666128e-02 -2.6410543974463683e+00 0.0000000000000000e+00  2.9152039033231287e-02 -3.2648664145166424e+00 0.0000000000000000e+00  -7.1770123294777818e-02 -4.2427177230988606e+00 0.0000000000000000e+00  1.4685211204862230e-02 -5.2109702904928135e+00 0.0000000000000000e+00  2.5433360871417229e-02 -5.9426111318613088e+00 0.0000000000000000e+00  -1.1646847698269489e-02 -6.8347815855516592e+00 0.0000000000000000e+00  4.3947853611464104e-02 -7.5332535906203439e+00 0.0000000000000000e+00  4.6060759896849005e-02 -8.5500755382085050e+00 0.0000000000000000e+00  -7.1289057566872862e-03 -9.2296611032895335e+00 0.0000000000000000e+00  -1.2373116417295299e-02 -1.0123499980423167e+01 0.0000000000000000e+00  5.5085937380944206e-03 -1.0994301714417166e+01 0.0000000000000000e+00  3.8308202623468304e-03 -1.1816876488592621e+01 0.0000000000000000e+00  -4.6960621716507925e-03 -1.2653890700032001e+01 0.0000000000000000e+00  2.6543835171675538e-03 -1.3526676802852787e+01 0.0000000000000000e+00  1.8318225437144026e-02 -1.4367610713047196e+01 0.0000000000000000e+00  -2.0913238710082512e-03 -1.5035112592988250e+01 0.0000000000000000e+00  -6.3565197380867269e-03 -1.5959587616652939e+01 0.0000000000000000e+00  -2.3235479352984034e-02 -1.6883897321702094e+01 0.0000000000000000e+00  6.1038363812731117e-02 -1.7535045806398340e+01 0.0000000000000000e+00  2.7994133346182688e-02 -1.8476584885798090e+01 0.0000000000000000e+00  3.2054494493398665e-02 -1.9090167563524357e+01 0.0000000000000000e+00  5.4731969723333086e-02 -1.9996756519389798e+01 0.0000000000000000e+00  -2.5153347998618791e-02 -2.0631186579565021e+01 0.0000000000000000e+00  -9.1535213266442511e-03 -2.1505398142244434e+01 0.0000000000000000e+00  -3.1103144150658041e-03 -2.2320404445992061e+01 0.0000000000000000e+00  4.0598082255051876e-02 -2.2896580188350040e+01 0.0000000000000000e+00  2.9239061948494301e-02 -2.3773129571359899e+01 0.0000000000000000e+00  2.9627571103473149e-02 -2.4293259507956371e+01 0.0000000000000000e+00  -6.5702770968686930e-02 -2.5087778787066185e+01 0.0000000000000000e+00  2.8125078477771646e-02 -2.5833698471159121e+01 0.0000000000000000e+00  4.5570986708813243e-03 -2.6375015537204966e+01 0.0000000000000000e+00  -1.0324138750933247e-03 -2.6983220584515017e+01 0.0000000000000000e+00  -1.0457665417079500e-03 -2.7567218374011990e+01 0.0000000000000000e+00  5.0166653812500402e-03 -2.8125036494517680e+01 0.0000000000000000e+00  -2.9298590752448811e-02 -2.8703449318277745e+01 0.0000000000000000e+00  3.6036825579058004e-02 -2.9141314146710460e+01 0.0000000000000000e+00  1.9072114932021402e-02 -2.9594801571089409e+01 0.0000000000000000e+00  1.4455258590915352e-02 -3.0060218245036509e+01 0.0000000000000000e+00  -8.4087430271863571e-03 -3.0462576361547764e+01 0.0000000000000000e+00  3.4772533086998000e-02 -3.0737781590176493e+01 0.0000000000000000e+00  -2.5435371432903430e-02 -3.1111938935285217e+01 0.0000000000000000e+00  1.4046954186196900e-02 -3.1420991568009150e+01 0.0000000000000000e+00  -2.9886060726680031e-03 -3.1611650488708101e+01 0.0000000000000000e+00  1.0233052797312091e-03 -3.1814118718078177e+01 0.0000000000000000e+00  -7.1413210926239376e-04 -3.1965627428604929e+01 0.0000000000000000e+00  3.5613250024796512e-04 -3.2074815067805076e+01 0.0000000000000000e+00  1.8045185248712699e-04 -3.2140407888613900e+01 0.0000000000000000e+00  1.5173210368571049e-03 -3.2162845001100195e+01 0.0000000000000000e+00  7.1491091560059428e-04 -3.2149918779736737e+01 0.0000000000000000e+00  6.3073654725249268e-03 -3.2078899607060478e+01 0.0000000000000000e+00  -9.1320286683183351e-03 -3.1946480596225555e+01 0.0000000000000000e+00  -4.0182192503745362e-03 -3.1830898519749628e+01 0.0000000000000000e+00  -1.7454555174071427e-02 -3.1594925684554170e+01 0.0000000000000000e+00  5.5400298544325578e-03 -3.1402500438693185e+01 0.0000000000000000e+00  5.1116383534893913e-03 -3.1111662299485364e+01 0.0000000000000000e+00  -3.7405818617819329e-03 -3.0781215346263810e+01 0.0000000000000000e+00  -7.4368491210660670e-04 -3.0436613423913553e+01 0.0000000000000000e+00  4.3375088787733192e-03 -3.0039576491964016e+01 0.0000000000000000e+00  -9.4927694385353693e-03 -2.9609456226352048e+01 0.0000000000000000e+00  -6.6059565986286654e-03 -2.9130630084532608e+01 0.0000000000000000e+00  7.0501350690709650e-03 -2.8699307343214539e+01 0.0000000000000000e+00  -1.6181055940351310e-02 -2.8126238975933521e+01 0.0000000000000000e+00  1.8784528232633820e-02 -2.7562876842322716e+01 0.0000000000000000e+00  -2.3687164461163233e-02 -2.6984818091833851e+01 0.0000000000000000e+00  3.9631511551708612e-03 -2.6342791739168831e+01 0.0000000000000000e+00  1.1551655114823313e-02 -2.5763312738515914e+01 0.0000000000000000e+00  -1.6707684312104999e-02 -2.5079154979392417e+01 0.0000000000000000e+00  1.2024880782373036e-02 -2.4382030816943139e+01 0.0000000000000000e+00  -8.9689976060781801e-03 -2.3678394206155897e+01 0.0000000000000000e+00  3.7452764379462228e-03 -2.2974046558455317e+01 0.0000000000000000e+00  -1.5590807426282161e-02 -2.2250491057511120e+01 0.0000000000000000e+00  -5.5356710005241604e-03 -2.1463565161250454e+01 0.0000000000000000e+00  7.0696442408543026e-03 -2.0810721821591454e+01 0.0000000000000000e+00  2.1868429573163937e-03 -1.9985300361095941e+01 0.0000000000000000e+00  6.0490368448213551e-03 -1.9183585550689472e+01 0.0000000000000000e+00  -2.2709991786486444e-02 -1.8404846467214735e+01 0.0000000000000000e+00  -8.4957717605248801e-03 -1.7524717438963229e+01 0.0000000000000000e+00  1.4527666920138708e-02 -1.6805882640130928e+01 0.0000000000000000e+00  -2.1988078795313368e-02 -1.5929051633960515e+01 0.0000000000000000e+00  8.2150623375250894e-04 -1.5147035067824701e+01 0.0000000000000000e+00  9.0786607314196858e-03 -1.4347865462394024e+01 0.0000000000000000e+00  9.2917401434771327e-03 -1.3466187848644175e+01 0.0000000000000000e+00  -2.6506713587240431e-02 -1.2665082238164960e+01 0.0000000000000000e+00  5.4013344651073127e-03 -1.1772331737723594e+01 0.0000000000000000e+00  5.6140825189585422e-03 -1.1018785147896926e+01 0.0000000000000000e+00  -2.0703220844916520e-02 -1.0113994013020200e+01 0.0000000000000000e+00  -4.5677846165226830e-04 -9.3104563179366320e+00 0.0000000000000000e+00  1.1505750516435579e-02 -8.4454578739896178e+00 0.0000000000000000e+00  -7.0709538601461343e-04 -7.5895802790245046e+00 0.0000000000000000e+00  -1.1236571391490405e-02 -6.7642068161461975e+00 0.0000000000000000e+00  -8.5051498267846078e-03 -5.8844637058668585e+00 0.0000000000000000e+00  1.6632002090964201e-02 -5.1336952592652603e+00 0.0000000000000000e+00  -2.5340569357544425e-02 -4.2244998407788374e+00 0.0000000000000000e+00  6.1499052256744130e-03 -3.3979578342281553e+00 0.0000000000000000e+00  1.3914862479482199e-02 -2.5296701810574707e+00 0.0000000000000000e+00  -2.1783097684981542e-02 -1.6796707990152624e+00 0.0000000000000000e+00  -2.7020396838877789e-02 -9.7238579588482899e-01 0.0000000000000000e+00  1.0120330655339687e+00 2.4505710458011573e-02 0.0000000000000000e+00  1.6240501062643835e+00 6.1702807097340294e-02 0.0000000000000000e+00  2.6129948860207666e+00 4.5560245209609045e-02 0.0000000000000000e+00  3.3393409704863970e+00 -1.3991829449593931e-02 0.0000000000000000e+00  4.2434646996776495e+00 6.4582991092876647e-03 0.0000000000000000e+00  5.0757226346820810e+00 -4.7532636388700217e-03 0.0000000000000000e+00  5.9194462631251001e+00 8.8158946822027202e-04 0.0000000000000000e+00  6.7665041546468903e+00 -1.4370695394726682e-03 0.0000000000000000e+00  7.6071114270155231e+00 4.2795805178110733e-04 0.0000000000000000e+00  8.4663784039731116e+00 -3.8998098799189002e-04 0.0000000000000000e+00  9.2980571002957202e+00 3.2280630451915410e-06 0.0000000000000000e+00  1.0150563902296836e+01 2.9022257176773572e-03 0.0000000000000000e+00  1.0966746099138390e+01 1.2119774553129054e-03 0.0000000000000000e+00  1.1838839206381943e+01 -5.8257008139373408e-03 0.0000000000000000e+00  1.2656801198249530e+01 3.0644823802024896e-03 0.0000000000000000e+00  1.3521264479037530e+01 2.2089421929563039e-03 0.0000000000000000e+00  1.4330406149598753e+01 -2.2875328011354597e-03 0.0000000000000000e+00  1.5148083369390513e+01 5.7178198021238047e-03 0.0000000000000000e+00  1.6002641974091212e+01 -5.7799987962628271e-03 0.0000000000000000e+00  1.6797968815884342e+01 -3.5070651004373518e-03 0.0000000000000000e+00  1.7630899682680187e+01 7.5814250616259501e-03 0.0000000000000000e+00  1.8445491815299182e+01 -8.2936970588501288e-03 0.0000000000000000e+00  1.9200284009970414e+01 6.2486718643752943e-03 0.0000000000000000e+00  2.0005465646302660e+01 1.5592823889746766e-03 0.0000000000000000e+00  2.0799844220123241e+01 3.5955377694264169e-03 0.0000000000000000e+00  2.1578307892037994e+01 -2.3831879657680898e-03 0.0000000000000000e+00  2.2328591419648316e+01 -1.5537192054652267e-03 0.0000000000000000e+00  2.3057471863970171e+01 -1.0725680451053603e-03 0.0000000000000000e+00  2.3780308032059814e+01 1.4198895814332294e-04 0.0000000000000000e+00  2.4485774126017656e+01 -2.1491870827071652e-04 0.0000000000000000e+00  2.5172292704754003e+01 2.2176670938501170e-04 0.0000000000000000e+00  2.5837145356427921e+01 -1.6101291282706240e-03 0.0000000000000000e+00  2.6472517036458090e+01 -4.8682373603298483e-04 0.0000000000000000e+00  2.7101023463237389e+01 3.1145988087449041e-03 0.0000000000000000e+00  2.7702750019221465e+01 -4.9384011015893856e-03 0.0000000000000000e+00  2.8239012870235253e+01 5.2537414935725415e-03 0.0000000000000000e+00  2.8781142110863676e+01 -2.6717083209832113e-04 0.0000000000000000e+00  2.9280535096487377e+01 5.8860581076673737e-03 0.0000000000000000e+00  2.9741642374045270e+01 7.2659349859182203e-03 0.0000000000000000e+00  3.0201195898163760e+01 -2.2134117723907335e-02 0.0000000000000000e+00  3.0631160336638150e+01 1.6015036398647636e-02 0.0000000000000000e+00  3.0956125713081235e+01 -6.9456588623467604e-03 0.0000000000000000e+00  3.1290529152746025e+01 9.9576876185062898e-04 0.0000000000000000e+00  3.1574102307615068e+01 -2.2138919321188404e-03 0.0000000000000000e+00  3.1802784056697671e+01 4.7425497215017078e-03 0.0000000000000000e+00  3.2000878288370401e+01 -7.9480321401271463e-04 0.0000000000000000e+00  3.2161269425227722e+01 3.4289122849626093e-04 0.0000000000000000e+00  3.2274581062505973e+01 -5.1782177568471656e-04 0.0000000000000000e+00  3.2342683493819926e+01 -2.1875645593814934e-04 0.0000000000000000e+00  3.2364067758807742e+01 4.6932048942866059e-04 0.0000000000000000e+00  3.2342240160346051e+01 4.5911138351820900e-04 0.0000000000000000e+00  3.2278012141727295e+01 -1.2109074316368979e-03 0.0000000000000000e+00  3.2165041953351967e+01 1.3251227729994927e-03 0.0000000000000000e+00  3.2008389436520112e+01 1.3254439824173620e-04 0.0000000000000000e+00  3.1815993926639344e+01 -2.3228316041614245e-03 0.0000000000000000e+00  3.1572094515957343e+01 2.7106994680922425e-03 0.0000000000000000e+00  3.1285080045244865e+01 -5.3432466979128997e-05 0.0000000000000000e+00  3.0966268049808537e+01 -3.2339301470581485e-03 0.0000000000000000e+00  3.0593967589079014e+01 6.7046802428921291e-04 0.0000000000000000e+00  3.0201614854865142e+01 1.5917263738774846e-03 0.0000000000000000e+00  2.9765343779805630e+01 -2.1395503062069448e-03 0.0000000000000000e+00  2.9311540337319713e+01 1.9887850383763530e-05 0.0000000000000000e+00  2.8796923769098349e+01 1.5191869688458461e-03 0.0000000000000000e+00  2.8265607496411633e+01 -1.4775274726759140e-03 0.0000000000000000e+00  2.7715238592200880e+01 5.1510167877624694e-03 0.0000000000000000e+00  2.7103164774375450e+01 -3.7007430759639212e-03 0.0000000000000000e+00  2.6500594125761914e+01 -5.2516034368834345e-03 0.0000000000000000e+00  2.5850020592902755e+01 6.5176827632513826e-03 0.0000000000000000e+00  2.5168676536146126e+01 -1.8482688901663965e-03 0.0000000000000000e+00  2.4488572512726311e+01 -3.4672490264842089e-03 0.0000000000000000e+00  2.3778205407894387e+01 2.6757371148734732e-03 0.0000000000000000e+00  2.3056838154547361e+01 2.4930637514536651e-03 0.0000000000000000e+00  2.2312883657372648e+01 -6.3681757560439002e-04 0.0000000000000000e+00  2.1563700179321479e+01 -1.5063981752421162e-04 0.0000000000000000e+00  2.0798608953526298e+01 1.5334491068246610e-03 0.0000000000000000e+00  2.0017266216675594e+01 -9.1295617868001201e-04 0.0000000000000000e+00  1.9246015335286721e+01 -1.7975686508529857e-03 0.0000000000000000e+00  1.8461154159271306e+01 5.1020651301773752e-03 0.0000000000000000e+00  1.7626891399852187e+01 -6.6612599287332631e-03 0.0000000000000000e+00  1.6812473883876923e+01 -8.7222169609159762e-04 0.0000000000000000e+00  1.5994588427202656e+01 -7.8709896178323559e-04 0.0000000000000000e+00  1.5197801634779296e+01 -3.2718913615892878e-04 0.0000000000000000e+00  1.4369388195322118e+01 6.9999143709117070e-03 0.0000000000000000e+00  1.3505828114491067e+01 -5.8991933728243249e-03 0.0000000000000000e+00  1.2669376637713089e+01 -9.5775155124261781e-04 0.0000000000000000e+00  1.1829673695099888e+01 4.2864314038910424e-04 0.0000000000000000e+00  1.0971137438099801e+01 2.7433147202089200e-03 0.0000000000000000e+00  1.0152491109561833e+01 1.4009256837009105e-03 0.0000000000000000e+00  9.2955043186544266e+00 -1.9016617317153157e-03 0.0000000000000000e+00  8.4597643894686616e+00 8.4624642947186393e-04 0.0000000000000000e+00  7.6151175102044615e+00 2.9220507237569977e-03 0.0000000000000000e+00  6.7866324110415972e+00 -9.4917814992909026e-04 0.0000000000000000e+00  5.9233846787571141e+00 -2.5756814823704108e-03 0.0000000000000000e+00  5.0772735699310809e+00 4.8996683173214489e-03 0.0000000000000000e+00  4.2461044741034737e+00 -8.3690744809145935e-03 0.0000000000000000e+00  3.4203396318473027e+00 -3.5511438487053526e-03 0.0000000000000000e+00  2.5660694392347523e+00 1.1752330461798599e-02 0.0000000000000000e+00  1.6842802446326626e+00 2.8660642327311243e-04 0.0000000000000000e+00  9.1533796281058144e-01 -3.0737513513886525e-02 0.0000000000000000e+00  -4.9473581474299963e-02 9.4509581523437625e-01 0.0000000000000000e+00  1.2486151527559637e-02 1.6413841588056743e+00 0.0000000000000000e+00  -2.0906837098629259e-02 2.5282843025053969e+00 0.0000000000000000e+00  -1.6507050211608899e-02 3.2518371126724435e+00 0.0000000000000000e+00  7.1728263143577831e-02 4.2288150248359573e+00 0.0000000000000000e+00  -1.7883581302042689e-02 5.2156149329111710e+00 0.0000000000000000e+00  -5.0555965549107844e-02 5.8333074722381077e+00 0.0000000000000000e+00  -7.3177958892827827e-02 6.8274813110553136e+00 0.0000000000000000e+00  2.0891727061945458e-02 7.5196967157429242e+00 0.0000000000000000e+00  2.2793817316672897e-02 8.4553969717845909e+00 0.0000000000000000e+00  -2.1268738425200957e-02 9.3051584665411582e+00 0.0000000000000000e+00  1.5635345519176919e-02 1.0119371666985467e+01 0.0000000000000000e+00  3.4975027526131940e-03 1.1038564535057132e+01 0.0000000000000000e+00  -2.9643149124659691e-03 1.1761809893645090e+01 0.0000000000000000e+00  -9.7136830326108852e-03 1.2654902700433254e+01 0.0000000000000000e+00  -4.4972370310059368e-03 1.3458139149979374e+01 0.0000000000000000e+00  1.1989061976353941e-02 1.4319858375756095e+01 0.0000000000000000e+00  -3.8525367284548947e-03 1.5175376690246665e+01 0.0000000000000000e+00  -8.4853250493708843e-03 1.5971184798270173e+01 0.0000000000000000e+00  -2.3758379662733821e-03 1.6834656385183461e+01 0.0000000000000000e+00  -8.9286614655207427e-03 1.7512822541628022e+01 0.0000000000000000e+00  1.9578387965013110e-02 1.8412811569866953e+01 0.0000000000000000e+00  -1.6658881779728203e-02 1.9183972866090432e+01 0.0000000000000000e+00  1.9592685068267068e-02 1.9973253211645766e+01 0.0000000000000000e+00  6.0687344243358175e-03 2.0805904106989168e+01 0.0000000000000000e+00  -4.3941557476769859e-02 2.1418742990915408e+01 0.0000000000000000e+00  -3.6649022240526928e-02 2.2318437703009966e+01 0.0000000000000000e+00  7.5616577684559545e-03 2.2920062132465450e+01 0.0000000000000000e+00  -2.4146852300443760e-02 2.3678760263932780e+01 0.0000000000000000e+00  -1.1716103106395743e-02 2.4282232465934090e+01 0.0000000000000000e+00  5.8444317522419707e-02 2.5060689156580249e+01 0.0000000000000000e+00  -2.0337600797953347e-02 2.5821997043127570e+01 0.0000000000000000e+00  -3.1213509683749145e-02 2.6300859120352897e+01 0.0000000000000000e+00  -3.3739205428429966e-02 2.7034706070452490e+01 0.0000000000000000e+00  3.8082640245782769e-03 2.7488822909085517e+01 0.0000000000000000e+00  1.1101563267895614e-02 2.8118395092404857e+01 0.0000000000000000e+00  -4.6276737595487257e-03 2.8662728024096403e+01 0.0000000000000000e+00  -1.2981938025308953e-03 2.9143083669592922e+01 0.0000000000000000e+00  8.6474075304816681e-04 2.9603893216404565e+01 0.0000000000000000e+00  1.3321743875952779e-03 3.0051367837981644e+01 0.0000000000000000e+00  -8.2409178750059413e-03 3.0449916769898493e+01 0.0000000000000000e+00  -3.4699310965654832e-05 3.0735797211466583e+01 0.0000000000000000e+00  5.6217241318187513e-05 3.1093088493535753e+01 0.0000000000000000e+00  3.3641645472220461e-03 3.1379814116265440e+01 0.0000000000000000e+00  -6.5711643934904486e-03 3.1608924692737272e+01 0.0000000000000000e+00  6.5240096061514510e-03 3.1813621851671606e+01 0.0000000000000000e+00  -2.4661620048738743e-03 3.1951954551336343e+01 0.0000000000000000e+00  -5.7598581565540359e-03 3.2070689847171771e+01 0.0000000000000000e+00  1.4332595739073458e-03 3.2133920781057689e+01 0.0000000000000000e+00  1.2838460519204672e-03 3.2160224929533101e+01 0.0000000000000000e+00  6.0497955535289867e-03 3.2131447039887973e+01 0.0000000000000000e+00  -6.7309251744877728e-03 3.2070921576070987e+01 0.0000000000000000e+00  3.0948786974994962e-03 3.1963435520561763e+01 0.0000000000000000e+00  -5.5510163335179075e-03 3.1805798967982788e+01 0.0000000000000000e+00  7.8491318490498275e-03 3.1611089161936412e+01 0.0000000000000000e+00  -6.5687318923567193e-03 3.1354650554613357e+01 0.0000000000000000e+00  1.4397522789346804e-02 3.1122184131987417e+01 0.0000000000000000e+00  1.7402825713062304e-02 3.0737859179355027e+01 0.0000000000000000e+00  9.0042111197602692e-03 3.0460556779957930e+01 0.0000000000000000e+00  3.5448906378513924e-02 3.0007411527960045e+01 0.0000000000000000e+00  -1.6749661635159906e-02 2.9662037727944636e+01 0.0000000000000000e+00  -6.5851498562583630e-03 2.9144661304589000e+01 0.0000000000000000e+00  7.1563168029446589e-03 2.8622986188872648e+01 0.0000000000000000e+00  -1.5757927680154157e-03 2.8115057992406758e+01 0.0000000000000000e+00  -5.2053059065305506e-04 2.7562464824210156e+01 0.0000000000000000e+00  -2.2752535918918407e-03 2.6965036744406390e+01 0.0000000000000000e+00  2.7246853267396576e-03 2.6362605952501891e+01 0.0000000000000000e+00  -1.3050021516998906e-02 2.5720267881288091e+01 0.0000000000000000e+00  2.3446012508758208e-02 2.5062848563042888e+01 0.0000000000000000e+00  -1.6110065916885834e-02 2.4330069187470681e+01 0.0000000000000000e+00  1.8106942684213794e-02 2.3728143528609522e+01 0.0000000000000000e+00  4.4071417976308414e-03 2.3014721181901873e+01 0.0000000000000000e+00  -1.9898567098682894e-02 2.2245171901173695e+01 0.0000000000000000e+00  1.3465312977290773e-02 2.1487732375415693e+01 0.0000000000000000e+00  -1.6694476897844829e-02 2.0737197158307751e+01 0.0000000000000000e+00  8.2401249589626746e-03 1.9922373963478847e+01 0.0000000000000000e+00  -3.4454867155520514e-03 1.9131270165653451e+01 0.0000000000000000e+00  3.3260756146764110e-02 1.8473662121777370e+01 0.000