<?xml version="1.0"?>
<VTKFile type="UnstructuredGrid"  version="0.1"  >
<UnstructuredGrid>
<Piece  NumberOfPoints="2549" NumberOfCells="4928">
<Points>
<DataArray  type="Float64"  NumberOfComponents="3"  format="ascii">1.664937503007732 -0.04383978210196274 0  1.66173445509281 0.004442097835470914 0  1.654552748285341 0.05215354077439849 0  1.64571185705874 0.09996146461069536 0  1.633759551611507 0.1473764392976731 0  1.619310747363429 0.1945679479028893 0  1.60153661856786 0.2409931491686184 0  1.581852583659816 0.2871296521925942 0  1.556621335874108 0.3305228955928992 0  1.529904810535097 0.3721491953834863 0  1.504774372081078 0.4181194212121316 0  1.474762404329447 0.4598790315287477 0  1.443925221360054 0.5017887022646127 0  1.411011212851966 0.542174084345045 0  1.376552865344946 0.5816247912647613 0  1.340837928982476 0.6203411977614349 0  1.302315512934834 0.6561167538430148 0  1.264551702931805 0.6913376629255421 0  1.226574507357834 0.730883095489185 0  1.186347628674153 0.766856095519729 0  1.145828371061664 0.8038474482490032 0  1.103910326504776 0.8395924643300976 0  1.061125106466793 0.8750556904921829 0  1.017061539941275 0.9097034666987751 0  0.9713435636592872 0.9424803945818816 0  0.9252427252392255 0.9738983180905705 0  0.8780020370854623 1.004905990496685 0  0.829839811395559 1.03503716269129 0  0.7807992364287915 1.064412282873314 0  0.7307344696699121 1.092527576755614 0  0.6797090508665437 1.119349676905995 0  0.6277423205786253 1.144728085723589 0  0.5747259891121252 1.168098570910213 0  0.5209880425532716 1.18957193073532 0  0.4664579276799379 1.20962732550388 0  0.4111549062139098 1.227496562732178 0  0.3551920851010594 1.243347407837044 0  0.2986298927542708 1.256970295357253 0  0.2415568632006436 1.268335376386609 0  0.1840761178299586 1.277423347151332 0  0.1262181895322242 1.283895887248327 0  0.06822442041819676 1.287988117525471 0  0.01007932886093532 1.289927377799215 0  -0.04809401152101737 1.289351399581073 0  -0.1062112060370829 1.286341928668159 0  -0.1641563464778479 1.280806047232931 0  -0.2218283853421006 1.27282253552517 0  -0.2791073686675051 1.262211813409326 0  -0.3358961482438081 1.249480525435058 0  -0.3922106013530188 1.234244582853756 0  -0.4477088183010821 1.216265891579871 0  -0.502420194627229 1.19604534191825 0  -0.5562597296090702 1.173750186089715 0  -0.6091016378222039 1.149349496467524 0  -0.6610670918011531 1.123533883609814 0  -0.7118441622564369 1.095536699057797 0  -0.7616394732783144 1.067345812664117 0  -0.8107857554951777 1.037531303943611 0  -0.8583447778093145 1.005523451624022 0  -0.9047821462985812 0.9725931296118292 0  -0.9501774735413046 0.9389923102764628 0  -0.9942716209991751 0.9042136275935972 0  -1.037664136603245 0.8698081035320582 0  -1.079020941359717 0.8322979132217314 0  -1.120068590066901 0.7984689815066107 0  -1.160958944251005 0.7647184787922361 0  -1.200556792936694 0.7296428243029461 0  -1.239548909025896 0.6949194341654354 0  -1.27738388715606 0.6594190388317511 0  -1.315500842184951 0.6259278646798379 0  -1.353398102925767 0.5911720619163612 0  -1.389542646363239 0.5572049876727675 0  -1.428524015954115 0.5229786806081741 0  -1.456225443703973 0.4767621702671784 0  -1.487460062130102 0.4341268790701879 0  -1.513944490338497 0.3887621309047438 0  -1.538074993927876 0.3422573964184477 0  -1.556022588505956 0.2925579783495887 0  -1.574087646201008 0.244593548918974 0  -1.577787691100315 0.1897804262972363 0  -1.591496010479832 0.1444721563333375 0  -1.602258684565427 0.09707272517463293 0  -1.598104345455119 0.0482264315949715 0  -1.601806857592028 0.001312976117665219 0  -1.600926168420234 -0.04526074361257629 0  -1.603155870084037 -0.09189278230834687 0  -1.600789158910276 -0.1390550712415716 0  -1.605811700715855 -0.1883436892044976 0  -1.596258487536346 -0.2362372642766649 0  -1.583551171135452 -0.2821023751617765 0  -1.581211709997314 -0.3381496497128298 0  -1.563722351502284 -0.3867820389975221 0  -1.546158248550285 -0.4371962841243497 0  -1.522035899867015 -0.4840713013727317 0  -1.495142396811568 -0.5294658174997495 0  -1.464239891760826 -0.5722972715271993 0  -1.436473382671597 -0.6186707087096478 0  -1.397144430796201 -0.6531506713022871 0  -1.361061746988993 -0.6874546591198555 0  -1.322983235398135 -0.7222711852754272 0  -1.284936025428003 -0.7560240701066134 0  -1.247265586377721 -0.7919997861714805 0  -1.208486851479169 -0.8273085781760741 0  -1.169147583425616 -0.8631333906378024 0  -1.128691969920327 -0.8978718385237906 0  -1.087929740315549 -0.9329309957211086 0  -1.047235177482969 -0.9727819264421982 0  -1.004004463480443 -1.008786108390964 0  -0.9601063104042237 -1.045369012348017 0  -0.9148607325106154 -1.080865057878774 0  -0.8685181678395013 -1.115772553073701 0  -0.8209481378309953 -1.149723004342503 0  -0.7720493568643461 -1.182099770704728 0  -0.7221662836807167 -1.213630740157091 0  -0.6713645240938377 -1.245687234740793 0  -0.6187879153785447 -1.274189532878117 0  -0.5653444813642046 -1.301211606979745 0  -0.5107339199538475 -1.325791118146983 0  -0.4551516989612307 -1.348054285765531 0  -0.3987310306167265 -1.367946671616572 0  -0.3412339503447055 -1.38437744870472 0  -0.2833267537493107 -1.397978902501981 0  -0.2248880896143879 -1.409584513170221 0  -0.1659746077995612 -1.418225376290692 0  -0.1067399600189866 -1.424195106287689 0  -0.04728788923564198 -1.427286983357763 0  0.01224391612932882 -1.427541747150294 0  0.07172868878862852 -1.42488762650273 0  0.1310291778525204 -1.419300014077575 0  0.1899613136343861 -1.411014259865691 0  0.2484702528706012 -1.400280771895529 0  0.3064533193519647 -1.387062656565594 0  0.3638284470624699 -1.371512174545473 0  0.4204856705182933 -1.353631653742212 0  0.4763946030097099 -1.333820009095209 0  0.5314106673143292 -1.311672008358437 0  0.5855620991671973 -1.28869176336028 0  0.6390922053364102 -1.263661634298578 0  0.691315675507097 -1.236193831457707 0  0.7425519809777096 -1.20743325070732 0  0.7927438534042491 -1.177433251193988 0  0.8418551739047182 -1.14627362119138 0  0.8900193233009934 -1.114410490258081 0  0.9372178437003209 -1.081809582901645 0  0.9832669585118907 -1.048959350849826 0  1.028856363887794 -1.014666695771877 0  1.07277919753933 -0.9786383238276124 0  1.115391426304908 -0.9418776445669833 0  1.157105796027035 -0.9048876096312386 0  1.197399445618001 -0.8667166787407804 0  1.237361931684571 -0.8296010231893576 0  1.274939013106347 -0.788785792272345 0  1.312487373426595 -0.7527930763515803 0  1.350701168756869 -0.7161877660235236 0  1.386132622674856 -0.6766996295674681 0  1.420312324571541 -0.6365492563893614 0  1.452924860340756 -0.5954819515160893 0  1.483444623105447 -0.5529128119699732 0  1.513082170227872 -0.5105014376625662 0  1.537745319371248 -0.4638151782341035 0  1.564125727207306 -0.4217119075602998 0  1.588842960679734 -0.3777223209082853 0  1.607901332130288 -0.3309900571227762 0  1.624963535030678 -0.2840104850348296 0  1.638598176996813 -0.236299784065305 0  1.649492107662782 -0.1883766927686784 0  1.657296979538982 -0.1402198723848408 0  1.662939798637365 -0.09217493907679908 0  -0.09056959209372631 0.7657613428908097 0  0.6196538350694302 -0.7103998300610659 0  -0.7514002031629129 -0.6255649181195377 0  -0.06715962796345898 -0.8738766994593791 0  0.6156975388979563 0.5998112341656623 0  1.183742196290747 0.1956320503007233 0  -0.7640592215872939 0.5103219477067662 0  -1.25153251770012 -0.05035434601018206 0  1.188258086338851 -0.2913387435411637 0  -1.049747956053838 -0.4584075412931423 0  -0.8074512394560377 -0.06534120114598574 0  -0.4776565276419159 -0.2352352722166403 0  -1.06044966403447 0.3388538246694137 0  0.2935854697038725 -0.8520839399391692 0  0.1483829451448339 -0.2934374582706122 0  0.2573143821254544 0.7297103097765869 0  0.3540681594812037 0.1887487120775103 0  0.6768940305284931 -0.04956820935901159 0  -0.4077155064919809 -0.7714813904951777 0  -0.4442232551040036 0.6766630303611464 0  -0.271920678385904 0.2425342513910613 0  0.934268660357513 -0.4921795671013751 0  0.9299842331408443 0.3920171530208811 0  0.4231171602428104 -0.3238288677813039 0  0.03930986176950757 0.2377616664483678 0  -0.5422950179946696 0.1844608895741771 0  -0.1673983703798992 -0.2862619517405762 0  0.966855248384595 -0.04879280047630456 0  1.382250947896645 -0.04606123883079482 0  0.7772185233808777 -0.5986215684597206 0  0.7976354912284828 -0.2791806963891476 0  0.6399274141122123 -0.376861492016572 0  0.5487874749433369 -0.1831689668741633 0  0.5161014233713963 -0.5216481583823804 0  0.9442031639848472 -0.2689371367554701 0  0.8212558858160594 -0.04915126968780616 0  -0.9261776207219677 0.1447802499168662 0  -1.152267142676777 0.1412828097638892 0  -1.031940094477716 -0.05698120813000968 0  -0.9206703399460617 -0.2693915290992255 0  -1.147700826205476 -0.2506066469890634 0  -1.325694640374304 -0.3453421509688751 0  -1.416162012490351 -0.1609921458521729 0  -1.413592549771568 0.06451270710380097 0  -1.320360527306144 0.2475262779804729 0  -0.1177907386038124 -0.5794998579922638 0  -0.2816531243353184 -0.5339489461781116 0  -0.2385321330774844 -0.8277005537851578 0  -0.3219269543973853 -0.261794883453857 0  -0.4394027018801737 -0.5008554372889654 0  -1.239579343563509 -0.5412057135226651 0  -1.240578089981971 0.4352581441092431 0  0.3572834637110515 -0.585511901070122 0  0.2849913578725604 -0.3101101105501879 0  0.2160458951085666 -0.5752686259894757 0  -0.911691239616363 0.4205595655768573 0  -0.7775835408565042 0.2205861585513673 0  1.374072123910186 -0.3663565489327671 0  1.240218959823571 -0.5288316882792073 0  1.232917558230521 0.4328967851980398 0  1.368028437520543 0.2731894461284249 0  -0.7501226322475355 -0.9043794256302438 0  -0.9306420532203195 -0.7749047022850399 0  -0.9330853107288702 0.667261541814818 0  -0.7529956159256657 0.7889807482390826 0  0.7894851944056485 -0.8922150029384331 0  0.5962183074343204 -0.9992883320788994 0  0.589630137064163 0.8843098331657483 0  0.7821050392694162 0.7837455270834524 0  0.0223
[...]
<PointData  Vectors="f_48"> 
<DataArray  type="Float64"  Name="f_48"  NumberOfComponents="3" format="ascii">-1.8650632878186604e-09 -3.2030232908124783e-07 0.0000000000000000e+00  6.7836484647510162e-07 -5.6013384213389927e-07 0.0000000000000000e+00  7.1594619649105122e-07 -7.6533427220910239e-07 0.0000000000000000e+00  8.8742302414073309e-07 -9.8204252672475821e-07 0.0000000000000000e+00  1.1406144880166528e-06 -1.0247057322026058e-06 0.0000000000000000e+00  1.8253012679298753e-06 -9.7598320136693552e-07 0.0000000000000000e+00  1.5354079489088812e-06 -1.0880437053719928e-06 0.0000000000000000e+00  1.8858850996568352e-06 -1.6735868840214355e-06 0.0000000000000000e+00  4.4879071486316527e-06 3.1475027990521959e-06 0.0000000000000000e+00  2.4649981426524322e-06 -1.8474459007171074e-06 0.0000000000000000e+00  2.6372942239227179e-06 -1.9053454224657127e-06 0.0000000000000000e+00  4.6061925295239622e-06 3.7193584391200055e-06 0.0000000000000000e+00  3.3964975384077805e-06 -1.0387717837661709e-06 0.0000000000000000e+00  4.4667423036659633e-06 3.5070100382309527e-06 0.0000000000000000e+00  3.7425322128405630e-06 3.0468486179897087e-07 0.0000000000000000e+00  4.2755653032402061e-06 2.6731902709296336e-06 0.0000000000000000e+00  3.7166785671815270e-06 9.0628083468136991e-06 0.0000000000000000e+00  4.5938742495471158e-06 -1.4636829459128730e-06 0.0000000000000000e+00  4.3504362138864131e-06 1.0704048564042206e-06 0.0000000000000000e+00  3.8907657025164940e-06 6.1497538098264861e-06 0.0000000000000000e+00  4.4797265494056806e-06 -3.5244287171226522e-08 0.0000000000000000e+00  3.7315656213262171e-06 4.7917090217492767e-06 0.0000000000000000e+00  4.3662899212050593e-06 3.8903274693100090e-07 0.0000000000000000e+00  3.5778115982890629e-06 3.6537380058391089e-06 0.0000000000000000e+00  2.8911500893601648e-06 4.7867532688413993e-06 0.0000000000000000e+00  3.3450295939270876e-06 3.2905953687619536e-06 0.0000000000000000e+00  3.1941473886815168e-06 3.1657308727170716e-06 0.0000000000000000e+00  3.3161454714614934e-06 2.4582720197390228e-06 0.0000000000000000e+00  3.3781214809214930e-06 1.9715366919674581e-06 0.0000000000000000e+00  2.9390739353458096e-06 2.3191996896946375e-06 0.0000000000000000e+00  3.1837649307391277e-06 1.5873657370944517e-06 0.0000000000000000e+00  2.8561861684860793e-06 1.7673495430663774e-06 0.0000000000000000e+00  1.7615011118589841e-06 2.6097766981827943e-06 0.0000000000000000e+00  2.2118090669629306e-06 1.8078179528052469e-06 0.0000000000000000e+00  2.1022664952519803e-06 1.6491940467174532e-06 0.0000000000000000e+00  1.4534375824868126e-06 1.7707610421495000e-06 0.0000000000000000e+00  1.4879615233200572e-06 1.4707709729262643e-06 0.0000000000000000e+00  9.7377857139228296e-07 1.4294753833988416e-06 0.0000000000000000e+00  9.3789752974794596e-07 1.1323639791595705e-06 0.0000000000000000e+00  5.5922279580465353e-07 9.7649527275085859e-07 0.0000000000000000e+00  1.3916131967862377e-07 7.3389810807508375e-07 0.0000000000000000e+00  8.4183446757421067e-08 4.2294235039387959e-07 0.0000000000000000e+00  2.0252403512721534e-08 9.2958529298831071e-08 0.0000000000000000e+00  -4.8301538335517621e-08 -2.3190974685427817e-07 0.0000000000000000e+00  -1.2280908831568994e-08 -5.6109431278865949e-07 0.0000000000000000e+00  -1.6619940172404639e-08 -8.8577992227225954e-07 0.0000000000000000e+00  2.4233018739489832e-07 -1.1533826513193785e-06 0.0000000000000000e+00  3.7028664931246234e-07 -1.4207564303740029e-06 0.0000000000000000e+00  2.6327343523659093e-07 -1.8145354192003470e-06 0.0000000000000000e+00  1.1140793493438810e-06 -1.6771318598944666e-06 0.0000000000000000e+00  1.7199762256668909e-06 -1.4873289134675841e-06 0.0000000000000000e+00  1.4882426928927315e-06 -2.0146666123833548e-06 0.0000000000000000e+00  2.4679178362836011e-06 -1.3923154328514183e-06 0.0000000000000000e+00  1.8937046099226707e-06 -2.3008575163983553e-06 0.0000000000000000e+00  2.8618340646517696e-06 -1.5440474614717815e-06 0.0000000000000000e+00  3.0341656379661947e-06 -1.5043949050637468e-06 0.0000000000000000e+00  1.7494853176854084e-06 -4.1851178202522039e-06 0.0000000000000000e+00  3.2957454574837584e-06 -1.7941203593903119e-06 0.0000000000000000e+00  3.9589064675256790e-06 -2.7576916756999053e-07 0.0000000000000000e+00  3.0800504525043401e-06 -3.4480401462050345e-06 0.0000000000000000e+00  4.3151704688028151e-06 1.3612155447616579e-07 0.0000000000000000e+00  3.0857107115343282e-06 -5.1041197415177839e-06 0.0000000000000000e+00  4.3632937486082027e-06 1.3800127189290682e-07 0.0000000000000000e+00  4.9029524595026691e-06 1.5471796769494305e-06 0.0000000000000000e+00  3.1159226774064929e-06 -7.8311011972120330e-06 0.0000000000000000e+00  4.2498737269780032e-06 -1.5161140741491710e-06 0.0000000000000000e+00  4.1055229121383603e-06 -3.6697621830818557e-06 0.0000000000000000e+00  4.1103681628671262e-06 -1.9386591514796048e-06 0.0000000000000000e+00  4.4324469570698244e-06 -2.7461927654670239e-06 0.0000000000000000e+00  3.2747065611685826e-06 -7.5414885244157797e-06 0.0000000000000000e+00  4.5932476755024563e-06 3.1242496057331545e-07 0.0000000000000000e+00  1.4078814699833003e-06 -1.1870897860833098e-05 0.0000000000000000e+00  6.2291244823588191e-06 1.8201098500416085e-06 0.0000000000000000e+00  -1.2998828515269155e-06 5.7290961778061796e-06 0.0000000000000000e+00  6.6243622464273452e-06 -4.7742375438241845e-06 0.0000000000000000e+00  2.4144928313699733e-06 -4.9577375425717367e-07 0.0000000000000000e+00  1.8333667273685703e-06 2.3244855736363826e-06 0.0000000000000000e+00  4.5644622270673361e-06 -2.2850737589053853e-06 0.0000000000000000e+00  -4.1756672577206559e-07 2.8034051476773814e-06 0.0000000000000000e+00  -8.0637707394828522e-07 1.8000153741433641e-06 0.0000000000000000e+00  3.1287855448585523e-06 -9.0370921358140012e-07 0.0000000000000000e+00  -2.3127876948313321e-06 1.8543530434636199e-06 0.0000000000000000e+00  -1.2746248111063559e-06 6.5449006466499413e-07 0.0000000000000000e+00  7.9112413658673668e-07 5.4965196527907346e-07 0.0000000000000000e+00  -1.6264547241661673e-07 5.2462453956540391e-07 0.0000000000000000e+00  -1.6709073040423424e-07 2.4728413507311805e-07 0.0000000000000000e+00  4.3036707139417994e-07 2.7679879824525534e-07 0.0000000000000000e+00  -5.8609599856982074e-07 -2.5318557920816545e-07 0.0000000000000000e+00  7.7964497300254893e-07 1.0116914138017695e-07 0.0000000000000000e+00  -1.7545694171877848e-07 -5.1799733561730049e-07 0.0000000000000000e+00  -3.1953524625684387e-07 -1.4520973076964488e-06 0.0000000000000000e+00  2.5889610721216690e-06 1.1842508284229866e-06 0.0000000000000000e+00  1.2369394559767423e-06 -1.3990080318853488e-06 0.0000000000000000e+00  1.8717808955309260e-06 5.8007745634437218e-07 0.0000000000000000e+00  4.7620837649264682e-06 3.4918202746730213e-06 0.0000000000000000e+00  -9.9476496573963791e-07 -4.0286818904846725e-06 0.0000000000000000e+00  4.7791964091573236e-06 -1.1414538707468984e-06 0.0000000000000000e+00  1.1658874589413168e-06 8.5441573444819039e-06 0.0000000000000000e+00  3.4557034760901337e-06 -1.0163566097875252e-07 0.0000000000000000e+00  2.5253797450959084e-06 6.0595775683550444e-06 0.0000000000000000e+00  3.4117935753180162e-06 2.0717281641239782e-06 0.0000000000000000e+00  3.1373302953143487e-06 1.5666785661245093e-06 0.0000000000000000e+00  3.1800103888952220e-06 3.0474682204998697e-06 0.0000000000000000e+00  3.2837999355198877e-06 8.6823343407566096e-07 0.0000000000000000e+00  2.4901652415388378e-06 6.4436925928217499e-06 0.0000000000000000e+00  3.7165352622181264e-06 -1.8080362863043703e-06 0.0000000000000000e+00  3.3230794471732954e-06 -8.6184277396173179e-07 0.0000000000000000e+00  2.3072809156328287e-06 4.6864129931781138e-06 0.0000000000000000e+00  3.2758583170950114e-06 -3.8956042347276276e-07 0.0000000000000000e+00  2.4226102892099763e-06 2.5425590543200793e-06 0.0000000000000000e+00  2.8517118780698254e-06 5.9738918306808115e-07 0.0000000000000000e+00  2.5177215856397516e-06 1.2371867919951411e-06 0.0000000000000000e+00  1.6531564287998780e-06 2.9747612114158770e-06 0.0000000000000000e+00  3.2266220172446848e-06 -1.1698573447745829e-06 0.0000000000000000e+00  2.8716184550364740e-06 4.4613644028800693e-08 0.0000000000000000e+00  1.1442267625431237e-06 1.9567746923353189e-06 0.0000000000000000e+00  2.5556479261423373e-06 1.8185496606118857e-07 0.0000000000000000e+00  1.1871916360587483e-06 1.4468496499788049e-06 0.0000000000000000e+00  1.9235487465665078e-06 5.2320514014371125e-07 0.0000000000000000e+00  1.2384351894881855e-06 1.0498444684300798e-06 0.0000000000000000e+00  -5.4125854092521896e-08 1.5427961647042742e-06 0.0000000000000000e+00  4.7671824903761557e-07 1.0210316291346210e-06 0.0000000000000000e+00  3.8239675589688133e-07 8.4933056312820550e-07 0.0000000000000000e+00  5.5067382942936852e-08 6.9047317846951545e-07 0.0000000000000000e+00  8.3970744234126328e-08 4.5290018567926470e-07 0.0000000000000000e+00  -3.1966375489132622e-08 2.2240424858143545e-07 0.0000000000000000e+00  7.2616892789306255e-09 -1.8682475785852738e-08 0.0000000000000000e+00  1.6590640810634542e-08 -2.6399114939068215e-07 0.0000000000000000e+00  3.1863877325140419e-07 -4.5632210791600421e-07 0.0000000000000000e+00  4.4923586137429029e-07 -6.5833425564153902e-07 0.0000000000000000e+00  6.6182635558718913e-07 -8.3853456289467454e-07 0.0000000000000000e+00  7.7466185993652060e-07 -1.0318914476717910e-06 0.0000000000000000e+00  1.2378026516615899e-06 -1.0406632800027319e-06 0.0000000000000000e+00  1.0397350883734371e-06 -1.4124219869278528e-06 0.0000000000000000e+00  1.7912458230173163e-06 -1.1414196503331513e-06 0.0000000000000000e+00  1.7571999071564125e-06 -1.3947679075005930e-06 0.0000000000000000e+00  8.5358196262493357e-07 -2.7085252817777864e-06 0.0000000000000000e+00  2.4783242344087096e-06 -1.1361907243178138e-06 0.0000000000000000e+00  2.7386087113238455e-06 -8.5278882668993526e-07 0.0000000000000000e+00  2.3647314073489239e-06 -1.8829100847794352e-06 0.0000000000000000e+00  2.7503970360929820e-06 -1.4693728191008137e-06 0.0000000000000000e+00  2.6699901519221561e-06 -2.0207190957979227e-06 0.0000000000000000e+00  2.6582648940097053e-06 -2.4592486018910457e-06 0.0000000000000000e+00  2.6542863181691422e-06 -2.9270754833784437e-06 0.0000000000000000e+00  2.4140447451431910e-06 -3.9747421783098715e-06 0.0000000000000000e+00  2.9323002909037192e-06 -2.9645008265321954e-06 0.0000000000000000e+00  3.4154692600638036e-06 -6.1199016340894319e-07 0.0000000000000000e+00  3.0774265663096236e-06 -3.9824713288366481e-06 0.0000000000000000e+00  3.5125920256653933e-06 -1.0541781176096466e-07 0.0000000000000000e+00  3.2358913892780917e-06 -5.2134635084169675e-06 0.0000000000000000e+00  3.4222856033373713e-06 -5.4646292734110341e-07 0.0000000000000000e+00  3.6145438540750682e-06 1.0211583602160762e-06 0.0000000000000000e+00  3.1000014574160152e-06 -7.2845272752103016e-06 0.0000000000000000e+00  3.3951461538698176e-06 -1.9801869496131270e-06 0.0000000000000000e+00  2.9526708352579714e-06 -4.6672190423944892e-07 0.0000000000000000e+00  3.5171527455402520e-06 -2.6799065721946965e-06 0.0000000000000000e+00  2.5980766202230387e-06 6.7942329238258827e-07 0.0000000000000000e+00  3.5471822246743801e-06 -2.7525992913787235e-06 0.0000000000000000e+00  1.8722491885569085e-06 1.4526482523931730e-06 0.0000000000000000e+00  1.8312534059542317e-06 1.1972277487383322e-06 0.0000000000000000e+00  3.1543985438219711e-06 -2.0700773875458896e-06 0.0000000000000000e+00  1.2124349027618926e-06 1.1726304850236991e-06 0.0000000000000000e+00  9.8020527854719645e-07 6.7336675226872308e-07 0.0000000000000000e+00  1.0395458717404163e-06 5.8583162630941597e-07 0.0000000000000000e+00  5.1190403291406516e-07 5.5514397266078940e-07 0.0000000000000000e+00  3.0340570475758258e-07 3.9116153130632953e-07 0.0000000000000000e+00  2.0112398980755794e-07 1.8228548704562727e-07 0.0000000000000000e+00  -4.0563847649212900e-07 -4.9669430282805174e-08 0.0000000000000000e+00  2.0959339975051611e+02 -8.1476846873028705e+02 0.0000000000000000e+00  3.7989982390764258e+03 -4.8384323341559428e+02 0.0000000000000000e+00  2.9842096381752594e+03 -6.7061808703230190e+02 0.0000000000000000e+00  5.8358517551284272e+01 2.8983994415338651e+02 0.0000000000000000e+00  5.3287986848266128e+03 1.2155354829034920e+03 0.0000000000000000e+00  1.6112569527591456e+03 -2.2299231733270981e+03 0.0000000000000000e+00  5.0674961664628227e+03 6.9518578266048189e+02 0.0000000000000000e+00  1.6255707465206580e+01 7.7567852940891635e+02 0.0000000000000000e+00  6.1921639580495889e+02 1.0251167481503358e+03 0.0000000000000000e+00  1.6307864499108832e+03 -1.2694810477561880e+03 0.0000000000000000e+00  5.4591421646958459e+01 1.4808302232631602e+03 0.0000000000000000e+00  1.6534837135172246e+01 -6.2669245409265180e+01 0.0000000000000000e+00  3.0910221899862458e+03 2.1953589496540685e+03 0.0000000000000000e+00  1.7120658183793719e+03 -2.1574994915258139e+03 0.0000000000000000e+00  6.1934820957452644e+02 -1.8529189858657577e+02 0.0000000000000000e+00  1.7207984057022577e+03 2.8880378494922402e+03 0.0000000000000000e+00  3.3160513474616860e+03 -7.9222554815093963e+02 0.0000000000000000e+00  1.0540299789380481e+02 -1.4473627897914662e+03 0.0000000000000000e+00  2.4329267806116823e+03 1.2655934701356923e+03 0.0000000000000000e+00  3.7535086228233536e+03 -2.1716315227571631e+03 0.0000000000000000e+00  2.9241865211936615e+03 -1.2958757554519948e+02 0.0000000000000000e+00  2.4384580373743779e+03 1.4925488133422566e+03 0.0000000000000000e+00  4.2591656199144509e+03 -2.0501162601342749e+03 0.0000000000000000e+00  1.3194554622337439e+03 7.8666977679985939e+02 0.0000000000000000e+00  -2.8403512061060461e+00 7.9604472936636330e+02 0.0000000000000000e+00  3.1278541846261501e+03 2.4056146406511366e+03 0.0000000000000000e+00  -1.1484226518631834e+02 3.9137457582651618e+00 0.0000000000000000e+00  6.1990620779505569e+01 -1.2050288078141073e+03 0.0000000000000000e+00  1.1900047007978580e+01 -5.1732112651353100e+02 0.0000000000000000e+00  3.4141561068107922e+03 8.5807021183424683e+02 0.0000000000000000e+00  6.8566810024254369e+02 1.1131320637303379e+03 0.0000000000000000e+00  1.7383315111784214e+03 1.3383806758012727e+03 0.0000000000000000e+00  6.4508568460150670e+01 2.2872780978896077e+02 0.0000000000000000e+00  3.1045353003886376e+03 3.4653138382297647e+02 0.0000000000000000e+00  5.4651117701239150e+02 1.0191605716443958e+03 0.0000000000000000e+00  8.6284080030422601e+01 -1.3622194171572348e+03 0.0000000000000000e+00  1.7351247933539123e+03 2.8199091690858518e+03 0.0000000000000000e+00  1.1482120009810726e+03 2.1863549646872143e+03 0.0000000000000000e+00  3.8522751613659103e+01 1.1891528004962224e+03 0.0000000000000000e+00  3.5395565104774278e+02 -7.0311590245975276e+02 0.0000000000000000e+00  2.7278803873682011e+02 -6.2267850699015867e+02 0.0000000000000000e+00  5.5298466758228687e+02 -7.5498175260614119e+02 0.0000000000000000e+00  3.8972152547327896e+00 -4.2323446772446388e+01 0.0000000000000000e+00  1.9533630005878922e+02 8.1680034045791399e+02 0.0000000000000000e+00  1.2203709051658411e+03 1.4922008211532248e+03 0.0000000000000000e+00  3.0345141439048643e+02 4.6152784606966367e+02 0.0000000000000000e+00  1.4852677081699055e+03 4.9771456078301657e+02 0.0000000000000000e+00  1.0786064432753058e+03 1.3825724425915391e+03 0.0000000000000000e+00  2.3188061694090081e+01 -5.2111429979806154e+01 0.0000000000000000e+00  2.0589446318865962e+03 -2.7104874920981513e+02 0.0000000000000000e+00  1.4733074459691957e+03 -6.8985495573773665e+02 0.0000000000000000e+00  2.2838825047537603e+03 9.9311610225214883e+02 0.0000000000000000e+00  2.8006069790047318e+03 -1.1084771068319010e+03 0.0000000000000000e+00  1.0920159610164942e+03 3.0396593108066253e+02 0.0000000000000000e+00  1.5684751354146319e+03 -1.5760135377117772e+03 0.0000000000000000e+00  4.2757330603738128e+03 1.8065667960632186e+03 0.0000000000000000e+00  3.0269560356271509e+03 2.9150396224952588e+03 0.0000000000000000e+00  7.6956635579585361e+02 8.0956981697062474e+02 0.0000000000000000e+00  1.6676445471794282e+03 8.7551638151122802e+02 0.0000000000000000e+00  2.5208089743055425e+03 -1.1430443799617644e+03 0.0000000000000000e+00  1.3756994605127916e+03 -1.2981356936220068e+03 0.0000000000000000e+00  2.5126923756764404e+03 5.2808926693902174e+02 0.0000000000000000e+00  2.5011902375257869e+03 -1.3683546955084768e+02 0.0000000000000000e+00  3.6058953874014924e+03 -4.6579684570293679e+01 0.0000000000000000e+00  3.4712171958627223e+03 -9.6970321661769481e+02 0.0000000000000000e+00  2.8874328795146889e+03 -6.5129805104334616e+02 0.0000000000000000e+00  2.3828715380186700e+03 -1.3939108753317348e+03 0.0000000000000000e+00  2.9339837221314669e+03 1.9761488206047659e+03 0.0000000000000000e+00  3.7081913928586764e+03 1.1074915223519515e+03 0.0000000000000000e+00  2.9990280231668409e+00 -2.2827286992885510e+02 0.0000000000000000e+00  3.2713206572015883e+02 8.4723359007824854e+02 0.0000000000000000e+00  4.5026005585374924e+02 -1.1580463188915749e+03 0.0000000000000000e+00  -4.9447691642537794e+00 1.8984281923670790e+02 0.0000000000000000e+00  3.1606427693153350e+03 -1.6983631167471108e+03 0.0000000000000000e+00  1.5651522449448337e+03 -2.3618946905010421e+03 0.0000000000000000e+00  4.1664843453286021e+03 -2.2160843500477908e+03 0.0000000000000000e+00  5.0994174221997901e+03 3.9764671363602321e+02 0.0000000000000000e+00  1.7389463305650820e+03 -1.0104909777066632e+03 0.0000000000000000e+00  -1.4103327686369315e+02 6.6168214645848764e+02 0.0000000000000000e+00  8.7177301958215753e+02 -1.0632731111690489e+03 0.0000000000000000e+00  2.2002843502242249e+03 1.1595346323982794e+03 0.0000000000000000e+00  4.2782299573447426e+02 -2.2841627385036460e+02 0.0000000000000000e+00  2.0388091734184235e+02 -9.3021162921596499e+02 0.0000000000000000e+00  2.1040494325744521e+03 -4.2232824074501264e+02 0.0000000000000000e+00  3.1299491944419474e+03 4.8152020529677333e+02 0.0000000000000000e+00  2.3476663510992598e+03 -1.1940362448123869e+03 0.0000000000000000e+00  2.5281803694782029e+03 -2.9554853800754377e+03 0.0000000000000000e+00  5.3318300635728119e+03 -7.5605700980137635e+02 0.0000000000000000e+00  1.9997941999858824e+03 -2.8299701383317620e+03 0.0000000000000000e+00  3.4587625839819975e+03 2.4915687557956994e+03 0.0000000000000000e+00  3.9799333076927210e+03 2.7755073707579927e+03 0.0000000000000000e+00  7.7337026830955452e+01 -8.8001328395853989e+02 0.0000000000000000e+00  3.1833025820006554e+02 -1.3402370924050772e+03 0.0000000000000000e+00  3.8111796227550458e+03 -1.4967132658320788e+03 0.0000000000000000e+00  1.4615623566932679e+03 -1.7724245442982947e+03 0.0000000000000000e+00  1.7900168147817762e+03 -2.2826027424199488e+03 0.0000000000000000e+00  4.1480230996827856e+01 -1.0395623635512618e+03 0.0000000000000000e+00  -1.0335715621615036e+02 -2.8612187740106805e+02 0.0000000000000000e+00  1.4885248905475980e+03 -1.6063670053211795e+03 0.0000000000000000e+00  4.6415244394298702e+02 -1.1668161698027104e+03 0.0000000000000000e+00  4.5920715804033676e+02 1.4276203200452578e+03 0.0000000000000000e+00  1.6931737363531581e+03 2.1536988869747511e+03 0.0000000000000000e+00  3.9946524991334707e+02 1.9588609892039662e+02 0.0000000000000000e+00  9.6326597023015063e+02 2.3192706634867977e+03 0.0000000000000000e+00  1.8167509142486159e+02 1.3630519570305826e+03 0.0000000000000000e+00  1.1759108280852104e+03 1.3427312007605308e+03 0.0000000000000000e+00  2.1353577676724508e+03 1.1267093278079458e+03 0.0000000000000000e+00  3.1405979410642203e+03 2.8069200556870373e+02 0.0000000000000000e+00  2.7470371315353268e+03 -1.6350567012336994e+03 0.0000000000000000e+00  1.5264907743146464e+03 -1.8122011285375420e+03 0.0000000000000000e+00  4.9989647672031615e+03 -8.5994932054427829e+02 0.0000000000000000e+00  1.2199348538839461e+03 2.6659713717569925e+03 0.0000000000000000e+00  4.6973496142598024e+03 1.6919013287624141e+03 0.0000000000000000e+00  3.3349490468915874e+00 -2.5631103996767979e+02 0.0000000