<?xml version="1.0"?>
<VTKFile type="UnstructuredGrid"  version="0.1"  >
<UnstructuredGrid>
<Piece  NumberOfPoints="2549" NumberOfCells="4928">
<Points>
<DataArray  type="Float64"  NumberOfComponents="3"  format="ascii">1.686723753004033 -0.04729770482256866 0  1.683411945355351 0.001683851298948706 0  1.675845585543184 0.05004307459781794 0  1.666491392323391 0.09845940945120399 0  1.653918543609889 0.1464270038776759 0  1.638609933418429 0.1940796376517869 0  1.619970419850857 0.240887017843121 0  1.599052476404591 0.2872578480586444 0  1.572933362684395 0.3309279364173115 0  1.544483907520582 0.3722618237624128 0  1.517697443038923 0.4179290121214739 0  1.486524966890855 0.4596291943879935 0  1.453916723341371 0.5009153450397683 0  1.419280608294187 0.5405755575797269 0  1.383143447771588 0.5791258999441007 0  1.345849040684664 0.617075666981149 0  1.305803382178574 0.6518763682021037 0  1.265475445375295 0.6849688776171087 0  1.225940223466115 0.7230025238659672 0  1.184446468829088 0.7580918048712784 0  1.142101760032773 0.7931777335921226 0  1.098608203217613 0.8271934797315741 0  1.05415060932446 0.8605361135815238 0  1.008766316285781 0.8933229940537145 0  0.9619453344742565 0.9244402328860408 0  0.9142175351139396 0.9529916565618801 0  0.8660577706156832 0.9820893538495672 0  0.8170462698171043 1.010343274808972 0  0.7671748532525582 1.037619837538967 0  0.7164366310534254 1.063723030694053 0  0.6648481391167529 1.088481478512644 0  0.6124555049419114 1.111857671586829 0  0.5591724438858141 1.13327672331977 0  0.5052955055920584 1.15278760746932 0  0.450782323137809 1.171071144030036 0  0.3956547326911048 1.187330586741818 0  0.339988196858802 1.201689657152462 0  0.2838557651401231 1.214033604504229 0  0.2273260979710576 1.224322317540376 0  0.1704826981457519 1.23260456888371 0  0.1133431932976508 1.238540885353054 0  0.05610903147378 1.242397282111473 0  -0.001256191344457183 1.244407772632988 0  -0.05866556612395717 1.244209569712634 0  -0.1160566611372797 1.241871436719263 0  -0.1733488901042043 1.237292415146543 0  -0.2304562459978172 1.23049572039796 0  -0.2872951014660261 1.221322803052302 0  -0.3437745854476209 1.21026011893977 0  -0.3999199550865908 1.196801464544925 0  -0.4554335618020262 1.180712664878847 0  -0.5102979707211835 1.162454699830698 0  -0.5644147261045384 1.142078169965163 0  -0.6177082743119461 1.119699544298919 0  -0.6701291009717988 1.095653423658436 0  -0.7215870035410855 1.069649501751506 0  -0.7722872515604086 1.043726316810182 0  -0.8223007766690658 1.015788010915272 0  -0.8709447374558524 0.9857291165290383 0  -0.9186051168105082 0.9548026261182688 0  -0.965249774779292 0.9230023874839139 0  -1.010801796894528 0.890140101129022 0  -1.055422866655098 0.8571259932500879 0  -1.0984990429037 0.8216547860064561 0  -1.141310380007059 0.7896056856926426 0  -1.18423176010315 0.7578432683723809 0  -1.225577039716157 0.7242268053365134 0  -1.266345104248066 0.6908442479284906 0  -1.306403602462082 0.6572216737730581 0  -1.34625474440311 0.6243667394381012 0  -1.385197897211933 0.5903624441346689 0  -1.426560148443622 0.5613827579815814 0  -1.465639750799544 0.5256278876351257 0  -1.496506194013294 0.4798611104580521 0  -1.52826165244633 0.4367844035334563 0  -1.555955627494813 0.390900918345905 0  -1.581264746038778 0.3441128690411694 0  -1.600778897562537 0.2938970879968567 0  -1.618657473105146 0.2449887972527599 0  -1.624887219741705 0.1896088831405475 0  -1.638425600898711 0.1432818244890361 0  -1.648791296117982 0.09503705552232933 0  -1.64671165497456 0.04518821793458196 0  -1.649816706518936 -0.00256941577715375 0  -1.648991287190848 -0.0499525647713082 0  -1.651274817457436 -0.09741182907047731 0  -1.649357692673082 -0.1454154366772228 0  -1.653154442827877 -0.1957469068170365 0  -1.643744672230993 -0.2444936241150459 0  -1.631225867689471 -0.2913828753045925 0  -1.626688857862996 -0.34819523559166 0  -1.609334880687788 -0.3978053466141048 0  -1.590325534338682 -0.4488683239806163 0  -1.565069302119851 -0.4961458540048184 0  -1.53723574686194 -0.5423215631341896 0  -1.505012536011552 -0.5852591541921401 0  -1.474155863468976 -0.6311744160939031 0  -1.435542164743759 -0.6680645075013323 0  -1.393861355540946 -0.6968116961241664 0  -1.354982195173553 -0.7312020084202737 0  -1.315145574059137 -0.7643177492716392 0  -1.275233022030695 -0.798434539613303 0  -1.234658214726833 -0.8324307592597477 0  -1.193580898320694 -0.8668451821381662 0  -1.150985186807628 -0.8995574074276002 0  -1.108674917467399 -0.9331770803596628 0  -1.066095608767608 -0.9709058197932363 0  -1.021770630182577 -1.005733443678597 0  -0.9764965757497727 -1.040647395123765 0  -0.9300815464580163 -1.074570161239799 0  -0.8826062318715047 -1.107767293560011 0  -0.834070063474086 -1.140137365662247 0  -0.7842529260415383 -1.170769035814404 0  -0.733724523113931 -1.200836513557502 0  -0.6819704238682143 -1.230959597462593 0  -0.6289395115535963 -1.257955064990823 0  -0.5748626164070426 -1.283077549135664 0  -0.5198100032863802 -1.30574212172326 0  -0.4638850080881622 -1.32596364549315 0  -0.4072207017943187 -1.343748365524058 0  -0.3497657002633023 -1.358252232251387 0  -0.2920446740435966 -1.369943157831348 0  -0.2339309932459936 -1.379912249521044 0  -0.1754982534678424 -1.387220293205792 0  -0.1168356000401743 -1.392040255294034 0  -0.05804406576115579 -1.394258640934527 0  0.0007735972711286299 -1.393897267015491 0  0.05951854364168198 -1.390910180167436 0  0.1180802479494094 -1.38527465455898 0  0.1763184417496471 -1.377231970428795 0  0.2341919854929025 -1.366991869505163 0  0.2916327731840911 -1.354540759174483 0  0.3485660635905669 -1.339961247533419 0  0.4049168570065408 -1.323294997643979 0  0.4606169734841441 -1.304778561289997 0  0.5155976703106542 -1.284175818839361 0  0.5699015747291931 -1.263035212048808 0  0.6236786136546945 -1.239754320985079 0  0.676353882035633 -1.214149138559689 0  0.728158070995605 -1.187302299757793 0  0.7790398859342027 -1.159184942990721 0  0.8289938201708335 -1.129994327558898 0  0.878036596144027 -1.099926233512862 0  0.9261945445119203 -1.069166648775308 0  0.9738974228288931 -1.03903631931179 0  1.020639149952275 -1.006357483817067 0  1.065927406689434 -0.9721306297552729 0  1.110252136767749 -0.9374082099234644 0  1.153590272201301 -0.902093880074514 0  1.195741236734045 -0.8657434151990033 0  1.237030289175438 -0.8295052819051644 0  1.276261212277796 -0.7901897211384107 0  1.316325134425245 -0.7561477813545811 0  1.356167449293757 -0.7205453150162253 0  1.39321371174707 -0.6817824601093957 0  1.429098410213341 -0.6424757937214157 0  1.46345926345374 -0.6020831422805808 0  1.495755183503157 -0.5600732733489621 0  1.526604163535417 -0.5177054325804621 0  1.552909912802183 -0.4712473942940292 0  1.580981240073879 -0.4293559107133409 0  1.606599221540632 -0.3850548908619079 0  1.626857683480021 -0.3380349205674955 0  1.644755018521661 -0.2906213912041146 0  1.659185573079519 -0.2423976655056513 0  1.670632387464042 -0.193874739257485 0  1.67887266544203 -0.1450742924197026 0  1.6846967972815 -0.09633210400941558 0  -0.1037967599690029 0.7358130072628263 0  0.6168841792763634 -0.6980564168494894 0  -0.7776401630688663 -0.620709062880508 0  -0.08092820600334695 -0.8550481441371642 0  0.6133751410875083 0.5788697347202411 0  1.196742065153336 0.19004442109188 0  -0.7903077129564883 0.4950671364054927 0  -1.293660765705489 -0.05530049769938956 0  1.201441908206218 -0.2933015902231462 0  -1.084674701880056 -0.4605748012383961 0  -0.8398676778869627 -0.07026883954070506 0  -0.5018568874324245 -0.235939755647971 0  -1.095495123104438 0.3311824915147176 0  0.2845127551526873 -0.8332605271936762 0  0.1392438325639004 -0.2909017099201334 0  0.2485899759623597 0.7011124986684329 0  0.3500534826824594 0.1769603046075772 0  0.6807834454475504 -0.05382378709070597 0  -0.4266394469801363 -0.7589229062384542 0  -0.4628061748714848 0.6528045019253791 0  -0.2906822468844302 0.2289049573724155 0  0.9402439658912679 -0.4885964032266444 0  0.9359729209836263 0.3804868112595686 0  0.4203182575305419 -0.3205333497722003 0  0.02783922569403878 0.2237796007771173 0  -0.5676406259000087 0.1736084568972749 0  -0.1840882507058951 -0.2845487317153592 0  0.9770302914361362 -0.05272783003106489 0  1.400001089399852 -0.04970614153693504 0  0.7787689194932528 -0.590849642347778 0  0.8033899082991274 -0.2783961344741211 0  0.6415811442342677 -0.3729439415042338 0  0.5494705075757939 -0.1839909701153102 0  0.5139112889992766 -0.5132271841750975 0  0.9530440578854066 -0.2692016481999565 0  0.8283607627084248 -0.05323776305445187 0  -0.9606166810854468 0.1372992605444204 0  -1.191585624997516 0.1359051787949488 0  -1.069497524212137 -0.06198296926761475 0  -0.9549974022085179 -0.2718303475823532 0  -1.187101638663804 -0.2551705471793199 0  -1.367682617175308 -0.3523749977597921 0  -1.46122169878427 -0.1671355220835486 0  -1.458404991633222 0.06092718313066016 0  -1.361753087556736 0.2446033154901101 0  -0.1329645184106441 -0.5691780123810837 0  -0.3002309592779931 -0.5259134429031774 0  -0.2547055586117481 -0.8117098207091056 0  -0.3423433274973657 -0.2612632635849301 0  -0.4613596619277771 -0.4948847843134365 0  -1.276648254496902 -0.5472584246720813 0  -1.277201143542821 0.4313240041144153 0  0.3514475546311179 -0.5745191951062846 0  0.2790437371364408 -0.3070465963684937 0  0.2075096962232617 -0.5642623278171146 0  -0.942332513761962 0.4093096334847639 0  -0.8080724010748717 0.2106673183266926 0  1.38920633632736 -0.370362479132872 0  1.250154971434525 -0.5301877710857 0  1.242526461129782 0.4266869967022708 0  1.382781928298637 0.2698220200782107 0  -0.7701832810435142 -0.8954450807035608 0  -0.9559853327576067 -0.7714936418517873 0  -0.9579488129571343 0.6533217794764354 0  -0.7725415620953051 0.7688005994058588 0  0.7847275328567007 -0.8786903226929348 0  0.5876940748574935 -0.9797832314410893 0  0.5815811661745249 0.8559682404024771 0  0.7775990509474373 0.761898090457429 0  0.009820905951750423 -
[...]
<PointData  Vectors="f_48"> 
<DataArray  type="Float64"  Name="f_48"  NumberOfComponents="3" format="ascii">3.6304041688486196e-09 -1.6780293079569200e-07 0.0000000000000000e+00  4.2455365805865762e-07 -4.3030458338192073e-07 0.0000000000000000e+00  6.7283315733204045e-07 -6.1803785065922608e-07 0.0000000000000000e+00  7.7842892865610457e-07 -8.5191557355978989e-07 0.0000000000000000e+00  1.1369552168605074e-06 -8.6601383181511784e-07 0.0000000000000000e+00  1.6611480722238307e-06 -8.7184820216822636e-07 0.0000000000000000e+00  1.6518349938627551e-06 -8.4381725692054090e-07 0.0000000000000000e+00  1.7449836250473739e-06 -1.5485905526715840e-06 0.0000000000000000e+00  4.0475443688820618e-06 3.0148331202436331e-06 0.0000000000000000e+00  2.9741827392468398e-06 -7.3415453113008236e-07 0.0000000000000000e+00  2.3520543896030150e-06 -2.0595044250110798e-06 0.0000000000000000e+00  4.2456373500739729e-06 3.7399986397146299e-06 0.0000000000000000e+00  3.4604360401362624e-06 3.2501749052172056e-09 0.0000000000000000e+00  4.0688857691896520e-06 3.7245238064213860e-06 0.0000000000000000e+00  3.6219096147656673e-06 1.3262317283066177e-06 0.0000000000000000e+00  3.9547785165681179e-06 1.7888196969485734e-06 0.0000000000000000e+00  2.3981493586083887e-06 9.7950743995909855e-06 0.0000000000000000e+00  4.6739152927262548e-06 2.0344601313269455e-06 0.0000000000000000e+00  3.9898411924807952e-06 -8.6341710670704325e-07 0.0000000000000000e+00  3.1969263214819295e-06 6.9682568943353085e-06 0.0000000000000000e+00  3.8948309213620102e-06 1.8984653693716058e-06 0.0000000000000000e+00  3.0442603706499303e-06 5.2056594214334446e-06 0.0000000000000000e+00  3.4620908165746788e-06 3.0951064119130116e-06 0.0000000000000000e+00  3.4722785664362543e-06 2.3406614166038478e-06 0.0000000000000000e+00  1.5758538943485747e-06 6.5324816503097090e-06 0.0000000000000000e+00  1.7668849821794462e-06 5.5838320076688337e-06 0.0000000000000000e+00  3.2001248197647348e-06 2.3337129641704038e-06 0.0000000000000000e+00  2.1257255643726647e-06 3.8582252068249685e-06 0.0000000000000000e+00  2.4638025767873138e-06 2.8203384381790554e-06 0.0000000000000000e+00  2.0043223276312808e-06 3.0761854583966823e-06 0.0000000000000000e+00  2.0866404080856622e-06 2.5134762746167233e-06 0.0000000000000000e+00  1.9090352217408265e-06 2.3659675635743896e-06 0.0000000000000000e+00  7.7840829788303900e-07 3.0520718601572432e-06 0.0000000000000000e+00  1.1659877732453540e-06 2.2903005672127878e-06 0.0000000000000000e+00  1.2677502370926285e-06 1.8736037100458919e-06 0.0000000000000000e+00  6.4052143266505043e-07 1.8935833066318071e-06 0.0000000000000000e+00  7.2176679710668979e-07 1.4911531682405302e-06 0.0000000000000000e+00  3.7454322561783072e-07 1.2987746191443011e-06 0.0000000000000000e+00  3.9587407760769604e-07 9.2735065800871857e-07 0.0000000000000000e+00  1.5249958693694833e-07 6.6399579857377993e-07 0.0000000000000000e+00  1.7083400665747392e-08 3.2677532096405635e-07 0.0000000000000000e+00  -1.7576302911935009e-08 -1.4709446216781823e-08 0.0000000000000000e+00  -5.4507818936880242e-08 -3.7415770672975494e-07 0.0000000000000000e+00  -4.4929504420157220e-08 -7.1496206044977592e-07 0.0000000000000000e+00  -4.9994565344633426e-09 -1.0634689070740883e-06 0.0000000000000000e+00  -3.5810780012486170e-08 -1.4036981333620209e-06 0.0000000000000000e+00  3.1043368458812174e-07 -1.6708340886826471e-06 0.0000000000000000e+00  3.0072159100371838e-07 -1.9933066966307259e-06 0.0000000000000000e+00  6.4548461580536511e-08 -2.4442217652965364e-06 0.0000000000000000e+00  1.1586342038372399e-06 -2.2433413145148672e-06 0.0000000000000000e+00  1.6195170870924938e-06 -2.1922756935490154e-06 0.0000000000000000e+00  1.5489152551020559e-06 -2.5844289389643804e-06 0.0000000000000000e+00  2.3990026348915804e-06 -2.1330216114162704e-06 0.0000000000000000e+00  1.8200867059620373e-06 -3.0216025952244504e-06 0.0000000000000000e+00  3.3994665579473949e-06 -1.5448398567033007e-06 0.0000000000000000e+00  2.5666877034614202e-06 -2.9423636607693391e-06 0.0000000000000000e+00  1.2794815881101968e-06 -5.2249248365818392e-06 0.0000000000000000e+00  3.5409783282277729e-06 -1.9643341990920420e-06 0.0000000000000000e+00  3.7411490726186582e-06 -1.7500645665666699e-06 0.0000000000000000e+00  3.0228216334350176e-06 -3.9137232289436611e-06 0.0000000000000000e+00  4.1393361338102616e-06 -1.3806041196795995e-06 0.0000000000000000e+00  2.9610903177232321e-06 -5.3783129492801927e-06 0.0000000000000000e+00  4.4750805484386249e-06 -2.3790991331681586e-07 0.0000000000000000e+00  4.9903297137147442e-06 -1.4409985243646651e-07 0.0000000000000000e+00  2.2994400637001089e-06 -8.7844167527468187e-06 0.0000000000000000e+00  3.9553442672076864e-06 -3.0278893084056433e-06 0.0000000000000000e+00  3.9614648181115510e-06 -3.3499389270274064e-06 0.0000000000000000e+00  3.8973683337091042e-06 -2.8565871301324954e-06 0.0000000000000000e+00  3.8060884173620537e-06 -6.3116632610582239e-06 0.0000000000000000e+00  3.3344817435113093e-06 -6.5552924582665250e-07 0.0000000000000000e+00  4.0871095896752667e-06 -6.7051740271164667e-06 0.0000000000000000e+00  6.3360647736509031e-07 -1.1942374241507584e-05 0.0000000000000000e+00  4.0963557879480095e-06 3.2720550080214099e-06 0.0000000000000000e+00  1.1127768739246517e-06 2.7208622968765585e-06 0.0000000000000000e+00  5.2090321700515716e-06 -3.1668994775461201e-06 0.0000000000000000e+00  2.8802330953338748e-06 -9.9311592586574743e-07 0.0000000000000000e+00  2.2436026381570455e-06 1.5769164473701207e-06 0.0000000000000000e+00  3.8321534349788429e-06 -1.6242535332031386e-06 0.0000000000000000e+00  -4.5968361527255083e-07 2.5046618763489281e-06 0.0000000000000000e+00  -2.7771386874949871e-07 1.5233687845574683e-06 0.0000000000000000e+00  2.4700199015286906e-06 -5.1650337942367564e-07 0.0000000000000000e+00  -2.0121745273781558e-06 1.5915012852155339e-06 0.0000000000000000e+00  -8.3116144604410955e-07 4.1037177996906306e-07 0.0000000000000000e+00  2.1482475215662525e-07 3.9913844150879858e-07 0.0000000000000000e+00  -8.2586612341618928e-08 2.1686259262372036e-07 0.0000000000000000e+00  8.1200603602144634e-08 -2.4149403614575931e-08 0.0000000000000000e+00  -2.0045854843325710e-07 -1.0799101529235700e-08 0.0000000000000000e+00  -1.3484664884979561e-06 -8.7840790763109166e-07 0.0000000000000000e+00  1.6663255594765709e-06 2.6984755239253276e-07 0.0000000000000000e+00  -3.3493212260230228e-07 -1.0294936871303430e-06 0.0000000000000000e+00  -4.1050316578562986e-07 -2.0199770630083853e-06 0.0000000000000000e+00  3.2097184098532113e-06 1.3523096122880917e-06 0.0000000000000000e+00  1.9483513880211971e-06 -1.4358131592162982e-06 0.0000000000000000e+00  2.6063971887526003e-06 9.8871428305398966e-07 0.0000000000000000e+00  4.6554263164737638e-06 2.9664267592411218e-06 0.0000000000000000e+00  1.8569629503619446e-06 -1.1829838876700266e-06 0.0000000000000000e+00  3.0070468448069923e-06 -4.2368889789202467e-06 0.0000000000000000e+00  1.1432684072729153e-06 1.0468066241878450e-05 0.0000000000000000e+00  3.6656547811544383e-06 6.9031120157270949e-06 0.0000000000000000e+00  3.1075812756761348e-06 5.5593023137463214e-08 0.0000000000000000e+00  3.6289193069716243e-06 6.2393559909235282e-06 0.0000000000000000e+00  3.6873320950482088e-06 2.4552626037765170e-06 0.0000000000000000e+00  3.7953986070286566e-06 3.1283674226115512e-06 0.0000000000000000e+00  3.7789263309866773e-06 2.6689979640446209e-06 0.0000000000000000e+00  2.5144669903809159e-06 8.3847638593261670e-06 0.0000000000000000e+00  4.8447407884170262e-06 -1.3282198374527183e-06 0.0000000000000000e+00  4.2631192630640662e-06 -4.7827373526728893e-07 0.0000000000000000e+00  2.9499959152504226e-06 5.0747056130862455e-06 0.0000000000000000e+00  4.0804614205206825e-06 5.4406428441173376e-07 0.0000000000000000e+00  3.0808754131293683e-06 3.3149340630547325e-06 0.0000000000000000e+00  3.7561412307863233e-06 9.4916109020605426e-07 0.0000000000000000e+00  3.2127293896874150e-06 2.0911793650383706e-06 0.0000000000000000e+00  2.2846743426303778e-06 3.5426814293142084e-06 0.0000000000000000e+00  4.5112691491847837e-06 -1.1305723844636188e-06 0.0000000000000000e+00  3.8996430674555093e-06 2.8164733115714700e-07 0.0000000000000000e+00  2.0602588308704360e-06 2.2369642385476051e-06 0.0000000000000000e+00  3.2111781271875727e-06 9.4547757929372972e-07 0.0000000000000000e+00  1.8623930991759027e-06 2.0524074415769631e-06 0.0000000000000000e+00  2.4082224539534454e-06 1.3663505413284588e-06 0.0000000000000000e+00  1.7903370791498484e-06 1.7705535970072080e-06 0.0000000000000000e+00  -3.0325419078133344e-07 2.5640299680180573e-06 0.0000000000000000e+00  5.1013637094917104e-07 1.8857656556439602e-06 0.0000000000000000e+00  7.9460435845890722e-07 1.5610978203445932e-06 0.0000000000000000e+00  1.2915116761683720e-07 1.4294725250426941e-06 0.0000000000000000e+00  2.3812939677147881e-07 1.1448616269897622e-06 0.0000000000000000e+00  1.0209612849742207e-09 8.7497361398303572e-07 0.0000000000000000e+00  -2.8965840144610978e-09 5.8615511807708500e-07 0.0000000000000000e+00  -1.0155097797326746e-07 2.8171621555817872e-07 0.0000000000000000e+00  2.5127404119887340e-08 -1.3242626596467929e-08 0.0000000000000000e+00  1.1397414912201288e-07 -2.9699731428326605e-07 0.0000000000000000e+00  2.8290959471835699e-07 -5.6911416998736071e-07 0.0000000000000000e+00  3.8305512071429809e-07 -8.5852709876331502e-07 0.0000000000000000e+00  7.3232004393571151e-07 -1.0140401536843402e-06 0.0000000000000000e+00  5.8055418006168117e-07 -1.4630188847868687e-06 0.0000000000000000e+00  1.4179263010785414e-06 -1.2183809547550884e-06 0.0000000000000000e+00  1.0933974250184139e-06 -1.8529624183154867e-06 0.0000000000000000e+00  3.2299973841502219e-07 -3.0223448581520481e-06 0.0000000000000000e+00  2.0444513355942875e-06 -1.6035377226293552e-06 0.0000000000000000e+00  2.2006351740859828e-06 -1.6833001488839032e-06 0.0000000000000000e+00  1.9782798112787779e-06 -2.4986057176627825e-06 0.0000000000000000e+00  2.4191826062130812e-06 -2.1724186305238456e-06 0.0000000000000000e+00  2.1337923607327068e-06 -3.2130318929554617e-06 0.0000000000000000e+00  3.0001851231188235e-06 -1.8567429648323716e-06 0.0000000000000000e+00  1.7982589145620684e-06 -5.0047554013182102e-06 0.0000000000000000e+00  1.7107626232959428e-06 -5.7791959062475223e-06 0.0000000000000000e+00  3.2074346620649557e-06 -2.0052835033407178e-06 0.0000000000000000e+00  3.2263064257634768e-06 -2.7358779886057371e-06 0.0000000000000000e+00  2.9172712835509658e-06 -4.6872835801722646e-06 0.0000000000000000e+00  3.5845151537103591e-06 -1.5672012681507868e-06 0.0000000000000000e+00  3.1004458324878891e-06 -6.3757200417736756e-06 0.0000000000000000e+00  3.5596482028163499e-06 9.5382820237288413e-07 0.0000000000000000e+00  4.3182097459847797e-06 -1.4634298337717219e-06 0.0000000000000000e+00  2.4095046268494462e-06 -8.9702518248668273e-06 0.0000000000000000e+00  3.6169011394985789e-06 -1.6103294911405386e-06 0.0000000000000000e+00  3.2780410628251345e-06 -1.1682703052279174e-06 0.0000000000000000e+00  3.7371981166332845e-06 -3.3221881509568289e-06 0.0000000000000000e+00  3.0728062149811084e-06 5.7547707345518533e-08 0.0000000000000000e+00  3.8481109968481605e-06 -3.2871434784748850e-06 0.0000000000000000e+00  1.9918139227325480e-06 1.8663337370655063e-06 0.0000000000000000e+00  2.5571894399569094e-06 6.6871451022945504e-07 0.0000000000000000e+00  3.5088855897134035e-06 -2.4842754609095465e-06 0.0000000000000000e+00  1.3943881948800455e-06 1.3525410625582157e-06 0.0000000000000000e+00  1.3108327782859796e-06 7.0616357152648995e-07 0.0000000000000000e+00  1.2778142253873567e-06 6.9620565345149394e-07 0.0000000000000000e+00  7.3527884159913921e-07 6.8620317295565133e-07 0.0000000000000000e+00  4.8371555040141050e-07 5.5223421356877278e-07 0.0000000000000000e+00  3.3459916239605267e-07 3.4524322805893390e-07 0.0000000000000000e+00  -1.6171939332843532e-07 1.1132177862517359e-07 0.0000000000000000e+00  3.3305557015210246e+02 -1.7742744702711677e+03 0.0000000000000000e+00  3.6565318457712251e+03 -4.3419448099474010e+02 0.0000000000000000e+00  4.5966097465742278e+03 -6.4129677757088621e+02 0.0000000000000000e+00  2.2684203492827049e+02 1.8761935961846834e+03 0.0000000000000000e+00  4.2314466413980217e+03 6.5945091131408481e+02 0.0000000000000000e+00  1.3137704854945600e+03 -1.8437592797433806e+03 0.0000000000000000e+00  4.9019083524859934e+03 6.2789280024093500e+02 0.0000000000000000e+00  -8.0998021733577517e+00 2.2699237794489099e+02 0.0000000000000000e+00  8.9321625150059174e+02 1.3767052551793665e+03 0.0000000000000000e+00  2.5903321478414300e+03 -1.7651962319826375e+03 0.0000000000000000e+00  -2.3292902927880764e+01 1.5955441148702147e+02 0.0000000000000000e+00  1.3047825729815233e+03 -1.6028560061298920e+03 0.0000000000000000e+00  2.8473895939504368e+03 1.9721107468556656e+03 0.0000000000000000e+00  1.2435164348397248e+03 -1.4052544953144838e+03 0.0000000000000000e+00  6.7731319041484483e+01 -1.6741107830868685e+01 0.0000000000000000e+00  1.2245247091813326e+03 1.6813057134103244e+03 0.0000000000000000e+00  1.7344949768776264e+03 -8.6541191602061474e+02 0.0000000000000000e+00  -1.5173131751438287e+01 -4.6288510267084968e+02 0.0000000000000000e+00  3.8672484226259448e+03 2.5495848471592417e+03 0.0000000000000000e+00  3.9882654018419435e+03 -2.4827733298409353e+03 0.0000000000000000e+00  2.6750951866879423e+03 -1.6966334142015265e+02 0.0000000000000000e+00  2.7925963185999658e+03 1.6074936109426560e+03 0.0000000000000000e+00  3.4634780993218042e+03 -1.7923576044860531e+03 0.0000000000000000e+00  1.4288505637253625e+03 8.4088835995672480e+02 0.0000000000000000e+00  -8.8174366389229576e+01 -1.7654449184864649e+02 0.0000000000000000e+00  2.3465783769082755e+03 2.0120840400047416e+03 0.0000000000000000e+00  1.7753757677068797e+03 5.1510163353005566e+02 0.0000000000000000e+00  7.4956937384121924e-01 -4.3468265179199886e+02 0.0000000000000000e+00  1.1836774925578646e-01 -2.3122772812978093e+02 0.0000000000000000e+00  3.5858765749981562e+03 8.5369727038550161e+02 0.0000000000000000e+00  1.0499130098013316e+03 1.5782368804063105e+03 0.0000000000000000e+00  2.0301658453545740e+03 1.5140061000288013e+03 0.0000000000000000e+00  3.5787643139542354e+02 8.0775537178152376e+02 0.0000000000000000e+00  2.9819488650384978e+03 3.9499766032572734e+02 0.0000000000000000e+00  8.7844201898021879e+02 1.5129824618214459e+03 0.0000000000000000e+00  -3.2329094368288471e+00 -4.6178106449928049e+02 0.0000000000000000e+00  1.2651790600514037e+03 2.1881796988925653e+03 0.0000000000000000e+00  9.1210578417415888e+02 1.7588858592333509e+03 0.0000000000000000e+00  -1.0037543510015883e+01 2.4224077782654334e+02 0.0000000000000000e+00  1.0957962474286178e+03 -1.8407031836871406e+03 0.0000000000000000e+00  6.9820002305996809e+02 -1.3952892398764129e+03 0.0000000000000000e+00  9.0250888318493264e+02 -1.1253965167054525e+03 0.0000000000000000e+00  6.9801827836240633e+01 -3.5488548264027105e+02 0.0000000000000000e+00  1.5248535259879156e+02 6.2016568080026502e+02 0.0000000000000000e+00  1.1383884898601323e+03 1.3344695390169088e+03 0.0000000000000000e+00  1.0305959614702097e+03 2.4673239631962647e+03 0.0000000000000000e+00  3.3764751545820131e+03 1.8978975319541321e+03 0.0000000000000000e+00  1.9004577941862578e+03 3.0354890095537976e+03 0.0000000000000000e+00  1.8491808080295405e+03 -1.0309951102320294e+03 0.0000000000000000e+00  4.3114479896226012e+03 8.1450559484930878e+01 0.0000000000000000e+00  2.0327591137953018e+03 -7.8877337179267568e+02 0.0000000000000000e+00  2.2443846154450594e+03 8.5455600913050876e+02 0.0000000000000000e+00  2.2652502152147413e+03 -7.4021094203756866e+02 0.0000000000000000e+00  9.3730114009114607e+02 2.7345168262832863e+02 0.0000000000000000e+00  8.8850648038502663e+02 -7.2771639444946220e+02 0.0000000000000000e+00  4.0064399942421073e+03 1.6569391406619698e+03 0.0000000000000000e+00  2.4002926416057671e+03 2.4663033080787955e+03 0.0000000000000000e+00  9.7765711946408567e+02 9.5435649992332822e+02 0.0000000000000000e+00  1.9481180809815698e+03 9.0683310943706488e+02 0.0000000000000000e+00  2.3144333080814658e+03 -9.7250902570920380e+02 0.0000000000000000e+00  1.2647496045290372e+03 -1.1427540508520835e+03 0.0000000000000000e+00  3.4221720318994685e+03 9.8510987053433485e+02 0.0000000000000000e+00  3.3958522959517463e+03 6.6280493813019945e+01 0.0000000000000000e+00  3.6090511464607434e+03 -2.0958353881019767e+02 0.0000000000000000e+00  3.5551317799038075e+03 -1.1677043755648249e+03 0.0000000000000000e+00  2.8776621907081476e+03 -7.4647172618241666e+02 0.0000000000000000e+00  2.2043515603697456e+03 -1.3307790161188470e+03 0.0000000000000000e+00  2.4472636630772063e+03 1.6275858149559683e+03 0.0000000000000000e+00  3.1953472181870311e+03 9.8176106457737433e+02 0.0000000000000000e+00  -4.2426834481445518e+01 5.5928771260913527e+02 0.0000000000000000e+00  5.6561893599064047e+02 1.7653584864149525e+03 0.0000000000000000e+00  5.6581189014219831e+02 -1.6710416909118924e+03 0.0000000000000000e+00  -1.5142303193622469e+01 -4.0045744776858123e+02 0.0000000000000000e+00  2.7599722878776488e+03 -1.3683741243681802e+03 0.0000000000000000e+00  6.7715193918909290e+02 -1.4074172319250372e+03 0.0000000000000000e+00  2.7623054452257143e+03 -1.8724237458255343e+03 0.0000000000000000e+00  3.5173295087119664e+03 -2.3869766981226485e+02 0.0000000000000000e+00  3.6794174986923126e+03 -1.6121868836530496e+03 0.0000000000000000e+00  2.6659211687512516e+02 -9.8782342462429619e+02 0.0000000000000000e+00  2.1399089870688622e+03 -2.1875643034577424e+03 0.0000000000000000e+00  1.1155000069477292e+03 1.6198277910416670e+02 0.0000000000000000e+00  1.6266247288324305e+02 -3.1864265848870895e+02 0.0000000000000000e+00  -2.6047484200251843e+00 -3.6084814121510851e+02 0.0000000000000000e+00  2.8370446956249011e+03 -3.5220767872963984e+02 0.0000000000000000e+00  3.1006892992852563e+03 3.2256652436581038e+02 0.0000000000000000e+00  3.6738104301969815e+03 -1.5436390156449177e+03 0.0000000000000000e+00  1.6489954717783228e+03 -2.2183345970166124e+03 0.0000000000000000e+00  4.2638074200861229e+03 -8.2895971043672910e+02 0.0000000000000000e+00  1.3969085146060509e+03 -2.1613864494818208e+03 0.0000000000000000e+00  2.3386541806161044e+03 1.1148662326146793e+03 0.0000000000000000e+00  3.0802706789785889e+03 1.7618092252989279e+03 0.0000000000000000e+00  -2.1374454572249323e+02 7.6862966573828840e+02 0.0000000000000000e+00  2.2884042696424029e+01 -9.0295941635988314e+01 0.0000000000000000e+00  3.9687156886884691e+03 -1.6910130507914048e+03 0.0000000000000000e+00  1.7369835029735343e+03 -2.5025892992396252e+03 0.0000000000000000e+00  2.0645316701692313e+03 -2.9319759431034768e+03 0.0000000000000000e+00  -3.2595567896152119e+01 -2.3178596749664720e+02 0.0000000000000000e+00  -1.2420985435763818e+02 1.0457388291340044e+03 0.0000000000000000e+00  1.2431630729046483e+03 -1.3374644217252919e+03 0.0000000000000000e+00  2.5995171211706838e+02 -6.1585971868216041e+02 0.0000000000000000e+00  2.8949406552548470e+02 8.2369495723083253e+02 0.0000000000000000e+00  1.3352422581940050e+03 1.6426959319071952e+03 0.0000000000000000e+00  -8.4479902866604178e+01 2.3007032097960578e+02 0.0000000000000000e+00  5.1864245574947211e+02 8.0315108971465611e+02 0.0000000000000000e+00  3.6965285897842634e+01 1.8825368254008353e+02 0.0000000000000000e+00  1.7237334011671408e+03 2.2684904980155602e+03 0.0000000000000000e+00  2.9653602501709856e+03 1.8528764266272244e+03 0.0000000000000000e+00  4.8710944010686981e+03 9.0527654872248593e+02 0.0000000000000000e+00  2.8927934850223537e+03 -1.9109596715405714e+03 0.0000000000000000e+00  1.6937865185275555e+03 -2.2169495480835694e+03 0.0000000000000000e+00  5.0404945306495310e+03 -9.5432443565679102e+02 0.0000000000000000e+00  6.0861773680542444e+02 1.6246579167887733e+03 0.0000000000000000e+00  4.2298179823399305e+03 1.6156244106417239e+03 0.0000000000000000e+00  -1.0675300148294544e+00 -1.2433532332349610e+02 