<?xml version="1.0"?>
<VTKFile type="UnstructuredGrid"  version="0.1"  >
<UnstructuredGrid>
<Piece  NumberOfPoints="2549" NumberOfCells="4928">
<Points>
<DataArray  type="Float64"  NumberOfComponents="3"  format="ascii">1.638395186688502 -0.03760572581778678 0  1.635320066911391 0.009953603306739649 0  1.628591858549835 0.05701194042686625 0  1.620279694223064 0.1041945715429778 0  1.608960289641547 0.1510444260643752 0  1.59539048974523 0.1977544345668199 0  1.578454004081401 0.2437788236278861 0  1.56003497571065 0.2896428785710884 0  1.535951089933845 0.332903917612652 0  1.510626329169449 0.37457903834769 0  1.487315720054373 0.4208634870108144 0  1.458661359766714 0.4628053720963598 0  1.429497704488642 0.5051630399985528 0  1.398333757061359 0.5462131152836417 0  1.365609716221152 0.5865436617970986 0  1.33137879478627 0.6258599876442258 0  1.295269748212325 0.6634869402038963 0  1.25908306099869 0.6997906035443806 0  1.222823575285851 0.7407039962391327 0  1.184409446280295 0.778196820024704 0  1.145430691677376 0.8165474450524612 0  1.105150541332519 0.8538995479072777 0  1.064039793292968 0.8912808362826067 0  1.021384155295373 0.9276362159326448 0  0.9772307297603035 0.9626833883298744 0  0.9324510624519757 0.996219716196764 0  0.8863677818537596 1.029313364111762 0  0.8392266508977533 1.061519581616376 0  0.7910860891182505 1.092955494533087 0  0.7417965011571387 1.12314050990182 0  0.6914474341129399 1.152097822960148 0  0.6400485796954454 1.179632581929659 0  0.5874082563885578 1.205116321547226 0  0.5339124894014718 1.228726312145444 0  0.4794876156210754 1.250841215815186 0  0.4240843978249614 1.270607127217673 0  0.3678914229204581 1.288270792805033 0  0.3109296655186946 1.303514606478634 0  0.2533140802682742 1.316313383757381 0  0.1951668076853188 1.326582732146887 0  0.1365155905370782 1.333932984133107 0  0.07765957737458798 1.338586891122673 0  0.01860785394205415 1.340751844906654 0  -0.04047425369161007 1.340041002028359 0  -0.09947082198366011 1.336561388643399 0  -0.1582240422700218 1.330224096412278 0  -0.2166099628651506 1.321152445708996 0  -0.274466157635327 1.309169754566278 0  -0.3316866316635535 1.294813507204995 0  -0.3882748766695976 1.277789957326129 0  -0.4438443501006976 1.257898811551334 0  -0.4984627923895723 1.235653173827076 0  -0.5520888065240631 1.211365394026306 0  -0.6044936480753585 1.184845866479013 0  -0.6559901515163862 1.157019204814186 0  -0.7060145523075749 1.126836795485124 0  -0.7549266093757928 1.096378090229983 0  -0.803032210163501 1.064319400351012 0  -0.8493855895689135 1.030201985002281 0  -0.8944503962556055 0.9950867541428275 0  -0.9384787656764241 0.9595557861232575 0  -0.9810172824863961 0.9228408960108023 0  -1.023053461601108 0.8868562862856756 0  -1.062253323131999 0.8469376728577706 0  -1.101478741851677 0.8113193566116904 0  -1.140194351395049 0.7755601678376685 0  -1.177570726185093 0.7386144720056271 0  -1.214269153127531 0.7022039617041314 0  -1.249705211545119 0.6649361232877127 0  -1.284776791719549 0.6294210730901786 0  -1.319609427935489 0.5927104517009585 0  -1.35418868408879 0.5592835898381932 0  -1.389212621461289 0.522348715254599 0  -1.412985798318227 0.4755868192675679 0  -1.445925818122507 0.4341666835880929 0  -1.471574529798271 0.3893621214224285 0  -1.494809412596154 0.3430856458688302 0  -1.511401476039219 0.2939883815657754 0  -1.529892539635172 0.2468965319634204 0  -1.530439711384366 0.1925259242231557 0  -1.545245463188541 0.1483161107687358 0  -1.557076910105751 0.1016425718900352 0  -1.549764369820951 0.05373538904012681 0  -1.554337712599134 0.007535340405048903 0  -1.553456823482974 -0.03839565108080683 0  -1.555506318330659 -0.08431184565374274 0  -1.552748804897412 -0.1307398882903856 0  -1.558016856620298 -0.1791121134146625 0  -1.548375608942069 -0.2262182581081987 0  -1.535405845232496 -0.2711533473556172 0  -1.534915202644544 -0.3264167437636196 0  -1.517503354909073 -0.3742127344066428 0  -1.501270945086037 -0.4240126507709295 0  -1.478141170120738 -0.47052744632565 0  -1.452496435193011 -0.515560498147778 0  -1.420482904164579 -0.5572438069492417 0  -1.396058203958926 -0.6038873291009165 0  -1.360606736349735 -0.6408495185826572 0  -1.326139066520806 -0.6747563366577581 0  -1.291095353271898 -0.7113796404737313 0  -1.255977598630351 -0.7469754974954068 0  -1.220680568910088 -0.7845774801543332 0  -1.184188458675373 -0.8214717878054921 0  -1.147048119870404 -0.8590339613242437 0  -1.108636473248199 -0.8955211933747255 0  -1.069516412036737 -0.9320047288276073 0  -1.031159051934193 -0.974248909739866 0  -0.9890699923228526 -1.011436920744585 0  -0.9466197936237243 -1.049608561777192 0  -0.9026656500749168 -1.086746623505713 0  -0.8576171833167618 -1.123477673102236 0  -0.8111384301724468 -1.159171362123457 0  -0.763211503630201 -1.193343757581826 0  -0.7139000947544961 -1.226322813567862 0  -0.6641673026390178 -1.260447108321707 0  -0.611898338175525 -1.290332965351812 0  -0.5590305328891765 -1.319093820853218 0  -0.5047468438715833 -1.34536025964962 0  -0.4494314274872063 -1.369435314491344 0  -0.3931810470546455 -1.391145482687958 0  -0.3355908851784654 -1.409278838241091 0  -0.2774532309387411 -1.424488921503734 0  -0.2186430825159487 -1.437465220862388 0  -0.1592107472842669 -1.447207235219799 0  -0.09936663515116326 -1.45404221998121 0  -0.03922841853078803 -1.457717725275693 0  0.02102872757128998 -1.45828638679281 0  0.08124655816596445 -1.45564869485381 0  0.1412557768180336 -1.449817468679161 0  0.2008332089737901 -1.441007141003869 0  0.2599107216508028 -1.429511846872235 0  0.3183506128707126 -1.415290341521497 0  0.376075257362226 -1.39856336497714 0  0.4329213754247433 -1.379288105199494 0  0.4889346704573499 -1.358030324537568 0  0.5438319462443616 -1.334178939972392 0  0.5977305376158456 -1.309355393526222 0  0.6508986157711767 -1.28252428016499 0  0.7025089288582455 -1.253150146003032 0  0.7530835399635852 -1.222534307402258 0  0.8024940283794306 -1.19070846809441 0  0.8507126406757721 -1.157717816831859 0  0.8978578441546239 -1.123999110621601 0  0.9438932230250713 -1.089500445982451 0  0.9885910674970415 -1.054678752572922 0  1.032639370156725 -1.018350446034802 0  1.075131477432029 -0.9807220393730874 0  1.11606423985928 -0.942188464282166 0  1.156104307656284 -0.9036787439243394 0  1.194802594983377 -0.8642045731780151 0  1.232963863626264 -0.8257227637770796 0  1.268778657281851 -0.7836152604888895 0  1.30462351678256 -0.7465382838088389 0  1.340551223953893 -0.708354292335149 0  1.374406904816426 -0.668255729845077 0  1.40682309227901 -0.6273103960435016 0  1.437665572951046 -0.5856482787572334 0  1.466484070420596 -0.5426780660873245 0  1.494708429987099 -0.5001277901062499 0  1.517659294905303 -0.4532635369789931 0  1.542614491634123 -0.4111580728258962 0  1.566215422169909 -0.3673877950701552 0  1.584072686577445 -0.320990587142105 0  1.600322146001123 -0.274480793105945 0  1.613164869724837 -0.227315174539316 0  1.623523337309761 -0.1800231521276606 0  1.630899260448884 -0.1325358509410076 0  1.636411209749802 -0.08522129634309306 0  -0.08076929982341557 0.8002875764991254 0  0.618798411810681 -0.719196064044673 0  -0.7273286058461513 -0.6295169256907186 0  -0.05688125034991009 -0.8905130130747061 0  0.6145056049425742 0.6235769695935149 0  1.166784070334192 0.2040479226184354 0  -0.739907950370163 0.5297961712848696 0  -1.210059627921967 -0.04314998537654355 0  1.171007423568046 -0.2864104110605239 0  -1.015681412351386 -0.4548896939368507 0  -0.7765339513488725 -0.0579834405300426 0  -0.4558044551689383 -0.2323171124128814 0  -1.026240655236653 0.3496487398869982 0  0.2990939679356988 -0.8676567662647232 0  0.1542324917898941 -0.2931585716166062 0  0.2625683311801165 0.7619109428374137 0  0.3546966547472297 0.2036677465694083 0  0.6694639437945926 -0.04231387887288726 0  -0.3919072774179884 -0.7828286006032761 0  -0.4286860824684355 0.7053426343916714 0  -0.2559345163846065 0.2597054026287352 0  0.9245169243509619 -0.4925250487834321 0  0.9203312557646217 0.4062943663436343 0  0.4224623775935276 -0.324096662076703 0  0.04760237903341766 0.2551321898503653 0  -0.519147716986733 0.1986567255513313 0  -0.1536577251316021 -0.2855126435141563 0  0.9529296043008868 -0.04191867979539531 0  1.360202775725446 -0.03956080262894079 0  0.771989333091805 -0.602971287751105 0  0.7882442036656769 -0.2768873527000617 0  0.6347142382541163 -0.3776356823557618 0  0.5446175985262371 -0.1793117373942298 0  0.5147516763264984 -0.5268604047351999 0  0.9316062325975545 -0.2656348707035198 0  0.810520595594308 -0.04209378825539428 0  -0.8929600664728041 0.1551346248750012 0  -1.113688921136655 0.1492087892012046 0  -0.9953734506154618 -0.04966039547056314 0  -0.8875725133159622 -0.2651127736379268 0  -1.108932175238572 -0.2441046703406097 0  -1.283729654866654 -0.3364875005968532 0  -1.371405417002339 -0.1527160394131594 0  -1.369381434195196 0.07043631302218305 0  -1.279309702039641 0.2529139397356322 0  -0.105860412895244 -0.5876467418681462 0  -0.2660710238793509 -0.5401121995858585 0  -0.2257223518784098 -0.8420450087190972 0  -0.3041914785469038 -0.2600055542639113 0  -0.4201284100383507 -0.5051935450802255 0  -1.202465030846983 -0.5337042923309339 0  -1.203961318707758 0.4418979722399463 0  0.3596104013995474 -0.593411553721268 0  0.2875563809156212 -0.3102427759166269 0  0.2211246748542207 -0.5834098486127697 0  -0.8825055531344179 0.4355327181251922 0  -0.7487302939127631 0.2337817817745586 0  1.354515666115427 -0.3593875245624523 0  1.226050822923943 -0.5243647967419884 0  1.219283502195605 0.4418100541267387 0  1.349047471041803 0.2793150912200341 0  -0.7328689735808562 -0.9129293267603937 0  -0.9074570533146727 -0.7778132314608628 0  -0.9104469897224401 0.6856046877213141 0  -0.7363935235496796 0.8140815123739379 0  0.7904360109164202 -0.9016678838007293 0  0.6010810215031451 -1.014607282469563 0  0.5942731796306866 0.9152185186887555 0  0.7830530399693268 0.8079190066348565 0  0.031538499339977
[...]
<PointData  Vectors="f_48"> 
<DataArray  type="Float64"  Name="f_48"  NumberOfComponents="3" format="ascii">-1.3031182412534842e-09 -9.3468909916399521e-08 0.0000000000000000e+00  2.6906786987543472e-07 -3.4220158858970246e-07 0.0000000000000000e+00  4.6590512463843553e-07 -5.4215328950978375e-07 0.0000000000000000e+00  6.4587374065529652e-07 -7.2879617196798342e-07 0.0000000000000000e+00  7.9820756513841403e-07 -8.3772597494336413e-07 0.0000000000000000e+00  1.4375655592025710e-06 -8.0974244621527700e-07 0.0000000000000000e+00  1.1980866763984343e-06 -9.2053180099695573e-07 0.0000000000000000e+00  1.4341398615762262e-06 -1.5176245090255844e-06 0.0000000000000000e+00  3.8505089741831365e-06 2.5006145508911061e-06 0.0000000000000000e+00  1.7444178323306044e-06 -1.9794716233949667e-06 0.0000000000000000e+00  2.1118027242760849e-06 -1.7390539391718017e-06 0.0000000000000000e+00  4.0611239088382559e-06 3.0175359102626437e-06 0.0000000000000000e+00  2.7930080212924826e-06 -1.1247300821663171e-06 0.0000000000000000e+00  3.7145913464676229e-06 2.0077288119279732e-06 0.0000000000000000e+00  3.4571958459189640e-06 9.3083043713859855e-07 0.0000000000000000e+00  3.6145403496793060e-06 1.4605504063631429e-06 0.0000000000000000e+00  3.7229862309826768e-06 6.0597898891204481e-06 0.0000000000000000e+00  3.9012965926519576e-06 -3.4450459164449612e-07 0.0000000000000000e+00  3.5692837555325215e-06 -4.1101388491600195e-07 0.0000000000000000e+00  3.6389124017486230e-06 4.8694452321686740e-06 0.0000000000000000e+00  3.6985931867099001e-06 1.6804463408215374e-07 0.0000000000000000e+00  3.4677942807375100e-06 2.6970987363809294e-06 0.0000000000000000e+00  3.6258275808521056e-06 1.9871019619259457e-07 0.0000000000000000e+00  3.1747688495472562e-06 2.5702067063454835e-06 0.0000000000000000e+00  2.9594937376232742e-06 2.7529453460645684e-06 0.0000000000000000e+00  2.8898772279243896e-06 2.5215420032949969e-06 0.0000000000000000e+00  2.8642521564674524e-06 2.1077225659532231e-06 0.0000000000000000e+00  2.8411087571307600e-06 1.6664108811285728e-06 0.0000000000000000e+00  2.8455784888330016e-06 1.2813638932980293e-06 0.0000000000000000e+00  2.5104449489477432e-06 1.5550480468409065e-06 0.0000000000000000e+00  2.7366359597086903e-06 7.9482576356877613e-07 0.0000000000000000e+00  2.4052888831705836e-06 1.0808575276762028e-06 0.0000000000000000e+00  1.5688718779851801e-06 1.7946729062545947e-06 0.0000000000000000e+00  1.9683354280490640e-06 1.0188072824538560e-06 0.0000000000000000e+00  1.7069968136082723e-06 1.0593531359946508e-06 0.0000000000000000e+00  1.2170501303296984e-06 1.1407879937586198e-06 0.0000000000000000e+00  1.2184661934576093e-06 9.0835869070032877e-07 0.0000000000000000e+00  7.5622926793936995e-07 9.0866147376113860e-07 0.0000000000000000e+00  7.0555618958442687e-07 6.7138658735508901e-07 0.0000000000000000e+00  3.4238552361513173e-07 5.6611248044698821e-07 0.0000000000000000e+00  8.1376257155455950e-08 3.5544399195689797e-07 0.0000000000000000e+00  -1.8138055381346702e-09 1.0633014910409840e-07 0.0000000000000000e+00  -3.4239918007056454e-08 -1.6710292641680377e-07 0.0000000000000000e+00  -2.0083912665231776e-08 -4.2397036430330053e-07 0.0000000000000000e+00  8.1564264078950981e-08 -6.8216754284639874e-07 0.0000000000000000e+00  1.4481702567483475e-07 -9.1756781791702566e-07 0.0000000000000000e+00  4.6315332100784272e-07 -1.0900516066066979e-06 0.0000000000000000e+00  6.7030958502030455e-07 -1.2331828184206036e-06 0.0000000000000000e+00  6.2145917201813595e-07 -1.5233969675429953e-06 0.0000000000000000e+00  1.4243925758280155e-06 -1.2710519067965521e-06 0.0000000000000000e+00  2.0886001304428026e-06 -8.8114765137003087e-07 0.0000000000000000e+00  1.6859667607568540e-06 -1.4812579296900297e-06 0.0000000000000000e+00  2.6577178334883181e-06 -6.9419148537638913e-07 0.0000000000000000e+00  2.0349226748503593e-06 -1.5912168926750092e-06 0.0000000000000000e+00  2.7644886862590991e-06 -1.0271214893984424e-06 0.0000000000000000e+00  3.0678016562739700e-06 -4.8180885111979927e-07 0.0000000000000000e+00  2.0769731219643580e-06 -3.0276361625585235e-06 0.0000000000000000e+00  3.1132189208716966e-06 -1.0221260451455186e-06 0.0000000000000000e+00  3.6950058667139320e-06 8.2290759367052357e-07 0.0000000000000000e+00  2.9430736259932996e-06 -2.5688448959829557e-06 0.0000000000000000e+00  3.9096584726809545e-06 1.2642313383291535e-06 0.0000000000000000e+00  2.8203243257376094e-06 -4.9253131022083722e-06 0.0000000000000000e+00  3.8509148120806890e-06 9.7229677489769668e-07 0.0000000000000000e+00  4.0605385747406455e-06 2.9156318150997686e-06 0.0000000000000000e+00  3.2664912288399792e-06 -6.7045734314192432e-06 0.0000000000000000e+00  3.7708747412925804e-06 2.4432272949250237e-08 0.0000000000000000e+00  3.8022820051020025e-06 -2.7164196937059000e-06 0.0000000000000000e+00  3.6349457597907741e-06 -9.5050461846549359e-07 0.0000000000000000e+00  4.0158551465843355e-06 -2.1255152317972822e-06 0.0000000000000000e+00  3.2663113419012087e-06 -2.8291011306522012e-06 0.0000000000000000e+00  4.2087164659184039e-06 -1.4870891994272453e-06 0.0000000000000000e+00  2.5282787961879623e-06 -1.0941764377337851e-05 0.0000000000000000e+00  2.2811756012294275e-06 5.4186154740110717e-06 0.0000000000000000e+00  1.5698697966418313e-06 3.0331250759615410e-06 0.0000000000000000e+00  5.1115624008156668e-06 -4.8393758203830221e-06 0.0000000000000000e+00  1.6751057230604771e-06 6.3363327559482035e-08 0.0000000000000000e+00  1.2490527161665066e-06 2.1147693797840756e-06 0.0000000000000000e+00  4.0165681623363781e-06 -2.2347803132336373e-06 0.0000000000000000e+00  -4.5747834414792696e-07 2.2099794277224010e-06 0.0000000000000000e+00  -4.8220831203111511e-07 1.1660370149790697e-06 0.0000000000000000e+00  1.9837967607028985e-06 -7.4207112844571344e-07 0.0000000000000000e+00  -1.2446032594735981e-06 1.0126851060991241e-06 0.0000000000000000e+00  -4.4499620811431920e-07 2.3516305995310479e-07 0.0000000000000000e+00  6.0023027470619224e-07 1.6946169787336426e-07 0.0000000000000000e+00  -2.2370175513474390e-07 1.0419149962682097e-07 0.0000000000000000e+00  1.6950202557213628e-07 -7.7194248404284097e-08 0.0000000000000000e+00  -1.9691002905957234e-07 -5.9794508692505434e-08 0.0000000000000000e+00  -1.1756079885089891e-06 -7.1368033644636939e-07 0.0000000000000000e+00  1.5940287742132938e-06 3.4490160827233653e-07 0.0000000000000000e+00  -5.5747017537807948e-07 -9.1940245068547066e-07 0.0000000000000000e+00  -3.8834598101817101e-07 -1.8854374767213375e-06 0.0000000000000000e+00  3.3173847117733516e-06 1.6231542053566127e-06 0.0000000000000000e+00  1.2147801043878310e-06 -1.8674390295539173e-06 0.0000000000000000e+00  1.7372742014815458e-06 1.4168472790754226e-07 0.0000000000000000e+00  4.9276300447102051e-06 4.2347338426931254e-06 0.0000000000000000e+00  1.0907597821176055e-06 -2.7554794264117921e-06 0.0000000000000000e+00  2.7707049736063038e-06 -4.5258060594213303e-06 0.0000000000000000e+00  2.3629042440715984e-06 9.8461640757236076e-06 0.0000000000000000e+00  3.9574519535821711e-06 1.2279508242754446e-06 0.0000000000000000e+00  3.2126854736174412e-06 3.3846753038437743e-06 0.0000000000000000e+00  3.8622354350077791e-06 1.8549738643380255e-06 0.0000000000000000e+00  3.4847130578557846e-06 7.4162780012432778e-07 0.0000000000000000e+00  3.6843527177182489e-06 2.6374342523140431e-06 0.0000000000000000e+00  3.6193123606135972e-06 -7.1965971456847615e-07 0.0000000000000000e+00  3.1515612903870335e-06 7.3394787096474647e-06 0.0000000000000000e+00  3.8128037959942380e-06 -4.1326284963156461e-06 0.0000000000000000e+00  3.6833264013212219e-06 -2.3225046651949049e-06 0.0000000000000000e+00  2.5502294905124229e-06 5.9796909414633183e-06 0.0000000000000000e+00  3.7883363349184172e-06 -2.1024093180628296e-06 0.0000000000000000e+00  2.8809710496446039e-06 2.0102808101946593e-06 0.0000000000000000e+00  3.3641160951027961e-06 -3.9390470737681545e-07 0.0000000000000000e+00  3.1469928091751310e-06 -3.6035660707552650e-09 0.0000000000000000e+00  1.9342903517971466e-06 3.3639829049621762e-06 0.0000000000000000e+00  3.9035367902944615e-06 -2.8022530341181509e-06 0.0000000000000000e+00  3.7126749995204472e-06 -9.2636062445368115e-07 0.0000000000000000e+00  1.1108444948371805e-06 2.2410653171156817e-06 0.0000000000000000e+00  3.6312730194350153e-06 -9.6487948904669681e-07 0.0000000000000000e+00  1.5615557762192971e-06 1.2687788306804306e-06 0.0000000000000000e+00  2.8724781504462760e-06 -2.4217882861042403e-07 0.0000000000000000e+00  1.9024499329979717e-06 7.3410855442341377e-07 0.0000000000000000e+00  3.6859737703763946e-07 1.4976747209029099e-06 0.0000000000000000e+00  9.6285454041125480e-07 9.4805420716141969e-07 0.0000000000000000e+00  7.0974541067621810e-07 9.0410793401522630e-07 0.0000000000000000e+00  2.5913969231680443e-07 8.1004347346275085e-07 0.0000000000000000e+00  2.4215121646108471e-07 6.1559964727272002e-07 0.0000000000000000e+00  1.7063789758250384e-08 4.1308174155892258e-07 0.0000000000000000e+00  4.8861784484283615e-09 1.8889672899388574e-07 0.0000000000000000e+00  -5.0759320411152771e-08 -5.1499785408117764e-08 0.0000000000000000e+00  1.8676392780260265e-07 -2.5078614444898614e-07 0.0000000000000000e+00  3.1482517166499405e-07 -4.4553419212824386e-07 0.0000000000000000e+00  5.7115916908866841e-07 -6.0203186570773953e-07 0.0000000000000000e+00  6.8310929610850791e-07 -7.8354150164342590e-07 0.0000000000000000e+00  1.2067490735690548e-06 -7.4031760811840457e-07 0.0000000000000000e+00  1.0425763684721027e-06 -1.0745531433159507e-06 0.0000000000000000e+00  1.6919757179262783e-06 -8.7307170480233355e-07 0.0000000000000000e+00  1.9813878543063845e-06 -7.5515713512493855e-07 0.0000000000000000e+00  1.0474506266655773e-06 -2.2335352295398608e-06 0.0000000000000000e+00  2.5958161250920849e-06 -5.5679710085544745e-07 0.0000000000000000e+00  2.9024795231645811e-06 -6.4057012234890117e-08 0.0000000000000000e+00  2.4978530420588133e-06 -1.3166795261435453e-06 0.0000000000000000e+00  2.8901987382351793e-06 -7.8265067667575479e-07 0.0000000000000000e+00  2.8387704569533053e-06 -1.3449832383929471e-06 0.0000000000000000e+00  2.8989004806125682e-06 -1.6727369510725062e-06 0.0000000000000000e+00  2.8913605777794558e-06 -2.2406521451099740e-06 0.0000000000000000e+00  2.9376288181042157e-06 -2.5626067372297132e-06 0.0000000000000000e+00  3.1667857513449525e-06 -2.2083872340174183e-06 0.0000000000000000e+00  3.4946848011426950e-06 1.4492699758598477e-08 0.0000000000000000e+00  3.4154780698921016e-06 -2.5608049004970212e-06 0.0000000000000000e+00  3.5532860315092817e-06 2.6751919612718316e-07 0.0000000000000000e+00  3.6448711385003400e-06 -4.7604712200231450e-06 0.0000000000000000e+00  3.3917284769241939e-06 6.5973540864689634e-07 0.0000000000000000e+00  3.6855266505337625e-06 9.8166216315253764e-07 0.0000000000000000e+00  3.7310621971187957e-06 -6.1745729620753716e-06 0.0000000000000000e+00  3.5056249853324522e-06 -1.2999334695693489e-06 0.0000000000000000e+00  3.2589419819519240e-06 -6.7197191749442707e-07 0.0000000000000000e+00  3.6206871447221353e-06 -1.9533059863803139e-06 0.0000000000000000e+00  2.6026002500093035e-06 1.1097791994058016e-06 0.0000000000000000e+00  3.8763297511640378e-06 -2.6945794015585142e-06 0.0000000000000000e+00  1.8888631780786611e-06 1.6962895885847554e-06 0.0000000000000000e+00  1.6499934354927012e-06 1.7625143866030709e-06 0.0000000000000000e+00  3.5671465583259326e-06 -2.1937011639392079e-06 0.0000000000000000e+00  1.2509258322408467e-06 1.4088145092806258e-06 0.0000000000000000e+00  1.0276728759934685e-06 8.4199057939576012e-07 0.0000000000000000e+00  1.2241308554294130e-06 7.2346381508066736e-07 0.0000000000000000e+00  6.0462262430668703e-07 7.2595436078081270e-07 0.0000000000000000e+00  4.6001335862665748e-07 5.7605408624237739e-07 0.0000000000000000e+00  3.1381148451249417e-07 3.8110164258881100e-07 0.0000000000000000e+00  -3.9858385836032463e-08 1.6394432743573516e-07 0.0000000000000000e+00  2.8209968999969789e+02 -1.2823013291862221e+03 0.0000000000000000e+00  4.1622036124522610e+03 -5.8865669274620518e+02 0.0000000000000000e+00  4.1687470396578747e+03 -7.1407930382330960e+02 0.0000000000000000e+00  1.7138783950131392e+02 1.0421791749218860e+03 0.0000000000000000e+00  4.1270044929699952e+03 6.3304228276607716e+02 0.0000000000000000e+00  1.0633320743625607e+03 -1.6229518708846899e+03 0.0000000000000000e+00  4.2843777325408009e+03 7.5768574485996783e+02 0.0000000000000000e+00  -8.6901600171637448e+00 9.6286030296018907e+01 0.0000000000000000e+00  9.1660420136698576e+02 1.4857998834929326e+03 0.0000000000000000e+00  2.2750987093683352e+03 -1.7304703825092158e+03 0.0000000000000000e+00  -1.9072536696908109e+01 -8.1531772629860573e+00 0.0000000000000000e+00  1.2522931098704789e+03 -1.4834024427271365e+03 0.0000000000000000e+00  2.3109530339540374e+03 1.8454895893874539e+03 0.0000000000000000e+00  1.6331532982929912e+03 -2.0191868983397799e+03 0.0000000000000000e+00  8.4808013276719475e+02 -2.8254842525694056e+02 0.0000000000000000e+00  1.2922980705401901e+03 1.8767492538083529e+03 0.0000000000000000e+00  1.6430884723979716e+03 -7.3923173744994870e+02 0.0000000000000000e+00  -3.1859659134898301e+01 6.6779727807476408e-01 0.0000000000000000e+00  3.3662654751569062e+03 2.0908760691896341e+03 0.0000000000000000e+00  3.5312457664382214e+03 -2.0332302961274959e+03 0.0000000000000000e+00  2.2574232750705269e+03 -1.3143117324333287e+01 0.0000000000000000e+00  2.9899415641735181e+03 1.7722906854708046e+03 0.0000000000000000e+00  3.1223876526375507e+03 -1.7532467398296428e+03 0.0000000000000000e+00  2.2342037690258330e+03 1.0716211055934141e+03 0.0000000000000000e+00  -1.2902022154306859e+01 -6.7022005257743817e+00 0.0000000000000000e+00  2.0237486180976832e+03 1.7834032322890152e+03 0.0000000000000000e+00  1.2399491776303364e+03 1.7419596802003392e+02 0.0000000000000000e+00  -8.4489992225252788e+00 -8.2870115953749760e+01 0.0000000000000000e+00  -2.7671468651437445e+00 -9.6011652364941611e+01 0.0000000000000000e+00  3.9784830606060268e+03 9.2310139061184259e+02 0.0000000000000000e+00  1.3716915981002828e+03 1.9517042111538644e+03 0.0000000000000000e+00  2.6509997766472134e+03 1.7780686573032729e+03 0.0000000000000000e+00  6.9496987989264665e+02 1.3630611877956133e+03 0.0000000000000000e+00  3.7912379226184780e+03 2.3864887855130220e+02 0.0000000000000000e+00  1.0642263310711558e+03 1.8027700664622794e+03 0.0000000000000000e+00  -1.5357323417501638e+01 -4.7004691448228620e+01 0.0000000000000000e+00  1.0171524493879377e+03 1.8797750834761744e+03 0.0000000000000000e+00  6.7995256343679205e+02 1.4640790901017501e+03 0.0000000000000000e+00  -9.8810649142269895e+00 7.8893904325824295e+01 0.0000000000000000e+00  1.0430816370975099e+03 -1.7820485760787860e+03 0.0000000000000000e+00  6.2362621177268477e+02 -1.3231481806245906e+03 0.0000000000000000e+00  7.4573696994487068e+02 -1.0385368266054484e+03 0.0000000000000000e+00  6.3142900329821714e+01 -3.4185909085297493e+02 0.0000000000000000e+00  8.9694035687188361e+01 4.5192156171863007e+02 0.0000000000000000e+00  8.4174753685673443e+02 1.1411938498466313e+03 0.0000000000000000e+00  7.7912770576301830e+02 1.5852564524710087e+03 0.0000000000000000e+00  2.8189902038979794e+03 1.4965063382795756e+03 0.0000000000000000e+00  1.5656288396537425e+03 2.3111173351440234e+03 0.0000000000000000e+00  1.5808974993624138e+03 -9.0006889026533338e+02 0.0000000000000000e+00  3.8424018689235804e+03 7.2445077578607268e+01 0.0000000000000000e+00  1.7062967259922045e+03 -8.8790075075809636e+02 0.0000000000000000e+00  1.7840265096257458e+03 9.3910702797145143e+02 0.0000000000000000e+00  3.0450765467290889e+03 -1.3023705137705206e+03 0.0000000000000000e+00  1.7970350172600477e+03 3.2851068946929075e+02 0.0000000000000000e+00  1.5324213362928915e+03 -1.5365617383272768e+03 0.0000000000000000e+00  3.4019100897202029e+03 1.6444528673611992e+03 0.0000000000000000e+00  2.0422005654788970e+03 2.1947904733588189e+03 0.0000000000000000e+00  8.9603495586474776e+02 9.8089124612948353e+02 0.0000000000000000e+00  1.8295002716242789e+03 1.0309950720110312e+03 0.0000000000000000e+00  1.9635620593106348e+03 -1.0363399070350495e+03 0.0000000000000000e+00  1.0184375931609638e+03 -1.0520465170555478e+03 0.0000000000000000e+00  3.0348626723235056e+03 6.1826143181213752e+02 0.0000000000000000e+00  2.9901512599109747e+03 -2.1895822030025599e+02 0.0000000000000000e+00  3.1091831979334770e+03 1.5752079465733689e+02 0.0000000000000000e+00  3.1388163522183777e+03 -7.0994113810580541e+02 0.0000000000000000e+00  3.0082140084128114e+03 -5.8826703666375306e+02 0.0000000000000000e+00  2.4087523735424415e+03 -1.3258481399454931e+03 0.0000000000000000e+00  2.4062744371809131e+03 1.4043416828351612e+03 0.0000000000000000e+00  3.0371809103248233e+03 6.8044225600059269e+02 0.0000000000000000e+00  -7.1572681024504421e+00 9.1398809450479007e+01 0.0000000000000000e+00  4.6029392383695421e+02 1.2163909587557523e+03 0.0000000000000000e+00  5.0154625488915491e+02 -1.2771882195074040e+03 0.0000000000000000e+00  -5.2693524671754002e+00 -1.6276375987590509e+02 0.0000000000000000e+00  3.2705099840611942e+03 -1.7812027427838584e+03 0.0000000000000000e+00  5.3425074863214616e+02 -1.1085986324917510e+03 0.0000000000000000e+00  2.6181782946829821e+03 -1.7171556296170270e+03 0.0000000000000000e+00  3.5050886914777625e+03 -9.3916365605475193e+01 0.0000000000000000e+00  3.4247119864731567e+03 -1.4800396124785216e+03 0.0000000000000000e+00  2.9861272648041063e+02 -1.0303806141624307e+03 0.0000000000000000e+00  2.0363470426586714e+03 -2.0824397415212547e+03 0.0000000000000000e+00  1.0856602925695095e+03 2.0808129351150714e+02 0.0000000000000000e+00  -4.3130432673186469e+01 7.9907046724747460e+01 0.0000000000000000e+00  -2.8307169359298946e+01 1.1910442466637080e+02 0.0000000000000000e+00  2.4575534799516327e+03 -5.8726312034043428e+02 0.0000000000000000e+00  2.5969161732014395e+03 6.0061301158707352e+02 0.0000000000000000e+00  3.3082779536846388e+03 -1.5503746276664440e+03 0.0000000000000000e+00  1.4496968410305326e+03 -1.9732007636765447e+03 0.0000000000000000e+00  4.0242186500267626e+03 -8.5909409016565201e+02 0.0000000000000000e+00  1.1776255820016427e+03 -1.8958195259937022e+03 0.0000000000000000e+00  2.4161237263412781e+03 1.3377124764931136e+03 0.0000000000000000e+00  3.0879488792382299e+03 1.8369445929957806e+03 0.0000000000000000e+00  2.7346075628312295e+01 -2.2796631485698782e+02 0.0000000000000000e+00  2.3257734835094243e+02 -8.7934540231753272e+02 0.0000000000000000e+00  3.4640272965588001e+03 -1.4007970852781948e+03 0.0000000000000000e+00  1.4827124213614804e+03 -1.9929862843488866e+03 0.0000000000000000e+00  1.8015751830427839e+03 -2.3937491662414991e+03 0.0000000000000000e+00  1.3995748902572602e+00 2.9832422600548409e+02 0.0000000000000000e+00  2.2078523064095805e+01 2.0421881240227921e+02 0.0000000000000000e+00  1.4419281804209952e+03 -1.4805066948092754e+03 0.0000000000000000e+00  3.9579539790396814e+02 -9.4177603447980027e+02 0.0000000000000000e+00  3.2969604862341600e+02 9.0401833441297879e+02 0.0000000000000000e+00  1.3610581644583781e+03 1.5471610102115337e+03 0.0000000000000000e+00  1.1309877809574559e+01 1.0401398106004515e+02 0.0000000000000000e+00  6.3233723635227000e+02 1.1274544386276143e+03 0.0000000000000000e+00  1.0005621750375585e+02 5.4052960822537455e+02 0.0000000000000000e+00  1.4839335669293605e+03 1.7157558050897019e+03 0.0000000000000000e+00  2.6152030428453622e+03 1.3916179118311686e+03 0.0000000000000000e+00  4.3719475642507869e+03 7.0516938788211144e+02 0.0000000000000000e+00  2.5890069463633949e+03 -1.4115893649277682e+03 0.0000000000000000e+00  1.5227862366807369e+03 -1.7339334839750468e+03 0.0000000000000000e+00  4.4634586312676893e+03 -6.6980044504303942e+02 0.0000000000000000e+00  4.8805515491175902e+02 1.3655364484553991e+03 0.0000000000000000e+00  3.7121240088309823e+03 1.4997288016248424e+03 0.0000000000000000e+00  -2.2648219561606888e+00 -5.9531507056943035e+01 0.0000