<?xml version="1.0"?>
<VTKFile type="UnstructuredGrid"  version="0.1"  >
<UnstructuredGrid>
<Piece  NumberOfPoints="2549" NumberOfCells="4928">
<Points>
<DataArray  type="Float64"  NumberOfComponents="3"  format="ascii">1.641287276127883 -0.03796496512400975 0  1.638200679567517 0.00967738036414385 0  1.631429479372065 0.05681315257158899 0  1.623056949883108 0.1040682921068371 0  1.611664219378097 0.1509838010750857 0  1.597992352133399 0.1977498779125562 0  1.580955027513308 0.2438199193345153 0  1.562383755443377 0.2897140418039771 0  1.538154814808353 0.3329850886562961 0  1.512674236570172 0.3746592894115209 0  1.489137819827125 0.4209023782087808 0  1.460310656074919 0.4628144843754554 0  1.430945111372765 0.5051185302117829 0  1.399569922683555 0.5460871626814676 0  1.366623460215651 0.5863079015294563 0  1.332177789995065 0.6255071514009219 0  1.295857520843655 0.6629966465200089 0  1.259428407333173 0.6991228458405251 0  1.222965298922132 0.7398701483190272 0  1.184363820845659 0.7772165570956342 0  1.145187099539427 0.8153874157133695 0  1.104711772748088 0.8525437515681624 0  1.063406721219375 0.8897072665126405 0  1.020582334559099 0.9258534707577926 0  0.9762526605639946 0.9606506515028804 0  0.9313189580993453 0.9939414472882979 0  0.8850994640065737 1.026789284991826 0  0.8378424686535642 1.058754669951416 0  0.789602640440123 1.089954300822495 0  0.740230664118098 1.119904997773312 0  0.6898132041673791 1.148625699921477 0  0.6383601119445897 1.175926259599499 0  0.5856883866811079 1.201182331787365 0  0.5321778476204875 1.224567673882751 0  0.4777547381770983 1.246470946080933 0  0.4223770297269344 1.266045208153632 0  0.3662244127150163 1.283531898194567 0  0.309322239933095 1.298623891320344 0  0.2517814917557056 1.311295214816611 0  0.1937224757871897 1.321470630894167 0  0.1351711862183085 1.328760254084362 0  0.07642115759597062 1.333392055233127 0  0.01747806785811548 1.335575278442409 0  -0.04149845687623772 1.334922322718533 0  -0.1003956917123374 1.331538592606144 0  -0.1590613663846682 1.325333173545701 0  -0.2173730624860473 1.316422949772893 0  -0.2751744300246023 1.304632218228134 0  -0.3323581436937633 1.29048968903193 0  -0.3889286215873952 1.273692420725639 0  -0.4445056929106285 1.254038975503675 0  -0.4991498496326169 1.232036277754875 0  -0.5528103342697485 1.207979557649031 0  -0.6052784736156316 1.181704767690882 0  -0.6568339045719065 1.15410460228601 0  -0.7069556836735176 1.124170455858472 0  -0.7559686765624086 1.09395462260313 0  -0.8041942616024701 1.062138715018006 0  -0.8506846053516287 1.028248238570433 0  -0.8959023281902289 0.9933627029973684 0  -0.9400722442683894 0.9580278353221693 0  -0.982766500582567 0.9214971186743169 0  -1.024922507546752 0.8856606559780538 0  -1.064380077098431 0.8460239552002039 0  -1.103764003327546 0.810567216153801 0  -1.142686867125293 0.7750071707002554 0  -1.180297583621356 0.7382701404902218 0  -1.217229070521256 0.7020427356653227 0  -1.252916429738362 0.6649762907154404 0  -1.288235514134077 0.6296136964414342 0  -1.32332801111304 0.5931162019569622 0  -1.35833044048043 0.5599762421966316 0  -1.393282501859487 0.522869342825079 0  -1.417768445679015 0.4763962792942775 0  -1.451015823180972 0.4350800787287318 0  -1.476572025168318 0.3900593255924475 0  -1.499965965360149 0.3437552339158991 0  -1.516723355021238 0.29455980575422 0  -1.535204857007491 0.247357184754246 0  -1.536100795321672 0.192903246964542 0  -1.550777861961503 0.1485524541101226 0  -1.56249235010818 0.1017805816610467 0  -1.555435475169554 0.05375225968834323 0  -1.559928375264117 0.00746209719521162 0  -1.559033099201608 -0.03855157745660259 0  -1.561101154744823 -0.08455372336867155 0  -1.558411242094219 -0.1310718062837576 0  -1.56353972379742 -0.1795596884001962 0  -1.553956787858525 -0.2267591393308669 0  -1.541079725597902 -0.2718188355887894 0  -1.54030523070981 -0.327175926989849 0  -1.522912684117206 -0.3750817593174693 0  -1.506529437947769 -0.4249749086278868 0  -1.483265806773862 -0.471528071941176 0  -1.457642634775979 -0.5167221254759914 0  -1.425461270240775 -0.5583805529425174 0  -1.400428561686328 -0.6048206636132635 0  -1.364900409128774 -0.6418354126032889 0  -1.33010144962596 -0.6755823458592859 0  -1.294768163993654 -0.712000867466419 0  -1.259384664687188 -0.747444463763262 0  -1.22383644018462 -0.7848645814905518 0  -1.187111737039804 -0.8215938782025082 0  -1.149733122902888 -0.8589603756940128 0  -1.111133568218351 -0.8952792293400901 0  -1.071901966502676 -0.9316701932018991 0  -1.033206404215153 -0.9735737549060125 0  -0.9910591194568019 -1.010690890837383 0  -0.948473268551873 -1.04873003878528 0  -0.9043873096332946 -1.085700588774944 0  -0.8591941005489639 -1.122236645849708 0  -0.8125909930978643 -1.157733267414378 0  -0.764566457654615 -1.19172217541896 0  -0.7152198554442193 -1.224574886365305 0  -0.6653091254863369 -1.258401426376598 0  -0.6130384868239267 -1.288170678166104 0  -0.5600904108495179 -1.316733789333483 0  -0.5057667091833074 -1.342805275927236 0  -0.4504069672981378 -1.366655777815428 0  -0.3941183885536015 -1.388121713885489 0  -0.3365324001411276 -1.406033880600591 0  -0.2784144329113371 -1.421025600261346 0  -0.2196416368434684 -1.433800835976153 0  -0.1602703768263907 -1.443376735089829 0  -0.1005004698444885 -1.450071353135262 0  -0.04045003336161276 -1.453640747162753 0  0.01971151482386034 -1.454137126908907 0  0.07982965825886955 -1.451464642764559 0  0.1397395127900771 -1.445634342475783 0  0.1992238720573356 -1.436862881725999 0  0.2582166630728893 -1.425438940233997 0  0.3165856102920308 -1.411322970474746 0  0.3742524773086479 -1.3947263682041 0  0.4310615393060655 -1.37561073834211 0  0.4870490095777875 -1.354525037781708 0  0.5419498225851627 -1.33087701477841 0  0.595867576836119 -1.306272044806201 0  0.6490697861081804 -1.279659901599276 0  0.7007487796969648 -1.25052019792172 0  0.7513959542492273 -1.220131533740377 0  0.8008955665719476 -1.188531670222363 0  0.849219188589195 -1.155770248120654 0  0.8964862728512214 -1.122284574613385 0  0.9426642299291244 -1.08802548893679 0  0.9875244766499748 -1.053445550945975 0  1.031755948047292 -1.017361047974025 0  1.074425297287746 -0.979938741609614 0  1.115561085413195 -0.9416198827102111 0  1.155802192589579 -0.9032996225498712 0  1.19470370005673 -0.8639986957988088 0  1.233058490793227 -0.825660181356784 0  1.269095784557182 -0.783725759118974 0  1.305175160161003 -0.7468084429355935 0  1.341337166403377 -0.7087745873562024 0  1.375409418626303 -0.6687836360610848 0  1.408053041443922 -0.6279451624163145 0  1.439113769866639 -0.5863618195369539 0  1.468142238802119 -0.543445038650846 0  1.496543697473763 -0.5009203283753962 0  1.519718401708585 -0.4540902964112618 0  1.544840493875361 -0.4119861792066908 0  1.568586758344872 -0.3682001771739117 0  1.586597307921928 -0.3217691749321963 0  1.602949176167831 -0.275209583841986 0  1.615892890908344 -0.2279840886843067 0  1.62632183264183 -0.1806222637816575 0  1.633754973892846 -0.133059608178983 0  1.639295741084357 -0.08566347937065918 0  -0.08216427266520158 0.7969308038344409 0  0.6185319186820375 -0.7176019370339728 0  -0.7302786409644815 -0.6285825613683675 0  -0.05841636939983398 -0.8880820036138081 0  0.614344944141768 0.621189441420217 0  1.168525469839454 0.203427292162045 0  -0.7428152076033654 0.528217653629095 0  -1.21497608380905 -0.04336475729565036 0  1.172743764657222 -0.2865342437445911 0  -1.019707532514022 -0.4547193886460359 0  -0.7802475951473693 -0.05826692411888348 0  -0.4585298480629292 -0.2321298110605388 0  -1.030270040502507 0.348994951515553 0  0.2980807213430519 -0.8652707774705094 0  0.1532633931696811 -0.2926796635355491 0  0.2616632553607576 0.7586669871088174 0  0.3543406566641321 0.2024020643251628 0  0.6700447251200254 -0.04270681594447271 0  -0.3940105409031386 -0.7810747793052915 0  -0.4306833336957597 0.7027442146216142 0  -0.2580012617325773 0.2582921002423741 0  0.9253270223209332 -0.4919712701989092 0  0.9211848902884824 0.4049778452416454 0  0.4222311080306647 -0.3235557546825862 0  0.04637977611590531 0.2536436088812662 0  -0.5219930557815491 0.1976014102740775 0  -0.1555027497360351 -0.2850872213662293 0  0.9542869704481662 -0.04229636072028062 0  1.362549875048886 -0.03992774093315789 0  0.7722501854854334 -0.6019206438624485 0  0.7890397628594678 -0.2766709998875082 0  0.6350062957029318 -0.3770348574768482 0  0.5448072182735472 -0.1792764281052926 0  0.5145744137781696 -0.5257161648958226 0  0.9327849585572189 -0.2655496538375654 0  0.8114944550102979 -0.04247879573095752 0  -0.8969179176766595 0.1545249244657638 0  -1.118271317349924 0.148892932896719 0  -0.9997235994654502 -0.04991784781781181 0  -0.8915221415145447 -0.2650418056690549 0  -1.113519540133845 -0.2442556179628946 0  -1.288672792346794 -0.3369019657892963 0  -1.376676507585719 -0.1530513129978188 0  -1.374633874195718 0.07041067876367108 0  -1.284199250902076 0.2529238249357609 0  -0.1075370370435589 -0.5862035718198052 0  -0.2681366040115398 -0.5389104047096439 0  -0.2275193628140348 -0.8399215962808281 0  -0.3064711479695742 -0.2596963895908588 0  -0.422585307058105 -0.5042047179812189 0  -1.206791028041307 -0.5339482084844696 0  -1.208207811325889 0.4417106710988646 0  0.3590014399759099 -0.5919499799148706 0  0.2869575877600968 -0.3097164088951744 0  0.2202060060619743 -0.5819317223838811 0  -0.8859614582940148 0.4344303805036272 0  -0.7521924123982382 0.2328529680980281 0  1.356520575781405 -0.3597641610171542 0  1.227379893001254 -0.5244035336070362 0  1.220627145973474 0.4410971773059355 0  1.3510457927754 0.2789501011350978 0  -0.7351019887616285 -0.9115492136516111 0  -0.910284064509278 -0.7770076474723864 0  -0.9131556283312732 0.6842065193015284 0  -0.7384819407838502 0.8119806052013764 0  0.7899215423854826 -0.899976036622347 0  0.6001025367908625 -1.012200650083702 0  0.5934327803203576 0.9119907066654207 0  0.7826434563786607 0.8054330696333305 0  0.03010755024799582 -1.172600
[...]
<PointData  Vectors="f_48"> 
<DataArray  type="Float64"  Name="f_48"  NumberOfComponents="3" format="ascii">-8.9287629124426352e-10 -1.0207779643564341e-07 0.0000000000000000e+00  2.8473593566826767e-07 -3.5093404714268143e-07 0.0000000000000000e+00  4.7844954113195289e-07 -5.5065223682315047e-07 0.0000000000000000e+00  6.5776789309212434e-07 -7.3851477528297393e-07 0.0000000000000000e+00  8.1733004009613328e-07 -8.4326484181635699e-07 0.0000000000000000e+00  1.4569898106545708e-06 -8.1369581351049097e-07 0.0000000000000000e+00  1.2153798639728783e-06 -9.2464876126983957e-07 0.0000000000000000e+00  1.4683494787664705e-06 -1.5084361810303586e-06 0.0000000000000000e+00  3.8674888001435321e-06 2.5313505506591581e-06 0.0000000000000000e+00  1.7916404444045801e-06 -1.9471083750507847e-06 0.0000000000000000e+00  2.1550023138036059e-06 -1.7112282995487879e-06 0.0000000000000000e+00  4.0628794660026118e-06 3.0467317229733565e-06 0.0000000000000000e+00  2.8317725536233887e-06 -1.0747626359436389e-06 0.0000000000000000e+00  3.7275804250878480e-06 2.0796350189441780e-06 0.0000000000000000e+00  3.4787305134483268e-06 1.0231222148838036e-06 0.0000000000000000e+00  3.6185721276445143e-06 1.4945547465675798e-06 0.0000000000000000e+00  3.6741819531166385e-06 6.1908843979733293e-06 0.0000000000000000e+00  3.9419704695967940e-06 -1.8679539396944879e-07 0.0000000000000000e+00  3.5743610843421652e-06 -4.0552609023147866e-07 0.0000000000000000e+00  3.6053500562642649e-06 4.9596875300431457e-06 0.0000000000000000e+00  3.6965368102165618e-06 2.7238895144314490e-07 0.0000000000000000e+00  3.4357319211713459e-06 2.8449009151332579e-06 0.0000000000000000e+00  3.6103039527214429e-06 2.9939724779629002e-07 0.0000000000000000e+00  3.1307068236008854e-06 2.6807932412638946e-06 0.0000000000000000e+00  2.8875148880611995e-06 2.9065130429811853e-06 0.0000000000000000e+00  2.8300752471821374e-06 2.6194988550288646e-06 0.0000000000000000e+00  2.7921274291770572e-06 2.2212585534418252e-06 0.0000000000000000e+00  2.7693644317387368e-06 1.7652787805460361e-06 0.0000000000000000e+00  2.7640684758609370e-06 1.3810869196937476e-06 0.0000000000000000e+00  2.4188131772991626e-06 1.6445042214493557e-06 0.0000000000000000e+00  2.6265259137838460e-06 9.0357907235941028e-07 0.0000000000000000e+00  2.2883244901193316e-06 1.1654584001460257e-06 0.0000000000000000e+00  1.4623358730555778e-06 1.8357290732892748e-06 0.0000000000000000e+00  1.8330113549232845e-06 1.0812604781898132e-06 0.0000000000000000e+00  1.5796473174296463e-06 1.0882914126945319e-06 0.0000000000000000e+00  1.0983804237711646e-06 1.1462952909231528e-06 0.0000000000000000e+00  1.0893510720589993e-06 9.0123092314014180e-07 0.0000000000000000e+00  6.5045440870225030e-07 8.7221446851037712e-07 0.0000000000000000e+00  5.9757931465570613e-07 6.2198809535078572e-07 0.0000000000000000e+00  2.5204279581208056e-07 4.9345982105971525e-07 0.0000000000000000e+00  5.5530083391940467e-08 2.5815309042547011e-07 0.0000000000000000e+00  -2.5766127560785059e-08 1.0499209301858826e-09 0.0000000000000000e+00  -4.6001880331410818e-08 -2.8146825978574485e-07 0.0000000000000000e+00  -4.2434108495170396e-09 -5.4192379343063321e-07 0.0000000000000000e+00  1.1339656956046637e-07 -8.0422515623742572e-07 0.0000000000000000e+00  1.8533590177204057e-07 -1.0394858164035123e-06 0.0000000000000000e+00  5.3436400089212928e-07 -1.2076719429654026e-06 0.0000000000000000e+00  7.4564833354749901e-07 -1.3487056035453590e-06 0.0000000000000000e+00  6.8040365888609770e-07 -1.6474329526410356e-06 0.0000000000000000e+00  1.5515524017250347e-06 -1.3578755527401751e-06 0.0000000000000000e+00  2.2247494815696486e-06 -9.5916447466987066e-07 0.0000000000000000e+00  1.8176135944818880e-06 -1.5511263920504849e-06 0.0000000000000000e+00  2.8142551193330765e-06 -7.4104523280445985e-07 0.0000000000000000e+00  2.1576054236395029e-06 -1.6596685042911304e-06 0.0000000000000000e+00  2.9165343458591446e-06 -1.0529331272647962e-06 0.0000000000000000e+00  3.2046118534874483e-06 -5.3995465785031718e-07 0.0000000000000000e+00  2.1411675933319289e-06 -3.1605636293445141e-06 0.0000000000000000e+00  3.2407821115595864e-06 -1.0619195357491498e-06 0.0000000000000000e+00  3.8307975866679500e-06 7.8743691370033853e-07 0.0000000000000000e+00  3.0346850662126258e-06 -2.6404844830462125e-06 0.0000000000000000e+00  4.0324624471755185e-06 1.2160503279934477e-06 0.0000000000000000e+00  2.9133509450463896e-06 -4.8732016871284992e-06 0.0000000000000000e+00  3.9531848600791352e-06 8.8647229012378314e-07 0.0000000000000000e+00  4.1910763242539511e-06 2.8078716738051170e-06 0.0000000000000000e+00  3.3018057253165712e-06 -6.7543558093306615e-06 0.0000000000000000e+00  3.8541664661586006e-06 -1.4654641260916199e-07 0.0000000000000000e+00  3.8548897265565366e-06 -2.8162030728391432e-06 0.0000000000000000e+00  3.6996457038690943e-06 -1.0223214799520303e-06 0.0000000000000000e+00  4.0715136453592616e-06 -2.3387842934223701e-06 0.0000000000000000e+00  3.2870757558615999e-06 -2.6365153488241993e-06 0.0000000000000000e+00  4.2449045894052073e-06 -2.0764193231669574e-06 0.0000000000000000e+00  2.6108166444022224e-06 -1.0833365712424267e-05 0.0000000000000000e+00  2.0943105328484417e-06 5.6428971555873222e-06 0.0000000000000000e+00  2.0043277759017141e-06 2.3415236956287564e-06 0.0000000000000000e+00  5.0749161860207069e-06 -4.5065915694560243e-06 0.0000000000000000e+00  1.5579921887724407e-06 1.4394040660107766e-07 0.0000000000000000e+00  1.4107592163527144e-06 2.0633589065645524e-06 0.0000000000000000e+00  3.9576066599846467e-06 -2.1929879407183634e-06 0.0000000000000000e+00  -4.2094195141555679e-07 2.2235294910101203e-06 0.0000000000000000e+00  -4.9671134915799888e-07 1.1770547597773838e-06 0.0000000000000000e+00  2.0102902864195479e-06 -7.3224449791042426e-07 0.0000000000000000e+00  -1.2851659330386539e-06 1.0298581162595612e-06 0.0000000000000000e+00  -4.3756992516907843e-07 2.2742574608729894e-07 0.0000000000000000e+00  5.6269661630102040e-07 1.6984711521394770e-07 0.0000000000000000e+00  -2.1890427683217436e-07 8.8988261764038657e-08 0.0000000000000000e+00  1.8189976533633754e-07 -9.3301600333041829e-08 0.0000000000000000e+00  -2.3683353994523415e-07 -7.9773250046041656e-08 0.0000000000000000e+00  -1.2467286187060565e-06 -7.6561056674353359e-07 0.0000000000000000e+00  1.6762421019730256e-06 3.5723355137406986e-07 0.0000000000000000e+00  -5.9278225217299024e-07 -9.6653735876988134e-07 0.0000000000000000e+00  -3.7653104191861550e-07 -1.9435731557885229e-06 0.0000000000000000e+00  3.3544764291934062e-06 1.6340201755778780e-06 0.0000000000000000e+00  1.3360569196183196e-06 -1.8743257738603964e-06 0.0000000000000000e+00  1.7214092926435297e-06 1.2468222288762850e-07 0.0000000000000000e+00  4.9897717086204003e-06 4.0912751146821481e-06 0.0000000000000000e+00  1.3349301755293255e-06 -2.3831587424304756e-06 0.0000000000000000e+00  2.8066888800554032e-06 -4.5751923320922406e-06 0.0000000000000000e+00  2.4070132750793699e-06 9.8930636491256581e-06 0.0000000000000000e+00  4.0348034777245305e-06 1.5967443767112298e-06 0.0000000000000000e+00  3.2702284309591615e-06 3.4494507124299036e-06 0.0000000000000000e+00  3.9552645941719987e-06 2.0105393815482862e-06 0.0000000000000000e+00  3.5859154559190253e-06 8.2137803230409057e-07 0.0000000000000000e+00  3.7759331351971771e-06 2.7366227857481649e-06 0.0000000000000000e+00  3.7429092217206938e-06 -5.0754358322593241e-07 0.0000000000000000e+00  3.2435158367874380e-06 7.2968637410606103e-06 0.0000000000000000e+00  3.9802011080669061e-06 -4.0207717175939508e-06 0.0000000000000000e+00  3.8112622029828053e-06 -2.2164774677907069e-06 0.0000000000000000e+00  2.7018213934051885e-06 5.7519581129962131e-06 0.0000000000000000e+00  3.9268722650099197e-06 -2.0282898824747442e-06 0.0000000000000000e+00  3.0046114867128353e-06 2.0554286553897611e-06 0.0000000000000000e+00  3.5150616716786259e-06 -3.8585112549120307e-07 0.0000000000000000e+00  3.2693009632476555e-06 1.1353650023179921e-07 0.0000000000000000e+00  2.1150849913923547e-06 3.2360733606429312e-06 0.0000000000000000e+00  4.0843342082605791e-06 -2.7667902798199066e-06 0.0000000000000000e+00  3.8695021116095449e-06 -9.3208344710898490e-07 0.0000000000000000e+00  1.3488294392076303e-06 2.1313906370763251e-06 0.0000000000000000e+00  3.7769018539918498e-06 -9.0829718615648490e-07 0.0000000000000000e+00  1.7385693014139159e-06 1.2764816107382641e-06 0.0000000000000000e+00  3.0232983079483752e-06 -1.8086362244798361e-07 0.0000000000000000e+00  2.0556879035978209e-06 7.9427894722629939e-07 0.0000000000000000e+00  4.0128009166437708e-07 1.6238230756732180e-06 0.0000000000000000e+00  1.0389993832787527e-06 1.0520886403356941e-06 0.0000000000000000e+00  7.9788512420712724e-07 1.0047664226150980e-06 0.0000000000000000e+00  3.0300705753856412e-07 9.1801294088890885e-07 0.0000000000000000e+00  2.9190791588034641e-07 7.2253792394992595e-07 0.0000000000000000e+00  3.6430482514790359e-08 5.1840546346512474e-07 0.0000000000000000e+00  1.0903709897692330e-08 2.9069368612768434e-07 0.0000000000000000e+00  -6.9555142661587301e-08 4.3129802186911147e-08 0.0000000000000000e+00  1.2893143761822907e-07 -1.7220825641481838e-07 0.0000000000000000e+00  2.4567771442714853e-07 -3.8005126971512262e-07 0.0000000000000000e+00  4.9051988892791193e-07 -5.5090372328409479e-07 0.0000000000000000e+00  6.0340244656567983e-07 -7.4550619152278504e-07 0.0000000000000000e+00  1.0995335100667653e-06 -7.2971854973178059e-07 0.0000000000000000e+00  9.5748261424394673e-07 -1.0656716196200691e-06 0.0000000000000000e+00  1.5916939582949354e-06 -8.8590579805714892e-07 0.0000000000000000e+00  1.8594803231596166e-06 -8.1715778529183965e-07 0.0000000000000000e+00  9.7826145968062536e-07 -2.2289270935110919e-06 0.0000000000000000e+00  2.4808869944229692e-06 -6.4729466261900463e-07 0.0000000000000000e+00  2.7975215885939072e-06 -1.8444041003098945e-07 0.0000000000000000e+00  2.4187993147335778e-06 -1.3795781357612430e-06 0.0000000000000000e+00  2.8102105465127227e-06 -8.8154200631244352e-07 0.0000000000000000e+00  2.7681977745484121e-06 -1.4304099183086445e-06 0.0000000000000000e+00  2.8271868467381059e-06 -1.7729104009217002e-06 0.0000000000000000e+00  2.8254772503930937e-06 -2.3301449130741354e-06 0.0000000000000000e+00  2.8602826382665717e-06 -2.7019139441722193e-06 0.0000000000000000e+00  3.1140660903036151e-06 -2.3035227587944655e-06 0.0000000000000000e+00  3.4637979384015251e-06 -9.7531727627517151e-08 0.0000000000000000e+00  3.3692507689341048e-06 -2.6894345746745608e-06 0.0000000000000000e+00  3.5355036493316061e-06 1.5645934174498184e-07 0.0000000000000000e+00  3.5912531569921264e-06 -4.7949533017848766e-06 0.0000000000000000e+00  3.3814521445442286e-06 5.9877805525870917e-07 0.0000000000000000e+00  3.7017800699870372e-06 8.4474063144296630e-07 0.0000000000000000e+00  3.6586970995163771e-06 -6.2577404192425398e-06 0.0000000000000000e+00  3.4908128455618450e-06 -1.3547365288642117e-06 0.0000000000000000e+00  3.2508136918409276e-06 -7.2967582124936643e-07 0.0000000000000000e+00  3.6103164345723530e-06 -2.0201735678383971e-06 0.0000000000000000e+00  2.6192674824078930e-06 1.0516332871417619e-06 0.0000000000000000e+00  3.8487931247237739e-06 -2.7064356521330415e-06 0.0000000000000000e+00  1.9077310990563245e-06 1.6627954364259982e-06 0.0000000000000000e+00  1.6831739735250549e-06 1.7089532838833756e-06 0.0000000000000000e+00  3.5447838631530639e-06 -2.1979250019193921e-06 0.0000000000000000e+00  1.2652673980999246e-06 1.3873615635462575e-06 0.0000000000000000e+00  1.0322018214938206e-06 8.3295974128787609e-07 0.0000000000000000e+00  1.2216632600299623e-06 7.1615610628510487e-07 0.0000000000000000e+00  6.0765133797649547e-07 7.1827080689123086e-07 0.0000000000000000e+00  4.5671161959011654e-07 5.6930286854533879e-07 0.0000000000000000e+00  3.1251709207240679e-07 3.7376060056856672e-07 0.0000000000000000e+00  -5.3764125033403976e-08 1.5632299472808810e-07 0.0000000000000000e+00  3.1392167830230994e+02 -1.5825138419065700e+03 0.0000000000000000e+00  4.0220589877313791e+03 -5.4509862187698775e+02 0.0000000000000000e+00  4.4012796396471213e+03 -6.9425960063049752e+02 0.0000000000000000e+00  1.9987514808850682e+02 1.3279044592376472e+03 0.0000000000000000e+00  4.0267166063681793e+03 5.9134801472599281e+02 0.0000000000000000e+00  1.0764734105819105e+03 -1.6349797022199480e+03 0.0000000000000000e+00  4.4384500263403488e+03 7.3862920251809533e+02 0.0000000000000000e+00  -9.2369052795381990e+00 6.7000301316999867e+01 0.0000000000000000e+00  8.9948684904105221e+02 1.4569280510795304e+03 0.0000000000000000e+00  2.3922880889460057e+03 -1.7875365605088741e+03 0.0000000000000000e+00  -1.7645924107517285e+01 -9.0110806919221716e+01 0.0000000000000000e+00  1.4522880428748808e+03 -1.6235473285954220e+03 0.0000000000000000e+00  2.3634912019676331e+03 1.8655223807147622e+03 0.0000000000000000e+00  1.5161022468346875e+03 -1.8379178165878272e+03 0.0000000000000000e+00  6.5799937890778847e+02 -2.1986721525960334e+02 0.0000000000000000e+00  1.1885167980295021e+03 1.6665528303732885e+03 0.0000000000000000e+00  1.5843653413355564e+03 -7.2031489365658592e+02 0.0000000000000000e+00  -2.9844308207559735e+01 -6.1499774425232097e+01 0.0000000000000000e+00  3.5857426998596156e+03 2.3151705630899519e+03 0.0000000000000000e+00  3.7196521009675980e+03 -2.2324495834698823e+03 0.0000000000000000e+00  2.4576228359853749e+03 -1.3705299440320042e+02 0.0000000000000000e+00  2.9208302041239631e+03 1.7381792495995905e+03 0.0000000000000000e+00  3.1091972951737362e+03 -1.7444343352924213e+03 0.0000000000000000e+00  2.0606249076609956e+03 1.0221579286991769e+03 0.0000000000000000e+00  -1.1212734201808530e+02 -2.2708123825642832e+02 0.0000000000000000e+00  2.1063803961092767e+03 1.8230894092056349e+03 0.0000000000000000e+00  1.5393602349340633e+03 3.7677857344244774e+02 0.0000000000000000e+00  -7.5480096587171372e+00 -1.2720781030914186e+02 0.0000000000000000e+00  -2.4595600827362882e+00 -1.1202660282991800e+02 0.0000000000000000e+00  3.8669474549752113e+03 9.1296408086204690e+02 0.0000000000000000e+00  1.3060080856089237e+03 1.8785189747380534e+03 0.0000000000000000e+00  2.5195388134147065e+03 1.7204078595357762e+03 0.0000000000000000e+00  6.2784699236163067e+02 1.2628131381039868e+03 0.0000000000000000e+00  3.6039134645504741e+03 2.6472389116444077e+02 0.0000000000000000e+00  1.0234849851042034e+03 1.7447649276159527e+03 0.0000000000000000e+00  -1.4111667991663635e+01 -1.0061713402740941e+02 0.0000000000000000e+00  1.0269970263254563e+03 1.8915334241634839e+03 0.0000000000000000e+00  6.8651848912722107e+02 1.4697127476728369e+03 0.0000000000000000e+00  -1.0031062957545705e+01 2.4349675537411276e+01 0.0000000000000000e+00  1.1286675743390358e+03 -1.8927414193454181e+03 0.0000000000000000e+00  6.6628984242016656e+02 -1.3946737303198195e+03 0.0000000000000000e+00  7.8202905333583897e+02 -1.0766842015410687e+03 0.0000000000000000e+00  6.8452103194645645e+01 -3.6572007546048280e+02 0.0000000000000000e+00  9.0300082026121288e+01 4.5010484487652241e+02 0.0000000000000000e+00  8.5824285382723838e+02 1.1514260801646051e+03 0.0000000000000000e+00  8.8630908820570630e+02 1.9509301251327563e+03 0.0000000000000000e+00  3.0958548784209625e+03 1.7811478145479648e+03 0.0000000000000000e+00  1.6954790515382815e+03 2.5963987027251537e+03 0.0000000000000000e+00  1.8807045265223810e+03 -9.3669565189788773e+02 0.0000000000000000e+00  4.1799130070389920e+03 1.9479689027501681e+02 0.0000000000000000e+00  1.7748372508321190e+03 -9.0328010061784755e+02 0.0000000000000000e+00  1.8246016936258920e+03 9.4019970738120173e+02 0.0000000000000000e+00  2.8461019525750503e+03 -1.1726584869141900e+03 0.0000000000000000e+00  1.6005708244221071e+03 3.1669295540546523e+02 0.0000000000000000e+00  1.3584047210076155e+03 -1.3178742317274966e+03 0.0000000000000000e+00  3.4988011385496748e+03 1.6602595921382378e+03 0.0000000000000000e+00  2.0932851049010060e+03 2.2309559494097107e+03 0.0000000000000000e+00  8.9215627687105280e+02 9.7037671099460067e+02 0.0000000000000000e+00  1.8178033050251377e+03 1.0147119107211679e+03 0.0000000000000000e+00  1.9761943505469449e+03 -1.0306799487979831e+03 0.0000000000000000e+00  1.0318248244971796e+03 -1.0573530490346614e+03 0.0000000000000000e+00  3.1744712022013441e+03 6.8090147420442702e+02 0.0000000000000000e+00  3.1188966540687434e+03 -1.9681210460810311e+02 0.0000000000000000e+00  3.2009933203430087e+03 1.3183298411396078e+02 0.0000000000000000e+00  3.2522314006645124e+03 -7.7197087672819202e+02 0.0000000000000000e+00  2.9464703364402822e+03 -5.8128751521965364e+02 0.0000000000000000e+00  2.3361115737509631e+03 -1.2854237894389064e+03 0.0000000000000000e+00  2.3423717724371986e+03 1.3631754995395222e+03 0.0000000000000000e+00  2.9933913779306745e+03 6.7545446062004601e+02 0.0000000000000000e+00  -1.4570306691195668e+01 2.3440133844292566e+02 0.0000000000000000e+00  5.0503371604530145e+02 1.3693206268633076e+03 0.0000000000000000e+00  5.4644867502555098e+02 -1.4372148781191925e+03 0.0000000000000000e+00  -1.0118355632460947e+01 -3.1652983388926441e+02 0.0000000000000000e+00  3.1242729756661074e+03 -1.6694515115980173e+03 0.0000000000000000e+00  5.4526325912333289e+02 -1.1198591172348672e+03 0.0000000000000000e+00  2.5765419708945824e+03 -1.7024301095259718e+03 0.0000000000000000e+00  3.3813231360415107e+03 -1.2775398034296504e+02 0.0000000000000000e+00  3.7080416899684483e+03 -1.5170000576840368e+03 0.0000000000000000e+00  3.5821793833826592e+02 -1.1738160250154094e+03 0.0000000000000000e+00  2.2037457253824459e+03 -2.1973659481621089e+03 0.0000000000000000e+00  9.6584167532735160e+02 1.6606662390865773e+02 0.0000000000000000e+00  -2.9759965660751245e+01 3.8510289247776285e+01 0.0000000000000000e+00  -2.5435010034472050e+01 4.3256086897286366e+01 0.0000000000000000e+00  2.5563642659239431e+03 -5.8450721519016452e+02 0.0000000000000000e+00  2.6618662960985648e+03 5.9026391929880333e+02 0.0000000000000000e+00  3.4862480202655411e+03 -1.5884806074295111e+03 0.0000000000000000e+00  1.4498851608616760e+03 -1.9736817035723141e+03 0.0000000000000000e+00  3.9691457176367499e+03 -8.5773061141337485e+02 0.0000000000000000e+00  1.1859835404879373e+03 -1.9054287189840077e+03 0.0000000000000000e+00  2.2538683272112339e+03 1.1827542710470020e+03 0.0000000000000000e+00  2.9621061458716354e+03 1.7150228136383814e+03 0.0000000000000000e+00  -2.9904640940670195e+01 1.0222518246038774e+02 0.0000000000000000e+00  1.7290157166516749e+02 -6.2862515221243882e+02 0.0000000000000000e+00  3.6941566139102861e+03 -1.6246059684416848e+03 0.0000000000000000e+00  1.6024389180256399e+03 -2.3462803736702276e+03 0.0000000000000000e+00  1.9258050456286778e+03 -2.6755335727434913e+03 0.0000000000000000e+00  -7.6500015028179895e+00 2.1144974349179554e+02 0.0000000000000000e+00  3.9039053386847762e+01 4.6979737003621653e+02 0.0000000000000000e+00  1.3753869461088773e+03 -1.4076608352484670e+03 0.0000000000000000e+00  3.5190755517125126e+02 -8.2893741845407806e+02 0.0000000000000000e+00  2.8796835191800915e+02 7.7436043299111236e+02 0.0000000000000000e+00  1.2967476406233015e+03 1.4626943780744541e+03 0.0000000000000000e+00  -9.4832308943917482e+01 1.0314979911683554e+02 0.0000000000000000e+00  5.1328823178851974e+02 8.4591126871861366e+02 0.0000000000000000e+00  5.1542321305870409e+01 2.6382694422745715e+02 0.0000000000000000e+00  1.5780227640661815e+03 1.8618800228172704e+03 0.0000000000000000e+00  2.7489901936858710e+03 1.5003032428032577e+03 0.0000000000000000e+00  4.6318483744737223e+03 8.2354696223579856e+02 0.0000000000000000e+00  2.7013876121669286e+03 -1.5135452732187809e+03 0.0000000000000000e+00  1.6099742841859231e+03 -1.8777006183893932e+03 0.0000000000000000e+00  4.6618751355003587e+03 -7.6773925273001964e+02 0.0000000000000000e+00  4.8069872948136288e+02 1.3542165440556760e+03 0.0000000000000000e+00  3.8657495842326375e+03 1.5130390361236011e+03 0.0000000000000000e+00  -2.1309310829578352e+00 -6.6993611975886850e+01 0.0