<?xml version="1.0"?>
<VTKFile type="UnstructuredGrid"  version="0.1"  >
<UnstructuredGrid>
<Piece  NumberOfPoints="2549" NumberOfCells="4928">
<Points>
<DataArray  type="Float64"  NumberOfComponents="3"  format="ascii">1.641287276127883 -0.03796496512400975 0  1.638200679567517 0.00967738036414385 0  1.631429479372065 0.05681315257158899 0  1.623056949883108 0.1040682921068371 0  1.611664219378097 0.1509838010750857 0  1.597992352133399 0.1977498779125562 0  1.580955027513308 0.2438199193345153 0  1.562383755443377 0.2897140418039771 0  1.538154814808353 0.3329850886562961 0  1.512674236570172 0.3746592894115209 0  1.489137819827125 0.4209023782087808 0  1.460310656074919 0.4628144843754554 0  1.430945111372765 0.5051185302117829 0  1.399569922683555 0.5460871626814676 0  1.366623460215651 0.5863079015294563 0  1.332177789995065 0.6255071514009219 0  1.295857520843655 0.6629966465200089 0  1.259428407333173 0.6991228458405251 0  1.222965298922132 0.7398701483190272 0  1.184363820845659 0.7772165570956342 0  1.145187099539427 0.8153874157133695 0  1.104711772748088 0.8525437515681624 0  1.063406721219375 0.8897072665126405 0  1.020582334559099 0.9258534707577926 0  0.9762526605639946 0.9606506515028804 0  0.9313189580993453 0.9939414472882979 0  0.8850994640065737 1.026789284991826 0  0.8378424686535642 1.058754669951416 0  0.789602640440123 1.089954300822495 0  0.740230664118098 1.119904997773312 0  0.6898132041673791 1.148625699921477 0  0.6383601119445897 1.175926259599499 0  0.5856883866811079 1.201182331787365 0  0.5321778476204875 1.224567673882751 0  0.4777547381770983 1.246470946080933 0  0.4223770297269344 1.266045208153632 0  0.3662244127150163 1.283531898194567 0  0.309322239933095 1.298623891320344 0  0.2517814917557056 1.311295214816611 0  0.1937224757871897 1.321470630894167 0  0.1351711862183085 1.328760254084362 0  0.07642115759597062 1.333392055233127 0  0.01747806785811548 1.335575278442409 0  -0.04149845687623772 1.334922322718533 0  -0.1003956917123374 1.331538592606144 0  -0.1590613663846682 1.325333173545701 0  -0.2173730624860473 1.316422949772893 0  -0.2751744300246023 1.304632218228134 0  -0.3323581436937633 1.29048968903193 0  -0.3889286215873952 1.273692420725639 0  -0.4445056929106285 1.254038975503675 0  -0.4991498496326169 1.232036277754875 0  -0.5528103342697485 1.207979557649031 0  -0.6052784736156316 1.181704767690882 0  -0.6568339045719065 1.15410460228601 0  -0.7069556836735176 1.124170455858472 0  -0.7559686765624086 1.09395462260313 0  -0.8041942616024701 1.062138715018006 0  -0.8506846053516287 1.028248238570433 0  -0.8959023281902289 0.9933627029973684 0  -0.9400722442683894 0.9580278353221693 0  -0.982766500582567 0.9214971186743169 0  -1.024922507546752 0.8856606559780538 0  -1.064380077098431 0.8460239552002039 0  -1.103764003327546 0.810567216153801 0  -1.142686867125293 0.7750071707002554 0  -1.180297583621356 0.7382701404902218 0  -1.217229070521256 0.7020427356653227 0  -1.252916429738362 0.6649762907154404 0  -1.288235514134077 0.6296136964414342 0  -1.32332801111304 0.5931162019569622 0  -1.35833044048043 0.5599762421966316 0  -1.393282501859487 0.522869342825079 0  -1.417768445679015 0.4763962792942775 0  -1.451015823180972 0.4350800787287318 0  -1.476572025168318 0.3900593255924475 0  -1.499965965360149 0.3437552339158991 0  -1.516723355021238 0.29455980575422 0  -1.535204857007491 0.247357184754246 0  -1.536100795321672 0.192903246964542 0  -1.550777861961503 0.1485524541101226 0  -1.56249235010818 0.1017805816610467 0  -1.555435475169554 0.05375225968834323 0  -1.559928375264117 0.00746209719521162 0  -1.559033099201608 -0.03855157745660259 0  -1.561101154744823 -0.08455372336867155 0  -1.558411242094219 -0.1310718062837576 0  -1.56353972379742 -0.1795596884001962 0  -1.553956787858525 -0.2267591393308669 0  -1.541079725597902 -0.2718188355887894 0  -1.54030523070981 -0.327175926989849 0  -1.522912684117206 -0.3750817593174693 0  -1.506529437947769 -0.4249749086278868 0  -1.483265806773862 -0.471528071941176 0  -1.457642634775979 -0.5167221254759914 0  -1.425461270240775 -0.5583805529425174 0  -1.400428561686328 -0.6048206636132635 0  -1.364900409128774 -0.6418354126032889 0  -1.33010144962596 -0.6755823458592859 0  -1.294768163993654 -0.712000867466419 0  -1.259384664687188 -0.747444463763262 0  -1.22383644018462 -0.7848645814905518 0  -1.187111737039804 -0.8215938782025082 0  -1.149733122902888 -0.8589603756940128 0  -1.111133568218351 -0.8952792293400901 0  -1.071901966502676 -0.9316701932018991 0  -1.033206404215153 -0.9735737549060125 0  -0.9910591194568019 -1.010690890837383 0  -0.948473268551873 -1.04873003878528 0  -0.9043873096332946 -1.085700588774944 0  -0.8591941005489639 -1.122236645849708 0  -0.8125909930978643 -1.157733267414378 0  -0.764566457654615 -1.19172217541896 0  -0.7152198554442193 -1.224574886365305 0  -0.6653091254863369 -1.258401426376598 0  -0.6130384868239267 -1.288170678166104 0  -0.5600904108495179 -1.316733789333483 0  -0.5057667091833074 -1.342805275927236 0  -0.4504069672981378 -1.366655777815428 0  -0.3941183885536015 -1.388121713885489 0  -0.3365324001411276 -1.406033880600591 0  -0.2784144329113371 -1.421025600261346 0  -0.2196416368434684 -1.433800835976153 0  -0.1602703768263907 -1.443376735089829 0  -0.1005004698444885 -1.450071353135262 0  -0.04045003336161276 -1.453640747162753 0  0.01971151482386034 -1.454137126908907 0  0.07982965825886955 -1.451464642764559 0  0.1397395127900771 -1.445634342475783 0  0.1992238720573356 -1.436862881725999 0  0.2582166630728893 -1.425438940233997 0  0.3165856102920308 -1.411322970474746 0  0.3742524773086479 -1.3947263682041 0  0.4310615393060655 -1.37561073834211 0  0.4870490095777875 -1.354525037781708 0  0.5419498225851627 -1.33087701477841 0  0.595867576836119 -1.306272044806201 0  0.6490697861081804 -1.279659901599276 0  0.7007487796969648 -1.25052019792172 0  0.7513959542492273 -1.220131533740377 0  0.8008955665719476 -1.188531670222363 0  0.849219188589195 -1.155770248120654 0  0.8964862728512214 -1.122284574613385 0  0.9426642299291244 -1.08802548893679 0  0.9875244766499748 -1.053445550945975 0  1.031755948047292 -1.017361047974025 0  1.074425297287746 -0.979938741609614 0  1.115561085413195 -0.9416198827102111 0  1.155802192589579 -0.9032996225498712 0  1.19470370005673 -0.8639986957988088 0  1.233058490793227 -0.825660181356784 0  1.269095784557182 -0.783725759118974 0  1.305175160161003 -0.7468084429355935 0  1.341337166403377 -0.7087745873562024 0  1.375409418626303 -0.6687836360610848 0  1.408053041443922 -0.6279451624163145 0  1.439113769866639 -0.5863618195369539 0  1.468142238802119 -0.543445038650846 0  1.496543697473763 -0.5009203283753962 0  1.519718401708585 -0.4540902964112618 0  1.544840493875361 -0.4119861792066908 0  1.568586758344872 -0.3682001771739117 0  1.586597307921928 -0.3217691749321963 0  1.602949176167831 -0.275209583841986 0  1.615892890908344 -0.2279840886843067 0  1.62632183264183 -0.1806222637816575 0  1.633754973892846 -0.133059608178983 0  1.639295741084357 -0.08566347937065918 0  -0.08216427266520158 0.7969308038344409 0  0.6185319186820375 -0.7176019370339728 0  -0.7302786409644815 -0.6285825613683675 0  -0.05841636939983398 -0.8880820036138081 0  0.614344944141768 0.621189441420217 0  1.168525469839454 0.203427292162045 0  -0.7428152076033654 0.528217653629095 0  -1.21497608380905 -0.04336475729565036 0  1.172743764657222 -0.2865342437445911 0  -1.019707532514022 -0.4547193886460359 0  -0.7802475951473693 -0.05826692411888348 0  -0.4585298480629292 -0.2321298110605388 0  -1.030270040502507 0.348994951515553 0  0.2980807213430519 -0.8652707774705094 0  0.1532633931696811 -0.2926796635355491 0  0.2616632553607576 0.7586669871088174 0  0.3543406566641321 0.2024020643251628 0  0.6700447251200254 -0.04270681594447271 0  -0.3940105409031386 -0.7810747793052915 0  -0.4306833336957597 0.7027442146216142 0  -0.2580012617325773 0.2582921002423741 0  0.9253270223209332 -0.4919712701989092 0  0.9211848902884824 0.4049778452416454 0  0.4222311080306647 -0.3235557546825862 0  0.04637977611590531 0.2536436088812662 0  -0.5219930557815491 0.1976014102740775 0  -0.1555027497360351 -0.2850872213662293 0  0.9542869704481662 -0.04229636072028062 0  1.362549875048886 -0.03992774093315789 0  0.7722501854854334 -0.6019206438624485 0  0.7890397628594678 -0.2766709998875082 0  0.6350062957029318 -0.3770348574768482 0  0.5448072182735472 -0.1792764281052926 0  0.5145744137781696 -0.5257161648958226 0  0.9327849585572189 -0.2655496538375654 0  0.8114944550102979 -0.04247879573095752 0  -0.8969179176766595 0.1545249244657638 0  -1.118271317349924 0.148892932896719 0  -0.9997235994654502 -0.04991784781781181 0  -0.8915221415145447 -0.2650418056690549 0  -1.113519540133845 -0.2442556179628946 0  -1.288672792346794 -0.3369019657892963 0  -1.376676507585719 -0.1530513129978188 0  -1.374633874195718 0.07041067876367108 0  -1.284199250902076 0.2529238249357609 0  -0.1075370370435589 -0.5862035718198052 0  -0.2681366040115398 -0.5389104047096439 0  -0.2275193628140348 -0.8399215962808281 0  -0.3064711479695742 -0.2596963895908588 0  -0.422585307058105 -0.5042047179812189 0  -1.206791028041307 -0.5339482084844696 0  -1.208207811325889 0.4417106710988646 0  0.3590014399759099 -0.5919499799148706 0  0.2869575877600968 -0.3097164088951744 0  0.2202060060619743 -0.5819317223838811 0  -0.8859614582940148 0.4344303805036272 0  -0.7521924123982382 0.2328529680980281 0  1.356520575781405 -0.3597641610171542 0  1.227379893001254 -0.5244035336070362 0  1.220627145973474 0.4410971773059355 0  1.3510457927754 0.2789501011350978 0  -0.7351019887616285 -0.9115492136516111 0  -0.910284064509278 -0.7770076474723864 0  -0.9131556283312732 0.6842065193015284 0  -0.7384819407838502 0.8119806052013764 0  0.7899215423854826 -0.899976036622347 0  0.6001025367908625 -1.012200650083702 0  0.5934327803203576 0.9119907066654207 0  0.7826434563786607 0.8054330696333305 0  0.03010755024799582 -1.172600
[...]
<PointData  Vectors="f_6739"> 
<DataArray  type="Float64"  Name="f_6739"  NumberOfComponents="3" format="ascii">4.4934202807724387e-02 5.4734332357095675e-04 0.0000000000000000e+00  5.5460931165061934e-02 5.7822313063284570e-03 0.0000000000000000e+00  4.9882294405614015e-02 7.9784711499383213e-03 0.0000000000000000e+00  5.6259196904230639e-02 1.1879854723557914e-02 0.0000000000000000e+00  5.6708557797117871e-02 1.5098016182786233e-02 0.0000000000000000e+00  7.2887320095919389e-02 2.4325937587285518e-02 0.0000000000000000e+00  5.2784244252533648e-02 1.9880545497037633e-02 0.0000000000000000e+00  2.8615751446132737e-02 1.4645748008386144e-02 0.0000000000000000e+00  1.3731525112110776e-01 7.8844816025242417e-02 0.0000000000000000e+00  9.7517584397936841e-02 5.4819248414550305e-02 0.0000000000000000e+00  -1.3419303802469522e-02 -8.0674962111150252e-03 0.0000000000000000e+00  1.4859730867951152e-02 1.0284072549596355e-02 0.0000000000000000e+00  3.1983628195896702e-02 2.3559911755522873e-02 0.0000000000000000e+00  8.2516671918124007e-02 6.5420158162360756e-02 0.0000000000000000e+00  6.9262408122068228e-02 5.8817291726306696e-02 0.0000000000000000e+00  8.4737133449594965e-02 7.8224579284557602e-02 0.0000000000000000e+00  8.5695849709693295e-02 8.3856076699054538e-02 0.0000000000000000e+00  1.7735601383484508e-02 1.6946846424306737e-02 0.0000000000000000e+00  -5.5089497849566994e-03 -5.4854537923308896e-03 0.0000000000000000e+00  -1.5900188292461991e-02 -1.6191299365309820e-02 0.0000000000000000e+00  5.0752891431435675e-03 5.3973842432515134e-03 0.0000000000000000e+00  1.1892697679023602e-02 1.3104425257600999e-02 0.0000000000000000e+00  4.7147924303175322e-03 5.4949615585803517e-03 0.0000000000000000e+00  3.7812145093142006e-02 4.6554409743791991e-02 0.0000000000000000e+00  2.8628510243276187e-02 3.7374911779766158e-02 0.0000000000000000e+00  1.4309730076113159e-02 1.9672949408735155e-02 0.0000000000000000e+00  6.8847015719877376e-03 9.9076995438399235e-03 0.0000000000000000e+00  -1.3594425671562438e-03 -2.0935829012991430e-03 0.0000000000000000e+00  -6.7672838076093950e-03 -1.0808328595083537e-02 0.0000000000000000e+00  -7.5176808321268740e-03 -1.2813897225469311e-02 0.0000000000000000e+00  -1.5981236020473740e-02 -2.9166967881609059e-02 0.0000000000000000e+00  -1.5552735185603997e-02 -3.0711135120343663e-02 0.0000000000000000e+00  -7.1432406749508759e-03 -1.5585779620321953e-02 0.0000000000000000e+00  -1.3922013145784300e-02 -3.3327853542688406e-02 0.0000000000000000e+00  -1.5417276907929290e-02 -4.0753107419082807e-02 0.0000000000000000e+00  -1.1862134687431138e-02 -3.5768741771430551e-02 0.0000000000000000e+00  -1.2432053485651280e-02 -4.3115656624587509e-02 0.0000000000000000e+00  -9.2588708010565551e-03 -3.8148012212362796e-02 0.0000000000000000e+00  -8.2090179297608767e-03 -4.1572884034250919e-02 0.0000000000000000e+00  -5.4118264529594111e-03 -3.5935672395486638e-02 0.0000000000000000e+00  -3.3530845982828409e-03 -3.2950922557558070e-02 0.0000000000000000e+00  -1.8198376081883533e-03 -3.1238640517303878e-02 0.0000000000000000e+00  -3.8392784445858802e-04 -3.0150105405935754e-02 0.0000000000000000e+00  9.9630495215969283e-04 -2.9318252165867906e-02 0.0000000000000000e+00  2.3616515068858399e-03 -2.8844784488509672e-02 0.0000000000000000e+00  3.3827058282127945e-03 -2.6233908523099540e-02 0.0000000000000000e+00  5.3764483257218781e-03 -3.0018950305503476e-02 0.0000000000000000e+00  6.1481100667698102e-03 -2.7369358676841780e-02 0.0000000000000000e+00  5.3957982582915473e-03 -1.9752878747062566e-02 0.0000000000000000e+00  1.3596283595021337e-02 -4.1509078129837361e-02 0.0000000000000000e+00  1.9717451945030509e-02 -5.2322123678772044e-02 0.0000000000000000e+00  1.3262546211154684e-02 -3.1248064153131722e-02 0.0000000000000000e+00  2.4519777557933716e-02 -5.1631453833455902e-02 0.0000000000000000e+00  1.0489058006471269e-02 -2.0498534271865390e-02 0.0000000000000000e+00  1.8787024342094557e-02 -3.3048617079000350e-02 0.0000000000000000e+00  8.3607014145385405e-03 -1.4006542048849159e-02 0.0000000000000000e+00  -1.3680144782788676e-02 2.1363553175455841e-02 0.0000000000000000e+00  6.7690811170301041e-03 -9.5115917188967163e-03 0.0000000000000000e+00  2.2664787085916908e-02 -3.0365135900660097e-02 0.0000000000000000e+00  -2.7893681005748015e-03 3.5448615343507410e-03 0.0000000000000000e+00  3.0872682490559921e-02 -3.7256397807308959e-02 0.0000000000000000e+00  2.7730191138199779e-02 -3.2373301725138554e-02 0.0000000000000000e+00  5.1226236945785084e-02 -5.5715409171429878e-02 0.0000000000000000e+00  -1.0902678329101184e-01 1.1522434983640330e-01 0.0000000000000000e+00  -2.2602613435763561e-02 2.4525438015838605e-02 0.0000000000000000e+00  -8.8496302621173788e-03 9.3451913716918085e-03 0.0000000000000000e+00  -1.0648480293628828e-02 1.0938185974085805e-02 0.0000000000000000e+00  -2.1448630359135090e-02 2.1218899473743006e-02 0.0000000000000000e+00  8.5892426923552829e-03 -8.3832598131620591e-03 0.0000000000000000e+00  -2.7701494982093181e-02 2.7412847236937442e-02 0.0000000000000000e+00  9.4903465302043841e-03 -1.0018359266349431e-02 0.0000000000000000e+00  -3.1088401897960510e-01 3.0958418109196900e-01 0.0000000000000000e+00  8.1349222719459902e-01 -5.8445852328000258e-01 0.0000000000000000e+00  -2.3175461900403851e-01 1.5094049437948051e-01 0.0000000000000000e+00  -7.7572783763233044e-01 5.1867463506422773e-01 0.0000000000000000e+00  -1.2299105918562127e-01 6.6738154821420953e-02 0.0000000000000000e+00  1.5208207380150685e-02 -3.7177655329808852e-03 0.0000000000000000e+00  2.0109428726822751e-01 -7.1766958942736464e-02 0.0000000000000000e+00  3.4689580948512194e-01 -7.1430054751511235e-02 0.0000000000000000e+00  -2.6863959494457362e-01 4.8625330731235233e-02 0.0000000000000000e+00  -1.1489596054717377e-01 3.2212644671726326e-02 0.0000000000000000e+00  4.4361191410043915e-01 -2.3864523607029176e-02 0.0000000000000000e+00  -1.1045596323696630e-01 -3.7937391403558237e-03 0.0000000000000000e+00  -7.9831226312896131e-02 2.2468410576791569e-03 0.0000000000000000e+00  -4.2401309995363227e-02 5.9198110965861367e-04 0.0000000000000000e+00  -3.4839926766839308e-02 -2.1136806329741914e-05 0.0000000000000000e+00  -4.7502632806467437e-02 2.3900909203989351e-03 0.0000000000000000e+00  3.2234051596201080e-01 1.6025564795072438e-02 0.0000000000000000e+00  -1.0667473496042144e-01 -2.4715559503249222e-02 0.0000000000000000e+00  -2.3971036615559915e-01 -3.7465941055201485e-02 0.0000000000000000e+00  2.6058433592423930e-01 4.9189972574821578e-02 0.0000000000000000e+00  1.1108408282846276e-01 3.8043424709540266e-02 0.0000000000000000e+00  -5.1644821297287882e-03 -4.7944162767704418e-03 0.0000000000000000e+00  -1.3197030291641965e-01 -7.0249769919740704e-02 0.0000000000000000e+00  -6.4510835623442797e-01 -4.2272198645058173e-01 0.0000000000000000e+00  -2.5756632276759728e-01 -1.6561445012293441e-01 0.0000000000000000e+00  5.8767126636427169e-01 4.2776536483527428e-01 0.0000000000000000e+00  -1.4315121706338579e-01 -1.4186341610888231e-01 0.0000000000000000e+00  -1.7319921410931832e-02 -1.7116676948253192e-02 0.0000000000000000e+00  -2.6211712785854907e-02 -2.5995782176851820e-02 0.0000000000000000e+00  1.7851467443676588e-02 1.7437364362265961e-02 0.0000000000000000e+00  -1.5047325787247665e-02 -1.4654787685188051e-02 0.0000000000000000e+00  -4.9275847982276234e-03 -4.9612196224915655e-03 0.0000000000000000e+00  2.4758649414198474e-03 2.5501848615945557e-03 0.0000000000000000e+00  -2.7876908159119463e-02 -2.9042770522224367e-02 0.0000000000000000e+00  -1.9453192252682205e-01 -1.9523569428387400e-01 0.0000000000000000e+00  1.2997752519442640e-01 1.3387025186953797e-01 0.0000000000000000e+00  5.2663285978428717e-02 5.8829223686768566e-02 0.0000000000000000e+00  4.0568858935765159e-02 4.6782360337639148e-02 0.0000000000000000e+00  9.0274081580807048e-04 1.1416591911365401e-03 0.0000000000000000e+00  2.0380282174935940e-02 2.6007895548169381e-02 0.0000000000000000e+00  1.8048883246283332e-02 2.4534820987659713e-02 0.0000000000000000e+00  -1.2012674833394365e-02 -1.7576523406935520e-02 0.0000000000000000e+00  -1.3773638026444568e-02 -1.9803105674862261e-02 0.0000000000000000e+00  8.8325686886949861e-02 1.4153399727712659e-01 0.0000000000000000e+00  1.5572866532976551e-02 2.8590268212203809e-02 0.0000000000000000e+00  5.2919717130947133e-02 1.0366551301825987e-01 0.0000000000000000e+00  1.9731315110276360e-02 4.3425615425231372e-02 0.0000000000000000e+00  3.5092817159049362e-02 8.7022937174416115e-02 0.0000000000000000e+00  2.6385304145381927e-02 7.5464938935010537e-02 0.0000000000000000e+00  4.3343851552228385e-03 1.5078684067745547e-02 0.0000000000000000e+00  8.0433924069215380e-03 3.4116309217207923e-02 0.0000000000000000e+00  7.6379421150041841e-03 4.0150911746394333e-02 0.0000000000000000e+00  4.0617888119298005e-03 2.9815109573725952e-02 0.0000000000000000e+00  2.8195872980160824e-03 3.2670194186636754e-02 0.0000000000000000e+00  9.4357425149785800e-04 2.7782882740831499e-02 0.0000000000000000e+00  -4.9968005158187794e-04 2.8027459728365754e-02 0.0000000000000000e+00  -1.8407169889576261e-03 2.5972961115520676e-02 0.0000000000000000e+00  -3.9020995768552025e-03 3.1774922719958083e-02 0.0000000000000000e+00  -5.6399374186945949e-03 3.3096474953954014e-02 0.0000000000000000e+00  -8.0038102218648391e-03 3.6717707151133691e-02 0.0000000000000000e+00  -9.3093143543436507e-03 3.5185227235574046e-02 0.0000000000000000e+00  -1.3307711670922241e-02 4.2605422314279828e-02 0.0000000000000000e+00  -1.1221400348364871e-02 3.1597088584072799e-02 0.0000000000000000e+00  -1.7015972135752393e-02 4.2095244265413390e-02 0.0000000000000000e+00  -1.2803500556915119e-02 2.9078598038313395e-02 0.0000000000000000e+00  -1.0892091844411579e-03 2.2599200822925125e-03 0.0000000000000000e+00  -2.4037577033621225e-02 4.4959769779754508e-02 0.0000000000000000e+00  -2.1515445998110758e-02 3.7237766237466503e-02 0.0000000000000000e+00  -1.0471461648342589e-02 1.6912736047986276e-02 0.0000000000000000e+00  -1.1208710836421543e-02 1.7067555797913053e-02 0.0000000000000000e+00  -4.0413991345719640e-03 5.8624264047440634e-03 0.0000000000000000e+00  2.9338011539879155e-03 -4.0237771059597706e-03 0.0000000000000000e+00  1.1244729423657292e-02 -1.4821454901846208e-02 0.0000000000000000e+00  2.6987094686180383e-02 -3.3877685384820402e-02 0.0000000000000000e+00  3.3948206045670740e-02 -4.0237013568937240e-02 0.0000000000000000e+00  3.3704247343137399e-03 -3.7910912544770669e-03 0.0000000000000000e+00  1.2519723336099868e-02 -1.3315256505869212e-02 0.0000000000000000e+00  2.2787864242984369e-04 -2.6460446905999944e-04 0.0000000000000000e+00  -2.2366080135466121e-02 2.2049594439216214e-02 0.0000000000000000e+00  -9.1612887420160806e-03 8.7073387879562317e-03 0.0000000000000000e+00  3.8603353293514733e-02 -3.5544584953716860e-02 0.0000000000000000e+00  6.1733388510120828e-02 -5.8769902972575075e-02 0.0000000000000000e+00  8.8098649349843239e-02 -7.9321007207365526e-02 0.0000000000000000e+00  6.1768663761478673e-02 -5.1013269205228390e-02 0.0000000000000000e+00  8.1280250879310401e-02 -6.2869149808464406e-02 0.0000000000000000e+00  3.2685236679358853e-02 -2.3432549287266180e-02 0.0000000000000000e+00  2.0736224668590778e-02 -1.3977707189146484e-02 0.0000000000000000e+00  -1.4733341264881919e-02 8.6176022808894717e-03 0.0000000000000000e+00  8.2157857165665177e-02 -4.4966721309266600e-02 0.0000000000000000e+00  1.3617848743364228e-01 -7.6045734477556609e-02 0.0000000000000000e+00  2.9101516350730931e-02 -1.4336872146527645e-02 0.0000000000000000e+00  5.1744909425553653e-02 -1.8618970479166344e-02 0.0000000000000000e+00  6.8302643209173328e-02 -2.1524888020521132e-02 0.0000000000000000e+00  5.3385170131145361e-02 -1.3145757093219933e-02 0.0000000000000000e+00  5.0283002561928483e-02 -9.5014625236468832e-03 0.0000000000000000e+00  4.6955843636127002e-02 -6.4529115918305381e-03 0.0000000000000000e+00  3.4460881502604901e-02 -2.6706036116623598e-03 0.0000000000000000e+00  1.8401095367639596e-09 -2.3036017521983098e-08 0.0000000000000000e+00  -6.8297745675555700e-09 1.0830977248639468e-08 0.0000000000000000e+00  1.5448398665726132e-08 1.7625887427624718e-08 0.0000000000000000e+00  1.9681282494156934e-09 2.2393285965279311e-08 0.0000000000000000e+00  -4.6313001853384246e-09 -7.8129715364828863e-09 0.0000000000000000e+00  2.8158661166078705e-08 2.1455723533645025e-08 0.0000000000000000e+00  1.0486532319484016e-08 -1.2663858168996863e-08 0.0000000000000000e+00  -4.6708416960917378e-08 -2.0636666888125708e-09 0.0000000000000000e+00  2.8364097281779634e-08 -2.1029079247254332e-08 0.0000000000000000e+00  -3.7951529870988960e-09 -4.2581393272142758e-09 0.0000000000000000e+00  7.8788806188431369e-15 -6.7552577494642424e-15 0.0000000000000000e+00  9.2075340077841497e-15 1.4223424202920666e-14 0.0000000000000000e+00  -7.7889916585279651e-09 8.5061683564236763e-09 0.0000000000000000e+00  -8.1679904086807983e-09 2.6466048063345629e-08 0.0000000000000000e+00  -3.8858861440928380e-15 3.1370377609346851e-14 0.0000000000000000e+00  -7.7594831376883425e-09 -2.7177318761248509e-08 0.0000000000000000e+00  -1.0590235602628706e-14 -2.3701654292979881e-14 0.0000000000000000e+00  1.5317857022313207e-14 1.8898593341331709e-15 0.0000000000000000e+00  1.9636464268372913e-08 3.9121805470260449e-08 0.0000000000000000e+00  1.1403736704347542e-08 -2.4711848364308968e-08 0.0000000000000000e+00  8.1674247631691079e-15 -2.8947421151143720e-14 0.0000000000000000e+00  -6.7722800341041733e-11 -1.5504711475684759e-10 0.0000000000000000e+00  1.4456267177673100e-09 1.7601078253217674e-09 0.0000000000000000e+00  -1.3647307036552172e-14 2.8425567353148505e-14 0.0000000000000000e+00  -3.4239027524854086e-15 -3.1686732464294433e-14 0.0000000000000000e+00  6.6720512935666782e-15 -1.0680892608899505e-14 0.0000000000000000e+00  1.0886921581383800e-14 3.4538084817160850e-14 0.0000000000000000e+00  7.2213329073979593e-14 2.5985517623659513e-15 0.0000000000000000e+00  8.3693439948770152e-08 1.2798676578998994e-09 0.0000000000000000e+00  6.8129004850378579e-09 -8.3500077924805456e-09 0.0000000000000000e+00  5.7165996046648559e-12 -6.7912131440117147e-12 0.0000000000000000e+00  -6.3940210307298141e-13 1.5002257781906147e-12 0.0000000000000000e+00  -8.0440291903009867e-15 1.3161969814271841e-14 0.0000000000000000e+00  -1.1743225806185119e-11 2.0816444891245516e-11 0.0000000000000000e+00  3.5266470534468370e-12 -3.1255152080534796e-12 0.0000000000000000e+00  4.3706615484209912e-15 1.6503189850053403e-15 0.0000000000000000e+00  -1.8813517419478884e-11 2.3448318455557171e-11 0.0000000000000000e+00  7.6246949547462058e-08 -5.2505209083060702e-08 0.0000000000000000e+00  -2.5539948714897987e-10 1.1471938841797746e-11 0.0000000000000000e+00  -1.4961008701861925e-11 -1.7281213066384281e-11 0.0000000000000000e+00  4.8842247625523976e-08 3.7681056643076966e-08 0.0000000000000000e+00  -1.5207896407423824e-04 -9.6393514742964151e-05 0.0000000000000000e+00  3.8744570045449199e-05 1.1723544331455521e-05 0.0000000000000000e+00  4.9971223644294734e-05 -1.8595424639071533e-05 0.0000000000000000e+00  -1.8690278077266120e-04 1.2202356886076450e-04 0.0000000000000000e+00  5.0886616650757051e-12 2.6218769777415325e-11 0.0000000000000000e+00  1.6952925038288994e-11 4.1481230680771797e-11 0.0000000000000000e+00  7.5687380466696466e-09 2.4256005310941855e-08 0.0000000000000000e+00  2.3144101536229071e-14 4.6220191277002986e-14 0.0000000000000000e+00  2.2965353344109702e-11 3.9216520652743100e-11 0.0000000000000000e+00  -4.5039897839659338e-06 -7.0626496890948788e-06 0.0000000000000000e+00  2.3576314881038238e-06 1.8604296843764864e-06 0.0000000000000000e+00  -1.0687683374550940e-11 2.7218863797385822e-11 0.0000000000000000e+00  -1.0320171094770855e-14 3.3595229085709306e-14 0.0000000000000000e+00  -6.4438316194690513e-12 2.9409162924027551e-11 0.0000000000000000e+00  -1.1535375414933763e-08 1.2163317158171691e-08 0.0000000000000000e+00  4.3264515216050848e-12 -5.4796178322505999e-12 0.0000000000000000e+00  9.4078346124695321e-06 -5.5694650454187815e-06 0.0000000000000000e+00  2.8294108868652002e-05 -2.3664645831654336e-05 0.0000000000000000e+00  3.0444658375515684e-05 2.6153559783509922e-05 0.0000000000000000e+00  9.9477657458108236e-06 5.9696286364566987e-06 0.0000000000000000e+00  7.7492794419050572e-06 9.8447460551689600e-06 0.0000000000000000e+00  3.2744184885259490e-05 3.4390818050492304e-05 0.0000000000000000e+00  1.2538811539906950e-05 -1.4038880048513276e-05 0.0000000000000000e+00  7.0183398617733376e-06 -9.2234980534861837e-06 0.0000000000000000e+00  -6.5593859279661655e-07 1.1619864614625210e-06 0.0000000000000000e+00  -9.4561990286349974e-06 1.6409741664336972e-05 0.0000000000000000e+00  -7.3446842370712029e-06 -1.3559621546306075e-05 0.0000000000000000e+00  7.1236748524612962e-07 7.6554393836740282e-07 0.0000000000000000e+00  -3.1556630384019066e-07 1.8323017992305176e-05 0.0000000000000000e+00  3.8943376688864776e-06 2.0601215877321242e-05 0.0000000000000000e+00  3.2082329347961731e-06 -1.8101277493117025e-05 0.0000000000000000e+00  -2.7677266233754610e-07 -2.0212435811336454e-05 0.0000000000000000e+00  -8.5089763125973463e-09 1.7547684265611289e-08 0.0000000000000000e+00  -5.8515655328340693e-15 -1.0279627622902764e-14 0.0000000000000000e+00  9.6639240806416951e-13 8.2964234344220745e-13 0.0000000000000000e+00  -8.3052838328641730e-12 -1.5691545654057788e-11 0.0000000000000000e+00  9.4633558681978384e-12 1.2017278539592100e-11 0.0000000000000000e+00  1.8894522993442674e-14 2.1677882329067803e-14 0.0000000000000000e+00  1.3772058242660614e-11 1.5326639980400872e-11 0.0000000000000000e+00  -9.4750785956792183e-15 -3.3405865709374283e-14 0.0000000000000000e+00  -7.7907504124285005e-18 -4.8953200342019450e-18 0.0000000000000000e+00  -2.0147515156622129e-17 -3.7767651067885975e-19 0.0000000000000000e+00  -4.4706870803293408e-06 -4.4485113675326856e-06 0.0000000000000000e+00  -6.6704785272951669e-06 6.8231472732475901e-06 0.0000000000000000e+00  -1.5629641308854040e-08 -1.5608147754448183e-08 0.0000000000000000e+00  6.6757234168844459e-12 8.2010938417962177e-12 0.0000000000000000e+00  7.7893786572113244e-09 9.9693725871275024e-09 0.0000000000000000e+00  3.7912038192247001e-12 3.5548718730502933e-12 0.0000000000000000e+00  -9.9111294767836951e-12 -2.6955203057152613e-11 0.0000000000000000e+00  -7.9143308506707783e-09 -1.7479751296365570e-08 0.0000000000000000e+00  -4.1484913219985855e-13 2.3847400923367516e-11 0.0000000000000000e+00  -2.6777268864045114e-09 2.1621083616732764e-08 0.0000000000000000e+00  1.1540329600054912e-11 -3.0733559857399930e-11 0.0000000000000000e+00  4.3012729013147603e-12 -2.4256648142384895e-11 0.0000000000000000e+00  5.8463192322338188e-09 -2.0725047177647840e-08 0.0000000000000000e+00  -3.6666140131747239e-17 3.3705085145410331e-17 0.0000000000000000e+00  2.5885776720953281e-15 2.8907959691609831e-14 0.0000000000000000e+00  -8.2952852695660965e-06 2.0995402469311555e-05 0.0000000000000000e+00  -4.6472989560335488e-06 2.1188737132474117e-05 0.0000000000000000e+00  -4.7046046801063635e-06 -2.3611352034780197e-05 0.0000000000000000e+00  -7.6323784810468258e-06 -2.0549057574775506e-05 0.0000000000000000e+00  6.1953065290623895e-18 1.2520143706640092e-18 0.0000000000000000e+00  -6.0100875736407541e-12 -3.0251220331995652e-11 0.0000000000000000e+00  -2.6479955435358807e-09 -2.4834138153025740e-08 0.0000000000000000e+00  1.3536268002343734e-05 3.2975204037699512e-05 0.0000000000000000e+00  2.5547349903463610e-05 4.2631156362671806e-05 0.0000000000000000e+00  5.0748887219770863e-09 7.8198700589062295e-09 0.0000000000000000e+00  7.9134344587083726e-06 -1.4539458945483953e-05 0.0000000000000000e+00  8.4446651209417934e-06 -2.2264169660970876e-05 0.0000000000000000e+00  2.8616292567127431e-09 -4.5398031316230848e-09 0.0000000000000000e+00  1.1089300119160417e-14 -1.3522904782524779e-14 0.0000000000000000e+00  7.6061149910355657e-12 -1.006046