<?xml version="1.0"?>
<VTKFile type="UnstructuredGrid"  version="0.1"  >
<UnstructuredGrid>
<Piece  NumberOfPoints="2549" NumberOfCells="4928">
<Points>
<DataArray  type="Float64"  NumberOfComponents="3"  format="ascii">1.641287276127883 -0.03796496512400975 0  1.638200679567517 0.00967738036414385 0  1.631429479372065 0.05681315257158899 0  1.623056949883108 0.1040682921068371 0  1.611664219378097 0.1509838010750857 0  1.597992352133399 0.1977498779125562 0  1.580955027513308 0.2438199193345153 0  1.562383755443377 0.2897140418039771 0  1.538154814808353 0.3329850886562961 0  1.512674236570172 0.3746592894115209 0  1.489137819827125 0.4209023782087808 0  1.460310656074919 0.4628144843754554 0  1.430945111372765 0.5051185302117829 0  1.399569922683555 0.5460871626814676 0  1.366623460215651 0.5863079015294563 0  1.332177789995065 0.6255071514009219 0  1.295857520843655 0.6629966465200089 0  1.259428407333173 0.6991228458405251 0  1.222965298922132 0.7398701483190272 0  1.184363820845659 0.7772165570956342 0  1.145187099539427 0.8153874157133695 0  1.104711772748088 0.8525437515681624 0  1.063406721219375 0.8897072665126405 0  1.020582334559099 0.9258534707577926 0  0.9762526605639946 0.9606506515028804 0  0.9313189580993453 0.9939414472882979 0  0.8850994640065737 1.026789284991826 0  0.8378424686535642 1.058754669951416 0  0.789602640440123 1.089954300822495 0  0.740230664118098 1.119904997773312 0  0.6898132041673791 1.148625699921477 0  0.6383601119445897 1.175926259599499 0  0.5856883866811079 1.201182331787365 0  0.5321778476204875 1.224567673882751 0  0.4777547381770983 1.246470946080933 0  0.4223770297269344 1.266045208153632 0  0.3662244127150163 1.283531898194567 0  0.309322239933095 1.298623891320344 0  0.2517814917557056 1.311295214816611 0  0.1937224757871897 1.321470630894167 0  0.1351711862183085 1.328760254084362 0  0.07642115759597062 1.333392055233127 0  0.01747806785811548 1.335575278442409 0  -0.04149845687623772 1.334922322718533 0  -0.1003956917123374 1.331538592606144 0  -0.1590613663846682 1.325333173545701 0  -0.2173730624860473 1.316422949772893 0  -0.2751744300246023 1.304632218228134 0  -0.3323581436937633 1.29048968903193 0  -0.3889286215873952 1.273692420725639 0  -0.4445056929106285 1.254038975503675 0  -0.4991498496326169 1.232036277754875 0  -0.5528103342697485 1.207979557649031 0  -0.6052784736156316 1.181704767690882 0  -0.6568339045719065 1.15410460228601 0  -0.7069556836735176 1.124170455858472 0  -0.7559686765624086 1.09395462260313 0  -0.8041942616024701 1.062138715018006 0  -0.8506846053516287 1.028248238570433 0  -0.8959023281902289 0.9933627029973684 0  -0.9400722442683894 0.9580278353221693 0  -0.982766500582567 0.9214971186743169 0  -1.024922507546752 0.8856606559780538 0  -1.064380077098431 0.8460239552002039 0  -1.103764003327546 0.810567216153801 0  -1.142686867125293 0.7750071707002554 0  -1.180297583621356 0.7382701404902218 0  -1.217229070521256 0.7020427356653227 0  -1.252916429738362 0.6649762907154404 0  -1.288235514134077 0.6296136964414342 0  -1.32332801111304 0.5931162019569622 0  -1.35833044048043 0.5599762421966316 0  -1.393282501859487 0.522869342825079 0  -1.417768445679015 0.4763962792942775 0  -1.451015823180972 0.4350800787287318 0  -1.476572025168318 0.3900593255924475 0  -1.499965965360149 0.3437552339158991 0  -1.516723355021238 0.29455980575422 0  -1.535204857007491 0.247357184754246 0  -1.536100795321672 0.192903246964542 0  -1.550777861961503 0.1485524541101226 0  -1.56249235010818 0.1017805816610467 0  -1.555435475169554 0.05375225968834323 0  -1.559928375264117 0.00746209719521162 0  -1.559033099201608 -0.03855157745660259 0  -1.561101154744823 -0.08455372336867155 0  -1.558411242094219 -0.1310718062837576 0  -1.56353972379742 -0.1795596884001962 0  -1.553956787858525 -0.2267591393308669 0  -1.541079725597902 -0.2718188355887894 0  -1.54030523070981 -0.327175926989849 0  -1.522912684117206 -0.3750817593174693 0  -1.506529437947769 -0.4249749086278868 0  -1.483265806773862 -0.471528071941176 0  -1.457642634775979 -0.5167221254759914 0  -1.425461270240775 -0.5583805529425174 0  -1.400428561686328 -0.6048206636132635 0  -1.364900409128774 -0.6418354126032889 0  -1.33010144962596 -0.6755823458592859 0  -1.294768163993654 -0.712000867466419 0  -1.259384664687188 -0.747444463763262 0  -1.22383644018462 -0.7848645814905518 0  -1.187111737039804 -0.8215938782025082 0  -1.149733122902888 -0.8589603756940128 0  -1.111133568218351 -0.8952792293400901 0  -1.071901966502676 -0.9316701932018991 0  -1.033206404215153 -0.9735737549060125 0  -0.9910591194568019 -1.010690890837383 0  -0.948473268551873 -1.04873003878528 0  -0.9043873096332946 -1.085700588774944 0  -0.8591941005489639 -1.122236645849708 0  -0.8125909930978643 -1.157733267414378 0  -0.764566457654615 -1.19172217541896 0  -0.7152198554442193 -1.224574886365305 0  -0.6653091254863369 -1.258401426376598 0  -0.6130384868239267 -1.288170678166104 0  -0.5600904108495179 -1.316733789333483 0  -0.5057667091833074 -1.342805275927236 0  -0.4504069672981378 -1.366655777815428 0  -0.3941183885536015 -1.388121713885489 0  -0.3365324001411276 -1.406033880600591 0  -0.2784144329113371 -1.421025600261346 0  -0.2196416368434684 -1.433800835976153 0  -0.1602703768263907 -1.443376735089829 0  -0.1005004698444885 -1.450071353135262 0  -0.04045003336161276 -1.453640747162753 0  0.01971151482386034 -1.454137126908907 0  0.07982965825886955 -1.451464642764559 0  0.1397395127900771 -1.445634342475783 0  0.1992238720573356 -1.436862881725999 0  0.2582166630728893 -1.425438940233997 0  0.3165856102920308 -1.411322970474746 0  0.3742524773086479 -1.3947263682041 0  0.4310615393060655 -1.37561073834211 0  0.4870490095777875 -1.354525037781708 0  0.5419498225851627 -1.33087701477841 0  0.595867576836119 -1.306272044806201 0  0.6490697861081804 -1.279659901599276 0  0.7007487796969648 -1.25052019792172 0  0.7513959542492273 -1.220131533740377 0  0.8008955665719476 -1.188531670222363 0  0.849219188589195 -1.155770248120654 0  0.8964862728512214 -1.122284574613385 0  0.9426642299291244 -1.08802548893679 0  0.9875244766499748 -1.053445550945975 0  1.031755948047292 -1.017361047974025 0  1.074425297287746 -0.979938741609614 0  1.115561085413195 -0.9416198827102111 0  1.155802192589579 -0.9032996225498712 0  1.19470370005673 -0.8639986957988088 0  1.233058490793227 -0.825660181356784 0  1.269095784557182 -0.783725759118974 0  1.305175160161003 -0.7468084429355935 0  1.341337166403377 -0.7087745873562024 0  1.375409418626303 -0.6687836360610848 0  1.408053041443922 -0.6279451624163145 0  1.439113769866639 -0.5863618195369539 0  1.468142238802119 -0.543445038650846 0  1.496543697473763 -0.5009203283753962 0  1.519718401708585 -0.4540902964112618 0  1.544840493875361 -0.4119861792066908 0  1.568586758344872 -0.3682001771739117 0  1.586597307921928 -0.3217691749321963 0  1.602949176167831 -0.275209583841986 0  1.615892890908344 -0.2279840886843067 0  1.62632183264183 -0.1806222637816575 0  1.633754973892846 -0.133059608178983 0  1.639295741084357 -0.08566347937065918 0  -0.08216427266520158 0.7969308038344409 0  0.6185319186820375 -0.7176019370339728 0  -0.7302786409644815 -0.6285825613683675 0  -0.05841636939983398 -0.8880820036138081 0  0.614344944141768 0.621189441420217 0  1.168525469839454 0.203427292162045 0  -0.7428152076033654 0.528217653629095 0  -1.21497608380905 -0.04336475729565036 0  1.172743764657222 -0.2865342437445911 0  -1.019707532514022 -0.4547193886460359 0  -0.7802475951473693 -0.05826692411888348 0  -0.4585298480629292 -0.2321298110605388 0  -1.030270040502507 0.348994951515553 0  0.2980807213430519 -0.8652707774705094 0  0.1532633931696811 -0.2926796635355491 0  0.2616632553607576 0.7586669871088174 0  0.3543406566641321 0.2024020643251628 0  0.6700447251200254 -0.04270681594447271 0  -0.3940105409031386 -0.7810747793052915 0  -0.4306833336957597 0.7027442146216142 0  -0.2580012617325773 0.2582921002423741 0  0.9253270223209332 -0.4919712701989092 0  0.9211848902884824 0.4049778452416454 0  0.4222311080306647 -0.3235557546825862 0  0.04637977611590531 0.2536436088812662 0  -0.5219930557815491 0.1976014102740775 0  -0.1555027497360351 -0.2850872213662293 0  0.9542869704481662 -0.04229636072028062 0  1.362549875048886 -0.03992774093315789 0  0.7722501854854334 -0.6019206438624485 0  0.7890397628594678 -0.2766709998875082 0  0.6350062957029318 -0.3770348574768482 0  0.5448072182735472 -0.1792764281052926 0  0.5145744137781696 -0.5257161648958226 0  0.9327849585572189 -0.2655496538375654 0  0.8114944550102979 -0.04247879573095752 0  -0.8969179176766595 0.1545249244657638 0  -1.118271317349924 0.148892932896719 0  -0.9997235994654502 -0.04991784781781181 0  -0.8915221415145447 -0.2650418056690549 0  -1.113519540133845 -0.2442556179628946 0  -1.288672792346794 -0.3369019657892963 0  -1.376676507585719 -0.1530513129978188 0  -1.374633874195718 0.07041067876367108 0  -1.284199250902076 0.2529238249357609 0  -0.1075370370435589 -0.5862035718198052 0  -0.2681366040115398 -0.5389104047096439 0  -0.2275193628140348 -0.8399215962808281 0  -0.3064711479695742 -0.2596963895908588 0  -0.422585307058105 -0.5042047179812189 0  -1.206791028041307 -0.5339482084844696 0  -1.208207811325889 0.4417106710988646 0  0.3590014399759099 -0.5919499799148706 0  0.2869575877600968 -0.3097164088951744 0  0.2202060060619743 -0.5819317223838811 0  -0.8859614582940148 0.4344303805036272 0  -0.7521924123982382 0.2328529680980281 0  1.356520575781405 -0.3597641610171542 0  1.227379893001254 -0.5244035336070362 0  1.220627145973474 0.4410971773059355 0  1.3510457927754 0.2789501011350978 0  -0.7351019887616285 -0.9115492136516111 0  -0.910284064509278 -0.7770076474723864 0  -0.9131556283312732 0.6842065193015284 0  -0.7384819407838502 0.8119806052013764 0  0.7899215423854826 -0.899976036622347 0  0.6001025367908625 -1.012200650083702 0  0.5934327803203576 0.9119907066654207 0  0.7826434563786607 0.8054330696333305 0  0.03010755024799582 -1.172600
[...]
<PointData  Vectors="f_6712"> 
<DataArray  type="Float64"  Name="f_6712"  NumberOfComponents="3" format="ascii">5.2717686065303228e-02 1.2811623968840078e-03 0.0000000000000000e+00  7.4677268126957533e-02 9.2542270750659312e-03 0.0000000000000000e+00  6.8404416079879279e-02 1.1315723825454179e-02 0.0000000000000000e+00  7.8170770298959108e-02 1.7656720309128605e-02 0.0000000000000000e+00  7.9241751442037156e-02 2.2302112957797927e-02 0.0000000000000000e+00  1.0283298853513929e-01 3.8165382760764650e-02 0.0000000000000000e+00  7.1929768262950611e-02 2.8822502146140173e-02 0.0000000000000000e+00  3.5221140239146853e-02 3.7463546850026355e-02 0.0000000000000000e+00  1.9428560200046907e-01 1.1860602794709964e-01 0.0000000000000000e+00  1.4088001313879167e-01 7.5551508592349992e-02 0.0000000000000000e+00  -2.4532399073579892e-02 2.3569067721418462e-04 0.0000000000000000e+00  1.7330277924021694e-02 1.4996378021075134e-02 0.0000000000000000e+00  4.4720868928641022e-02 3.6732890173234278e-02 0.0000000000000000e+00  1.1957535961337169e-01 9.9511662316779576e-02 0.0000000000000000e+00  1.0352583950800517e-01 9.3304059036883782e-02 0.0000000000000000e+00  1.2374854543936892e-01 1.2267048242985537e-01 0.0000000000000000e+00  1.2397924385699967e-01 1.2481391400047613e-01 0.0000000000000000e+00  3.1819837556542017e-02 2.6294411374057889e-02 0.0000000000000000e+00  -9.3105038540911272e-03 -5.0137953216589414e-03 0.0000000000000000e+00  -2.4343158912100898e-02 -2.3166613076412788e-02 0.0000000000000000e+00  6.6142665997598344e-03 8.4161919968053500e-03 0.0000000000000000e+00  1.7677829462746576e-02 2.0864881252394663e-02 0.0000000000000000e+00  8.6299540933640895e-03 1.3261138048913620e-02 0.0000000000000000e+00  5.5222356960659809e-02 7.2142614985829273e-02 0.0000000000000000e+00  4.4420138261384690e-02 6.0243385688362391e-02 0.0000000000000000e+00  2.3723744310085563e-02 3.4108783381518772e-02 0.0000000000000000e+00  1.2346145238918594e-02 1.9052671130656149e-02 0.0000000000000000e+00  -1.2189778821505773e-04 9.1928541074539922e-04 0.0000000000000000e+00  -8.6910788452733631e-03 -1.2123273377439160e-02 0.0000000000000000e+00  -1.0243240735109944e-02 -1.5969619952465784e-02 0.0000000000000000e+00  -2.2791333525600876e-02 -3.9610897319837197e-02 0.0000000000000000e+00  -2.2753822728706873e-02 -4.1124780312468079e-02 0.0000000000000000e+00  -1.0046615748933247e-02 -1.9700903729964945e-02 0.0000000000000000e+00  -1.9551647609903793e-02 -4.5028079745011100e-02 0.0000000000000000e+00  -2.2448261478282459e-02 -5.5645830057645354e-02 0.0000000000000000e+00  -1.7041428313554007e-02 -4.8958780208484973e-02 0.0000000000000000e+00  -1.7948887678254047e-02 -5.8822887091693130e-02 0.0000000000000000e+00  -1.3272211995254773e-02 -5.1741439979243548e-02 0.0000000000000000e+00  -1.1691569203934996e-02 -5.5981033398931263e-02 0.0000000000000000e+00  -7.7743104763706100e-03 -4.7529857759164199e-02 0.0000000000000000e+00  -4.4524289155926438e-03 -4.2190621971695833e-02 0.0000000000000000e+00  -2.4971528883104134e-03 -3.9823639544232806e-02 0.0000000000000000e+00  -3.4524417373995377e-04 -3.8230964817168492e-02 0.0000000000000000e+00  1.6259059372569693e-03 -3.7107707060362295e-02 0.0000000000000000e+00  3.6693722206949408e-03 -3.6523941698145199e-02 0.0000000000000000e+00  5.0610793941839958e-03 -3.3193731826395262e-02 0.0000000000000000e+00  8.2225043625547035e-03 -3.8728321755047194e-02 0.0000000000000000e+00  9.0027267409555408e-03 -3.5346829472478664e-02 0.0000000000000000e+00  8.4105159171352882e-03 -2.5321439121944435e-02 0.0000000000000000e+00  2.1389913159500527e-02 -5.7606056548558590e-02 0.0000000000000000e+00  2.9634273414977354e-02 -7.4428187476973967e-02 0.0000000000000000e+00  2.0570738969704582e-02 -4.5529752134359024e-02 0.0000000000000000e+00  3.6547745674100497e-02 -7.2966190538219969e-02 0.0000000000000000e+00  1.5894910902822239e-02 -3.0017870738046990e-02 0.0000000000000000e+00  2.8061517089452006e-02 -4.4882080186045135e-02 0.0000000000000000e+00  1.1271661252476769e-02 -1.8099144171764489e-02 0.0000000000000000e+00  -2.0086213355692602e-02 3.3115756644058768e-02 0.0000000000000000e+00  1.1546382568227312e-02 -1.0822724980603764e-02 0.0000000000000000e+00  3.3136202218950396e-02 -4.2526681230422879e-02 0.0000000000000000e+00  -2.0855602604697202e-03 3.2189237753172985e-03 0.0000000000000000e+00  4.6457911028974667e-02 -5.4836866665169556e-02 0.0000000000000000e+00  4.2876172318469241e-02 -5.0026373219847209e-02 0.0000000000000000e+00  7.2206317407915374e-02 -6.9506373538720093e-02 0.0000000000000000e+00  -1.5736767700701787e-01 1.6277739653360371e-01 0.0000000000000000e+00  -3.9386035053768906e-02 4.2511191705754015e-02 0.0000000000000000e+00  -1.3568645377517894e-02 1.7175695699176811e-02 0.0000000000000000e+00  -1.4976826181534605e-02 1.7061119330811801e-02 0.0000000000000000e+00  -3.0827985968196810e-02 3.0788328573422136e-02 0.0000000000000000e+00  1.2805782483905025e-02 -1.3214719928408770e-02 0.0000000000000000e+00  -4.4397278756436488e-02 3.6932452707784273e-02 0.0000000000000000e+00  -7.5032327647232087e-03 -1.2714089356461278e-02 0.0000000000000000e+00  -3.9726020596756600e-01 4.1453778314966072e-01 0.0000000000000000e+00  1.2289008319079526e+00 -7.0622930778951709e-01 0.0000000000000000e+00  -3.0948721150889247e-01 2.1804617958006514e-01 0.0000000000000000e+00  -1.1020184577712675e+00 7.8299751107136506e-01 0.0000000000000000e+00  -2.1479501336855705e-01 1.1498280775982375e-01 0.0000000000000000e+00  3.4809146891219965e-02 -4.2031425271219546e-03 0.0000000000000000e+00  3.1311529350182793e-01 -1.2772810633289136e-01 0.0000000000000000e+00  5.1719701246279248e-01 -4.1293875500481129e-02 0.0000000000000000e+00  -3.6458764004363492e-01 4.0696692461484822e-02 0.0000000000000000e+00  -1.3229667309433485e-01 6.4777427280877806e-02 0.0000000000000000e+00  6.4781261210703400e-01 3.2093447074546234e-02 0.0000000000000000e+00  -1.2490547780141457e-01 -5.7156451557816646e-03 0.0000000000000000e+00  -1.1716204993376221e-01 5.2267311594705141e-03 0.0000000000000000e+00  -6.3168206819987568e-02 1.0734678075939458e-03 0.0000000000000000e+00  -4.9036068871576459e-02 -6.9349171194188096e-04 0.0000000000000000e+00  -4.0441520945906043e-02 3.3668452521745237e-03 0.0000000000000000e+00  4.7511046932162343e-01 -1.1470050738706532e-02 0.0000000000000000e+00  -1.2820197540588649e-01 -4.9571201485845137e-02 0.0000000000000000e+00  -3.2648407178140965e-01 -3.6269148394083878e-02 0.0000000000000000e+00  3.8536964665421303e-01 2.0095476999860574e-02 0.0000000000000000e+00  1.7853746398247669e-01 7.4065776101825451e-02 0.0000000000000000e+00  2.4517056666857077e-03 -1.3316169749294351e-02 0.0000000000000000e+00  -2.2196102383163258e-01 -1.1461348344454352e-01 0.0000000000000000e+00  -9.2734349698979890e-01 -6.3942579498620300e-01 0.0000000000000000e+00  -3.4771511307562042e-01 -2.4169245035191070e-01 0.0000000000000000e+00  9.1261557932450954e-01 4.9975362673515178e-01 0.0000000000000000e+00  -1.8197589132292910e-01 -1.7463189195916165e-01 0.0000000000000000e+00  -3.6062182408379030e-02 -1.6043078153011602e-02 0.0000000000000000e+00  -4.1683097662411420e-02 -3.4326995705947362e-02 0.0000000000000000e+00  2.4577897223380000e-02 2.6797662744691992e-02 0.0000000000000000e+00  -2.1397446393864004e-02 -2.0426866480622294e-02 0.0000000000000000e+00  -6.1632435739487719e-03 -7.5089038539825972e-03 0.0000000000000000e+00  1.7506429930929212e-03 -1.2488878153743201e-03 0.0000000000000000e+00  -5.1070764019500788e-02 -5.2876418496844678e-02 0.0000000000000000e+00  -2.7782974430589574e-01 -2.7076761777295760e-01 0.0000000000000000e+00  1.8425774429910818e-01 1.7502756978538880e-01 0.0000000000000000e+00  8.2624435755515008e-02 9.2691082848211828e-02 0.0000000000000000e+00  6.2160563961511928e-02 7.1381576074056916e-02 0.0000000000000000e+00  3.4937790441030145e-03 4.2800860994113166e-03 0.0000000000000000e+00  3.0061258518211478e-02 3.7094944763670812e-02 0.0000000000000000e+00  2.5786093530526286e-02 3.2952194921242031e-02 0.0000000000000000e+00  -1.9413803368991660e-02 -2.8441765348677442e-02 0.0000000000000000e+00  -1.5857731858601943e-02 -2.1681248595815855e-02 0.0000000000000000e+00  1.3252607874859346e-01 1.9695017980931998e-01 0.0000000000000000e+00  2.7285909518763477e-02 5.0447377466191608e-02 0.0000000000000000e+00  7.9670175597932186e-02 1.5167482467206225e-01 0.0000000000000000e+00  3.2231493728161906e-02 6.8504518404039413e-02 0.0000000000000000e+00  5.3310918441953757e-02 1.2902226340051481e-01 0.0000000000000000e+00  4.2611345679653856e-02 1.0869224171956048e-01 0.0000000000000000e+00  7.9704979125273506e-03 2.1438190742599037e-02 0.0000000000000000e+00  1.1826268750253532e-02 4.6763314355452223e-02 0.0000000000000000e+00  1.1909428174570819e-02 5.4911645303297819e-02 0.0000000000000000e+00  6.2090020429590538e-03 4.0165514434873630e-02 0.0000000000000000e+00  4.5431488636536116e-03 4.3404658953634233e-02 0.0000000000000000e+00  1.6778082821663355e-03 3.6174336303254777e-02 0.0000000000000000e+00  -3.8088190069074010e-04 3.6085697341548151e-02 0.0000000000000000e+00  -2.4429473011709558e-03 3.3207030388216034e-02 0.0000000000000000e+00  -5.4301217739777920e-03 4.1165672837034643e-02 0.0000000000000000e+00  -7.8498261145934414e-03 4.3850706322048801e-02 0.0000000000000000e+00  -1.1355532475048244e-02 4.9198427204725614e-02 0.0000000000000000e+00  -1.3293692133271645e-02 4.7664025071999294e-02 0.0000000000000000e+00  -1.9200429196157765e-02 5.8101021471829946e-02 0.0000000000000000e+00  -1.5965419713768657e-02 4.3285980525896106e-02 0.0000000000000000e+00  -2.4702395048663606e-02 5.7162168288369321e-02 0.0000000000000000e+00  -1.7572169788817572e-02 3.8636961788962365e-02 0.0000000000000000e+00  -1.4592080202087288e-03 9.7411661372940554e-04 0.0000000000000000e+00  -3.5884500604985846e-02 6.1413323428346302e-02 0.0000000000000000e+00  -3.1386071334094878e-02 5.2868088780755176e-02 0.0000000000000000e+00  -1.4921886398080845e-02 2.2919218149312519e-02 0.0000000000000000e+00  -1.5302738432766855e-02 2.1987283810156664e-02 0.0000000000000000e+00  -4.3404826074166904e-03 5.4138799878917804e-03 0.0000000000000000e+00  6.4522757639509012e-03 -9.8134072617638152e-03 0.0000000000000000e+00  1.9189223431628037e-02 -2.6403611605981214e-02 0.0000000000000000e+00  4.1790304593230673e-02 -5.4385738204004754e-02 0.0000000000000000e+00  4.9626749880183445e-02 -6.2551783952268361e-02 0.0000000000000000e+00  6.6924344185996208e-03 -1.0207083436832878e-02 0.0000000000000000e+00  1.8214519915149292e-02 -2.0600787366531606e-02 0.0000000000000000e+00  -7.2401188804889450e-04 -4.6800994911987050e-04 0.0000000000000000e+00  -3.3862517354406450e-02 3.2077910041798878e-02 0.0000000000000000e+00  -1.3918545726774303e-02 9.0094766871856684e-03 0.0000000000000000e+00  6.1071168818198199e-02 -5.0897534474460181e-02 0.0000000000000000e+00  9.1715149047841601e-02 -9.0307606758498679e-02 0.0000000000000000e+00  1.2639243383035764e-01 -1.2282113139787269e-01 0.0000000000000000e+00  9.2758257075958889e-02 -8.1548482035735267e-02 0.0000000000000000e+00  1.1761373160411451e-01 -9.5481473495304697e-02 0.0000000000000000e+00  4.5925869163549841e-02 -3.6553942859406101e-02 0.0000000000000000e+00  2.5308533169727369e-02 -2.0369588836905386e-02 0.0000000000000000e+00  -2.6106219977199367e-02 2.3346116970419423e-03 0.0000000000000000e+00  1.1862893129555231e-01 -6.1461012839340731e-02 0.0000000000000000e+00  1.9122287576865440e-01 -1.1394863918569891e-01 0.0000000000000000e+00  3.6423415454794647e-02 -3.5869175893749612e-02 0.0000000000000000e+00  7.0143946653298289e-02 -2.6836561009746809e-02 0.0000000000000000e+00  9.5769141478987865e-02 -3.3705489913530985e-02 0.0000000000000000e+00  7.3691431913995464e-02 -1.9213047357931157e-02 0.0000000000000000e+00  6.8933148741516029e-02 -1.3768051971911539e-02 0.0000000000000000e+00  6.2340661674319703e-02 -8.8159778511238563e-03 0.0000000000000000e+00  4.4190606917514960e-02 -3.5604920652517187e-03 0.0000000000000000e+00  4.1758232804702466e-05 4.2337223779823270e-06 0.0000000000000000e+00  -5.3171418780127204e-05 -6.1300338920858649e-05 0.0000000000000000e+00  3.5480487516938039e-05 -6.4544754819310501e-05 0.0000000000000000e+00  3.3323908112038291e-05 -2.4713267237623136e-06 0.0000000000000000e+00  -5.7013448866364086e-05 6.8647306700735496e-05 0.0000000000000000e+00  7.6287743184344059e-07 3.5194936324957498e-05 0.0000000000000000e+00  3.1824160835609546e-05 6.2087514504697205e-05 0.0000000000000000e+00  -3.4922336398112059e-06 1.4408024968459796e-06 0.0000000000000000e+00  1.0050464851228880e-06 -3.1606227163189526e-05 0.0000000000000000e+00  1.9718103509513654e-07 -4.9115860235049568e-05 0.0000000000000000e+00  1.1683305141138123e-05 1.2373762166662612e-05 0.0000000000000000e+00  7.3071583433068207e-05 -1.3184400276328569e-04 0.0000000000000000e+00  1.8139841995520748e-06 5.3322423978724188e-05 0.0000000000000000e+00  -6.1643406715842055e-05 -2.3623149919449292e-05 0.0000000000000000e+00  -3.4018923976059426e-05 -1.2509537676393660e-04 0.0000000000000000e+00  -6.3908527775516540e-05 2.3182540613495223e-05 0.0000000000000000e+00  -1.0632476973655142e-04 8.9535217753544745e-05 0.0000000000000000e+00  -1.1217859807340883e-05 -6.0205069060084064e-06 0.0000000000000000e+00  8.9642370549026257e-05 -5.1073089623338621e-05 0.0000000000000000e+00  7.2931549739818117e-05 4.4680557561827341e-05 0.0000000000000000e+00  6.7189329395050566e-05 1.0772653867547840e-04 0.0000000000000000e+00  -9.0384436184622540e-06 -6.3619843252599937e-05 0.0000000000000000e+00  -1.0084042088169965e-05 6.5983188305656178e-05 0.0000000000000000e+00  -1.0768624116632611e-04 -8.0880208134040030e-05 0.0000000000000000e+00  6.4457055009269895e-06 -2.7628957932235732e-05 0.0000000000000000e+00  6.0261412840104534e-05 9.1498280080672952e-05 0.0000000000000000e+00  5.7802767628459414e-05 -1.2816796008631811e-04 0.0000000000000000e+00  -1.2015025013973192e-05 1.1410418827250524e-06 0.0000000000000000e+00  3.7667435697825600e-06 1.8415954862505517e-06 0.0000000000000000e+00  -2.7981026252057903e-05 -6.7280547267821629e-05 0.0000000000000000e+00  4.0661369165153954e-06 -1.0430125176698817e-04 0.0000000000000000e+00  -5.6751739823559632e-06 -5.5786245329440422e-05 0.0000000000000000e+00  -9.0973139527370829e-05 -1.8241622627135706e-04 0.0000000000000000e+00  -5.2942484750551083e-05 -4.0105285843712588e-05 0.0000000000000000e+00  -4.8333471395584174e-06 -2.2364726207740892e-05 0.0000000000000000e+00  -1.2906527204130207e-06 1.4627428562652374e-06 0.0000000000000000e+00  2.7707360833849749e-07 6.8626496368290291e-05 0.0000000000000000e+00  9.3485209441979686e-06 6.5108414483777460e-05 0.0000000000000000e+00  8.0388120693645321e-07 -1.2717892572000367e-06 0.0000000000000000e+00  3.8209476465772042e-07 -5.7415247523195495e-05 0.0000000000000000e+00  6.9644453541716417e-06 -6.5044266120422678e-05 0.0000000000000000e+00  5.9793601053457210e-06 -5.5939918508456774e-05 0.0000000000000000e+00  3.4637331861389620e-07 -1.3391868270963829e-05 0.0000000000000000e+00  1.1302626709963203e-06 1.5450056710330275e-05 0.0000000000000000e+00  5.6881292480740392e-06 5.4806049221666012e-05 0.0000000000000000e+00  1.2628691164696075e-04 -2.5253450183767987e-05 0.0000000000000000e+00  1.1995445674746691e-04 -8.1051653702226526e-05 0.0000000000000000e+00  8.3738608148649363e-05 -2.3757054105085927e-05 0.0000000000000000e+00  1.7122525340582671e-05 -1.0740346390546211e-04 0.0000000000000000e+00  7.9397490044325376e-05 -8.8742279167343402e-05 0.0000000000000000e+00  -2.3872601935647788e-05 -9.6030353524553748e-05 0.0000000000000000e+00  -1.9489723055742805e-05 9.5238748966108627e-05 0.0000000000000000e+00  -8.5966592068673883e-05 -6.1812746070796380e-05 0.0000000000000000e+00  -8.9640413520389144e-05 -9.3398602401140515e-05 0.0000000000000000e+00  -6.2676124868929332e-05 -3.6976770387670086e-05 0.0000000000000000e+00  1.1082220178208416e-05 5.7946975730728599e-05 0.0000000000000000e+00  2.3932093174541596e-06 4.8724514726503922e-05 0.0000000000000000e+00  6.0498269719436512e-06 -5.5885906546303694e-05 0.0000000000000000e+00  7.5728727111177966e-06 -6.5564477338319449e-05 0.0000000000000000e+00  6.8838005308980625e-06 6.9186799263336747e-05 0.0000000000000000e+00  5.5252182952481011e-06 5.9106524039351992e-05 0.0000000000000000e+00  4.3821874181404578e-05 -4.1381765216185124e-05 0.0000000000000000e+00  1.9253638041229714e-05 -4.7267035960000257e-05 0.0000000000000000e+00  2.0269187451197717e-05 5.2676263123457804e-05 0.0000000000000000e+00  4.3328404787896645e-05 4.4869834312069213e-05 0.0000000000000000e+00  -3.8035343022057737e-05 -4.9137313457159332e-05 0.0000000000000000e+00  -4.9417223609350252e-05 -3.2240361413079886e-05 0.0000000000000000e+00  -5.2923619228538571e-05 3.7173023711099996e-05 0.0000000000000000e+00  -3.8925655922489213e-05 5.2871212600236023e-05 0.0000000000000000e+00  6.9084292423590054e-06 -8.5661741075832216e-08 0.0000000000000000e+00  3.6488981544071844e-05 -4.0529322984478278e-06 0.0000000000000000e+00  3.7454911719482839e-05 4.7981382309991878e-06 0.0000000000000000e+00  8.2071241815933238e-06 2.3327275008325698e-08 0.0000000000000000e+00  -6.3887145742646189e-05 -4.4704812270086164e-05 0.0000000000000000e+00  -7.3356351712738991e-05 2.1297458892700631e-04 0.0000000000000000e+00  -1.1376497442017259e-05 6.6364653241651219e-05 0.0000000000000000e+00  -6.6980215884788493e-05 5.0313236249414065e-05 0.0000000000000000e+00  3.4364726958708791e-05 -5.5186088857492311e-05 0.0000000000000000e+00  4.5781077898843383e-05 -1.5332506619851577e-04 0.0000000000000000e+00  6.0699725754488729e-06 -5.4436850203099944e-05 0.0000000000000000e+00  -7.0301537890211365e-05 7.2970692599821734e-05 0.0000000000000000e+00  -1.2477467268038616e-04 -6.8870153660989839e-05 0.0000000000000000e+00  -7.1963859798993587e-06 2.0235761149197773e-05 0.0000000000000000e+00  -3.1691536540589009e-06 -5.8656816458545075e-05 0.0000000000000000e+00  -1.4261729266715542e-06 6.4425188789199125e-05 0.0000000000000000e+00  1.0904897279561310e-05 -5.3599229882731042e-05 0.0000000000000000e+00  2.1651736213796333e-06 1.0213370494241571e-04 0.0000000000000000e+00  -2.8659510105183745e-05 6.9826534452332398e-05 0.0000000000000000e+00  -5.2644291977265085e-06 2.5410604210208791e-05 0.0000000000000000e+00  -9.6641113233487486e-05 6.5346574738438517e-05 0.0000000000000000e+00  -7.1013209796809461e-05 5.0286199674433156e-05 0.0000000000000000e+00  -3.1037625371149865e-05 -1.7088510575433450e-07 0.0000000000000000e+00  -3.3460074810940667e-05 -4.9549154608927680e-06 0.0000000000000000e+00  7.9161313161340728e-05 6.5165789886139275e-05 0.0000000000000000e+00  1.1692917223690664e-04 3.7678904346869310e-05 0.0000000000000000e+00  7.8044292594112974e-05 2.6042770841233609e-05 0.0000000000000000e+00  -5.2874320401648906e-05 -8.2360248824496452e-05 0.0000000000000000e+00  7.1406109487711310e-05 1.3397050290598662e-04 0.0000000000000000e+00  -4.4854133046026386e-05 -1.4792925143557455e-05 0.0000000000000000e+00  -3.1379847750259680e-05 -4.5250436141312832e-06 0.0000000000000000e+00  -3.0794869276464765e-05 5.2025241255905259e-06 0.0000000000000000e+00  -5.0143403367925715e-05 1.8384586771081111e-05 0.0000000000000000e+00  -1.0616784022341529e-02 1.0126201266717778e-03 0.0000000000000000e+00  -5.8922724070196260e-05 1.7043221326959370e-05 0.0000000000000000e+00  -1.6678793853392208e-05 1.1015941854937916e-06 0.0000000000000000e+00  6.2788763947163161e-05 -1.7601239637074828e-05 0.0000000000000000e+00  6.0708996152071369e-05 -2.9390119145077378e-05 0.0000000000000000e+00  6.5767019452659422e-05 -6.5742890102760007e-05 0.0000000000000000e+00  5.6011349381301386e-05 3.0817747388567240e-05 0.0000000000000000e+00  5.9246800994144298e-05 1.8497002339138346e-05 0.0000000000000000e+00  5.3515437115337651e-05 5.8091824533475219e-05 0.0000000000000000e+00  4.9262704926575720e-05 1.3460848291077445e-04 0.0000000000000000e+00  3.0610108889672534e-05 3.