<?xml version="1.0"?>
<VTKFile type="UnstructuredGrid"  version="0.1"  >
<UnstructuredGrid>
<Piece  NumberOfPoints="2549" NumberOfCells="4928">
<Points>
<DataArray  type="Float64"  NumberOfComponents="3"  format="ascii">2 0 0  1.996686137018095 0.05754231104100042 0  1.986882897305854 0.1143419787233611 0  1.970975633076588 0.1697461736080849 0  1.949521707683106 0.2232516020504374 0  1.92316148102163 0.2745222750136555 0  1.892542813236142 0.323373506980794 0  1.858271349552875 0.3697389590748243 0  1.820885526891715 0.4136350740557075 0  1.780849258848747 0.4551307277194839 0  1.738554874553317 0.4943245260370203 0  1.694330878507049 0.5313291997757913 0  1.648451186236745 0.5662615752889001 0  1.601144123217999 0.5992364926897525 0  1.552600433702648 0.6303633660965611 0  1.502980077905183 0.659744436395664 0  1.452417851070797 0.6874740696729748 0  1.401027953784824 0.7136386818120056 0  1.348907720609051 0.7383169985313379 0  1.29614058371176 0.7615805254953902 0  1.242798492047359 0.7834940823268561 0  1.188943861023348 0.8041163621228731 0  1.134631154358537 0.8235004771642536 0  1.079908172939354 0.8416944721837589 0  1.024817109964837 0.8587417963397553 0  0.9693954136298085 0.8746817324080646 0  0.9136765221153764 0.8895497755796398 0  0.8576904445844472 0.9033779803145155 0  0.801464266694953 0.9161952615587904 0  0.7450225714102614 0.9280276623152515 0  0.6883877952988928 0.9388985892101885 0  0.6315805321092666 0.9488290192996544 0  0.5746197931158087 0.9578376811025375 0  0.5175232373657314 0.9659412118222429 0  0.4603073510223729 0.9731542969378965 0  0.4029876351072817 0.9794897863110468 0  0.3455787518345055 0.9849587968895583 0  0.2880946601251717 0.9895707992366389 0  0.2305487379218517 0.993333690086398 0  0.1729538938792191 0.9962538520116265 0  0.115322670663361 0.998336201090478 0  0.05766733915096163 0.9995842233142798 0  -1.322274611685462e-09 1 0  -0.05766734179523565 0.9995842232761419 0  -0.1153226733068079 0.9983362010141388 0  -0.1729538991952786 0.996253851780904 0  -0.2305487459060017 0.9933336896231258 0  -0.2880946707711053 0.9895707984617989 0  -0.3455787651340506 0.9849587957230019 0  -0.4029876510566202 0.9794897846705534 0  -0.4603073696092293 0.9731542947399749 0  -0.5175232585755485 0.9659412089813419 0  -0.5746198169315506 0.9578376775306909 0  -0.6315805531144443 0.9488290158041717 0  -0.6883878135015997 0.9388985858736937 0  -0.745022586820829 0.9280276592223424 0  -0.8014642793262121 0.9161952587964145 0  -0.8576904516640802 0.9033779786341188 0  -0.9136765236872437 0.8895497751760147 0  -0.9693954097454738 0.8746817334843007 0  -1.02481710068483 0.8587417991084308 0  -1.07990816384232 0.8416944751016707 0  -1.134631145449371 0.8235004802330488 0  -1.188943852307292 0.8041163653447019 0  -1.242798483530528 0.7834940857042606 0  -1.296140602082296 0.7615805176791459 0  -1.348907765262195 0.7383169781359747 0  -1.401028023999701 0.7136386473502353 0  -1.452417945986507 0.6874740195411637 0  -1.502980204542554 0.659744364271727 0  -1.55260059049229 0.6303632695523657 0  -1.601144308255775 0.5992363690857174 0  -1.648451397199867 0.566261421754521 0  -1.694331058738459 0.5313290560928818 0  -1.738555024805723 0.4943243939263901 0  -1.780849380123489 0.4551306090875966 0  -1.820885620520759 0.4136349710133106 0  -1.858271414561462 0.3697388773931348 0  -1.892542852486391 0.3233734495527862 0  -1.923161498240549 0.2745222448569359 0  -1.949521707638369 0.2232516021481025 0  -1.970975633050448 0.1697461736839625 0  -1.986882897293919 0.1143419787752093 0  -1.99668613701505 0.05754231106741577 0  -2 -2.119381739288827e-14 0  -1.996686137015017 -0.05754231106770592 0  -1.986882897293798 -0.114341978775735 0  -1.970975633050334 -0.1697461736842945 0  -1.949521707638351 -0.2232516021481412 0  -1.923161498240437 -0.2745222448571329 0  -1.892542852486365 -0.3233734495528243 0  -1.858271414561291 -0.36973887739335 0  -1.820885620520727 -0.4136349710133463 0  -1.780849380123318 -0.4551306090877636 0  -1.738555024805688 -0.4943243939264208 0  -1.69433105873832 -0.5313290560929934 0  -1.648451397199832 -0.5662614217545467 0  -1.601144308255667 -0.5992363690857894 0  -1.552600590492252 -0.6303632695523889 0  -1.50298020454247 -0.659744364271775 0  -1.452417945986467 -0.6874740195411845 0  -1.40102802399929 -0.713638647350437 0  -1.348907765261459 -0.7383169781363109 0  -1.296140602081886 -0.7615805176793204 0  -1.242798483530485 -0.7834940857042775 0  -1.188943852307122 -0.8041163653447646 0  -1.134631145449091 -0.8235004802331454 0  -1.079908163842153 -0.8416944751017243 0  -1.02481710068479 -0.8587417991084427 0  -0.9693954097453934 -0.874681733484323 0  -0.9136765236871304 -0.8895497751760438 0  -0.8576904516640044 -0.9033779786341368 0  -0.8014642793261747 -0.9161952587964226 0  -0.7450225868207132 -0.9280276592223656 0  -0.688387813501408 -0.9388985858737288 0  -0.6315805531141928 -0.9488290158042135 0  -0.574619816931241 -0.9578376775307373 0  -0.5175232585753057 -0.9659412089813745 0  -0.4603073696090547 -0.9731542947399956 0  -0.4029876510565167 -0.979489784670564 0  -0.3455787651340186 -0.9849587957230047 0  -0.2880946707710729 -0.9895707984618012 0  -0.2305487459059683 -0.9933336896231277 0  -0.1729538991952446 -0.9962538517809054 0  -0.1153226733067752 -0.9983362010141397 0  -0.05766734179520062 -0.9995842232761424 0  -1.322240462585813e-09 -1 0  0.05766733915099533 -0.9995842233142793 0  0.1153226706633956 -0.998336201090477 0  0.1729538938792597 -0.9962538520116249 0  0.2305487379218985 -0.9933336900863954 0  0.2880946601252248 -0.9895707992366352 0  0.3455787518345641 -0.9849587968895532 0  0.4029876351073326 -0.9794897863110416 0  0.4603073510224157 -0.9731542969378913 0  0.5175232373657652 -0.9659412118222385 0  0.5746197931158308 -0.9578376811025342 0  0.6315805321096187 -0.9488290192995957 0  0.6883877952995736 -0.9388985892100637 0  0.7450225714112517 -0.9280276623150527 0  0.8014642666962468 -0.9161952615585074 0  0.857690444585461 -0.903377980314275 0  0.9136765221161084 -0.8895497755794518 0  0.9693954136301919 -0.8746817324079583 0  1.02481710996487 -0.8587417963397453 0  1.079908172939512 -0.8416944721837082 0  1.134631154358807 -0.8235004771641605 0  1.188943861023504 -0.8041163621228153 0  1.242798492047385 -0.7834940823268459 0  1.296140583712152 -0.7615805254952235 0  1.348907720609768 -0.7383169985310102 0  1.401027953785216 -0.7136386818118133 0  1.452417851070815 -0.6874740696729649 0  1.502980077905247 -0.6597444363956275 0  1.552600433702669 -0.6303633660965483 0  1.601144123218091 -0.5992364926896914 0  1.648451186236767 -0.5662615752888848 0  1.694330878507175 -0.5313291997756912 0  1.738554874553337 -0.4943245260370026 0  1.780849258848903 -0.4551307277193312 0  1.820885526891733 -0.4136350740556869 0  1.858271349553032 -0.3697389590746263 0  1.892542813236154 -0.3233735069807763 0  1.923161481021729 -0.2745222750134805 0  1.949521707683112 -0.223251602050424 0  1.970975633076692 -0.1697461736077827 0  1.986882897305967 -0.11434197872287 0  1.996686137018124 -0.05754231104074863 0  -0.1152904195579733 0.6070198455084121 0  0.7139314807447402 -0.5185554509125195 0  -0.9021804071087454 -0.4712698952622889 0  -0.08853261806707058 -0.5931971952512098 0  0.7139314807447157 0.5185554509125249 0  1.417801984821762 0.2291367688541014 0  -0.9202096744148912 0.4669291729068617 0  -1.545989679638069 -0.002355595176244116 0  1.419175259971926 -0.2295798938383525 0  -1.262514497274744 -0.369291382563445 0  -1.008975443817403 -0.0113108633010534 0  -0.6062327478577832 -0.13746405873719 0  -1.281728968624498 0.3515475904410956 0  0.3284986955774252 -0.5906094157356263 0  0.1737280740022324 -0.1722626988402368 0  0.2893086492827969 0.5872833258737034 0  0.428425950012378 0.185265744956867 0  0.8258750024497795 0.002678618671304442 0  -0.4906311993153011 -0.5380519337330318 0  -0.5319151236343942 0.5610340701502295 0  -0.3492448427637153 0.2242372176230919 0  1.101084670418347 -0.3819430866711396 0  1.10085579138347 0.3827620940547057 0  0.5114738231755741 -0.2037878442320408 0  0.0378548298353058 0.2177192870939484 0  -0.68351177520046 0.1879874044068832 0  -0.2205094860969659 -0.1665034527494929 0  1.17295745818125 0.0006108973493657318 0  1.665541930433108 -2.306912664895724e-05 0  0.907508075581543 -0.4502492687918292 0  0.9634798364340638 -0.1896322339999175 0  0.7699032415972596 -0.2579384161206076 0  0.6686744128126767 -0.100554612780368 0  0.6127026519601571 -0.36117164757228 0  1.137021064299799 -0.190666094660887 0  0.9994162303155147 0.001644758010335187 0  -1.145352206220951 0.1701183635700213 0  -1.413859324131283 0.1745959976324259 0  -1.277482561727735 -0.006833229238648594 0  -1.135744970546073 -0.1903011229322492 0  -1.404252088456406 -0.1858234888698444 0  -1.597220538418949 -0.2843085084653953 0  -1.747755693638209 -0.1128035986621925 0  -1.747755693638219 0.1104480034859294 0  -1.597220538418967 0.2819529132891387 0  -0.154521052082018 -0.3798503240003511 0  -0.3555703427061332 -0.3522776932412622 0  -0.2895819086911859 -0.5656245644921211 0  -0.4133711169773747 -0.1519837557433414 0  -0.5484319735865418 -0.3377579962351108 0  -1.455482947237287 -0.4677764021589958 0  -1.465090182912182 0.4589045060978081 0  0.4199862593764998 -0.3971986299838336 0  0.3426009485889036 -0.1880252715361387 0  0.2511133847898288 -0.3814360572879312 0  -1.100969321519695 0.4092383816739789 0  -0.9645925591161468 0.2278091548029043 0  1.62003039343183 -0.3216074839470194 0  1.43579655552137 -0.4585269817556586 0  1.435109917946279 0.4583054192635382 0  1.619343755856739 0.3213859214549047 0  -0.85182234321746 -0.6937325770293555 0  -1.072489445319615 -0.627381990483283 0  -1.081504078972709 0.6252116293055613 0  -0.8608369768705514 0.6915622158516382 0  0.8693742953548055 -0.6886486236261325 0  0.6442756369302858 -0.738196566007527 0  0.644275636930262 0.7381965660075314 0  0.8693742953547762 0.6886486236261405 0  0.01339502629816219 -0.7957666981708436 0  -0.2170556
[...]
<PointData  Vectors="f_524"> 
<DataArray  type="Float64"  Name="f_524"  NumberOfComponents="3" format="ascii">6.6777275334171979e-02 -6.3237792974189097e-05 0.0000000000000000e+00  5.6750960573964282e-02 6.5032541029804748e-03 0.0000000000000000e+00  1.2358538174046260e-01 2.8856044780963399e-02 0.0000000000000000e+00  1.6162046379559267e-01 5.5654654292421751e-02 0.0000000000000000e+00  1.9454458957682230e-01 8.8884208006301368e-02 0.0000000000000000e+00  2.0711931938461112e-01 1.1785521085341406e-01 0.0000000000000000e+00  2.1294359454322587e-01 1.4489815388215679e-01 0.0000000000000000e+00  1.9562992421478284e-01 1.5527161751415056e-01 0.0000000000000000e+00  2.0375519240554366e-01 1.8456094285179475e-01 0.0000000000000000e+00  2.6077953248184343e-01 2.6652075721351143e-01 0.0000000000000000e+00  2.2259412439714441e-01 2.5216866781634739e-01 0.0000000000000000e+00  2.0870771858507103e-01 2.6119448827946146e-01 0.0000000000000000e+00  1.8475727139365575e-01 2.5319029533467474e-01 0.0000000000000000e+00  1.6354413838094167e-01 2.4427789809579903e-01 0.0000000000000000e+00  1.4545721722588106e-01 2.3572297220001664e-01 0.0000000000000000e+00  1.2528810678233668e-01 2.1965326061050178e-01 0.0000000000000000e+00  1.1257741824961563e-01 2.1260308679230802e-01 0.0000000000000000e+00  1.2467135712433915e-01 2.5406282980023920e-01 0.0000000000000000e+00  1.0234838738759017e-01 2.2358894948962643e-01 0.0000000000000000e+00  9.2906046600243181e-02 2.1811248266033553e-01 0.0000000000000000e+00  8.0700832145728318e-02 2.0321229756255660e-01 0.0000000000000000e+00  7.0572668307295167e-02 1.9067568409274141e-01 0.0000000000000000e+00  6.0937000583669472e-02 1.7667542191639712e-01 0.0000000000000000e+00  5.2112904026807377e-02 1.6229375715847635e-01 0.0000000000000000e+00  4.0410572855884931e-02 1.3507516927520072e-01 0.0000000000000000e+00  3.5392041605549297e-02 1.2764587878641478e-01 0.0000000000000000e+00  2.9123636975677453e-02 1.1326472149245877e-01 0.0000000000000000e+00  2.3701343156304913e-02 9.9722028996435855e-02 0.0000000000000000e+00  1.8861357495614576e-02 8.6118429027795582e-02 0.0000000000000000e+00  1.4509393651284841e-02 7.2173344039024506e-02 0.0000000000000000e+00  1.0721273632753311e-02 5.8369879881457837e-02 0.0000000000000000e+00  7.3192952313556941e-03 4.3896084494825238e-02 0.0000000000000000e+00  4.3872333930352883e-03 2.9078039060680329e-02 0.0000000000000000e+00  2.6044922765505758e-03 1.9401523425600444e-02 0.0000000000000000e+00  6.2374230422188352e-04 5.1477961494588538e-03 0.0000000000000000e+00  -6.5733283274173728e-04 -6.4842851043350825e-03 0.0000000000000000e+00  -1.5423024330642806e-03 -1.7690466151048547e-02 0.0000000000000000e+00  -2.0093995479120632e-03 -2.7706676951845817e-02 0.0000000000000000e+00  -2.0947532720455467e-03 -3.6225489052692503e-02 0.0000000000000000e+00  -1.9039962418493271e-03 -4.3905579199473944e-02 0.0000000000000000e+00  -1.4064112819979432e-03 -4.8923044892955590e-02 0.0000000000000000e+00  -7.3334945370956872e-04 -5.0716099983032642e-02 0.0000000000000000e+00  1.6337706081358021e-06 -5.3211168475813857e-02 0.0000000000000000e+00  7.5764167720097279e-04 -5.2644538599990562e-02 0.0000000000000000e+00  1.4545850431484299e-03 -5.0462559707622083e-02 0.0000000000000000e+00  2.0004086457280548e-03 -4.6170696004960099e-02 0.0000000000000000e+00  2.3407389953106514e-03 -4.0467396369100392e-02 0.0000000000000000e+00  2.3117343533502767e-03 -3.1778979098973405e-02 0.0000000000000000e+00  2.1890855536408744e-03 -2.5127864668731719e-02 0.0000000000000000e+00  1.4403548094937399e-03 -1.4066659809940835e-02 0.0000000000000000e+00  2.2152758029104976e-04 -1.9778131181840009e-03 0.0000000000000000e+00  -1.3862573978500787e-03 1.0256921652668598e-02 0.0000000000000000e+00  -3.4770067447912885e-03 2.3081448903980416e-02 0.0000000000000000e+00  -6.1019384147910707e-03 3.6582331654673526e-02 0.0000000000000000e+00  -9.0242411892843093e-03 4.9086899409993452e-02 0.0000000000000000e+00  -1.3364236770533781e-02 6.6599551377752114e-02 0.0000000000000000e+00  -1.5432788109986998e-02 7.0301512530571292e-02 0.0000000000000000e+00  -2.1072151959247085e-02 8.8694641362830326e-02 0.0000000000000000e+00  -2.6756565190171545e-02 1.0404681677611380e-01 0.0000000000000000e+00  -3.2719380094960004e-02 1.1794377836338892e-01 0.0000000000000000e+00  -3.9107506208423529e-02 1.3089825902190277e-01 0.0000000000000000e+00  -4.6787978737188408e-02 1.4573923359270624e-01 0.0000000000000000e+00  -5.2725910322073008e-02 1.5274521149641618e-01 0.0000000000000000e+00  -6.6909926148570290e-02 1.8110751903811859e-01 0.0000000000000000e+00  -6.1087338862024776e-02 1.5380617193108426e-01 0.0000000000000000e+00  -6.4194044378717771e-02 1.5073538694424818e-01 0.0000000000000000e+00  -7.6090291311861250e-02 1.6633358115537911e-01 0.0000000000000000e+00  -8.6249200173718080e-02 1.7543159331216687e-01 0.0000000000000000e+00  -9.9927091853011837e-02 1.8891256659536637e-01 0.0000000000000000e+00  -1.1073432738634069e-01 1.9392793436539130e-01 0.0000000000000000e+00  -1.3386637823698341e-01 2.1736526450641444e-01 0.0000000000000000e+00  -1.2186010444726478e-01 1.8124839464072701e-01 0.0000000000000000e+00  -2.0403881785402692e-01 2.7848460839196804e-01 0.0000000000000000e+00  -3.1966687906179120e-01 3.9953426522970042e-01 0.0000000000000000e+00  -3.2833904932842284e-01 3.7251343409888971e-01 0.0000000000000000e+00  -3.5801909487145606e-01 3.6483246195453872e-01 0.0000000000000000e+00  -3.7073720568349700e-01 3.3565274282515090e-01 0.0000000000000000e+00  -3.9200114812540698e-01 3.1128726427953601e-01 0.0000000000000000e+00  -3.5591848521073188e-01 2.4166664724050466e-01 0.0000000000000000e+00  -4.0434043786944762e-01 2.3209522740469143e-01 0.0000000000000000e+00  -1.4026753517474100e-01 6.4389373375179054e-02 0.0000000000000000e+00  4.3051357027321857e-03 5.4147957952129248e-04 0.0000000000000000e+00  -9.0257726749792724e-02 2.0415182110574075e-02 0.0000000000000000e+00  -3.9544084957517572e-02 4.9349541016720519e-03 0.0000000000000000e+00  -5.5716947193361732e-02 1.8147631683369648e-05 0.0000000000000000e+00  -3.8423697552816494e-02 -4.8566055387160101e-03 0.0000000000000000e+00  -9.2806733811010053e-02 -2.0946012562107957e-02 0.0000000000000000e+00  1.2799139700670984e-02 2.1863751322273839e-03 0.0000000000000000e+00  -1.4812392507551977e-01 -6.8077359453897299e-02 0.0000000000000000e+00  -4.3754302018532348e-01 -2.5117137118232924e-01 0.0000000000000000e+00  -3.7815496703122847e-01 -2.5669770741889453e-01 0.0000000000000000e+00  -4.1588555354591267e-01 -3.3025097433997852e-01 0.0000000000000000e+00  -3.9067206425186113e-01 -3.5367333379034366e-01 0.0000000000000000e+00  -3.7583071177766397e-01 -3.8296925383092728e-01 0.0000000000000000e+00  -3.4356671810011058e-01 -3.8978243003908192e-01 0.0000000000000000e+00  -3.3436488677282650e-01 -4.1788820963943535e-01 0.0000000000000000e+00  -2.1657612260364711e-01 -2.9567203559466854e-01 0.0000000000000000e+00  -1.1986845454350867e-01 -1.7813053732649489e-01 0.0000000000000000e+00  -1.3470463936444893e-01 -2.1876022143515123e-01 0.0000000000000000e+00  -1.0958537191439924e-01 -1.9188518925323753e-01 0.0000000000000000e+00  -9.8801261279731947e-02 -1.8677947117248100e-01 0.0000000000000000e+00  -8.4507043644136123e-02 -1.7188045112599043e-01 0.0000000000000000e+00  -7.4463899272036838e-02 -1.6277215636559814e-01 0.0000000000000000e+00  -6.2112992010500044e-02 -1.4585499908637806e-01 0.0000000000000000e+00  -6.2000910118164804e-02 -1.5617350287876250e-01 0.0000000000000000e+00  -7.1368776215439855e-02 -1.9321520031724423e-01 0.0000000000000000e+00  -5.5214536172291488e-02 -1.5992404928216666e-01 0.0000000000000000e+00  -4.9309536285427176e-02 -1.5360190269721424e-01 0.0000000000000000e+00  -4.1049566039206051e-02 -1.3738926097631254e-01 0.0000000000000000e+00  -3.4196615287867056e-02 -1.2326866768302772e-01 0.0000000000000000e+00  -2.8058316804065821e-02 -1.0911537667821598e-01 0.0000000000000000e+00  -2.2000566983451788e-02 -9.2595357879706186e-02 0.0000000000000000e+00  -1.9090827059168456e-02 -8.7171845869270459e-02 0.0000000000000000e+00  -1.8042871436882955e-02 -8.9950747670709000e-02 0.0000000000000000e+00  -1.1907486887295371e-02 -6.4732536379395064e-02 0.0000000000000000e+00  -8.5878310482981526e-03 -5.1514525164068167e-02 0.0000000000000000e+00  -5.1798739154652954e-03 -3.4394932516355316e-02 0.0000000000000000e+00  -2.5448971582565302e-03 -1.8883841840370730e-02 0.0000000000000000e+00  -4.6629294588654638e-04 -3.7982674655788937e-03 0.0000000000000000e+00  1.1884524593769469e-03 1.1612474599512175e-02 0.0000000000000000e+00  2.2376215110103473e-03 2.5789330635147736e-02 0.0000000000000000e+00  2.4396894024836129e-03 3.3502817868870230e-02 0.0000000000000000e+00  2.5634476332709304e-03 4.4341642827574045e-02 0.0000000000000000e+00  2.2213704629386096e-03 5.1270261718742709e-02 0.0000000000000000e+00  1.6302927436230646e-03 5.6562150295114633e-02 0.0000000000000000e+00  8.5539438947041663e-04 5.9414166575185202e-02 0.0000000000000000e+00  5.7658597173829102e-07 6.0224095466070306e-02 0.0000000000000000e+00  -8.3852061066633449e-04 5.8264458160461170e-02 0.0000000000000000e+00  -1.6089550266253942e-03 5.5781813028787847e-02 0.0000000000000000e+00  -2.1603074854593483e-03 4.9896087937221285e-02 0.0000000000000000e+00  -2.4656912655017355e-03 4.2593939837177096e-02 0.0000000000000000e+00  -2.4286375531011109e-03 3.3469069344119147e-02 0.0000000000000000e+00  -2.0085129388796169e-03 2.3004789787917004e-02 0.0000000000000000e+00  -1.1359899183191508e-03 1.1128424218433916e-02 0.0000000000000000e+00  1.0925443319076533e-04 -7.7551031807386649e-04 0.0000000000000000e+00  2.2939541757670094e-03 -1.7149067538338791e-02 0.0000000000000000e+00  3.5970729450173155e-03 -2.3715559089066932e-02 0.0000000000000000e+00  7.0210200363172671e-03 -4.2120509645155159e-02 0.0000000000000000e+00  1.0739808979899942e-02 -5.8457787743785281e-02 0.0000000000000000e+00  1.4776193732040619e-02 -7.3496104899723705e-02 0.0000000000000000e+00  1.9398933750634728e-02 -8.8570085551513716e-02 0.0000000000000000e+00  2.4524697958788880e-02 -1.0318245233736882e-01 0.0000000000000000e+00  3.0291869747257283e-02 -1.1780874434235959e-01 0.0000000000000000e+00  3.6835216103794213e-02 -1.3284190648148345e-01 0.0000000000000000e+00  4.2369554694298060e-02 -1.4162439205690752e-01 0.0000000000000000e+00  5.4873742461079157e-02 -1.7088489881580959e-01 0.0000000000000000e+00  6.4115865632597857e-02 -1.8589257319435668e-01 0.0000000000000000e+00  7.4311670053824538e-02 -2.0077629734453090e-01 0.0000000000000000e+00  8.4990428579712840e-02 -2.1401245090368012e-01 0.0000000000000000e+00  9.7883671335011108e-02 -2.2979898900377613e-01 0.0000000000000000e+00  1.0770307818698867e-01 -2.3528230075188911e-01 0.0000000000000000e+00  1.3142279357001441e-01 -2.6782354660311636e-01 0.0000000000000000e+00  1.1798122148296288e-01 -2.2282941874846460e-01 0.0000000000000000e+00  1.3039091463703545e-01 -2.2859744767639797e-01 0.0000000000000000e+00  1.5151549410980109e-01 -2.4553964233101483e-01 0.0000000000000000e+00  1.7036558360410239e-01 -2.5446419774199186e-01 0.0000000000000000e+00  1.9274172144691409e-01 -2.6412843131422525e-01 0.0000000000000000e+00  2.1796885324762683e-01 -2.7278149120786138e-01 0.0000000000000000e+00  2.3268033971190838e-01 -2.6358889803558178e-01 0.0000000000000000e+00  2.7328860808212335e-01 -2.7929777077443929e-01 0.0000000000000000e+00  2.1359719391807006e-01 -1.9346677322868655e-01 0.0000000000000000e+00  2.0614150979446316e-01 -1.6359721100440788e-01 0.0000000000000000e+00  2.2552907977996123e-01 -1.5344733007331127e-01 0.0000000000000000e+00  2.2114197424595597e-01 -1.2581489396064288e-01 0.0000000000000000e+00  2.0994957298543901e-01 -9.5882381292051594e-02 0.0000000000000000e+00  1.7864098958403635e-01 -6.1517845833745852e-02 0.0000000000000000e+00  1.3724532898059735e-01 -3.1946004468686354e-02 0.0000000000000000e+00  7.6737173279334492e-02 -8.9989089713857218e-03 0.0000000000000000e+00  1.0383978049394854e-09 -3.7337314856976822e-08 0.0000000000000000e+00  7.9589184123102681e-09 -3.5007561569299725e-08 0.0000000000000000e+00  -1.8551013208645049e-08 -6.1025934152101791e-08 0.0000000000000000e+00  1.1202773840773382e-09 4.0499938838583137e-08 0.0000000000000000e+00  7.2421154102890242e-09 3.1933483606821878e-08 0.0000000000000000e+00  1.1132176394538367e-07 1.5042914968819300e-07 0.0000000000000000e+00  -1.8892912342979540e-08 6.2115320576530825e-08 0.0000000000000000e+00  -3.3416437567896002e-07 -5.8203656075484144e-09 0.0000000000000000e+00  1.1543825765178330e-07 -1.5596269725026752e-07 0.0000000000000000e+00  -5.2242852340094653e-08 -9.6699731257165055e-08 0.0000000000000000e+00  -2.9729159335354072e-13 -6.7232496372454884e-15 0.0000000000000000e+00  -1.0099221437114639e-14 -4.3985645492911935e-14 0.0000000000000000e+00  -5.3502137666707242e-08 9.9211336862050539e-08 0.0000000000000000e+00  -2.0279432472816878e-09 2.4850943550614327e-08 0.0000000000000000e+00  -1.3579804452098679e-15 5.1444836828332766e-14 0.0000000000000000e+00  -1.6250942963462828e-09 -2.0141510226490964e-08 0.0000000000000000e+00  1.2924627261242193e-15 5.7798915015939627e-15 0.0000000000000000e+00  4.3602899623023095e-14 -3.2405925331417222e-15 0.0000000000000000e+00  -9.1177035033179223e-10 -4.4229864378830166e-09 0.0000000000000000e+00  -2.3349265548570068e-10 1.1692679548384733e-10 0.0000000000000000e+00  2.4045811608791365e-15 -3.0507888781385056e-14 0.0000000000000000e+00  4.4258898920452354e-08 -1.1002613751806424e-07 0.0000000000000000e+00  4.2329017551556413e-08 1.0523261659958969e-07 0.0000000000000000e+00  9.7036042503403972e-16 -2.8168678182169597e-15 0.0000000000000000e+00  -1.1031179931476548e-15 -4.1793252266176739e-14 0.0000000000000000e+00  -1.0348956359316977e-14 4.4108497373106924e-14 0.0000000000000000e+00  2.3619230949497785e-15 3.0572139402344705e-14 0.0000000000000000e+00  1.8066248307274120e-13 -7.8221242755956643e-15 0.0000000000000000e+00  2.4910310900865369e-07 -3.7059278174716245e-09 0.0000000000000000e+00  1.7557208466628227e-08 -5.7445028506850670e-08 0.0000000000000000e+00  3.5006823989105203e-11 -9.9140054011164765e-11 0.0000000000000000e+00  1.4984692492868185e-11 -5.6352634204724468e-11 0.0000000000000000e+00  9.9408969873491615e-15 -4.2476554089320298e-14 0.0000000000000000e+00  4.1354862002532845e-12 -2.0335483393219456e-11 0.0000000000000000e+00  5.9909196285341695e-11 -1.2958883826051110e-10 0.0000000000000000e+00  1.0255935620355434e-13 -6.1762070010849985e-15 0.0000000000000000e+00  -1.0274328795661670e-10 1.7922491510808919e-10 0.0000000000000000e+00  -9.2013192317208558e-08 1.1969260379176580e-07 0.0000000000000000e+00  -3.2813814658570779e-10 -8.8764642570281178e-12 0.0000000000000000e+00  -1.0364930365272103e-10 -1.7944465285167912e-10 0.0000000000000000e+00  -9.6756189531958972e-08 -1.2568865429876077e-07 0.0000000000000000e+00  -1.4453226338511635e-04 -1.6129543813926680e-04 0.0000000000000000e+00  -1.8365083351100912e-04 -1.1132906425435741e-04 0.0000000000000000e+00  -1.7571512916795366e-04 1.0592327009618399e-04 0.0000000000000000e+00  -1.4240167413061787e-04 1.5893596189008301e-04 0.0000000000000000e+00  1.9832397374559116e-12 3.6806409901244298e-11 0.0000000000000000e+00  1.1897209189441007e-12 1.2692330506245911e-11 0.0000000000000000e+00  2.0099116528350828e-09 2.4595805499137522e-08 0.0000000000000000e+00  -1.3212123193029840e-15 -5.5126127858290381e-15 0.0000000000000000e+00  -4.5244288534913146e-12 -2.2751392479319297e-11 0.0000000000000000e+00  -5.4086252116642596e-05 -8.5516583507178732e-05 0.0000000000000000e+00  -5.5179901180702397e-05 8.7520503823493697e-05 0.0000000000000000e+00  -1.2960375319242376e-12 1.3304435865569541e-11 0.0000000000000000e+00  -2.3632301851994468e-15 3.0559575332775241e-14 0.0000000000000000e+00  -2.0758162594745705e-12 3.8537446054308158e-11 0.0000000000000000e+00  -2.7706338456560260e-08 6.9519178179778454e-08 0.0000000000000000e+00  -2.7804882238808753e-11 7.9477135923028318e-11 0.0000000000000000e+00  1.0480885716203283e-04 -1.1879355258623455e-04 0.0000000000000000e+00  6.7688737698272524e-05 -1.0838383221852465e-04 0.0000000000000000e+00  6.5283504768496713e-05 1.0453221878030179e-04 0.0000000000000000e+00  1.0058495645006411e-04 1.1403142987072136e-04 0.0000000000000000e+00  -1.0168688734370323e-05 -3.8902867709619835e-05 0.0000000000000000e+00  -2.2845260353649259e-05 -6.5977367082911209e-05 0.0000000000000000e+00  -2.1694223512061997e-05 6.2593457800755572e-05 0.0000000000000000e+00  -1.0052249892174005e-05 3.8364373995251767e-05 0.0000000000000000e+00  1.1151310851469918e-05 -4.2702923254331235e-05 0.0000000000000000e+00  3.1823428922643774e-06 -1.6469306720363003e-05 0.0000000000000000e+00  3.1630652018326119e-06 1.6481370643032146e-05 0.0000000000000000e+00  1.0815587205034572e-05 4.1446694111128305e-05 0.0000000000000000e+00  5.8427981296136308e-09 3.7415153482982176e-05 0.0000000000000000e+00  1.7149506096151017e-06 3.0624876148316282e-05 0.0000000000000000e+00  1.5469562474986108e-06 -2.7534799116916076e-05 0.0000000000000000e+00  5.9321391764317296e-09 -3.3110285643193004e-05 0.0000000000000000e+00  4.0359680948996502e-10 -1.2227763722589750e-09 0.0000000000000000e+00  9.9326948133082626e-15 4.2638929855933620e-14 0.0000000000000000e+00  1.2834897494357443e-11 4.8350931446547309e-11 0.0000000000000000e+00  3.8276334950682437e-12 1.9073007069859667e-11 0.0000000000000000e+00  -1.2620610979930273e-11 -4.7481356017050126e-11 0.0000000000000000e+00  -2.5207678132219265e-14 -8.1649648972043228e-14 0.0000000000000000e+00  -2.5986000853919791e-11 -7.4440759563693107e-11 0.0000000000000000e+00  -1.8214380109078612e-15 -2.4006463080913516e-14 0.0000000000000000e+00  -1.9052294577773933e-18 1.9366703152748540e-17 0.0000000000000000e+00  -3.1406729384495564e-18 3.2536120687796486e-17 0.0000000000000000e+00  -3.2270378317246943e-05 -6.9867672733387118e-05 0.0000000000000000e+00  -3.2838859532768792e-05 7.1090106028211017e-05 0.0000000000000000e+00  -2.8629619382002542e-08 -7.2081981973535115e-08 0.0000000000000000e+00  3.3488301480188376e-11 9.4860779323671483e-11 0.0000000000000000e+00  1.6937561233141367e-08 5.5458574042139509e-08 0.0000000000000000e+00  5.7233363920947262e-11 1.2377724414267552e-10 0.0000000000000000e+00  -8.1588925522598498e-13 -9.0585843978708105e-12 0.0000000000000000e+00  8.1983737205205457e-10 4.1569828703420727e-09 0.0000000000000000e+00  1.2484133248370529e-14 4.4900446290343142e-11 0.0000000000000000e+00  -1.0245303981555935e-09 3.7380282764553093e-08 0.0000000000000000e+00  1.5698497785007682e-12 -1.5580037501266887e-11 0.0000000000000000e+00  1.8858381114910110e-12 -3.4689860895456916e-11 0.0000000000000000e+00  1.9719495837670051e-09 -2.3888941628523826e-08 0.0000000000000000e+00  9.7327926246067793e-18 1.7419542266081957e-17 0.0000000000000000e+00  1.3258404234048651e-15 4.9440973933879380e-14 0.0000000000000000e+00  -1.1436080169190233e-06 1.0536623796718831e-05 0.0000000000000000e+00  -1.6346572056528162e-06 2.9205431129810924e-05 0.0000000000000000e+00  -1.4272002615714936e-06 -2.5569064199821571e-05 0.0000000000000000e+00  -7.4147720270000349e-07 -7.1045588851878469e-06 0.0000000000000000e+00  2.4071244215682626e-18 -2.3456584107645837e-18 0.0000000000000000e+00  -1.6946018914423381e-12 -3.1633119342946312e-11 0.0000000000000000e+00  -9.4390075925570277e-10 -3.4345235298869930e-08 0.0000000000000000e+00  1.0248195471388147e-06 9.7192607973469170e-06 0.0000000000000000e+00  -3.2990969225191054e-06 -1.7299197944536574e-05 0.0000000000000000e+00  -7.4687533630359716e-09 -3.3310356260598699e-08 0.0000000000000000e+00  -2.3390294046425290e-06 1.2105698646145529e-05 0.0000000000000000e+00  1.1913867023207987e-06 -1.0906626821704485e-05 0.0000000000000000e+00  -6.4026084839535667e-09 2.8067045502491579e-08 0.0000000000000000e+00  -2.4013795179062970e-14 7.7586674122025290e-14 0.0000000000000000e+00  -1.314554