<?xml version="1.0"?>
<VTKFile type="UnstructuredGrid"  version="0.1"  >
<UnstructuredGrid>
<Piece  NumberOfPoints="2549" NumberOfCells="4928">
<Points>
<DataArray  type="Float64"  NumberOfComponents="3"  format="ascii">2 0 0  1.996686137018095 0.05754231104100042 0  1.986882897305854 0.1143419787233611 0  1.970975633076588 0.1697461736080849 0  1.949521707683106 0.2232516020504374 0  1.92316148102163 0.2745222750136555 0  1.892542813236142 0.323373506980794 0  1.858271349552875 0.3697389590748243 0  1.820885526891715 0.4136350740557075 0  1.780849258848747 0.4551307277194839 0  1.738554874553317 0.4943245260370203 0  1.694330878507049 0.5313291997757913 0  1.648451186236745 0.5662615752889001 0  1.601144123217999 0.5992364926897525 0  1.552600433702648 0.6303633660965611 0  1.502980077905183 0.659744436395664 0  1.452417851070797 0.6874740696729748 0  1.401027953784824 0.7136386818120056 0  1.348907720609051 0.7383169985313379 0  1.29614058371176 0.7615805254953902 0  1.242798492047359 0.7834940823268561 0  1.188943861023348 0.8041163621228731 0  1.134631154358537 0.8235004771642536 0  1.079908172939354 0.8416944721837589 0  1.024817109964837 0.8587417963397553 0  0.9693954136298085 0.8746817324080646 0  0.9136765221153764 0.8895497755796398 0  0.8576904445844472 0.9033779803145155 0  0.801464266694953 0.9161952615587904 0  0.7450225714102614 0.9280276623152515 0  0.6883877952988928 0.9388985892101885 0  0.6315805321092666 0.9488290192996544 0  0.5746197931158087 0.9578376811025375 0  0.5175232373657314 0.9659412118222429 0  0.4603073510223729 0.9731542969378965 0  0.4029876351072817 0.9794897863110468 0  0.3455787518345055 0.9849587968895583 0  0.2880946601251717 0.9895707992366389 0  0.2305487379218517 0.993333690086398 0  0.1729538938792191 0.9962538520116265 0  0.115322670663361 0.998336201090478 0  0.05766733915096163 0.9995842233142798 0  -1.322274611685462e-09 1 0  -0.05766734179523565 0.9995842232761419 0  -0.1153226733068079 0.9983362010141388 0  -0.1729538991952786 0.996253851780904 0  -0.2305487459060017 0.9933336896231258 0  -0.2880946707711053 0.9895707984617989 0  -0.3455787651340506 0.9849587957230019 0  -0.4029876510566202 0.9794897846705534 0  -0.4603073696092293 0.9731542947399749 0  -0.5175232585755485 0.9659412089813419 0  -0.5746198169315506 0.9578376775306909 0  -0.6315805531144443 0.9488290158041717 0  -0.6883878135015997 0.9388985858736937 0  -0.745022586820829 0.9280276592223424 0  -0.8014642793262121 0.9161952587964145 0  -0.8576904516640802 0.9033779786341188 0  -0.9136765236872437 0.8895497751760147 0  -0.9693954097454738 0.8746817334843007 0  -1.02481710068483 0.8587417991084308 0  -1.07990816384232 0.8416944751016707 0  -1.134631145449371 0.8235004802330488 0  -1.188943852307292 0.8041163653447019 0  -1.242798483530528 0.7834940857042606 0  -1.296140602082296 0.7615805176791459 0  -1.348907765262195 0.7383169781359747 0  -1.401028023999701 0.7136386473502353 0  -1.452417945986507 0.6874740195411637 0  -1.502980204542554 0.659744364271727 0  -1.55260059049229 0.6303632695523657 0  -1.601144308255775 0.5992363690857174 0  -1.648451397199867 0.566261421754521 0  -1.694331058738459 0.5313290560928818 0  -1.738555024805723 0.4943243939263901 0  -1.780849380123489 0.4551306090875966 0  -1.820885620520759 0.4136349710133106 0  -1.858271414561462 0.3697388773931348 0  -1.892542852486391 0.3233734495527862 0  -1.923161498240549 0.2745222448569359 0  -1.949521707638369 0.2232516021481025 0  -1.970975633050448 0.1697461736839625 0  -1.986882897293919 0.1143419787752093 0  -1.99668613701505 0.05754231106741577 0  -2 -2.119381739288827e-14 0  -1.996686137015017 -0.05754231106770592 0  -1.986882897293798 -0.114341978775735 0  -1.970975633050334 -0.1697461736842945 0  -1.949521707638351 -0.2232516021481412 0  -1.923161498240437 -0.2745222448571329 0  -1.892542852486365 -0.3233734495528243 0  -1.858271414561291 -0.36973887739335 0  -1.820885620520727 -0.4136349710133463 0  -1.780849380123318 -0.4551306090877636 0  -1.738555024805688 -0.4943243939264208 0  -1.69433105873832 -0.5313290560929934 0  -1.648451397199832 -0.5662614217545467 0  -1.601144308255667 -0.5992363690857894 0  -1.552600590492252 -0.6303632695523889 0  -1.50298020454247 -0.659744364271775 0  -1.452417945986467 -0.6874740195411845 0  -1.40102802399929 -0.713638647350437 0  -1.348907765261459 -0.7383169781363109 0  -1.296140602081886 -0.7615805176793204 0  -1.242798483530485 -0.7834940857042775 0  -1.188943852307122 -0.8041163653447646 0  -1.134631145449091 -0.8235004802331454 0  -1.079908163842153 -0.8416944751017243 0  -1.02481710068479 -0.8587417991084427 0  -0.9693954097453934 -0.874681733484323 0  -0.9136765236871304 -0.8895497751760438 0  -0.8576904516640044 -0.9033779786341368 0  -0.8014642793261747 -0.9161952587964226 0  -0.7450225868207132 -0.9280276592223656 0  -0.688387813501408 -0.9388985858737288 0  -0.6315805531141928 -0.9488290158042135 0  -0.574619816931241 -0.9578376775307373 0  -0.5175232585753057 -0.9659412089813745 0  -0.4603073696090547 -0.9731542947399956 0  -0.4029876510565167 -0.979489784670564 0  -0.3455787651340186 -0.9849587957230047 0  -0.2880946707710729 -0.9895707984618012 0  -0.2305487459059683 -0.9933336896231277 0  -0.1729538991952446 -0.9962538517809054 0  -0.1153226733067752 -0.9983362010141397 0  -0.05766734179520062 -0.9995842232761424 0  -1.322240462585813e-09 -1 0  0.05766733915099533 -0.9995842233142793 0  0.1153226706633956 -0.998336201090477 0  0.1729538938792597 -0.9962538520116249 0  0.2305487379218985 -0.9933336900863954 0  0.2880946601252248 -0.9895707992366352 0  0.3455787518345641 -0.9849587968895532 0  0.4029876351073326 -0.9794897863110416 0  0.4603073510224157 -0.9731542969378913 0  0.5175232373657652 -0.9659412118222385 0  0.5746197931158308 -0.9578376811025342 0  0.6315805321096187 -0.9488290192995957 0  0.6883877952995736 -0.9388985892100637 0  0.7450225714112517 -0.9280276623150527 0  0.8014642666962468 -0.9161952615585074 0  0.857690444585461 -0.903377980314275 0  0.9136765221161084 -0.8895497755794518 0  0.9693954136301919 -0.8746817324079583 0  1.02481710996487 -0.8587417963397453 0  1.079908172939512 -0.8416944721837082 0  1.134631154358807 -0.8235004771641605 0  1.188943861023504 -0.8041163621228153 0  1.242798492047385 -0.7834940823268459 0  1.296140583712152 -0.7615805254952235 0  1.348907720609768 -0.7383169985310102 0  1.401027953785216 -0.7136386818118133 0  1.452417851070815 -0.6874740696729649 0  1.502980077905247 -0.6597444363956275 0  1.552600433702669 -0.6303633660965483 0  1.601144123218091 -0.5992364926896914 0  1.648451186236767 -0.5662615752888848 0  1.694330878507175 -0.5313291997756912 0  1.738554874553337 -0.4943245260370026 0  1.780849258848903 -0.4551307277193312 0  1.820885526891733 -0.4136350740556869 0  1.858271349553032 -0.3697389590746263 0  1.892542813236154 -0.3233735069807763 0  1.923161481021729 -0.2745222750134805 0  1.949521707683112 -0.223251602050424 0  1.970975633076692 -0.1697461736077827 0  1.986882897305967 -0.11434197872287 0  1.996686137018124 -0.05754231104074863 0  -0.1152904195579733 0.6070198455084121 0  0.7139314807447402 -0.5185554509125195 0  -0.9021804071087454 -0.4712698952622889 0  -0.08853261806707058 -0.5931971952512098 0  0.7139314807447157 0.5185554509125249 0  1.417801984821762 0.2291367688541014 0  -0.9202096744148912 0.4669291729068617 0  -1.545989679638069 -0.002355595176244116 0  1.419175259971926 -0.2295798938383525 0  -1.262514497274744 -0.369291382563445 0  -1.008975443817403 -0.0113108633010534 0  -0.6062327478577832 -0.13746405873719 0  -1.281728968624498 0.3515475904410956 0  0.3284986955774252 -0.5906094157356263 0  0.1737280740022324 -0.1722626988402368 0  0.2893086492827969 0.5872833258737034 0  0.428425950012378 0.185265744956867 0  0.8258750024497795 0.002678618671304442 0  -0.4906311993153011 -0.5380519337330318 0  -0.5319151236343942 0.5610340701502295 0  -0.3492448427637153 0.2242372176230919 0  1.101084670418347 -0.3819430866711396 0  1.10085579138347 0.3827620940547057 0  0.5114738231755741 -0.2037878442320408 0  0.0378548298353058 0.2177192870939484 0  -0.68351177520046 0.1879874044068832 0  -0.2205094860969659 -0.1665034527494929 0  1.17295745818125 0.0006108973493657318 0  1.665541930433108 -2.306912664895724e-05 0  0.907508075581543 -0.4502492687918292 0  0.9634798364340638 -0.1896322339999175 0  0.7699032415972596 -0.2579384161206076 0  0.6686744128126767 -0.100554612780368 0  0.6127026519601571 -0.36117164757228 0  1.137021064299799 -0.190666094660887 0  0.9994162303155147 0.001644758010335187 0  -1.145352206220951 0.1701183635700213 0  -1.413859324131283 0.1745959976324259 0  -1.277482561727735 -0.006833229238648594 0  -1.135744970546073 -0.1903011229322492 0  -1.404252088456406 -0.1858234888698444 0  -1.597220538418949 -0.2843085084653953 0  -1.747755693638209 -0.1128035986621925 0  -1.747755693638219 0.1104480034859294 0  -1.597220538418967 0.2819529132891387 0  -0.154521052082018 -0.3798503240003511 0  -0.3555703427061332 -0.3522776932412622 0  -0.2895819086911859 -0.5656245644921211 0  -0.4133711169773747 -0.1519837557433414 0  -0.5484319735865418 -0.3377579962351108 0  -1.455482947237287 -0.4677764021589958 0  -1.465090182912182 0.4589045060978081 0  0.4199862593764998 -0.3971986299838336 0  0.3426009485889036 -0.1880252715361387 0  0.2511133847898288 -0.3814360572879312 0  -1.100969321519695 0.4092383816739789 0  -0.9645925591161468 0.2278091548029043 0  1.62003039343183 -0.3216074839470194 0  1.43579655552137 -0.4585269817556586 0  1.435109917946279 0.4583054192635382 0  1.619343755856739 0.3213859214549047 0  -0.85182234321746 -0.6937325770293555 0  -1.072489445319615 -0.627381990483283 0  -1.081504078972709 0.6252116293055613 0  -0.8608369768705514 0.6915622158516382 0  0.8693742953548055 -0.6886486236261325 0  0.6442756369302858 -0.738196566007527 0  0.644275636930262 0.7381965660075314 0  0.8693742953547762 0.6886486236261405 0  0.01339502629816219 -0.7957666981708436 0  -0.2170556
[...]
<PointData  Vectors="f_524"> 
<DataArray  type="Float64"  Name="f_524"  NumberOfComponents="3" format="ascii">8.2844944487200547e-02 -7.8639151271380392e-04 0.0000000000000000e+00  7.8073840665531233e-02 1.1067700976735109e-02 0.0000000000000000e+00  1.7517249558242878e-01 5.0066451842587123e-02 0.0000000000000000e+00  2.3533020062020321e-01 9.2755086282645435e-02 0.0000000000000000e+00  2.8486609163047544e-01 1.4432502626678936e-01 0.0000000000000000e+00  3.0530844343456925e-01 1.8919383891043071e-01 0.0000000000000000e+00  3.1377839667670804e-01 2.2944694807594582e-01 0.0000000000000000e+00  2.8948679695639584e-01 2.4734895085168310e-01 0.0000000000000000e+00  2.9860627287786784e-01 2.8922245975986777e-01 0.0000000000000000e+00  3.7732371496871342e-01 4.1262942868595848e-01 0.0000000000000000e+00  3.3091737576603014e-01 3.9752679416999342e-01 0.0000000000000000e+00  3.0784836145428596e-01 4.0833739371541733e-01 0.0000000000000000e+00  2.7278188595802177e-01 3.9599832094148363e-01 0.0000000000000000e+00  2.4093119889648121e-01 3.8139805136441435e-01 0.0000000000000000e+00  2.1363306281023650e-01 3.6725603819886787e-01 0.0000000000000000e+00  1.8392641894030468e-01 3.4320248038117257e-01 0.0000000000000000e+00  1.6376529991951211e-01 3.2900131190606824e-01 0.0000000000000000e+00  1.7814951648369734e-01 3.8864396923059108e-01 0.0000000000000000e+00  1.4967209404637508e-01 3.5006960102482443e-01 0.0000000000000000e+00  1.3485936548284708e-01 3.3982908218929875e-01 0.0000000000000000e+00  1.1726657947985171e-01 3.1779054938536871e-01 0.0000000000000000e+00  1.0234948604174193e-01 2.9839944126865919e-01 0.0000000000000000e+00  8.8259892653504673e-02 2.7711206792300752e-01 0.0000000000000000e+00  7.5401385866411513e-02 2.5518761683491470e-01 0.0000000000000000e+00  5.8791980748363434e-02 2.1450775426321764e-01 0.0000000000000000e+00  5.0901624415630752e-02 2.0128459095236884e-01 0.0000000000000000e+00  4.2136250538936187e-02 1.8069871103520657e-01 0.0000000000000000e+00  3.4388827572002845e-02 1.6055661810447275e-01 0.0000000000000000e+00  2.7477190393221374e-02 1.4025940713551374e-01 0.0000000000000000e+00  2.1293708287347557e-02 1.1944028473764434e-01 0.0000000000000000e+00  1.5911779500213240e-02 9.8743486130729724e-02 0.0000000000000000e+00  1.1110474821923705e-02 7.7246470311350207e-02 0.0000000000000000e+00  7.0287115755767954e-03 5.5140252371827743e-02 0.0000000000000000e+00  4.3262355322616197e-03 3.9920942541981502e-02 0.0000000000000000e+00  1.6290096943031051e-03 1.9165700018609105e-02 0.0000000000000000e+00  -2.0243928810667090e-04 1.5949863195461628e-03 0.0000000000000000e+00  -1.4660956078751915e-03 -1.5211230332911479e-02 0.0000000000000000e+00  -2.1656449209520793e-03 -3.0267036350054392e-02 0.0000000000000000e+00  -2.3485950144867111e-03 -4.3127614981396938e-02 0.0000000000000000e+00  -2.1836915193007051e-03 -5.4424128971635059e-02 0.0000000000000000e+00  -1.6159651825367403e-03 -6.1290172477826040e-02 0.0000000000000000e+00  -9.1029871752454621e-04 -6.4837177652375566e-02 0.0000000000000000e+00  1.0482823213287516e-05 -6.8254994695095439e-02 0.0000000000000000e+00  9.4528254338451868e-04 -6.7385593056316945e-02 0.0000000000000000e+00  1.8115741627415388e-03 -6.3962644632646476e-02 0.0000000000000000e+00  2.4802608795765433e-03 -5.7427546217933695e-02 0.0000000000000000e+00  2.8635065863201570e-03 -4.8665052770158077e-02 0.0000000000000000e+00  2.7941357161042455e-03 -3.5931997489246373e-02 0.0000000000000000e+00  2.4028541906055364e-03 -2.5044154641481714e-02 0.0000000000000000e+00  1.3618491700154015e-03 -8.8250934195714878e-03 0.0000000000000000e+00  -3.7090098962065557e-04 9.1286935888407385e-03 0.0000000000000000e+00  -2.6427132198364534e-03 2.7474011526191843e-02 0.0000000000000000e+00  -5.5931533578097393e-03 4.6624669877136385e-02 0.0000000000000000e+00  -9.2809417028668385e-03 6.6622742606667590e-02 0.0000000000000000e+00  -1.3473780598397218e-02 8.5444401929558225e-02 0.0000000000000000e+00  -1.9275695562819738e-02 1.0982345426506486e-01 0.0000000000000000e+00  -2.2797864207563728e-02 1.1696774629108043e-01 0.0000000000000000e+00  -3.0709049795039675e-02 1.4447140389803606e-01 0.0000000000000000e+00  -3.8823063960544912e-02 1.6708458093991849e-01 0.0000000000000000e+00  -4.7402953453485289e-02 1.8787726597604076e-01 0.0000000000000000e+00  -5.6663751957172555e-02 2.0742566851085631e-01 0.0000000000000000e+00  -6.7570573111057644e-02 2.2908702216221305e-01 0.0000000000000000e+00  -7.6774303619666931e-02 2.4106204038540208e-01 0.0000000000000000e+00  -9.4871894233385434e-02 2.7762748211313854e-01 0.0000000000000000e+00  -8.8071062496040659e-02 2.3782895197677967e-01 0.0000000000000000e+00  -9.3539102519857198e-02 2.3591133249485180e-01 0.0000000000000000e+00  -1.1059238188789079e-01 2.5811272015009512e-01 0.0000000000000000e+00  -1.2571478336586414e-01 2.7243009672549579e-01 0.0000000000000000e+00  -1.4541639191260858e-01 2.9238203832170145e-01 0.0000000000000000e+00  -1.6233337940665135e-01 3.0163648271808774e-01 0.0000000000000000e+00  -1.9332627162243649e-01 3.3317093956854338e-01 0.0000000000000000e+00  -1.8677464084316481e-01 2.9153762581081039e-01 0.0000000000000000e+00  -3.0691938281187708e-01 4.4360403703319623e-01 0.0000000000000000e+00  -4.7004703767149508e-01 6.2002502553231098e-01 0.0000000000000000e+00  -4.8818384044267304e-01 5.9051479325914891e-01 0.0000000000000000e+00  -5.3226408694918459e-01 5.7808503885697693e-01 0.0000000000000000e+00  -5.5342638503036268e-01 5.3627561126709689e-01 0.0000000000000000e+00  -5.8190576302690900e-01 4.9738486011864963e-01 0.0000000000000000e+00  -5.3715062888343867e-01 3.9496335391444659e-01 0.0000000000000000e+00  -5.7776102587591971e-01 3.7374697521887923e-01 0.0000000000000000e+00  -1.9193887570911558e-01 1.0939166796235142e-01 0.0000000000000000e+00  1.2389771294091670e-02 1.3637957854161331e-02 0.0000000000000000e+00  -1.1682112982772261e-01 3.2168660197254485e-02 0.0000000000000000e+00  -5.0410453963069049e-02 1.2279477476640934e-02 0.0000000000000000e+00  -6.9593438863093326e-02 -9.1910527684721974e-05 0.0000000000000000e+00  -4.8925007967487145e-02 -1.2692558920263559e-02 0.0000000000000000e+00  -1.1994765684471584e-01 -3.2724544816911491e-02 0.0000000000000000e+00  2.4688354287365502e-02 -1.0334893586050590e-02 0.0000000000000000e+00  -2.0345891941539851e-01 -1.1628669945640976e-01 0.0000000000000000e+00  -6.2614215905680692e-01 -4.0423975005875290e-01 0.0000000000000000e+00  -5.7244949156474811e-01 -4.1980373702392487e-01 0.0000000000000000e+00  -6.1841707551702740e-01 -5.2763567845650039e-01 0.0000000000000000e+00  -5.8437637208434978e-01 -5.6524677322917505e-01 0.0000000000000000e+00  -5.5979305141354119e-01 -6.0701521093370836e-01 0.0000000000000000e+00  -5.1184955399168242e-01 -6.1820491035108482e-01 0.0000000000000000e+00  -4.9271444363720801e-01 -6.4889760075805236e-01 0.0000000000000000e+00  -3.2627206747209125e-01 -4.7066875211110448e-01 0.0000000000000000e+00  -1.8586075834332616e-01 -2.8887408602452480e-01 0.0000000000000000e+00  -1.9473164919616467e-01 -3.3505099858144216e-01 0.0000000000000000e+00  -1.6112954654219602e-01 -2.9874304296833792e-01 0.0000000000000000e+00  -1.4404972033764868e-01 -2.8902251567577047e-01 0.0000000000000000e+00  -1.2347715206416848e-01 -2.6701028915642777e-01 0.0000000000000000e+00  -1.0847436416507057e-01 -2.5255352950551291e-01 0.0000000000000000e+00  -9.0820594143910069e-02 -2.2870165707798953e-01 0.0000000000000000e+00  -8.9454344536186808e-02 -2.4111578275583601e-01 0.0000000000000000e+00  -1.0123779106871790e-01 -2.9566799505313113e-01 0.0000000000000000e+00  -8.0838114787582530e-02 -2.5299601817798056e-01 0.0000000000000000e+00  -7.1497766255937401e-02 -2.4157934374813872e-01 0.0000000000000000e+00  -5.9788076760592120e-02 -2.1794158927576959e-01 0.0000000000000000e+00  -4.9831948728353094e-02 -1.9663919058359269e-01 0.0000000000000000e+00  -4.0991795452256577e-02 -1.7547090583442912e-01 0.0000000000000000e+00  -3.2357922885216155e-02 -1.5144876291762038e-01 0.0000000000000000e+00  -2.7996053464556372e-02 -1.4237205042479364e-01 0.0000000000000000e+00  -2.5905713718197634e-02 -1.4599539490267049e-01 0.0000000000000000e+00  -1.7878381885255229e-02 -1.1134470418271986e-01 0.0000000000000000e+00  -1.2984098372311396e-02 -9.0689890063619036e-02 0.0000000000000000e+00  -8.2239967077668598e-03 -6.5324797640861729e-02 0.0000000000000000e+00  -4.4892659317179312e-03 -4.1960326614408204e-02 0.0000000000000000e+00  -1.5545703669418037e-03 -1.9222714789271570e-02 0.0000000000000000e+00  7.9897645919914753e-04 3.6062625156779824e-03 0.0000000000000000e+00  2.2414839649398982e-03 2.4371348861453635e-02 0.0000000000000000e+00  2.8423204243955861e-03 3.7364154237548304e-02 0.0000000000000000e+00  3.0294773018819804e-03 5.3048803382804662e-02 0.0000000000000000e+00  2.6589106960123810e-03 6.3624556651112496e-02 0.0000000000000000e+00  1.9370320409860401e-03 7.1584727178485394e-02 0.0000000000000000e+00  9.7405012467457488e-04 7.5941571793001428e-02 0.0000000000000000e+00  -8.9006487694532146e-05 7.7166352856409715e-02 0.0000000000000000e+00  -1.1245791011934955e-03 7.4309464169602282e-02 0.0000000000000000e+00  -1.9874497983753217e-03 6.9961256160215937e-02 0.0000000000000000e+00  -2.6071762601914323e-03 6.1900840338831663e-02 0.0000000000000000e+00  -2.9293976201934940e-03 5.0987903679721225e-02 0.0000000000000000e+00  -2.7936419039127102e-03 3.7369149133774433e-02 0.0000000000000000e+00  -2.1364066902248759e-03 2.1725077250835410e-02 0.0000000000000000e+00  -8.7076575483573517e-04 4.0754218549792498e-03 0.0000000000000000e+00  9.5342284214646508e-04 -1.3870958579869083e-02 0.0000000000000000e+00  3.8699200081308061e-03 -3.7046458378336034e-02 0.0000000000000000e+00  6.1665605263213161e-03 -4.8533491835301659e-02 0.0000000000000000e+00  1.0872421620062809e-02 -7.5604020277752260e-02 0.0000000000000000e+00  1.6139395196427191e-02 -9.9745994581926664e-02 0.0000000000000000e+00  2.1894945478896140e-02 -1.2230064813447636e-01 0.0000000000000000e+00  2.8476886200169225e-02 -1.4478527002342226e-01 0.0000000000000000e+00  3.5812916680810061e-02 -1.6658291172372516e-01 0.0000000000000000e+00  4.4058871345402768e-02 -1.8830617011168446e-01 0.0000000000000000e+00  5.3257724864743713e-02 -2.0993923957761060e-01 0.0000000000000000e+00  6.1911671119476173e-02 -2.2524070666919149e-01 0.0000000000000000e+00  7.9678494643451642e-02 -2.6890113128656390e-01 0.0000000000000000e+00  9.3181722674295239e-02 -2.9189038944108758e-01 0.0000000000000000e+00  1.0810495374629675e-01 -3.1451223139528067e-01 0.0000000000000000e+00  1.2385681110035333e-01 -3.3500703292857154e-01 0.0000000000000000e+00  1.4245289110034717e-01 -3.5834927650257437e-01 0.0000000000000000e+00  1.5792576842308609e-01 -3.6878493006416668e-01 0.0000000000000000e+00  1.8817161047315697e-01 -4.0997854518803056e-01 0.0000000000000000e+00  1.7197450036999876e-01 -3.4511376311005221e-01 0.0000000000000000e+00  1.9184456420325943e-01 -3.5753419772877487e-01 0.0000000000000000e+00  2.2298267304635874e-01 -3.8284800009318481e-01 0.0000000000000000e+00  2.5148640038676240e-01 -3.9762434105179312e-01 0.0000000000000000e+00  2.8511286695282761e-01 -4.1339313417876333e-01 0.0000000000000000e+00  3.2209930335400788e-01 -4.2672641918424675e-01 0.0000000000000000e+00  3.4658229490782266e-01 -4.1582129155319869e-01 0.0000000000000000e+00  3.9611589487285143e-01 -4.3263777384741436e-01 0.0000000000000000e+00  3.1383261555688824e-01 -3.0352306107281457e-01 0.0000000000000000e+00  3.0587777356489032e-01 -2.6078158661959222e-01 0.0000000000000000e+00  3.3334912477134354e-01 -2.4316673155796528e-01 0.0000000000000000e+00  3.2716155676958120e-01 -2.0207055503741914e-01 0.0000000000000000e+00  3.0891444173922861e-01 -1.5574959952201503e-01 0.0000000000000000e+00  2.6154833015394013e-01 -1.0247224192350603e-01 0.0000000000000000e+00  1.9720753652809023e-01 -5.5476725110788924e-02 0.0000000000000000e+00  1.0778179320209615e-01 -1.6234401288220100e-02 0.0000000000000000e+00  7.6106111431202040e-06 3.1111942393190510e-06 0.0000000000000000e+00  -3.1565267847268968e-05 -1.1127577433757872e-04 0.0000000000000000e+00  1.4852332530855390e-05 -1.2765200712935965e-04 0.0000000000000000e+00  5.4004793376590790e-06 -1.0825812880169757e-06 0.0000000000000000e+00  -2.7565659378842486e-05 1.0741820438105141e-04 0.0000000000000000e+00  1.9556854524022940e-06 9.3260941360308834e-05 0.0000000000000000e+00  8.5288393809822047e-06 1.1559079743329608e-04 0.0000000000000000e+00  -8.3462660653387650e-06 4.3695194716229964e-07 0.0000000000000000e+00  1.7709781839780095e-06 -9.4469456009589294e-05 0.0000000000000000e+00  -3.4628773570936618e-06 -1.2921240376733312e-04 0.0000000000000000e+00  1.0271588270106358e-05 7.5325485171978982e-07 0.0000000000000000e+00  2.1293643393964788e-05 -6.5192649830907667e-05 0.0000000000000000e+00  5.7323017367468540e-08 1.3091137779294064e-04 0.0000000000000000e+00  -4.5658378730136379e-05 -3.9786322175696008e-05 0.0000000000000000e+00  -5.5593687732148351e-05 -1.1490993355488569e-04 0.0000000000000000e+00  -4.7533210970134531e-05 3.7295335999989497e-05 0.0000000000000000e+00  -3.8473885459809664e-05 3.5722488455484957e-05 0.0000000000000000e+00  -1.5146872208689828e-05 -1.5368343456572731e-05 0.0000000000000000e+00  3.5206166303580575e-05 -7.0044798082055339e-05 0.0000000000000000e+00  2.6903267654517808e-05 7.0403770320768785e-05 0.0000000000000000e+00  2.3788009244361038e-06 -6.7157581581814372e-06 0.0000000000000000e+00  -2.6564308724007566e-06 -1.4340339180052655e-04 0.0000000000000000e+00  1.7211072602106884e-07 1.4139730591096174e-04 0.0000000000000000e+00  -5.4772233185196070e-05 -6.3984094926513918e-05 0.0000000000000000e+00  -1.5324693464637251e-04 1.9219618854873115e-05 0.0000000000000000e+00  1.9612036152653558e-05 3.7896998493992421e-05 0.0000000000000000e+00  7.4452752592292845e-05 -5.8845634063666721e-05 0.0000000000000000e+00  -1.8292381038398473e-05 -4.6433864473739684e-06 0.0000000000000000e+00  1.6298911650302434e-05 1.6534709926761544e-06 0.0000000000000000e+00  -1.2687506594303774e-05 -1.3239834903064232e-04 0.0000000000000000e+00  5.2427047151807704e-07 -1.5078057807471802e-04 0.0000000000000000e+00  -3.6821329400574233e-06 -7.9929797757043991e-05 0.0000000000000000e+00  -4.8864909266213997e-05 -1.5023150000220361e-04 0.0000000000000000e+00  -3.0687790381715913e-05 -3.7454152483839423e-05 0.0000000000000000e+00  -6.5013421645458670e-06 -4.1724730865852982e-05 0.0000000000000000e+00  -2.3777927616214526e-07 -4.4443652971875051e-06 0.0000000000000000e+00  -3.6380782946262972e-06 1.2126504436592089e-04 0.0000000000000000e+00  1.4522000556480474e-05 2.0608979051698893e-04 0.0000000000000000e+00  2.8301128894364039e-07 -1.1903851977142438e-05 0.0000000000000000e+00  -4.8467668035563345e-07 -1.1471754049770881e-04 0.0000000000000000e+00  1.2896501785701105e-05 -2.0527069985170037e-04 0.0000000000000000e+00  -1.2890182818770952e-05 -1.7790509672742860e-04 0.0000000000000000e+00  -1.1339571615275534e-05 -1.6401081222695296e-04 0.0000000000000000e+00  -2.0865064568287143e-05 1.7498263390237204e-04 0.0000000000000000e+00  -1.5299038932409546e-05 1.6959454743627547e-04 0.0000000000000000e+00  2.2295686937179641e-05 -7.6264838841177496e-06 0.0000000000000000e+00  2.3258187835841594e-05 -3.8858093604853021e-05 0.0000000000000000e+00  3.1304995137165228e-05 -2.9612379996629717e-05 0.0000000000000000e+00  1.6393306826223707e-05 -5.2278818025753665e-05 0.0000000000000000e+00  2.4686342803005817e-05 -6.0606450700086432e-05 0.0000000000000000e+00  -5.2017348543186243e-05 -2.5678314792169606e-04 0.0000000000000000e+00  -4.7653317080446087e-05 2.3795191105731149e-04 0.0000000000000000e+00  -4.6808408989846266e-05 -5.6823541608241960e-05 0.0000000000000000e+00  -5.5395111038364451e-05 -8.2541579390701670e-05 0.0000000000000000e+00  -3.0047846247634337e-05 -3.3584216954017328e-05 0.0000000000000000e+00  -3.1763542616041062e-06 1.1873338130513004e-04 0.0000000000000000e+00  -6.6423087454307601e-06 6.9667221250439067e-05 0.0000000000000000e+00  1.1736968790820282e-05 -1.7364521520362298e-04 0.0000000000000000e+00  2.3103571712915791e-05 -1.9677463332685817e-04 0.0000000000000000e+00  2.4604374683281699e-05 1.9688075467158366e-04 0.0000000000000000e+00  1.4887938722487026e-05 1.7584505214696887e-04 0.0000000000000000e+00  1.6570835203383598e-05 -1.7251364602778699e-04 0.0000000000000000e+00  4.7610661388485659e-06 -1.6746167953859712e-04 0.0000000000000000e+00  -6.6795227413068330e-07 1.7772623615656521e-04 0.0000000000000000e+00  1.1316248330683638e-05 1.6899820741616542e-04 0.0000000000000000e+00  -1.8193451227369441e-05 -1.7500149697439072e-04 0.0000000000000000e+00  -3.3775912318302929e-05 -1.2307475392940559e-04 0.0000000000000000e+00  -3.3037724832419701e-05 1.3209846480053157e-04 0.0000000000000000e+00  -1.4433144584085700e-05 1.7704052467650014e-04 0.0000000000000000e+00  -2.8291328036189281e-06 8.5874923328833690e-07 0.0000000000000000e+00  2.4055343813745912e-05 -2.0693707704366477e-05 0.0000000000000000e+00  2.3107511529165726e-05 2.4060912904667757e-05 0.0000000000000000e+00  -2.1600053592827059e-06 -1.0203551031075976e-06 0.0000000000000000e+00  -4.0422418397727082e-05 -7.6029497837953994e-05 0.0000000000000000e+00  -3.4173822659705737e-05 1.6215155893078433e-04 0.0000000000000000e+00  2.5939818714630213e-06 7.1746972282105224e-05 0.0000000000000000e+00  -2.4246965763990899e-05 3.0534763033633269e-06 0.0000000000000000e+00  1.5397000947226701e-05 -6.1497518805202938e-05 0.0000000000000000e+00  2.0805828656988258e-05 -1.1040111010823643e-04 0.0000000000000000e+00  2.6990766991927826e-06 -8.1721256162332813e-05 0.0000000000000000e+00  -9.3653581807827250e-06 1.0899774371186997e-05 0.0000000000000000e+00  -1.2770545399926917e-02 1.8582261258128868e-02 0.0000000000000000e+00  -3.8322600874839715e-05 -2.0881721229848459e-05 0.0000000000000000e+00  -1.2924322534229888e-05 -1.9414543882174701e-04 0.0000000000000000e+00  -1.6311026745067668e-05 1.9807551544907806e-04 0.0000000000000000e+00  1.4185290367618188e-06 -1.2287951115106017e-04 0.0000000000000000e+00  5.0088831400581842e-06 1.3826234440355843e-04 0.0000000000000000e+00  -6.6837281178095249e-06 1.2204616351822861e-04 0.0000000000000000e+00  -6.3569135116344519e-06 3.0130025709407623e-05 0.0000000000000000e+00  -3.8332150635128582e-05 4.5073624959046773e-05 0.0000000000000000e+00  -4.1573251426882864e-05 8.0731300560469820e-05 0.0000000000000000e+00  -6.1605440964376346e-05 5.9491333764722135e-06 0.0000000000000000e+00  -3.2802892641758296e-05 -7.8116592990967455e-06 0.0000000000000000e+00  1.0217917410585217e-05 3.0863750320486954e-05 0.0000000000000000e+00  1.0534733200538970e-05 5.8016736214443448e-06 0.0000000000000000e+00  2.8132057301240339e-05 3.4744041637105647e-05 0.0000000000000000e+00  -2.4308631485796961e-05 -8.6049689525011458e-05 0.0000000000000000e+00  -1.1084772616146312e-04 3.4144081811862735e-05 0.0000000000000000e+00  -3.8836224967033059e-05 -7.0545823559467946e-05 0.0000000000000000e+00  -3.0835157473249364e-05 -2.1986215828397800e-05 0.0000000000000000e+00  -3.0132423962977954e-05 1.8937768459401823e-05 0.0000000000000000e+00  -4.1361429998079324e-05 7.4632437849357763e-05 0.0000000000000000e+00  -5.9578114023539422e-03 -3.8656759096336666e-04 0.0000000000000000e+00  -4.9575337528858120e-05 1.6095864099277741e-05 0.0000000000000000e+00  -2.6998785122200517e-05 2.0870284757147829e-06 0.0000000000000000e+00  3.8044677292770198e-05 -7.2457581162180596e-05 0.0000000000000000e+00  3.2608906747862962e-05 -1.2440082716925764e-04 0.0000000000000000e+00  2.6819772358481928e-05 -1.0814244641947315e-04 0.0000000000000000e+00  2.5224484773770782e-05 1.2897965154073446e-04 0.0000000000000000e+00  3.3240313964923545e-05 7.7516940050031681e-05 0.0000000000000000e+00  1.7280491985028181e-05 1.0323580702591270e-04 0.0000000000000000e+00  1.7740744776791593e-05 8.9005051409172837e-05 0.0000000000000000e+00  1.3