<?xml version="1.0"?>
<VTKFile type="UnstructuredGrid"  version="0.1"  >
<UnstructuredGrid>
<Piece  NumberOfPoints="2549" NumberOfCells="4928">
<Points>
<DataArray  type="Float64"  NumberOfComponents="3"  format="ascii">1.640976713590841 -0.03793052376995653 0  1.637891337896286 0.009702876874837072 0  1.631124669484151 0.05683027688834098 0  1.622758626195693 0.1040775917853002 0  1.611373769636476 0.1509860053683901 0  1.597712873934296 0.197746024109932 0  1.580686403459126 0.2438111213703203 0  1.562131479315105 0.2897019776659266 0  1.537918151706641 0.332971913356337 0  1.512454370286753 0.3746461981144388 0  1.48894215995691 0.420893653631125 0  1.460133632516936 0.462808952104206 0  1.430789828733716 0.5051187503920879 0  1.399437373654169 0.5460961095938914 0  1.366514848967762 0.5863286239022332 0  1.332092307352453 0.6255404442434428 0  1.295794744138151 0.663044652827442 0  1.259391792470485 0.6991899632109807 0  1.222950625910457 0.7399551079678285 0  1.184369348425618 0.777317246958529 0  1.145214012384956 0.8155074771124244 0  1.104759766631747 0.852684901761076 0  1.063475694052759 0.8898718725332934 0  1.020669557663713 0.9260406237543173 0  0.9763589402198396 0.9608647553771572 0  0.9314419130532804 0.994182035127566 0  0.8852371822382763 1.027056402181048 0  0.8379927690923655 1.059047799899421 0  0.7897637369577116 1.090272969911034 0  0.7404007399440148 1.120249008698282 0  0.6899907445384138 1.148995305717528 0  0.6385435789257403 1.176321201345706 0  0.585875320747971 1.20160191451834 0  0.5323664426427845 1.225011563180193 0  0.4779431917423045 1.246937722198771 0  0.4225627825668796 1.266532715522413 0  0.3664058423159595 1.284038523507152 0  0.3094972685880521 1.299146901447083 0  0.2519484662128888 1.311831951271076 0  0.1938799407030677 1.322017433519802 0  0.1353178940655014 1.329313523011558 0  0.0765564570057464 1.33394760333968 0  0.01760167836120598 1.336128720156073 0  -0.0413861955448758 1.335469376761228 0  -0.1002940973092872 1.332075136834383 0  -0.1589691532222234 1.325855309287312 0  -0.217288783785251 1.31692748162465 0  -0.2750959739467712 1.305115829520011 0  -0.3322835497836576 1.290950031669135 0  -0.3888558287036037 1.274128147259541 0  -0.4444319375090992 1.254448832609193 0  -0.4990731707943482 1.232419721933194 0  -0.5527297791982717 1.208337888762799 0  -0.6051909197550899 1.182036509758367 0  -0.6567398329127546 1.154411766227935 0  -0.7068509251761362 1.124450669578321 0  -0.7558528499087549 1.094208490910676 0  -0.8040653157210134 1.062366263673794 0  -0.8505406866790411 1.028451173817017 0  -0.8957417242218032 0.9935407448235252 0  -0.9398961808900277 0.9581846313244008 0  -0.9825734201691938 0.9216339203257733 0  -1.024716245126401 0.8857813550358316 0  -1.064146004485382 0.8461143689506525 0  -1.10351262234099 0.810640131820357 0  -1.142412975325333 0.7750585959563615 0  -1.179998359981053 0.7382991330075439 0  -1.2169046246296 0.7020520183814384 0  -1.252564828189229 0.6649639265761937 0  -1.287857159947623 0.6295849451219704 0  -1.322921775032624 0.5930647212160318 0  -1.357877827498786 0.5598930125504845 0  -1.392837479576777 0.5228048297531077 0  -1.417247892070105 0.4763015112356246 0  -1.450460982655003 0.4349736463223095 0  -1.476027087965234 0.3899764413449003 0  -1.49940413738773 0.3436756188264918 0  -1.516143609002146 0.2944908269338785 0  -1.534625878208925 0.2473002359748059 0  -1.535484832684395 0.1928555065709387 0  -1.550175037469269 0.1485199027487186 0  -1.561901423218658 0.1017587896778735 0  -1.554818655628612 0.05374365580532812 0  -1.559320146346826 0.007463369056738358 0  -1.558426521235637 -0.03854119671475843 0  -1.560492964439909 -0.08453399388063121 0  -1.557795808049906 -0.1310422886377561 0  -1.562941279403355 -0.1795175819386571 0  -1.553351781195191 -0.2267069962894834 0  -1.540464312748596 -0.2717531254422038 0  -1.539721502511908 -0.3271002266062282 0  -1.522326511467444 -0.3749941162784725 0  -1.505959574736147 -0.4248771047751419 0  -1.482710265373306 -0.4714260865148036 0  -1.457084379665828 -0.5166023925545123 0  -1.424921625906865 -0.5582638407307086 0  -1.399954646664839 -0.6047259074032485 0  -1.364434459503294 -0.6417346658116225 0  -1.329671661904667 -0.6754992726506093 0  -1.294369611145004 -0.711939955198637 0  -1.259014814271563 -0.7473999764902061 0  -1.223493763116588 -0.7848397948277185 0  -1.18679420753984 -0.8215869244073921 0  -1.149441408383801 -0.8589746281948673 0  -1.110862270706859 -0.8953117771277025 0  -1.071642802618264 -0.9317127836989532 0  -1.032983984693103 -0.9736534242956416 0  -0.9908429511784643 -1.010778184189196 0  -0.9482719325941221 -1.048831850952768 0  -0.9042002747019212 -1.085820602825839 0  -0.8590228143995395 -1.122377895770377 0  -0.8124332299551297 -1.157895972834844 0  -0.7644193243163884 -1.191904882279666 0  -0.7150766505026855 -1.224771464043609 0  -0.6651852019639704 -1.258630404790984 0  -0.6129147956379972 -1.288412445192204 0  -0.5599754383373685 -1.316997189643155 0  -0.5056560720320541 -1.343089966875541 0  -0.45030109265355 -1.366964935637427 0  -0.3940165790893684 -1.388457430632536 0  -0.3364300442080465 -1.406393605063547 0  -0.2783098342111276 -1.421408982683062 0  -0.2195328682792089 -1.434205943369385 0  -0.1601548694383385 -1.443799732236379 0  -0.1003768005827357 -1.450509385572633 0  -0.04031674502534887 -1.454090049568374 0  0.01985525195231945 -1.454593982998835 0  0.07998426177359715 -1.451924940968264 0  0.1399049170409662 -1.4460941831006 0  0.1993993625542324 -1.437318129570168 0  0.2584013054014256 -1.425886068832919 0  0.3167778823842595 -1.411758278531221 0  0.3744509300884977 -1.395147177814597 0  0.431263898263141 -1.376013884733486 0  0.4872540583308318 -1.354909228843158 0  0.5421543382568647 -1.331238826680546 0  0.5960698844225732 -1.306609915999444 0  0.6492682827251027 -1.279973857064951 0  0.7009396696832381 -1.250808512241758 0  0.7515788594919255 -1.220395096348249 0  0.8010687214682385 -1.188770664165181 0  0.8493808873400979 -1.155984350731114 0  0.8966347244555071 -1.122473423947175 0  0.9427972154859871 -1.088188399704749 0  0.9876398693072277 -1.053582306295732 0  1.031851525238118 -1.01747145205885 0  1.07450171834599 -0.9800269012412053 0  1.11561556507033 -0.9416848603835679 0  1.155835000579767 -0.9033442020662276 0  1.194714598552935 -0.8640246264105154 0  1.233048652914609 -0.8256708101493947 0  1.269061950359313 -0.7837177006452173 0  1.305116082498047 -0.7467832226194848 0  1.341252929878157 -0.7087332573130704 0  1.375301930344347 -0.6687307827662312 0  1.407921119990932 -0.6278808369927846 0  1.438958408553704 -0.5862890525235299 0  1.467964320439521 -0.5433665569403566 0  1.496346808479047 -0.5008391509569643 0  1.519497408200903 -0.4540054288711137 0  1.544601574678079 -0.4119011890226911 0  1.568332254989234 -0.3681169040157425 0  1.586326320101908 -0.3216895571150098 0  1.602667204655008 -0.2751353366234897 0  1.615600061315973 -0.2279162965178402 0  1.6260214228712 -0.1805619883677697 0  1.633448411243442 -0.1330074516562546 0  1.638986001141472 -0.08562009562055244 0  -0.08201130253661279 0.7972875552890062 0  0.6185611524214949 -0.7177787649442607 0  -0.7299580837703223 -0.6286903856057489 0  -0.05824965885973639 -0.8883517462230616 0  0.6143634578890819 0.621442119736405 0  1.168338707602107 0.2034896429015049 0  -0.7424975307391137 0.5283809658010892 0  -1.214441558229801 -0.04334860312763786 0  1.172557529227308 -0.2865250760329828 0  -1.019270378158628 -0.4547444095228901 0  -0.7798435857811831 -0.05824317327678414 0  -0.4582332908582123 -0.2321566678752669 0  -1.029830775463593 0.3490581712681536 0  0.2981906769413278 -0.8655344206475623 0  0.153369336919138 -0.2927371349069667 0  0.2617626498232244 0.7590120327543846 0  0.3543805917636852 0.2025334758136928 0  0.6699831857623332 -0.04266921131807672 0  -0.3937819448157912 -0.7812714978184215 0  -0.4304645636439279 0.7030182847728133 0  -0.2577755711495106 0.2584385525765752 0  0.9252403522951441 -0.4920352022032129 0  0.9210938073796797 0.4051150425247023 0  0.4222570935068478 -0.3236193536233806 0  0.04651375698549492 0.2537986854056453 0  -0.5216828496745031 0.1977087615122356 0  -0.1553017840835821 -0.2851394715255671 0  0.9541416231931658 -0.04226012927986488 0  1.362297949458801 -0.03989252797992889 0  0.7722226104350018 -0.6020384061779521 0  0.7889548600106093 -0.2766988757074904 0  0.6349756329861796 -0.3771044604165137 0  0.5447878473007228 -0.1792851959149656 0  0.5145942724428242 -0.5258447163365543 0  0.9326587570205597 -0.2655632069023081 0  0.8113904723326708 -0.04244189235415747 0  -0.8964869478107317 0.1545836933082037 0  -1.117772489454559 0.1489198312669726 0  -0.9992505418534906 -0.04989703440402985 0  -0.8910929370846666 -0.2650562843331343 0  -1.11302131408725 -0.2442461063703162 0  -1.288136490509867 -0.3368636979972437 0  -1.376104083939502 -0.1530219463678794 0  -1.374062245373493 0.07040638036507214 0  -1.283666694252841 0.252915396248224 0  -0.107354691175907 -0.5863660595980092 0  -0.2679119676106064 -0.5390469699959302 0  -0.2273241093432237 -0.8401582787560732 0  -0.3062229860317313 -0.2597362669489501 0  -0.4223181573841072 -0.5043183538642939 0  -1.206321637511904 -0.5339281913567312 0  -1.20774462144336 0.4417232580265763 0  0.3590679277778656 -0.5921132798103842 0  0.2870233817457833 -0.3097787313337732 0  0.2203060797039515 -0.582097209086573 0  -0.8855843167206849 0.4345421076827876 0  -0.7518151199392388 0.2329463121006869 0  1.35630545620695 -0.3597277021392454 0  1.227237370946165 -0.5244033450864909 0  1.220483120021545 0.441169315549658 0  1.350831300589401 0.2789849141146954 0  -0.7348593029011357 -0.9117054801342336 0  -0.9099769279966557 -0.7771014233173106 0  -0.9128589461744124 0.6843498069668104 0  -0.7382526780385995 0.8122000701193478 0  0.7899773789417162 -0.9001628236482209 0  0.6002085465960078 -1.01246530986849 0  0.5935246114077705 0.9123340838812022 0  0.7826885703338428 0.8056962715523407 0  0.030262921686
[...]
<PointData  Vectors="f_11204"> 
<DataArray  type="Float64"  Name="f_11204"  NumberOfComponents="3" format="ascii">4.4832217089217717e-02 5.5490706531689544e-04 0.0000000000000000e+00  5.7857043016890985e-02 6.0370746677221093e-03 0.0000000000000000e+00  5.0239390956560097e-02 8.0243049286112533e-03 0.0000000000000000e+00  5.6918198141349095e-02 1.2014613970118986e-02 0.0000000000000000e+00  5.7060075846012727e-02 1.5179833566004074e-02 0.0000000000000000e+00  7.3578997664497867e-02 2.4543598761794846e-02 0.0000000000000000e+00  5.2918813153621992e-02 1.9909268502686914e-02 0.0000000000000000e+00  2.8287079908973934e-02 1.4490848460276909e-02 0.0000000000000000e+00  1.3857880703644973e-01 7.9513034009100300e-02 0.0000000000000000e+00  9.9026423304353864e-02 5.5620727459938145e-02 0.0000000000000000e+00  -1.4367464148326301e-02 -8.6285422463484411e-03 0.0000000000000000e+00  1.4341204239688128e-02 9.9206114035381571e-03 0.0000000000000000e+00  3.1760904096497768e-02 2.3378251124074614e-02 0.0000000000000000e+00  8.2827245047829415e-02 6.5602629273667154e-02 0.0000000000000000e+00  6.9483119359831050e-02 5.8946021272365659e-02 0.0000000000000000e+00  8.5226125638312597e-02 7.8594942045476165e-02 0.0000000000000000e+00  8.5707569924012142e-02 8.3770097825670700e-02 0.0000000000000000e+00  1.8295077583310337e-02 1.7461544460918382e-02 0.0000000000000000e+00  -5.4608340253294169e-03 -5.4345220474903509e-03 0.0000000000000000e+00  -1.6344367096489947e-02 -1.6631508579594265e-02 0.0000000000000000e+00  4.9236036284834844e-03 5.2318977864905429e-03 0.0000000000000000e+00  1.1821409159546973e-02 1.3011389047441471e-02 0.0000000000000000e+00  4.6341058687985456e-03 5.3973633997675061e-03 0.0000000000000000e+00  3.7949726882364358e-02 4.6670849498089376e-02 0.0000000000000000e+00  2.8750205628407355e-02 3.7490105895038213e-02 0.0000000000000000e+00  1.4409943360730279e-02 1.9787979965070573e-02 0.0000000000000000e+00  6.9495014442827506e-03 9.9900939561652202e-03 0.0000000000000000e+00  -1.3352208399608776e-03 -2.0551138693509301e-03 0.0000000000000000e+00  -6.7683299571463596e-03 -1.0798755796889305e-02 0.0000000000000000e+00  -7.5195786279561644e-03 -1.2804247394230958e-02 0.0000000000000000e+00  -1.6065959368782134e-02 -2.9291653929720957e-02 0.0000000000000000e+00  -1.5627681060334020e-02 -3.0826421351168514e-02 0.0000000000000000e+00  -7.1278691487086619e-03 -1.5536045763974134e-02 0.0000000000000000e+00  -1.3992705094074576e-02 -3.3463315229563216e-02 0.0000000000000000e+00  -1.5512292630659426e-02 -4.0961521489100497e-02 0.0000000000000000e+00  -1.1919691876710183e-02 -3.5907737194820065e-02 0.0000000000000000e+00  -1.2524524771946493e-02 -4.3393210006739090e-02 0.0000000000000000e+00  -9.3172353724277745e-03 -3.8352312534845140e-02 0.0000000000000000e+00  -8.2732707983822259e-03 -4.1864246001233577e-02 0.0000000000000000e+00  -5.4610481813813418e-03 -3.6228629563109772e-02 0.0000000000000000e+00  -3.3465960493425919e-03 -3.2865056241145052e-02 0.0000000000000000e+00  -1.8155218020172858e-03 -3.1173396258898037e-02 0.0000000000000000e+00  -3.8172018679487362e-04 -3.0125872452558770e-02 0.0000000000000000e+00  9.9618317972061696e-04 -2.9196608984694127e-02 0.0000000000000000e+00  2.3548748460984013e-03 -2.8696608296646452e-02 0.0000000000000000e+00  3.3713177999058863e-03 -2.6093499046219316e-02 0.0000000000000000e+00  5.3369163333092367e-03 -2.9748373539398913e-02 0.0000000000000000e+00  6.1129936074858851e-03 -2.7167214837666733e-02 0.0000000000000000e+00  5.3776790573808438e-03 -1.9659140144831836e-02 0.0000000000000000e+00  1.3439457031097521e-02 -4.0974225419407539e-02 0.0000000000000000e+00  1.9539631613535620e-02 -5.1782379155507520e-02 0.0000000000000000e+00  1.3133721665678734e-02 -3.0908179032423603e-02 0.0000000000000000e+00  2.4319183121540012e-02 -5.1150192542721733e-02 0.0000000000000000e+00  1.0453076740682726e-02 -2.0405436360375877e-02 0.0000000000000000e+00  1.8650688659057342e-02 -3.2772763416460439e-02 0.0000000000000000e+00  8.4242731708258044e-03 -1.4093947597539213e-02 0.0000000000000000e+00  -1.3394024978767419e-02 2.0893668907179169e-02 0.0000000000000000e+00  6.9055503830898202e-03 -9.6998243985732813e-03 0.0000000000000000e+00  2.2843845796078944e-02 -3.0570349998735150e-02 0.0000000000000000e+00  -2.4385447394091250e-03 3.0948708675034445e-03 0.0000000000000000e+00  3.1200093675611169e-02 -3.7616486834067854e-02 0.0000000000000000e+00  2.8246780804966200e-02 -3.2946962097102427e-02 0.0000000000000000e+00  5.2225634308478520e-02 -5.6738427216031680e-02 0.0000000000000000e+00  -1.0997135729459551e-01 1.1608574181606558e-01 0.0000000000000000e+00  -2.2795292000513809e-02 2.4705418786699632e-02 0.0000000000000000e+00  -8.1319345065982290e-03 8.5760176487115220e-03 0.0000000000000000e+00  -1.0244883778300427e-02 1.0511974191368382e-02 0.0000000000000000e+00  -2.0999163877921376e-02 2.0746408865718796e-02 0.0000000000000000e+00  8.6359321538113428e-03 -8.4178634850057381e-03 0.0000000000000000e+00  -2.7900185001870591e-02 2.7571868537388574e-02 0.0000000000000000e+00  7.4123726478772228e-03 -7.8981180190307830e-03 0.0000000000000000e+00  -3.0120128691813908e-01 2.9986369743887825e-01 0.0000000000000000e+00  8.1987427019783554e-01 -5.8832939112198346e-01 0.0000000000000000e+00  -2.4976242143252353e-01 1.6250505201985121e-01 0.0000000000000000e+00  -7.8292579267451667e-01 5.2320736855275651e-01 0.0000000000000000e+00  -1.2410993931713624e-01 6.7378612107651503e-02 0.0000000000000000e+00  1.9035458768903425e-02 -5.3097734935903329e-03 0.0000000000000000e+00  2.0779560302528602e-01 -7.4127383772740460e-02 0.0000000000000000e+00  3.5447714764317101e-01 -7.2907920447227048e-02 0.0000000000000000e+00  -2.7944218598285436e-01 5.0559185876676828e-02 0.0000000000000000e+00  -1.1825722188762462e-01 3.3148703886695004e-02 0.0000000000000000e+00  4.6084625059130796e-01 -2.4750017906745133e-02 0.0000000000000000e+00  -1.2676592926500246e-01 -4.1060779247337762e-03 0.0000000000000000e+00  -8.9790915154475570e-02 2.5395254709160708e-03 0.0000000000000000e+00  -4.3512260047329200e-02 6.2159390340993999e-04 0.0000000000000000e+00  -3.1593015944693950e-02 -2.5638925586805748e-05 0.0000000000000000e+00  -3.7448032889318431e-02 2.1347882369290049e-03 0.0000000000000000e+00  2.9848167769923917e-01 1.4800426592624408e-02 0.0000000000000000e+00  -1.0154680449867301e-01 -2.3550463009184973e-02 0.0000000000000000e+00  -2.2459813852205721e-01 -3.5043746322420820e-02 0.0000000000000000e+00  2.5309549529790720e-01 4.7748355141082922e-02 0.0000000000000000e+00  1.0777853472605578e-01 3.6867781492844594e-02 0.0000000000000000e+00  -6.6361744332904251e-03 -5.3208639078907516e-03 0.0000000000000000e+00  -1.3051892669712434e-01 -6.9495902449689853e-02 0.0000000000000000e+00  -6.3255118974328928e-01 -4.1436024826371815e-01 0.0000000000000000e+00  -2.5740559848504357e-01 -1.6531473304267341e-01 0.0000000000000000e+00  5.7704105118099691e-01 4.1947702043880619e-01 0.0000000000000000e+00  -1.3600059224096486e-01 -1.3474032278286377e-01 0.0000000000000000e+00  -1.7511768890759470e-02 -1.7288133181971276e-02 0.0000000000000000e+00  -2.6206587311591398e-02 -2.5950065396992360e-02 0.0000000000000000e+00  1.7590800022209793e-02 1.7159654283917657e-02 0.0000000000000000e+00  -1.5106584736927048e-02 -1.4695006952508007e-02 0.0000000000000000e+00  -4.8095379199133703e-03 -4.8368297548772891e-03 0.0000000000000000e+00  2.2182914578319770e-03 2.2810194289486900e-03 0.0000000000000000e+00  -2.8470554232689255e-02 -2.9650664357782859e-02 0.0000000000000000e+00  -1.9152264986251863e-01 -1.9199398074835342e-01 0.0000000000000000e+00  1.2754347876620389e-01 1.3122803787426429e-01 0.0000000000000000e+00  5.2601604964319690e-02 5.8726551310070881e-02 0.0000000000000000e+00  3.9292689543411530e-02 4.5273007947225739e-02 0.0000000000000000e+00  4.0412855272857858e-04 5.3425919544915180e-04 0.0000000000000000e+00  1.9374284593323358e-02 2.4701488999620679e-02 0.0000000000000000e+00  1.7167871015560988e-02 2.3315973750829545e-02 0.0000000000000000e+00  -1.2851156875105700e-02 -1.8779335571267517e-02 0.0000000000000000e+00  -1.4499485837625330e-02 -2.0874471918896249e-02 0.0000000000000000e+00  8.6882660265340333e-02 1.3908658247129596e-01 0.0000000000000000e+00  1.4958766227263732e-02 2.7465965838855286e-02 0.0000000000000000e+00  5.2115100344356312e-02 1.0199374517302003e-01 0.0000000000000000e+00  1.9176402160480131e-02 4.2166074731451814e-02 0.0000000000000000e+00  3.4644033040217952e-02 8.5814136707691197e-02 0.0000000000000000e+00  2.6127758478523552e-02 7.4628140186202382e-02 0.0000000000000000e+00  4.2175761226053796e-03 1.4649294025338346e-02 0.0000000000000000e+00  7.9664034391740881e-03 3.3741790589071063e-02 0.0000000000000000e+00  7.6013416964830806e-03 3.9890612328893682e-02 0.0000000000000000e+00  4.0332469409586858e-03 2.9553339363667341e-02 0.0000000000000000e+00  2.8108875388622558e-03 3.2486820859683560e-02 0.0000000000000000e+00  9.3933792570596224e-04 2.7528842188681263e-02 0.0000000000000000e+00  -4.9025096834667283e-04 2.7680806617832874e-02 0.0000000000000000e+00  -1.8030691163259556e-03 2.5472300184175005e-02 0.0000000000000000e+00  -3.7884595843059089e-03 3.0848168016891182e-02 0.0000000000000000e+00  -5.4650663146962163e-03 3.2056608030721662e-02 0.0000000000000000e+00  -7.7519952003423038e-03 3.5540805827189298e-02 0.0000000000000000e+00  -9.0018498596231965e-03 3.3998424999511848e-02 0.0000000000000000e+00  -1.2846236397031471e-02 4.1094590495663434e-02 0.0000000000000000e+00  -1.0826012393360758e-02 3.0459309177538623e-02 0.0000000000000000e+00  -1.6340439889004452e-02 4.0384076799802576e-02 0.0000000000000000e+00  -1.2421856090326314e-02 2.8184024363906702e-02 0.0000000000000000e+00  -8.2393017878351377e-04 1.7099472723965091e-03 0.0000000000000000e+00  -2.2885422461905169e-02 4.2754859452343974e-02 0.0000000000000000e+00  -2.0714058947908356e-02 3.5815070492313840e-02 0.0000000000000000e+00  -9.8686755434727307e-03 1.5922906956390908e-02 0.0000000000000000e+00  -1.0581596902921002e-02 1.6096946380129970e-02 0.0000000000000000e+00  -3.6796619432294154e-03 5.3334387725094854e-03 0.0000000000000000e+00  3.1699656069156040e-03 -4.3456394960954591e-03 0.0000000000000000e+00  1.1285172361495312e-02 -1.4859040930530488e-02 0.0000000000000000e+00  2.6821461041312160e-02 -3.3630674355678923e-02 0.0000000000000000e+00  3.3921974488919801e-02 -4.0159026902875657e-02 0.0000000000000000e+00  3.7994275207157441e-03 -4.2625404019142150e-03 0.0000000000000000e+00  1.2387657287621532e-02 -1.3161085781735858e-02 0.0000000000000000e+00  5.6678946259010852e-04 -6.0932018768084970e-04 0.0000000000000000e+00  -2.2150900693416700e-02 2.1818454195876451e-02 0.0000000000000000e+00  -7.9661899397082854e-03 7.5844235951994000e-03 0.0000000000000000e+00  3.7381762442743056e-02 -3.4383061311372927e-02 0.0000000000000000e+00  6.0653118034338246e-02 -5.7675715509246508e-02 0.0000000000000000e+00  8.7079866133425748e-02 -7.8319321090625532e-02 0.0000000000000000e+00  6.1107251275176723e-02 -5.0417880035949054e-02 0.0000000000000000e+00  8.0181820931558984e-02 -6.1958188909356914e-02 0.0000000000000000e+00  3.2522188264290257e-02 -2.3291720495489127e-02 0.0000000000000000e+00  2.0482528754746109e-02 -1.3796505891819005e-02 0.0000000000000000e+00  -1.3909306263384652e-02 8.1325304233153626e-03 0.0000000000000000e+00  8.0831629538956826e-02 -4.4201305314676663e-02 0.0000000000000000e+00  1.3387176998729328e-01 -7.4711061120433409e-02 0.0000000000000000e+00  2.8991881806469139e-02 -1.4257767336094941e-02 0.0000000000000000e+00  5.1268302829592313e-02 -1.8441379207865993e-02 0.0000000000000000e+00  6.7244691136035387e-02 -2.1176830230160069e-02 0.0000000000000000e+00  5.2705228473376692e-02 -1.2972344154644133e-02 0.0000000000000000e+00  4.9362191006711138e-02 -9.3191470986515763e-03 0.0000000000000000e+00  4.6330021040130127e-02 -6.3702188788268667e-03 0.0000000000000000e+00  3.2062578797330141e-02 -2.4712543782874855e-03 0.0000000000000000e+00  1.8353291366888715e-09 -2.2939207357578831e-08 0.0000000000000000e+00  -6.5792870653439897e-09 1.0425178478497547e-08 0.0000000000000000e+00  1.5033502557428681e-08 1.7126080375345948e-08 0.0000000000000000e+00  1.9492251210553469e-09 2.2108823798917035e-08 0.0000000000000000e+00  -4.6459773749686504e-09 -7.8302563702076000e-09 0.0000000000000000e+00  2.8069693723929156e-08 2.1378260269940746e-08 0.0000000000000000e+00  1.0716966190589054e-08 -1.2929677440255613e-08 0.0000000000000000e+00  -4.6695088150085302e-08 -2.2102768062794189e-09 0.0000000000000000e+00  2.8107847928747357e-08 -2.0814196847134773e-08 0.0000000000000000e+00  -3.7619575703140906e-09 -4.2118448429323903e-09 0.0000000000000000e+00  7.6637846254379172e-15 -7.1556460510324921e-15 0.0000000000000000e+00  8.5959873260409366e-15 1.3318752764261082e-14 0.0000000000000000e+00  -7.6250696227532483e-09 8.3392615186722607e-09 0.0000000000000000e+00  -7.9445937737599075e-09 2.5727406051300342e-08 0.0000000000000000e+00  -3.7873900402525225e-15 3.0671433667998255e-14 0.0000000000000000e+00  -7.7908544326237105e-09 -2.7262472597098255e-08 0.0000000000000000e+00  -1.0624183539655792e-14 -2.3754489803137438e-14 0.0000000000000000e+00  1.5321660719185008e-14 1.8957444218008321e-15 0.0000000000000000e+00  1.9221200194376851e-08 3.8277726473915621e-08 0.0000000000000000e+00  1.1346177382722579e-08 -2.4553180126436733e-08 0.0000000000000000e+00  8.1225109345036165e-15 -2.8759060819900954e-14 0.0000000000000000e+00  3.5747158805405450e-12 -2.2503323371085252e-10 0.0000000000000000e+00  1.3368169553887827e-09 1.6433863234194701e-09 0.0000000000000000e+00  -1.3209518303471540e-14 2.7504420488135136e-14 0.0000000000000000e+00  -3.4315380132757206e-15 -3.1679852358121910e-14 0.0000000000000000e+00  6.8242065034454505e-15 -1.0888739881758161e-14 0.0000000000000000e+00  1.0715841838651434e-14 3.3966028549587044e-14 0.0000000000000000e+00  7.1765033864760796e-14 3.1539703965875425e-15 0.0000000000000000e+00  8.3465897609525105e-08 1.4553467125754489e-09 0.0000000000000000e+00  6.7890165949740646e-09 -8.3117969002168471e-09 0.0000000000000000e+00  5.7599123880428627e-12 -6.8297608842991554e-12 0.0000000000000000e+00  -5.3125061929825256e-13 1.3364207852896406e-12 0.0000000000000000e+00  -7.7446222890693409e-15 1.2666430658744665e-14 0.0000000000000000e+00  -1.1352329408531585e-11 2.0102233944852170e-11 0.0000000000000000e+00  3.6060262113858353e-12 -3.1989320520396004e-12 0.0000000000000000e+00  4.3176855142384102e-15 1.4740368911225498e-15 0.0000000000000000e+00  -1.8236891792133078e-11 2.2848719248014831e-11 0.0000000000000000e+00  7.6702811733946066e-08 -5.3027817386651338e-08 0.0000000000000000e+00  -2.5551742662884174e-10 1.3936753313733658e-11 0.0000000000000000e+00  -1.4634731357710094e-11 -1.6890062375265257e-11 0.0000000000000000e+00  4.7889122161347672e-08 3.6984146122656613e-08 0.0000000000000000e+00  -1.4928266822732356e-04 -9.4589051955179266e-05 0.0000000000000000e+00  3.9028632549216036e-05 1.1252708247650934e-05 0.0000000000000000e+00  4.8277810524522694e-05 -1.9128342490077752e-05 0.0000000000000000e+00  -1.8874199070798413e-04 1.2319843250822607e-04 0.0000000000000000e+00  5.0257547590962019e-12 2.5868108023068271e-11 0.0000000000000000e+00  1.6652367708286494e-11 4.0723372031976971e-11 0.0000000000000000e+00  7.4484738458609731e-09 2.3840861631564372e-08 0.0000000000000000e+00  2.2638960388772158e-14 4.5200589821271773e-14 0.0000000000000000e+00  2.2364742508179545e-11 3.8197093306204036e-11 0.0000000000000000e+00  -4.4608471083052393e-06 -6.9752892677083449e-06 0.0000000000000000e+00  2.2345925347305824e-06 2.0296662466025085e-06 0.0000000000000000e+00  -1.0380779152407170e-11 2.6418610342624200e-11 0.0000000000000000e+00  -1.0038713119441122e-14 3.2666404482113818e-14 0.0000000000000000e+00  -6.2768699745782438e-12 2.8651718701684663e-11 0.0000000000000000e+00  -1.1461659347317793e-08 1.2068923384231743e-08 0.0000000000000000e+00  4.5915529697352162e-12 -5.7747436984361405e-12 0.0000000000000000e+00  9.5012264187148514e-06 -5.6206812443119923e-06 0.0000000000000000e+00  2.7973789000672507e-05 -2.3370830893200063e-05 0.0000000000000000e+00  3.0503346596106686e-05 2.6179523261816568e-05 0.0000000000000000e+00  9.7176602609055659e-06 5.8200436562406016e-06 0.0000000000000000e+00  7.3630103987613296e-06 9.3388451917966628e-06 0.0000000000000000e+00  3.2076875371600858e-05 3.3659907382766239e-05 0.0000000000000000e+00  1.2859971352702997e-05 -1.4378407936556868e-05 0.0000000000000000e+00  7.1386099724902778e-06 -9.3743630446514960e-06 0.0000000000000000e+00  -5.7700236747988562e-07 1.0459306491331294e-06 0.0000000000000000e+00  -9.1581307279954820e-06 1.5873062959606070e-05 0.0000000000000000e+00  -7.3751713251431132e-06 -1.3601985888849140e-05 0.0000000000000000e+00  7.1579067918976551e-07 7.6847756699174691e-07 0.0000000000000000e+00  -3.0445399430516510e-07 1.8031438731347158e-05 0.0000000000000000e+00  3.8506006054674677e-06 2.0346916499779197e-05 0.0000000000000000e+00  3.1937230167769118e-06 -1.7990843307542974e-05 0.0000000000000000e+00  -2.7558561116485067e-07 -2.0165047066845664e-05 0.0000000000000000e+00  -8.2340276145294424e-09 1.6973586356348254e-08 0.0000000000000000e+00  -5.8715595339739795e-15 -1.0305140727728451e-14 0.0000000000000000e+00  9.6828610625123500e-13 8.2966849931388153e-13 0.0000000000000000e+00  -8.3378277257274045e-12 -1.5737068252534453e-11 0.0000000000000000e+00  9.0052208390444827e-12 1.1411616063223542e-11 0.0000000000000000e+00  1.8389836590818911e-14 2.1062024252909572e-14 0.0000000000000000e+00  1.3463576739581081e-11 1.4979145493379396e-11 0.0000000000000000e+00  -9.5130350510442276e-15 -3.3507872995437404e-14 0.0000000000000000e+00  -7.7923674126071169e-18 -5.5129783223875284e-18 0.0000000000000000e+00  -1.9997902349251168e-17 -1.3559886986110471e-18 0.0000000000000000e+00  -4.4234410139275708e-06 -4.3978717281362145e-06 0.0000000000000000e+00  -6.4641832819450081e-06 6.6043284122415041e-06 0.0000000000000000e+00  -1.5567929415980373e-08 -1.5538560333938266e-08 0.0000000000000000e+00  6.6256871981041762e-12 8.1383100424009332e-12 0.0000000000000000e+00  7.8008693147476124e-09 9.9735844213971925e-09 0.0000000000000000e+00  3.7681831204564908e-12 3.5230537281295810e-12 0.0000000000000000e+00  -9.9487699252395304e-12 -2.7032910005407114e-11 0.0000000000000000e+00  -7.9365695633994966e-09 -1.7511723466216975e-08 0.0000000000000000e+00  -3.9756534744079813e-13 2.3458514393675297e-11 0.0000000000000000e+00  -2.6111763295109552e-09 2.1129053104843390e-08 0.0000000000000000e+00  1.1465765666898378e-11 -3.0494636440492698e-11 0.0000000000000000e+00  4.2826817660645445e-12 -2.4121063574705469e-11 0.0000000000000000e+00  5.8158164287598911e-09 -2.0594801382123611e-08 0.0000000000000000e+00  -3.5908586599790579e-17 3.1901900330981644e-17 0.0000000000000000e+00  2.5635606824322641e-15 2.8523731402077877e-14 0.0000000000000000e+00  -8.0441194775558662e-06 2.0342711748136814e-05 0.0000000000000000e+00  -4.5270441366813237e-06 2.0636337183430418e-05 0.0000000000000000e+00  -4.7236863968035653e-06 -2.3681311294852596e-05 0.0000000000000000e+00  -7.6628254424570119e-06 -2.0612814434700871e-05 0.0000000000000000e+00  6.1050336541757920e-18 8.5722358279442844e-19 0.0000000000000000e+00  -6.0340272783658326e-12 -3.0334659158817406e-11 0.0000000000000000e+00  -2.6516226396489989e-09 -2.4818401500135292e-08 0.0000000000000000e+00  1.3309594311661239e-05 3.2393996505142265e-05 0.0000000000000000e+00  2.5017341730242781e-05 4.1730882386309089e-05 0.0000000000000000e+00  4.6263132335433601e-09 7.1616229350829851e-09 0.0000000000000000e+00  7.8950042590241566e-06 -1.4484772032764353e-05 0.0000000000000000e+00  8.3875277485574028e-06 -2.2085386347428038e-05 0.0000000000000000e+00  2.9688169038597818e-09 -4.6952593721680152e-09 0.0000000000000000e+00  1.1376281025151207e-14 -1.3856626771142984e-14 0.0000000000000000e+00  7.7767944677580206e-12 -1.02749