<?xml version="1.0"?>
<VTKFile type="UnstructuredGrid"  version="0.1"  >
<UnstructuredGrid>
<Piece  NumberOfPoints="2549" NumberOfCells="4928">
<Points>
<DataArray  type="Float64"  NumberOfComponents="3"  format="ascii">1.664937503007732 -0.04383978210196274 0  1.66173445509281 0.004442097835470914 0  1.654552748285341 0.05215354077439849 0  1.64571185705874 0.09996146461069536 0  1.633759551611507 0.1473764392976731 0  1.619310747363429 0.1945679479028893 0  1.60153661856786 0.2409931491686184 0  1.581852583659816 0.2871296521925942 0  1.556621335874108 0.3305228955928992 0  1.529904810535097 0.3721491953834863 0  1.504774372081078 0.4181194212121316 0  1.474762404329447 0.4598790315287477 0  1.443925221360054 0.5017887022646127 0  1.411011212851966 0.542174084345045 0  1.376552865344946 0.5816247912647613 0  1.340837928982476 0.6203411977614349 0  1.302315512934834 0.6561167538430148 0  1.264551702931805 0.6913376629255421 0  1.226574507357834 0.730883095489185 0  1.186347628674153 0.766856095519729 0  1.145828371061664 0.8038474482490032 0  1.103910326504776 0.8395924643300976 0  1.061125106466793 0.8750556904921829 0  1.017061539941275 0.9097034666987751 0  0.9713435636592872 0.9424803945818816 0  0.9252427252392255 0.9738983180905705 0  0.8780020370854623 1.004905990496685 0  0.829839811395559 1.03503716269129 0  0.7807992364287915 1.064412282873314 0  0.7307344696699121 1.092527576755614 0  0.6797090508665437 1.119349676905995 0  0.6277423205786253 1.144728085723589 0  0.5747259891121252 1.168098570910213 0  0.5209880425532716 1.18957193073532 0  0.4664579276799379 1.20962732550388 0  0.4111549062139098 1.227496562732178 0  0.3551920851010594 1.243347407837044 0  0.2986298927542708 1.256970295357253 0  0.2415568632006436 1.268335376386609 0  0.1840761178299586 1.277423347151332 0  0.1262181895322242 1.283895887248327 0  0.06822442041819676 1.287988117525471 0  0.01007932886093532 1.289927377799215 0  -0.04809401152101737 1.289351399581073 0  -0.1062112060370829 1.286341928668159 0  -0.1641563464778479 1.280806047232931 0  -0.2218283853421006 1.27282253552517 0  -0.2791073686675051 1.262211813409326 0  -0.3358961482438081 1.249480525435058 0  -0.3922106013530188 1.234244582853756 0  -0.4477088183010821 1.216265891579871 0  -0.502420194627229 1.19604534191825 0  -0.5562597296090702 1.173750186089715 0  -0.6091016378222039 1.149349496467524 0  -0.6610670918011531 1.123533883609814 0  -0.7118441622564369 1.095536699057797 0  -0.7616394732783144 1.067345812664117 0  -0.8107857554951777 1.037531303943611 0  -0.8583447778093145 1.005523451624022 0  -0.9047821462985812 0.9725931296118292 0  -0.9501774735413046 0.9389923102764628 0  -0.9942716209991751 0.9042136275935972 0  -1.037664136603245 0.8698081035320582 0  -1.079020941359717 0.8322979132217314 0  -1.120068590066901 0.7984689815066107 0  -1.160958944251005 0.7647184787922361 0  -1.200556792936694 0.7296428243029461 0  -1.239548909025896 0.6949194341654354 0  -1.27738388715606 0.6594190388317511 0  -1.315500842184951 0.6259278646798379 0  -1.353398102925767 0.5911720619163612 0  -1.389542646363239 0.5572049876727675 0  -1.428524015954115 0.5229786806081741 0  -1.456225443703973 0.4767621702671784 0  -1.487460062130102 0.4341268790701879 0  -1.513944490338497 0.3887621309047438 0  -1.538074993927876 0.3422573964184477 0  -1.556022588505956 0.2925579783495887 0  -1.574087646201008 0.244593548918974 0  -1.577787691100315 0.1897804262972363 0  -1.591496010479832 0.1444721563333375 0  -1.602258684565427 0.09707272517463293 0  -1.598104345455119 0.0482264315949715 0  -1.601806857592028 0.001312976117665219 0  -1.600926168420234 -0.04526074361257629 0  -1.603155870084037 -0.09189278230834687 0  -1.600789158910276 -0.1390550712415716 0  -1.605811700715855 -0.1883436892044976 0  -1.596258487536346 -0.2362372642766649 0  -1.583551171135452 -0.2821023751617765 0  -1.581211709997314 -0.3381496497128298 0  -1.563722351502284 -0.3867820389975221 0  -1.546158248550285 -0.4371962841243497 0  -1.522035899867015 -0.4840713013727317 0  -1.495142396811568 -0.5294658174997495 0  -1.464239891760826 -0.5722972715271993 0  -1.436473382671597 -0.6186707087096478 0  -1.397144430796201 -0.6531506713022871 0  -1.361061746988993 -0.6874546591198555 0  -1.322983235398135 -0.7222711852754272 0  -1.284936025428003 -0.7560240701066134 0  -1.247265586377721 -0.7919997861714805 0  -1.208486851479169 -0.8273085781760741 0  -1.169147583425616 -0.8631333906378024 0  -1.128691969920327 -0.8978718385237906 0  -1.087929740315549 -0.9329309957211086 0  -1.047235177482969 -0.9727819264421982 0  -1.004004463480443 -1.008786108390964 0  -0.9601063104042237 -1.045369012348017 0  -0.9148607325106154 -1.080865057878774 0  -0.8685181678395013 -1.115772553073701 0  -0.8209481378309953 -1.149723004342503 0  -0.7720493568643461 -1.182099770704728 0  -0.7221662836807167 -1.213630740157091 0  -0.6713645240938377 -1.245687234740793 0  -0.6187879153785447 -1.274189532878117 0  -0.5653444813642046 -1.301211606979745 0  -0.5107339199538475 -1.325791118146983 0  -0.4551516989612307 -1.348054285765531 0  -0.3987310306167265 -1.367946671616572 0  -0.3412339503447055 -1.38437744870472 0  -0.2833267537493107 -1.397978902501981 0  -0.2248880896143879 -1.409584513170221 0  -0.1659746077995612 -1.418225376290692 0  -0.1067399600189866 -1.424195106287689 0  -0.04728788923564198 -1.427286983357763 0  0.01224391612932882 -1.427541747150294 0  0.07172868878862852 -1.42488762650273 0  0.1310291778525204 -1.419300014077575 0  0.1899613136343861 -1.411014259865691 0  0.2484702528706012 -1.400280771895529 0  0.3064533193519647 -1.387062656565594 0  0.3638284470624699 -1.371512174545473 0  0.4204856705182933 -1.353631653742212 0  0.4763946030097099 -1.333820009095209 0  0.5314106673143292 -1.311672008358437 0  0.5855620991671973 -1.28869176336028 0  0.6390922053364102 -1.263661634298578 0  0.691315675507097 -1.236193831457707 0  0.7425519809777096 -1.20743325070732 0  0.7927438534042491 -1.177433251193988 0  0.8418551739047182 -1.14627362119138 0  0.8900193233009934 -1.114410490258081 0  0.9372178437003209 -1.081809582901645 0  0.9832669585118907 -1.048959350849826 0  1.028856363887794 -1.014666695771877 0  1.07277919753933 -0.9786383238276124 0  1.115391426304908 -0.9418776445669833 0  1.157105796027035 -0.9048876096312386 0  1.197399445618001 -0.8667166787407804 0  1.237361931684571 -0.8296010231893576 0  1.274939013106347 -0.788785792272345 0  1.312487373426595 -0.7527930763515803 0  1.350701168756869 -0.7161877660235236 0  1.386132622674856 -0.6766996295674681 0  1.420312324571541 -0.6365492563893614 0  1.452924860340756 -0.5954819515160893 0  1.483444623105447 -0.5529128119699732 0  1.513082170227872 -0.5105014376625662 0  1.537745319371248 -0.4638151782341035 0  1.564125727207306 -0.4217119075602998 0  1.588842960679734 -0.3777223209082853 0  1.607901332130288 -0.3309900571227762 0  1.624963535030678 -0.2840104850348296 0  1.638598176996813 -0.236299784065305 0  1.649492107662782 -0.1883766927686784 0  1.657296979538982 -0.1402198723848408 0  1.662939798637365 -0.09217493907679908 0  -0.09056959209372631 0.7657613428908097 0  0.6196538350694302 -0.7103998300610659 0  -0.7514002031629129 -0.6255649181195377 0  -0.06715962796345898 -0.8738766994593791 0  0.6156975388979563 0.5998112341656623 0  1.183742196290747 0.1956320503007233 0  -0.7640592215872939 0.5103219477067662 0  -1.25153251770012 -0.05035434601018206 0  1.188258086338851 -0.2913387435411637 0  -1.049747956053838 -0.4584075412931423 0  -0.8074512394560377 -0.06534120114598574 0  -0.4776565276419159 -0.2352352722166403 0  -1.06044966403447 0.3388538246694137 0  0.2935854697038725 -0.8520839399391692 0  0.1483829451448339 -0.2934374582706122 0  0.2573143821254544 0.7297103097765869 0  0.3540681594812037 0.1887487120775103 0  0.6768940305284931 -0.04956820935901159 0  -0.4077155064919809 -0.7714813904951777 0  -0.4442232551040036 0.6766630303611464 0  -0.271920678385904 0.2425342513910613 0  0.934268660357513 -0.4921795671013751 0  0.9299842331408443 0.3920171530208811 0  0.4231171602428104 -0.3238288677813039 0  0.03930986176950757 0.2377616664483678 0  -0.5422950179946696 0.1844608895741771 0  -0.1673983703798992 -0.2862619517405762 0  0.966855248384595 -0.04879280047630456 0  1.382250947896645 -0.04606123883079482 0  0.7772185233808777 -0.5986215684597206 0  0.7976354912284828 -0.2791806963891476 0  0.6399274141122123 -0.376861492016572 0  0.5487874749433369 -0.1831689668741633 0  0.5161014233713963 -0.5216481583823804 0  0.9442031639848472 -0.2689371367554701 0  0.8212558858160594 -0.04915126968780616 0  -0.9261776207219677 0.1447802499168662 0  -1.152267142676777 0.1412828097638892 0  -1.031940094477716 -0.05698120813000968 0  -0.9206703399460617 -0.2693915290992255 0  -1.147700826205476 -0.2506066469890634 0  -1.325694640374304 -0.3453421509688751 0  -1.416162012490351 -0.1609921458521729 0  -1.413592549771568 0.06451270710380097 0  -1.320360527306144 0.2475262779804729 0  -0.1177907386038124 -0.5794998579922638 0  -0.2816531243353184 -0.5339489461781116 0  -0.2385321330774844 -0.8277005537851578 0  -0.3219269543973853 -0.261794883453857 0  -0.4394027018801737 -0.5008554372889654 0  -1.239579343563509 -0.5412057135226651 0  -1.240578089981971 0.4352581441092431 0  0.3572834637110515 -0.585511901070122 0  0.2849913578725604 -0.3101101105501879 0  0.2160458951085666 -0.5752686259894757 0  -0.911691239616363 0.4205595655768573 0  -0.7775835408565042 0.2205861585513673 0  1.374072123910186 -0.3663565489327671 0  1.240218959823571 -0.5288316882792073 0  1.232917558230521 0.4328967851980398 0  1.368028437520543 0.2731894461284249 0  -0.7501226322475355 -0.9043794256302438 0  -0.9306420532203195 -0.7749047022850399 0  -0.9330853107288702 0.667261541814818 0  -0.7529956159256657 0.7889807482390826 0  0.7894851944056485 -0.8922150029384331 0  0.5962183074343204 -0.9992883320788994 0  0.589630137064163 0.8843098331657483 0  0.7821050392694162 0.7837455270834524 0  0.0223
[...]
<PointData  Vectors="f_4445"> 
<DataArray  type="Float64"  Name="f_4445"  NumberOfComponents="3" format="ascii">4.6760722997789585e-02 7.1664605529488004e-04 0.0000000000000000e+00  8.4730444891841505e-02 9.2611047864249018e-03 0.0000000000000000e+00  5.8632337101297276e-02 9.7288629253078733e-03 0.0000000000000000e+00  6.6328772879475306e-02 1.4597464110839748e-02 0.0000000000000000e+00  6.8364785496520225e-02 1.8978803975392068e-02 0.0000000000000000e+00  8.3325353794528878e-02 2.8946642881204868e-02 0.0000000000000000e+00  6.2125419601884467e-02 2.4512371918978315e-02 0.0000000000000000e+00  4.1879464709947876e-02 2.2178840631173490e-02 0.0000000000000000e+00  1.7881957146727950e-01 1.0733813865309197e-01 0.0000000000000000e+00  8.2713435124115539e-02 4.9246282343976211e-02 0.0000000000000000e+00  -1.4297161953419195e-02 -8.9875180605359234e-03 0.0000000000000000e+00  4.2599107074037093e-02 3.0919619787491238e-02 0.0000000000000000e+00  4.2005848259427853e-02 3.2745238891234131e-02 0.0000000000000000e+00  1.0791699536227878e-01 9.1158999035369545e-02 0.0000000000000000e+00  6.3155013038302996e-02 5.6785075928633313e-02 0.0000000000000000e+00  1.5929736399564629e-01 1.5862755485695396e-01 0.0000000000000000e+00  -9.4335703322683800e-03 -1.0738479433921316e-02 0.0000000000000000e+00  7.6985602924266025e-02 7.8518437762304077e-02 0.0000000000000000e+00  5.2190985649214046e-02 5.4030556130416463e-02 0.0000000000000000e+00  -3.7567859002560891e-02 -4.1505212643061881e-02 0.0000000000000000e+00  -1.5634167372899830e-03 -1.7177526957666981e-03 0.0000000000000000e+00  2.5957764182459441e-02 3.0942435394258498e-02 0.0000000000000000e+00  7.7819060382038636e-03 9.7133882117628120e-03 0.0000000000000000e+00  6.0313978456674661e-02 8.0569049267191981e-02 0.0000000000000000e+00  3.9723133084484566e-02 5.6411311550619458e-02 0.0000000000000000e+00  1.6204101961344974e-02 2.4180643304921760e-02 0.0000000000000000e+00  1.0743022451192841e-02 1.6740106090636031e-02 0.0000000000000000e+00  4.9959485722638505e-04 7.7332807210097893e-04 0.0000000000000000e+00  -5.6480066374969395e-03 -9.7436738870508195e-03 0.0000000000000000e+00  -5.8946205123716908e-03 -1.0872733614264444e-02 0.0000000000000000e+00  -1.4454185410036935e-02 -2.8633700658641736e-02 0.0000000000000000e+00  -1.5095111314344364e-02 -3.2393808955159913e-02 0.0000000000000000e+00  -5.1305297513341199e-03 -1.2193039914461698e-02 0.0000000000000000e+00  -1.2732047737275730e-02 -3.3378077912425912e-02 0.0000000000000000e+00  -1.6310365325314883e-02 -4.7196085761383108e-02 0.0000000000000000e+00  -1.2311528580755094e-02 -4.0694637979270878e-02 0.0000000000000000e+00  -1.3301664805481506e-02 -5.0777061243755348e-02 0.0000000000000000e+00  -1.0292616613630469e-02 -4.6784405371851592e-02 0.0000000000000000e+00  -9.3106747003219893e-03 -5.2253109796232856e-02 0.0000000000000000e+00  -6.6387113509559148e-03 -4.8900252034339405e-02 0.0000000000000000e+00  -3.7483148385061716e-03 -4.1005738318441877e-02 0.0000000000000000e+00  -2.0986247514800630e-03 -4.0253465484610215e-02 0.0000000000000000e+00  -4.6450250699050084e-04 -3.9623884710026515e-02 0.0000000000000000e+00  1.1018025288938710e-03 -3.6102620574309158e-02 0.0000000000000000e+00  2.4422427611251558e-03 -3.3234487970441352e-02 0.0000000000000000e+00  3.2692438519238611e-03 -2.8060906404456337e-02 0.0000000000000000e+00  4.4757915765476011e-03 -2.7615555141607337e-02 0.0000000000000000e+00  4.6854106005588605e-03 -2.3025850481022660e-02 0.0000000000000000e+00  2.7509333191154390e-03 -1.1145914640343172e-02 0.0000000000000000e+00  8.0654864131712301e-03 -2.6858472270657720e-02 0.0000000000000000e+00  1.2480662592279217e-02 -3.6117046879509722e-02 0.0000000000000000e+00  7.9559765920664063e-03 -2.0310821606424400e-02 0.0000000000000000e+00  1.6113636652385365e-02 -3.6767664444362767e-02 0.0000000000000000e+00  5.8630641613239762e-03 -1.2390203877048856e-02 0.0000000000000000e+00  1.3840175510725103e-02 -2.6310355825455847e-02 0.0000000000000000e+00  5.5444086622221259e-03 -1.0106112300125871e-02 0.0000000000000000e+00  -2.1515804480598404e-02 3.6487868179129850e-02 0.0000000000000000e+00  -2.1660739646478981e-03 3.6842841295316683e-03 0.0000000000000000e+00  1.2546274814368529e-02 -1.8280893168320683e-02 0.0000000000000000e+00  -9.9976998724109912e-03 1.3831206568441308e-02 0.0000000000000000e+00  1.7679518006654515e-02 -2.3096507008209019e-02 0.0000000000000000e+00  1.0005381485248981e-02 -1.2564086227249891e-02 0.0000000000000000e+00  2.8390816705973890e-02 -3.3653577650541583e-02 0.0000000000000000e+00  -6.4421626699805362e-02 7.4844149735934271e-02 0.0000000000000000e+00  4.3529763350103863e-03 -5.4147526712781400e-03 0.0000000000000000e+00  -2.3402218811085201e-02 2.7284430430734360e-02 0.0000000000000000e+00  -1.3611675383755174e-02 1.5429260331509244e-02 0.0000000000000000e+00  -2.5779314015720908e-02 2.8245824260574579e-02 0.0000000000000000e+00  2.8339325004057159e-02 -3.1272060992506866e-02 0.0000000000000000e+00  -8.2847978275103915e-02 9.1821347089696331e-02 0.0000000000000000e+00  -4.5472593370898734e-02 4.8897702272423238e-02 0.0000000000000000e+00  3.4995660155499364e-01 -3.8459178734592786e-01 0.0000000000000000e+00  4.5869590796148642e-02 -2.9061233419848582e-02 0.0000000000000000e+00  -5.4891703330195174e-01 3.6199512346087853e-01 0.0000000000000000e+00  -5.5371147350170602e-01 3.6100980177083802e-01 0.0000000000000000e+00  -1.6371763989530042e-01 8.8422166611058950e-02 0.0000000000000000e+00  -5.9288411579828670e-03 5.6706368237621806e-03 0.0000000000000000e+00  8.5571294322006858e-02 -3.1550419314585000e-02 0.0000000000000000e+00  3.4059010631037706e-01 -7.5403689322322887e-02 0.0000000000000000e+00  -3.3640131732518475e-01 6.4662020308811838e-02 0.0000000000000000e+00  -1.4583012113949495e-01 3.8285071963412826e-02 0.0000000000000000e+00  6.5705846066215678e-01 -4.7155701850997538e-02 0.0000000000000000e+00  -2.1024755499853456e-01 -2.0398234582885799e-03 0.0000000000000000e+00  -9.2423378184703656e-02 2.1321857736059553e-03 0.0000000000000000e+00  -3.9895102350960387e-02 6.3700441139975816e-04 0.0000000000000000e+00  -2.3430235416775115e-05 -3.7869611331157584e-05 0.0000000000000000e+00  4.4807264166034595e-02 1.1699046029923162e-04 0.0000000000000000e+00  1.2814558718328026e-01 6.1499412340651049e-03 0.0000000000000000e+00  -6.1587177975420383e-02 -1.4323183519486509e-02 0.0000000000000000e+00  -1.0055800751670189e-01 -1.6306285644550268e-02 0.0000000000000000e+00  1.7920990904897394e-01 3.5802210661105234e-02 0.0000000000000000e+00  1.8704241963149671e-02 6.7638147008406901e-03 0.0000000000000000e+00  -3.5592281568698994e-02 -1.7455957548287476e-02 0.0000000000000000e+00  -1.4624436710416996e-01 -7.9331048444507959e-02 0.0000000000000000e+00  -3.5550140096891891e-01 -2.3130741412692918e-01 0.0000000000000000e+00  -3.8492106307131335e-01 -2.5166047453757256e-01 0.0000000000000000e+00  -1.6960376679770472e-02 -2.1294148354994651e-02 0.0000000000000000e+00  2.7608016349140641e-01 3.0211372528376884e-01 0.0000000000000000e+00  -3.6039375409408152e-02 -3.8544991578069877e-02 0.0000000000000000e+00  -4.7893075242027516e-02 -5.2905608610075150e-02 0.0000000000000000e+00  2.7464632145658856e-02 2.9934996556825865e-02 0.0000000000000000e+00  -2.0313256229257049e-02 -2.1817743490850167e-02 0.0000000000000000e+00  -6.0786020876345496e-03 -6.7350391214382578e-03 0.0000000000000000e+00  -1.2059976809010969e-02 -1.3589101897024974e-02 0.0000000000000000e+00  7.2388544464068415e-03 8.5927161515145182e-03 0.0000000000000000e+00  -7.9743933556368982e-02 -8.7303326268167822e-02 0.0000000000000000e+00  5.0320207596062413e-02 5.6029980830418227e-02 0.0000000000000000e+00  1.6961321197806790e-02 2.0147937007944396e-02 0.0000000000000000e+00  1.4952572731442628e-02 1.8432998934946813e-02 0.0000000000000000e+00  -8.7098143968677745e-03 -1.1337745780803859e-02 0.0000000000000000e+00  5.3754654265732484e-03 7.3519338780102918e-03 0.0000000000000000e+00  -1.6697433143939202e-06 -2.8173602789750843e-05 0.0000000000000000e+00  -5.2358310487255868e-03 -8.0823248466089081e-03 0.0000000000000000e+00  3.2605733303886089e-03 5.5732491479532657e-03 0.0000000000000000e+00  4.1649040541605523e-02 7.0791716945957137e-02 0.0000000000000000e+00  5.6059752439275709e-03 1.1031536320814802e-02 0.0000000000000000e+00  2.6169475868171047e-02 5.4660284674492868e-02 0.0000000000000000e+00  8.7353919601780121e-03 2.0547193917655499e-02 0.0000000000000000e+00  1.8070224529678870e-02 4.8353354738823309e-02 0.0000000000000000e+00  1.1762800283882805e-02 3.6246631147004889e-02 0.0000000000000000e+00  -3.4468342421654859e-04 -1.2560006298387300e-03 0.0000000000000000e+00  4.3735439533172530e-03 2.0423826612800611e-02 0.0000000000000000e+00  4.6048233245927399e-03 2.6586553331453416e-02 0.0000000000000000e+00  2.8209436775311664e-03 2.2891014997204379e-02 0.0000000000000000e+00  2.0590210789884896e-03 2.6951014648732684e-02 0.0000000000000000e+00  7.3480931797966062e-04 2.6235465814733974e-02 0.0000000000000000e+00  -5.7613500522522452e-04 2.8457354056651892e-02 0.0000000000000000e+00  -2.0052183720075225e-03 2.8740652158365007e-02 0.0000000000000000e+00  -4.3320679237638512e-03 3.6803223448675357e-02 0.0000000000000000e+00  -6.0568524208397430e-03 3.7430823845442732e-02 0.0000000000000000e+00  -7.9812770837787653e-03 3.8788278035268089e-02 0.0000000000000000e+00  -8.9743704999949974e-03 3.6008427960603481e-02 0.0000000000000000e+00  -1.1976161313887167e-02 4.0835478904524311e-02 0.0000000000000000e+00  -9.4068225071826817e-03 2.8176400382878403e-02 0.0000000000000000e+00  -1.5110427825137903e-02 3.9909226236867858e-02 0.0000000000000000e+00  -8.7457784508922359e-03 2.1367542768586458e-02 0.0000000000000000e+00  4.7552655223549395e-03 -1.0634665245124608e-02 0.0000000000000000e+00  -1.5636460900466581e-02 3.1247799789677597e-02 0.0000000000000000e+00  -1.4170919998746737e-02 2.6270844827230147e-02 0.0000000000000000e+00  -4.2414959984205230e-03 7.3183130636311836e-03 0.0000000000000000e+00  -4.2393422846652689e-03 6.9037408974998368e-03 0.0000000000000000e+00  1.4387406432149971e-03 -2.2023235443484612e-03 0.0000000000000000e+00  8.4442000268808316e-03 -1.2476010652016364e-02 0.0000000000000000e+00  1.4477103260049237e-02 -2.0564778815954834e-02 0.0000000000000000e+00  3.8640340169949959e-02 -5.2418558912359595e-02 0.0000000000000000e+00  5.2466448678562927e-02 -6.6974571406049996e-02 0.0000000000000000e+00  1.2602628283566144e-02 -1.5062072698927448e-02 0.0000000000000000e+00  2.4539226664345177e-02 -2.8111694035164884e-02 0.0000000000000000e+00  4.6362340036425389e-03 -5.1070981070602513e-03 0.0000000000000000e+00  -3.0305389587170679e-02 3.2187148086641484e-02 0.0000000000000000e+00  3.6096864641116166e-02 -3.5873546419132527e-02 0.0000000000000000e+00  5.6639866633133105e-02 -5.5770272231624576e-02 0.0000000000000000e+00  3.7105565005493275e-03 -3.3504066228973767e-03 0.0000000000000000e+00  1.2740828498773035e-01 -1.2324204751528958e-01 0.0000000000000000e+00  5.7400799478304607e-02 -5.0245296654692254e-02 0.0000000000000000e+00  9.1254783962123526e-02 -7.5105145854767616e-02 0.0000000000000000e+00  4.3697517446875264e-02 -3.3131032665990066e-02 0.0000000000000000e+00  4.2683342296124534e-02 -3.0198592827325111e-02 0.0000000000000000e+00  -5.0668261109609869e-03 3.0908860157653562e-03 0.0000000000000000e+00  5.5189505340260528e-02 -3.1893230318976576e-02 0.0000000000000000e+00  1.4508073278980591e-01 -8.4665052975317137e-02 0.0000000000000000e+00  3.8445924202845386e-02 -1.9394850843972411e-02 0.0000000000000000e+00  5.4894224276107434e-02 -2.0754800215494064e-02 0.0000000000000000e+00  6.4703683564691042e-02 -2.1145377351056895e-02 0.0000000000000000e+00  5.3306219141925133e-02 -1.3656079949258890e-02 0.0000000000000000e+00  4.6586536835826635e-02 -9.0769669754390218e-03 0.0000000000000000e+00  4.5628689981009114e-02 -6.4870895189165449e-03 0.0000000000000000e+00  1.3871599856420957e-02 -9.3550516998051187e-04 0.0000000000000000e+00  1.8669215216570274e-09 -2.7101173865949639e-08 0.0000000000000000e+00  -3.2871425923132081e-09 5.7312174470286324e-09 0.0000000000000000e+00  5.7674126635376384e-09 6.9563615486485042e-09 0.0000000000000000e+00  1.4596895813185639e-09 2.0194921445667647e-08 0.0000000000000000e+00  -3.7069004775888448e-09 -6.8744472180632691e-09 0.0000000000000000e+00  3.7342481092652006e-08 3.0103925351321290e-08 0.0000000000000000e+00  5.9579111624856785e-09 -7.6869122030803906e-09 0.0000000000000000e+00  -6.7028959482660769e-08 -9.3371596198723848e-11 0.0000000000000000e+00  3.5168750194401693e-08 -2.7481192693674960e-08 0.0000000000000000e+00  -1.0828473372001003e-09 -8.7208760111283254e-10 0.0000000000000000e+00  -1.2136657087332427e-13 5.0084297408018440e-15 0.0000000000000000e+00  5.8356045343885101e-15 9.7240390526289787e-15 0.0000000000000000e+00  -4.3198962075247470e-09 4.3897397735880648e-09 0.0000000000000000e+00  -7.3322854741220465e-09 2.5501487044453660e-08 0.0000000000000000e+00  -3.9459965614681960e-15 3.2936162343134229e-14 0.0000000000000000e+00  -8.1330897333835251e-09 -3.1523483988733429e-08 0.0000000000000000e+00  -9.8041791209909356e-15 -2.4122685107435016e-14 0.0000000000000000e+00  2.5578500469376563e-14 1.3148100896980753e-15 0.0000000000000000e+00  1.0476580715669930e-08 2.2221841348782632e-08 0.0000000000000000e+00  8.7464974898302354e-09 -2.0462332386459227e-08 0.0000000000000000e+00  6.5314146234842670e-15 -2.6306187774566218e-14 0.0000000000000000e+00  4.0978400745369505e-09 -4.7568428848857356e-09 0.0000000000000000e+00  2.8042752558049049e-09 3.4368504242220494e-09 0.0000000000000000e+00  -9.0363098570761142e-15 2.0552759471110333e-14 0.0000000000000000e+00  -3.8007652289899075e-15 -3.9008971371484444e-14 0.0000000000000000e+00  2.6611854324296212e-15 -4.9800049237513653e-15 0.0000000000000000e+00  5.9669024726634488e-15 2.1375917879900530e-14 0.0000000000000000e+00  7.6324274900779325e-14 5.6181958976031649e-15 0.0000000000000000e+00  9.0405220723356725e-08 3.2472590413705312e-09 0.0000000000000000e+00  1.1327063169173794e-08 -1.5003671438604107e-08 0.0000000000000000e+00  1.2093377228107130e-11 -1.5108319516216946e-11 0.0000000000000000e+00  3.0426271500928562e-12 -3.8482271236245045e-12 0.0000000000000000e+00  -3.6379093917937665e-15 6.7643224139359929e-15 0.0000000000000000e+00  -7.5464280055793997e-12 1.4411413541073077e-11 0.0000000000000000e+00  1.3290108905433431e-11 -1.3006765085588173e-11 0.0000000000000000e+00  1.2853688638663683e-14 -6.9601533589828140e-16 0.0000000000000000e+00  -1.2265232842528914e-11 8.2868149387591110e-12 0.0000000000000000e+00  -4.9349103760478711e-08 2.0786051158659242e-08 0.0000000000000000e+00  -2.3581833059194091e-10 2.5221823887800043e-11 0.0000000000000000e+00  -8.9814917347369515e-12 -5.3166585315950763e-12 0.0000000000000000e+00  -4.3704321582185609e-08 -2.1385853354899479e-08 0.0000000000000000e+00  -9.1794607776240288e-05 -5.7125000281361610e-05 0.0000000000000000e+00  3.5222677975507165e-05 6.2379556699780904e-06 0.0000000000000000e+00  2.2245809198729668e-05 -1.7260315625365810e-05 0.0000000000000000e+00  -1.4255298139896315e-04 8.9489804469957565e-05 0.0000000000000000e+00  3.3521684392773140e-12 2.0165996159393079e-11 0.0000000000000000e+00  9.2246841408478582e-12 2.4289495092871212e-11 0.0000000000000000e+00  4.0860912547981963e-09 1.4620461698373872e-08 0.0000000000000000e+00  1.2417488507955456e-14 2.6408248548122734e-14 0.0000000000000000e+00  1.2679964992803290e-11 2.2757212756335230e-11 0.0000000000000000e+00  -1.4263787329003326e-05 -1.3774380927435749e-05 0.0000000000000000e+00  -1.7045516641342080e-05 1.6621642286168575e-05 0.0000000000000000e+00  -8.8034958852759248e-12 2.4280552123423255e-11 0.0000000000000000e+00  -9.1630397211150493e-15 3.2222736583904391e-14 0.0000000000000000e+00  -6.1700892405448833e-12 3.0148440212565673e-11 0.0000000000000000e+00  -5.5911956130954054e-09 6.3725495542750205e-09 0.0000000000000000e+00  3.1707504390483438e-12 -4.0625689526062271e-12 0.0000000000000000e+00  1.3020669185861935e-05 -8.3160579221925394e-06 0.0000000000000000e+00  2.9272918458313415e-05 -2.6074008085657650e-05 0.0000000000000000e+00  3.2701392089073839e-05 3.0016544417244774e-05 0.0000000000000000e+00  1.1883922470035747e-05 7.7431284823691702e-06 0.0000000000000000e+00  2.7645137208687739e-06 3.7553460955036719e-06 0.0000000000000000e+00  1.3879888749844774e-05 1.5603820696590042e-05 0.0000000000000000e+00  8.3736823644249056e-06 -1.0051539156782519e-05 0.0000000000000000e+00  4.0846893318388527e-06 -5.6916784209920358e-06 0.0000000000000000e+00  1.9154087363674567e-06 -2.5724767639211674e-06 0.0000000000000000e+00  -6.2739288177016304e-06 1.1639483090264946e-05 0.0000000000000000e+00  -6.6744869491117238e-06 -1.3391314886603472e-05 0.0000000000000000e+00  2.2764451896179955e-06 3.2272008459642837e-06 0.0000000000000000e+00  -4.2276610407973875e-07 1.8624990745897218e-05 0.0000000000000000e+00  2.6444334918984814e-06 1.5838790609821483e-05 0.0000000000000000e+00  2.9938886502798736e-06 -1.9066623937479441e-05 0.0000000000000000e+00  -3.3349794706183471e-07 -2.5382156584950764e-05 0.0000000000000000e+00  -5.2986984285750186e-09 1.1848599204203013e-08 0.0000000000000000e+00  -4.4244698024426422e-15 -8.7397537166682769e-15 0.0000000000000000e+00  2.9069995147710589e-12 3.8167886985225242e-12 0.0000000000000000e+00  -7.4774524943490131e-12 -1.5422906544546908e-11 0.0000000000000000e+00  3.0718797339991486e-12 4.2365724666953484e-12 0.0000000000000000e+00  6.6861124597315818e-15 8.1246488902529232e-15 0.0000000000000000e+00  5.9216278700168847e-12 6.8961581671485354e-12 0.0000000000000000e+00  -9.8557389259734446e-15 -3.8613099242030095e-14 0.0000000000000000e+00  -8.6620064919180227e-18 -1.2628361198411389e-17 0.0000000000000000e+00  -1.9644490251298999e-17 -3.1466737689849747e-18 0.0000000000000000e+00  -3.7699315637098906e-06 -4.0831771931826769e-06 0.0000000000000000e+00  -6.5931986059907530e-06 7.3977846825047349e-06 0.0000000000000000e+00  -4.7793105616451106e-09 -5.0920786761241211e-09 0.0000000000000000e+00  1.1815645032862155e-11 1.5546286384850571e-11 0.0000000000000000e+00  1.1763571157141456e-08 1.6321701073010980e-08 0.0000000000000000e+00  1.7142406793626010e-11 1.7305898910625785e-11 0.0000000000000000e+00  -9.8932671632145026e-12 -2.9701799783779353e-11 0.0000000000000000e+00  -7.2390769248872293e-09 -1.7513561587280662e-08 0.0000000000000000e+00  -5.9601373445905984e-13 2.3920076533311560e-11 0.0000000000000000e+00  -2.7548301371010925e-09 2.3072938190030645e-08 0.0000000000000000e+00  8.7554118027412297e-12 -2.5489321242528635e-11 0.0000000000000000e+00  3.9299429112108279e-12 -2.5525747475913288e-11 0.0000000000000000e+00  4.6977085057398541e-09 -1.8741656771855563e-08 0.0000000000000000e+00  -2.8165596853187017e-17 2.2888144139395559e-17 0.0000000000000000e+00  1.8046945569784404e-15 2.5854031680751477e-14 0.0000000000000000e+00  -7.0738084841720898e-06 1.9237490283194752e-05 0.0000000000000000e+00  -4.5073779099128360e-06 2.1902201236449553e-05 0.0000000000000000e+00  -5.1716041917883956e-06 -2.8825012388212776e-05 0.0000000000000000e+00  -7.7662629326378559e-06 -2.2986457957781421e-05 0.0000000000000000e+00  3.6122712112002209e-18 -1.3889380664935624e-17 0.0000000000000000e+00  -6.5395180204496993e-12 -3.6707729387626279e-11 0.0000000000000000e+00  -2.9570842971740499e-09 -3.0740393286934249e-08 0.0000000000000000e+00  7.5198379500834033e-06 1.9623887004481734e-05 0.0000000000000000e+00  1.3099395824754576e-05 2.3111679703238232e-05 0.0000000000000000e+00  3.8787623252349593e-09 6.3820693763560624e-09 0.0000000000000000e+00  6.4074968167467201e-06 -1.2694347524265732e-05 0.0000000000000000e+00  6.3941760955560432e-06 -1.8339589271345419e-05 0.0000000000000000e+00  2.1911298726963822e-10 -5.4256612005467023e-10 0.0000000000000000e+00  5.8909552032515346e-15 -7.6742772472091886e-15 0.0000000000000000e+00  3.7556479194014074e-12 -5