<?xml version="1.0"?>
<VTKFile type="UnstructuredGrid"  version="0.1"  >
<UnstructuredGrid>
<Piece  NumberOfPoints="2549" NumberOfCells="4928">
<Points>
<DataArray  type="Float64"  NumberOfComponents="3"  format="ascii">1.641287276127883 -0.03796496512400975 0  1.638200679567517 0.00967738036414385 0  1.631429479372065 0.05681315257158899 0  1.623056949883108 0.1040682921068371 0  1.611664219378097 0.1509838010750857 0  1.597992352133399 0.1977498779125562 0  1.580955027513308 0.2438199193345153 0  1.562383755443377 0.2897140418039771 0  1.538154814808353 0.3329850886562961 0  1.512674236570172 0.3746592894115209 0  1.489137819827125 0.4209023782087808 0  1.460310656074919 0.4628144843754554 0  1.430945111372765 0.5051185302117829 0  1.399569922683555 0.5460871626814676 0  1.366623460215651 0.5863079015294563 0  1.332177789995065 0.6255071514009219 0  1.295857520843655 0.6629966465200089 0  1.259428407333173 0.6991228458405251 0  1.222965298922132 0.7398701483190272 0  1.184363820845659 0.7772165570956342 0  1.145187099539427 0.8153874157133695 0  1.104711772748088 0.8525437515681624 0  1.063406721219375 0.8897072665126405 0  1.020582334559099 0.9258534707577926 0  0.9762526605639946 0.9606506515028804 0  0.9313189580993453 0.9939414472882979 0  0.8850994640065737 1.026789284991826 0  0.8378424686535642 1.058754669951416 0  0.789602640440123 1.089954300822495 0  0.740230664118098 1.119904997773312 0  0.6898132041673791 1.148625699921477 0  0.6383601119445897 1.175926259599499 0  0.5856883866811079 1.201182331787365 0  0.5321778476204875 1.224567673882751 0  0.4777547381770983 1.246470946080933 0  0.4223770297269344 1.266045208153632 0  0.3662244127150163 1.283531898194567 0  0.309322239933095 1.298623891320344 0  0.2517814917557056 1.311295214816611 0  0.1937224757871897 1.321470630894167 0  0.1351711862183085 1.328760254084362 0  0.07642115759597062 1.333392055233127 0  0.01747806785811548 1.335575278442409 0  -0.04149845687623772 1.334922322718533 0  -0.1003956917123374 1.331538592606144 0  -0.1590613663846682 1.325333173545701 0  -0.2173730624860473 1.316422949772893 0  -0.2751744300246023 1.304632218228134 0  -0.3323581436937633 1.29048968903193 0  -0.3889286215873952 1.273692420725639 0  -0.4445056929106285 1.254038975503675 0  -0.4991498496326169 1.232036277754875 0  -0.5528103342697485 1.207979557649031 0  -0.6052784736156316 1.181704767690882 0  -0.6568339045719065 1.15410460228601 0  -0.7069556836735176 1.124170455858472 0  -0.7559686765624086 1.09395462260313 0  -0.8041942616024701 1.062138715018006 0  -0.8506846053516287 1.028248238570433 0  -0.8959023281902289 0.9933627029973684 0  -0.9400722442683894 0.9580278353221693 0  -0.982766500582567 0.9214971186743169 0  -1.024922507546752 0.8856606559780538 0  -1.064380077098431 0.8460239552002039 0  -1.103764003327546 0.810567216153801 0  -1.142686867125293 0.7750071707002554 0  -1.180297583621356 0.7382701404902218 0  -1.217229070521256 0.7020427356653227 0  -1.252916429738362 0.6649762907154404 0  -1.288235514134077 0.6296136964414342 0  -1.32332801111304 0.5931162019569622 0  -1.35833044048043 0.5599762421966316 0  -1.393282501859487 0.522869342825079 0  -1.417768445679015 0.4763962792942775 0  -1.451015823180972 0.4350800787287318 0  -1.476572025168318 0.3900593255924475 0  -1.499965965360149 0.3437552339158991 0  -1.516723355021238 0.29455980575422 0  -1.535204857007491 0.247357184754246 0  -1.536100795321672 0.192903246964542 0  -1.550777861961503 0.1485524541101226 0  -1.56249235010818 0.1017805816610467 0  -1.555435475169554 0.05375225968834323 0  -1.559928375264117 0.00746209719521162 0  -1.559033099201608 -0.03855157745660259 0  -1.561101154744823 -0.08455372336867155 0  -1.558411242094219 -0.1310718062837576 0  -1.56353972379742 -0.1795596884001962 0  -1.553956787858525 -0.2267591393308669 0  -1.541079725597902 -0.2718188355887894 0  -1.54030523070981 -0.327175926989849 0  -1.522912684117206 -0.3750817593174693 0  -1.506529437947769 -0.4249749086278868 0  -1.483265806773862 -0.471528071941176 0  -1.457642634775979 -0.5167221254759914 0  -1.425461270240775 -0.5583805529425174 0  -1.400428561686328 -0.6048206636132635 0  -1.364900409128774 -0.6418354126032889 0  -1.33010144962596 -0.6755823458592859 0  -1.294768163993654 -0.712000867466419 0  -1.259384664687188 -0.747444463763262 0  -1.22383644018462 -0.7848645814905518 0  -1.187111737039804 -0.8215938782025082 0  -1.149733122902888 -0.8589603756940128 0  -1.111133568218351 -0.8952792293400901 0  -1.071901966502676 -0.9316701932018991 0  -1.033206404215153 -0.9735737549060125 0  -0.9910591194568019 -1.010690890837383 0  -0.948473268551873 -1.04873003878528 0  -0.9043873096332946 -1.085700588774944 0  -0.8591941005489639 -1.122236645849708 0  -0.8125909930978643 -1.157733267414378 0  -0.764566457654615 -1.19172217541896 0  -0.7152198554442193 -1.224574886365305 0  -0.6653091254863369 -1.258401426376598 0  -0.6130384868239267 -1.288170678166104 0  -0.5600904108495179 -1.316733789333483 0  -0.5057667091833074 -1.342805275927236 0  -0.4504069672981378 -1.366655777815428 0  -0.3941183885536015 -1.388121713885489 0  -0.3365324001411276 -1.406033880600591 0  -0.2784144329113371 -1.421025600261346 0  -0.2196416368434684 -1.433800835976153 0  -0.1602703768263907 -1.443376735089829 0  -0.1005004698444885 -1.450071353135262 0  -0.04045003336161276 -1.453640747162753 0  0.01971151482386034 -1.454137126908907 0  0.07982965825886955 -1.451464642764559 0  0.1397395127900771 -1.445634342475783 0  0.1992238720573356 -1.436862881725999 0  0.2582166630728893 -1.425438940233997 0  0.3165856102920308 -1.411322970474746 0  0.3742524773086479 -1.3947263682041 0  0.4310615393060655 -1.37561073834211 0  0.4870490095777875 -1.354525037781708 0  0.5419498225851627 -1.33087701477841 0  0.595867576836119 -1.306272044806201 0  0.6490697861081804 -1.279659901599276 0  0.7007487796969648 -1.25052019792172 0  0.7513959542492273 -1.220131533740377 0  0.8008955665719476 -1.188531670222363 0  0.849219188589195 -1.155770248120654 0  0.8964862728512214 -1.122284574613385 0  0.9426642299291244 -1.08802548893679 0  0.9875244766499748 -1.053445550945975 0  1.031755948047292 -1.017361047974025 0  1.074425297287746 -0.979938741609614 0  1.115561085413195 -0.9416198827102111 0  1.155802192589579 -0.9032996225498712 0  1.19470370005673 -0.8639986957988088 0  1.233058490793227 -0.825660181356784 0  1.269095784557182 -0.783725759118974 0  1.305175160161003 -0.7468084429355935 0  1.341337166403377 -0.7087745873562024 0  1.375409418626303 -0.6687836360610848 0  1.408053041443922 -0.6279451624163145 0  1.439113769866639 -0.5863618195369539 0  1.468142238802119 -0.543445038650846 0  1.496543697473763 -0.5009203283753962 0  1.519718401708585 -0.4540902964112618 0  1.544840493875361 -0.4119861792066908 0  1.568586758344872 -0.3682001771739117 0  1.586597307921928 -0.3217691749321963 0  1.602949176167831 -0.275209583841986 0  1.615892890908344 -0.2279840886843067 0  1.62632183264183 -0.1806222637816575 0  1.633754973892846 -0.133059608178983 0  1.639295741084357 -0.08566347937065918 0  -0.08216427266520158 0.7969308038344409 0  0.6185319186820375 -0.7176019370339728 0  -0.7302786409644815 -0.6285825613683675 0  -0.05841636939983398 -0.8880820036138081 0  0.614344944141768 0.621189441420217 0  1.168525469839454 0.203427292162045 0  -0.7428152076033654 0.528217653629095 0  -1.21497608380905 -0.04336475729565036 0  1.172743764657222 -0.2865342437445911 0  -1.019707532514022 -0.4547193886460359 0  -0.7802475951473693 -0.05826692411888348 0  -0.4585298480629292 -0.2321298110605388 0  -1.030270040502507 0.348994951515553 0  0.2980807213430519 -0.8652707774705094 0  0.1532633931696811 -0.2926796635355491 0  0.2616632553607576 0.7586669871088174 0  0.3543406566641321 0.2024020643251628 0  0.6700447251200254 -0.04270681594447271 0  -0.3940105409031386 -0.7810747793052915 0  -0.4306833336957597 0.7027442146216142 0  -0.2580012617325773 0.2582921002423741 0  0.9253270223209332 -0.4919712701989092 0  0.9211848902884824 0.4049778452416454 0  0.4222311080306647 -0.3235557546825862 0  0.04637977611590531 0.2536436088812662 0  -0.5219930557815491 0.1976014102740775 0  -0.1555027497360351 -0.2850872213662293 0  0.9542869704481662 -0.04229636072028062 0  1.362549875048886 -0.03992774093315789 0  0.7722501854854334 -0.6019206438624485 0  0.7890397628594678 -0.2766709998875082 0  0.6350062957029318 -0.3770348574768482 0  0.5448072182735472 -0.1792764281052926 0  0.5145744137781696 -0.5257161648958226 0  0.9327849585572189 -0.2655496538375654 0  0.8114944550102979 -0.04247879573095752 0  -0.8969179176766595 0.1545249244657638 0  -1.118271317349924 0.148892932896719 0  -0.9997235994654502 -0.04991784781781181 0  -0.8915221415145447 -0.2650418056690549 0  -1.113519540133845 -0.2442556179628946 0  -1.288672792346794 -0.3369019657892963 0  -1.376676507585719 -0.1530513129978188 0  -1.374633874195718 0.07041067876367108 0  -1.284199250902076 0.2529238249357609 0  -0.1075370370435589 -0.5862035718198052 0  -0.2681366040115398 -0.5389104047096439 0  -0.2275193628140348 -0.8399215962808281 0  -0.3064711479695742 -0.2596963895908588 0  -0.422585307058105 -0.5042047179812189 0  -1.206791028041307 -0.5339482084844696 0  -1.208207811325889 0.4417106710988646 0  0.3590014399759099 -0.5919499799148706 0  0.2869575877600968 -0.3097164088951744 0  0.2202060060619743 -0.5819317223838811 0  -0.8859614582940148 0.4344303805036272 0  -0.7521924123982382 0.2328529680980281 0  1.356520575781405 -0.3597641610171542 0  1.227379893001254 -0.5244035336070362 0  1.220627145973474 0.4410971773059355 0  1.3510457927754 0.2789501011350978 0  -0.7351019887616285 -0.9115492136516111 0  -0.910284064509278 -0.7770076474723864 0  -0.9131556283312732 0.6842065193015284 0  -0.7384819407838502 0.8119806052013764 0  0.7899215423854826 -0.899976036622347 0  0.6001025367908625 -1.012200650083702 0  0.5934327803203576 0.9119907066654207 0  0.7826434563786607 0.8054330696333305 0  0.03010755024799582 -1.172600
[...]
<PointData  Vectors="f_45"> 
<DataArray  type="Float64"  Name="f_45"  NumberOfComponents="3" format="ascii">2.2379292767998793e-01 4.8494580855810336e-03 0.0000000000000000e+00  2.1809960718201085e-01 5.0125154356183810e-02 0.0000000000000000e+00  2.1272849547426914e-01 6.9993584221484328e-02 0.0000000000000000e+00  2.0466497743461778e-01 8.9217552107899292e-02 0.0000000000000000e+00  1.9466105378867374e-01 1.1137170057488797e-01 0.0000000000000000e+00  1.7796626549810501e-01 1.3433097608654890e-01 0.0000000000000000e+00  1.6794995188000136e-01 1.4926081481040512e-01 0.0000000000000000e+00  1.4172283037595226e-01 1.7157441581143854e-01 0.0000000000000000e+00  9.7734704410270462e-02 2.0291604341367742e-01 0.0000000000000000e+00  1.2386953881456909e-01 1.8569038366207538e-01 0.0000000000000000e+00  1.0963490046994843e-01 1.9243799347563495e-01 0.0000000000000000e+00  7.3359958498391747e-02 2.1278458210900697e-01 0.0000000000000000e+00  7.1645674197239051e-02 2.1123006474192424e-01 0.0000000000000000e+00  4.9421498272269902e-02 2.1841914942711227e-01 0.0000000000000000e+00  3.7555132019561802e-02 2.2042071582203579e-01 0.0000000000000000e+00  1.8650573733071447e-02 2.2284656463533734e-01 0.0000000000000000e+00  -4.6729776869463323e-03 2.2393091334186516e-01 0.0000000000000000e+00  1.5895772932275353e-02 2.2270668821506531e-01 0.0000000000000000e+00  1.1723848427092988e-02 2.2265205243181113e-01 0.0000000000000000e+00  -1.0111410722647405e-02 2.2381797458537825e-01 0.0000000000000000e+00  -1.0641047062495176e-02 2.2312069686278632e-01 0.0000000000000000e+00  -2.2085900224567051e-02 2.2266296613477010e-01 0.0000000000000000e+00  -2.8857253584407282e-02 2.2169423818591677e-01 0.0000000000000000e+00  -4.5828624770816812e-02 2.1893862803275396e-01 0.0000000000000000e+00  -5.9839775210147411e-02 2.1546298037595138e-01 0.0000000000000000e+00  -6.9442388070518862e-02 2.1259332753778540e-01 0.0000000000000000e+00  -7.8384228560268721e-02 2.0940703375369235e-01 0.0000000000000000e+00  -8.7304527671047572e-02 2.0591112462961644e-01 0.0000000000000000e+00  -9.7214052589463820e-02 2.0137232708899058e-01 0.0000000000000000e+00  -1.0891110309099260e-01 1.9532977250178099e-01 0.0000000000000000e+00  -1.1918744198604299e-01 1.8926305749461794e-01 0.0000000000000000e+00  -1.3255966883344419e-01 1.8011160015223762e-01 0.0000000000000000e+00  -1.4670034905541840e-01 1.6880899999751822e-01 0.0000000000000000e+00  -1.5632521278031850e-01 1.6001270818864952e-01 0.0000000000000000e+00  -1.6748746171916640e-01 1.4811913657745077e-01 0.0000000000000000e+00  -1.7934630374500402e-01 1.3375016158938327e-01 0.0000000000000000e+00  -1.8915860832358808e-01 1.1929960937448332e-01 0.0000000000000000e+00  -1.9888202886761677e-01 1.0236511203331108e-01 0.0000000000000000e+00  -2.0672917279060155e-01 8.5469810217902689e-02 0.0000000000000000e+00  -2.1380872749783336e-01 6.5664861102470343e-02 0.0000000000000000e+00  -2.1922016435555686e-01 4.4472394575534986e-02 0.0000000000000000e+00  -2.2218322341790173e-01 2.6062314830840958e-02 0.0000000000000000e+00  -2.2356293232079077e-01 6.0169913871802689e-03 0.0000000000000000e+00  -2.2320327180523378e-01 -1.5356076176799661e-02 0.0000000000000000e+00  -2.2068642710821035e-01 -3.6272749002067485e-02 0.0000000000000000e+00  -2.1643317810461704e-01 -5.6721393091430462e-02 0.0000000000000000e+00  -2.0976583433368512e-01 -7.7513864899884044e-02 0.0000000000000000e+00  -2.0193652293398931e-01 -9.6297909504867385e-02 0.0000000000000000e+00  -1.9320501580695179e-01 -1.1271370813200628e-01 0.0000000000000000e+00  -1.8084011997398952e-01 -1.3164076646357781e-01 0.0000000000000000e+00  -1.6725558945780461e-01 -1.4850829116195988e-01 0.0000000000000000e+00  -1.5548380045802887e-01 -1.6087540910986467e-01 0.0000000000000000e+00  -1.4076145220091135e-01 -1.7365022263526153e-01 0.0000000000000000e+00  -1.2961283935925266e-01 -1.8248198781114178e-01 0.0000000000000000e+00  -1.1457976993120157e-01 -1.9182442136353076e-01 0.0000000000000000e+00  -1.0214388586493850e-01 -1.9906626812554581e-01 0.0000000000000000e+00  -9.6271151756143855e-02 -2.0185272987515052e-01 0.0000000000000000e+00  -7.8054446913603068e-02 -2.0956500862803437e-01 0.0000000000000000e+00  -6.0783013517962378e-02 -2.1521878620421034e-01 0.0000000000000000e+00  -5.4337315786376301e-02 -2.1705937385168136e-01 0.0000000000000000e+00  -3.9368260737565011e-02 -2.1985807236897928e-01 0.0000000000000000e+00  -3.9305759115273543e-02 -2.2069639088214316e-01 0.0000000000000000e+00  -1.4937328866581431e-02 -2.2219792751774317e-01 0.0000000000000000e+00  -5.4918826711889430e-03 -2.2342709898947646e-01 0.0000000000000000e+00  -2.8660577946660538e-02 -2.2214105044092544e-01 0.0000000000000000e+00  -1.0562207769245800e-02 -2.2323317758347147e-01 0.0000000000000000e+00  -5.3343649678056267e-03 -2.2365108573153281e-01 0.0000000000000000e+00  3.3139519201068018e-03 -2.2349538939186411e-01 0.0000000000000000e+00  4.5129572147649738e-03 -2.2340229107729159e-01 0.0000000000000000e+00  5.2684024178683659e-03 -2.2405496749514453e-01 0.0000000000000000e+00  1.7428692786057081e-03 -2.2151047889533754e-01 0.0000000000000000e+00  -2.1676470264596993e-02 -2.3018854121071972e-01 0.0000000000000000e+00  8.8134611774720387e-02 -1.9783275491344438e-01 0.0000000000000000e+00  9.1906990278306233e-02 -2.0010020955767907e-01 0.0000000000000000e+00  6.6022191009052406e-02 -2.1077411032997920e-01 0.0000000000000000e+00  1.2940374418693168e-01 -1.8890260405716286e-01 0.0000000000000000e+00  1.5818397713674473e-01 -1.4962364862516409e-01 0.0000000000000000e+00  1.6728425370673186e-01 -1.6199432120591120e-01 0.0000000000000000e+00  1.9747475651176119e-01 -6.5745720614394501e-02 0.0000000000000000e+00  2.1058722548860467e-01 -4.1354423708133040e-02 0.0000000000000000e+00  1.7761563123881011e-01 -1.7011785789785086e-01 0.0000000000000000e+00  2.0982313692293483e-01 6.0447294828163732e-03 0.0000000000000000e+00  2.1722457626114650e-01 2.3776569148122553e-02 0.0000000000000000e+00  2.2196690172507308e-01 -3.1089225358379453e-02 0.0000000000000000e+00  2.2348971592491024e-01 -3.2846890587937415e-03 0.0000000000000000e+00  2.2250053871390121e-01 1.0093091498203475e-02 0.0000000000000000e+00  2.2097618862703289e-01 -1.9053043366544578e-02 0.0000000000000000e+00  2.1583743602008332e-01 -1.5640087775817093e-03 0.0000000000000000e+00  1.8939831362049342e-01 1.4512429391119902e-01 0.0000000000000000e+00  2.1443708093413719e-01 3.6389304842667947e-02 0.0000000000000000e+00  2.0041779725840511e-01 6.1584311412824444e-02 0.0000000000000000e+00  1.7379262900346482e-01 1.5425895450887328e-01 0.0000000000000000e+00  1.6020924254598198e-01 1.4763927581457773e-01 0.0000000000000000e+00  1.2875727687922822e-01 1.8886201771684527e-01 0.0000000000000000e+00  7.1931500969120585e-02 2.0903390609332609e-01 0.0000000000000000e+00  9.6445769604840942e-02 2.0011477501368458e-01 0.0000000000000000e+00  8.0663293099794781e-02 1.9986630951387063e-01 0.0000000000000000e+00  -1.9714597166430980e-02 2.2992989549992679e-01 0.0000000000000000e+00  4.2877649940737160e-03 2.2179086549338151e-01 0.0000000000000000e+00  2.6867657458459950e-03 2.2405898418928802e-01 0.0000000000000000e+00  6.5310065876325474e-03 2.2331413785512469e-01 0.0000000000000000e+00  7.1561364723291589e-03 2.2343800895818641e-01 0.0000000000000000e+00  -7.6167894012271265e-04 2.2369383649698629e-01 0.0000000000000000e+00  -4.1471581758846529e-03 2.2342748251190342e-01 0.0000000000000000e+00  -2.3696741457156782e-02 2.2299402537065791e-01 0.0000000000000000e+00  7.7010219376708565e-03 2.2310304690621349e-01 0.0000000000000000e+00  -1.5188816223482633e-03 2.2223882347377885e-01 0.0000000000000000e+00  -3.2350579304092159e-02 2.2209642149115619e-01 0.0000000000000000e+00  -2.8992067817952171e-02 2.2139805610521157e-01 0.0000000000000000e+00  -4.4086553086271144e-02 2.1942682299716279e-01 0.0000000000000000e+00  -5.2073829283390119e-02 2.1738659995086140e-01 0.0000000000000000e+00  -6.6451569479858724e-02 2.1365564725620573e-01 0.0000000000000000e+00  -8.3457279260538905e-02 2.0733490779848279e-01 0.0000000000000000e+00  -8.1659642968152035e-02 2.0850859492084650e-01 0.0000000000000000e+00  -9.7024764726952220e-02 2.0069711806684187e-01 0.0000000000000000e+00  -1.2094188290400457e-01 1.8877136827699012e-01 0.0000000000000000e+00  -1.2983542372721391e-01 1.8178336894540395e-01 0.0000000000000000e+00  -1.4778256665881073e-01 1.6804086054523848e-01 0.0000000000000000e+00  -1.5946842997409028e-01 1.5692430048733366e-01 0.0000000000000000e+00  -1.7559795748418722e-01 1.3847053109085988e-01 0.0000000000000000e+00  -1.9109175766297040e-01 1.1636361800666416e-01 0.0000000000000000e+00  -1.9959135691722080e-01 1.0111235797605236e-01 0.0000000000000000e+00  -2.0795696103077685e-01 8.2134366284333030e-02 0.0000000000000000e+00  -2.1567435705781773e-01 5.9726846877533636e-02 0.0000000000000000e+00  -2.2034716153433900e-01 3.8272771317370023e-02 0.0000000000000000e+00  -2.2323182110015075e-01 1.5056379009926053e-02 0.0000000000000000e+00  -2.2355162883464333e-01 -7.9644994449808871e-03 0.0000000000000000e+00  -2.2146498269971643e-01 -3.1655811031006932e-02 0.0000000000000000e+00  -2.1699558298273885e-01 -5.4279441787301486e-02 0.0000000000000000e+00  -2.1105759375138852e-01 -7.4181142445012518e-02 0.0000000000000000e+00  -2.0337179890368634e-01 -9.3033728088175172e-02 0.0000000000000000e+00  -1.9447297511508782e-01 -1.1063031580073465e-01 0.0000000000000000e+00  -1.8362077368459073e-01 -1.2756387451305051e-01 0.0000000000000000e+00  -1.7360826021074147e-01 -1.4122476700202130e-01 0.0000000000000000e+00  -1.6047885263881051e-01 -1.5557562952925774e-01 0.0000000000000000e+00  -1.4949914263594577e-01 -1.6643807911042544e-01 0.0000000000000000e+00  -1.4196975051371502e-01 -1.7284465082631456e-01 0.0000000000000000e+00  -1.2449407205878164e-01 -1.8571665683062244e-01 0.0000000000000000e+00  -1.0956289745846896e-01 -1.9505929786293097e-01 0.0000000000000000e+00  -1.0010868852653400e-01 -1.9994229827723642e-01 0.0000000000000000e+00  -8.8073370940574047e-02 -2.0555669256750331e-01 0.0000000000000000e+00  -7.8342691125092248e-02 -2.0947169045996694e-01 0.0000000000000000e+00  -6.9416704221517925e-02 -2.1255313886916158e-01 0.0000000000000000e+00  -6.1045192699026481e-02 -2.1514917386477589e-01 0.0000000000000000e+00  -5.1737913236365438e-02 -2.1755536606191331e-01 0.0000000000000000e+00  -3.7421329112823996e-02 -2.2051992002972889e-01 0.0000000000000000e+00  -2.0848338481083362e-02 -2.2259973577575123e-01 0.0000000000000000e+00  -1.4290630305556964e-02 -2.2329799853070137e-01 0.0000000000000000e+00  -2.2563907555376160e-03 -2.2336254416924917e-01 0.0000000000000000e+00  -2.6836178898458295e-03 -2.2405601778171225e-01 0.0000000000000000e+00  1.9843430484644195e-02 -2.2200554208574391e-01 0.0000000000000000e+00  2.4634345006237818e-02 -2.2187895720621123e-01 0.0000000000000000e+00  1.7216334847837902e-04 -2.2412883530637026e-01 0.0000000000000000e+00  2.4059126289121203e-02 -2.2220802234156098e-01 0.0000000000000000e+00  4.3968651759955991e-02 -2.1931123960793883e-01 0.0000000000000000e+00  5.4359393389088607e-02 -2.1720017306951012e-01 0.0000000000000000e+00  7.6687187568330734e-02 -2.0948049285522796e-01 0.0000000000000000e+00  7.8892328748315504e-02 -2.1075991561878674e-01 0.0000000000000000e+00  1.1459698179090505e-01 -1.8964184835365280e-01 0.0000000000000000e+00  1.2766966391830398e-01 -1.8302007138083881e-01 0.0000000000000000e+00  1.0262903016272386e-01 -2.0047902728953684e-01 0.0000000000000000e+00  1.4652458570112828e-01 -1.6754842685168767e-01 0.0000000000000000e+00  1.7252136470996338e-01 -1.4393043678226256e-01 0.0000000000000000e+00  1.8228392503098900e-01 -1.2851048681529254e-01 0.0000000000000000e+00  1.9882156280003080e-01 -1.0365047109806179e-01 0.0000000000000000e+00  2.0825534795795320e-01 -8.0739244015981024e-02 0.0000000000000000e+00  2.1571902075186111e-01 -5.9953567729381665e-02 0.0000000000000000e+00  2.2042689133272567e-01 -3.8883889623626183e-02 0.0000000000000000e+00  -2.1931689703806051e-01 -4.4336624929042223e-02 0.0000000000000000e+00  -2.9990121211295028e-02 -2.2183309036695084e-01 0.0000000000000000e+00  3.4838519528565655e-02 2.2108405611611953e-01 0.0000000000000000e+00  -2.2111318073744946e-01 3.4292456090080081e-02 0.0000000000000000e+00  -3.2451485702949229e-02 2.2148920677042397e-01 0.0000000000000000e+00  1.8664781600637573e-01 1.2356322767317834e-01 0.0000000000000000e+00  3.6697069647259356e-02 -2.2080547160871156e-01 0.0000000000000000e+00  2.2392782241195985e-01 -9.2313115148443556e-04 0.0000000000000000e+00  1.9011011148697304e-01 -1.1816748044793478e-01 0.0000000000000000e+00  1.3380301699466035e-01 1.7941059993084688e-01 0.0000000000000000e+00  2.2402313737696800e-01 6.7326363822091517e-03 0.0000000000000000e+00  1.6589491434978215e-01 1.5112495657444366e-01 0.0000000000000000e+00  1.3850371466854131e-01 -1.7582068333551637e-01 0.0000000000000000e+00  -1.7231440209246232e-01 -1.4275325630831240e-01 0.0000000000000000e+00  -7.2664527956652084e-02 -2.1419893801413983e-01 0.0000000000000000e+00  -1.8185642123804038e-01 1.3038320617334881e-01 0.0000000000000000e+00  9.1474997810838898e-02 2.0522605135500965e-01 0.0000000000000000e+00  2.2452823145138057e-01 3.3240272611961101e-03 0.0000000000000000e+00  -1.2123558845535706e-01 1.8809829419037247e-01 0.0000000000000000e+00  -1.1500877475705976e-01 -1.9196586979805083e-01 0.0000000000000000e+00  -1.3950432793318207e-02 -2.2453572906726382e-01 0.0000000000000000e+00  1.1429511992124747e-01 -1.9246184733743213e-01 0.0000000000000000e+00  1.0937082568201856e-01 1.9530262631538614e-01 0.0000000000000000e+00  9.8754094410725607e-02 -2.0147805005565128e-01 0.0000000000000000e+00  -2.0550181182305430e-01 9.1106186835866770e-02 0.0000000000000000e+00  1.4590310068308970e-01 -1.7013786827468877e-01 0.0000000000000000e+00  -5.5788159346517187e-02 2.1851752658462562e-01 0.0000000000000000e+00  2.2384526894351808e-01 3.0562874012547538e-03 0.0000000000000000e+00  2.2378702272679168e-01 3.8771904056231800e-03 0.0000000000000000e+00  5.1338415584546812e-02 -2.1792889775498084e-01 0.0000000000000000e+00  1.8317588421964501e-01 -1.2908944847210463e-01 0.0000000000000000e+00  1.2553274601989842e-01 -1.8586923137708039e-01 0.0000000000000000e+00  1.9948444060375237e-01 -1.0302250439841813e-01 0.0000000000000000e+00  1.6057265192650917e-02 -2.2354225192515564e-01 0.0000000000000000e+00  1.9262533966374787e-01 -1.1408448865969108e-01 0.0000000000000000e+00  2.2402033275536470e-01 3.1281058744590078e-03 0.0000000000000000e+00  1.9624122292818311e-01 -1.0789084166136267e-01 0.0000000000000000e+00  2.0241218202679614e-01 -9.5736543213217090e-02 0.0000000000000000e+00  2.2386258101440923e-01 1.8410055553966524e-03 0.0000000000000000e+00  1.9176190014494227e-01 1.1564909173281580e-01 0.0000000000000000e+00  2.0153422507882093e-01 9.7587877765952930e-02 0.0000000000000000e+00  1.8100354395099455e-01 1.3195054853611637e-01 0.0000000000000000e+00  2.1958022471339053e-01 4.3055738393849588e-02 0.0000000000000000e+00  2.1906622448367613e-01 -4.5496246671819861e-02 0.0000000000000000e+00  1.7941773348890250e-01 -1.3409237470708701e-01 0.0000000000000000e+00  -2.0356126830986487e-01 9.3307286783119586e-02 0.0000000000000000e+00  -1.1172910720402834e-01 1.9418011769202417e-01 0.0000000000000000e+00  -1.8715420726925922e-01 1.2265154463140827e-01 0.0000000000000000e+00  9.7954240896157244e-02 2.0261494766422994e-01 0.0000000000000000e+00  -1.0721630423046871e-02 2.2377398360579037e-01 0.0000000000000000e+00  1.0188825256963012e-01 1.9937757102271811e-01 0.0000000000000000e+00  1.0290284456609800e-01 -1.9886120805924459e-01 0.0000000000000000e+00  -8.5297581796597327e-02 -2.0710250760805998e-01 0.0000000000000000e+00  4.1937472239182164e-02 -2.2117964650319538e-01 0.0000000000000000e+00  -1.5558758337320283e-01 -1.6119545285324413e-01 0.0000000000000000e+00  9.5832171140096234e-02 -2.0228690849299177e-01 0.0000000000000000e+00  1.6268552493387090e-01 -1.5409521249029781e-01 0.0000000000000000e+00  1.6477327967604449e-01 -1.5146891128360412e-01 0.0000000000000000e+00  1.0931721200293958e-01 -1.9527909655094663e-01 0.0000000000000000e+00  1.0375183497768811e-01 1.9829141054908142e-01 0.0000000000000000e+00  1.6023751600837380e-01 1.5625343689729496e-01 0.0000000000000000e+00  -4.6736429543385777e-02 2.1874845359117387e-01 0.0000000000000000e+00  1.4325959363091613e-02 2.2322164436399211e-01 0.0000000000000000e+00  9.4797969118566375e-03 -2.2349618693255560e-01 0.0000000000000000e+00  -5.1433212311798829e-02 -2.1770154586089213e-01 0.0000000000000000e+00  -4.3005384709726889e-02 -2.1953464548741636e-01 0.0000000000000000e+00  -1.0760174817351202e-01 -1.9611615123951823e-01 0.0000000000000000e+00  -1.1226935279418566e-01 1.9348942977474934e-01 0.0000000000000000e+00  -4.8932433722952133e-02 2.1829459880104593e-01 0.0000000000000000e+00  -2.2347554579394310e-01 -1.0625402798293299e-02 0.0000000000000000e+00  -2.0974305918651773e-01 7.7847740663893175e-02 0.0000000000000000e+00  -2.0894272956216137e-01 -7.9956747065472483e-02 0.0000000000000000e+00  -2.2366344002702301e-01 4.8568006498879070e-03 0.0000000000000000e+00  -1.0527933782305010e-01 -1.9747722303922033e-01 0.0000000000000000e+00  2.0017472246698337e-01 1.0198050272240408e-01 0.0000000000000000e+00  1.2273156526634166e-01 1.8771149474076143e-01 0.0000000000000000e+00  8.0797334363014103e-03 2.2401633288273651e-01 0.0000000000000000e+00  8.4313194775061426e-02 2.0758867931086655e-01 0.0000000000000000e+00  2.1337687464315344e-01 6.8820294500677254e-02 0.0000000000000000e+00  1.5751854276600669e-01 1.5932476764066411e-01 0.0000000000000000e+00  -3.9228862753576225e-02 2.2157475128178578e-01 0.0000000000000000e+00  1.8857092714724022e-01 1.3357921855350946e-01 0.0000000000000000e+00  2.2663209068598558e-01 1.2028034549606676e-02 0.0000000000000000e+00  5.0169847723701450e-02 2.1801230074348205e-01 0.0000000000000000e+00  4.8756764451145532e-02 -2.1835259751702840e-01 0.0000000000000000e+00  9.2690295115599897e-02 2.0371600956693967e-01 0.0000000000000000e+00  1.7982334951760220e-01 1.3370419999897995e-01 0.0000000000000000e+00  4.7197648792744670e-02 2.1886293881590724e-01 0.0000000000000000e+00  1.8962452529169480e-01 1.1900293628380314e-01 0.0000000000000000e+00  -1.0394918520375887e-01 1.9842686457010514e-01 0.0000000000000000e+00  -1.1193508713579262e-01 1.9379671741358642e-01 0.0000000000000000e+00  -2.2005571366491025e-01 -4.1708962220809893e-02 0.0000000000000000e+00  -2.1516454206814753e-01 -6.1460204266720574e-02 0.0000000000000000e+00  -9.0189252047444088e-02 -2.0503251063010572e-01 0.0000000000000000e+00  -1.8468557506546790e-01 -1.2667947031770097e-01 0.0000000000000000e+00  -1.8140947504522240e-01 -1.3102577332425730e-01 0.0000000000000000e+00  2.2450713890360904e-01 -1.6328080597181119e-02 0.0000000000000000e+00  -2.2452335379920615e-01 2.5084162465567869e-02 0.0000000000000000e+00  -1.5975599915628189e-01 -1.5658891838795910e-01 0.0000000000000000e+00  -2.0561359006717075e-01 -8.8163467497319001e-02 0.0000000000000000e+00  -2.0938386771715092e-01 7.8773794584866608e-02 0.0000000000000000e+00  -1.6715078787105961e-01 1.4867899489873329e-01 0.0000000000000000e+00  2.0839056703512013e-01 1.5418430699576527e-01 0.0000000000000000e+00  -1.9063988416434050e-01 1.1745918377875390e-01 0.0000000000000000e+00  -2.1864929216122089e-01 4.7488637819404170e-02 0.0000000000000000e+00  -1.7051748955563861e-01 1.4481956990896028e-01 0.0000000000000000e+00  -1.0702215526700477e-01 1.9643522152592433e-01 0.0000000000000000e+00  -3.9125757642675778e-02 2.2034790025196463e-01 0.0000000000000000e+00  -1.0913589143033721e-01 -1.9526885207734654e-01 0.0000000000000000e+00  -1.6964943011407002e-01 -1.4582841582947520e-01 0.0000000000000000e+00  -3.6310207723624019e-02 -2.2083190471971081e-01 0.0000000000000000e+00  2.1027857514724130e-01 -7.7610161493170293e-02 0.0000000000000000e+00  8.1211299