<?xml version="1.0"?>
<VTKFile type="UnstructuredGrid"  version="0.1"  >
<UnstructuredGrid>
<Piece  NumberOfPoints="2549" NumberOfCells="4928">
<Points>
<DataArray  type="Float64"  NumberOfComponents="3"  format="ascii">1.664937503007732 -0.04383978210196274 0  1.66173445509281 0.004442097835470914 0  1.654552748285341 0.05215354077439849 0  1.64571185705874 0.09996146461069536 0  1.633759551611507 0.1473764392976731 0  1.619310747363429 0.1945679479028893 0  1.60153661856786 0.2409931491686184 0  1.581852583659816 0.2871296521925942 0  1.556621335874108 0.3305228955928992 0  1.529904810535097 0.3721491953834863 0  1.504774372081078 0.4181194212121316 0  1.474762404329447 0.4598790315287477 0  1.443925221360054 0.5017887022646127 0  1.411011212851966 0.542174084345045 0  1.376552865344946 0.5816247912647613 0  1.340837928982476 0.6203411977614349 0  1.302315512934834 0.6561167538430148 0  1.264551702931805 0.6913376629255421 0  1.226574507357834 0.730883095489185 0  1.186347628674153 0.766856095519729 0  1.145828371061664 0.8038474482490032 0  1.103910326504776 0.8395924643300976 0  1.061125106466793 0.8750556904921829 0  1.017061539941275 0.9097034666987751 0  0.9713435636592872 0.9424803945818816 0  0.9252427252392255 0.9738983180905705 0  0.8780020370854623 1.004905990496685 0  0.829839811395559 1.03503716269129 0  0.7807992364287915 1.064412282873314 0  0.7307344696699121 1.092527576755614 0  0.6797090508665437 1.119349676905995 0  0.6277423205786253 1.144728085723589 0  0.5747259891121252 1.168098570910213 0  0.5209880425532716 1.18957193073532 0  0.4664579276799379 1.20962732550388 0  0.4111549062139098 1.227496562732178 0  0.3551920851010594 1.243347407837044 0  0.2986298927542708 1.256970295357253 0  0.2415568632006436 1.268335376386609 0  0.1840761178299586 1.277423347151332 0  0.1262181895322242 1.283895887248327 0  0.06822442041819676 1.287988117525471 0  0.01007932886093532 1.289927377799215 0  -0.04809401152101737 1.289351399581073 0  -0.1062112060370829 1.286341928668159 0  -0.1641563464778479 1.280806047232931 0  -0.2218283853421006 1.27282253552517 0  -0.2791073686675051 1.262211813409326 0  -0.3358961482438081 1.249480525435058 0  -0.3922106013530188 1.234244582853756 0  -0.4477088183010821 1.216265891579871 0  -0.502420194627229 1.19604534191825 0  -0.5562597296090702 1.173750186089715 0  -0.6091016378222039 1.149349496467524 0  -0.6610670918011531 1.123533883609814 0  -0.7118441622564369 1.095536699057797 0  -0.7616394732783144 1.067345812664117 0  -0.8107857554951777 1.037531303943611 0  -0.8583447778093145 1.005523451624022 0  -0.9047821462985812 0.9725931296118292 0  -0.9501774735413046 0.9389923102764628 0  -0.9942716209991751 0.9042136275935972 0  -1.037664136603245 0.8698081035320582 0  -1.079020941359717 0.8322979132217314 0  -1.120068590066901 0.7984689815066107 0  -1.160958944251005 0.7647184787922361 0  -1.200556792936694 0.7296428243029461 0  -1.239548909025896 0.6949194341654354 0  -1.27738388715606 0.6594190388317511 0  -1.315500842184951 0.6259278646798379 0  -1.353398102925767 0.5911720619163612 0  -1.389542646363239 0.5572049876727675 0  -1.428524015954115 0.5229786806081741 0  -1.456225443703973 0.4767621702671784 0  -1.487460062130102 0.4341268790701879 0  -1.513944490338497 0.3887621309047438 0  -1.538074993927876 0.3422573964184477 0  -1.556022588505956 0.2925579783495887 0  -1.574087646201008 0.244593548918974 0  -1.577787691100315 0.1897804262972363 0  -1.591496010479832 0.1444721563333375 0  -1.602258684565427 0.09707272517463293 0  -1.598104345455119 0.0482264315949715 0  -1.601806857592028 0.001312976117665219 0  -1.600926168420234 -0.04526074361257629 0  -1.603155870084037 -0.09189278230834687 0  -1.600789158910276 -0.1390550712415716 0  -1.605811700715855 -0.1883436892044976 0  -1.596258487536346 -0.2362372642766649 0  -1.583551171135452 -0.2821023751617765 0  -1.581211709997314 -0.3381496497128298 0  -1.563722351502284 -0.3867820389975221 0  -1.546158248550285 -0.4371962841243497 0  -1.522035899867015 -0.4840713013727317 0  -1.495142396811568 -0.5294658174997495 0  -1.464239891760826 -0.5722972715271993 0  -1.436473382671597 -0.6186707087096478 0  -1.397144430796201 -0.6531506713022871 0  -1.361061746988993 -0.6874546591198555 0  -1.322983235398135 -0.7222711852754272 0  -1.284936025428003 -0.7560240701066134 0  -1.247265586377721 -0.7919997861714805 0  -1.208486851479169 -0.8273085781760741 0  -1.169147583425616 -0.8631333906378024 0  -1.128691969920327 -0.8978718385237906 0  -1.087929740315549 -0.9329309957211086 0  -1.047235177482969 -0.9727819264421982 0  -1.004004463480443 -1.008786108390964 0  -0.9601063104042237 -1.045369012348017 0  -0.9148607325106154 -1.080865057878774 0  -0.8685181678395013 -1.115772553073701 0  -0.8209481378309953 -1.149723004342503 0  -0.7720493568643461 -1.182099770704728 0  -0.7221662836807167 -1.213630740157091 0  -0.6713645240938377 -1.245687234740793 0  -0.6187879153785447 -1.274189532878117 0  -0.5653444813642046 -1.301211606979745 0  -0.5107339199538475 -1.325791118146983 0  -0.4551516989612307 -1.348054285765531 0  -0.3987310306167265 -1.367946671616572 0  -0.3412339503447055 -1.38437744870472 0  -0.2833267537493107 -1.397978902501981 0  -0.2248880896143879 -1.409584513170221 0  -0.1659746077995612 -1.418225376290692 0  -0.1067399600189866 -1.424195106287689 0  -0.04728788923564198 -1.427286983357763 0  0.01224391612932882 -1.427541747150294 0  0.07172868878862852 -1.42488762650273 0  0.1310291778525204 -1.419300014077575 0  0.1899613136343861 -1.411014259865691 0  0.2484702528706012 -1.400280771895529 0  0.3064533193519647 -1.387062656565594 0  0.3638284470624699 -1.371512174545473 0  0.4204856705182933 -1.353631653742212 0  0.4763946030097099 -1.333820009095209 0  0.5314106673143292 -1.311672008358437 0  0.5855620991671973 -1.28869176336028 0  0.6390922053364102 -1.263661634298578 0  0.691315675507097 -1.236193831457707 0  0.7425519809777096 -1.20743325070732 0  0.7927438534042491 -1.177433251193988 0  0.8418551739047182 -1.14627362119138 0  0.8900193233009934 -1.114410490258081 0  0.9372178437003209 -1.081809582901645 0  0.9832669585118907 -1.048959350849826 0  1.028856363887794 -1.014666695771877 0  1.07277919753933 -0.9786383238276124 0  1.115391426304908 -0.9418776445669833 0  1.157105796027035 -0.9048876096312386 0  1.197399445618001 -0.8667166787407804 0  1.237361931684571 -0.8296010231893576 0  1.274939013106347 -0.788785792272345 0  1.312487373426595 -0.7527930763515803 0  1.350701168756869 -0.7161877660235236 0  1.386132622674856 -0.6766996295674681 0  1.420312324571541 -0.6365492563893614 0  1.452924860340756 -0.5954819515160893 0  1.483444623105447 -0.5529128119699732 0  1.513082170227872 -0.5105014376625662 0  1.537745319371248 -0.4638151782341035 0  1.564125727207306 -0.4217119075602998 0  1.588842960679734 -0.3777223209082853 0  1.607901332130288 -0.3309900571227762 0  1.624963535030678 -0.2840104850348296 0  1.638598176996813 -0.236299784065305 0  1.649492107662782 -0.1883766927686784 0  1.657296979538982 -0.1402198723848408 0  1.662939798637365 -0.09217493907679908 0  -0.09056959209372631 0.7657613428908097 0  0.6196538350694302 -0.7103998300610659 0  -0.7514002031629129 -0.6255649181195377 0  -0.06715962796345898 -0.8738766994593791 0  0.6156975388979563 0.5998112341656623 0  1.183742196290747 0.1956320503007233 0  -0.7640592215872939 0.5103219477067662 0  -1.25153251770012 -0.05035434601018206 0  1.188258086338851 -0.2913387435411637 0  -1.049747956053838 -0.4584075412931423 0  -0.8074512394560377 -0.06534120114598574 0  -0.4776565276419159 -0.2352352722166403 0  -1.06044966403447 0.3388538246694137 0  0.2935854697038725 -0.8520839399391692 0  0.1483829451448339 -0.2934374582706122 0  0.2573143821254544 0.7297103097765869 0  0.3540681594812037 0.1887487120775103 0  0.6768940305284931 -0.04956820935901159 0  -0.4077155064919809 -0.7714813904951777 0  -0.4442232551040036 0.6766630303611464 0  -0.271920678385904 0.2425342513910613 0  0.934268660357513 -0.4921795671013751 0  0.9299842331408443 0.3920171530208811 0  0.4231171602428104 -0.3238288677813039 0  0.03930986176950757 0.2377616664483678 0  -0.5422950179946696 0.1844608895741771 0  -0.1673983703798992 -0.2862619517405762 0  0.966855248384595 -0.04879280047630456 0  1.382250947896645 -0.04606123883079482 0  0.7772185233808777 -0.5986215684597206 0  0.7976354912284828 -0.2791806963891476 0  0.6399274141122123 -0.376861492016572 0  0.5487874749433369 -0.1831689668741633 0  0.5161014233713963 -0.5216481583823804 0  0.9442031639848472 -0.2689371367554701 0  0.8212558858160594 -0.04915126968780616 0  -0.9261776207219677 0.1447802499168662 0  -1.152267142676777 0.1412828097638892 0  -1.031940094477716 -0.05698120813000968 0  -0.9206703399460617 -0.2693915290992255 0  -1.147700826205476 -0.2506066469890634 0  -1.325694640374304 -0.3453421509688751 0  -1.416162012490351 -0.1609921458521729 0  -1.413592549771568 0.06451270710380097 0  -1.320360527306144 0.2475262779804729 0  -0.1177907386038124 -0.5794998579922638 0  -0.2816531243353184 -0.5339489461781116 0  -0.2385321330774844 -0.8277005537851578 0  -0.3219269543973853 -0.261794883453857 0  -0.4394027018801737 -0.5008554372889654 0  -1.239579343563509 -0.5412057135226651 0  -1.240578089981971 0.4352581441092431 0  0.3572834637110515 -0.585511901070122 0  0.2849913578725604 -0.3101101105501879 0  0.2160458951085666 -0.5752686259894757 0  -0.911691239616363 0.4205595655768573 0  -0.7775835408565042 0.2205861585513673 0  1.374072123910186 -0.3663565489327671 0  1.240218959823571 -0.5288316882792073 0  1.232917558230521 0.4328967851980398 0  1.368028437520543 0.2731894461284249 0  -0.7501226322475355 -0.9043794256302438 0  -0.9306420532203195 -0.7749047022850399 0  -0.9330853107288702 0.667261541814818 0  -0.7529956159256657 0.7889807482390826 0  0.7894851944056485 -0.8922150029384331 0  0.5962183074343204 -0.9992883320788994 0  0.589630137064163 0.8843098331657483 0  0.7821050392694162 0.7837455270834524 0  0.0223
[...]
<PointData  Vectors="f_45"> 
<DataArray  type="Float64"  Name="f_45"  NumberOfComponents="3" format="ascii">2.2383558304002851e-01 4.9835618770504037e-03 0.0000000000000000e+00  2.1764460203098845e-01 5.1936533212536141e-02 0.0000000000000000e+00  2.1164015762246779e-01 7.3301763724161972e-02 0.0000000000000000e+00  2.0334619967216391e-01 9.2238403478376807e-02 0.0000000000000000e+00  1.9204674281733217e-01 1.1573886598175637e-01 0.0000000000000000e+00  1.7492943284247850e-01 1.3842020218547718e-01 0.0000000000000000e+00  1.6327208559676190e-01 1.5426000864690093e-01 0.0000000000000000e+00  1.3551950852881148e-01 1.7677831302919741e-01 0.0000000000000000e+00  9.0673823324539438e-02 2.0590082948405958e-01 0.0000000000000000e+00  1.1323639748051346e-01 1.9240075983769112e-01 0.0000000000000000e+00  1.0001562168150505e-01 1.9797135460509130e-01 0.0000000000000000e+00  6.3617709839554448e-02 2.1576304481042868e-01 0.0000000000000000e+00  5.9122499982643018e-02 2.1515946858383558e-01 0.0000000000000000e+00  3.4797980074939575e-02 2.2107378959403196e-01 0.0000000000000000e+00  2.7209224020950155e-02 2.2229823385323824e-01 0.0000000000000000e+00  5.8653269570698677e-04 2.2310754006983596e-01 0.0000000000000000e+00  -2.5025624676882057e-02 2.2290318450962304e-01 0.0000000000000000e+00  3.2926361511078505e-03 2.2346386757249237e-01 0.0000000000000000e+00  -6.0607561827829204e-03 2.2274368909858117e-01 0.0000000000000000e+00  -2.6010078272373269e-02 2.2250627517781627e-01 0.0000000000000000e+00  -2.5230457276402395e-02 2.2194828733512503e-01 0.0000000000000000e+00  -4.0040495040529672e-02 2.2013800200619110e-01 0.0000000000000000e+00  -4.5024847407018731e-02 2.1907047313661471e-01 0.0000000000000000e+00  -6.2589780176967230e-02 2.1463971232910634e-01 0.0000000000000000e+00  -7.8223528711280035e-02 2.0956951522044442e-01 0.0000000000000000e+00  -8.5142124483481782e-02 2.0676803174865727e-01 0.0000000000000000e+00  -9.3414698160266318e-02 2.0315835010291669e-01 0.0000000000000000e+00  -1.0149093937776556e-01 1.9929352730519423e-01 0.0000000000000000e+00  -1.1061273646221488e-01 1.9433748657290340e-01 0.0000000000000000e+00  -1.2179078659966086e-01 1.8756896006467558e-01 0.0000000000000000e+00  -1.3175400269881138e-01 1.8073220976912893e-01 0.0000000000000000e+00  -1.4403112917721508e-01 1.7108628092760775e-01 0.0000000000000000e+00  -1.5712973814132714e-01 1.5913480933059340e-01 0.0000000000000000e+00  -1.6606466600882108e-01 1.4986825957042058e-01 0.0000000000000000e+00  -1.7567921773476750e-01 1.3831665430945544e-01 0.0000000000000000e+00  -1.8617519674162189e-01 1.2402989231981465e-01 0.0000000000000000e+00  -1.9479504310386922e-01 1.0986569653936144e-01 0.0000000000000000e+00  -2.0308936768738456e-01 9.3703451708120417e-02 0.0000000000000000e+00  -2.0975878450420940e-01 7.7707521131398893e-02 0.0000000000000000e+00  -2.1562532617691194e-01 5.9386842533858723e-02 0.0000000000000000e+00  -2.2007987186102249e-01 3.9920941126815157e-02 0.0000000000000000e+00  -2.2246382364544159e-01 2.3377071439123851e-02 0.0000000000000000e+00  -2.2356828615952365e-01 5.4639950577300474e-03 0.0000000000000000e+00  -2.2328157111750380e-01 -1.3818403005296718e-02 0.0000000000000000e+00  -2.2122659275536272e-01 -3.2763760782577860e-02 0.0000000000000000e+00  -2.1772983135940516e-01 -5.1433561514114622e-02 0.0000000000000000e+00  -2.1213360314329360e-01 -7.0751033674762417e-02 0.0000000000000000e+00  -2.0563597952110402e-01 -8.8086989919118494e-02 0.0000000000000000e+00  -1.9824992168798528e-01 -1.0356739616654033e-01 0.0000000000000000e+00  -1.8728352724194766e-01 -1.2227428471247200e-01 0.0000000000000000e+00  -1.7532488098444698e-01 -1.3890657826985894e-01 0.0000000000000000e+00  -1.6439791957686198e-01 -1.5170549331198202e-01 0.0000000000000000e+00  -1.5110367369328290e-01 -1.6477940421767248e-01 0.0000000000000000e+00  -1.4064944721374689e-01 -1.7406370365394630e-01 0.0000000000000000e+00  -1.2658053310318143e-01 -1.8417679970692194e-01 0.0000000000000000e+00  -1.1632243073108295e-01 -1.9108345909430990e-01 0.0000000000000000e+00  -1.1133031979520527e-01 -1.9398116285860492e-01 0.0000000000000000e+00  -9.3405580780855493e-02 -2.0315387302936555e-01 0.0000000000000000e+00  -7.7547109002030393e-02 -2.0979398345299316e-01 0.0000000000000000e+00  -7.0905014851998599e-02 -2.1217392639825428e-01 0.0000000000000000e+00  -5.6696593830537913e-02 -2.1612352320754386e-01 0.0000000000000000e+00  -5.4597915148108460e-02 -2.1724339174409688e-01 0.0000000000000000e+00  -3.3995100277668118e-02 -2.2044356347850272e-01 0.0000000000000000e+00  -2.7396108650277015e-02 -2.2181251854812628e-01 0.0000000000000000e+00  -4.8687905822894055e-02 -2.1858530409555724e-01 0.0000000000000000e+00  -3.3189696931568362e-02 -2.2096545876360521e-01 0.0000000000000000e+00  -2.6705752524899953e-02 -2.2212213617449189e-01 0.0000000000000000e+00  -1.8297495940713462e-02 -2.2280971077751585e-01 0.0000000000000000e+00  -2.0293338385765025e-02 -2.2242864413358798e-01 0.0000000000000000e+00  -2.9139010620153734e-02 -2.2222326584554208e-01 0.0000000000000000e+00  -7.2591620184937920e-03 -2.2226163064035812e-01 0.0000000000000000e+00  -4.1878007289062935e-02 -2.2663213578224606e-01 0.0000000000000000e+00  4.4200816063552598e-02 -2.0618430639683336e-01 0.0000000000000000e+00  9.9481067360273984e-02 -2.0445285735760516e-01 0.0000000000000000e+00  7.7759664310199761e-02 -2.0676775683301046e-01 0.0000000000000000e+00  1.2118109515355975e-01 -1.9237759749198921e-01 0.0000000000000000e+00  1.5354466954190407e-01 -1.5634562768723539e-01 0.0000000000000000e+00  1.6726181743991028e-01 -1.5895616731271134e-01 0.0000000000000000e+00  1.9846345068986979e-01 -7.7552289737583130e-02 0.0000000000000000e+00  2.1179276557721027e-01 -5.4906156503205274e-02 0.0000000000000000e+00  1.8426017784336088e-01 -1.4924727913450894e-01 0.0000000000000000e+00  2.1508667443538956e-01 -9.2035027531541039e-03 0.0000000000000000e+00  2.2169836354241340e-01 1.0683537542137082e-02 0.0000000000000000e+00  2.2193354030224638e-01 -2.1255553076398783e-02 0.0000000000000000e+00  2.2339248813645868e-01 -6.2823990701088303e-03 0.0000000000000000e+00  2.2259380743147611e-01 7.6110677886815263e-03 0.0000000000000000e+00  2.2145193248983755e-01 -2.0179898610589140e-02 0.0000000000000000e+00  2.1598953724613962e-01 2.7414924397192427e-04 0.0000000000000000e+00  1.9115708829439013e-01 1.3947368946769242e-01 0.0000000000000000e+00  2.1459447343018812e-01 4.3847343965246359e-02 0.0000000000000000e+00  2.0097491432884626e-01 6.8360982822047334e-02 0.0000000000000000e+00  1.7160716789252586e-01 1.5519620732849604e-01 0.0000000000000000e+00  1.5623602310203605e-01 1.5336587755009384e-01 0.0000000000000000e+00  1.1948815509423526e-01 1.9345987372234463e-01 0.0000000000000000e+00  7.7992578927874576e-02 2.0699594751986047e-01 0.0000000000000000e+00  1.0227735745329168e-01 2.0351749767978461e-01 0.0000000000000000e+00  4.2800647765447293e-02 2.0634132238335845e-01 0.0000000000000000e+00  -4.0176003967016358e-02 2.2666371884112207e-01 0.0000000000000000e+00  -6.2790324466278609e-03 2.2229492967618508e-01 0.0000000000000000e+00  -2.9168266136935968e-02 2.2230511488491050e-01 0.0000000000000000e+00  -1.6853992100656606e-02 2.2267982043855553e-01 0.0000000000000000e+00  -1.3826843050854895e-02 2.2316250178745131e-01 0.0000000000000000e+00  -2.1487499105280618e-02 2.2265682501084699e-01 0.0000000000000000e+00  -2.5432303450876707e-02 2.2199617087962270e-01 0.0000000000000000e+00  -4.0820548230455299e-02 2.2035852779672876e-01 0.0000000000000000e+00  -1.3100177778625394e-02 2.2294815730171660e-01 0.0000000000000000e+00  -1.9308546354255513e-02 2.2196179909517488e-01 0.0000000000000000e+00  -4.4603004953686846e-02 2.1967747563063289e-01 0.0000000000000000e+00  -4.4382359581892544e-02 2.1893190771644114e-01 0.0000000000000000e+00  -5.8568849327066727e-02 2.1594707159179660e-01 0.0000000000000000e+00  -6.6187198694939914e-02 2.1357519455783214e-01 0.0000000000000000e+00  -7.9938964383573716e-02 2.0889117660259757e-01 0.0000000000000000e+00  -9.4056027995206390e-02 2.0281686993892370e-01 0.0000000000000000e+00  -9.3590259081595184e-02 2.0334490560860219e-01 0.0000000000000000e+00  -1.0801669530297792e-01 1.9530739463220545e-01 0.0000000000000000e+00  -1.2908539971799948e-01 1.8309272733290821e-01 0.0000000000000000e+00  -1.3939306199095136e-01 1.7468597184733117e-01 0.0000000000000000e+00  -1.5582015596864018e-01 1.6054288696383670e-01 0.0000000000000000e+00  -1.6747333702651121e-01 1.4836825750565683e-01 0.0000000000000000e+00  -1.8209749758108465e-01 1.2980613055263257e-01 0.0000000000000000e+00  -1.9614626214236294e-01 1.0759055831522646e-01 0.0000000000000000e+00  -2.0349325884513947e-01 9.2985920892567020e-02 0.0000000000000000e+00  -2.1047045406130593e-01 7.5443253779894220e-02 0.0000000000000000e+00  -2.1710273091152466e-01 5.4216643375621210e-02 0.0000000000000000e+00  -2.2101545091830441e-01 3.4178930630944390e-02 0.0000000000000000e+00  -2.2336751615022710e-01 1.2505972727399778e-02 0.0000000000000000e+00  -2.2351182452316584e-01 -8.8759687547115707e-03 0.0000000000000000e+00  -2.2153567901095497e-01 -3.1005897265598065e-02 0.0000000000000000e+00  -2.1751326211727059e-01 -5.2151220639536207e-02 0.0000000000000000e+00  -2.1224007926240521e-01 -7.0660470226800040e-02 0.0000000000000000e+00  -2.0547961678512530e-01 -8.8289999392281479e-02 0.0000000000000000e+00  -1.9752348012795670e-01 -1.0502656829350554e-01 0.0000000000000000e+00  -1.8798050039020250e-01 -1.2108238658349364e-01 0.0000000000000000e+00  -1.7886686710851452e-01 -1.3444188213542280e-01 0.0000000000000000e+00  -1.6700450468539926e-01 -1.4858161901286757e-01 0.0000000000000000e+00  -1.5797471572090027e-01 -1.5839437094861031e-01 0.0000000000000000e+00  -1.5089044062673027e-01 -1.6508468143057964e-01 0.0000000000000000e+00  -1.3462390006366254e-01 -1.7854436873109109e-01 0.0000000000000000e+00  -1.2083523355022334e-01 -1.8825796334958414e-01 0.0000000000000000e+00  -1.1151180122855095e-01 -1.9382341288005633e-01 0.0000000000000000e+00  -1.0018715667758396e-01 -1.9992719554584532e-01 0.0000000000000000e+00  -9.1198699193155194e-02 -2.0419900739953875e-01 0.0000000000000000e+00  -8.3187952252542455e-02 -2.0755415132078181e-01 0.0000000000000000e+00  -7.5956154964099062e-02 -2.1032223066614281e-01 0.0000000000000000e+00  -6.8828849785659368e-02 -2.1282070440727979e-01 0.0000000000000000e+00  -5.3030427757907533e-02 -2.1722052303929554e-01 0.0000000000000000e+00  -3.6303811408012948e-02 -2.2066665893270718e-01 0.0000000000000000e+00  -3.1376755691347090e-02 -2.2154036374388994e-01 0.0000000000000000e+00  -1.6801461598073102e-02 -2.2274183507657849e-01 0.0000000000000000e+00  -1.7999757218051433e-02 -2.2333051228554590e-01 0.0000000000000000e+00  3.3382824319340993e-03 -2.2277571353466721e-01 0.0000000000000000e+00  1.1132394457013998e-02 -2.2309254854917090e-01 0.0000000000000000e+00  -1.8930160027721250e-02 -2.2358114281311378e-01 0.0000000000000000e+00  7.4189880587881528e-03 -2.2300439574990286e-01 0.0000000000000000e+00  3.2921786094729448e-02 -2.2149862478761023e-01 0.0000000000000000e+00  4.0400755888823053e-02 -2.2012412122908470e-01 0.0000000000000000e+00  6.4469707197865198e-02 -2.1361046785683752e-01 0.0000000000000000e+00  6.8981817007036261e-02 -2.1414634665628823e-01 0.0000000000000000e+00  1.0570725903240574e-01 -1.9497794992254869e-01 0.0000000000000000e+00  1.1789930348834622e-01 -1.8947244644472030e-01 0.0000000000000000e+00  9.5683833844336236e-02 -2.0364961536511036e-01 0.0000000000000000e+00  1.4110097728971349e-01 -1.7242642196912839e-01 0.0000000000000000e+00  1.6830187741426719e-01 -1.4872288726822600e-01 0.0000000000000000e+00  1.7968776366843756e-01 -1.3227999173071758e-01 0.0000000000000000e+00  1.9685109196664374e-01 -1.0722495068217368e-01 0.0000000000000000e+00  2.0729138737737193e-01 -8.3354810184019537e-02 0.0000000000000000e+00  2.1531392759505683e-01 -6.1349149572085523e-02 0.0000000000000000e+00  2.2048710831449786e-01 -3.8604954690445795e-02 0.0000000000000000e+00  -2.1624659503093596e-01 -5.7460679652752977e-02 0.0000000000000000e+00  -2.8331043589948805e-02 -2.2208637114244659e-01 0.0000000000000000e+00  4.8882903745809995e-02 2.1844818396668425e-01 0.0000000000000000e+00  -2.1855406339632796e-01 4.8046432452955874e-02 0.0000000000000000e+00  -4.9675441220120020e-02 2.1826096569717202e-01 0.0000000000000000e+00  1.8122059055746592e-01 1.3141103122734293e-01 0.0000000000000000e+00  3.0457257314547955e-02 -2.2174608093578554e-01 0.0000000000000000e+00  2.2382460223836090e-01 -7.5994158136840524e-03 0.0000000000000000e+00  1.9097388995859232e-01 -1.1681229689849638e-01 0.0000000000000000e+00  1.3715361661795336e-01 1.7689859655154935e-01 0.0000000000000000e+00  2.2382235279315496e-01 -1.0942634852902268e-02 0.0000000000000000e+00  1.9281952413775402e-01 1.1477196383167547e-01 0.0000000000000000e+00  1.2952373185520330e-01 -1.8254464573656645e-01 0.0000000000000000e+00  -1.7508187973742842e-01 -1.3936903533583039e-01 0.0000000000000000e+00  -7.1466177304340031e-02 -2.1526119315336936e-01 0.0000000000000000e+00  -1.9201886490764331e-01 1.1486694867217979e-01 0.0000000000000000e+00  5.1275603497315476e-02 2.1875682515881875e-01 0.0000000000000000e+00  2.2354067445681750e-01 2.1708996204760377e-02 0.0000000000000000e+00  -1.0318213300430534e-01 1.9862608164477469e-01 0.0000000000000000e+00  -1.1185667610815370e-01 -1.9381633974006685e-01 0.0000000000000000e+00  -1.0156603039220249e-02 -2.2435413822003250e-01 0.0000000000000000e+00  1.1653712370388949e-01 -1.9114775812058826e-01 0.0000000000000000e+00  9.7000164371690942e-02 2.0173539434264157e-01 0.0000000000000000e+00  1.1292457217940668e-01 -1.9400130965927254e-01 0.0000000000000000e+00  -2.2456873006551728e-01 4.1533429205016575e-03 0.0000000000000000e+00  1.3621724367983565e-01 -1.7787585741390091e-01 0.0000000000000000e+00  4.0805415071292858e-02 2.2297379627042860e-01 0.0000000000000000e+00  2.2347573388733372e-01 1.3397390726115097e-02 0.0000000000000000e+00  2.2371809905038767e-01 7.2680996783426486e-03 0.0000000000000000e+00  5.4305909866799382e-02 -2.1724877727723174e-01 0.0000000000000000e+00  1.8919588720629835e-01 -1.2016533629321965e-01 0.0000000000000000e+00  1.3518085285811682e-01 -1.7905604840867984e-01 0.0000000000000000e+00  2.0781829415155548e-01 -8.5162281501518292e-02 0.0000000000000000e+00  2.4121779425794260e-02 -2.2288293348250771e-01 0.0000000000000000e+00  1.9635937693626984e-01 -1.0757625616504825e-01 0.0000000000000000e+00  2.2341322164502311e-01 1.6984889395916660e-02 0.0000000000000000e+00  1.9037672981467829e-01 -1.1790556265962834e-01 0.0000000000000000e+00  1.9794904649846937e-01 -1.0467029459358181e-01 0.0000000000000000e+00  2.2368926171528786e-01 -9.0387565519802881e-03 0.0000000000000000e+00  1.9854827693735638e-01 1.0358375034776379e-01 0.0000000000000000e+00  2.0385316907695022e-01 9.2714180295299126e-02 0.0000000000000000e+00  1.8010687917924548e-01 1.3326876478916014e-01 0.0000000000000000e+00  2.1995069019293617e-01 4.1322181320256370e-02 0.0000000000000000e+00  2.1746093564443617e-01 -5.2839424021174773e-02 0.0000000000000000e+00  1.7337216700584762e-01 -1.4184907055830021e-01 0.0000000000000000e+00  -1.8621954008748365e-01 1.2456443647165626e-01 0.0000000000000000e+00  -7.1776518757209945e-02 2.1237212003552411e-01 0.0000000000000000e+00  -1.7616115886488570e-01 1.3803431475615782e-01 0.0000000000000000e+00  1.5434380100762923e-01 1.6393437460822727e-01 0.0000000000000000e+00  2.8346364270796079e-02 2.2231324814710984e-01 0.0000000000000000e+00  9.5195476581348887e-02 2.0273994842154081e-01 0.0000000000000000e+00  8.9777260098717698e-02 -2.0516638002905363e-01 0.0000000000000000e+00  -8.2664269141661806e-02 -2.0823054483847053e-01 0.0000000000000000e+00  5.5967140102922495e-02 -2.1831558544543020e-01 0.0000000000000000e+00  -1.5876540850562340e-01 -1.5816781317797549e-01 0.0000000000000000e+00  8.7082333138731260e-02 -2.0620438500859065e-01 0.0000000000000000e+00  1.5498918308594195e-01 -1.6177709483358133e-01 0.0000000000000000e+00  1.6212498056390007e-01 -1.5434270770125086e-01 0.0000000000000000e+00  1.0422893763688013e-01 -1.9807871159086687e-01 0.0000000000000000e+00  9.2750986440553337e-02 2.0368211346480752e-01 0.0000000000000000e+00  1.5373825670336658e-01 1.6267111461528846e-01 0.0000000000000000e+00  -4.5757923520742545e-02 2.1897343634780192e-01 0.0000000000000000e+00  1.2496110642056938e-02 2.2336058945646678e-01 0.0000000000000000e+00  -2.5547105272163990e-03 -2.2369231137449327e-01 0.0000000000000000e+00  -5.9894793926728175e-02 -2.1553245791625891e-01 0.0000000000000000e+00  -4.8921271496005919e-02 -2.1831019262414511e-01 0.0000000000000000e+00  -1.1271531834556293e-01 -1.9323161957073173e-01 0.0000000000000000e+00  -1.2475100611174267e-01 1.8568273227971102e-01 0.0000000000000000e+00  -6.3711032356122813e-02 2.1444736786034321e-01 0.0000000000000000e+00  -2.2364602927409197e-01 -5.9628146575334698e-03 0.0000000000000000e+00  -2.0843668763518688e-01 8.1283880452685128e-02 0.0000000000000000e+00  -2.0824533087834252e-01 -8.1737173271875171e-02 0.0000000000000000e+00  -2.2369936222581338e-01 -1.7406050438954945e-03 0.0000000000000000e+00  -1.0582477269701938e-01 -1.9721201890690246e-01 0.0000000000000000e+00  1.8617508046313777e-01 1.2580927746646864e-01 0.0000000000000000e+00  1.0468703659615092e-01 1.9833227453191984e-01 0.0000000000000000e+00  -1.7634021798982699e-02 2.2343670977195923e-01 0.0000000000000000e+00  1.1144254659745588e-01 1.9441680918882792e-01 0.0000000000000000e+00  2.2032123603188841e-01 4.1266714883915152e-02 0.0000000000000000e+00  1.7179900320196753e-01 1.4383299587616560e-01 0.0000000000000000e+00  -1.0512230912261752e-01 1.9875015739415589e-01 0.0000000000000000e+00  1.1655659255767056e-01 2.3539624402993112e-01 0.0000000000000000e+00  2.2038526415393869e-01 5.7167285064273023e-02 0.0000000000000000e+00  4.4350887143649563e-02 2.1930761598427212e-01 0.0000000000000000e+00  3.4416804051038037e-02 -2.2108292122071538e-01 0.0000000000000000e+00  1.0118028587430537e-01 1.9967431574497149e-01 0.0000000000000000e+00  1.6974555455230647e-01 1.4628787363279500e-01 0.0000000000000000e+00  3.1414295455874659e-02 2.2167515443111363e-01 0.0000000000000000e+00  1.8252260117807675e-01 1.2963967064005189e-01 0.0000000000000000e+00  -1.3075868468531543e-01 1.8182655818649585e-01 0.0000000000000000e+00  -1.2783891467597669e-01 1.8367858813050050e-01 0.0000000000000000e+00  -2.2300223625351140e-01 -2.1557637953126981e-02 0.0000000000000000e+00  -2.1750969425984470e-01 -5.2613722484337842e-02 0.0000000000000000e+00  -8.1713104994149910e-02 -2.0851193353586792e-01 0.0000000000000000e+00  -1.7225779145573264e-01 -1.4309860765380442e-01 0.0000000000000000e+00  -1.7578088447141987e-01 -1.3848430674961648e-01 0.0000000000000000e+00  2.2473422720296210e-01 1.5451406578403763e-02 0.0000000000000000e+00  -2.1468992411448953e-01 7.3166176156039403e-02 0.0000000000000000e+00  -1.6386832619266936e-01 -1.5228301966870800e-01 0.0000000000000000e+00  -2.0767997277958650e-01 -8.3173272056681777e-02 0.0000000000000000e+00  -2.1281163978438669e-01 6.8949759708895372e-02 0.0000000000000000e+00  -1.7568712680441642e-01 1.3847700709202002e-01 0.0000000000000000e+00  1.0593784897164135e-01 -2.1059999882994551e-01 0.0000000000000000e+00  -2.0646256746129510e-01 8.6580509469763700e-02 0.0000000000000000e+00  -2.2163964810953027e-01 3.0574599709401806e-02 0.0000000000000000e+00  -1.6805916148614453e-01 1.4767521810401019e-01 0.0000000000000000e+00  -1.0415983066413810e-01 1.9798189093137747e-01 0.0000000000000000e+00  -1.9989944674025224e-02 2.2294143554520515e-01 0.0000000000000000e+00  -1.1413952183206451e-01 -1.9238932153646718e-01 0.0000000000000000e+00  -1.7084245438849763e-01 -1.4442466976362667e-01 0.0000000000000000e+00  -3.7823930451704658e-02 -2.2057196796984305e-01 0.0000000000000000e+00  2.0331549130582027e-01 -9.4196016602316274e-02 0.0000000000000000e