<?xml version="1.0"?>
<VTKFile type="UnstructuredGrid"  version="0.1"  >
<UnstructuredGrid>
<Piece  NumberOfPoints="2549" NumberOfCells="4928">
<Points>
<DataArray  type="Float64"  NumberOfComponents="3"  format="ascii">1.638395186688502 -0.03760572581778678 0  1.635320066911391 0.009953603306739649 0  1.628591858549835 0.05701194042686625 0  1.620279694223064 0.1041945715429778 0  1.608960289641547 0.1510444260643752 0  1.59539048974523 0.1977544345668199 0  1.578454004081401 0.2437788236278861 0  1.56003497571065 0.2896428785710884 0  1.535951089933845 0.332903917612652 0  1.510626329169449 0.37457903834769 0  1.487315720054373 0.4208634870108144 0  1.458661359766714 0.4628053720963598 0  1.429497704488642 0.5051630399985528 0  1.398333757061359 0.5462131152836417 0  1.365609716221152 0.5865436617970986 0  1.33137879478627 0.6258599876442258 0  1.295269748212325 0.6634869402038963 0  1.25908306099869 0.6997906035443806 0  1.222823575285851 0.7407039962391327 0  1.184409446280295 0.778196820024704 0  1.145430691677376 0.8165474450524612 0  1.105150541332519 0.8538995479072777 0  1.064039793292968 0.8912808362826067 0  1.021384155295373 0.9276362159326448 0  0.9772307297603035 0.9626833883298744 0  0.9324510624519757 0.996219716196764 0  0.8863677818537596 1.029313364111762 0  0.8392266508977533 1.061519581616376 0  0.7910860891182505 1.092955494533087 0  0.7417965011571387 1.12314050990182 0  0.6914474341129399 1.152097822960148 0  0.6400485796954454 1.179632581929659 0  0.5874082563885578 1.205116321547226 0  0.5339124894014718 1.228726312145444 0  0.4794876156210754 1.250841215815186 0  0.4240843978249614 1.270607127217673 0  0.3678914229204581 1.288270792805033 0  0.3109296655186946 1.303514606478634 0  0.2533140802682742 1.316313383757381 0  0.1951668076853188 1.326582732146887 0  0.1365155905370782 1.333932984133107 0  0.07765957737458798 1.338586891122673 0  0.01860785394205415 1.340751844906654 0  -0.04047425369161007 1.340041002028359 0  -0.09947082198366011 1.336561388643399 0  -0.1582240422700218 1.330224096412278 0  -0.2166099628651506 1.321152445708996 0  -0.274466157635327 1.309169754566278 0  -0.3316866316635535 1.294813507204995 0  -0.3882748766695976 1.277789957326129 0  -0.4438443501006976 1.257898811551334 0  -0.4984627923895723 1.235653173827076 0  -0.5520888065240631 1.211365394026306 0  -0.6044936480753585 1.184845866479013 0  -0.6559901515163862 1.157019204814186 0  -0.7060145523075749 1.126836795485124 0  -0.7549266093757928 1.096378090229983 0  -0.803032210163501 1.064319400351012 0  -0.8493855895689135 1.030201985002281 0  -0.8944503962556055 0.9950867541428275 0  -0.9384787656764241 0.9595557861232575 0  -0.9810172824863961 0.9228408960108023 0  -1.023053461601108 0.8868562862856756 0  -1.062253323131999 0.8469376728577706 0  -1.101478741851677 0.8113193566116904 0  -1.140194351395049 0.7755601678376685 0  -1.177570726185093 0.7386144720056271 0  -1.214269153127531 0.7022039617041314 0  -1.249705211545119 0.6649361232877127 0  -1.284776791719549 0.6294210730901786 0  -1.319609427935489 0.5927104517009585 0  -1.35418868408879 0.5592835898381932 0  -1.389212621461289 0.522348715254599 0  -1.412985798318227 0.4755868192675679 0  -1.445925818122507 0.4341666835880929 0  -1.471574529798271 0.3893621214224285 0  -1.494809412596154 0.3430856458688302 0  -1.511401476039219 0.2939883815657754 0  -1.529892539635172 0.2468965319634204 0  -1.530439711384366 0.1925259242231557 0  -1.545245463188541 0.1483161107687358 0  -1.557076910105751 0.1016425718900352 0  -1.549764369820951 0.05373538904012681 0  -1.554337712599134 0.007535340405048903 0  -1.553456823482974 -0.03839565108080683 0  -1.555506318330659 -0.08431184565374274 0  -1.552748804897412 -0.1307398882903856 0  -1.558016856620298 -0.1791121134146625 0  -1.548375608942069 -0.2262182581081987 0  -1.535405845232496 -0.2711533473556172 0  -1.534915202644544 -0.3264167437636196 0  -1.517503354909073 -0.3742127344066428 0  -1.501270945086037 -0.4240126507709295 0  -1.478141170120738 -0.47052744632565 0  -1.452496435193011 -0.515560498147778 0  -1.420482904164579 -0.5572438069492417 0  -1.396058203958926 -0.6038873291009165 0  -1.360606736349735 -0.6408495185826572 0  -1.326139066520806 -0.6747563366577581 0  -1.291095353271898 -0.7113796404737313 0  -1.255977598630351 -0.7469754974954068 0  -1.220680568910088 -0.7845774801543332 0  -1.184188458675373 -0.8214717878054921 0  -1.147048119870404 -0.8590339613242437 0  -1.108636473248199 -0.8955211933747255 0  -1.069516412036737 -0.9320047288276073 0  -1.031159051934193 -0.974248909739866 0  -0.9890699923228526 -1.011436920744585 0  -0.9466197936237243 -1.049608561777192 0  -0.9026656500749168 -1.086746623505713 0  -0.8576171833167618 -1.123477673102236 0  -0.8111384301724468 -1.159171362123457 0  -0.763211503630201 -1.193343757581826 0  -0.7139000947544961 -1.226322813567862 0  -0.6641673026390178 -1.260447108321707 0  -0.611898338175525 -1.290332965351812 0  -0.5590305328891765 -1.319093820853218 0  -0.5047468438715833 -1.34536025964962 0  -0.4494314274872063 -1.369435314491344 0  -0.3931810470546455 -1.391145482687958 0  -0.3355908851784654 -1.409278838241091 0  -0.2774532309387411 -1.424488921503734 0  -0.2186430825159487 -1.437465220862388 0  -0.1592107472842669 -1.447207235219799 0  -0.09936663515116326 -1.45404221998121 0  -0.03922841853078803 -1.457717725275693 0  0.02102872757128998 -1.45828638679281 0  0.08124655816596445 -1.45564869485381 0  0.1412557768180336 -1.449817468679161 0  0.2008332089737901 -1.441007141003869 0  0.2599107216508028 -1.429511846872235 0  0.3183506128707126 -1.415290341521497 0  0.376075257362226 -1.39856336497714 0  0.4329213754247433 -1.379288105199494 0  0.4889346704573499 -1.358030324537568 0  0.5438319462443616 -1.334178939972392 0  0.5977305376158456 -1.309355393526222 0  0.6508986157711767 -1.28252428016499 0  0.7025089288582455 -1.253150146003032 0  0.7530835399635852 -1.222534307402258 0  0.8024940283794306 -1.19070846809441 0  0.8507126406757721 -1.157717816831859 0  0.8978578441546239 -1.123999110621601 0  0.9438932230250713 -1.089500445982451 0  0.9885910674970415 -1.054678752572922 0  1.032639370156725 -1.018350446034802 0  1.075131477432029 -0.9807220393730874 0  1.11606423985928 -0.942188464282166 0  1.156104307656284 -0.9036787439243394 0  1.194802594983377 -0.8642045731780151 0  1.232963863626264 -0.8257227637770796 0  1.268778657281851 -0.7836152604888895 0  1.30462351678256 -0.7465382838088389 0  1.340551223953893 -0.708354292335149 0  1.374406904816426 -0.668255729845077 0  1.40682309227901 -0.6273103960435016 0  1.437665572951046 -0.5856482787572334 0  1.466484070420596 -0.5426780660873245 0  1.494708429987099 -0.5001277901062499 0  1.517659294905303 -0.4532635369789931 0  1.542614491634123 -0.4111580728258962 0  1.566215422169909 -0.3673877950701552 0  1.584072686577445 -0.320990587142105 0  1.600322146001123 -0.274480793105945 0  1.613164869724837 -0.227315174539316 0  1.623523337309761 -0.1800231521276606 0  1.630899260448884 -0.1325358509410076 0  1.636411209749802 -0.08522129634309306 0  -0.08076929982341557 0.8002875764991254 0  0.618798411810681 -0.719196064044673 0  -0.7273286058461513 -0.6295169256907186 0  -0.05688125034991009 -0.8905130130747061 0  0.6145056049425742 0.6235769695935149 0  1.166784070334192 0.2040479226184354 0  -0.739907950370163 0.5297961712848696 0  -1.210059627921967 -0.04314998537654355 0  1.171007423568046 -0.2864104110605239 0  -1.015681412351386 -0.4548896939368507 0  -0.7765339513488725 -0.0579834405300426 0  -0.4558044551689383 -0.2323171124128814 0  -1.026240655236653 0.3496487398869982 0  0.2990939679356988 -0.8676567662647232 0  0.1542324917898941 -0.2931585716166062 0  0.2625683311801165 0.7619109428374137 0  0.3546966547472297 0.2036677465694083 0  0.6694639437945926 -0.04231387887288726 0  -0.3919072774179884 -0.7828286006032761 0  -0.4286860824684355 0.7053426343916714 0  -0.2559345163846065 0.2597054026287352 0  0.9245169243509619 -0.4925250487834321 0  0.9203312557646217 0.4062943663436343 0  0.4224623775935276 -0.324096662076703 0  0.04760237903341766 0.2551321898503653 0  -0.519147716986733 0.1986567255513313 0  -0.1536577251316021 -0.2855126435141563 0  0.9529296043008868 -0.04191867979539531 0  1.360202775725446 -0.03956080262894079 0  0.771989333091805 -0.602971287751105 0  0.7882442036656769 -0.2768873527000617 0  0.6347142382541163 -0.3776356823557618 0  0.5446175985262371 -0.1793117373942298 0  0.5147516763264984 -0.5268604047351999 0  0.9316062325975545 -0.2656348707035198 0  0.810520595594308 -0.04209378825539428 0  -0.8929600664728041 0.1551346248750012 0  -1.113688921136655 0.1492087892012046 0  -0.9953734506154618 -0.04966039547056314 0  -0.8875725133159622 -0.2651127736379268 0  -1.108932175238572 -0.2441046703406097 0  -1.283729654866654 -0.3364875005968532 0  -1.371405417002339 -0.1527160394131594 0  -1.369381434195196 0.07043631302218305 0  -1.279309702039641 0.2529139397356322 0  -0.105860412895244 -0.5876467418681462 0  -0.2660710238793509 -0.5401121995858585 0  -0.2257223518784098 -0.8420450087190972 0  -0.3041914785469038 -0.2600055542639113 0  -0.4201284100383507 -0.5051935450802255 0  -1.202465030846983 -0.5337042923309339 0  -1.203961318707758 0.4418979722399463 0  0.3596104013995474 -0.593411553721268 0  0.2875563809156212 -0.3102427759166269 0  0.2211246748542207 -0.5834098486127697 0  -0.8825055531344179 0.4355327181251922 0  -0.7487302939127631 0.2337817817745586 0  1.354515666115427 -0.3593875245624523 0  1.226050822923943 -0.5243647967419884 0  1.219283502195605 0.4418100541267387 0  1.349047471041803 0.2793150912200341 0  -0.7328689735808562 -0.9129293267603937 0  -0.9074570533146727 -0.7778132314608628 0  -0.9104469897224401 0.6856046877213141 0  -0.7363935235496796 0.8140815123739379 0  0.7904360109164202 -0.9016678838007293 0  0.6010810215031451 -1.014607282469563 0  0.5942731796306866 0.9152185186887555 0  0.7830530399693268 0.8079190066348565 0  0.031538499339977
[...]
<PointData  Vectors="f_45"> 
<DataArray  type="Float64"  Name="f_45"  NumberOfComponents="3" format="ascii">2.2378767877849493e-01 4.8558939908749906e-03 0.0000000000000000e+00  2.1813861559843911e-01 4.9961938746609112e-02 0.0000000000000000e+00  2.1284964021991157e-01 6.9616306223136720e-02 0.0000000000000000e+00  2.0484064450782305e-01 8.8804018562447268e-02 0.0000000000000000e+00  1.9499641926763672e-01 1.1079264340633113e-01 0.0000000000000000e+00  1.7837923356671154e-01 1.3376570002821717e-01 0.0000000000000000e+00  1.6857822015658819e-01 1.4855344185592345e-01 0.0000000000000000e+00  1.4264189235888150e-01 1.7078958743236869e-01 0.0000000000000000e+00  9.8678084707671906e-02 2.0249679987800029e-01 0.0000000000000000e+00  1.2524674117003667e-01 1.8473847295840742e-01 0.0000000000000000e+00  1.1107612410091036e-01 1.9156545943912259e-01 0.0000000000000000e+00  7.4748060635175223e-02 2.1231941776886595e-01 0.0000000000000000e+00  7.3374013807711802e-02 2.1063211806921769e-01 0.0000000000000000e+00  5.1364681527848413e-02 2.1797043188830478e-01 0.0000000000000000e+00  3.9621965662552994e-02 2.2005926080034766e-01 0.0000000000000000e+00  2.0639897432414241e-02 2.2266666423403164e-01 0.0000000000000000e+00  -2.2531394059900700e-03 2.2396308054725761e-01 0.0000000000000000e+00  1.8344137196796093e-02 2.2254407188548064e-01 0.0000000000000000e+00  1.3668927496230837e-02 2.2252633730005961e-01 0.0000000000000000e+00  -8.0424437829594176e-03 2.2390208794425176e-01 0.0000000000000000e+00  -8.4232858593651875e-03 2.2321460448149399e-01 0.0000000000000000e+00  -1.9756219135618574e-02 2.2288407387487050e-01 0.0000000000000000e+00  -2.6655929859520894e-02 2.2196278149347398e-01 0.0000000000000000e+00  -4.3609509197681307e-02 2.1939840249774431e-01 0.0000000000000000e+00  -5.7500212479076211e-02 2.1609385949019277e-01 0.0000000000000000e+00  -6.7307746601447047e-02 2.1328186972207588e-01 0.0000000000000000e+00  -7.6375756402711742e-02 2.1014703154514114e-01 0.0000000000000000e+00  -8.5449383893614797e-02 2.0668908333606789e-01 0.0000000000000000e+00  -9.5486104315966616e-02 2.0219727748659577e-01 0.0000000000000000e+00  -1.0728389635842656e-01 1.9622861400220884e-01 0.0000000000000000e+00  -1.1764076177228694e-01 1.9022927748329821e-01 0.0000000000000000e+00  -1.3116702238318265e-01 1.8112786090013083e-01 0.0000000000000000e+00  -1.4545456560258932e-01 1.6988490523696620e-01 0.0000000000000000e+00  -1.5519736249687557e-01 1.6110871018891490e-01 0.0000000000000000e+00  -1.6656129119825860e-01 1.4915891312644269e-01 0.0000000000000000e+00  -1.7859669479851439e-01 1.3475421697166640e-01 0.0000000000000000e+00  -1.8856876747435974e-01 1.2022879075321362e-01 0.0000000000000000e+00  -1.9846554429748933e-01 1.0317607822986923e-01 0.0000000000000000e+00  -2.0645805526030117e-01 8.6124821244766447e-02 0.0000000000000000e+00  -2.1367155217448403e-01 6.6117871362066413e-02 0.0000000000000000e+00  -2.1917390715341059e-01 4.4707229972328365e-02 0.0000000000000000e+00  -2.2218954693872750e-01 2.6029619319086230e-02 0.0000000000000000e+00  -2.2357225998411442e-01 5.7159597307308218e-03 0.0000000000000000e+00  -2.2316711023219729e-01 -1.5910805321288777e-02 0.0000000000000000e+00  -2.2055485319398066e-01 -3.7069985294995403e-02 0.0000000000000000e+00  -2.1617385555244942e-01 -5.7712824453766756e-02 0.0000000000000000e+00  -2.0933598526550259e-01 -7.8668768133124817e-02 0.0000000000000000e+00  -2.0131509370300438e-01 -9.7594319035615648e-02 0.0000000000000000e+00  -1.9241539512046890e-01 -1.1405810443458074e-01 0.0000000000000000e+00  -1.7986173360039148e-01 -1.3297673252818334e-01 0.0000000000000000e+00  -1.6606664511294739e-01 -1.4983366224937641e-01 0.0000000000000000e+00  -1.5424536550319060e-01 -1.6207032188099965e-01 0.0000000000000000e+00  -1.3934475733594931e-01 -1.7478004684654075e-01 0.0000000000000000e+00  -1.2814449000358794e-01 -1.8352544763950235e-01 0.0000000000000000e+00  -1.1298324964403628e-01 -1.9275877500829894e-01 0.0000000000000000e+00  -1.0031921842013995e-01 -1.9999887436729882e-01 0.0000000000000000e+00  -9.4418662993386276e-02 -2.0272128682166141e-01 0.0000000000000000e+00  -7.6129923408802994e-02 -2.1027709830548466e-01 0.0000000000000000e+00  -5.8721808832402425e-02 -2.1578565352151627e-01 0.0000000000000000e+00  -5.2378896648190183e-02 -2.1754658110298333e-01 0.0000000000000000e+00  -3.7406232653269915e-02 -2.2018684636093086e-01 0.0000000000000000e+00  -3.7830127462171868e-02 -2.2099414499997955e-01 0.0000000000000000e+00  -1.2536676660190907e-02 -2.2227123350595168e-01 0.0000000000000000e+00  -2.8321571190952429e-03 -2.2345781669879131e-01 0.0000000000000000e+00  -2.6758538372755103e-02 -2.2240364875593049e-01 0.0000000000000000e+00  -7.8630893005877025e-03 -2.2334543063535206e-01 0.0000000000000000e+00  -2.7687853163861297e-03 -2.2369838397221492e-01 0.0000000000000000e+00  5.9738623631501939e-03 -2.2343651281298055e-01 0.0000000000000000e+00  7.2950089042973726e-03 -2.2332562187506347e-01 0.0000000000000000e+00  7.4566142510483395e-03 -2.2399411949657055e-01 0.0000000000000000e+00  6.6892504111951551e-03 -2.2136940055855647e-01 0.0000000000000000e+00  -2.0998614748582122e-02 -2.3102533168250325e-01 0.0000000000000000e+00  8.9487025497007849e-02 -1.9555525006444552e-01 0.0000000000000000e+00  9.7565670848867456e-02 -1.9720286036141832e-01 0.0000000000000000e+00  6.5597677192497247e-02 -2.1164085823910564e-01 0.0000000000000000e+00  1.2880596645230549e-01 -1.8912501123751344e-01 0.0000000000000000e+00  1.5950102550523626e-01 -1.4835551063078264e-01 0.0000000000000000e+00  1.6723050607505777e-01 -1.6233146972579743e-01 0.0000000000000000e+00  1.9743594404536904e-01 -6.4066961596244268e-02 0.0000000000000000e+00  2.1021047533695958e-01 -3.9793699741286069e-02 0.0000000000000000e+00  1.7670986147661200e-01 -1.7262400032738476e-01 0.0000000000000000e+00  2.0917614919537683e-01 7.3273718407996912e-03 0.0000000000000000e+00  2.1670602668625333e-01 2.4918109954944895e-02 0.0000000000000000e+00  2.2197279303654902e-01 -3.2124851096959645e-02 0.0000000000000000e+00  2.2350092313903516e-01 -3.1938244938730705e-03 0.0000000000000000e+00  2.2250266420949877e-01 1.0824175697602374e-02 0.0000000000000000e+00  2.2074961015644021e-01 -1.9542814067321036e-02 0.0000000000000000e+00  2.1560458755412831e-01 -2.4030694413440454e-03 0.0000000000000000e+00  1.8884235143429923e-01 1.4687147740018078e-01 0.0000000000000000e+00  2.1421179864058534e-01 3.5153523503889103e-02 0.0000000000000000e+00  2.0029839371162578e-01 6.0320929096749222e-02 0.0000000000000000e+00  1.7377227054007113e-01 1.5452640685241942e-01 0.0000000000000000e+00  1.6119714056205642e-01 1.4658400344057387e-01 0.0000000000000000e+00  1.2863316295531135e-01 1.8889715004832627e-01 0.0000000000000000e+00  7.1365631929423759e-02 2.0966084241497715e-01 0.0000000000000000e+00  1.0025145076946458e-01 1.9793646253771760e-01 0.0000000000000000e+00  8.2964506233320093e-02 1.9799066931737599e-01 0.0000000000000000e+00  -1.8777865436023253e-02 2.3050350817431900e-01 0.0000000000000000e+00  8.0872233407319992e-03 2.2162826307272893e-01 0.0000000000000000e+00  5.3686681346055906e-03 2.2402232625627025e-01 0.0000000000000000e+00  9.2120856458322922e-03 2.2321724779958260e-01 0.0000000000000000e+00  9.6799318455493572e-03 2.2333900859248912e-01 0.0000000000000000e+00  1.7140578726265474e-03 2.2368982980518345e-01 0.0000000000000000e+00  -1.5062443622764002e-03 2.2345830003552283e-01 0.0000000000000000e+00  -2.2588017969429837e-02 2.2318936670235454e-01 0.0000000000000000e+00  1.0561973408324299e-02 2.2290934421394504e-01 0.0000000000000000e+00  9.8764495235658658e-04 2.2206034813820549e-01 0.0000000000000000e+00  -3.1762480381098759e-02 2.2228007851502149e-01 0.0000000000000000e+00  -2.7239535197055530e-02 2.2159874815367761e-01 0.0000000000000000e+00  -4.2378421332761228e-02 2.1977315473398867e-01 0.0000000000000000e+00  -5.0280490161932395e-02 2.1779877665021707e-01 0.0000000000000000e+00  -6.4726216346761914e-02 2.1420254296362504e-01 0.0000000000000000e+00  -8.2586488780813691e-02 2.0767416587397661e-01 0.0000000000000000e+00  -7.9837475021437246e-02 2.0923049225633486e-01 0.0000000000000000e+00  -9.5381879526201377e-02 2.0137508393070713e-01 0.0000000000000000e+00  -1.2021699774449776e-01 1.8930189705363629e-01 0.0000000000000000e+00  -1.2845904990670223e-01 1.8272349724738771e-01 0.0000000000000000e+00  -1.4669790434070665e-01 1.6900562183138873e-01 0.0000000000000000e+00  -1.5819438356353469e-01 1.5820638578694629e-01 0.0000000000000000e+00  -1.7455092501033018e-01 1.3978180214266189e-01 0.0000000000000000e+00  -1.9029859785048628e-01 1.1766565423888080e-01 0.0000000000000000e+00  -1.9890728730025073e-01 1.0245292169085064e-01 0.0000000000000000e+00  -2.0748714292323639e-01 8.3312943954278226e-02 0.0000000000000000e+00  -2.1539397091456314e-01 6.0745704764789028e-02 0.0000000000000000e+00  -2.2019688066119320e-01 3.9127281027972215e-02 0.0000000000000000e+00  -2.2319119884523772e-01 1.5694305822013005e-02 0.0000000000000000e+00  -2.2356688220520787e-01 -7.5532273002726852e-03 0.0000000000000000e+00  -2.2149326019950089e-01 -3.1478974255051868e-02 0.0000000000000000e+00  -2.1698133243200532e-01 -5.4339426414312185e-02 0.0000000000000000e+00  -2.1096356684523304e-01 -7.4458116315468420e-02 0.0000000000000000e+00  -2.0315217841086600e-01 -9.3511291738111332e-02 0.0000000000000000e+00  -1.9411781519233529e-01 -1.1126089128087237e-01 0.0000000000000000e+00  -1.8308228962354123e-01 -1.2833139070732946e-01 0.0000000000000000e+00  -1.7292683008212095e-01 -1.4206662734754291e-01 0.0000000000000000e+00  -1.5960183231576372e-01 -1.5647101710827493e-01 0.0000000000000000e+00  -1.4836507041598845e-01 -1.6745278560450624e-01 0.0000000000000000e+00  -1.4076712662894433e-01 -1.7382968289416337e-01 0.0000000000000000e+00  -1.2308103766032016e-01 -1.8665133542557030e-01 0.0000000000000000e+00  -1.0799400437306696e-01 -1.9593626426588623e-01 0.0000000000000000e+00  -9.8528228707028681e-02 -2.0072436780436120e-01 0.0000000000000000e+00  -8.6361051580698234e-02 -2.0628279766668539e-01 0.0000000000000000e+00  -7.6513489720157354e-02 -2.1014752852299720e-01 0.0000000000000000e+00  -6.7433516320081932e-02 -2.1319010086126272e-01 0.0000000000000000e+00  -5.8909204386592952e-02 -2.1574645539985821e-01 0.0000000000000000e+00  -4.9403161171680067e-02 -2.1809283516353870e-01 0.0000000000000000e+00  -3.5210799979218749e-02 -2.2089007392803142e-01 0.0000000000000000e+00  -1.8629247045592524e-02 -2.2279017415141025e-01 0.0000000000000000e+00  -1.1969679017704279e-02 -2.2343677104621271e-01 0.0000000000000000e+00  -6.4503626980910131e-05 -2.2337189269819116e-01 0.0000000000000000e+00  -6.5578079776821587e-04 -2.2407588991684232e-01 0.0000000000000000e+00  2.1907215388469733e-02 -2.2179300857237064e-01 0.0000000000000000e+00  2.7017647763631612e-02 -2.2161504400163229e-01 0.0000000000000000e+00  2.6077388235930567e-03 -2.2410359080457457e-01 0.0000000000000000e+00  2.6178106241519356e-02 -2.2197603212203151e-01 0.0000000000000000e+00  4.5954900100164217e-02 -2.1889639816019935e-01 0.0000000000000000e+00  5.6329978202772177e-02 -2.1670108678251215e-01 0.0000000000000000e+00  7.8438957814459406e-02 -2.0882614869273358e-01 0.0000000000000000e+00  8.0313830780947157e-02 -2.1023666765811658e-01 0.0000000000000000e+00  1.1597729681451066e-01 -1.8876004016919479e-01 0.0000000000000000e+00  1.2905370124992685e-01 -1.8202962921348981e-01 0.0000000000000000e+00  1.0361078867860031e-01 -2.0000980383014128e-01 0.0000000000000000e+00  1.4739586679445615e-01 -1.6675345762801874e-01 0.0000000000000000e+00  1.7313872586073267e-01 -1.4319475969170328e-01 0.0000000000000000e+00  1.8267817239393655e-01 -1.2792981700704714e-01 0.0000000000000000e+00  1.9912551584500940e-01 -1.0307908811207737e-01 0.0000000000000000e+00  2.0840979711110419e-01 -8.0321483379040562e-02 0.0000000000000000e+00  2.1580349171795796e-01 -5.9648486587466687e-02 0.0000000000000000e+00  2.2044055768431559e-01 -3.8801745488367977e-02 0.0000000000000000e+00  -2.1831420409783675e-01 -4.9048851855899488e-02 0.0000000000000000e+00  -3.1272857705567723e-02 -2.2165299704696056e-01 0.0000000000000000e+00  3.7748686501681991e-02 2.2060688207866491e-01 0.0000000000000000e+00  -2.2058333812980296e-01 3.7557217362181122e-02 0.0000000000000000e+00  -3.3873934981428898e-02 2.2127571489025125e-01 0.0000000000000000e+00  1.8691891792353904e-01 1.2315031754210189e-01 0.0000000000000000e+00  3.8939488113523664e-02 -2.2041851687843772e-01 0.0000000000000000e+00  2.2392114875076335e-01 -1.1062531762323009e-03 0.0000000000000000e+00  1.9015879235126809e-01 -1.1808523842587508e-01 0.0000000000000000e+00  1.3532531580320994e-01 1.7826303789503062e-01 0.0000000000000000e+00  2.2404325677383324e-01 5.5610876405814361e-03 0.0000000000000000e+00  1.7007930587459513e-01 1.4637727921217319e-01 0.0000000000000000e+00  1.3950573135290245e-01 -1.7502233403971562e-01 0.0000000000000000e+00  -1.7370646314550875e-01 -1.4105431649120173e-01 0.0000000000000000e+00  -7.2878050292018062e-02 -2.1439202245325617e-01 0.0000000000000000e+00  -1.8401586124335570e-01 1.2731703406660028e-01 0.0000000000000000e+00  9.0527673723418953e-02 2.0570702121730067e-01 0.0000000000000000e+00  2.2455334428305004e-01 2.3669704090837642e-03 0.0000000000000000e+00  -1.1791853063431847e-01 1.9019975260525479e-01 0.0000000000000000e+00  -1.1149983610656694e-01 -1.9402670777378661e-01 0.0000000000000000e+00  -2.5978355394801296e-03 -2.2490113156852762e-01 0.0000000000000000e+00  1.1396685694957390e-01 -1.9265361228188360e-01 0.0000000000000000e+00  1.0943379545022133e-01 1.9526646478813531e-01 0.0000000000000000e+00  9.6105629610370599e-02 -2.0275496727842224e-01 0.0000000000000000e+00  -2.1379396326794986e-01 7.0609525282117142e-02 0.0000000000000000e+00  1.4744823502902796e-01 -1.6877375292980487e-01 0.0000000000000000e+00  -3.4255346925633708e-02 2.2320973450609816e-01 0.0000000000000000e+00  2.2385166969965969e-01 2.6227525888868693e-03 0.0000000000000000e+00  2.2378735216160769e-01 3.7522598327450365e-03 0.0000000000000000e+00  5.0503042213015222e-02 -2.1812086322650856e-01 0.0000000000000000e+00  1.8253968474183507e-01 -1.2998872119216540e-01 0.0000000000000000e+00  1.2400863513758754e-01 -1.8689050407925173e-01 0.0000000000000000e+00  1.9851100341480293e-01 -1.0489971743177395e-01 0.0000000000000000e+00  1.3725730779414500e-02 -2.2369653388629901e-01 0.0000000000000000e+00  1.9232196038605653e-01 -1.1459441327015968e-01 0.0000000000000000e+00  2.2403193057071746e-01 2.4966243074135350e-03 0.0000000000000000e+00  1.9641299494117792e-01 -1.0756411049918321e-01 0.0000000000000000e+00  2.0263507657970645e-01 -9.5251353658859894e-02 0.0000000000000000e+00  2.2386188010800806e-01 1.2777304147944307e-03 0.0000000000000000e+00  1.9267748101807081e-01 1.1410859100053923e-01 0.0000000000000000e+00  2.0202522961582242e-01 9.6557703979426215e-02 0.0000000000000000e+00  1.8170353992432930e-01 1.3097781076943585e-01 0.0000000000000000e+00  2.1966223277981070e-01 4.2603334748852049e-02 0.0000000000000000e+00  2.1916479071756104e-01 -4.4981043383014771e-02 0.0000000000000000e+00  1.8009270634893579e-01 -1.3317478017563927e-01 0.0000000000000000e+00  -2.0058579437093610e-01 9.9573593871300867e-02 0.0000000000000000e+00  -1.0508056231521745e-01 1.9788055726721723e-01 0.0000000000000000e+00  -1.8503454694192004e-01 1.2583266610394198e-01 0.0000000000000000e+00  1.0888508131788613e-01 1.9696660565550650e-01 0.0000000000000000e+00  -4.5416143443763064e-03 2.2399413866126458e-01 0.0000000000000000e+00  1.0367413084453458e-01 1.9845073022328907e-01 0.0000000000000000e+00  1.0463233300944906e-01 -1.9795093613982415e-01 0.0000000000000000e+00  -8.8058945987281118e-02 -2.0594256090227722e-01 0.0000000000000000e+00  3.8777158601082752e-02 -2.2175018837593632e-01 0.0000000000000000e+00  -1.5829368260977719e-01 -1.5854056443718589e-01 0.0000000000000000e+00  9.7294083384772190e-02 -2.0158413130453021e-01 0.0000000000000000e+00  1.6334983615531432e-01 -1.5337499776528105e-01 0.0000000000000000e+00  1.6525981865931649e-01 -1.5093283473432487e-01 0.0000000000000000e+00  1.1010658553223168e-01 -1.9483069087618149e-01 0.0000000000000000e+00  1.0471445935403799e-01 1.9778130056486748e-01 0.0000000000000000e+00  1.6085776891975917e-01 1.5561081240007352e-01 0.0000000000000000e+00  -4.4468732315960338e-02 2.1922142245819332e-01 0.0000000000000000e+00  1.6576363643977011e-02 2.2306565370798820e-01 0.0000000000000000e+00  1.1595185213122885e-02 -2.2339562555202183e-01 0.0000000000000000e+00  -4.9112719305326430e-02 -2.1823679165392315e-01 0.0000000000000000e+00  -4.2649770530018727e-02 -2.1960176578911450e-01 0.0000000000000000e+00  -1.0764381892087051e-01 -1.9609210488548975e-01 0.0000000000000000e+00  -1.1252493548260158e-01 1.9334002245470500e-01 0.0000000000000000e+00  -4.8609690457212834e-02 2.1836457424211120e-01 0.0000000000000000e+00  -2.2354150812610687e-01 -9.1661298847100121e-03 0.0000000000000000e+00  -2.0905954172697949e-01 7.9668286611962832e-02 0.0000000000000000e+00  -2.0803952017895316e-01 -8.2282219712080273e-02 0.0000000000000000e+00  -2.2370020383112116e-01 2.8038103340745999e-03 0.0000000000000000e+00  -1.0685431114209985e-01 -1.9662732806819511e-01 0.0000000000000000e+00  2.0047042428948178e-01 1.0145277610947649e-01 0.0000000000000000e+00  1.2206227329472724e-01 1.8816102947646057e-01 0.0000000000000000e+00  5.5863605919023495e-03 2.2410485734224700e-01 0.0000000000000000e+00  8.8342216181914096e-02 2.0590635615421191e-01 0.0000000000000000e+00  2.1423410262561629e-01 6.6049918012395223e-02 0.0000000000000000e+00  1.5949679013920567e-01 1.5733831874962631e-01 0.0000000000000000e+00  -4.3977846524864209e-02 2.2083870756360693e-01 0.0000000000000000e+00  2.1576767185522094e-01 9.4463673629669911e-02 0.0000000000000000e+00  2.2688706328651351e-01 5.2329728414003233e-03 0.0000000000000000e+00  5.2296679338986379e-02 2.1751150299055147e-01 0.0000000000000000e+00  5.0732739893440494e-02 -2.1790034116828480e-01 0.0000000000000000e+00  9.4859796294320606e-02 2.0271445046293465e-01 0.0000000000000000e+00  1.7979618269247530e-01 1.3374873563098791e-01 0.0000000000000000e+00  4.6643879938939502e-02 2.1898128756611696e-01 0.0000000000000000e+00  1.8972181423601175e-01 1.1884974967566997e-01 0.0000000000000000e+00  -1.0840938077825944e-01 1.9603421117999073e-01 0.0000000000000000e+00  -1.1423124173058030e-01 1.9245197574242598e-01 0.0000000000000000e+00  -2.2098029864055152e-01 -3.6509611466946493e-02 0.0000000000000000e+00  -2.1592313458871926e-01 -5.8738454296409025e-02 0.0000000000000000e+00  -8.3974458552940501e-02 -2.0765780332750755e-01 0.0000000000000000e+00  -1.7938499885134218e-01 -1.3410243176643119e-01 0.0000000000000000e+00  -1.7855986482498198e-01 -1.3488906605513015e-01 0.0000000000000000e+00  2.2427237455095225e-01 -1.9457151363567984e-02 0.0000000000000000e+00  -2.2151781049889954e-01 3.9788322936454214e-02 0.0000000000000000e+00  -1.6002613853520287e-01 -1.5631297553380649e-01 0.0000000000000000e+00  -2.0597584983155601e-01 -8.7316728390873982e-02 0.0000000000000000e+00  -2.0992906670905762e-01 7.7313281678541970e-02 0.0000000000000000e+00  -1.6774462905067464e-01 1.4800930027101286e-01 0.0000000000000000e+00  2.3650897264250489e-01 -6.8044118576337992e-02 0.0000000000000000e+00  -1.9473955894664435e-01 1.1053462363432483e-01 0.0000000000000000e+00  -2.1958465973405247e-01 4.2961747363097436e-02 0.0000000000000000e+00  -1.6904433654479312e-01 1.4653753475904624e-01 0.0000000000000000e+00  -1.0492833544669511e-01 1.9756203286702909e-01 0.0000000000000000e+00  -3.5586066582135083e-02 2.2094976816128384e-01 0.0000000000000000e+00  -1.0686482819979314e-01 -1.9652150174039645e-01 0.0000000000000000e+00  -1.6788976364441163e-01 -1.4785223624700461e-01 0.0000000000000000e+00  -3.3148330127254579e-02 -2.2132793505090295e-01 0.0000000000000000e+00  2.1016916220234855e-01 -7.7855616497595106e-02 0.0000000000000000e+00  8.34978240