<?xml version="1.0"?>
<VTKFile type="UnstructuredGrid"  version="0.1"  >
<UnstructuredGrid>
<Piece  NumberOfPoints="2549" NumberOfCells="4928">
<Points>
<DataArray  type="Float64"  NumberOfComponents="3"  format="ascii">1.638395186688465 -0.03760572581778322 0  1.635320066911354 0.009953603306742208 0  1.628591858549798 0.05701194042686787 0  1.620279694223028 0.1041945715429785 0  1.608960289641512 0.1510444260643751 0  1.595390489745196 0.1977544345668192 0  1.578454004081369 0.2437788236278848 0  1.560034975710619 0.2896428785710868 0  1.535951089933816 0.3329039176126501 0  1.510626329169422 0.3745790383476881 0  1.487315720054348 0.420863487010813 0  1.458661359766692 0.4628053720963587 0  1.429497704488622 0.5051630399985524 0  1.398333757061342 0.5462131152836422 0  1.365609716221137 0.5865436617971004 0  1.331378794786258 0.625859987644229 0  1.295269748212315 0.6634869402039012 0  1.259083060998683 0.6997906035443875 0  1.222823575285846 0.7407039962391416 0  1.184409446280292 0.7781968200247146 0  1.145430691677376 0.8165474450524739 0  1.105150541332521 0.8538995479072927 0  1.064039793292973 0.8912808362826242 0  1.02138415529538 0.9276362159326648 0  0.9772307297603126 0.9626833883298974 0  0.9324510624519866 0.9962197161967898 0  0.8863677818537722 1.029313364111791 0  0.8392266508977673 1.061519581616407 0  0.7910860891182657 1.092955494533121 0  0.7417965011571549 1.123140509901857 0  0.6914474341129569 1.152097822960188 0  0.6400485796954631 1.179632581929702 0  0.587408256388576 1.205116321547272 0  0.5339124894014903 1.228726312145492 0  0.4794876156210939 1.250841215815237 0  0.4240843978249797 1.270607127217726 0  0.3678914229204759 1.288270792805089 0  0.3109296655187118 1.303514606478691 0  0.2533140802682905 1.31631338375744 0  0.1951668076853341 1.326582732146948 0  0.1365155905370923 1.333932984133169 0  0.07765957737460082 1.338586891122735 0  0.01860785394206569 1.340751844906716 0  -0.04047425369159981 1.34004100202842 0  -0.09947082198365106 1.33656138864346 0  -0.1582240422700138 1.330224096412337 0  -0.2166099628651436 1.321152445709052 0  -0.2744661576353207 1.309169754566333 0  -0.3316866316635476 1.294813507205047 0  -0.388274876669592 1.277789957326179 0  -0.443844350100692 1.257898811551381 0  -0.4984627923895664 1.23565317382712 0  -0.5520888065240569 1.211365394026348 0  -0.6044936480753516 1.184845866479052 0  -0.6559901515163785 1.157019204814221 0  -0.706014552307566 1.126836795485157 0  -0.7549266093757828 1.096378090230013 0  -0.8030322101634896 1.064319400351039 0  -0.8493855895689004 1.030201985002305 0  -0.8944503962555905 0.9950867541428488 0  -0.9384787656764074 0.9595557861232763 0  -0.9810172824863775 0.9228408960108189 0  -1.023053461601088 0.8868562862856904 0  -1.062253323131976 0.8469376728577819 0  -1.101478741851652 0.8113193566116997 0  -1.140194351395021 0.7755601678376753 0  -1.177570726185062 0.7386144720056316 0  -1.214269153127498 0.7022039617041336 0  -1.249705211545083 0.6649361232877125 0  -1.284776791719509 0.6294210730901765 0  -1.319609427935447 0.5927104517009537 0  -1.354188684088743 0.5592835898381856 0  -1.389212621461242 0.5223487152545933 0  -1.412985798318172 0.4755868192675583 0  -1.445925818122448 0.4341666835880825 0  -1.471574529798213 0.3893621214224204 0  -1.494809412596094 0.3430856458688223 0  -1.511401476039157 0.2939883815657687 0  -1.52989253963511 0.2468965319634149 0  -1.5304397113843 0.1925259242231512 0  -1.545245463188476 0.148316110768733 0  -1.557076910105687 0.1016425718900335 0  -1.549764369820885 0.05373538904012656 0  -1.554337712599069 0.007535340405049715 0  -1.553456823482909 -0.03839565108080505 0  -1.555506318330594 -0.08431184565373995 0  -1.552748804897346 -0.1307398882903817 0  -1.558016856620234 -0.1791121134146573 0  -1.548375608942004 -0.2262182581081924 0  -1.53540584523243 -0.2711533473556095 0  -1.534915202644481 -0.3264167437636107 0  -1.51750335490901 -0.3742127344066326 0  -1.501270945085976 -0.4240126507709182 0  -1.478141170120679 -0.4705274463256384 0  -1.452496435192952 -0.5155604981477646 0  -1.420482904164521 -0.5572438069492284 0  -1.396058203958876 -0.6038873291009059 0  -1.360606736349686 -0.6408495185826459 0  -1.326139066520761 -0.6747563366577487 0  -1.291095353271856 -0.7113796404737244 0  -1.255977598630313 -0.7469754974954018 0  -1.220680568910053 -0.7845774801543304 0  -1.184188458675341 -0.8214717878054915 0  -1.147048119870375 -0.8590339613242455 0  -1.108636473248172 -0.8955211933747294 0  -1.069516412036711 -0.9320047288276122 0  -1.031159051934171 -0.9742489097398753 0  -0.9890699923228317 -1.011436920744596 0  -0.946619793623705 -1.049608561777204 0  -0.9026656500748991 -1.086746623505727 0  -0.857617183316746 -1.123477673102252 0  -0.8111384301724324 -1.159171362123476 0  -0.7632115036301877 -1.193343757581848 0  -0.7139000947544832 -1.226322813567885 0  -0.6641673026390071 -1.260447108321734 0  -0.6118983381755143 -1.290332965351839 0  -0.5590305328891667 -1.319093820853248 0  -0.504746843871574 -1.345360259649653 0  -0.4494314274871974 -1.36943531449138 0  -0.393181047054637 -1.391145482687996 0  -0.3355908851784568 -1.409278838241131 0  -0.2774532309387322 -1.424488921503777 0  -0.2186430825159393 -1.437465220862433 0  -0.1592107472842567 -1.447207235219847 0  -0.09936663515115213 -1.454042219981259 0  -0.03922841853077581 -1.457717725275744 0  0.02102872757130339 -1.458286386792861 0  0.08124655816597907 -1.455648694853861 0  0.1412557768180494 -1.449817468679212 0  0.200833208973807 -1.441007141003919 0  0.2599107216508207 -1.429511846872284 0  0.3183506128707314 -1.415290341521545 0  0.3760752573622455 -1.398563364977186 0  0.4329213754247632 -1.379288105199538 0  0.48893467045737 -1.35803032453761 0  0.5438319462443817 -1.334178939972432 0  0.5977305376158654 -1.309355393526259 0  0.650898615771196 -1.282524280165024 0  0.7025089288582639 -1.253150146003063 0  0.7530835399636028 -1.222534307402287 0  0.8024940283794472 -1.190708468094436 0  0.8507126406757873 -1.157717816831883 0  0.8978578441546377 -1.123999110621622 0  0.9438932230250833 -1.089500445982469 0  0.9885910674970516 -1.054678752572937 0  1.032639370156733 -1.018350446034814 0  1.075131477432035 -0.9807220393730971 0  1.116064239859283 -0.9421884642821731 0  1.156104307656285 -0.9036787439243443 0  1.194802594983375 -0.864204573178018 0  1.23296386362626 -0.8257227637770809 0  1.268778657281844 -0.7836152604888886 0  1.30462351678255 -0.7465382838088361 0  1.340551223953881 -0.7083542923351445 0  1.374406904816411 -0.6682557298450712 0  1.406823092278993 -0.6273103960434945 0  1.437665572951026 -0.5856482787572254 0  1.466484070420574 -0.5426780660873159 0  1.494708429987074 -0.500127790106241 0  1.517659294905275 -0.4532635369789838 0  1.542614491634094 -0.411158072825887 0  1.566215422169878 -0.3673877950701461 0  1.584072686577412 -0.3209905871420964 0  1.600322146001089 -0.2744807931059369 0  1.613164869724802 -0.2273151745393087 0  1.623523337309725 -0.1800231521276542 0  1.630899260448847 -0.1325358509410021 0  1.636411209749765 -0.08522129634308849 0  -0.08076929982340128 0.8002875764991654 0  0.6187984118106816 -0.7191960640446925 0  -0.7273286058461184 -0.6295169256907309 0  -0.05688125034989435 -0.8905130130747363 0  0.6145056049425737 0.6235769695935426 0  1.166784070334169 0.204047922618442 0  -0.7399079503701304 0.5297961712848887 0  -1.21005962792191 -0.04314998537654118 0  1.171007423568023 -0.2864104110605231 0  -1.01568141235134 -0.4548896939368535 0  -0.7765339513488301 -0.05798344053003962 0  -0.4558044551689079 -0.2323171124128843 0  -1.026240655236607 0.3496487398870061 0  0.2990939679357084 -0.8676567662647525 0  0.1542324917899033 -0.2931585716166126 0  0.2625683311801249 0.7619109428374519 0  0.3546966547472315 0.2036677465694227 0  0.6694639437945833 -0.04231387887288327 0  -0.3919072774179658 -0.7828286006032984 0  -0.4286860824684139 0.7053426343917027 0  -0.255934516384584 0.2597054026287518 0  0.9245169243509497 -0.4925250487834393 0  0.9203312557646091 0.4062943663436491 0  0.4224623775935279 -0.3240966620767102 0  0.04760237903342993 0.2551321898503826 0  -0.5191477169867011 0.1986567255513436 0  -0.1536577251315824 -0.2855126435141622 0  0.9529296043008681 -0.04191867979539152 0  1.360202775725415 -0.03956080262893714 0  0.7719893330917993 -0.6029712877511181 0  0.7882442036656649 -0.2768873527000649 0  0.6347142382541103 -0.3776356823557696 0  0.5446175985262325 -0.1793117373942309 0  0.5147516763264981 -0.5268604047352142 0  0.9316062325975379 -0.2656348707035214 0  0.8105205955942939 -0.04209378825539039 0  -0.8929600664727587 0.1551346248750084 0  -1.113688921136602 0.1492087892012084 0  -0.9953734506154116 -0.04966039547056036 0  -0.8875725133159169 -0.2651127736379282 0  -1.108932175238519 -0.2441046703406083 0  -1.283729654866596 -0.3364875005968487 0  -1.371405417002277 -0.1527160394131556 0  -1.369381434195134 0.0704363130221833 0  -1.279309702039585 0.2529139397356322 0  -0.1058604128952264 -0.5876467418681645 0  -0.2660710238793286 -0.540112199585874 0  -0.2257223518783909 -0.8420450087191238 0  -0.3041914785468788 -0.2600055542639158 0  -0.4201284100383236 -0.5051935450802384 0  -1.202465030846933 -0.5337042923309315 0  -1.203961318707709 0.4418979722399487 0  0.3596104013995522 -0.5934115537212862 0  0.287556380915626 -0.3102427759166339 0  0.2211246748542292 -0.5834098486127881 0  -0.8825055531343786 0.4355327181252056 0  -0.7487302939127237 0.2337817817745695 0  1.3545156661154 -0.3593875245624484 0  1.226050822923924 -0.5243647967419885 0  1.219283502195586 0.4418100541267463 0  1.349047471041777 0.2793150912200376 0  -0.7328689735808321 -0.9129293267604116 0  -0.9074570533146414 -0.7778132314608736 0  -0.9104469897224098 0.6856046877213312 0  -0.7363935235496568 0.8140815123739634 0  0.7904360109164238 -0.9016678838007498 0  0.6010810215031542 -1.014607282469592 0  0.5942731796306941 0.9152185186887929 0  0.7830530399693293 0.807919006634885 0  0.031538499
[...]
<PointData  Vectors="f_32519"> 
<DataArray  type="Float64"  Name="f_32519"  NumberOfComponents="3" format="ascii">1.0006825864232276e+00 1.0852174711122252e-02 0.0000000000000000e+00  9.9441962712993281e-01 1.1237801166954636e-01 0.0000000000000000e+00  9.8770315454872915e-01 1.5742949959264191e-01 0.0000000000000000e+00  9.7936024303313063e-01 2.0313966808606490e-01 0.0000000000000000e+00  9.6707972245472018e-01 2.5555996395199393e-01 0.0000000000000000e+00  9.4894344532175223e-01 3.1624027001441840e-01 0.0000000000000000e+00  9.3566135581695475e-01 3.5341954355228128e-01 0.0000000000000000e+00  9.0640784486519321e-01 4.2388053522563579e-01 0.0000000000000000e+00  8.4927006258740334e-01 5.3115677787535465e-01 0.0000000000000000e+00  8.8347357312300512e-01 4.6837549685941787e-01 0.0000000000000000e+00  8.6673462743546592e-01 4.9936673575256268e-01 0.0000000000000000e+00  8.1658438208896111e-01 5.7843082792180989e-01 0.0000000000000000e+00  8.1517249829929539e-01 5.7922482054918756e-01 0.0000000000000000e+00  7.8422293502506668e-01 6.2091918084223552e-01 0.0000000000000000e+00  7.6730111354050667e-01 6.4147546277863310e-01 0.0000000000000000e+00  7.3920105322583707e-01 6.7383654188225506e-01 0.0000000000000000e+00  7.0398204829209388e-01 7.1112163719181809e-01 0.0000000000000000e+00  7.3557831742267954e-01 6.7743069932652722e-01 0.0000000000000000e+00  7.2850983445693895e-01 6.8513508182941540e-01 0.0000000000000000e+00  6.9443289562304178e-01 7.1986230926056172e-01 0.0000000000000000e+00  6.9364934963108327e-01 7.2031278502679974e-01 0.0000000000000000e+00  6.7520422557709681e-01 7.3770599342779253e-01 0.0000000000000000e+00  6.6364345935936708e-01 7.4810942257276469e-01 0.0000000000000000e+00  6.3451614994913030e-01 7.7305129412974716e-01 0.0000000000000000e+00  6.0949834836051264e-01 7.9288426246536436e-01 0.0000000000000000e+00  5.9123553158077236e-01 8.0656061480656116e-01 0.0000000000000000e+00  5.7378889384786358e-01 8.1904587031418341e-01 0.0000000000000000e+00  5.5587034774130795e-01 8.3130907963867751e-01 0.0000000000000000e+00  5.3527239302847707e-01 8.4473528070438719e-01 0.0000000000000000e+00  5.1006638840815877e-01 8.6019065648743698e-01 0.0000000000000000e+00  4.8687501758164448e-01 8.7354434022666960e-01 0.0000000000000000e+00  4.5473072725879360e-01 8.9074616658206207e-01 0.0000000000000000e+00  4.1813586267229502e-01 9.0846658424418136e-01 0.0000000000000000e+00  3.9132651654856576e-01 9.2032673043584168e-01 0.0000000000000000e+00  3.5714157777823002e-01 9.3416233956028305e-01 0.0000000000000000e+00  3.1762926666681235e-01 9.4833654631331776e-01 0.0000000000000000e+00  2.8003730539256250e-01 9.6006742126668920e-01 0.0000000000000000e+00  2.3744404982300690e-01 9.7160034690859853e-01 0.0000000000000000e+00  1.9635435901039372e-01 9.8122783487601806e-01 0.0000000000000000e+00  1.4950941824585384e-01 9.8257919276891359e-01 0.0000000000000000e+00  1.0018983218443370e-01 1.0292597140189996e+00 0.0000000000000000e+00  6.0243382662388531e-02 9.0843272888576088e-01 0.0000000000000000e+00  4.4935012999332931e-03 8.3048616373202955e-01 0.0000000000000000e+00  3.4925415358234242e-02 -1.3158750786388287e+00 0.0000000000000000e+00  8.2830510410472305e-02 -9.6510463247313272e-01 0.0000000000000000e+00  1.3020456850293949e-01 -9.8949686960032956e-01 0.0000000000000000e+00  1.7877838835268386e-01 -9.8569124762765592e-01 0.0000000000000000e+00  2.2381734897204683e-01 -9.7437567847496953e-01 0.0000000000000000e+00  2.6439720751404600e-01 -9.6459473069000778e-01 0.0000000000000000e+00  3.1302194588511539e-01 -9.4992603071528381e-01 0.0000000000000000e+00  3.5888733737833745e-01 -9.3351057614801347e-01 0.0000000000000000e+00  3.9412030087957972e-01 -9.1917637106879102e-01 0.0000000000000000e+00  4.3398348301431949e-01 -9.0102805019771548e-01 0.0000000000000000e+00  4.6237116541590700e-01 -8.8677623993779242e-01 0.0000000000000000e+00  4.9719662248851337e-01 -8.6774266542143452e-01 0.0000000000000000e+00  5.2520594051288982e-01 -8.5101096891428829e-01 0.0000000000000000e+00  5.3753191893720054e-01 -8.4333439871868821e-01 0.0000000000000000e+00  5.7434743589897597e-01 -8.1877040379924371e-01 0.0000000000000000e+00  6.0724829804289127e-01 -7.9458165086071864e-01 0.0000000000000000e+00  6.1886531095110775e-01 -7.8556047182415778e-01 0.0000000000000000e+00  6.4518494381706060e-01 -7.6403829714658811e-01 0.0000000000000000e+00  6.4478560889578129e-01 -7.6459684508379433e-01 0.0000000000000000e+00  6.8697060077695138e-01 -7.2684416107706118e-01 0.0000000000000000e+00  7.0265756365693388e-01 -7.1161395318096798e-01 0.0000000000000000e+00  6.6378518710202905e-01 -7.4847555493740903e-01 0.0000000000000000e+00  6.9459144637358483e-01 -7.1947082164625054e-01 0.0000000000000000e+00  7.0277366413062337e-01 -7.1152870573209159e-01 0.0000000000000000e+00  7.1652611100990271e-01 -6.9761964487968131e-01 0.0000000000000000e+00  7.1862709225457677e-01 -6.9552418922722214e-01 0.0000000000000000e+00  7.1890781356946309e-01 -6.9540760213534247e-01 0.0000000000000000e+00  7.1772052039968715e-01 -6.9603375232414233e-01 0.0000000000000000e+00  6.7643462927230913e-01 -7.4421808148448099e-01 0.0000000000000000e+00  8.4228771514341927e-01 -5.4220612582319416e-01 0.0000000000000000e+00  8.4920440638719363e-01 -5.2716265089874836e-01 0.0000000000000000e+00  8.0737339793386420e-01 -5.9400240579621799e-01 0.0000000000000000e+00  8.8510671158052856e-01 -4.6838287835066428e-01 0.0000000000000000e+00  9.3034276024059082e-01 -3.6582087407655089e-01 0.0000000000000000e+00  9.2909106920129458e-01 -3.7942724177268983e-01 0.0000000000000000e+00  9.8903506525222973e-01 -1.5840285582260841e-01 0.0000000000000000e+00  9.9646805862497478e-01 -9.4464776111008703e-02 0.0000000000000000e+00  9.3837307643873347e-01 -3.9546255098796956e-01 0.0000000000000000e+00  1.0046110643065633e+00 1.2932215098271679e-02 0.0000000000000000e+00  9.9897156776780838e-01 5.6946561366048080e-02 0.0000000000000000e+00  9.9833986011955278e-01 -7.2083593240073976e-02 0.0000000000000000e+00  1.0000695929337036e+00 -7.1416857050937074e-03 0.0000000000000000e+00  9.9984768834396831e-01 2.4301449529137195e-02 0.0000000000000000e+00  9.9931580031651990e-01 -4.4185687736864578e-02 0.0000000000000000e+00  1.0035757901364313e+00 -3.2580645516520866e-03 0.0000000000000000e+00  9.5496110422993530e-01 3.3469514478286633e-01 0.0000000000000000e+00  9.9754431509200714e-01 8.1896299824085181e-02 0.0000000000000000e+00  9.9055930910560441e-01 1.4762394859776656e-01 0.0000000000000000e+00  9.3681781817503251e-01 3.5848950352002878e-01 0.0000000000000000e+00  9.3252001807713114e-01 3.6058239365807160e-01 0.0000000000000000e+00  8.8505848268750265e-01 4.6846433026027923e-01 0.0000000000000000e+00  8.1513277310079524e-01 5.8265538108172255e-01 0.0000000000000000e+00  8.5178104065547977e-01 5.2316150734280575e-01 0.0000000000000000e+00  8.3330965196101381e-01 5.5534378945572560e-01 0.0000000000000000e+00  6.7959262239205820e-01 7.4035617792250175e-01 0.0000000000000000e+00  7.1991380757458401e-01 6.9385466409888485e-01 0.0000000000000000e+00  7.1571280437051477e-01 6.9880260258989335e-01 0.0000000000000000e+00  7.2160622500620786e-01 6.9242668834473620e-01 0.0000000000000000e+00  7.2228273195266901e-01 6.9165184642495037e-01 0.0000000000000000e+00  7.0986565649908728e-01 7.0444871577083790e-01 0.0000000000000000e+00  7.0474160917068707e-01 7.0950511951889994e-01 0.0000000000000000e+00  6.7091403468445054e-01 7.4233915941452722e-01 0.0000000000000000e+00  7.2375298426458945e-01 6.9028839093685979e-01 0.0000000000000000e+00  7.0876617684478449e-01 7.0571455868006694e-01 0.0000000000000000e+00  6.5532326898125304e-01 7.5573700688899526e-01 0.0000000000000000e+00  6.6256512063661888e-01 7.4900256215526406e-01 0.0000000000000000e+00  6.3668865593079016e-01 7.7119321995291479e-01 0.0000000000000000e+00  6.2254118695092420e-01 7.8263608312356681e-01 0.0000000000000000e+00  5.9619667404880550e-01 8.0297453975105704e-01 0.0000000000000000e+00  5.6148956730788879e-01 8.2754094528244915e-01 0.0000000000000000e+00  5.6730215206319834e-01 8.2362470523822506e-01 0.0000000000000000e+00  5.3484793428530819e-01 8.4521580215391856e-01 0.0000000000000000e+00  4.8166764881370877e-01 8.7650354112517970e-01 0.0000000000000000e+00  4.6096088768543375e-01 8.8755837289761652e-01 0.0000000000000000e+00  4.1507472640799414e-01 9.0992658495105649e-01 0.0000000000000000e+00  3.8276483463419009e-01 9.2402017867752584e-01 0.0000000000000000e+00  3.3131822887128631e-01 9.4377673017488706e-01 0.0000000000000000e+00  2.7340683669196730e-01 9.6216010809580976e-01 0.0000000000000000e+00  2.3561618556105909e-01 9.7138656101980236e-01 0.0000000000000000e+00  1.8975090678304948e-01 9.8371515232023654e-01 0.0000000000000000e+00  1.3717888202605238e-01 9.9305620163625230e-01 0.0000000000000000e+00  8.7618065485739180e-02 9.3221808102459958e-01 0.0000000000000000e+00  3.2776354011113028e-02 1.4247382029444524e+00 0.0000000000000000e+00  8.8979627051392670e-03 -1.0833620274412474e+00 0.0000000000000000e+00  7.1821345614714843e-02 -9.0266036748535983e-01 0.0000000000000000e+00  1.2233021010111320e-01 -1.0166525400591842e+00 0.0000000000000000e+00  1.6883361718014528e-01 -9.8267272251649140e-01 0.0000000000000000e+00  2.1406176205167388e-01 -9.7697043847597143e-01 0.0000000000000000e+00  2.5733120851415375e-01 -9.6656818308387338e-01 0.0000000000000000e+00  3.0097632850580802e-01 -9.5372165311762447e-01 0.0000000000000000e+00  3.3716898188664285e-01 -9.4156424925434057e-01 0.0000000000000000e+00  3.7814142799966444e-01 -9.2586634285287028e-01 0.0000000000000000e+00  4.1041216715697659e-01 -9.1195274309048135e-01 0.0000000000000000e+00  4.3054405720393746e-01 -9.0266884392583746e-01 0.0000000000000000e+00  4.7414455112569359e-01 -8.8061310230458623e-01 0.0000000000000000e+00  5.0861205028998591e-01 -8.6107873547309854e-01 0.0000000000000000e+00  5.2886926759021169e-01 -8.4875241778229971e-01 0.0000000000000000e+00  5.5402278907918268e-01 -8.3255890593358650e-01 0.0000000000000000e+00  5.7354888549162775e-01 -8.1920829876340306e-01 0.0000000000000000e+00  5.9095732035984361e-01 -8.0673866936888572e-01 0.0000000000000000e+00  6.0690078462307095e-01 -7.9483113154865626e-01 0.0000000000000000e+00  6.2417729323170079e-01 -7.8137934210435434e-01 0.0000000000000000e+00  6.4913717104183766e-01 -7.6080761061239222e-01 0.0000000000000000e+00  6.7703361470162593e-01 -7.3600794807171710e-01 0.0000000000000000e+00  6.8797086053031131e-01 -7.2581747780812467e-01 0.0000000000000000e+00  7.0700388199678932e-01 -7.0720337696176394e-01 0.0000000000000000e+00  7.0621213748161138e-01 -7.0832414515553555e-01 0.0000000000000000e+00  7.4109602075837078e-01 -6.7150642743338362e-01 0.0000000000000000e+00  7.4867723880130677e-01 -6.6294114678007066e-01 0.0000000000000000e+00  7.1170318379904218e-01 -7.0351652911020601e-01 0.0000000000000000e+00  7.4756489300170148e-01 -6.6456058249894645e-01 0.0000000000000000e+00  7.7644639345386934e-01 -6.3035880469239203e-01 0.0000000000000000e+00  7.9128421646267244e-01 -6.1190806797555874e-01 0.0000000000000000e+00  8.2209938786662007e-01 -5.6935958763567540e-01 0.0000000000000000e+00  8.2414618449838661e-01 -5.6758888821882902e-01 0.0000000000000000e+00  8.7302132464795312e-01 -4.8827493652340503e-01 0.0000000000000000e+00  8.8831388905438569e-01 -4.5909642668056116e-01 0.0000000000000000e+00  8.5574130882995147e-01 -5.2071313871532388e-01 0.0000000000000000e+00  9.1228010087514100e-01 -4.1114848314348335e-01 0.0000000000000000e+00  9.4108518963330023e-01 -3.3872587454426584e-01 0.0000000000000000e+00  9.5397827174814276e-01 -3.0078378477852885e-01 0.0000000000000000e+00  9.7189350038850852e-01 -2.3664559931021326e-01 0.0000000000000000e+00  9.8334759397602911e-01 -1.8292139658795989e-01 0.0000000000000000e+00  9.9110948815307809e-01 -1.3445808524905203e-01 0.0000000000000000e+00  9.9689034096665374e-01 -8.7025560563692067e-02 0.0000000000000000e+00  1.0996423043497636e-01 -1.0201459265925237e+00 0.0000000000000000e+00  6.5604008654006818e-01 -7.5509366330349970e-01 0.0000000000000000e+00  7.6459845123892189e-01 6.4487694905905046e-01 0.0000000000000000e+00  8.4808861840169350e-02 8.9050294891478832e-01 0.0000000000000000e+00  6.5160004830670226e-01 7.5893733343926550e-01 0.0000000000000000e+00  9.5813576659757282e-01 2.8725873683287623e-01 0.0000000000000000e+00  7.6634718388114664e-01 -6.4282790002780610e-01 0.0000000000000000e+00  1.0003575950729637e+00 -2.4710377507551288e-03 0.0000000000000000e+00  9.6190698669907837e-01 -2.7436432995232024e-01 0.0000000000000000e+00  8.9594150861442867e-01 4.4471590195820793e-01 0.0000000000000000e+00  1.0005007972390076e+00 1.2413337267389976e-02 0.0000000000000000e+00  9.3839819182326134e-01 3.4821327176148914e-01 0.0000000000000000e+00  9.0114388395747613e-01 -4.3410322479031604e-01 0.0000000000000000e+00  3.3450769347159959e-01 -9.4257435554855218e-01 0.0000000000000000e+00  5.8395230388217667e-01 -8.1587367438580738e-01 0.0000000000000000e+00  2.9808779943136271e-01 9.5480857628599536e-01 0.0000000000000000e+00  8.3861847299415915e-01 5.4716120875178764e-01 0.0000000000000000e+00  1.0010721632552393e+00 5.2731296481468119e-03 0.0000000000000000e+00  4.8645723350790143e-01 8.7395041424107411e-01 0.0000000000000000e+00  5.0097784397729384e-01 -8.6570051326631048e-01 0.0000000000000000e+00  7.0409395895589688e-01 -7.1225381333493409e-01 0.0000000000000000e+00  8.6889835357754430e-01 -4.9554098351812581e-01 0.0000000000000000e+00  8.6304942812352370e-01 5.0566338299772751e-01 0.0000000000000000e+00  8.4585695260642568e-01 -5.3513302286369990e-01 0.0000000000000000e+00  1.6714815321175475e-01 1.1039007054068326e+00 0.0000000000000000e+00  9.1102551630508111e-01 -4.1381934796690517e-01 0.0000000000000000e+00  6.5307577418100238e-01 7.6079767139350873e-01 0.0000000000000000e+00  1.0002965854981656e+00 5.8597616750087162e-03 0.0000000000000000e+00  1.0002194338405102e+00 8.3847909566582869e-03 0.0000000000000000e+00  7.8306414194752794e-01 -6.2246805526289084e-01 0.0000000000000000e+00  9.5304934113169937e-01 -3.0466664427475565e-01 0.0000000000000000e+00  8.8185369410749359e-01 -4.7318135338777395e-01 0.0000000000000000e+00  9.7162333475572449e-01 -2.4095298874457266e-01 0.0000000000000000e+00  7.2887272913668877e-01 -6.8550730160871554e-01 0.0000000000000000e+00  9.6442441813641044e-01 -2.6554055481134470e-01 0.0000000000000000e+00  1.0004940476622102e+00 5.5745644271879410e-03 0.0000000000000000e+00  9.6915617391086728e-01 -2.4800102318845799e-01 0.0000000000000000e+00  9.7629915428227265e-01 -2.1802242967759747e-01 0.0000000000000000e+00  1.0002992168583331e+00 2.8548434115325317e-03 0.0000000000000000e+00  9.6483991931721380e-01 2.6426962635467460e-01 0.0000000000000000e+00  9.7560163383492404e-01 2.2116626608950304e-01 0.0000000000000000e+00  9.5206034728868927e-01 3.0737524335114413e-01 0.0000000000000000e+00  9.9565014869158230e-01 9.5665117186204449e-02 0.0000000000000000e+00  9.9511597314036881e-01 -1.0106681373500009e-01 0.0000000000000000e+00  9.5017018962332600e-01 -3.1315946860171978e-01 0.0000000000000000e+00  2.2872484457732414e-01 9.6851011708079349e-01 0.0000000000000000e+00  5.1553794895805438e-01 8.5747723260908704e-01 0.0000000000000000e+00  2.9424212673635031e-01 9.5610372858778425e-01 0.0000000000000000e+00  8.6279834870650374e-01 5.0887253191608606e-01 0.0000000000000000e+00  7.0026147174174558e-01 7.1459862273998587e-01 0.0000000000000000e+00  8.5558010074318414e-01 5.1832356020076398e-01 0.0000000000000000e+00  8.5683165538048534e-01 -5.1625977665746314e-01 0.0000000000000000e+00  5.5108275436608745e-01 -8.3497842526796773e-01 0.0000000000000000e+00  7.6694677465202099e-01 -6.4443815156825202e-01 0.0000000000000000e+00  3.8323829976491658e-01 -9.2384078829567851e-01 0.0000000000000000e+00  8.4718169966006029e-01 -5.3180284102457709e-01 0.0000000000000000e+00  9.3028421699820674e-01 -3.6828848481669585e-01 0.0000000000000000e+00  9.3253519117725903e-01 -3.6176226214442558e-01 0.0000000000000000e+00  8.6390205195977654e-01 -5.0408973130088697e-01 0.0000000000000000e+00  8.5689826613454245e-01 5.1590632091302147e-01 0.0000000000000000e+00  9.2724419091037424e-01 3.7510586136357338e-01 0.0000000000000000e+00  6.3298929412363281e-01 7.7428139724844380e-01 0.0000000000000000e+00  7.3290664106969694e-01 6.8046472533035995e-01 0.0000000000000000e+00  7.2527929652832468e-01 -6.8861096875287353e-01 0.0000000000000000e+00  6.2474382279104412e-01 -7.8096214084704008e-01 0.0000000000000000e+00  6.3621298965679185e-01 -7.7166200855479772e-01 0.0000000000000000e+00  5.0936230337206734e-01 -8.6067309056975205e-01 0.0000000000000000e+00  4.9854619544420076e-01 8.6699150193569663e-01 0.0000000000000000e+00  6.2565916060783711e-01 7.8025025780123969e-01 0.0000000000000000e+00  1.2761507939079321e-02 -1.2106409667935425e+00 0.0000000000000000e+00  1.8103167064165765e-01 9.8472871929071770e-01 0.0000000000000000e+00  1.8721976677921440e-01 -9.8420123096738110e-01 0.0000000000000000e+00  2.6004096465246604e-04 4.2716032201025889e-01 0.0000000000000000e+00  5.1124267271614343e-01 -8.5968311747150949e-01 0.0000000000000000e+00  9.7388560851856298e-01 2.3241394836785498e-01 0.0000000000000000e+00  8.7938426458869878e-01 4.7774172191763986e-01 0.0000000000000000e+00  7.1633951771600135e-01 6.9868990347254645e-01 0.0000000000000000e+00  8.3538876523506977e-01 5.5060810444927710e-01 0.0000000000000000e+00  9.8950327442673236e-01 1.4908368380328613e-01 0.0000000000000000e+00  9.2564186164160411e-01 3.7972332726822361e-01 0.0000000000000000e+00  6.3549996737439129e-01 7.7430630803543132e-01 0.0000000000000000e+00  9.9409191674177222e-01 1.9768853114638804e-01 0.0000000000000000e+00  1.0037785551013272e+00 1.1557712207214871e-02 0.0000000000000000e+00  7.8551655466811987e-01 6.1903837858891197e-01 0.0000000000000000e+00  7.8329845232470219e-01 -6.2187632880497290e-01 0.0000000000000000e+00  8.4395519796128837e-01 5.3685783525373576e-01 0.0000000000000000e+00  9.4982808157967935e-01 3.1454580753261108e-01 0.0000000000000000e+00  7.7753957945098151e-01 6.2936018195119714e-01 0.0000000000000000e+00  9.6140718534153979e-01 2.7626551014741174e-01 0.0000000000000000e+00  5.0821350077808658e-01 8.6179633732320371e-01 0.0000000000000000e+00  4.9487762483314762e-01 8.6922500343497733e-01 0.0000000000000000e+00  8.4589105902960871e-02 -1.0749482571628846e+00 0.0000000000000000e+00  1.3249547001089479e-01 -1.0039483506648963e+00 0.0000000000000000e+00  5.5931818712015502e-01 -8.2950342181133940e-01 0.0000000000000000e+00  3.1563797723688269e-01 -9.4889509082102363e-01 0.0000000000000000e+00  3.1793825524300073e-01 -9.4830702801539202e-01 0.0000000000000000e+00  1.0008007611111656e+00 -4.3346055118917155e-02 0.0000000000000000e+00  5.1363083418236699e-02 1.0765719224041097e+00 0.0000000000000000e+00  3.7729683488042959e-01 -9.2621357849237440e-01 0.0000000000000000e+00  1.9917330344682274e-01 -9.7989472178503456e-01 0.0000000000000000e+00  1.7554757295686571e-01 9.8566334076728557e-01 0.0000000000000000e+00  3.5370903092692840e-01 9.3548123996146493e-01 0.0000000000000000e+00  1.0152845321068267e+00 -1.1429962015116189e-01 0.0000000000000000e+00  2.5532514640055365e-01 9.6392055052856818e-01 0.0000000000000000e+00  9.5863477258820398e-02 9.7216030520539065e-01 0.0000000000000000e+00  3.4960514709661072e-01 9.3703608389613180e-01 0.0000000000000000e+00  5.1529287849105743e-01 8.5714226887711509e-01 0.0000000000000000e+00  6.4860121117834413e-01 7.6142260884547197e-01 0.0000000000000000e+00  5.1107394555497987e-01 -8.5966236203036817e-01 0.0000000000000000e+00  3.5326460315596392e-01 -9.3565565961515562e-01 0.0000000000000000e+00  6.5278666865761059e-01 -7.5783521019189526e-01 0.0000000000000000e+00  9.8490031453286975e-01 -1.7657286847308651e-01 0.0000000000000000e+00  8.2886082798924843e-01 -5.6027272712746579e-01 0.0000000000000000e+00  1.0003207542372428e+00 9.7043560643904382e-03 0.0000000000000000e+00  9.7269408