<?xml version="1.0"?>
<VTKFile type="UnstructuredGrid"  version="0.1"  >
<UnstructuredGrid>
<Piece  NumberOfPoints="2549" NumberOfCells="4928">
<Points>
<DataArray  type="Float64"  NumberOfComponents="3"  format="ascii">2 0 0  1.996686137018095 0.05754231104100042 0  1.986882897305854 0.1143419787233611 0  1.970975633076588 0.1697461736080849 0  1.949521707683106 0.2232516020504374 0  1.92316148102163 0.2745222750136555 0  1.892542813236142 0.323373506980794 0  1.858271349552875 0.3697389590748243 0  1.820885526891715 0.4136350740557075 0  1.780849258848747 0.4551307277194839 0  1.738554874553317 0.4943245260370203 0  1.694330878507049 0.5313291997757913 0  1.648451186236745 0.5662615752889001 0  1.601144123217999 0.5992364926897525 0  1.552600433702648 0.6303633660965611 0  1.502980077905183 0.659744436395664 0  1.452417851070797 0.6874740696729748 0  1.401027953784824 0.7136386818120056 0  1.348907720609051 0.7383169985313379 0  1.29614058371176 0.7615805254953902 0  1.242798492047359 0.7834940823268561 0  1.188943861023348 0.8041163621228731 0  1.134631154358537 0.8235004771642536 0  1.079908172939354 0.8416944721837589 0  1.024817109964837 0.8587417963397553 0  0.9693954136298085 0.8746817324080646 0  0.9136765221153764 0.8895497755796398 0  0.8576904445844472 0.9033779803145155 0  0.801464266694953 0.9161952615587904 0  0.7450225714102614 0.9280276623152515 0  0.6883877952988928 0.9388985892101885 0  0.6315805321092666 0.9488290192996544 0  0.5746197931158087 0.9578376811025375 0  0.5175232373657314 0.9659412118222429 0  0.4603073510223729 0.9731542969378965 0  0.4029876351072817 0.9794897863110468 0  0.3455787518345055 0.9849587968895583 0  0.2880946601251717 0.9895707992366389 0  0.2305487379218517 0.993333690086398 0  0.1729538938792191 0.9962538520116265 0  0.115322670663361 0.998336201090478 0  0.05766733915096163 0.9995842233142798 0  -1.322274611685462e-09 1 0  -0.05766734179523565 0.9995842232761419 0  -0.1153226733068079 0.9983362010141388 0  -0.1729538991952786 0.996253851780904 0  -0.2305487459060017 0.9933336896231258 0  -0.2880946707711053 0.9895707984617989 0  -0.3455787651340506 0.9849587957230019 0  -0.4029876510566202 0.9794897846705534 0  -0.4603073696092293 0.9731542947399749 0  -0.5175232585755485 0.9659412089813419 0  -0.5746198169315506 0.9578376775306909 0  -0.6315805531144443 0.9488290158041717 0  -0.6883878135015997 0.9388985858736937 0  -0.745022586820829 0.9280276592223424 0  -0.8014642793262121 0.9161952587964145 0  -0.8576904516640802 0.9033779786341188 0  -0.9136765236872437 0.8895497751760147 0  -0.9693954097454738 0.8746817334843007 0  -1.02481710068483 0.8587417991084308 0  -1.07990816384232 0.8416944751016707 0  -1.134631145449371 0.8235004802330488 0  -1.188943852307292 0.8041163653447019 0  -1.242798483530528 0.7834940857042606 0  -1.296140602082296 0.7615805176791459 0  -1.348907765262195 0.7383169781359747 0  -1.401028023999701 0.7136386473502353 0  -1.452417945986507 0.6874740195411637 0  -1.502980204542554 0.659744364271727 0  -1.55260059049229 0.6303632695523657 0  -1.601144308255775 0.5992363690857174 0  -1.648451397199867 0.566261421754521 0  -1.694331058738459 0.5313290560928818 0  -1.738555024805723 0.4943243939263901 0  -1.780849380123489 0.4551306090875966 0  -1.820885620520759 0.4136349710133106 0  -1.858271414561462 0.3697388773931348 0  -1.892542852486391 0.3233734495527862 0  -1.923161498240549 0.2745222448569359 0  -1.949521707638369 0.2232516021481025 0  -1.970975633050448 0.1697461736839625 0  -1.986882897293919 0.1143419787752093 0  -1.99668613701505 0.05754231106741577 0  -2 -2.119381739288827e-14 0  -1.996686137015017 -0.05754231106770592 0  -1.986882897293798 -0.114341978775735 0  -1.970975633050334 -0.1697461736842945 0  -1.949521707638351 -0.2232516021481412 0  -1.923161498240437 -0.2745222448571329 0  -1.892542852486365 -0.3233734495528243 0  -1.858271414561291 -0.36973887739335 0  -1.820885620520727 -0.4136349710133463 0  -1.780849380123318 -0.4551306090877636 0  -1.738555024805688 -0.4943243939264208 0  -1.69433105873832 -0.5313290560929934 0  -1.648451397199832 -0.5662614217545467 0  -1.601144308255667 -0.5992363690857894 0  -1.552600590492252 -0.6303632695523889 0  -1.50298020454247 -0.659744364271775 0  -1.452417945986467 -0.6874740195411845 0  -1.40102802399929 -0.713638647350437 0  -1.348907765261459 -0.7383169781363109 0  -1.296140602081886 -0.7615805176793204 0  -1.242798483530485 -0.7834940857042775 0  -1.188943852307122 -0.8041163653447646 0  -1.134631145449091 -0.8235004802331454 0  -1.079908163842153 -0.8416944751017243 0  -1.02481710068479 -0.8587417991084427 0  -0.9693954097453934 -0.874681733484323 0  -0.9136765236871304 -0.8895497751760438 0  -0.8576904516640044 -0.9033779786341368 0  -0.8014642793261747 -0.9161952587964226 0  -0.7450225868207132 -0.9280276592223656 0  -0.688387813501408 -0.9388985858737288 0  -0.6315805531141928 -0.9488290158042135 0  -0.574619816931241 -0.9578376775307373 0  -0.5175232585753057 -0.9659412089813745 0  -0.4603073696090547 -0.9731542947399956 0  -0.4029876510565167 -0.979489784670564 0  -0.3455787651340186 -0.9849587957230047 0  -0.2880946707710729 -0.9895707984618012 0  -0.2305487459059683 -0.9933336896231277 0  -0.1729538991952446 -0.9962538517809054 0  -0.1153226733067752 -0.9983362010141397 0  -0.05766734179520062 -0.9995842232761424 0  -1.322240462585813e-09 -1 0  0.05766733915099533 -0.9995842233142793 0  0.1153226706633956 -0.998336201090477 0  0.1729538938792597 -0.9962538520116249 0  0.2305487379218985 -0.9933336900863954 0  0.2880946601252248 -0.9895707992366352 0  0.3455787518345641 -0.9849587968895532 0  0.4029876351073326 -0.9794897863110416 0  0.4603073510224157 -0.9731542969378913 0  0.5175232373657652 -0.9659412118222385 0  0.5746197931158308 -0.9578376811025342 0  0.6315805321096187 -0.9488290192995957 0  0.6883877952995736 -0.9388985892100637 0  0.7450225714112517 -0.9280276623150527 0  0.8014642666962468 -0.9161952615585074 0  0.857690444585461 -0.903377980314275 0  0.9136765221161084 -0.8895497755794518 0  0.9693954136301919 -0.8746817324079583 0  1.02481710996487 -0.8587417963397453 0  1.079908172939512 -0.8416944721837082 0  1.134631154358807 -0.8235004771641605 0  1.188943861023504 -0.8041163621228153 0  1.242798492047385 -0.7834940823268459 0  1.296140583712152 -0.7615805254952235 0  1.348907720609768 -0.7383169985310102 0  1.401027953785216 -0.7136386818118133 0  1.452417851070815 -0.6874740696729649 0  1.502980077905247 -0.6597444363956275 0  1.552600433702669 -0.6303633660965483 0  1.601144123218091 -0.5992364926896914 0  1.648451186236767 -0.5662615752888848 0  1.694330878507175 -0.5313291997756912 0  1.738554874553337 -0.4943245260370026 0  1.780849258848903 -0.4551307277193312 0  1.820885526891733 -0.4136350740556869 0  1.858271349553032 -0.3697389590746263 0  1.892542813236154 -0.3233735069807763 0  1.923161481021729 -0.2745222750134805 0  1.949521707683112 -0.223251602050424 0  1.970975633076692 -0.1697461736077827 0  1.986882897305967 -0.11434197872287 0  1.996686137018124 -0.05754231104074863 0  -0.1152904195579733 0.6070198455084121 0  0.7139314807447402 -0.5185554509125195 0  -0.9021804071087454 -0.4712698952622889 0  -0.08853261806707058 -0.5931971952512098 0  0.7139314807447157 0.5185554509125249 0  1.417801984821762 0.2291367688541014 0  -0.9202096744148912 0.4669291729068617 0  -1.545989679638069 -0.002355595176244116 0  1.419175259971926 -0.2295798938383525 0  -1.262514497274744 -0.369291382563445 0  -1.008975443817403 -0.0113108633010534 0  -0.6062327478577832 -0.13746405873719 0  -1.281728968624498 0.3515475904410956 0  0.3284986955774252 -0.5906094157356263 0  0.1737280740022324 -0.1722626988402368 0  0.2893086492827969 0.5872833258737034 0  0.428425950012378 0.185265744956867 0  0.8258750024497795 0.002678618671304442 0  -0.4906311993153011 -0.5380519337330318 0  -0.5319151236343942 0.5610340701502295 0  -0.3492448427637153 0.2242372176230919 0  1.101084670418347 -0.3819430866711396 0  1.10085579138347 0.3827620940547057 0  0.5114738231755741 -0.2037878442320408 0  0.0378548298353058 0.2177192870939484 0  -0.68351177520046 0.1879874044068832 0  -0.2205094860969659 -0.1665034527494929 0  1.17295745818125 0.0006108973493657318 0  1.665541930433108 -2.306912664895724e-05 0  0.907508075581543 -0.4502492687918292 0  0.9634798364340638 -0.1896322339999175 0  0.7699032415972596 -0.2579384161206076 0  0.6686744128126767 -0.100554612780368 0  0.6127026519601571 -0.36117164757228 0  1.137021064299799 -0.190666094660887 0  0.9994162303155147 0.001644758010335187 0  -1.145352206220951 0.1701183635700213 0  -1.413859324131283 0.1745959976324259 0  -1.277482561727735 -0.006833229238648594 0  -1.135744970546073 -0.1903011229322492 0  -1.404252088456406 -0.1858234888698444 0  -1.597220538418949 -0.2843085084653953 0  -1.747755693638209 -0.1128035986621925 0  -1.747755693638219 0.1104480034859294 0  -1.597220538418967 0.2819529132891387 0  -0.154521052082018 -0.3798503240003511 0  -0.3555703427061332 -0.3522776932412622 0  -0.2895819086911859 -0.5656245644921211 0  -0.4133711169773747 -0.1519837557433414 0  -0.5484319735865418 -0.3377579962351108 0  -1.455482947237287 -0.4677764021589958 0  -1.465090182912182 0.4589045060978081 0  0.4199862593764998 -0.3971986299838336 0  0.3426009485889036 -0.1880252715361387 0  0.2511133847898288 -0.3814360572879312 0  -1.100969321519695 0.4092383816739789 0  -0.9645925591161468 0.2278091548029043 0  1.62003039343183 -0.3216074839470194 0  1.43579655552137 -0.4585269817556586 0  1.435109917946279 0.4583054192635382 0  1.619343755856739 0.3213859214549047 0  -0.85182234321746 -0.6937325770293555 0  -1.072489445319615 -0.627381990483283 0  -1.081504078972709 0.6252116293055613 0  -0.8608369768705514 0.6915622158516382 0  0.8693742953548055 -0.6886486236261325 0  0.6442756369302858 -0.738196566007527 0  0.644275636930262 0.7381965660075314 0  0.8693742953547762 0.6886486236261405 0  0.01339502629816219 -0.7957666981708436 0  -0.2170556
[...]
<PointData  Vectors="f_615"> 
<DataArray  type="Float64"  Name="f_615"  NumberOfComponents="3" format="ascii">-2.5062099759677370e-04 -3.7838163858054931e-05 0.0000000000000000e+00  -2.5061935333019496e-04 -4.4686767793641367e-05 0.0000000000000000e+00  -2.4882984941013619e-04 -5.1439123300434526e-05 0.0000000000000000e+00  -2.4358739260255748e-04 -5.7029411325504716e-05 0.0000000000000000e+00  -2.3648253125857377e-04 -6.1459678538209163e-05 0.0000000000000000e+00  -2.2764123808256069e-04 -6.4354109889494911e-05 0.0000000000000000e+00  -2.1805791470822807e-04 -6.5989191310138393e-05 0.0000000000000000e+00  -2.0737509851862749e-04 -6.5984888812943936e-05 0.0000000000000000e+00  -1.9836173136585620e-04 -6.6165710110716784e-05 0.0000000000000000e+00  -1.8909228106253189e-04 -6.6295123165656888e-05 0.0000000000000000e+00  -1.7668594521151490e-04 -6.1116411132437166e-05 0.0000000000000000e+00  -1.6624472929295520e-04 -5.7360004310238188e-05 0.0000000000000000e+00  -1.5562757031629913e-04 -5.2276984199305413e-05 0.0000000000000000e+00  -1.4549081193904960e-04 -4.6928748088020562e-05 0.0000000000000000e+00  -1.3556558874484797e-04 -4.0989972921968328e-05 0.0000000000000000e+00  -1.2570482977641536e-04 -3.4135015531612066e-05 0.0000000000000000e+00  -1.1729157511377855e-04 -2.8478161176696830e-05 0.0000000000000000e+00  -1.0844200672762301e-04 -2.2935843355917579e-05 0.0000000000000000e+00  -9.8373997714348626e-05 -1.2251579732296601e-05 0.0000000000000000e+00  -8.9355291906137812e-05 -2.7909764992895222e-06 0.0000000000000000e+00  -8.0557385611668662e-05 7.7469210122131557e-06 0.0000000000000000e+00  -7.2268526244587898e-05 1.8461694086960817e-05 0.0000000000000000e+00  -6.4384436027261266e-05 2.9628509133816197e-05 0.0000000000000000e+00  -5.6913485322858651e-05 4.1302817495964510e-05 0.0000000000000000e+00  -5.0297420392464536e-05 5.2558749237028356e-05 0.0000000000000000e+00  -4.4142302812695219e-05 6.2647939323052403e-05 0.0000000000000000e+00  -3.8095001199754577e-05 7.4031662615941957e-05 0.0000000000000000e+00  -3.2515339813874321e-05 8.5572235595565477e-05 0.0000000000000000e+00  -2.7431530753915866e-05 9.7139660784141210e-05 0.0000000000000000e+00  -2.2868752285468791e-05 1.0855629470304134e-04 0.0000000000000000e+00  -1.8831724945711920e-05 1.1966631144196464e-04 0.0000000000000000e+00  -1.5300021733884165e-05 1.3042292182973973e-04 0.0000000000000000e+00  -1.2357879383995685e-05 1.4035123377378569e-04 0.0000000000000000e+00  -9.7821854189384129e-06 1.4947711651766172e-04 0.0000000000000000e+00  -7.6200223076511545e-06 1.5833347767371192e-04 0.0000000000000000e+00  -5.8663219329414852e-06 1.6627264034461685e-04 0.0000000000000000e+00  -4.4724439805627454e-06 1.7338468821032326e-04 0.0000000000000000e+00  -3.3911159880389275e-06 1.7957024421407251e-04 0.0000000000000000e+00  -2.5781119606352913e-06 1.8479090196318234e-04 0.0000000000000000e+00  -1.9769565867737631e-06 1.8908057349766665e-04 0.0000000000000000e+00  -1.5835818925681782e-06 1.9216374741006057e-04 0.0000000000000000e+00  -1.2466461417452980e-06 1.9425044703775483e-04 0.0000000000000000e+00  -1.0049520177460573e-06 1.9552621810639019e-04 0.0000000000000000e+00  -7.9857946297721768e-07 1.9570027714919364e-04 0.0000000000000000e+00  -5.8719026437746616e-07 1.9482818856409907e-04 0.0000000000000000e+00  -3.1599272714058969e-07 1.9283085069251115e-04 0.0000000000000000e+00  7.3999926547605527e-08 1.8972962461986747e-04 0.0000000000000000e+00  6.3965544406334974e-07 1.8540160367240264e-04 0.0000000000000000e+00  1.4433437491437987e-06 1.8024105857341444e-04 0.0000000000000000e+00  2.4541567760235637e-06 1.7384934389949721e-04 0.0000000000000000e+00  3.8990462457625145e-06 1.6604669611109733e-04 0.0000000000000000e+00  5.7802302834919110e-06 1.5721079267948501e-04 0.0000000000000000e+00  8.1640726616098088e-06 1.4739239394757770e-04 0.0000000000000000e+00  1.1097823041998598e-05 1.3669642279579816e-04 0.0000000000000000e+00  1.4606970023840719e-05 1.2540387022779413e-04 0.0000000000000000e+00  1.8748466623794828e-05 1.1329747402333077e-04 0.0000000000000000e+00  2.3341622212642851e-05 1.0202484641101368e-04 0.0000000000000000e+00  2.8311739996011581e-05 8.9928025824922425e-05 0.0000000000000000e+00  3.4185428985113029e-05 7.6943473082418778e-05 0.0000000000000000e+00  4.0632234347972465e-05 6.4096714107174548e-05 0.0000000000000000e+00  4.7653860724430300e-05 5.1408470700386471e-05 0.0000000000000000e+00  5.5285093558233396e-05 3.8756500821880996e-05 0.0000000000000000e+00  6.3366623035418276e-05 2.6900410413631235e-05 0.0000000000000000e+00  7.2355847522873545e-05 1.4030736529403430e-05 0.0000000000000000e+00  8.1190482818775317e-05 4.8892799907055560e-06 0.0000000000000000e+00  8.9527073583316996e-05 -2.9897994454119635e-06 0.0000000000000000e+00  9.8664580436830669e-05 -1.1272138239569045e-05 0.0000000000000000e+00  1.0774633580130772e-04 -1.8235519537395771e-05 0.0000000000000000e+00  1.1681147481954027e-04 -2.4201876614484531e-05 0.0000000000000000e+00  1.2538036811155545e-04 -2.8302099866900666e-05 0.0000000000000000e+00  1.3392215462428527e-04 -3.2000660334157463e-05 0.0000000000000000e+00  1.3966732784972252e-04 -3.0282888883308771e-05 0.0000000000000000e+00  1.4624931712025881e-04 -3.2506827295516282e-05 0.0000000000000000e+00  1.5825989178013235e-04 -4.1174356507863821e-05 0.0000000000000000e+00  1.6823469788751429e-04 -4.6031992314347039e-05 0.0000000000000000e+00  1.7991500210294052e-04 -5.1383752593353318e-05 0.0000000000000000e+00  1.9169669958558490e-04 -5.5617681577712963e-05 0.0000000000000000e+00  2.0599401359914027e-04 -6.0673431517022479e-05 0.0000000000000000e+00  2.1910830350499561e-04 -6.2707721840021032e-05 0.0000000000000000e+00  2.3861942279907488e-04 -6.7930689373110688e-05 0.0000000000000000e+00  2.4887688539172677e-04 -6.3975822127253126e-05 0.0000000000000000e+00  2.5774746954597264e-04 -5.9767294529306535e-05 0.0000000000000000e+00  2.7213699385548741e-04 -5.5323008672501870e-05 0.0000000000000000e+00  2.7749554439689128e-04 -4.8089381475655616e-05 0.0000000000000000e+00  2.8080697024732170e-04 -3.9962051817029604e-05 0.0000000000000000e+00  2.7632905564606460e-04 -3.1895614402217110e-05 0.0000000000000000e+00  2.7002016369657322e-04 -2.4858766321190276e-05 0.0000000000000000e+00  2.5425695217796572e-04 -2.0800586506193588e-05 0.0000000000000000e+00  2.4462162832588691e-04 -1.6993617573523785e-05 0.0000000000000000e+00  2.3354850444077255e-04 -1.3488504357967668e-05 0.0000000000000000e+00  2.1268319569869545e-04 -1.9857428831068528e-05 0.0000000000000000e+00  1.9914922709880238e-04 -2.2453175376603810e-05 0.0000000000000000e+00  1.8444806894563596e-04 -2.8186682373815965e-05 0.0000000000000000e+00  1.7262406240277372e-04 -3.2812195933643852e-05 0.0000000000000000e+00  1.6105542235499848e-04 -3.8397735366214982e-05 0.0000000000000000e+00  1.5145481818141458e-04 -4.3144078479317336e-05 0.0000000000000000e+00  1.3943642698468502e-04 -5.1930395471485121e-05 0.0000000000000000e+00  1.3248171480952618e-04 -5.5062510732434361e-05 0.0000000000000000e+00  1.2699138796104506e-04 -5.3158741257422015e-05 0.0000000000000000e+00  1.1839840749513338e-04 -5.7166115318798958e-05 0.0000000000000000e+00  1.0981789754186425e-04 -6.1474983784363802e-05 0.0000000000000000e+00  1.0063600157487579e-04 -6.7836713810292835e-05 0.0000000000000000e+00  9.1399640427700438e-05 -7.5291024898749479e-05 0.0000000000000000e+00  8.2047763008953785e-05 -8.4211731567076554e-05 0.0000000000000000e+00  7.3450637378285238e-05 -9.2850657378658148e-05 0.0000000000000000e+00  6.4215147871778252e-05 -1.0324857201191860e-04 0.0000000000000000e+00  5.4828429345186673e-05 -1.1792427164807273e-04 0.0000000000000000e+00  4.6510026927660846e-05 -1.3123117486149767e-04 0.0000000000000000e+00  3.8656419948013806e-05 -1.4552447681225790e-04 0.0000000000000000e+00  3.1451090629901656e-05 -1.5991074220438062e-04 0.0000000000000000e+00  2.4856233452500536e-05 -1.7457401470717351e-04 0.0000000000000000e+00  1.8896310551934720e-05 -1.8940750962248828e-04 0.0000000000000000e+00  1.3769082627709172e-05 -2.0365902161438543e-04 0.0000000000000000e+00  9.0384509654257593e-06 -2.1824708346810905e-04 0.0000000000000000e+00  5.1339117065550090e-06 -2.3364880927109123e-04 0.0000000000000000e+00  2.1128332484772614e-06 -2.4730083934928782e-04 0.0000000000000000e+00  -1.9423958064129228e-07 -2.6019189728394122e-04 0.0000000000000000e+00  -1.8293957688596003e-06 -2.7184073019350833e-04 0.0000000000000000e+00  -2.8621107832859921e-06 -2.8224748060252393e-04 0.0000000000000000e+00  -3.3864405902416525e-06 -2.9140686468279549e-04 0.0000000000000000e+00  -3.3495481034269969e-06 -2.9863474922270594e-04 0.0000000000000000e+00  -3.1600026180189704e-06 -3.0429788749563718e-04 0.0000000000000000e+00  -2.7057978720202597e-06 -3.0926284791833324e-04 0.0000000000000000e+00  -2.0354834180782726e-06 -3.1277315313990893e-04 0.0000000000000000e+00  -1.2103413867192575e-06 -3.1496324342391522e-04 0.0000000000000000e+00  -3.0137917276413889e-07 -3.1573953412670781e-04 0.0000000000000000e+00  6.1887887469527401e-07 -3.1511781361239253e-04 0.0000000000000000e+00  1.4809635925493148e-06 -3.1306076548252544e-04 0.0000000000000000e+00  2.2060618288110543e-06 -3.0955076277480276e-04 0.0000000000000000e+00  2.6916382963099698e-06 -3.0478249473373604e-04 0.0000000000000000e+00  2.9145980568031712e-06 -2.9892654353501445e-04 0.0000000000000000e+00  2.8304904470930445e-06 -2.9197596795027834e-04 0.0000000000000000e+00  2.3898494048022093e-06 -2.8400196051509225e-04 0.0000000000000000e+00  1.5433775193666100e-06 -2.7504416906635023e-04 0.0000000000000000e+00  2.4769796938268950e-07 -2.6529941148168475e-04 0.0000000000000000e+00  -1.5404536440888096e-06 -2.5458768561369789e-04 0.0000000000000000e+00  -3.7745747093101080e-06 -2.4415802475701883e-04 0.0000000000000000e+00  -6.3215347639394429e-06 -2.3274024134838634e-04 0.0000000000000000e+00  -9.6271306111525658e-06 -2.2020043947970058e-04 0.0000000000000000e+00  -1.3491600332517381e-05 -2.0741970995419220e-04 0.0000000000000000e+00  -1.7939504609635275e-05 -1.9439174514577121e-04 0.0000000000000000e+00  -2.2957299531701963e-05 -1.8129307779569861e-04 0.0000000000000000e+00  -2.8511940777665174e-05 -1.6830116634672821e-04 0.0000000000000000e+00  -3.4560695294617313e-05 -1.5558793309387986e-04 0.0000000000000000e+00  -4.0735749708781488e-05 -1.4423561837763546e-04 0.0000000000000000e+00  -4.7415218389789196e-05 -1.3173040930668703e-04 0.0000000000000000e+00  -5.4962998135498326e-05 -1.1890412207288985e-04 0.0000000000000000e+00  -6.2953379404603619e-05 -1.0663347824051926e-04 0.0000000000000000e+00  -7.1366575876866939e-05 -9.4879838198134420e-05 0.0000000000000000e+00  -8.0319477582485645e-05 -8.3330311763023915e-05 0.0000000000000000e+00  -8.9501945147464032e-05 -7.2950626699323348e-05 0.0000000000000000e+00  -9.9813393205935776e-05 -6.1240831461277856e-05 0.0000000000000000e+00  -1.0887417331645585e-04 -5.4938969345292973e-05 0.0000000000000000e+00  -1.1745010288919216e-04 -4.8640702896478213e-05 0.0000000000000000e+00  -1.2750937756447953e-04 -4.1135275210277939e-05 0.0000000000000000e+00  -1.3763657040380024e-04 -3.4591440825379483e-05 0.0000000000000000e+00  -1.4799353822642151e-04 -2.8657253593356811e-05 0.0000000000000000e+00  -1.5886055600321432e-04 -2.2995258858616731e-05 0.0000000000000000e+00  -1.6956056881433607e-04 -1.8704725234767578e-05 0.0000000000000000e+00  -1.8235147683737601e-04 -1.2893333259758348e-05 0.0000000000000000e+00  -1.9192342945428280e-04 -1.2576669326123204e-05 0.0000000000000000e+00  -2.0133770240992027e-04 -1.2252745429825277e-05 0.0000000000000000e+00  -2.1254810380490671e-04 -1.1729130869375289e-05 0.0000000000000000e+00  -2.2272517000005416e-04 -1.2879292952507255e-05 0.0000000000000000e+00  -2.3226890768287455e-04 -1.5316850764181875e-05 0.0000000000000000e+00  -2.4027459649012019e-04 -1.9302852519761846e-05 0.0000000000000000e+00  -2.4640818549114939e-04 -2.4585850957466058e-05 0.0000000000000000e+00  -2.4959147178929916e-04 -3.1031834374933553e-05 0.0000000000000000e+00  9.1949276711763082e-06 1.0303452940353131e-04 0.0000000000000000e+00  -7.7637841174701429e-05 -1.4360077274957586e-04 0.0000000000000000e+00  9.9632195231903233e-05 -1.1955133409457528e-04 0.0000000000000000e+00  6.0835296509788991e-06 -2.0948075910876354e-04 0.0000000000000000e+00  -8.0445071725765904e-05 4.8251427046172956e-05 0.0000000000000000e+00  -1.7684793573474091e-04 -3.1273878209777147e-05 0.0000000000000000e+00  1.0392156916672232e-04 2.2510370798904798e-05 0.0000000000000000e+00  2.0186313114606394e-04 -4.2355922018516356e-05 0.0000000000000000e+00  -1.7418668141256640e-04 -5.0977357107834985e-05 0.0000000000000000e+00  1.4227183631575078e-04 -7.3026734939960901e-05 0.0000000000000000e+00  1.3528621274435220e-04 -4.7166380991721328e-05 0.0000000000000000e+00  8.3500688340286961e-05 -7.8780557528624804e-05 0.0000000000000000e+00  1.4898707641604805e-04 -1.6292079141102460e-05 0.0000000000000000e+00  -3.5188752339790397e-05 -1.9412088916643985e-04 0.0000000000000000e+00  -2.7587393150665556e-05 -9.4911208863917318e-05 0.0000000000000000e+00  -3.2574938656349760e-05 9.1063338235783666e-05 0.0000000000000000e+00  -6.2697973863934847e-05 -6.6443522794318738e-06 0.0000000000000000e+00  -1.1607324560178329e-04 -4.5201924609608329e-05 0.0000000000000000e+00  5.1193401868131785e-05 -1.7669677800433780e-04 0.0000000000000000e+00  5.5287159010327503e-05 7.3416345420119621e-05 0.0000000000000000e+00  4.6850076703428074e-05 3.7341917994588316e-06 0.0000000000000000e+00  -1.2867256362166329e-04 -8.5322653244403836e-05 0.0000000000000000e+00  -1.3190629631987499e-04 -1.8202262361096995e-06 0.0000000000000000e+00  -7.2924452516025812e-05 -9.3396404432127556e-05 0.0000000000000000e+00  -8.0124833130136210e-06 4.8482509465351211e-06 0.0000000000000000e+00  9.2696919440361027e-05 -1.1503158007686613e-05 0.0000000000000000e+00  2.9136988312856633e-05 -9.4436223172693069e-05 0.0000000000000000e+00  -1.5674173339609113e-04 -4.2670981904344497e-05 0.0000000000000000e+00  -2.1243267282660484e-04 -3.9746457928228867e-05 0.0000000000000000e+00  -1.0299132487063220e-04 -1.1248029884475905e-04 0.0000000000000000e+00  -1.2807194250794910e-04 -7.1011120379362879e-05 0.0000000000000000e+00  -1.0265767789039352e-04 -9.2004420306901000e-05 0.0000000000000000e+00  -9.5363124189506269e-05 -6.6749085867953787e-05 0.0000000000000000e+00  -7.9033090368704314e-05 -1.2164442928225399e-04 0.0000000000000000e+00  -1.4718160513151399e-04 -6.2828442831255581e-05 0.0000000000000000e+00  -1.3684437408567190e-04 -4.3906016851829647e-05 0.0000000000000000e+00  1.4778842010840321e-04 -2.6255282420480745e-05 0.0000000000000000e+00  1.7781895930701360e-04 -3.0952655069981635e-05 0.0000000000000000e+00  1.6638803001247808e-04 -4.4119792023172926e-05 0.0000000000000000e+00  1.4459805467004403e-04 -6.5223379720083172e-05 0.0000000000000000e+00  1.7372035983408189e-04 -5.5477646647580430e-05 0.0000000000000000e+00  1.8363033699491299e-04 -5.4453191435517451e-05 0.0000000000000000e+00  2.2922719588315101e-04 -4.3465538737084930e-05 0.0000000000000000e+00  2.3148056160399719e-04 -3.9616656284215389e-05 0.0000000000000000e+00  1.8837396068978481e-04 -2.9879678239222905e-05 0.0000000000000000e+00  1.7245226937099123e-05 -1.5146215070458607e-04 0.0000000000000000e+00  4.4271506742512084e-05 -1.3890859972953221e-04 0.0000000000000000e+00  2.7901080063550248e-05 -1.9686820497358764e-04 0.0000000000000000e+00  5.6822231584007199e-05 -8.7423606273270987e-05 0.0000000000000000e+00  6.9657849327011757e-05 -1.2570143046266051e-04 0.0000000000000000e+00  1.4306775419230784e-04 -6.3585618010468357e-05 0.0000000000000000e+00  1.5031123149548874e-04 -2.2064401586714242e-05 0.0000000000000000e+00  -5.4830963796305536e-05 -1.4185645209796078e-04 0.0000000000000000e+00  -5.0845769161970232e-05 -9.5217059865884012e-05 0.0000000000000000e+00  -3.4882950853253707e-05 -1.4626101642334672e-04 0.0000000000000000e+00  1.2690944620618631e-04 5.7001448628002839e-08 0.0000000000000000e+00  1.2521612643302013e-04 -1.3713469180969367e-05 0.0000000000000000e+00  -1.8465924568357591e-04 -3.9003996148682055e-05 0.0000000000000000e+00  -1.4851326726947610e-04 -5.7328631464033160e-05 0.0000000000000000e+00  -1.5406676545319726e-04 -2.5294738049013871e-05 0.0000000000000000e+00  -1.8924946204648159e-04 -4.1251121101355251e-05 0.0000000000000000e+00  6.5311249739156613e-05 -1.6137000293936415e-04 0.0000000000000000e+00  9.3203290049606669e-05 -1.1528932109480343e-04 0.0000000000000000e+00  9.8844212812459770e-05 2.2488120136699324e-05 0.0000000000000000e+00  7.0636331820197044e-05 6.1790706843376381e-05 0.0000000000000000e+00  -6.7717409998483842e-05 -1.5203335925344181e-04 0.0000000000000000e+00  -4.5265249658233873e-05 -1.9326933234684973e-04 0.0000000000000000e+00  -5.0155576604589660e-05 9.4217339515956564e-05 0.0000000000000000e+00  -7.3420195525871059e-05 5.8599573465030724e-05 0.0000000000000000e+00  -2.8592962771294138e-06 -2.6313282656666501e-04 0.0000000000000000e+00  1.0215460715245708e-05 -2.5913459647542006e-04 0.0000000000000000e+00  1.2363715349408986e-05 1.4596516955139518e-04 0.0000000000000000e+00  -2.2571882184213290e-06 1.5116931546317367e-04 0.0000000000000000e+00  -5.6075884179159055e-05 -1.6985748754813436e-04 0.0000000000000000e+00  -9.0438121718937532e-05 -2.8499108162399155e-05 0.0000000000000000e+00  -1.0378353075201348e-04 -3.0798842207677145e-07 0.0000000000000000e+00  -7.5818677918474379e-05 2.5408705728165507e-05 0.0000000000000000e+00  9.6399476220541134e-05 -1.0503125858324568e-04 0.0000000000000000e+00  1.1048658958660320e-04 -6.0656938740620519e-05 0.0000000000000000e+00  1.2259345643313548e-04 -8.1097286127784077e-05 0.0000000000000000e+00  -3.5661626071352811e-05 -3.9065536386253730e-07 0.0000000000000000e+00  -1.8229478882351340e-05 -4.5305860641880253e-05 0.0000000000000000e+00  -4.6438427430315098e-05 -4.8505575199030811e-05 0.0000000000000000e+00  1.1427528984546184e-04 -8.5175083877709977e-05 0.0000000000000000e+00  1.2130016052138238e-04 -3.6829181749557581e-06 0.0000000000000000e+00  1.2152499398483290e-04 -9.3044132389971665e-05 0.0000000000000000e+00  -1.2922418552596983e-04 -1.7614858529250293e-05 0.0000000000000000e+00  -1.0609961330659994e-04 2.1531516687594634e-05 0.0000000000000000e+00  -1.4878682608138909e-04 -2.3228289084079346e-05 0.0000000000000000e+00  -4.8475121718957083e-05 4.1378542554808957e-05 0.0000000000000000e+00  -5.6246892149404804e-05 7.1107671338247101e-05 0.0000000000000000e+00  -8.3967447943387912e-06 -1.5217295755483334e-04 0.0000000000000000e+00  -1.4880039116022688e-05 -2.0583003649772433e-04 0.0000000000000000e+00  5.4266932695133649e-05 4.1056825708100487e-05 0.0000000000000000e+00  2.7047724427302166e-05 5.3221190949099378e-05 0.0000000000000000e+00  3.1747367300632962e-05 9.1304820824490360e-05 0.0000000000000000e+00  -6.9940949266117153e-05 -5.0902769617881700e-05 0.0000000000000000e+00  6.1722899825193009e-07 -9.6022872132618250e-05 0.0000000000000000e+00  -2.8890741429086799e-05 -2.2549501982531566e-04 0.0000000000000000e+00  -1.4295980622763074e-05 -2.5255526719765800e-04 0.0000000000000000e+00  -1.5144880025741338e-05 1.4311002962826800e-04 0.0000000000000000e+00  -3.1602495857039531e-05 1.2279044656169938e-04 0.0000000000000000e+00  1.0843491633647520e-05 -4.4952109014951850e-05 0.0000000000000000e+00  -2.3551722837496217e-05 5.0410499507511247e-05 0.0000000000000000e+00  -1.1571245731925408e-05 1.0000182587922100e-04 0.0000000000000000e+00  2.4825253263327137e-05 -2.3823228397557399e-04 0.0000000000000000e+00  4.5125695310480246e-05 -2.0149761061271948e-04 0.0000000000000000e+00  7.5794544407195051e-05 -1.4911504012830781e-04 0.0000000000000000e+00  4.8737491735054684e-05 9.5690631003702103e-05 0.0000000000000000e+00  2.8151598732707387e-05 1.2741660313957205e-04 0.0000000000000000e+00  7.9641775554385407e-05 4.7934984527454983e-05 0.0000000000000000e+00  1.1526660