<?xml version="1.0"?>
<VTKFile type="UnstructuredGrid"  version="0.1"  >
<UnstructuredGrid>
<Piece  NumberOfPoints="2549" NumberOfCells="4928">
<Points>
<DataArray  type="Float64"  NumberOfComponents="3"  format="ascii">1.640976713590841 -0.03793052376995653 0  1.637891337896286 0.009702876874837072 0  1.631124669484151 0.05683027688834098 0  1.622758626195693 0.1040775917853002 0  1.611373769636476 0.1509860053683901 0  1.597712873934296 0.197746024109932 0  1.580686403459126 0.2438111213703203 0  1.562131479315105 0.2897019776659266 0  1.537918151706641 0.332971913356337 0  1.512454370286753 0.3746461981144388 0  1.48894215995691 0.420893653631125 0  1.460133632516936 0.462808952104206 0  1.430789828733716 0.5051187503920879 0  1.399437373654169 0.5460961095938914 0  1.366514848967762 0.5863286239022332 0  1.332092307352453 0.6255404442434428 0  1.295794744138151 0.663044652827442 0  1.259391792470485 0.6991899632109807 0  1.222950625910457 0.7399551079678285 0  1.184369348425618 0.777317246958529 0  1.145214012384956 0.8155074771124244 0  1.104759766631747 0.852684901761076 0  1.063475694052759 0.8898718725332934 0  1.020669557663713 0.9260406237543173 0  0.9763589402198396 0.9608647553771572 0  0.9314419130532804 0.994182035127566 0  0.8852371822382763 1.027056402181048 0  0.8379927690923655 1.059047799899421 0  0.7897637369577116 1.090272969911034 0  0.7404007399440148 1.120249008698282 0  0.6899907445384138 1.148995305717528 0  0.6385435789257403 1.176321201345706 0  0.585875320747971 1.20160191451834 0  0.5323664426427845 1.225011563180193 0  0.4779431917423045 1.246937722198771 0  0.4225627825668796 1.266532715522413 0  0.3664058423159595 1.284038523507152 0  0.3094972685880521 1.299146901447083 0  0.2519484662128888 1.311831951271076 0  0.1938799407030677 1.322017433519802 0  0.1353178940655014 1.329313523011558 0  0.0765564570057464 1.33394760333968 0  0.01760167836120598 1.336128720156073 0  -0.0413861955448758 1.335469376761228 0  -0.1002940973092872 1.332075136834383 0  -0.1589691532222234 1.325855309287312 0  -0.217288783785251 1.31692748162465 0  -0.2750959739467712 1.305115829520011 0  -0.3322835497836576 1.290950031669135 0  -0.3888558287036037 1.274128147259541 0  -0.4444319375090992 1.254448832609193 0  -0.4990731707943482 1.232419721933194 0  -0.5527297791982717 1.208337888762799 0  -0.6051909197550899 1.182036509758367 0  -0.6567398329127546 1.154411766227935 0  -0.7068509251761362 1.124450669578321 0  -0.7558528499087549 1.094208490910676 0  -0.8040653157210134 1.062366263673794 0  -0.8505406866790411 1.028451173817017 0  -0.8957417242218032 0.9935407448235252 0  -0.9398961808900277 0.9581846313244008 0  -0.9825734201691938 0.9216339203257733 0  -1.024716245126401 0.8857813550358316 0  -1.064146004485382 0.8461143689506525 0  -1.10351262234099 0.810640131820357 0  -1.142412975325333 0.7750585959563615 0  -1.179998359981053 0.7382991330075439 0  -1.2169046246296 0.7020520183814384 0  -1.252564828189229 0.6649639265761937 0  -1.287857159947623 0.6295849451219704 0  -1.322921775032624 0.5930647212160318 0  -1.357877827498786 0.5598930125504845 0  -1.392837479576777 0.5228048297531077 0  -1.417247892070105 0.4763015112356246 0  -1.450460982655003 0.4349736463223095 0  -1.476027087965234 0.3899764413449003 0  -1.49940413738773 0.3436756188264918 0  -1.516143609002146 0.2944908269338785 0  -1.534625878208925 0.2473002359748059 0  -1.535484832684395 0.1928555065709387 0  -1.550175037469269 0.1485199027487186 0  -1.561901423218658 0.1017587896778735 0  -1.554818655628612 0.05374365580532812 0  -1.559320146346826 0.007463369056738358 0  -1.558426521235637 -0.03854119671475843 0  -1.560492964439909 -0.08453399388063121 0  -1.557795808049906 -0.1310422886377561 0  -1.562941279403355 -0.1795175819386571 0  -1.553351781195191 -0.2267069962894834 0  -1.540464312748596 -0.2717531254422038 0  -1.539721502511908 -0.3271002266062282 0  -1.522326511467444 -0.3749941162784725 0  -1.505959574736147 -0.4248771047751419 0  -1.482710265373306 -0.4714260865148036 0  -1.457084379665828 -0.5166023925545123 0  -1.424921625906865 -0.5582638407307086 0  -1.399954646664839 -0.6047259074032485 0  -1.364434459503294 -0.6417346658116225 0  -1.329671661904667 -0.6754992726506093 0  -1.294369611145004 -0.711939955198637 0  -1.259014814271563 -0.7473999764902061 0  -1.223493763116588 -0.7848397948277185 0  -1.18679420753984 -0.8215869244073921 0  -1.149441408383801 -0.8589746281948673 0  -1.110862270706859 -0.8953117771277025 0  -1.071642802618264 -0.9317127836989532 0  -1.032983984693103 -0.9736534242956416 0  -0.9908429511784643 -1.010778184189196 0  -0.9482719325941221 -1.048831850952768 0  -0.9042002747019212 -1.085820602825839 0  -0.8590228143995395 -1.122377895770377 0  -0.8124332299551297 -1.157895972834844 0  -0.7644193243163884 -1.191904882279666 0  -0.7150766505026855 -1.224771464043609 0  -0.6651852019639704 -1.258630404790984 0  -0.6129147956379972 -1.288412445192204 0  -0.5599754383373685 -1.316997189643155 0  -0.5056560720320541 -1.343089966875541 0  -0.45030109265355 -1.366964935637427 0  -0.3940165790893684 -1.388457430632536 0  -0.3364300442080465 -1.406393605063547 0  -0.2783098342111276 -1.421408982683062 0  -0.2195328682792089 -1.434205943369385 0  -0.1601548694383385 -1.443799732236379 0  -0.1003768005827357 -1.450509385572633 0  -0.04031674502534887 -1.454090049568374 0  0.01985525195231945 -1.454593982998835 0  0.07998426177359715 -1.451924940968264 0  0.1399049170409662 -1.4460941831006 0  0.1993993625542324 -1.437318129570168 0  0.2584013054014256 -1.425886068832919 0  0.3167778823842595 -1.411758278531221 0  0.3744509300884977 -1.395147177814597 0  0.431263898263141 -1.376013884733486 0  0.4872540583308318 -1.354909228843158 0  0.5421543382568647 -1.331238826680546 0  0.5960698844225732 -1.306609915999444 0  0.6492682827251027 -1.279973857064951 0  0.7009396696832381 -1.250808512241758 0  0.7515788594919255 -1.220395096348249 0  0.8010687214682385 -1.188770664165181 0  0.8493808873400979 -1.155984350731114 0  0.8966347244555071 -1.122473423947175 0  0.9427972154859871 -1.088188399704749 0  0.9876398693072277 -1.053582306295732 0  1.031851525238118 -1.01747145205885 0  1.07450171834599 -0.9800269012412053 0  1.11561556507033 -0.9416848603835679 0  1.155835000579767 -0.9033442020662276 0  1.194714598552935 -0.8640246264105154 0  1.233048652914609 -0.8256708101493947 0  1.269061950359313 -0.7837177006452173 0  1.305116082498047 -0.7467832226194848 0  1.341252929878157 -0.7087332573130704 0  1.375301930344347 -0.6687307827662312 0  1.407921119990932 -0.6278808369927846 0  1.438958408553704 -0.5862890525235299 0  1.467964320439521 -0.5433665569403566 0  1.496346808479047 -0.5008391509569643 0  1.519497408200903 -0.4540054288711137 0  1.544601574678079 -0.4119011890226911 0  1.568332254989234 -0.3681169040157425 0  1.586326320101908 -0.3216895571150098 0  1.602667204655008 -0.2751353366234897 0  1.615600061315973 -0.2279162965178402 0  1.6260214228712 -0.1805619883677697 0  1.633448411243442 -0.1330074516562546 0  1.638986001141472 -0.08562009562055244 0  -0.08201130253661279 0.7972875552890062 0  0.6185611524214949 -0.7177787649442607 0  -0.7299580837703223 -0.6286903856057489 0  -0.05824965885973639 -0.8883517462230616 0  0.6143634578890819 0.621442119736405 0  1.168338707602107 0.2034896429015049 0  -0.7424975307391137 0.5283809658010892 0  -1.214441558229801 -0.04334860312763786 0  1.172557529227308 -0.2865250760329828 0  -1.019270378158628 -0.4547444095228901 0  -0.7798435857811831 -0.05824317327678414 0  -0.4582332908582123 -0.2321566678752669 0  -1.029830775463593 0.3490581712681536 0  0.2981906769413278 -0.8655344206475623 0  0.153369336919138 -0.2927371349069667 0  0.2617626498232244 0.7590120327543846 0  0.3543805917636852 0.2025334758136928 0  0.6699831857623332 -0.04266921131807672 0  -0.3937819448157912 -0.7812714978184215 0  -0.4304645636439279 0.7030182847728133 0  -0.2577755711495106 0.2584385525765752 0  0.9252403522951441 -0.4920352022032129 0  0.9210938073796797 0.4051150425247023 0  0.4222570935068478 -0.3236193536233806 0  0.04651375698549492 0.2537986854056453 0  -0.5216828496745031 0.1977087615122356 0  -0.1553017840835821 -0.2851394715255671 0  0.9541416231931658 -0.04226012927986488 0  1.362297949458801 -0.03989252797992889 0  0.7722226104350018 -0.6020384061779521 0  0.7889548600106093 -0.2766988757074904 0  0.6349756329861796 -0.3771044604165137 0  0.5447878473007228 -0.1792851959149656 0  0.5145942724428242 -0.5258447163365543 0  0.9326587570205597 -0.2655632069023081 0  0.8113904723326708 -0.04244189235415747 0  -0.8964869478107317 0.1545836933082037 0  -1.117772489454559 0.1489198312669726 0  -0.9992505418534906 -0.04989703440402985 0  -0.8910929370846666 -0.2650562843331343 0  -1.11302131408725 -0.2442461063703162 0  -1.288136490509867 -0.3368636979972437 0  -1.376104083939502 -0.1530219463678794 0  -1.374062245373493 0.07040638036507214 0  -1.283666694252841 0.252915396248224 0  -0.107354691175907 -0.5863660595980092 0  -0.2679119676106064 -0.5390469699959302 0  -0.2273241093432237 -0.8401582787560732 0  -0.3062229860317313 -0.2597362669489501 0  -0.4223181573841072 -0.5043183538642939 0  -1.206321637511904 -0.5339281913567312 0  -1.20774462144336 0.4417232580265763 0  0.3590679277778656 -0.5921132798103842 0  0.2870233817457833 -0.3097787313337732 0  0.2203060797039515 -0.582097209086573 0  -0.8855843167206849 0.4345421076827876 0  -0.7518151199392388 0.2329463121006869 0  1.35630545620695 -0.3597277021392454 0  1.227237370946165 -0.5244033450864909 0  1.220483120021545 0.441169315549658 0  1.350831300589401 0.2789849141146954 0  -0.7348593029011357 -0.9117054801342336 0  -0.9099769279966557 -0.7771014233173106 0  -0.9128589461744124 0.6843498069668104 0  -0.7382526780385995 0.8122000701193478 0  0.7899773789417162 -0.9001628236482209 0  0.6002085465960078 -1.01246530986849 0  0.5935246114077705 0.9123340838812022 0  0.7826885703338428 0.8056962715523407 0  0.030262921686
[...]
<PointData  Vectors="f_10899"> 
<DataArray  type="Float64"  Name="f_10899"  NumberOfComponents="3" format="ascii">-1.2677506658563718e-04 1.6267035741660759e-05 0.0000000000000000e+00  -1.2626864603927068e-04 1.2615025277966745e-05 0.0000000000000000e+00  -1.2436580490660614e-04 9.2118250184571314e-06 0.0000000000000000e+00  -1.2170755022386044e-04 6.0235648659605186e-06 0.0000000000000000e+00  -1.1847761578172864e-04 3.1379979901732970e-06 0.0000000000000000e+00  -1.1398269683217231e-04 6.7412208283724208e-07 0.0000000000000000e+00  -1.0954325702521390e-04 -1.3305491144476060e-06 0.0000000000000000e+00  -1.0283937315359629e-04 -2.6495628890679053e-06 0.0000000000000000e+00  -9.6452466733745095e-05 -3.0840226332965474e-06 0.0000000000000000e+00  -8.9591793740186550e-05 -3.0373085417516813e-06 0.0000000000000000e+00  -7.9647961665371350e-05 -1.2084450811032339e-06 0.0000000000000000e+00  -7.2041554222062554e-05 1.0848935258476553e-07 0.0000000000000000e+00  -6.3153601310292611e-05 2.4757453014983965e-06 0.0000000000000000e+00  -5.3854549077242498e-05 6.0682408767292939e-06 0.0000000000000000e+00  -4.4062505839011770e-05 1.0910988207944982e-05 0.0000000000000000e+00  -3.4609649829463873e-05 1.6072694611215027e-05 0.0000000000000000e+00  -2.5316527218002145e-05 2.2127716792518397e-05 0.0000000000000000e+00  -1.4636029223633777e-05 2.9956785341993981e-05 0.0000000000000000e+00  -5.6750252955707976e-06 3.7277991849393743e-05 0.0000000000000000e+00  2.5686801905070276e-06 4.3728737346476843e-05 0.0000000000000000e+00  1.1283428992347100e-05 5.1654024803507335e-05 0.0000000000000000e+00  1.9875170610904800e-05 6.0284047292382922e-05 0.0000000000000000e+00  2.8425808910963128e-05 6.9882212756621720e-05 0.0000000000000000e+00  3.5849039950479511e-05 7.9098574597729254e-05 0.0000000000000000e+00  4.3603198398278677e-05 9.0114863739429072e-05 0.0000000000000000e+00  5.0377152336425439e-05 1.0093153833617729e-04 0.0000000000000000e+00  5.6364391457176649e-05 1.1175755731823133e-04 0.0000000000000000e+00  6.1455120627285952e-05 1.2236311624792677e-04 0.0000000000000000e+00  6.5813405521025710e-05 1.3276539853916743e-04 0.0000000000000000e+00  6.9428310900314458e-05 1.4307996808781063e-04 0.0000000000000000e+00  7.2425886259578162e-05 1.5349299844794623e-04 0.0000000000000000e+00  7.4798865966214302e-05 1.6379591696456637e-04 0.0000000000000000e+00  7.6167342369197911e-05 1.7381056147045169e-04 0.0000000000000000e+00  7.6803249572326648e-05 1.8368942637271701e-04 0.0000000000000000e+00  7.6710698530863458e-05 1.9299083905145143e-04 0.0000000000000000e+00  7.5574263389793122e-05 2.0141165508418224e-04 0.0000000000000000e+00  7.3784681803150948e-05 2.0918382611728644e-04 0.0000000000000000e+00  7.1150211678430421e-05 2.1584707330067038e-04 0.0000000000000000e+00  6.7845741922115146e-05 2.2143633399001868e-04 0.0000000000000000e+00  6.3952228001057162e-05 2.2554873215355174e-04 0.0000000000000000e+00  5.9546945256630384e-05 2.2819522237166095e-04 0.0000000000000000e+00  5.4876852805160156e-05 2.2914596816844354e-04 0.0000000000000000e+00  5.0091865989073513e-05 2.2832021999932852e-04 0.0000000000000000e+00  4.5442738986711996e-05 2.2575191059583005e-04 0.0000000000000000e+00  4.1069995700206519e-05 2.2151263514546177e-04 0.0000000000000000e+00  3.7217172466461583e-05 2.1569100064611674e-04 0.0000000000000000e+00  3.3951448641903664e-05 2.0857068102794613e-04 0.0000000000000000e+00  3.1540028697591632e-05 2.0010823014657202e-04 0.0000000000000000e+00  2.9924031173621942e-05 1.9069045931674285e-04 0.0000000000000000e+00  2.9143886417481427e-05 1.8072241057269850e-04 0.0000000000000000e+00  2.9480148044971788e-05 1.7025322401075595e-04 0.0000000000000000e+00  3.0612832727724779e-05 1.5955660604448021e-04 0.0000000000000000e+00  3.2130663713233474e-05 1.4938486938607538e-04 0.0000000000000000e+00  3.4915358821374035e-05 1.3861363382666866e-04 0.0000000000000000e+00  3.7506761111452417e-05 1.2864836024358486e-04 0.0000000000000000e+00  4.1788554854858050e-05 1.1772559265018693e-04 0.0000000000000000e+00  4.6225990816175415e-05 1.0704194833555370e-04 0.0000000000000000e+00  5.1498970961153053e-05 9.6364443935660857e-05 0.0000000000000000e+00  5.7519311392187171e-05 8.6383128473106763e-05 0.0000000000000000e+00  6.4239334886919932e-05 7.6281680656640002e-05 0.0000000000000000e+00  7.0457952890883664e-05 6.7659409751755486e-05 0.0000000000000000e+00  7.7304002688020410e-05 5.9555977754292239e-05 0.0000000000000000e+00  8.2568708038021510e-05 5.3040945242258049e-05 0.0000000000000000e+00  9.3889662385287416e-05 4.0645965160451440e-05 0.0000000000000000e+00  1.0085860949080344e-04 3.3535124972518116e-05 0.0000000000000000e+00  1.0997167063492821e-04 2.4770811205100829e-05 0.0000000000000000e+00  1.2027170262626891e-04 1.5590480273593253e-05 0.0000000000000000e+00  1.3051573020525270e-04 7.5337660953578258e-06 0.0000000000000000e+00  1.4156406306860920e-04 -1.3311805203889790e-06 0.0000000000000000e+00  1.5244157981820006e-04 -8.0379279412031517e-06 0.0000000000000000e+00  1.6385001334140426e-04 -1.7409972447003675e-05 0.0000000000000000e+00  1.8254286867440961e-04 -3.0133052455035898e-05 0.0000000000000000e+00  1.7933388030707826e-04 -2.2518196626019659e-05 0.0000000000000000e+00  2.1063079880123372e-04 -3.5196764556098600e-05 0.0000000000000000e+00  2.2427286290779277e-04 -3.9841643705766194e-05 0.0000000000000000e+00  2.2015638952453480e-04 -3.0284887150763831e-05 0.0000000000000000e+00  2.2712270021237049e-04 -2.9055577013924030e-05 0.0000000000000000e+00  2.3438676203782390e-04 -2.4726759041924383e-05 0.0000000000000000e+00  2.3392929148312395e-04 -1.9842355890255018e-05 0.0000000000000000e+00  2.4930056803537057e-04 -1.6180766982499604e-05 0.0000000000000000e+00  2.4360227817495314e-04 -9.9702574215797590e-06 0.0000000000000000e+00  2.3842356241959129e-04 -5.6460494772891157e-06 0.0000000000000000e+00  2.4977758633136352e-04 -3.1521766242301903e-07 0.0000000000000000e+00  2.4623247120418248e-04 3.6491918549373402e-06 0.0000000000000000e+00  2.4560685913612373e-04 7.2843621994632727e-06 0.0000000000000000e+00  2.4644400088429070e-04 1.1069016166176664e-05 0.0000000000000000e+00  2.4942166079697876e-04 1.5033417572903601e-05 0.0000000000000000e+00  2.4337909569736426e-04 2.0122595398543146e-05 0.0000000000000000e+00  2.4592771961382166e-04 2.4234986732701405e-05 0.0000000000000000e+00  2.4998457161542581e-04 2.9716849970001742e-05 0.0000000000000000e+00  2.3755960712412320e-04 3.3851146286227860e-05 0.0000000000000000e+00  2.3840618979722284e-04 3.8689077480937717e-05 0.0000000000000000e+00  2.3177848451917980e-04 4.2793724570285534e-05 0.0000000000000000e+00  2.2591200641454873e-04 4.4497372458236695e-05 0.0000000000000000e+00  2.2685913824544809e-04 5.1588746570820811e-05 0.0000000000000000e+00  2.1942611791391412e-04 5.0472564583366333e-05 0.0000000000000000e+00  1.9279460581789822e-04 4.1592008007413923e-05 0.0000000000000000e+00  1.8940793136675951e-04 4.3902886821988397e-05 0.0000000000000000e+00  1.7481912237869246e-04 3.6843750280154146e-05 0.0000000000000000e+00  1.6210420876967664e-04 2.7859330350236297e-05 0.0000000000000000e+00  1.5042840048734850e-04 2.1174246309898510e-05 0.0000000000000000e+00  1.3939861730118708e-04 1.3195929886401005e-05 0.0000000000000000e+00  1.2918314482311184e-04 5.9561114036316481e-06 0.0000000000000000e+00  1.1872588999972524e-04 -2.6228634088143177e-06 0.0000000000000000e+00  1.1046442038354162e-04 -1.0014450094123911e-05 0.0000000000000000e+00  1.0554969409149087e-04 -1.4086607297819558e-05 0.0000000000000000e+00  9.0739502133937959e-05 -2.8995991593624966e-05 0.0000000000000000e+00  8.8164603615141287e-05 -3.2112344100746452e-05 0.0000000000000000e+00  8.2201940024581363e-05 -3.7929825932559022e-05 0.0000000000000000e+00  7.6417247581297542e-05 -4.5268768981675077e-05 0.0000000000000000e+00  7.0063349407839748e-05 -5.3816362180450067e-05 0.0000000000000000e+00  6.4605954419722557e-05 -6.2450012548779710e-05 0.0000000000000000e+00  6.0316571576241886e-05 -7.0493212702319249e-05 0.0000000000000000e+00  5.8762988252969270e-05 -7.6029649595533383e-05 0.0000000000000000e+00  5.0948668504471988e-05 -8.9083631951403304e-05 0.0000000000000000e+00  5.0862168539397121e-05 -9.4196917009548771e-05 0.0000000000000000e+00  4.7318895516512876e-05 -1.0288593574548860e-04 0.0000000000000000e+00  4.5544274119638836e-05 -1.1145123881488292e-04 0.0000000000000000e+00  4.3577124731719128e-05 -1.2132480737923075e-04 0.0000000000000000e+00  4.1873931211548854e-05 -1.3207786209144386e-04 0.0000000000000000e+00  4.2037641687177248e-05 -1.4181574276488575e-04 0.0000000000000000e+00  4.2882194089006972e-05 -1.5143929561847819e-04 0.0000000000000000e+00  4.4502579655707041e-05 -1.6031108786270236e-04 0.0000000000000000e+00  4.7169344251047375e-05 -1.6764708834423030e-04 0.0000000000000000e+00  5.0414062136760522e-05 -1.7385964501994105e-04 0.0000000000000000e+00  5.4259290707981996e-05 -1.7857051957016314e-04 0.0000000000000000e+00  5.8451607780892658e-05 -1.8179819218704755e-04 0.0000000000000000e+00  6.2828174818685653e-05 -1.8338208852600779e-04 0.0000000000000000e+00  6.7195445078629533e-05 -1.8339422391731362e-04 0.0000000000000000e+00  7.1290571141682726e-05 -1.8173798959613281e-04 0.0000000000000000e+00  7.5022126728086061e-05 -1.7865137310008768e-04 0.0000000000000000e+00  7.8151485738962918e-05 -1.7405774506021844e-04 0.0000000000000000e+00  8.0703247279021793e-05 -1.6836663378071661e-04 0.0000000000000000e+00  8.2348341404081876e-05 -1.6138747190422683e-04 0.0000000000000000e+00  8.3495999996121173e-05 -1.5384936219470550e-04 0.0000000000000000e+00  8.3360521535263857e-05 -1.4494260592337745e-04 0.0000000000000000e+00  8.2532216910766396e-05 -1.3535120813611918e-04 0.0000000000000000e+00  8.1041521857912581e-05 -1.2573267121208177e-04 0.0000000000000000e+00  7.8042970360136396e-05 -1.1544529424735548e-04 0.0000000000000000e+00  7.4862701444966269e-05 -1.0545914738638110e-04 0.0000000000000000e+00  7.0950834674052643e-05 -9.5520021901883756e-05 0.0000000000000000e+00  6.6339027243385014e-05 -8.5436034727089422e-05 0.0000000000000000e+00  6.0981057408203568e-05 -7.5179692493861875e-05 0.0000000000000000e+00  5.4711674152456460e-05 -6.4634338896918739e-05 0.0000000000000000e+00  4.7567798133006267e-05 -5.3990578448590740e-05 0.0000000000000000e+00  3.9508258195620329e-05 -4.3253770876567868e-05 0.0000000000000000e+00  3.1707703885607901e-05 -3.4174763031875445e-05 0.0000000000000000e+00  2.2773858083107272e-05 -2.4716883847228230e-05 0.0000000000000000e+00  1.3918539103909286e-05 -1.6363560780315632e-05 0.0000000000000000e+00  4.9672299483891823e-06 -8.7233868857852723e-06 0.0000000000000000e+00  -3.5680543375725918e-06 -2.3943734221315229e-06 0.0000000000000000e+00  -1.3357180928303433e-05 5.2228396371197568e-06 0.0000000000000000e+00  -2.3693159997829460e-05 1.2267534150907643e-05 0.0000000000000000e+00  -3.4014758711755751e-05 1.8885777487944082e-05 0.0000000000000000e+00  -4.3554378809134034e-05 2.3631254290228951e-05 0.0000000000000000e+00  -5.3572086758148783e-05 2.8342639084683686e-05 0.0000000000000000e+00  -6.3185701836337133e-05 3.1817711466968344e-05 0.0000000000000000e+00  -7.2435845559945135e-05 3.4178617482987197e-05 0.0000000000000000e+00  -8.0244568694186645e-05 3.5313893874255836e-05 0.0000000000000000e+00  -9.0091014868610536e-05 3.6819112784711923e-05 0.0000000000000000e+00  -9.7447100023837565e-05 3.6885641234539402e-05 0.0000000000000000e+00  -1.0385173174087893e-04 3.6197745477042346e-05 0.0000000000000000e+00  -1.1059943516917368e-04 3.4713663066080555e-05 0.0000000000000000e+00  -1.1511296086616935e-04 3.2524431473774321e-05 0.0000000000000000e+00  -1.1956048945037514e-04 2.9891488143706184e-05 0.0000000000000000e+00  -1.2266392981798057e-04 2.6820574702128396e-05 0.0000000000000000e+00  -1.2518346192814676e-04 2.3505712148732443e-05 0.0000000000000000e+00  -1.2644329144902711e-04 1.9915215425355165e-05 0.0000000000000000e+00  6.1813121023232003e-05 1.4819654720695256e-04 0.0000000000000000e+00  1.2301401956460732e-05 -6.9747502978457029e-05 0.0000000000000000e+00  1.3029440686252765e-04 -4.0433629502032997e-05 0.0000000000000000e+00  6.8144476312883209e-05 -1.0629194111994162e-04 0.0000000000000000e+00  7.5586336603104457e-06 1.0563911951127785e-04 0.0000000000000000e+00  -7.6145367487828318e-05 2.7807526960098261e-05 0.0000000000000000e+00  1.2825737157199228e-04 6.9900612382545381e-05 0.0000000000000000e+00  2.1662568392784258e-04 9.9328359270084716e-06 0.0000000000000000e+00  -7.5918485516097596e-05 5.8756882767290918e-06 0.0000000000000000e+00  1.7756948918118504e-04 -6.9117051610087031e-06 0.0000000000000000e+00  1.6376864483011084e-04 1.3006617952525119e-05 0.0000000000000000e+00  1.2035898099432520e-04 -7.6579170584053440e-06 0.0000000000000000e+00  1.7758988121095888e-04 2.9215953851668587e-05 0.0000000000000000e+00  4.5184726444771538e-05 -1.0447921887178626e-04 0.0000000000000000e+00  4.3152253644649029e-05 -2.0542899003001909e-05 0.0000000000000000e+00  4.0292586945920388e-05 1.4329795895470522e-04 0.0000000000000000e+00  1.6137102967696643e-05 5.6211144330075812e-05 0.0000000000000000e+00  -2.5069508543508550e-05 1.7770749898288896e-05 0.0000000000000000e+00  9.3104196577592564e-05 -7.6435413754805180e-05 0.0000000000000000e+00  8.8267922073621884e-05 1.1477960630256071e-04 0.0000000000000000e+00  9.1355600796404362e-05 6.2691623461076507e-05 0.0000000000000000e+00  -3.5123115279713634e-05 -2.3977396045270842e-05 0.0000000000000000e+00  -3.7074821385081409e-05 5.8473859693836783e-05 0.0000000000000000e+00  1.0695977044190598e-05 -2.3319490135108018e-05 0.0000000000000000e+00  5.4247551756138755e-05 6.6015947840241066e-05 0.0000000000000000e+00  1.2557826470285127e-04 4.6936273917627254e-05 0.0000000000000000e+00  8.1668919393021721e-05 -1.8144331539766457e-05 0.0000000000000000e+00  -5.9249305804180299e-05 1.7085542524100009e-05 0.0000000000000000e+00  -1.0280467006331042e-04 1.6609717580265329e-05 0.0000000000000000e+00  -1.0928432756104714e-05 -4.5846392488397781e-05 0.0000000000000000e+00  -3.4504616297219991e-05 -9.0825228795160832e-06 0.0000000000000000e+00  -1.2329678102056253e-05 -2.5996949002168217e-05 0.0000000000000000e+00  -7.8434244659523863e-06 -1.0782405718976391e-06 0.0000000000000000e+00  8.3481602161083995e-06 -4.9901834023554147e-05 0.0000000000000000e+00  -5.1373347212077358e-05 -3.3191501066883942e-06 0.0000000000000000e+00  -4.2369691724009771e-05 1.7413713323712517e-05 0.0000000000000000e+00  1.7447210521554733e-04 2.7312361911689889e-05 0.0000000000000000e+00  2.0191698036831410e-04 1.4361050370052991e-05 0.0000000000000000e+00  1.9174109803784002e-04 1.1838070846207748e-05 0.0000000000000000e+00  1.7417172296647183e-04 -2.5578366536302118e-06 0.0000000000000000e+00  2.0220408836949110e-04 7.1690083662545389e-06 0.0000000000000000e+00  2.1787411929432502e-04 1.8741386078849347e-05 0.0000000000000000e+00  2.3224358012282394e-04 1.5225457223672730e-05 0.0000000000000000e+00  2.3135366287563376e-04 1.5752846331096247e-06 0.0000000000000000e+00  2.1540117732079712e-04 -1.0382200538238713e-08 0.0000000000000000e+00  7.4317293953610355e-05 -6.2878842005285540e-05 0.0000000000000000e+00  9.1407271614046861e-05 -5.2237183728324805e-05 0.0000000000000000e+00  7.9652600642010388e-05 -9.2712030056578499e-05 0.0000000000000000e+00  1.0077185781472805e-04 -1.3019876160131533e-05 0.0000000000000000e+00  1.0860054698330641e-04 -4.2859033823770855e-05 0.0000000000000000e+00  1.9077786201161654e-04 1.1276680772712467e-05 0.0000000000000000e+00  1.8712210724447300e-04 8.6696541398423852e-06 0.0000000000000000e+00  2.7357267189479728e-05 -6.3826408432419147e-05 0.0000000000000000e+00  2.6865057837075079e-05 -2.2654663057973534e-05 0.0000000000000000e+00  4.0982389232591269e-05 -6.4511738893050402e-05 0.0000000000000000e+00  1.5237577620066654e-04 4.8952747225933203e-05 0.0000000000000000e+00  1.5267743177748241e-04 4.1351791426625445e-05 0.0000000000000000e+00  -8.7731881094755916e-05 1.7001827729986165e-05 0.0000000000000000e+00  -5.7964751705287551e-05 2.0995119985159855e-06 0.0000000000000000e+00  -5.8617903272842534e-05 3.1899928692479818e-05 0.0000000000000000e+00  -8.7435486172732354e-05 1.6558793300181787e-05 0.0000000000000000e+00  9.8831664255824271e-05 -5.9957212153236068e-05 0.0000000000000000e+00  1.2492117174024402e-04 -3.4761944511140667e-05 0.0000000000000000e+00  1.1949777887177983e-04 6.1949485662650435e-05 0.0000000000000000e+00  9.2239957036490322e-05 9.2860469471529972e-05 0.0000000000000000e+00  2.3236939102266490e-05 -7.4122030441994770e-05 0.0000000000000000e+00  4.3662514696754431e-05 -1.0553817949642836e-04 0.0000000000000000e+00  3.7482026089368633e-05 1.4267186134516344e-04 0.0000000000000000e+00  1.8539373446271946e-05 1.1002037555858867e-04 0.0000000000000000e+00  6.3565019883910726e-05 -1.4762409073044384e-04 0.0000000000000000e+00  6.6271808018553328e-05 -1.3379565284869801e-04 0.0000000000000000e+00  5.5961160278039743e-05 1.7816364358779597e-04 0.0000000000000000e+00  5.4287519016982465e-05 1.9158932878341842e-04 0.0000000000000000e+00  3.0068973762009798e-05 -8.8500462668152552e-05 0.0000000000000000e+00  -4.7737889972908090e-06 3.5256496150098534e-05 0.0000000000000000e+00  -1.4596100409512823e-05 6.1433146529702291e-05 0.0000000000000000e+00  7.7449708438975811e-06 8.5566994030663107e-05 0.0000000000000000e+00  1.2931349115000265e-04 -2.9533406160522932e-05 0.0000000000000000e+00  1.4213365193730001e-04 4.6037772612221355e-06 0.0000000000000000e+00  1.5290302692834418e-04 -1.3733040180017420e-05 0.0000000000000000e+00  3.5359945821311047e-05 6.1889174109334890e-05 0.0000000000000000e+00  4.8141196972928757e-05 2.2450026052653772e-05 0.0000000000000000e+00  2.8297440454042424e-05 1.8868624625798428e-05 0.0000000000000000e+00  1.5105788200722834e-04 -1.3823264901808984e-05 0.0000000000000000e+00  1.4695531286820155e-04 3.6866297826435601e-05 0.0000000000000000e+00  1.5314805160583674e-04 -2.3351224858352302e-05 0.0000000000000000e+00  -3.5738057144587743e-05 4.4032799700171746e-05 0.0000000000000000e+00  -1.4220279886069578e-05 8.0958443424270887e-05 0.0000000000000000e+00  -5.2275132182022581e-05 3.7591573790678267e-05 0.0000000000000000e+00  2.7377093597632820e-05 9.9645678312733861e-05 0.0000000000000000e+00  2.5325680599410962e-05 1.2623892543556421e-04 0.0000000000000000e+00  5.8308702313844808e-05 -6.5925847769357824e-05 0.0000000000000000e+00  5.7069910726462328e-05 -1.0895015746534676e-04 0.0000000000000000e+00  9.3248988345733663e-05 9.2285286727024951e-05 0.0000000000000000e+00  7.5305406235361876e-05 1.0500437788881479e-04 0.0000000000000000e+00  7.3932077148767338e-05 1.3362551146532580e-04 0.0000000000000000e+00  1.1145925208355202e-05 1.5567140575437564e-05 0.0000000000000000e+00  6.2422440328482220e-05 -2.0005206298877370e-05 0.0000000000000000e+00  5.5426703123237436e-05 -1.2936009870117928e-04 0.0000000000000000e+00  6.1625193708551363e-05 -1.4650532086781694e-04 0.0000000000000000e+00  5.3084255040418508e-05 1.8774001022150790e-04 0.0000000000000000e+00  4.8234369443122490e-05 1.6932386257733584e-04 0.0000000000000000e+00  6.8221196766143699e-05 2.2877023377457618e-05 0.0000000000000000e+00  4.3821514451969359e-05 1.0667045748983476e-04 0.0000000000000000e+00  5.1523525278927201e-05 1.4926406501229297e-04 0.0000000000000000e+00  7.2456041332091855e-05 -1.1065465715493725e-04 0.0000000000000000e+00  8.3574140261092423e-05 -8.3521922059521497e-05 0.0000000000000000e+00  1.1000080639333124e-04 -5.8315307481060937e-05 0.0000000000000000e+00  7.4283923916310503e-05 1.2169740805847888e-04 0.0000000000000000e+00  6.1743314017643954e-05 1.5356103763564590e-04 0.0000000000000000e+00  1.0671701101610245e-04 9.2057342433251449e-05 0.0000000000000000e+00  1.4538102965484277e-04 2.7581598998063369e-05 0.0000000000000000e+00  1.2995761225180418e-04 6.2527442850529406e-05 0.0000000000000000e+00  -1.1551408520838290e-04 1.6510632597179893e