<?xml version="1.0"?>
<VTKFile type="UnstructuredGrid"  version="0.1"  >
<UnstructuredGrid>
<Piece  NumberOfPoints="2549" NumberOfCells="4928">
<Points>
<DataArray  type="Float64"  NumberOfComponents="3"  format="ascii">1.638395186688502 -0.03760572581778678 0  1.635320066911391 0.009953603306739649 0  1.628591858549835 0.05701194042686625 0  1.620279694223064 0.1041945715429778 0  1.608960289641547 0.1510444260643752 0  1.59539048974523 0.1977544345668199 0  1.578454004081401 0.2437788236278861 0  1.56003497571065 0.2896428785710884 0  1.535951089933845 0.332903917612652 0  1.510626329169449 0.37457903834769 0  1.487315720054373 0.4208634870108144 0  1.458661359766714 0.4628053720963598 0  1.429497704488642 0.5051630399985528 0  1.398333757061359 0.5462131152836417 0  1.365609716221152 0.5865436617970986 0  1.33137879478627 0.6258599876442258 0  1.295269748212325 0.6634869402038963 0  1.25908306099869 0.6997906035443806 0  1.222823575285851 0.7407039962391327 0  1.184409446280295 0.778196820024704 0  1.145430691677376 0.8165474450524612 0  1.105150541332519 0.8538995479072777 0  1.064039793292968 0.8912808362826067 0  1.021384155295373 0.9276362159326448 0  0.9772307297603035 0.9626833883298744 0  0.9324510624519757 0.996219716196764 0  0.8863677818537596 1.029313364111762 0  0.8392266508977533 1.061519581616376 0  0.7910860891182505 1.092955494533087 0  0.7417965011571387 1.12314050990182 0  0.6914474341129399 1.152097822960148 0  0.6400485796954454 1.179632581929659 0  0.5874082563885578 1.205116321547226 0  0.5339124894014718 1.228726312145444 0  0.4794876156210754 1.250841215815186 0  0.4240843978249614 1.270607127217673 0  0.3678914229204581 1.288270792805033 0  0.3109296655186946 1.303514606478634 0  0.2533140802682742 1.316313383757381 0  0.1951668076853188 1.326582732146887 0  0.1365155905370782 1.333932984133107 0  0.07765957737458798 1.338586891122673 0  0.01860785394205415 1.340751844906654 0  -0.04047425369161007 1.340041002028359 0  -0.09947082198366011 1.336561388643399 0  -0.1582240422700218 1.330224096412278 0  -0.2166099628651506 1.321152445708996 0  -0.274466157635327 1.309169754566278 0  -0.3316866316635535 1.294813507204995 0  -0.3882748766695976 1.277789957326129 0  -0.4438443501006976 1.257898811551334 0  -0.4984627923895723 1.235653173827076 0  -0.5520888065240631 1.211365394026306 0  -0.6044936480753585 1.184845866479013 0  -0.6559901515163862 1.157019204814186 0  -0.7060145523075749 1.126836795485124 0  -0.7549266093757928 1.096378090229983 0  -0.803032210163501 1.064319400351012 0  -0.8493855895689135 1.030201985002281 0  -0.8944503962556055 0.9950867541428275 0  -0.9384787656764241 0.9595557861232575 0  -0.9810172824863961 0.9228408960108023 0  -1.023053461601108 0.8868562862856756 0  -1.062253323131999 0.8469376728577706 0  -1.101478741851677 0.8113193566116904 0  -1.140194351395049 0.7755601678376685 0  -1.177570726185093 0.7386144720056271 0  -1.214269153127531 0.7022039617041314 0  -1.249705211545119 0.6649361232877127 0  -1.284776791719549 0.6294210730901786 0  -1.319609427935489 0.5927104517009585 0  -1.35418868408879 0.5592835898381932 0  -1.389212621461289 0.522348715254599 0  -1.412985798318227 0.4755868192675679 0  -1.445925818122507 0.4341666835880929 0  -1.471574529798271 0.3893621214224285 0  -1.494809412596154 0.3430856458688302 0  -1.511401476039219 0.2939883815657754 0  -1.529892539635172 0.2468965319634204 0  -1.530439711384366 0.1925259242231557 0  -1.545245463188541 0.1483161107687358 0  -1.557076910105751 0.1016425718900352 0  -1.549764369820951 0.05373538904012681 0  -1.554337712599134 0.007535340405048903 0  -1.553456823482974 -0.03839565108080683 0  -1.555506318330659 -0.08431184565374274 0  -1.552748804897412 -0.1307398882903856 0  -1.558016856620298 -0.1791121134146625 0  -1.548375608942069 -0.2262182581081987 0  -1.535405845232496 -0.2711533473556172 0  -1.534915202644544 -0.3264167437636196 0  -1.517503354909073 -0.3742127344066428 0  -1.501270945086037 -0.4240126507709295 0  -1.478141170120738 -0.47052744632565 0  -1.452496435193011 -0.515560498147778 0  -1.420482904164579 -0.5572438069492417 0  -1.396058203958926 -0.6038873291009165 0  -1.360606736349735 -0.6408495185826572 0  -1.326139066520806 -0.6747563366577581 0  -1.291095353271898 -0.7113796404737313 0  -1.255977598630351 -0.7469754974954068 0  -1.220680568910088 -0.7845774801543332 0  -1.184188458675373 -0.8214717878054921 0  -1.147048119870404 -0.8590339613242437 0  -1.108636473248199 -0.8955211933747255 0  -1.069516412036737 -0.9320047288276073 0  -1.031159051934193 -0.974248909739866 0  -0.9890699923228526 -1.011436920744585 0  -0.9466197936237243 -1.049608561777192 0  -0.9026656500749168 -1.086746623505713 0  -0.8576171833167618 -1.123477673102236 0  -0.8111384301724468 -1.159171362123457 0  -0.763211503630201 -1.193343757581826 0  -0.7139000947544961 -1.226322813567862 0  -0.6641673026390178 -1.260447108321707 0  -0.611898338175525 -1.290332965351812 0  -0.5590305328891765 -1.319093820853218 0  -0.5047468438715833 -1.34536025964962 0  -0.4494314274872063 -1.369435314491344 0  -0.3931810470546455 -1.391145482687958 0  -0.3355908851784654 -1.409278838241091 0  -0.2774532309387411 -1.424488921503734 0  -0.2186430825159487 -1.437465220862388 0  -0.1592107472842669 -1.447207235219799 0  -0.09936663515116326 -1.45404221998121 0  -0.03922841853078803 -1.457717725275693 0  0.02102872757128998 -1.45828638679281 0  0.08124655816596445 -1.45564869485381 0  0.1412557768180336 -1.449817468679161 0  0.2008332089737901 -1.441007141003869 0  0.2599107216508028 -1.429511846872235 0  0.3183506128707126 -1.415290341521497 0  0.376075257362226 -1.39856336497714 0  0.4329213754247433 -1.379288105199494 0  0.4889346704573499 -1.358030324537568 0  0.5438319462443616 -1.334178939972392 0  0.5977305376158456 -1.309355393526222 0  0.6508986157711767 -1.28252428016499 0  0.7025089288582455 -1.253150146003032 0  0.7530835399635852 -1.222534307402258 0  0.8024940283794306 -1.19070846809441 0  0.8507126406757721 -1.157717816831859 0  0.8978578441546239 -1.123999110621601 0  0.9438932230250713 -1.089500445982451 0  0.9885910674970415 -1.054678752572922 0  1.032639370156725 -1.018350446034802 0  1.075131477432029 -0.9807220393730874 0  1.11606423985928 -0.942188464282166 0  1.156104307656284 -0.9036787439243394 0  1.194802594983377 -0.8642045731780151 0  1.232963863626264 -0.8257227637770796 0  1.268778657281851 -0.7836152604888895 0  1.30462351678256 -0.7465382838088389 0  1.340551223953893 -0.708354292335149 0  1.374406904816426 -0.668255729845077 0  1.40682309227901 -0.6273103960435016 0  1.437665572951046 -0.5856482787572334 0  1.466484070420596 -0.5426780660873245 0  1.494708429987099 -0.5001277901062499 0  1.517659294905303 -0.4532635369789931 0  1.542614491634123 -0.4111580728258962 0  1.566215422169909 -0.3673877950701552 0  1.584072686577445 -0.320990587142105 0  1.600322146001123 -0.274480793105945 0  1.613164869724837 -0.227315174539316 0  1.623523337309761 -0.1800231521276606 0  1.630899260448884 -0.1325358509410076 0  1.636411209749802 -0.08522129634309306 0  -0.08076929982341557 0.8002875764991254 0  0.618798411810681 -0.719196064044673 0  -0.7273286058461513 -0.6295169256907186 0  -0.05688125034991009 -0.8905130130747061 0  0.6145056049425742 0.6235769695935149 0  1.166784070334192 0.2040479226184354 0  -0.739907950370163 0.5297961712848696 0  -1.210059627921967 -0.04314998537654355 0  1.171007423568046 -0.2864104110605239 0  -1.015681412351386 -0.4548896939368507 0  -0.7765339513488725 -0.0579834405300426 0  -0.4558044551689383 -0.2323171124128814 0  -1.026240655236653 0.3496487398869982 0  0.2990939679356988 -0.8676567662647232 0  0.1542324917898941 -0.2931585716166062 0  0.2625683311801165 0.7619109428374137 0  0.3546966547472297 0.2036677465694083 0  0.6694639437945926 -0.04231387887288726 0  -0.3919072774179884 -0.7828286006032761 0  -0.4286860824684355 0.7053426343916714 0  -0.2559345163846065 0.2597054026287352 0  0.9245169243509619 -0.4925250487834321 0  0.9203312557646217 0.4062943663436343 0  0.4224623775935276 -0.324096662076703 0  0.04760237903341766 0.2551321898503653 0  -0.519147716986733 0.1986567255513313 0  -0.1536577251316021 -0.2855126435141563 0  0.9529296043008868 -0.04191867979539531 0  1.360202775725446 -0.03956080262894079 0  0.771989333091805 -0.602971287751105 0  0.7882442036656769 -0.2768873527000617 0  0.6347142382541163 -0.3776356823557618 0  0.5446175985262371 -0.1793117373942298 0  0.5147516763264984 -0.5268604047351999 0  0.9316062325975545 -0.2656348707035198 0  0.810520595594308 -0.04209378825539428 0  -0.8929600664728041 0.1551346248750012 0  -1.113688921136655 0.1492087892012046 0  -0.9953734506154618 -0.04966039547056314 0  -0.8875725133159622 -0.2651127736379268 0  -1.108932175238572 -0.2441046703406097 0  -1.283729654866654 -0.3364875005968532 0  -1.371405417002339 -0.1527160394131594 0  -1.369381434195196 0.07043631302218305 0  -1.279309702039641 0.2529139397356322 0  -0.105860412895244 -0.5876467418681462 0  -0.2660710238793509 -0.5401121995858585 0  -0.2257223518784098 -0.8420450087190972 0  -0.3041914785469038 -0.2600055542639113 0  -0.4201284100383507 -0.5051935450802255 0  -1.202465030846983 -0.5337042923309339 0  -1.203961318707758 0.4418979722399463 0  0.3596104013995474 -0.593411553721268 0  0.2875563809156212 -0.3102427759166269 0  0.2211246748542207 -0.5834098486127697 0  -0.8825055531344179 0.4355327181251922 0  -0.7487302939127631 0.2337817817745586 0  1.354515666115427 -0.3593875245624523 0  1.226050822923943 -0.5243647967419884 0  1.219283502195605 0.4418100541267387 0  1.349047471041803 0.2793150912200341 0  -0.7328689735808562 -0.9129293267603937 0  -0.9074570533146727 -0.7778132314608628 0  -0.9104469897224401 0.6856046877213141 0  -0.7363935235496796 0.8140815123739379 0  0.7904360109164202 -0.9016678838007293 0  0.6010810215031451 -1.014607282469563 0  0.5942731796306866 0.9152185186887555 0  0.7830530399693268 0.8079190066348565 0  0.031538499339977
[...]
<PointData  Vectors="f_18373"> 
<DataArray  type="Float64"  Name="f_18373"  NumberOfComponents="3" format="ascii">-1.3420050717402878e-04 1.2841177706883872e-05 0.0000000000000000e+00  -1.3371402173814175e-04 9.2191696361040285e-06 0.0000000000000000e+00  -1.3191229822072568e-04 5.8222775596033828e-06 0.0000000000000000e+00  -1.2931640782529446e-04 2.6465257459422311e-06 0.0000000000000000e+00  -1.2617118732366500e-04 -2.3960786606580641e-07 0.0000000000000000e+00  -1.2178582858331948e-04 -2.7149071054916407e-06 0.0000000000000000e+00  -1.1745299337353367e-04 -4.7448064445256449e-06 0.0000000000000000e+00  -1.1087579801539205e-04 -6.0974908887144270e-06 0.0000000000000000e+00  -1.0465163279874600e-04 -6.6057106089927384e-06 0.0000000000000000e+00  -9.7988869363859314e-05 -6.6674064993418954e-06 0.0000000000000000e+00  -8.8182869993953686e-05 -4.9277905840248242e-06 0.0000000000000000e+00  -8.0768046288558784e-05 -3.7453733705623862e-06 0.0000000000000000e+00  -7.2077794834687849e-05 -1.5362824824195564e-06 0.0000000000000000e+00  -6.2957938108075312e-05 1.8896852944889594e-06 0.0000000000000000e+00  -5.3365875794043232e-05 6.5215285386354891e-06 0.0000000000000000e+00  -4.4098675278783612e-05 1.1468750863239280e-05 0.0000000000000000e+00  -3.4876767156526499e-05 1.7401811327673866e-05 0.0000000000000000e+00  -2.4598225412905834e-05 2.4783665699162135e-05 0.0000000000000000e+00  -1.5762465672733910e-05 3.1849043514186828e-05 0.0000000000000000e+00  -7.6511202870193470e-06 3.8094155548913483e-05 0.0000000000000000e+00  8.4734913239913998e-07 4.5654911289571351e-05 0.0000000000000000e+00  9.2354561321956879e-06 5.3913089462282224e-05 0.0000000000000000e+00  1.7652753409130896e-05 6.3152641567673697e-05 0.0000000000000000e+00  2.4977146448817515e-05 7.2054683338708628e-05 0.0000000000000000e+00  3.2623125875646538e-05 8.2677007309382166e-05 0.0000000000000000e+00  3.9336841763440029e-05 9.3152226387693631e-05 0.0000000000000000e+00  4.5309829744235589e-05 1.0367560279710555e-04 0.0000000000000000e+00  5.0405731073150364e-05 1.1399180247573557e-04 0.0000000000000000e+00  5.4816656792960220e-05 1.2415353931116203e-04 0.0000000000000000e+00  5.8502245973003396e-05 1.3424204092069394e-04 0.0000000000000000e+00  6.1614242085816532e-05 1.4447679352040332e-04 0.0000000000000000e+00  6.4154762850022988e-05 1.5468532850412906e-04 0.0000000000000000e+00  6.5684944889715682e-05 1.6461080024693316e-04 0.0000000000000000e+00  6.6518985635533601e-05 1.7447369745464292e-04 0.0000000000000000e+00  6.6668041269597649e-05 1.8387681520968518e-04 0.0000000000000000e+00  6.5757175285880741e-05 1.9242845775084967e-04 0.0000000000000000e+00  6.4217039601825791e-05 2.0043082903851148e-04 0.0000000000000000e+00  6.1818608332835938e-05 2.0739291494934300e-04 0.0000000000000000e+00  5.8740391541588794e-05 2.1335687637757131e-04 0.0000000000000000e+00  5.5057009495701072e-05 2.1794016100303929e-04 0.0000000000000000e+00  5.0814823783838099e-05 2.2107756032454967e-04 0.0000000000000000e+00  4.6273514110871871e-05 2.2257705851556583e-04 0.0000000000000000e+00  4.1578540684365031e-05 2.2234288650808040e-04 0.0000000000000000e+00  3.6973412091540918e-05 2.2036714730225531e-04 0.0000000000000000e+00  3.2606001285417796e-05 2.1673422059224258e-04 0.0000000000000000e+00  2.8714494637397251e-05 2.1151691025712429e-04 0.0000000000000000e+00  2.5377945970622792e-05 2.0497553449404875e-04 0.0000000000000000e+00  2.2853444454490328e-05 1.9709366495672439e-04 0.0000000000000000e+00  2.1100760019295922e-05 1.8821240004560555e-04 0.0000000000000000e+00  2.0167214298689754e-05 1.7871585186590423e-04 0.0000000000000000e+00  2.0310484367977537e-05 1.6871206505117713e-04 0.0000000000000000e+00  2.1258497810510271e-05 1.5838933726105526e-04 0.0000000000000000e+00  2.2594993138101658e-05 1.4851544615853153e-04 0.0000000000000000e+00  2.5205691779019837e-05 1.3800525424153938e-04 0.0000000000000000e+00  2.7670334360042414e-05 1.2817519425042546e-04 0.0000000000000000e+00  3.1811219195901817e-05 1.1743043829673474e-04 0.0000000000000000e+00  3.6140500311385667e-05 1.0685171683106504e-04 0.0000000000000000e+00  4.1355765893139355e-05 9.6224061573767304e-05 0.0000000000000000e+00  4.7282792613527186e-05 8.6319334080644860e-05 0.0000000000000000e+00  5.3956999474142226e-05 7.6257466247806976e-05 0.0000000000000000e+00  6.0164920814238737e-05 6.7620740295006333e-05 0.0000000000000000e+00  6.6911325492969908e-05 5.9646100075873266e-05 0.0000000000000000e+00  7.2106141352375839e-05 5.3166821790026564e-05 0.0000000000000000e+00  8.3633455029861870e-05 4.0625445823884149e-05 0.0000000000000000e+00  9.0488258135756306e-05 3.3632353190201578e-05 0.0000000000000000e+00  9.9507210340654922e-05 2.4986497730060961e-05 0.0000000000000000e+00  1.0985782715598231e-04 1.5819723157587844e-05 0.0000000000000000e+00  1.2012320928309914e-04 7.8097858050964053e-06 0.0000000000000000e+00  1.3117121782905050e-04 -9.5120461273235082e-07 0.0000000000000000e+00  1.4211220684412346e-04 -7.6566609122142836e-06 0.0000000000000000e+00  1.5396431349454871e-04 -1.7217253552126968e-05 0.0000000000000000e+00  1.7049628925732254e-04 -2.7324224451950540e-05 0.0000000000000000e+00  1.6807991503136867e-04 -2.0796886683511278e-05 0.0000000000000000e+00  2.0119600536222309e-04 -3.4558096434341100e-05 0.0000000000000000e+00  2.1159979483910079e-04 -3.7466141103815376e-05 0.0000000000000000e+00  2.0835525594492822e-04 -2.9052203246571726e-05 0.0000000000000000e+00  2.1604371887046889e-04 -2.8333420427651130e-05 0.0000000000000000e+00  2.2335392618486773e-04 -2.4291409806655856e-05 0.0000000000000000e+00  2.2341748293860415e-04 -1.9741687446306294e-05 0.0000000000000000e+00  2.3858605497692424e-04 -1.6209153939127592e-05 0.0000000000000000e+00  2.3311895377281232e-04 -1.0218656480830306e-05 0.0000000000000000e+00  2.2811382982453648e-04 -6.0267006531203295e-06 0.0000000000000000e+00  2.3861053259354025e-04 -8.7665949223331917e-07 0.0000000000000000e+00  2.3517603611000152e-04 2.9261825469180669e-06 0.0000000000000000e+00  2.3451409201079339e-04 6.4225137821575407e-06 0.0000000000000000e+00  2.3526412560847902e-04 1.0042819068635021e-05 0.0000000000000000e+00  2.3819282084768030e-04 1.3845843499952710e-05 0.0000000000000000e+00  2.3183824504932547e-04 1.8774076274001184e-05 0.0000000000000000e+00  2.3449909099246551e-04 2.2721862554612918e-05 0.0000000000000000e+00  2.3863924870830806e-04 2.8053426673465592e-05 0.0000000000000000e+00  2.2599850822245957e-04 3.2000936089184796e-05 0.0000000000000000e+00  2.2664489240117753e-04 3.6616406160601181e-05 0.0000000000000000e+00  2.2001206294631527e-04 4.0555410299257142e-05 0.0000000000000000e+00  2.1374379408075638e-04 4.1929132887600254e-05 0.0000000000000000e+00  2.1447591969882111e-04 4.8527253272004170e-05 0.0000000000000000e+00  2.0850827821480505e-04 4.8126533948396205e-05 0.0000000000000000e+00  1.8008932056243150e-04 3.8082617358196349e-05 0.0000000000000000e+00  1.7682652636168329e-04 4.0208027170196220e-05 0.0000000000000000e+00  1.6304337064964336e-04 3.4077937835076416e-05 0.0000000000000000e+00  1.5006466236930523e-04 2.4833660255322950e-05 0.0000000000000000e+00  1.3831274161807617e-04 1.8028212060610477e-05 0.0000000000000000e+00  1.2712311325475994e-04 9.8387275799659476e-06 0.0000000000000000e+00  1.1679979517636111e-04 2.4032774408375020e-06 0.0000000000000000e+00  1.0612318633000833e-04 -6.4899845401963202e-06 0.0000000000000000e+00  9.8033180536930405e-05 -1.3913340978140370e-05 0.0000000000000000e+00  9.3469005945350721e-05 -1.7799162681864223e-05 0.0000000000000000e+00  7.7735831816284649e-05 -3.3671785508512297e-05 0.0000000000000000e+00  7.5491669102998322e-05 -3.6689255183270003e-05 0.0000000000000000e+00  6.9698825506514541e-05 -4.2375622345679365e-05 0.0000000000000000e+00  6.3808676318768617e-05 -5.0011893703489014e-05 0.0000000000000000e+00  5.7395639640607742e-05 -5.8796648156312527e-05 0.0000000000000000e+00  5.1850029388188938e-05 -6.7770845197691535e-05 0.0000000000000000e+00  4.7623876634339787e-05 -7.6000334477313404e-05 0.0000000000000000e+00  4.6330518681986649e-05 -8.1556945030394695e-05 0.0000000000000000e+00  3.8320525194657348e-05 -9.5112171489168643e-05 0.0000000000000000e+00  3.8546256932796477e-05 -1.0017958157275533e-04 0.0000000000000000e+00  3.5250543908340109e-05 -1.0868545852827537e-04 0.0000000000000000e+00  3.3730847892953782e-05 -1.1712600888200367e-04 0.0000000000000000e+00  3.2014739755644167e-05 -1.2680163703236366e-04 0.0000000000000000e+00  3.0608501330102813e-05 -1.3718674926206461e-04 0.0000000000000000e+00  3.0995790909637212e-05 -1.4661566391007005e-04 0.0000000000000000e+00  3.2061081387911625e-05 -1.5582110216459007e-04 0.0000000000000000e+00  3.3896401560943042e-05 -1.6420288314815523e-04 0.0000000000000000e+00  3.6725532457537911e-05 -1.7108023632449033e-04 0.0000000000000000e+00  4.0116309360809207e-05 -1.7676573218516697e-04 0.0000000000000000e+00  4.4060627365453670e-05 -1.8093530926540033e-04 0.0000000000000000e+00  4.8312389325562492e-05 -1.8360830013364443e-04 0.0000000000000000e+00  5.2700366994795258e-05 -1.8462037218224469e-04 0.0000000000000000e+00  5.7029287591613358e-05 -1.8411080640529275e-04 0.0000000000000000e+00  6.1045625217351181e-05 -1.8196539579690534e-04 0.0000000000000000e+00  6.4668360230676057e-05 -1.7843511737451281e-04 0.0000000000000000e+00  6.7660684642856472e-05 -1.7346634033743336e-04 0.0000000000000000e+00  7.0075032541179613e-05 -1.6747684761946730e-04 0.0000000000000000e+00  7.1545344564015944e-05 -1.6023378061654389e-04 0.0000000000000000e+00  7.2572016575435952e-05 -1.5256102532735496e-04 0.0000000000000000e+00  7.2240004136959180e-05 -1.4346187558135853e-04 0.0000000000000000e+00  7.1293149707286332e-05 -1.3385662178942462e-04 0.0000000000000000e+00  6.9737306536067159e-05 -1.2431843616047563e-04 0.0000000000000000e+00  6.6556477373295317e-05 -1.1399208345729627e-04 0.0000000000000000e+00  6.3328241988564943e-05 -1.0415583834723269e-04 0.0000000000000000e+00  5.9403803747759619e-05 -9.4411696138653166e-05 0.0000000000000000e+00  5.4794607443503291e-05 -8.4530029801240731e-05 0.0000000000000000e+00  4.9484539311253963e-05 -7.4521013834626872e-05 0.0000000000000000e+00  4.3275345163788483e-05 -6.4230425154860888e-05 0.0000000000000000e+00  3.6232426972079622e-05 -5.3877794556964900e-05 0.0000000000000000e+00  2.8304255275209488e-05 -4.3465180197768462e-05 0.0000000000000000e+00  2.0640335470734625e-05 -3.4668541991636136e-05 0.0000000000000000e+00  1.1849490003472532e-05 -2.5512671707903470e-05 0.0000000000000000e+00  3.2315162046394453e-06 -1.7502692181927894e-05 0.0000000000000000e+00  -5.4760045207434629e-06 -1.0205727516930239e-05 0.0000000000000000e+00  -1.3716281077623630e-05 -4.2007868831804947e-06 0.0000000000000000e+00  -2.3406519010045796e-05 3.2652953374952583e-06 0.0000000000000000e+00  -3.3372938831996795e-05 9.9398414135212745e-06 0.0000000000000000e+00  -4.3459205606626653e-05 1.6334652776851280e-05 0.0000000000000000e+00  -5.2804960790674605e-05 2.0915515157949209e-05 0.0000000000000000e+00  -6.2604349033245691e-05 2.5444672616258659e-05 0.0000000000000000e+00  -7.2004324406158211e-05 2.8767010979711424e-05 0.0000000000000000e+00  -8.1024146207727812e-05 3.0971080514665795e-05 0.0000000000000000e+00  -8.8584803878501110e-05 3.1974050778581890e-05 0.0000000000000000e+00  -9.8355007456720181e-05 3.3451713388136361e-05 0.0000000000000000e+00  -1.0546711465147686e-04 3.3411484175802725e-05 0.0000000000000000e+00  -1.1170103371359018e-04 3.2679930977820893e-05 0.0000000000000000e+00  -1.1833874634062353e-04 3.1174464403264796e-05 0.0000000000000000e+00  -1.2272236960054217e-04 2.8980181673826902e-05 0.0000000000000000e+00  -1.2707108225036993e-04 2.6351376182267661e-05 0.0000000000000000e+00  -1.3010469028338519e-04 2.3302027970158868e-05 0.0000000000000000e+00  -1.3257323476079791e-04 2.0011782388636512e-05 0.0000000000000000e+00  -1.3386604788747869e-04 1.6462901161354092e-05 0.0000000000000000e+00  5.1481292932727185e-05 1.4406647084013878e-04 0.0000000000000000e+00  2.2947383818705915e-06 -7.0588283091772621e-05 0.0000000000000000e+00  1.1878658907024306e-04 -4.4203795105005053e-05 0.0000000000000000e+00  5.6710660363331052e-05 -1.0887400851219418e-04 0.0000000000000000e+00  -1.9389650754109817e-06 9.9463565422011993e-05 0.0000000000000000e+00  -8.4056761221315809e-05 2.3746787624813812e-05 0.0000000000000000e+00  1.1774098313488501e-04 6.8700039473631113e-05 0.0000000000000000e+00  2.0565222971203329e-04 8.5342168438655361e-06 0.0000000000000000e+00  -8.3824613739223372e-05 3.0209811077646142e-06 0.0000000000000000e+00  1.6617400427512114e-04 -9.9309618658232757e-06 0.0000000000000000e+00  1.5292815226414556e-04 1.0732949661257388e-05 0.0000000000000000e+00  1.0953572782403924e-04 -1.0617864187632975e-05 0.0000000000000000e+00  1.6680703897685410e-04 2.8509493752055729e-05 0.0000000000000000e+00  3.4300833058791702e-05 -1.0551210212393718e-04 0.0000000000000000e+00  3.3023634427649134e-05 -2.3276529935141998e-05 0.0000000000000000e+00  3.0215129075592924e-05 1.3741159164464516e-04 0.0000000000000000e+00  6.6778333132189291e-06 5.2090905655772359e-05 0.0000000000000000e+00  -3.3780074749853746e-05 1.4369225200356865e-05 0.0000000000000000e+00  8.1502786834285762e-05 -8.0227632414327926e-05 0.0000000000000000e+00  7.7820023802408080e-05 1.1263087192315799e-04 0.0000000000000000e+00  8.0957357372269328e-05 5.9726185519604335e-05 0.0000000000000000e+00  -4.3909619039718902e-05 -2.5832830887602837e-05 0.0000000000000000e+00  -4.5679465202124741e-05 5.3402193933943606e-05 0.0000000000000000e+00  1.1117505418802770e-06 -2.5762660482443235e-05 0.0000000000000000e+00  4.4205443237554584e-05 6.2297084593288121e-05 0.0000000000000000e+00  1.1499957164137829e-04 4.4599771446395362e-05 0.0000000000000000e+00  7.1059478643909133e-05 -2.1110449944312134e-05 0.0000000000000000e+00  -6.7317712920399289e-05 1.3655998841756346e-05 0.0000000000000000e+00  -1.1029914697258114e-04 1.3146608937750692e-05 0.0000000000000000e+00  -2.0318297749140330e-05 -4.7135221096078656e-05 0.0000000000000000e+00  -4.3132123981632801e-05 -1.1634089398525740e-05 0.0000000000000000e+00  -2.1488094964630796e-05 -2.8155195032251576e-05 0.0000000000000000e+00  -1.6952032860522395e-05 -3.9720923117959012e-06 0.0000000000000000e+00  -1.3900211189806517e-06 -5.1576297801280545e-05 0.0000000000000000e+00  -5.9665695212161099e-05 -5.9853573410266083e-06 0.0000000000000000e+00  -5.0745865838659839e-05 1.3996372403913487e-05 0.0000000000000000e+00  1.6369512024561647e-04 2.5792461361309785e-05 0.0000000000000000e+00  1.9102466710727278e-04 1.3432350619529937e-05 0.0000000000000000e+00  1.8081364271499382e-04 9.9968189918172679e-06 0.0000000000000000e+00  1.6309730257987301e-04 -5.1981649745711033e-06 0.0000000000000000e+00  1.9104109563710273e-04 4.9045699528269903e-06 0.0000000000000000e+00  2.0644902946597335e-04 1.6378885974485777e-05 0.0000000000000000e+00  2.2108816939665594e-04 1.3678832899114260e-05 0.0000000000000000e+00  2.2051373820790727e-04 8.9780641777311989e-07 0.0000000000000000e+00  2.0439052316008062e-04 3.2188177979377753e-08 0.0000000000000000e+00  6.3303195768323061e-05 -6.5709188362992024e-05 0.0000000000000000e+00  8.0303330450837382e-05 -5.5405397677449126e-05 0.0000000000000000e+00  6.8091169520390912e-05 -9.6032650077151403e-05 0.0000000000000000e+00  9.0034121862959677e-05 -1.6030606952333053e-05 0.0000000000000000e+00  9.7439062100761789e-05 -4.6204896756208163e-05 0.0000000000000000e+00  1.7907198284678860e-04 8.3066552573262053e-06 0.0000000000000000e+00  1.7615680431878083e-04 8.7605665943497096e-06 0.0000000000000000e+00  1.7139454333185616e-05 -6.5504171836040109e-05 0.0000000000000000e+00  1.6990963427227917e-05 -2.5238711899612910e-05 0.0000000000000000e+00  3.0504452309119715e-05 -6.6514591092397122e-05 0.0000000000000000e+00  1.4176323438455822e-04 4.7990044782185541e-05 0.0000000000000000e+00  1.4201031550302245e-04 3.9636804315219344e-05 0.0000000000000000e+00  -9.5619915792591629e-05 1.3961917803043639e-05 0.0000000000000000e+00  -6.6481551325388083e-05 -3.1957709555569396e-07 0.0000000000000000e+00  -6.7135177069541375e-05 2.7325765163405455e-05 0.0000000000000000e+00  -9.5417315684622131e-05 1.2638584324229898e-05 0.0000000000000000e+00  8.6832577603573354e-05 -6.4560161960640502e-05 0.0000000000000000e+00  1.1299228272348024e-04 -3.8806323679163707e-05 0.0000000000000000e+00  1.0906786912221137e-04 6.1513481596357647e-05 0.0000000000000000e+00  8.1891857617607308e-05 9.2157122296437929e-05 0.0000000000000000e+00  1.2809120917187574e-05 -7.4168144125619207e-05 0.0000000000000000e+00  3.2802751866247534e-05 -1.0516570750119497e-04 0.0000000000000000e+00  2.7329042759349666e-05 1.3499481415253691e-04 0.0000000000000000e+00  8.6060542844218404e-06 1.0287774871149647e-04 0.0000000000000000e+00  5.2218195604862108e-05 -1.4952143748208653e-04 0.0000000000000000e+00  5.4642125967415192e-05 -1.3718612104290028e-04 0.0000000000000000e+00  4.5964710575607214e-05 1.7457231650349790e-04 0.0000000000000000e+00  4.4340995407126387e-05 1.8623621319359786e-04 0.0000000000000000e+00  1.9593449425873172e-05 -8.9290797459416353e-05 0.0000000000000000e+00  -1.3852258757556388e-05 3.1454780419463741e-05 0.0000000000000000e+00  -2.3514275814341024e-05 5.6753456550277954e-05 0.0000000000000000e+00  -1.6365314403839097e-06 8.0469737737401528e-05 0.0000000000000000e+00  1.1816214047073078e-04 -3.2838545866994638e-05 0.0000000000000000e+00  1.3130585834509443e-04 1.9180545394110975e-06 0.0000000000000000e+00  1.4180970360262127e-04 -1.6733567029973381e-05 0.0000000000000000e+00  2.5584026892060249e-05 5.7918103166894092e-05 0.0000000000000000e+00  3.8157815974565342e-05 1.9177139241230751e-05 0.0000000000000000e+00  1.8603212887296436e-05 1.5565438939787001e-05 0.0000000000000000e+00  1.3922256729058499e-04 -1.7417267691997881e-05 0.0000000000000000e+00  1.3642976514134165e-04 3.6631182797538928e-05 0.0000000000000000e+00  1.4171438882554948e-04 -2.6776363995474542e-05 0.0000000000000000e+00  -4.4240571294549885e-05 3.9732314683161261e-05 0.0000000000000000e+00  -2.3273242790391086e-05 7.5288376716300557e-05 0.0000000000000000e+00  -6.0489482417944476e-05 3.3386541395214679e-05 0.0000000000000000e+00  1.7624959489890246e-05 9.4654246523886163e-05 0.0000000000000000e+00  1.5498844864251608e-05 1.2002245692264451e-04 0.0000000000000000e+00  4.7513182934574624e-05 -6.8336844474813500e-05 0.0000000000000000e+00  4.5887190431597062e-05 -1.1068971861504987e-04 0.0000000000000000e+00  8.2792129793823329e-05 8.9604115244041311e-05 0.0000000000000000e+00  6.4935732346557286e-05 1.0162991760267685e-04 0.0000000000000000e+00  6.3521966800541985e-05 1.3057768567816433e-04 0.0000000000000000e+00  1.7379220999202809e-06 1.2282860217682120e-05 0.0000000000000000e+00  5.2022275415637966e-05 -2.2865036489335125e-05 0.0000000000000000e+00  4.4364709233680720e-05 -1.2911159835719558e-04 0.0000000000000000e+00  5.0442090005976687e-05 -1.4712130087194130e-04 0.0000000000000000e+00  4.3048905690710165e-05 1.8105615144496507e-04 0.0000000000000000e+00  3.8080411335408390e-05 1.6173633428445520e-04 0.0000000000000000e+00  5.7990495913234074e-05 1.9716324140322092e-05 0.0000000000000000e+00  3.3800635196952791e-05 1.0205853326943510e-04 0.0000000000000000e+00  4.1294989849269921e-05 1.4415096174260144e-04 0.0000000000000000e+00  6.0542265027409867e-05 -1.1502000149095442e-04 0.0000000000000000e+00  7.1527407598094838e-05 -8.8346845112820393e-05 0.0000000000000000e+00  9.8440359143164724e-05 -6.2238791852233045e-05 0.0000000000000000e+00  6.4008788818712634e-05 1.2054679135118695e-04 0.0000000000000000e+00  5.1594964513876212e-05 1.5137826418579997e-04 0.0000000000000000e+00  9.6242301660889794e-05 9.0474521276422338e-05 0.0000000000000000e+00  1.3467989798534476e-04 2.5321403876781743e-05 0.0000000000000000e+00  1.1939366621728521e-04 6.0709939375728121e-05 0.0000000000000000e+00  -1.2294151528530474e-04 1.30459167