<?xml version="1.0"?>
<VTKFile type="UnstructuredGrid"  version="0.1"  >
<UnstructuredGrid>
<Piece  NumberOfPoints="2549" NumberOfCells="4928">
<Points>
<DataArray  type="Float64"  NumberOfComponents="3"  format="ascii">1.664937503007732 -0.04383978210196274 0  1.66173445509281 0.004442097835470914 0  1.654552748285341 0.05215354077439849 0  1.64571185705874 0.09996146461069536 0  1.633759551611507 0.1473764392976731 0  1.619310747363429 0.1945679479028893 0  1.60153661856786 0.2409931491686184 0  1.581852583659816 0.2871296521925942 0  1.556621335874108 0.3305228955928992 0  1.529904810535097 0.3721491953834863 0  1.504774372081078 0.4181194212121316 0  1.474762404329447 0.4598790315287477 0  1.443925221360054 0.5017887022646127 0  1.411011212851966 0.542174084345045 0  1.376552865344946 0.5816247912647613 0  1.340837928982476 0.6203411977614349 0  1.302315512934834 0.6561167538430148 0  1.264551702931805 0.6913376629255421 0  1.226574507357834 0.730883095489185 0  1.186347628674153 0.766856095519729 0  1.145828371061664 0.8038474482490032 0  1.103910326504776 0.8395924643300976 0  1.061125106466793 0.8750556904921829 0  1.017061539941275 0.9097034666987751 0  0.9713435636592872 0.9424803945818816 0  0.9252427252392255 0.9738983180905705 0  0.8780020370854623 1.004905990496685 0  0.829839811395559 1.03503716269129 0  0.7807992364287915 1.064412282873314 0  0.7307344696699121 1.092527576755614 0  0.6797090508665437 1.119349676905995 0  0.6277423205786253 1.144728085723589 0  0.5747259891121252 1.168098570910213 0  0.5209880425532716 1.18957193073532 0  0.4664579276799379 1.20962732550388 0  0.4111549062139098 1.227496562732178 0  0.3551920851010594 1.243347407837044 0  0.2986298927542708 1.256970295357253 0  0.2415568632006436 1.268335376386609 0  0.1840761178299586 1.277423347151332 0  0.1262181895322242 1.283895887248327 0  0.06822442041819676 1.287988117525471 0  0.01007932886093532 1.289927377799215 0  -0.04809401152101737 1.289351399581073 0  -0.1062112060370829 1.286341928668159 0  -0.1641563464778479 1.280806047232931 0  -0.2218283853421006 1.27282253552517 0  -0.2791073686675051 1.262211813409326 0  -0.3358961482438081 1.249480525435058 0  -0.3922106013530188 1.234244582853756 0  -0.4477088183010821 1.216265891579871 0  -0.502420194627229 1.19604534191825 0  -0.5562597296090702 1.173750186089715 0  -0.6091016378222039 1.149349496467524 0  -0.6610670918011531 1.123533883609814 0  -0.7118441622564369 1.095536699057797 0  -0.7616394732783144 1.067345812664117 0  -0.8107857554951777 1.037531303943611 0  -0.8583447778093145 1.005523451624022 0  -0.9047821462985812 0.9725931296118292 0  -0.9501774735413046 0.9389923102764628 0  -0.9942716209991751 0.9042136275935972 0  -1.037664136603245 0.8698081035320582 0  -1.079020941359717 0.8322979132217314 0  -1.120068590066901 0.7984689815066107 0  -1.160958944251005 0.7647184787922361 0  -1.200556792936694 0.7296428243029461 0  -1.239548909025896 0.6949194341654354 0  -1.27738388715606 0.6594190388317511 0  -1.315500842184951 0.6259278646798379 0  -1.353398102925767 0.5911720619163612 0  -1.389542646363239 0.5572049876727675 0  -1.428524015954115 0.5229786806081741 0  -1.456225443703973 0.4767621702671784 0  -1.487460062130102 0.4341268790701879 0  -1.513944490338497 0.3887621309047438 0  -1.538074993927876 0.3422573964184477 0  -1.556022588505956 0.2925579783495887 0  -1.574087646201008 0.244593548918974 0  -1.577787691100315 0.1897804262972363 0  -1.591496010479832 0.1444721563333375 0  -1.602258684565427 0.09707272517463293 0  -1.598104345455119 0.0482264315949715 0  -1.601806857592028 0.001312976117665219 0  -1.600926168420234 -0.04526074361257629 0  -1.603155870084037 -0.09189278230834687 0  -1.600789158910276 -0.1390550712415716 0  -1.605811700715855 -0.1883436892044976 0  -1.596258487536346 -0.2362372642766649 0  -1.583551171135452 -0.2821023751617765 0  -1.581211709997314 -0.3381496497128298 0  -1.563722351502284 -0.3867820389975221 0  -1.546158248550285 -0.4371962841243497 0  -1.522035899867015 -0.4840713013727317 0  -1.495142396811568 -0.5294658174997495 0  -1.464239891760826 -0.5722972715271993 0  -1.436473382671597 -0.6186707087096478 0  -1.397144430796201 -0.6531506713022871 0  -1.361061746988993 -0.6874546591198555 0  -1.322983235398135 -0.7222711852754272 0  -1.284936025428003 -0.7560240701066134 0  -1.247265586377721 -0.7919997861714805 0  -1.208486851479169 -0.8273085781760741 0  -1.169147583425616 -0.8631333906378024 0  -1.128691969920327 -0.8978718385237906 0  -1.087929740315549 -0.9329309957211086 0  -1.047235177482969 -0.9727819264421982 0  -1.004004463480443 -1.008786108390964 0  -0.9601063104042237 -1.045369012348017 0  -0.9148607325106154 -1.080865057878774 0  -0.8685181678395013 -1.115772553073701 0  -0.8209481378309953 -1.149723004342503 0  -0.7720493568643461 -1.182099770704728 0  -0.7221662836807167 -1.213630740157091 0  -0.6713645240938377 -1.245687234740793 0  -0.6187879153785447 -1.274189532878117 0  -0.5653444813642046 -1.301211606979745 0  -0.5107339199538475 -1.325791118146983 0  -0.4551516989612307 -1.348054285765531 0  -0.3987310306167265 -1.367946671616572 0  -0.3412339503447055 -1.38437744870472 0  -0.2833267537493107 -1.397978902501981 0  -0.2248880896143879 -1.409584513170221 0  -0.1659746077995612 -1.418225376290692 0  -0.1067399600189866 -1.424195106287689 0  -0.04728788923564198 -1.427286983357763 0  0.01224391612932882 -1.427541747150294 0  0.07172868878862852 -1.42488762650273 0  0.1310291778525204 -1.419300014077575 0  0.1899613136343861 -1.411014259865691 0  0.2484702528706012 -1.400280771895529 0  0.3064533193519647 -1.387062656565594 0  0.3638284470624699 -1.371512174545473 0  0.4204856705182933 -1.353631653742212 0  0.4763946030097099 -1.333820009095209 0  0.5314106673143292 -1.311672008358437 0  0.5855620991671973 -1.28869176336028 0  0.6390922053364102 -1.263661634298578 0  0.691315675507097 -1.236193831457707 0  0.7425519809777096 -1.20743325070732 0  0.7927438534042491 -1.177433251193988 0  0.8418551739047182 -1.14627362119138 0  0.8900193233009934 -1.114410490258081 0  0.9372178437003209 -1.081809582901645 0  0.9832669585118907 -1.048959350849826 0  1.028856363887794 -1.014666695771877 0  1.07277919753933 -0.9786383238276124 0  1.115391426304908 -0.9418776445669833 0  1.157105796027035 -0.9048876096312386 0  1.197399445618001 -0.8667166787407804 0  1.237361931684571 -0.8296010231893576 0  1.274939013106347 -0.788785792272345 0  1.312487373426595 -0.7527930763515803 0  1.350701168756869 -0.7161877660235236 0  1.386132622674856 -0.6766996295674681 0  1.420312324571541 -0.6365492563893614 0  1.452924860340756 -0.5954819515160893 0  1.483444623105447 -0.5529128119699732 0  1.513082170227872 -0.5105014376625662 0  1.537745319371248 -0.4638151782341035 0  1.564125727207306 -0.4217119075602998 0  1.588842960679734 -0.3777223209082853 0  1.607901332130288 -0.3309900571227762 0  1.624963535030678 -0.2840104850348296 0  1.638598176996813 -0.236299784065305 0  1.649492107662782 -0.1883766927686784 0  1.657296979538982 -0.1402198723848408 0  1.662939798637365 -0.09217493907679908 0  -0.09056959209372631 0.7657613428908097 0  0.6196538350694302 -0.7103998300610659 0  -0.7514002031629129 -0.6255649181195377 0  -0.06715962796345898 -0.8738766994593791 0  0.6156975388979563 0.5998112341656623 0  1.183742196290747 0.1956320503007233 0  -0.7640592215872939 0.5103219477067662 0  -1.25153251770012 -0.05035434601018206 0  1.188258086338851 -0.2913387435411637 0  -1.049747956053838 -0.4584075412931423 0  -0.8074512394560377 -0.06534120114598574 0  -0.4776565276419159 -0.2352352722166403 0  -1.06044966403447 0.3388538246694137 0  0.2935854697038725 -0.8520839399391692 0  0.1483829451448339 -0.2934374582706122 0  0.2573143821254544 0.7297103097765869 0  0.3540681594812037 0.1887487120775103 0  0.6768940305284931 -0.04956820935901159 0  -0.4077155064919809 -0.7714813904951777 0  -0.4442232551040036 0.6766630303611464 0  -0.271920678385904 0.2425342513910613 0  0.934268660357513 -0.4921795671013751 0  0.9299842331408443 0.3920171530208811 0  0.4231171602428104 -0.3238288677813039 0  0.03930986176950757 0.2377616664483678 0  -0.5422950179946696 0.1844608895741771 0  -0.1673983703798992 -0.2862619517405762 0  0.966855248384595 -0.04879280047630456 0  1.382250947896645 -0.04606123883079482 0  0.7772185233808777 -0.5986215684597206 0  0.7976354912284828 -0.2791806963891476 0  0.6399274141122123 -0.376861492016572 0  0.5487874749433369 -0.1831689668741633 0  0.5161014233713963 -0.5216481583823804 0  0.9442031639848472 -0.2689371367554701 0  0.8212558858160594 -0.04915126968780616 0  -0.9261776207219677 0.1447802499168662 0  -1.152267142676777 0.1412828097638892 0  -1.031940094477716 -0.05698120813000968 0  -0.9206703399460617 -0.2693915290992255 0  -1.147700826205476 -0.2506066469890634 0  -1.325694640374304 -0.3453421509688751 0  -1.416162012490351 -0.1609921458521729 0  -1.413592549771568 0.06451270710380097 0  -1.320360527306144 0.2475262779804729 0  -0.1177907386038124 -0.5794998579922638 0  -0.2816531243353184 -0.5339489461781116 0  -0.2385321330774844 -0.8277005537851578 0  -0.3219269543973853 -0.261794883453857 0  -0.4394027018801737 -0.5008554372889654 0  -1.239579343563509 -0.5412057135226651 0  -1.240578089981971 0.4352581441092431 0  0.3572834637110515 -0.585511901070122 0  0.2849913578725604 -0.3101101105501879 0  0.2160458951085666 -0.5752686259894757 0  -0.911691239616363 0.4205595655768573 0  -0.7775835408565042 0.2205861585513673 0  1.374072123910186 -0.3663565489327671 0  1.240218959823571 -0.5288316882792073 0  1.232917558230521 0.4328967851980398 0  1.368028437520543 0.2731894461284249 0  -0.7501226322475355 -0.9043794256302438 0  -0.9306420532203195 -0.7749047022850399 0  -0.9330853107288702 0.667261541814818 0  -0.7529956159256657 0.7889807482390826 0  0.7894851944056485 -0.8922150029384331 0  0.5962183074343204 -0.9992883320788994 0  0.589630137064163 0.8843098331657483 0  0.7821050392694162 0.7837455270834524 0  0.0223
[...]
<CellData  Scalars="f_4496"> 
<DataArray  type="Float64"  Name="f_4496"  format="ascii">1.1178774453442220e-01   1.1180224228886691e-01   1.1178611687711981e-01   1.1179430330675637e-01   1.1180130357046822e-01   1.1179167214575306e-01   1.1180487718359722e-01   1.1180429515189445e-01   1.1178578365883189e-01   1.1180182599668233e-01   1.1178488757096715e-01   1.1179165842784032e-01   1.1178681236379628e-01   1.1180605412750595e-01   1.1178594969395156e-01   1.1178244399862630e-01   1.1180209009322374e-01   1.1179196596433226e-01   1.1180465142464829e-01   1.1180515902258976e-01   1.1178549657524660e-01   1.1180507672489320e-01   1.1178251859958323e-01   1.1178672830670036e-01   1.1180655914604888e-01   1.1179156504661752e-01   1.1179785030467300e-01   1.1180760368618277e-01   1.1180573964661243e-01   1.1178342795803793e-01   1.1180627143070811e-01   1.1180706328436417e-01   1.1178484391045562e-01   1.1180171138666806e-01   1.1178312921142418e-01   1.1179055844531029e-01   1.1180311927650734e-01   1.1179748477431037e-01   1.1179803912527204e-01   1.1180627564226149e-01   1.1178920327055654e-01   1.1179681920229130e-01   1.1176497968074309e-01   1.1177097743247282e-01   1.1179341414166853e-01   1.1179779912321593e-01   1.1176385540405449e-01   1.1175972306633318e-01   1.1177803776047514e-01   1.1180757214119283e-01   1.1177911072288071e-01   1.1177068622989396e-01   1.1180899207847535e-01   1.1178684086949058e-01   1.1179828018088286e-01   1.1180705892506551e-01   1.1178852402263249e-01   1.1179788689876001e-01   1.1175484022101267e-01   1.1174965096973220e-01   1.1177982019959393e-01   1.1179898872412361e-01   1.1174481951013533e-01   1.1174594092944246e-01   1.1176942899173446e-01   1.1175828433281047e-01   1.1173513869210334e-01   1.1182357011692583e-01   1.1176054052668484e-01   1.1181713563403953e-01   1.1177787637272431e-01   1.1178042052029968e-01   1.1173788972642015e-01   1.1175400856985895e-01   1.1173065342022627e-01   1.1181880135768325e-01   1.1180296886165819e-01   1.1177963663338260e-01   1.1180033533024830e-01   1.1180425822071348e-01   1.1175169402961542e-01   1.1182033283916283e-01   1.1177768574387242e-01   1.1177784269323254e-01   1.1179786354771659e-01   1.1177843462782679e-01   1.1180101467842746e-01   1.1180050102467912e-01   1.1178094650768711e-01   1.1180658014294603e-01   1.1178069177956659e-01   1.1178631632986451e-01   1.1177849380636826e-01   1.1180297774232417e-01   1.1178384718611241e-01   1.1178338496704698e-01   1.1172454549660155e-01   1.1174814368772228e-01   1.1171661821348200e-01   1.1181871631776746e-01   1.1175301311283184e-01   1.1182832016873583e-01   1.1177143382468281e-01   1.1178038119832108e-01   1.1171691437888193e-01   1.1173553085095300e-01   1.1166013046690394e-01   1.1177767309167809e-01   1.1180443219240641e-01   1.1177331627667388e-01   1.1176178355794310e-01   1.1177194441261877e-01   1.1180118920005065e-01   1.1178720184240831e-01   1.1179985552584064e-01   1.1179833416154064e-01   1.1178990203125745e-01   1.1180333030647392e-01   1.1178950286194965e-01   1.1179215518189339e-01   1.1180398419094403e-01   1.1178544357033765e-01   1.1177577684477746e-01   1.1178001301977562e-01   1.1180147626979493e-01   1.1179236097000862e-01   1.1178347712002056e-01   1.1178619328541127e-01   1.1182139043129841e-01   1.1180091766514277e-01   1.1178928561023364e-01   1.1183278226787312e-01   1.1178994095701324e-01   1.1179443748099133e-01   1.1179040748215101e-01   1.1180163995072134e-01   1.1179653136670650e-01   1.1179152671091640e-01   1.1179224543343314e-01   1.1180361661092295e-01   1.1183408250751857e-01   1.1180157694905062e-01   1.1179163789192417e-01   1.1183815305108492e-01   1.1179072861939017e-01   1.1180082160850766e-01   1.1179293081758840e-01   1.1179333587633812e-01   1.1179742484816810e-01   1.1179205603497780e-01   1.1180121802195223e-01   1.1180137358391926e-01   1.1179209258266362e-01   1.1179808444968427e-01   1.1179153301662829e-01   1.1179231888746469e-01   1.1178866456039356e-01   1.1179068090246891e-01   1.1178773168682514e-01   1.1180155616132220e-01   1.1179080890294155e-01   1.1179053331021820e-01   1.1178879698066994e-01   1.1180057504904775e-01   1.1179136346429765e-01   1.1180048485561130e-01   1.1179352491051189e-01   1.1179408648239761e-01   1.1178679158729764e-01   1.1179175078761018e-01   1.1177866158180835e-01   1.1179748926820493e-01   1.1179794104879155e-01   1.1179249619200726e-01   1.1179209499642410e-01   1.1179278375125679e-01   1.1184162735233753e-01   1.1180148555593879e-01   1.1178864201730704e-01   1.1184448642443241e-01   1.1178656011676238e-01   1.1178879275303213e-01   1.1178772576460955e-01   1.1180290534095703e-01   1.1180113338006205e-01   1.1179036583965017e-01   1.1179075666453023e-01   1.1179448726314191e-01   1.1184942500064922e-01   1.1179285571539660e-01   1.1177325689525330e-01   1.1185070074884723e-01   1.1181990088212727e-01   1.1179843030653303e-01   1.1181732207188658e-01   1.1179141400503834e-01   1.1179933293788114e-01   1.1179301081921468e-01   1.1179374744869250e-01   1.1179501077318180e-01   1.1181631626215241e-01   1.1179880493286498e-01   1.1181522577492126e-01   1.1179446602840838e-01   1.1179940240682179e-01   1.1179618467430229e-01   1.1179870903590443e-01   1.1179778983257556e-01   1.1179840412423711e-01   1.1179476022311176e-01   1.1179472270110749e-01   1.1179393031521559e-01   1.1180125211992778e-01   1.1179645242247520e-01   1.1179970874984144e-01   1.1179894036603483e-01   1.1179416978959322e-01   1.1179127756685944e-01   1.1180391252479401e-01   1.1179438673590239e-01   1.1179583376879899e-01   1.1179695031011089e-01   1.1179663260748515e-01   1.1179649322538719e-01   1.1181353283571198e-01   1.1179903595670788e-01   1.1181450841961886e-01   1.1179759413206199e-01   1.1179612322025652e-01   1.1178944987465259e-01   1.1180123503893412e-01   1.1179299545778755e-01   1.1180647438494844e-01   1.1180932381262862e-01   1.1182644049582781e-01   1.1182333745805602e-01   1.1179298118165383e-01   1.1180400494921437e-01   1.1182556649834872e-01   1.1182499835104144e-01   1.1179769676645353e-01   1.1179689819564201e-01   1.1179926215906853e-01   1.1180051503701936e-01   1.1179450132364871e-01   1.1179114768721790e-01   1.1180504931118922e-01   1.1179666482179006e-01   1.1179125491168478e-01   1.1180436345977465e-01   1.1182507698350590e-01   1.1182482667833485e-01   1.1178988432429277e-01   1.1180091422624951e-01   1.1182410392064855e-01   1.1182891957455578e-01   1.1182542592897322e-01   1.1180897349679969e-01   1.1180309120376056e-01   1.1182623067055414e-01   1.1179468435265111e-01   1.1178941032428545e-01   1.1179287673124129e-01   1.1180152060408026e-01   1.1181136859070855e-01   1.1179788294300196e-01   1.1180972136610663e-01   1.1179817209981623e-01   1.1182710727758387e-01   1.1180442779692602e-01   1.1179184527081232e-01   1.1182649697196025e-01   1.1179733479469083e-01   1.1179518432491219e-01   1.1179435796964636e-01   1.1179497440947357e-01   1.1179798667835930e-01   1.1179659935854500e-01   1.1179914732449553e-01   1.1180063621432344e-01   1.1179626182291334e-01   1.1179671188273373e-01   1.1179666876065908e-01   1.1179715233052662e-01   1.1179399960654209e-01   1.1179030655976070e-01   1.1179449890061889e-01   1.1180452648782511e-01   1.1181092782279874e-01   1.1179782107275853e-01   1.1181124977303347e-01   1.1179477859727674e-01   1.1179880599220493e-01   1.1179393801414500e-01   1.1179582382110508e-01   1.1179448940643003e-01   1.1181183085299029e-01   1.1179621246221158e-01   1.1181369725301953e-01   1.1178967606799380e-01   1.1179813923982647e-01   1.1179618364617670e-01   1.1179679605839953e-01   1.1179561089665573e-01   1.1182613981581621e-01   1.1180507627812582e-01   1.1179012064198053e-01   1.1182536734806220e-01   1.1179491478077658e-01   1.1179051191473866e-01   1.1179677914853628e-01   1.1180589662156364e-01   1.1179900420683075e-01   1.1179707971954472e-01   1.1179555017333914e-01   1.1179849582162181e-01   1.1182463686352312e-01   1.1180147718849608e-01   1.1178772741738539e-01   1.1182727306840771e-01   1.1020860624937037e-01   1.1269348681392406e-01   1.1189548945362811e-01   1.1198263611916114e-01   1.1170264588292943e-01   1.1176156996845177e-01   1.1178541460134914e-01   1.1115973313675871e-01   1.1180801738664825e-01   1.1180843511505895e-01   1.1179855853650354e-01   1.1180690524008226e-01   1.1173171991490413e-01   1.1235885642011180e-01   1.1180573155290732e-01   1.1132088185495199e-01   1.1178806017858495e-01   1.1178677681613974e-01   1.1180223559969490e-01   1.1179033244790053e-01   1.1178430846708939e-01   1.1180865909014391e-01   1.1178078018438317e-01   1.1178414927957293e-01   1.1180237259552155e-01   1.1179315280106253e-01   1.1180062733397572e-01   1.1183274911268395e-01   1.1186050569989822e-01   1.1180328906014102e-01   1.1170619788509766e-01   1.1104616889628850e-01   1.1179908748191207e-01   1.1180437699849052e-01   1.1179169190742526e-01   1.1179617911079569e-01   1.1180240255919623e-01   1.1179496408881055e-01   1.1179965681934297e-01   1.1180550379985631e-01   1.1180056485820819e-01   1.1179820735367482e-01   1.1177906332298559e-01   1.1177486682313642e-01   1.1179853870307935e-01   1.1180277349674397e-01   1.1177807357658141e-01   1.1177700357524910e-01   1.1224480653765234e-01   1.1271576559869755e-01   1.1176567553847845e-01   1.1023381902949550e-01   1.1195983290687689e-01   1.1226784390987786e-01   1.1195383948437559e-01   1.1041987634017005e-01   1.1171506787888898e-01   1.1176896478512928e-01   1.1181746388578868e-01   1.1162074422547899e-01   1.0939142459775597e-01   1.1165611451271840e-01   1.1237462900962177e-01   1.1208464974735562e-01   1.1213804730029991e-01   1.1163074162097723e-01   1.1237340750125557e-01   1.0948210148704937e-01   1.1193863237584530e-01   1.1224342464800911e-01   1.1194354417460448e-01   1.1052269423147497e-01   1.1162524091604617e-01   1.1177370243754702e-01   1.1181853097708154e-01   1.1172258579150900e-01   1.1035713963007326e-01   1.1265447531665056e-01   1.1177660232140341e-01   1.1218800656721797e-01   1.1179939624219619e-01   1.1179450543503369e-01   1.1180256360767826e-01   1.1182817468460943e-01   1.1178587973361283e-01   1.1180720083154341e-01   1.1178711840731885e-01   1.1178193986475680e-01   1.1180183809329863e-01   1.1178842364573385e-01   1.1179013349334094e-01   1.1179271416454560e-01   1.1171805536665860e-01   1.1180338739326501e-01   1.1184732215379233e-01   1.1106994993048208e-01   1.1177760090183396e-01   1.1180214782522128e-01   1.1177877696010277e-01   1.1179881063901657e-01   1.1179933514182000e-01   1.1179609762011310e-01   1.1180193707383809e-01   1.1180496651812960e-01   1.1177535669456237e-01   1.1179759842450616e-01   1.1177896343423721e-01   1.1180057102182123e-01   1.1179637154511617e-01   1.1180357172266173e-01   1.1179175123704860e-01   1.1179795504675324e-01   1.1142867067856432e-01   1.1238195201827345e-01   1.1180116996943064e-01   1.1168146145461041e-01   1.1179792478653713e-01   1.1177691766182248e-01   1.1171417681947193e-01   1.1114342871710653e-01   1.1180331094135942e-01   1.1180768724220876e-01   1.1179788054270919e-01   1.1180004555308869e-01   1.1189834175894701e-01   1.1262685307011389e-01   1.1191641363652047e-01   1.1021968278448055e-01   1.1180049014041940e-01   1.1178811774689355e-01   1.1179866969144757e-01   1.1180217312020160e-01   1.1178499404896905e-01   1.1180234737907878e-01   1.1178703911870361e-01   1.1179083450002823e-01   1.1179841763204319e-01   1.1177934558747833e-01   1.1179656639751157e-01   1.1180249696788398e-01   1.1180170575497239e-01   1.1179102915166053e-01   1.1180001846164288e-01   1.1180142280868538e-01   1.1177287971273538e-01   1.1180153799871666e-01   1.1178132308190640e-01   1.1178379935343911e-01   1.1179365455841980e-01   1.1178658286589857e-01   1.1179615407858191e-01   1.1179892717513726e-01   1.1178808603669403e-01   1.1179376673481992e-01   1.1179025463589587e-01   1.1179149311367303e-01   1.1178852480367817e-01   1.1179914424084506e-01   1.1179062271747174e-01   1.1179252426220211e-01   1.1179164652704901e-01   1.1176756926325201e-01   1.1177787611545674e-01   1.1179482480540838e-01   1.1177524335237536e-01   1.1178114472090951e-01   1.1179320968454021e-01   1.1178541857172326e-01   1.1175300225004733e-01   1.1181034868684198e-01   1.1162857198236317e-01   1.1170320339557216e-01   1.1178803560386701e-01   1.1178942539655082e-01   1.1174268350847738e-01   1.1176337381466266e-01   1.1180095288040352e-01   1.1179378233528647e-01   1.1179677273713971e-01   1.1179987197516798e-01   1.1179363550757354e-01   1.1179762755433739e-01   1.1179356039758834e-01   1.1179631240060126e-01   1.1179641362269734e-01   1.1179174831198353e-01   1.1177492684602999e-01   1.1178254094223382e-01   1.1180081287330136e-01   1.1179485421773189e-01   1.1178654521444881e-01   1.1179340167580572e-01   1.1180760945808339e-01   1.1179522936166399e-01   1.1180399470243478e-01   1.1180099103163336e-01   1.1179156529494190e-01   1.1179752451976879e-01   1.1178262854767945e-01   1.1178940090678108e-01   1.1180661994805183e-01   1.1178676360959629e-01   1.1180931203212052e-01   1.1179930605827175e-01   1.1180444647078076e-01   1.1178388908741065e-01   1.1180322690699858e-01   1.1180591483009715e-01   1.1177841064275211e-01   1.1180221051772304e-01   1.1175896426577692e-01   1.1177391774500037e-01   1.1181490106303882e-01   1.1176224462812544e-01   1.1181319353321964e-01   1.1180771203740071e-01   1.1174210924385873e-01   1.1182315823663447e-01   1.1172792096816747e-01   1.1174995172276332e-01   1.1177498636112432e-01   1.1180738337530449e-01   1.1176546806782478e-01   1.1177664686780778e-01   1.1181543707516894e-01   1.1176338440292323e-01   1.1182789050257420e-01   1.1180950896969334e-01   1.1173550916236376e-01   1.1182797282208916e-01   1.1168761047102489e-01   1.1173310507501953e-01   1.1185575895962642e-01   1.1166985916126318e-01   1.1192433667463782e-01   1.1185346310588477e-01   1.1182937087261337e-01   1.1170965076036821e-01   1.1184217501156354e-01   1.1182635734100989e-01   1.1180777661861677e-01   1.1176886300262077e-01   1.1181178567243343e-01   1.1180872449630239e-01   1.1175790514434350e-01   1.1181456576996876e-01   1.1175291634365084e-01   1.1176436405072550e-01   1.1181843623368296e-01   1.1174247039889822e-01   1.1181754168364980e-01   1.1181050643753884e-01   1.1180479529114146e-01   1.1176293256022067e-01   1.1181103054458603e-01   1.1179046345782040e-01   1.1015416870650767e-01   1.1213316633159583e-01   1.1190618921433308e-01   1.1193061034848484e-01   1.1171318991254439e-01   1.1177394580253103e-01   1.1181608647881340e-01   1.1173889749189642e-01   1.1174731982009484e-01   1.1180106776943589e-01   1.1175973840162400e-01   1.1180805540554964e-01   1.1178780028083417e-01   1.1179700974934810e-01   1.1179934218626542e-01   1.1179203185504277e-01   1.1179407827832932e-01   1.1179999632780831e-01   1.1180005257977833e-01   1.1179574254857230e-01   1.1179339703786133e-01   1.1179704651322095e-01   1.1179613239459374e-01   1.1179282547765271e-01   1.1179855463671332e-01   1.1180443918421494e-01   1.1178884934306156e-01   1.1179767618601390e-01   1.1179324913824701e-01   1.1179866095672086e-01   1.1179542233215320e-01   1.1179461991263175e-01   1.1176708470506237e-01   1.1179349701678604e-01   1.1176728298436468e-01   1.1179860223493168e-01   1.1179653584609453e-01   1.1180710706719961e-01   1.1179262515462988e-01   1.1180167473458091e-01   1.1177873302461146e-01   1.1178738695454464e-01   1.1174802884668393e-01   1.1177216537526036e-01   1.1180175012558230e-01   1.1178944965070799e-01   1.1176681134725025e-01   1.1176864629384323e-01   1.1179853670404194e-01   1.1179297049336645e-01   1.1179759366961348e-01   1.1179723240753683e-01   1.1179689870241299e-01   1.1180706950177491e-01   1.1178753312518638e-01   1.1179546385316567e-01   1.1180526439142389e-01   1.1178785886094469e-01   1.1176954217741043e-01   1.1177097048107855e-01   1.1180746050125363e-01   1.1178717624564909e-01   1.1177190415315917e-01   1.1178033302065765e-01   1.1177962799626491e-01   1.1178759932877476e-01   1.1177057937698633e-01   1.1180782702208535e-01   1.1178815533746377e-01   1.1180678870724997e-01   1.1179760944095678e-01   1.1179662026613089e-01   1.1177056453497121e-01   1.1178847891149334e-01   1.1176969600875626e-01   1.1180537427246326e-01   1.1179767778296251e-01   1.1179430884745581e-01   1.1179734662085793e-01   1.1179939091056705e-01   1.1178944048545167e-01   1.1180466449016591e-01   1.1179892064758863e-01   1.1179825769466195e-01   1.1179424992259156e-01   1.1179756610048255e-01   1.1179364975518367e-01   1.1179656478935553e-01   1.1179995364069753e-01   1.1180051921553984e-01   1.1179442604187914e-01   1.1179546680315615e-01   1.1179615116276946e-01   1.1179858673773203e-01   1.1179316419219379e-01   1.1179530984242579e-01   1.1176931735183851e-01   1.1178990361145645e-01   1.1176818515641974e-01   1.1180236293340981e-01   1.1179294761860890e-01   1.1180707814937677e-01   1.1179707381321148e-01   1.1180157895532682e-01   1.1177271375973574e-01   1.1178786734853118e-01   1.1175342836199649e-01   1.1178330159864429e-01   1.1179890771549292e-01   1.1179394633609964e-01   1.1177240550239467e-01   1.1177286465057996e-01   1.1179387028240492e-01   1.1180018223562666e-01   1.1180056278513852e-01   1.1178862257384224e-01   1.1181771892863200e-01   1.1177069281006384e-01   1.1171137590672374e-01   1.1173295314969928e-01   1.1180914111867458e-01   1.1180153222543388e-01   1.1176642894944241e-01   1.1175735053027759e-01   1.1192862776792518e-01   1.1215334202671394e-01   1.1192947793817959e-01   1.1018853300779506e-01   1.1181665221100183e-01   1.1180139232893595e-01   1.1180148999833665e-01   1.1181337009935084e-01   1.1179129194477921e-01   1.1179197809734227e-01   1.1178350462871219e-01   1.1179585980877219e-01   1.1180771101823982e-01   1.1178729843254852e-01   1.1180872868794041e-01   1.1180084071978058e-01   1.1181863286642665e-01   1.1179315504826086e-01   1.1179359798730720e-01   1.1182424160826110e-01   1.1177910022128053e-01   1.1180461456989220e-01   1.1176456997215738e-01   1.1177657249645984e-01   1.1181299916632055e-01   1.1176320533946968e-01   1.1181436987559611e-01   1.1180651576079510e-01   1.1174481547726764e-01   1.1182684154454246e-01   1.1171177175211518e-01   1.1173878840790398e-01   1.1177504619796205e-01   1.1179422602601155e-01   1.1175913021452981e-01   1.1178629395999502e-01   1.1181113961926629e-01   1.1176823234118029e-01   1.1181342139333285e-01   1.1181168336506797e-01   1.1175959164578947e-01   1.1181814403172223e-01   1.1173959271331683e-01   1.1175198670735915e-01   1.1180553944939797e-01   1.1175362875777861e-01   1.1178656428124224e-01   1.1182158637927860e-01   1.1182327848302845e-01   1.1172865138180121e-01   1.1182052633753314e-01   1.1183213554138953e-01   1.1183489904496206e-01   1.1177354631437150e-01   1.1180001370582898e-01   1.1185478455297386e-01   1.1173033346614730e-01   1.1181676909788418e-01   1.1167192848541801e-01   1.1174578368133171e-01   1.1183321462905184e-01   1.1169479462019255e-01   1.1184484850557512e-01   1.1186714034743164e-01   1.1189396857884050e-01   1.1168721902933698e-01   1.1186817952162144e-01   1.1199535446039942e-01   1.1179047003859319e-01   1.1180072108509391e-01   1.1178760102501351e-01   1.1179750383266229e-01   1.1180026754823397e-01   1.1179582410127907e-01   1.1180229287283817e-01   1.1180239979543119e-01   1.1178853565439573e-01   1.1179983041724807e-01   1.1178813029788168e-01   1.1179602017188432e-01   1.1179252782569597e-01   1.1180226725231331e-01   1.1179244043190376e-01   1.1179104940310888e-01   1.1179968063523989e-01   1.1179646560546097e-01   1.1180152717168443e-01   1.1180216730991784e-01   1.1179209284450031e-01   1.1180118542813115e-01   1.1179110808134951e-01   1.1179300193879003e-01   1.1180231589380651e-01   1.1179719763422254e-01   1.1179615336104240e-01   1.1180261963586066e-01   1.1180189029