<?xml version="1.0"?>
<VTKFile type="UnstructuredGrid"  version="0.1"  >
<UnstructuredGrid>
<Piece  NumberOfPoints="2549" NumberOfCells="4928">
<Points>
<DataArray  type="Float64"  NumberOfComponents="3"  format="ascii">1.638395186688502 -0.03760572581778678 0  1.635320066911391 0.009953603306739649 0  1.628591858549835 0.05701194042686625 0  1.620279694223064 0.1041945715429778 0  1.608960289641547 0.1510444260643752 0  1.59539048974523 0.1977544345668199 0  1.578454004081401 0.2437788236278861 0  1.56003497571065 0.2896428785710884 0  1.535951089933845 0.332903917612652 0  1.510626329169449 0.37457903834769 0  1.487315720054373 0.4208634870108144 0  1.458661359766714 0.4628053720963598 0  1.429497704488642 0.5051630399985528 0  1.398333757061359 0.5462131152836417 0  1.365609716221152 0.5865436617970986 0  1.33137879478627 0.6258599876442258 0  1.295269748212325 0.6634869402038963 0  1.25908306099869 0.6997906035443806 0  1.222823575285851 0.7407039962391327 0  1.184409446280295 0.778196820024704 0  1.145430691677376 0.8165474450524612 0  1.105150541332519 0.8538995479072777 0  1.064039793292968 0.8912808362826067 0  1.021384155295373 0.9276362159326448 0  0.9772307297603035 0.9626833883298744 0  0.9324510624519757 0.996219716196764 0  0.8863677818537596 1.029313364111762 0  0.8392266508977533 1.061519581616376 0  0.7910860891182505 1.092955494533087 0  0.7417965011571387 1.12314050990182 0  0.6914474341129399 1.152097822960148 0  0.6400485796954454 1.179632581929659 0  0.5874082563885578 1.205116321547226 0  0.5339124894014718 1.228726312145444 0  0.4794876156210754 1.250841215815186 0  0.4240843978249614 1.270607127217673 0  0.3678914229204581 1.288270792805033 0  0.3109296655186946 1.303514606478634 0  0.2533140802682742 1.316313383757381 0  0.1951668076853188 1.326582732146887 0  0.1365155905370782 1.333932984133107 0  0.07765957737458798 1.338586891122673 0  0.01860785394205415 1.340751844906654 0  -0.04047425369161007 1.340041002028359 0  -0.09947082198366011 1.336561388643399 0  -0.1582240422700218 1.330224096412278 0  -0.2166099628651506 1.321152445708996 0  -0.274466157635327 1.309169754566278 0  -0.3316866316635535 1.294813507204995 0  -0.3882748766695976 1.277789957326129 0  -0.4438443501006976 1.257898811551334 0  -0.4984627923895723 1.235653173827076 0  -0.5520888065240631 1.211365394026306 0  -0.6044936480753585 1.184845866479013 0  -0.6559901515163862 1.157019204814186 0  -0.7060145523075749 1.126836795485124 0  -0.7549266093757928 1.096378090229983 0  -0.803032210163501 1.064319400351012 0  -0.8493855895689135 1.030201985002281 0  -0.8944503962556055 0.9950867541428275 0  -0.9384787656764241 0.9595557861232575 0  -0.9810172824863961 0.9228408960108023 0  -1.023053461601108 0.8868562862856756 0  -1.062253323131999 0.8469376728577706 0  -1.101478741851677 0.8113193566116904 0  -1.140194351395049 0.7755601678376685 0  -1.177570726185093 0.7386144720056271 0  -1.214269153127531 0.7022039617041314 0  -1.249705211545119 0.6649361232877127 0  -1.284776791719549 0.6294210730901786 0  -1.319609427935489 0.5927104517009585 0  -1.35418868408879 0.5592835898381932 0  -1.389212621461289 0.522348715254599 0  -1.412985798318227 0.4755868192675679 0  -1.445925818122507 0.4341666835880929 0  -1.471574529798271 0.3893621214224285 0  -1.494809412596154 0.3430856458688302 0  -1.511401476039219 0.2939883815657754 0  -1.529892539635172 0.2468965319634204 0  -1.530439711384366 0.1925259242231557 0  -1.545245463188541 0.1483161107687358 0  -1.557076910105751 0.1016425718900352 0  -1.549764369820951 0.05373538904012681 0  -1.554337712599134 0.007535340405048903 0  -1.553456823482974 -0.03839565108080683 0  -1.555506318330659 -0.08431184565374274 0  -1.552748804897412 -0.1307398882903856 0  -1.558016856620298 -0.1791121134146625 0  -1.548375608942069 -0.2262182581081987 0  -1.535405845232496 -0.2711533473556172 0  -1.534915202644544 -0.3264167437636196 0  -1.517503354909073 -0.3742127344066428 0  -1.501270945086037 -0.4240126507709295 0  -1.478141170120738 -0.47052744632565 0  -1.452496435193011 -0.515560498147778 0  -1.420482904164579 -0.5572438069492417 0  -1.396058203958926 -0.6038873291009165 0  -1.360606736349735 -0.6408495185826572 0  -1.326139066520806 -0.6747563366577581 0  -1.291095353271898 -0.7113796404737313 0  -1.255977598630351 -0.7469754974954068 0  -1.220680568910088 -0.7845774801543332 0  -1.184188458675373 -0.8214717878054921 0  -1.147048119870404 -0.8590339613242437 0  -1.108636473248199 -0.8955211933747255 0  -1.069516412036737 -0.9320047288276073 0  -1.031159051934193 -0.974248909739866 0  -0.9890699923228526 -1.011436920744585 0  -0.9466197936237243 -1.049608561777192 0  -0.9026656500749168 -1.086746623505713 0  -0.8576171833167618 -1.123477673102236 0  -0.8111384301724468 -1.159171362123457 0  -0.763211503630201 -1.193343757581826 0  -0.7139000947544961 -1.226322813567862 0  -0.6641673026390178 -1.260447108321707 0  -0.611898338175525 -1.290332965351812 0  -0.5590305328891765 -1.319093820853218 0  -0.5047468438715833 -1.34536025964962 0  -0.4494314274872063 -1.369435314491344 0  -0.3931810470546455 -1.391145482687958 0  -0.3355908851784654 -1.409278838241091 0  -0.2774532309387411 -1.424488921503734 0  -0.2186430825159487 -1.437465220862388 0  -0.1592107472842669 -1.447207235219799 0  -0.09936663515116326 -1.45404221998121 0  -0.03922841853078803 -1.457717725275693 0  0.02102872757128998 -1.45828638679281 0  0.08124655816596445 -1.45564869485381 0  0.1412557768180336 -1.449817468679161 0  0.2008332089737901 -1.441007141003869 0  0.2599107216508028 -1.429511846872235 0  0.3183506128707126 -1.415290341521497 0  0.376075257362226 -1.39856336497714 0  0.4329213754247433 -1.379288105199494 0  0.4889346704573499 -1.358030324537568 0  0.5438319462443616 -1.334178939972392 0  0.5977305376158456 -1.309355393526222 0  0.6508986157711767 -1.28252428016499 0  0.7025089288582455 -1.253150146003032 0  0.7530835399635852 -1.222534307402258 0  0.8024940283794306 -1.19070846809441 0  0.8507126406757721 -1.157717816831859 0  0.8978578441546239 -1.123999110621601 0  0.9438932230250713 -1.089500445982451 0  0.9885910674970415 -1.054678752572922 0  1.032639370156725 -1.018350446034802 0  1.075131477432029 -0.9807220393730874 0  1.11606423985928 -0.942188464282166 0  1.156104307656284 -0.9036787439243394 0  1.194802594983377 -0.8642045731780151 0  1.232963863626264 -0.8257227637770796 0  1.268778657281851 -0.7836152604888895 0  1.30462351678256 -0.7465382838088389 0  1.340551223953893 -0.708354292335149 0  1.374406904816426 -0.668255729845077 0  1.40682309227901 -0.6273103960435016 0  1.437665572951046 -0.5856482787572334 0  1.466484070420596 -0.5426780660873245 0  1.494708429987099 -0.5001277901062499 0  1.517659294905303 -0.4532635369789931 0  1.542614491634123 -0.4111580728258962 0  1.566215422169909 -0.3673877950701552 0  1.584072686577445 -0.320990587142105 0  1.600322146001123 -0.274480793105945 0  1.613164869724837 -0.227315174539316 0  1.623523337309761 -0.1800231521276606 0  1.630899260448884 -0.1325358509410076 0  1.636411209749802 -0.08522129634309306 0  -0.08076929982341557 0.8002875764991254 0  0.618798411810681 -0.719196064044673 0  -0.7273286058461513 -0.6295169256907186 0  -0.05688125034991009 -0.8905130130747061 0  0.6145056049425742 0.6235769695935149 0  1.166784070334192 0.2040479226184354 0  -0.739907950370163 0.5297961712848696 0  -1.210059627921967 -0.04314998537654355 0  1.171007423568046 -0.2864104110605239 0  -1.015681412351386 -0.4548896939368507 0  -0.7765339513488725 -0.0579834405300426 0  -0.4558044551689383 -0.2323171124128814 0  -1.026240655236653 0.3496487398869982 0  0.2990939679356988 -0.8676567662647232 0  0.1542324917898941 -0.2931585716166062 0  0.2625683311801165 0.7619109428374137 0  0.3546966547472297 0.2036677465694083 0  0.6694639437945926 -0.04231387887288726 0  -0.3919072774179884 -0.7828286006032761 0  -0.4286860824684355 0.7053426343916714 0  -0.2559345163846065 0.2597054026287352 0  0.9245169243509619 -0.4925250487834321 0  0.9203312557646217 0.4062943663436343 0  0.4224623775935276 -0.324096662076703 0  0.04760237903341766 0.2551321898503653 0  -0.519147716986733 0.1986567255513313 0  -0.1536577251316021 -0.2855126435141563 0  0.9529296043008868 -0.04191867979539531 0  1.360202775725446 -0.03956080262894079 0  0.771989333091805 -0.602971287751105 0  0.7882442036656769 -0.2768873527000617 0  0.6347142382541163 -0.3776356823557618 0  0.5446175985262371 -0.1793117373942298 0  0.5147516763264984 -0.5268604047351999 0  0.9316062325975545 -0.2656348707035198 0  0.810520595594308 -0.04209378825539428 0  -0.8929600664728041 0.1551346248750012 0  -1.113688921136655 0.1492087892012046 0  -0.9953734506154618 -0.04966039547056314 0  -0.8875725133159622 -0.2651127736379268 0  -1.108932175238572 -0.2441046703406097 0  -1.283729654866654 -0.3364875005968532 0  -1.371405417002339 -0.1527160394131594 0  -1.369381434195196 0.07043631302218305 0  -1.279309702039641 0.2529139397356322 0  -0.105860412895244 -0.5876467418681462 0  -0.2660710238793509 -0.5401121995858585 0  -0.2257223518784098 -0.8420450087190972 0  -0.3041914785469038 -0.2600055542639113 0  -0.4201284100383507 -0.5051935450802255 0  -1.202465030846983 -0.5337042923309339 0  -1.203961318707758 0.4418979722399463 0  0.3596104013995474 -0.593411553721268 0  0.2875563809156212 -0.3102427759166269 0  0.2211246748542207 -0.5834098486127697 0  -0.8825055531344179 0.4355327181251922 0  -0.7487302939127631 0.2337817817745586 0  1.354515666115427 -0.3593875245624523 0  1.226050822923943 -0.5243647967419884 0  1.219283502195605 0.4418100541267387 0  1.349047471041803 0.2793150912200341 0  -0.7328689735808562 -0.9129293267603937 0  -0.9074570533146727 -0.7778132314608628 0  -0.9104469897224401 0.6856046877213141 0  -0.7363935235496796 0.8140815123739379 0  0.7904360109164202 -0.9016678838007293 0  0.6010810215031451 -1.014607282469563 0  0.5942731796306866 0.9152185186887555 0  0.7830530399693268 0.8079190066348565 0  0.031538499339977
[...]
<CellData  Scalars="f_18364"> 
<DataArray  type="Float64"  Name="f_18364"  format="ascii">1.1179024345507485e-01   1.1180182070390525e-01   1.1178858366634205e-01   1.1179556777476403e-01   1.1180130015532497e-01   1.1179310555653664e-01   1.1180450666595335e-01   1.1180396338589409e-01   1.1178822126192707e-01   1.1180181722320473e-01   1.1178725889228779e-01   1.1179301588312318e-01   1.1178903468617513e-01   1.1180569663174723e-01   1.1178776612179832e-01   1.1178496553512537e-01   1.1180217764330383e-01   1.1179319728161116e-01   1.1180459386515783e-01   1.1180495140322744e-01   1.1178697890514708e-01   1.1180504925185585e-01   1.1178414275049579e-01   1.1178842367624570e-01   1.1180667724668497e-01   1.1179271177741722e-01   1.1179838276822268e-01   1.1180778493952374e-01   1.1180549867979755e-01   1.1178519159696254e-01   1.1180617267799849e-01   1.1180690431839513e-01   1.1178710296346935e-01   1.1180190219771446e-01   1.1178532894972681e-01   1.1179170957316299e-01   1.1180339824449285e-01   1.1179825012227024e-01   1.1179859558879314e-01   1.1180630878830655e-01   1.1179094049671286e-01   1.1179733787992083e-01   1.1176810045770755e-01   1.1177284133231961e-01   1.1179448052709269e-01   1.1179830024768855e-01   1.1176589955651288e-01   1.1176151406374757e-01   1.1178082314609378e-01   1.1180778756970361e-01   1.1178067499046559e-01   1.1177336651115923e-01   1.1180920204090028e-01   1.1178797528918515e-01   1.1179892287839337e-01   1.1180773141827452e-01   1.1178985355592373e-01   1.1179845191155044e-01   1.1175635075149912e-01   1.1175091325368612e-01   1.1178251567472969e-01   1.1180011243286384e-01   1.1174502485701500e-01   1.1174690586084704e-01   1.1176757985908407e-01   1.1175914873065441e-01   1.1173553389807496e-01   1.1182302400428530e-01   1.1176257891338280e-01   1.1181770799623607e-01   1.1178076452994475e-01   1.1178235219177528e-01   1.1173830851168243e-01   1.1175693620017194e-01   1.1173190469502106e-01   1.1181856389990785e-01   1.1180185725128504e-01   1.1178175225100606e-01   1.1180024363701595e-01   1.1180348028018537e-01   1.1175562847496602e-01   1.1181963893888636e-01   1.1178138945764887e-01   1.1178114313156855e-01   1.1179751317288533e-01   1.1178145477982408e-01   1.1180081180638318e-01   1.1180000334079881e-01   1.1178395321138754e-01   1.1180554490308739e-01   1.1178401991650935e-01   1.1178875037959460e-01   1.1178125679932441e-01   1.1180281664726151e-01   1.1178641450817253e-01   1.1178557465534296e-01   1.1172681451204135e-01   1.1175312179155771e-01   1.1172034492047267e-01   1.1181779306132024e-01   1.1175816693667429e-01   1.1182608875122767e-01   1.1177612953033227e-01   1.1178413316152488e-01   1.1172180930401047e-01   1.1174287038886051e-01   1.1167243145514326e-01   1.1178117053005973e-01   1.1180320493688435e-01   1.1177741518600921e-01   1.1176576800854043e-01   1.1177554197699727e-01   1.1180060400186906e-01   1.1178923263987099e-01   1.1179981729550177e-01   1.1179825285828965e-01   1.1179184286020881e-01   1.1180263319958993e-01   1.1179169409679279e-01   1.1179372175164405e-01   1.1180312347852914e-01   1.1178816005049358e-01   1.1177908673112838e-01   1.1178307524718195e-01   1.1180091656229359e-01   1.1179424101646168e-01   1.1178635053164009e-01   1.1178897550856935e-01   1.1182148349002727e-01   1.1180162447890921e-01   1.1179199412815406e-01   1.1183109169925315e-01   1.1179104581997147e-01   1.1179517700536175e-01   1.1179098268443800e-01   1.1180169714441374e-01   1.1179868023043635e-01   1.1179249237589629e-01   1.1179470351355150e-01   1.1180391889418889e-01   1.1183312363156982e-01   1.1180176990894213e-01   1.1179291451152262e-01   1.1183736823053977e-01   1.1179158664602888e-01   1.1180131414613174e-01   1.1179315715819961e-01   1.1179362747563353e-01   1.1179862934107127e-01   1.1179241916838893e-01   1.1180223707979445e-01   1.1180224854907964e-01   1.1179221877606740e-01   1.1179878827774746e-01   1.1179202163949797e-01   1.1179238312656026e-01   1.1178927683549916e-01   1.1179188771015952e-01   1.1178822043671206e-01   1.1180172430887490e-01   1.1179327652339016e-01   1.1179130790598761e-01   1.1179137876215763e-01   1.1180122473638579e-01   1.1179187095106551e-01   1.1180072450907781e-01   1.1179390644498426e-01   1.1179408214775816e-01   1.1178893539612443e-01   1.1179275809864969e-01   1.1178230482450892e-01   1.1179975229330595e-01   1.1179869282494564e-01   1.1179302653834719e-01   1.1179499563128559e-01   1.1179582445861209e-01   1.1184123535108044e-01   1.1180166268905374e-01   1.1179009672286892e-01   1.1184480571881628e-01   1.1178676604741053e-01   1.1178976888759570e-01   1.1178816566884854e-01   1.1180292337941494e-01   1.1180184930021611e-01   1.1179088086835789e-01   1.1179416691371262e-01   1.1179818673303898e-01   1.1184969589240931e-01   1.1179375560340188e-01   1.1177792138518482e-01   1.1185490555656367e-01   1.1182041900153988e-01   1.1179974259819826e-01   1.1181816703190868e-01   1.1179063946470594e-01   1.1180007843998914e-01   1.1179248947977950e-01   1.1179420275026286e-01   1.1179567815881715e-01   1.1181716995864316e-01   1.1179931848980937e-01   1.1181602210405195e-01   1.1179428357794810e-01   1.1179922861104755e-01   1.1179697342144736e-01   1.1179864818605675e-01   1.1179765071367806e-01   1.1179868085554327e-01   1.1179485695674542e-01   1.1179490595942151e-01   1.1179423521251854e-01   1.1180143749164306e-01   1.1179685048151172e-01   1.1179976029702911e-01   1.1179909022594635e-01   1.1179454263673390e-01   1.1179183203783376e-01   1.1180398246609230e-01   1.1179491061642553e-01   1.1179640426278206e-01   1.1179693551940939e-01   1.1179717772582651e-01   1.1179722189845082e-01   1.1181421379042039e-01   1.1179911513068853e-01   1.1181489551362657e-01   1.1179781900487749e-01   1.1179621380871402e-01   1.1179028434308630e-01   1.1180109673438160e-01   1.1179320025595917e-01   1.1180706670586939e-01   1.1180865789143481e-01   1.1182563525324977e-01   1.1182270904908033e-01   1.1179364486708813e-01   1.1180390484712298e-01   1.1182496682088949e-01   1.1182433094834246e-01   1.1179771824973871e-01   1.1179765498711129e-01   1.1179924567915014e-01   1.1180040726375022e-01   1.1179521766567738e-01   1.1179158192194388e-01   1.1180529575226911e-01   1.1179738486709660e-01   1.1179174538551150e-01   1.1180456479276665e-01   1.1182425440720703e-01   1.1182377032955071e-01   1.1179056944657131e-01   1.1180163242981539e-01   1.1182277988043322e-01   1.1182680816532434e-01   1.1182113400325279e-01   1.1180685182995091e-01   1.1180328282863321e-01   1.1182324310848300e-01   1.1179452008614575e-01   1.1179218594313843e-01   1.1179317549783825e-01   1.1180082609806216e-01   1.1181039166602982e-01   1.1179711620403619e-01   1.1180938690989579e-01   1.1179959943638580e-01   1.1182423893002864e-01   1.1180334573553247e-01   1.1179385166802004e-01   1.1182407648608104e-01   1.1179649042291535e-01   1.1179689427158483e-01   1.1179408194417809e-01   1.1179479244188582e-01   1.1179909275926814e-01   1.1179629021379049e-01   1.1180005655964700e-01   1.1180148167010201e-01   1.1179595032508692e-01   1.1179780675304127e-01   1.1179648718925810e-01   1.1179694650630065e-01   1.1179410870892610e-01   1.1179234103717567e-01   1.1179462283439560e-01   1.1180360673445400e-01   1.1181083910917231e-01   1.1179682077442651e-01   1.1181156309977916e-01   1.1179634546042502e-01   1.1179777930890236e-01   1.1179544085606512e-01   1.1179535553611381e-01   1.1179403311184496e-01   1.1181257821393702e-01   1.1179484855725731e-01   1.1181508572501900e-01   1.1179067014023075e-01   1.1179914839826297e-01   1.1179577027691440e-01   1.1179767302858486e-01   1.1179645610334613e-01   1.1182396788991777e-01   1.1180423506058369e-01   1.1179194549251263e-01   1.1182341503773680e-01   1.1179508091836268e-01   1.1179215902145495e-01   1.1179688010365932e-01   1.1180513777093573e-01   1.1179980330023881e-01   1.1179698521535537e-01   1.1179643148251381e-01   1.1179912894806157e-01   1.1182284572526699e-01   1.1180111909718542e-01   1.1178937470597511e-01   1.1182536322514945e-01   1.1026854466232032e-01   1.1193327689872522e-01   1.1207019252686010e-01   1.1109847503324370e-01   1.1176960869660642e-01   1.1186516620357652e-01   1.1175561809010597e-01   1.1115924081300654e-01   1.1177925716789353e-01   1.1180233175300527e-01   1.1180456794306960e-01   1.1180856680667151e-01   1.1167072702746710e-01   1.1255102502424461e-01   1.1177108922163333e-01   1.1136445078542288e-01   1.1178844691237554e-01   1.1178736941623404e-01   1.1180218459286803e-01   1.1179657253828749e-01   1.1178519842492227e-01   1.1180705720146103e-01   1.1177696377383203e-01   1.1179269545172126e-01   1.1180357672199315e-01   1.1179707117098991e-01   1.1180250074726431e-01   1.1183290278002973e-01   1.1186694360193106e-01   1.1180297321757497e-01   1.1169506095615553e-01   1.1087324211361597e-01   1.1179945206969187e-01   1.1180452306523486e-01   1.1179282660485193e-01   1.1179690677573496e-01   1.1180268068390010e-01   1.1179563385737123e-01   1.1180029496357488e-01   1.1180547931022319e-01   1.1180077873126663e-01   1.1179887526337844e-01   1.1178127332706528e-01   1.1177743015016105e-01   1.1179817753471306e-01   1.1180306685077319e-01   1.1178121598986041e-01   1.1177752295641619e-01   1.1226694778153122e-01   1.1287435368117317e-01   1.1179758761646519e-01   1.0979949221519876e-01   1.1198876280613185e-01   1.1241345924774639e-01   1.1201763878131518e-01   1.1006501865916171e-01   1.1169070191540673e-01   1.1175752993696339e-01   1.1183167222964131e-01   1.1158089925088265e-01   1.0864597377199975e-01   1.1145113960985982e-01   1.1251999382906087e-01   1.1178511312890131e-01   1.1188282486233250e-01   1.1124791486650905e-01   1.1273874395043508e-01   1.0794616988788180e-01   1.1201202227767287e-01   1.1252053499118882e-01   1.1201547915775913e-01   1.0991707580667918e-01   1.1151777344827274e-01   1.1176659505150813e-01   1.1184606085715491e-01   1.1167538838154839e-01   1.0949881908148162e-01   1.1289795476039068e-01   1.1182756191008747e-01   1.1231820547374251e-01   1.1179975561239608e-01   1.1179777394692078e-01   1.1180414823776712e-01   1.1182829022136195e-01   1.1178509311415698e-01   1.1180715456525789e-01   1.1179846292140755e-01   1.1177676265960988e-01   1.1180102348587503e-01   1.1178750921790814e-01   1.1178792864571152e-01   1.1179733332107611e-01   1.1167919968691804e-01   1.1179443801749042e-01   1.1186303386483047e-01   1.1085783877531323e-01   1.1177438074143173e-01   1.1180406286805122e-01   1.1178092453851611e-01   1.1179835332325659e-01   1.1180025048153971e-01   1.1179571535288076e-01   1.1180254191911716e-01   1.1180544189579078e-01   1.1177703022012771e-01   1.1179886879155432e-01   1.1178012633984546e-01   1.1180023178065747e-01   1.1179734305463906e-01   1.1180421042791371e-01   1.1179193819975657e-01   1.1179866213690247e-01   1.1143440407112205e-01   1.1260735811755171e-01   1.1175888707003072e-01   1.1162063987267706e-01   1.1175467573845090e-01   1.1189640796421235e-01   1.1178514597303459e-01   1.1115768565254069e-01   1.1180829807554489e-01   1.1180101595093313e-01   1.1180539479691702e-01   1.1176630794553467e-01   1.1081006908681400e-01   1.1170587331957967e-01   1.1213891896577018e-01   1.1007388766456384e-01   1.1179990292664832e-01   1.1178999537692874e-01   1.1179873218428157e-01   1.1180098876625320e-01   1.1178754680777855e-01   1.1180170829536590e-01   1.1178854583041718e-01   1.1179201836664325e-01   1.1179857429944781e-01   1.1178233432445180e-01   1.1179770209144367e-01   1.1180213383712626e-01   1.1180100462610366e-01   1.1179181528203062e-01   1.1180030969215224e-01   1.1180097213111917e-01   1.1177586849120999e-01   1.1180230926269523e-01   1.1178109328194005e-01   1.1178507405884751e-01   1.1179707322551587e-01   1.1178656039869911e-01   1.1179821584985473e-01   1.1180002379065132e-01   1.1178592597246578e-01   1.1179791875833540e-01   1.1178711944316960e-01   1.1179007454413664e-01   1.1178929332129967e-01   1.1180001361196598e-01   1.1179055208803970e-01   1.1179273631540687e-01   1.1179599969607848e-01   1.1176937921904795e-01   1.1178654506013172e-01   1.1179930512168290e-01   1.1176750174789203e-01   1.1179516338458052e-01   1.1178225559687958e-01   1.1178121524953905e-01   1.1177039173367950e-01   1.1178010214942577e-01   1.1167404493440197e-01   1.1173814083693338e-01   1.1179519182192107e-01   1.1178359114071906e-01   1.1175982302656420e-01   1.1177433207710163e-01   1.1180085793951985e-01   1.1179345620610616e-01   1.1179840489774097e-01   1.1180021502352079e-01   1.1179272453425160e-01   1.1179945630561766e-01   1.1179251549155665e-01   1.1179544459864033e-01   1.1179895250562329e-01   1.1178994036876415e-01   1.1178208321131891e-01   1.1178743939040942e-01   1.1180111903318936e-01   1.1179380345455212e-01   1.1179026894262978e-01   1.1179535805511158e-01   1.1180561761720638e-01   1.1179757753088439e-01   1.1180104777633711e-01   1.1180018667824984e-01   1.1179445852405237e-01   1.1179526606260040e-01   1.1178725252557881e-01   1.1179283289364873e-01   1.1180267903618166e-01   1.1179131247321224e-01   1.1180356002599635e-01   1.1179615488733430e-01   1.1180299579474323e-01   1.1178820618185041e-01   1.1179972742886848e-01   1.1180461213310193e-01   1.1178552946156627e-01   1.1179703867598986e-01   1.1176920543263037e-01   1.1178080067834212e-01   1.1180824464233963e-01   1.1176989444645423e-01   1.1180921384869998e-01   1.1180314462657194e-01   1.1175214700273413e-01   1.1181906804489319e-01   1.1173209806730366e-01   1.1175583339278956e-01   1.1178041362150674e-01   1.1180369154332635e-01   1.1177066083037170e-01   1.1178137167110032e-01   1.1180664348461687e-01   1.1177551722141352e-01   1.1181309515353627e-01   1.1180117679116827e-01   1.1175516570284499e-01   1.1181310976178338e-01   1.1171049764710723e-01   1.1174921246473063e-01   1.1183108226546841e-01   1.1171462489398487e-01   1.1186699861953932e-01   1.1183584882096813e-01   1.1182057240486813e-01   1.1172130201898557e-01   1.1183609731369974e-01   1.1182753661189392e-01   1.1180714531566992e-01   1.1177281513095177e-01   1.1180912215718600e-01   1.1180983429520473e-01   1.1176064348761293e-01   1.1181453399043698e-01   1.1175099387746468e-01   1.1176585750320175e-01   1.1181739434124845e-01   1.1174284889599230e-01   1.1182147319369103e-01   1.1181551223806642e-01   1.1180802407391455e-01   1.1176130242761539e-01   1.1181580990203963e-01   1.1179672730982530e-01   1.1074643156960527e-01   1.1211790301922187e-01   1.1191004100689859e-01   1.1191441928513335e-01   1.1172361612063392e-01   1.1177595431762868e-01   1.1182016852180414e-01   1.1172316439356496e-01   1.1176629764873250e-01   1.1180108379110391e-01   1.1176974402605623e-01   1.1180631453807345e-01   1.1176552949382976e-01   1.1180889234201909e-01   1.1180015531500218e-01   1.1179502316348756e-01   1.1179605818700887e-01   1.1180022294972522e-01   1.1180090643084044e-01   1.1179729544747805e-01   1.1179413106350360e-01   1.1179865235619643e-01   1.1179652702821401e-01   1.1179306948297946e-01   1.1179956294918919e-01   1.1180408423328027e-01   1.1179043798499011e-01   1.1179852941038561e-01   1.1179377806733942e-01   1.1179749244283083e-01   1.1179724106574276e-01   1.1179440714895532e-01   1.1177472381694945e-01   1.1179568120343454e-01   1.1177416411744533e-01   1.1179861268096182e-01   1.1179815799293399e-01   1.1180605812305722e-01   1.1179413165567033e-01   1.1180231853426287e-01   1.1178356726662092e-01   1.1179061025792042e-01   1.1175667267849169e-01   1.1177593191725585e-01   1.1180179163678933e-01   1.1179125275527822e-01   1.1177100925395736e-01   1.1177219354672101e-01   1.1179822829552015e-01   1.1179450132538447e-01   1.1179802193212825e-01   1.1179764845743136e-01   1.1179763497047002e-01   1.1180680205534473e-01   1.1178884836425423e-01   1.1179623376584293e-01   1.1180494799270592e-01   1.1178933202570709e-01   1.1177279565092794e-01   1.1177397481439058e-01   1.1180720505460870e-01   1.1178828618400365e-01   1.1177480353406537e-01   1.1178269823433770e-01   1.1178190809906252e-01   1.1178796478871388e-01   1.1177312779735848e-01   1.1180815658129455e-01   1.1178845503530908e-01   1.1180702512557099e-01   1.1179764809478498e-01   1.1179665776719656e-01   1.1177259382328035e-01   1.1178880018805801e-01   1.1177136642625100e-01   1.1180549297197256e-01   1.1179814624305298e-01   1.1179504720651885e-01   1.1179777274062187e-01   1.1179880817702392e-01   1.1178976226433991e-01   1.1180473355532525e-01   1.1179933269649001e-01   1.1179845263176807e-01   1.1179437836524560e-01   1.1179864371372743e-01   1.1179308797546049e-01   1.1179671550858156e-01   1.1180044719654687e-01   1.1180047332671897e-01   1.1179558240493391e-01   1.1179661149321207e-01   1.1179743109276917e-01   1.1179682938729264e-01   1.1179276859549728e-01   1.1179424392187677e-01   1.1177072840965854e-01   1.1179027515695300e-01   1.1176963760319733e-01   1.1180264467029985e-01   1.1179319038071739e-01   1.1180695874468814e-01   1.1179770748372836e-01   1.1180182839999571e-01   1.1177388319002472e-01   1.1178870607662239e-01   1.1175635666423848e-01   1.1178573469324496e-01   1.1179883367525914e-01   1.1179500394735183e-01   1.1177591117616884e-01   1.1177717251289446e-01   1.1179663642569394e-01   1.1181384933357853e-01   1.1180140716659355e-01   1.1175980831132534e-01   1.1182317320232474e-01   1.1176947991982635e-01   1.1171854661891807e-01   1.1170591730983606e-01   1.1180635510482276e-01   1.1180131495771641e-01   1.1177338615360899e-01   1.1177485131402222e-01   1.1192545383488994e-01   1.1217256890990066e-01   1.1193300537461696e-01   1.1084160916742114e-01   1.1181554122053748e-01   1.1180139972681928e-01   1.1180161784787421e-01   1.1181229698756118e-01   1.1179254139980636e-01   1.1179300147610083e-01   1.1178587936407873e-01   1.1179646440909205e-01   1.1180710338764040e-01   1.1178943013088646e-01   1.1180789143631291e-01   1.1180066497801606e-01   1.1181686704680854e-01   1.1179427760773718e-01   1.1179457095906564e-01   1.1182160627637221e-01   1.1178266165100445e-01   1.1180369837931807e-01   1.1177039545261933e-01   1.1178035482373384e-01   1.1181096335819317e-01   1.1176946691166861e-01   1.1181224987616091e-01   1.1180560112167091e-01   1.1175417003007812e-01   1.1182262838433334e-01   1.1172730205091189e-01   1.1174951907351641e-01   1.1177894468347015e-01   1.1179519336768240e-01   1.1176593443687727e-01   1.1178865130526029e-01   1.1181000701169817e-01   1.1177348214830610e-01   1.1181242086792000e-01   1.1180976518358668e-01   1.1176591478746759e-01   1.1181529817877703e-01   1.1174875291511968e-01   1.1175971572771953e-01   1.1180574263666369e-01   1.1176085657554022e-01   1.1178975251795523e-01   1.1181989702117331e-01   1.1181975464600362e-01   1.1174065770314839e-01   1.1181834354889122e-01   1.1182747450971599e-01   1.1183070068507950e-01   1.1177799625207989e-01   1.1180018329498038e-01   1.1184827230180688e-01   1.1174222936083938e-01   1.1181589788718727e-01   1.1169402895804283e-01   1.1175629050310711e-01   1.1182859788789264e-01   1.1171378386502677e-01   1.1183706185352087e-01   1.1185530275497509e-01   1.1188231794962171e-01   1.1170324971700570e-01   1.1185884975773112e-01   1.1198518042396564e-01   1.1179020019427174e-01   1.1180150700747948e-01   1.1178702661311971e-01   1.1179682549355820e-01   1.1180109456077474e-01   1.1179497184317189e-01   1.1180325828088951e-01   1.1180345058518494e-01   1.1178810463652895e-01   1.1180067568585390e-01   1.1178773561325968e-01   1.1179526369502130e-01   1.1179143653865360e-01   1.1180342163492681e-01   1.1179140825420156e-01   1.1178956320800697e-01   1.1180055749115968e-01   1.1179578475789682e-01   1.1180245251992077e-01   1.1180312292422175e-01   1.1179131953378690e-01   1.1180219443927612e-01   1.1179008803131563e-01   1.1179210241308245e-01   1.1180329350573223e-01   1.1179653074263840e-01   1.1179689482809543e-01   1.1180364534813662e-01   1.11802986