<?xml version="1.0"?>
<VTKFile type="UnstructuredGrid"  version="0.1"  >
<UnstructuredGrid>
<Piece  NumberOfPoints="2549" NumberOfCells="4928">
<Points>
<DataArray  type="Float64"  NumberOfComponents="3"  format="ascii">-0.506209975967737 -0.3783816385805493 0  -0.5095073962838543 -0.3893253668954132 0  -0.5014155967955078 -0.4000492542809842 0  -0.4648982929489869 -0.4005479396469623 0  -0.415303604902632 -0.3913451833316542 0  -0.3532508998039767 -0.3690188238812936 0  -0.2880363338461389 -0.33651840612059 0  -0.2154796356333997 -0.290109929054615 0  -0.162731786766847 -0.2480220270514603 0  -0.1100735517765719 -0.207820503937085 0  -0.02830457756183202 -0.1168395852873513 0  0.03188358557749704 -0.04227084332659059 0  0.09217548307375378 0.04349173329584599 0  0.146236003827503 0.1299490118095469 0  0.1969445462541684 0.2204636368768778 0  0.2459317801410295 0.3183942810795434 0  0.2795020999330116 0.4026924579060064 0  0.3166078865085939 0.4842802482528298 0  0.3651677434655647 0.6158012012083719 0  0.402587664650382 0.733670760502495 0  0.4372246359306723 0.8609632924489877 0  0.4662585985774691 0.9887333029924812 0  0.4907867940859244 1.119785568502416 0  0.5107733197107676 1.254722647143404 0  0.5218429060401918 1.384329288710039 0  0.5279723855028564 1.501161125638589 0  0.5327265101178307 1.629866401739059 0  0.532537046445704 1.75910033627017 0  0.5271489591557943 1.887591869400203 0  0.5163350485555736 2.013590609345665 0  0.5000705458417736 2.135561703629835 0  0.478580314770425 2.253058237597052 0  0.4510409992758518 2.361350018840394 0  0.4197013831763472 2.46071237699886 0  0.3841071279458614 2.556489073675016 0  0.3443244157778668 2.642216189757215 0  0.300854312028878 2.718805678992791 0  0.2541835002447824 2.785273241377364 0  0.2047676183154988 2.841242709718221 0  0.1531843280114815 2.887059586988293 0  0.09948685173767921 2.919973675191084 0  0.04520087773350865 2.942088693691828 0  -0.01004952149973518 2.955262181063902 0  -0.06565313642500784 2.956586994768078 0  -0.1211945759505826 2.946618086655129 0  -0.1761138264666845 2.924562358706015 0  -0.2298087466405256 2.890629935821801 0  -0.2816981163304718 2.843586835185825 0  -0.3311453276426126 2.787369381457146 0  -0.3784460832963846 2.717983223665525 0  -0.4213169071516041 2.633621255850948 0  -0.4597209557406294 2.538049135776192 0  -0.4929790903154525 2.431761617006468 0  -0.5206023226944583 2.315793243762153 0  -0.5423181132631926 2.192937288151635 0  -0.5575379205828808 2.06100239945565 0  -0.5680480571997836 1.936443722906551 0  -0.5745730517039644 1.802658236883343 0  -0.5718222338361134 1.658984506000202 0  -0.5630730662657492 1.515648874556046 0  -0.5482784934405269 1.372826506112296 0  -0.527057228259986 1.229259483320481 0  -0.5009649150951881 1.092504584369361 0  -0.4653853770785565 0.9444237306387362 0  -0.4308936553427747 0.8323868856113161 0  -0.4008698662491261 0.7316825232250262 0  -0.3622619608938883 0.6255955957402843 0  -0.3235646659866238 0.5312834519762776 0  -0.2843031977911044 0.4454552533963184 0  -0.2491765234269996 0.3767233656027204 0  -0.2133790442494372 0.3103566662107911 0  -0.2044710297585497 0.2964074802526297 0  -0.185958225997279 0.2411931487993582 0  -0.1117321409371355 0.1195854910142437 0  -0.05620804593058026 0.03400447078291974 0  0.0183006409059161 -0.05870691684593654 0  0.09608137533508998 -0.142541844763819 0  0.2016687214299406 -0.23699543777709 0  0.2985401825635652 -0.3037037688474242 0  0.4630327297501997 -0.404784648874171 0  0.5392471462788988 -0.4165066191244288 0  0.6064990624092783 -0.4279267716091029 0  0.734487041260955 -0.4388881079498094 0  0.7782693069538626 -0.4233515036891404 0  0.8080697024732171 -0.3996205181703172 0  0.766604419445629 -0.376498455089877 0  0.713318739671934 -0.3629296419876378 0  0.571593888729323 -0.3777520387462304 0  0.4966945756205179 -0.3931877778833791 0  0.4123235461672887 -0.4094072884368096 0  0.2342891045005893 -0.5219477378635096 0  0.1332208564267328 -0.5942706311593881 0  0.02359506893563257 -0.6955017947515059 0  -0.0546087560955808 -0.7832525684242021 0  -0.1280008012557032 -0.8783017475885706 0  -0.1797828769241743 -0.9627698408861668 0  -0.2540871273529819 -1.085565376469398 0  -0.2763271601604051 -1.149861476410133 0  -0.2826867108818014 -1.161950682126609 0  -0.3189961295911363 -1.231405517459764 0  -0.3542389705678246 -1.302223857384822 0  -0.3946680082505323 -1.392005785453365 0  -0.4349113609844546 -1.491227227123806 0  -0.4756629719923481 -1.603697833350086 0  -0.5082921097476326 -1.712000659490859 0  -0.5467923735893395 -1.836602085463951 0  -0.5863468519972242 -2.002743196713872 0  -0.6148078945655446 -2.154006223716701 0  -0.6382529012046518 -2.313986567231022 0  -0.6548845034463768 -2.473789155528129 0  -0.6651141891621251 -2.635289922247779 0  -0.6687273461446572 -2.797453074859019 0  -0.663773453049083 -2.952785474940277 0  -0.6546380771664556 -3.110498493903456 0  -0.6370486964358579 -3.275386678584641 0  -0.6104522206294202 -3.421837409297092 0  -0.576562212737654 -3.559756650370149 0  -0.5358172162639017 -3.684348510916458 0  -0.4889284774419146 -3.795629100765235 0  -0.4368520569589332 -3.893558431498519 0  -0.3790742461682886 -3.971306287950064 0  -0.3196946969512626 -4.032549673418173 0  -0.2576067246261709 -4.085962168806461 0  -0.1933087333760273 -4.123985383179995 0  -0.1274260871739678 -4.147968635253292 0  -0.060681133522842 -4.15697956454322 0  0.006188787424712277 -4.151178136123925 0  0.07247697507648848 -4.130191878139533 0  0.1373832889515061 -4.093843828838504 0  0.1998702768423594 -4.044078799348985 0  0.2596947184899302 -3.98259912543654 0  0.3163995645961552 -3.909330478739419 0  0.3694772458825862 -3.824978402040476 0  0.4184214103009987 -3.729931476974544 0  0.4627843307162426 -3.626148411754739 0  0.5021187009248771 -3.511818067959217 0  0.5368740460227297 -3.399417928672722 0  0.5683651844702243 -3.276231432783459 0  0.5921164891880479 -3.14090298400707 0  0.6101065680860779 -3.002224761856975 0  0.6220692205998941 -2.860112713016219 0  0.6281174492684414 -2.716308758271261 0  0.6285571143394566 -2.572561439046734 0  0.6237884606840187 -2.430561063346757 0  0.6174596128770551 -2.3010979801161 0  0.60575598904162 -2.158998565250578 0  0.5850011730038237 -2.012541697893059 0  0.5594100669774678 -1.870451144528008 0  0.5291327332787156 -1.73229246430819 0  0.4929458078872956 -1.594883643125462 0  0.4538882691351276 -1.467823265524244 0  0.4028940217258582 -1.326046996424592 0  0.3636761179062564 -1.236863763125895 0  0.3284790490133254 -1.14615146536041 0  0.2775066580578738 -1.041716118199328 0  0.2247784191800886 -0.9451509009434862 0  0.1685158039725518 -0.8528341112224529 0  0.1057253184750317 -0.7612817883618584 0  0.04294918640997625 -0.6813717783846784 0  -0.04266550952485693 -0.5840640603169147 0  -0.09834876765109501 -0.5394017673169189 0  -0.1551056745461707 -0.492266413372879 0  -0.2329382248129133 -0.4406648156745292 0  -0.3040902189788124 -0.403315204538553 0  -0.3731673691456336 -0.3764201096922427 0  -0.4317703318245099 -0.3627746988054011 0  -0.4771989576055269 -0.3602004882975306 0  -0.4992285808748678 -0.3678606547900842 0  -0.02334114284621022 1.637365139543725 0  -0.06244693100227405 -1.954563178408278 0  0.09414154521028695 -1.666783236208042 0  -0.02769732155728159 -2.688004786338845 0  -0.09051923651294336 1.001069721374254 0  -0.3506773725256471 -0.08360201324367006 0  0.1190060172523321 0.6920328808959096 0  0.4726416318225706 -0.4259148153614077 0  -0.3226915541537381 -0.7393534649167024 0  0.1602038658827638 -1.099558731963054 0  0.343886683626119 -0.4829746732182667 0  0.2287741355450864 -0.9252696340234381 0  0.2081417955359826 0.188626799030071 0  -0.02338882782047874 -2.531818307400025 0  -0.1021458575044232 -1.12137478747941 0  -0.03644073728070069 1.49791670823154 0  -0.1985537886269705 0.1188222221625483 0  -0.3348574535680534 -0.4493406274247789 0  0.02130281936601675 -2.30501971377641 0  0.02095646646888083 1.295197524351426 0  0.1192559242705654 0.2615791356176802 0  -0.1856409657982858 -1.235169619115178 0  -0.2182071718152798 0.3645598316936087 0  -0.2177707019846841 -1.137751888553316 0  -0.04227000329483041 0.2662017965592996 0  0.2434574192031502 0.07295582433001706 0  0.07086039703160041 -1.110865684476424 0  -0.3944598757796611 -0.4260989216940792 0  -0.4587847978329402 -0.3974876484089376 0  -0.1224051731247791 -1.57505225723942 0  -0.3172395886454273 -0.8997434377935463 0  -0.2566735373066756 -1.177982619189618 0  -0.284956829082386 -0.7680454714599059 0  -0.1776282517268861 -1.57761594039482 0  -0.3347949870153408 -0.8189505229734428 0  -0.3690275105412042 -0.4374154105079613 0  0.3325319948630812 -0.09243446063478616 0  0.364330268938853 -0.1349305530673904 0  0.3863977383970458 -0.4480311494703779 0  0.3102355761543674 -0.842534920133081 0  0.3329515098844129 -0.7405999553456486 0  0.2390828315301807 -0.8288404228205699 0  0.5445162651933011 -0.5474589860330418 0  0.5670499224017531 -0.2857185593562245 0  0.286519068478881 -0.01684386910309038 0  0.01793121728897323 -1.894471831046212 0  0.08714472471898765 -1.741363690536584 0  -0.0105711080556834 -2.534306614227997 0  0.1548511988626973 -1.026219818476051 0  0.1481465196835757 -1.594772300861716 0  -0.02480540531420861 -1.103632582263679 0  0.03802213204270544 0.2382604902306657 0  -0.1283233785865555 -1.815763150963441 0  -0.1658567430307987 -1.140195870194979 0  -0.09771612374270827 -1.844046221521398 0  0.1681251405421682 0.4098083961602589 0  0.2875687052140545 0.09067446299321064 0  -0.2265620634039289 -0.71164744543384 0  -0.04933611717339104 -1.03181329639599 0  -0.1055577365856937 0.2053580387733995 0  -0.2731508646080769 -0.09112528955864779 0  -0.1987098458258938 -2.307432606422997 0  -0.1404565448235483 -1.780275201431317 0  -0.09306195084811131 0.8500928306725546 0  -0.154473658668581 1.309469284285402 0  0.192200195369967 -2.208982216160551 0  0.191623140347947 -2.670889889476024 0  0.14271987088
[...]
<PointData  Vectors="f_44"> 
<DataArray  type="Float64"  Name="f_44"  NumberOfComponents="3" format="ascii">1.8056077709927201e-01 -2.2727143460165389e-01 0.0000000000000000e+00  1.7963691819261376e-01 1.1503158439736984e-01 0.0000000000000000e+00  -1.5875820960437745e-01 9.7329250481728996e-02 0.0000000000000000e+00  -2.3462112236103169e-01 -5.2969763756341388e-02 0.0000000000000000e+00  -1.8774165335129742e-01 -1.1523083283511258e-01 0.0000000000000000e+00  -1.5384565945618475e-01 -1.6421967065994722e-01 0.0000000000000000e+00  -1.1576926814385589e-01 -1.9242513626825308e-01 0.0000000000000000e+00  -6.5423837491317804e-02 -2.1274461422842830e-01 0.0000000000000000e+00  -6.2343242148772626e-02 -2.1720291980755307e-01 0.0000000000000000e+00  -1.0155831121822048e-02 -2.1975748946623069e-01 0.0000000000000000e+00  4.0668214857482197e-02 -2.2229461105862558e-01 0.0000000000000000e+00  6.0428818589435523e-02 -2.1453203301188728e-01 0.0000000000000000e+00  8.7958032194362157e-02 -2.0613893264885969e-01 0.0000000000000000e+00  1.0825049149629838e-01 -1.9536384182978919e-01 0.0000000000000000e+00  1.2326216403363002e-01 -1.8747791722584969e-01 0.0000000000000000e+00  1.5156461003517724e-01 -1.6350675232868664e-01 0.0000000000000000e+00  1.5497230966769399e-01 -1.6106039616011689e-01 0.0000000000000000e+00  1.5691537379400605e-01 -1.5869669981038095e-01 0.0000000000000000e+00  1.7818363694540815e-01 -1.3588901097468820e-01 0.0000000000000000e+00  1.8774216473329075e-01 -1.2133903981965818e-01 0.0000000000000000e+00  1.9751665498819168e-01 -1.0506407483178749e-01 0.0000000000000000e+00  2.0543714295973756e-01 -8.8262948124657833e-02 0.0000000000000000e+00  2.1115202690369489e-01 -7.4248206834300348e-02 0.0000000000000000e+00  2.1743880917771818e-01 -5.1673898193087833e-02 0.0000000000000000e+00  2.2202024376470986e-01 -2.8089384426905173e-02 0.0000000000000000e+00  2.2268035232673303e-01 -2.0582437382519355e-02 0.0000000000000000e+00  2.2341064785607401e-01 -9.1795811856717358e-03 0.0000000000000000e+00  2.2348863066853236e-01 9.8135731407993226e-03 0.0000000000000000e+00  2.2191982329923243e-01 2.8011490416640392e-02 0.0000000000000000e+00  2.1832681856146963e-01 4.8442428350235864e-02 0.0000000000000000e+00  2.1323138229347355e-01 6.8008693198071068e-02 0.0000000000000000e+00  2.0359830194679290e-01 9.2483455887853019e-02 0.0000000000000000e+00  1.8957181658429381e-01 1.1889364619819123e-01 0.0000000000000000e+00  1.7734391421134740e-01 1.3656958023318330e-01 0.0000000000000000e+00  1.5858907641287240e-01 1.5765942125650809e-01 0.0000000000000000e+00  1.3049026605912964e-01 1.8205337958480017e-01 0.0000000000000000e+00  9.7458175168999614e-02 2.0166067696730300e-01 0.0000000000000000e+00  5.2952948391927768e-02 2.1741641439820025e-01 0.0000000000000000e+00  3.7683615558633168e-03 2.2480340490405967e-01 0.0000000000000000e+00  -6.2208509870638445e-02 2.1504358291402037e-01 0.0000000000000000e+00  -1.3453910036815672e-01 1.8000285969486760e-01 0.0000000000000000e+00  -1.8190296772105355e-01 1.3317261617527387e-01 0.0000000000000000e+00  -2.1576391310921406e-01 5.9469959073535868e-02 0.0000000000000000e+00  -2.2343799643494269e-01 -3.5348772737797386e-02 0.0000000000000000e+00  -1.8938494267958572e-01 -1.2003664673221492e-01 0.0000000000000000e+00  -1.3121300706969827e-01 -1.8372979009576379e-01 0.0000000000000000e+00  -5.5953027413689127e-02 -2.1650745212271338e-01 0.0000000000000000e+00  5.7005929611137277e-03 -2.2474353955941756e-01 0.0000000000000000e+00  5.4553677060291343e-02 -2.1735800029806115e-01 0.0000000000000000e+00  1.1001293358271286e-01 -1.9494290975529041e-01 0.0000000000000000e+00  1.4931907496808225e-01 -1.6721610793789821e-01 0.0000000000000000e+00  1.7354531474594567e-01 -1.4120431984195922e-01 0.0000000000000000e+00  1.9288611574992279e-01 -1.1341136457677774e-01 0.0000000000000000e+00  2.0540597308475822e-01 -8.8992850419193872e-02 0.0000000000000000e+00  2.1466744030228593e-01 -6.2503974733385842e-02 0.0000000000000000e+00  2.1957489096109672e-01 -4.2722143594328375e-02 0.0000000000000000e+00  2.2153105956240668e-01 -3.2049668256641919e-02 0.0000000000000000e+00  2.2336003115327627e-01 -6.3916264777043692e-03 0.0000000000000000e+00  2.2303587898009944e-01 1.9402954076405986e-02 0.0000000000000000e+00  2.2066601901132946e-01 3.6042646044110567e-02 0.0000000000000000e+00  2.1671741431775798e-01 5.5516181262987900e-02 0.0000000000000000e+00  2.1114860758495985e-01 7.3569083192335460e-02 0.0000000000000000e+00  2.0464988651219704e-01 9.0905719333465973e-02 0.0000000000000000e+00  1.9126354307772025e-01 1.1528054491110774e-01 0.0000000000000000e+00  1.8567773713523072e-01 1.2501879750549705e-01 0.0000000000000000e+00  1.8107956754141355e-01 1.3064899892667708e-01 0.0000000000000000e+00  1.6428542270296620e-01 1.5219590020147356e-01 0.0000000000000000e+00  1.5364321353389734e-01 1.6247244886671958e-01 0.0000000000000000e+00  1.3776989251132687e-01 1.7612484705894027e-01 0.0000000000000000e+00  1.2901450258007408e-01 1.8261565942647379e-01 0.0000000000000000e+00  1.0752727410523148e-01 1.9770884542572470e-01 0.0000000000000000e+00  1.7821401660051978e-01 1.3362011811987928e-01 0.0000000000000000e+00  1.2714474054115057e-01 1.7796124134170527e-01 0.0000000000000000e+00  9.4358778460026382e-02 2.0589214384203242e-01 0.0000000000000000e+00  7.1805011762349394e-02 2.1041172869173794e-01 0.0000000000000000e+00  3.1095529801191055e-02 2.2216795211974380e-01 0.0000000000000000e+00  -1.2512598259913730e-03 2.2498024671798542e-01 0.0000000000000000e+00  -5.4506932277953363e-02 2.1414313024468676e-01 0.0000000000000000e+00  -8.7092875017577592e-02 2.1456976493607346e-01 0.0000000000000000e+00  -1.3531767412923124e-01 1.5921601074408245e-01 0.0000000000000000e+00  -2.3232579378996626e-01 4.7029990803731686e-02 0.0000000000000000e+00  -2.1360990580981831e-01 6.8942237024153794e-02 0.0000000000000000e+00  -2.1985031060690369e-01 -4.4217196278542835e-03 0.0000000000000000e+00  -1.0247149885033573e-01 -2.6478215344291395e-01 0.0000000000000000e+00  -6.2284777948532218e-02 1.1306188433776315e-02 0.0000000000000000e+00  -1.6635583086331515e-01 2.1778353530753744e-01 0.0000000000000000e+00  -2.1979949942332880e-01 -7.8331328832484341e-03 0.0000000000000000e+00  -2.1020974999688152e-01 -7.7321897836830494e-02 0.0000000000000000e+00  -2.2571309553162089e-01 -6.6463555320667472e-02 0.0000000000000000e+00  -1.3110141971288122e-01 -1.6473605513738840e-01 0.0000000000000000e+00  -8.0680775646827171e-02 -2.1643528938502984e-01 0.0000000000000000e+00  -4.7171676964119710e-02 -2.1621353173724125e-01 0.0000000000000000e+00  6.4933659118864397e-03 -2.2466867705018420e-01 0.0000000000000000e+00  3.9637199186934091e-02 -2.2105191000839616e-01 0.0000000000000000e+00  8.1766449675727104e-02 -2.0652878348159284e-01 0.0000000000000000e+00  1.0023382843622022e-01 -2.0280301352931207e-01 0.0000000000000000e+00  1.2602998486114630e-01 -1.7875397863355058e-01 0.0000000000000000e+00  1.8877690688223850e-01 -1.2857010679836056e-01 0.0000000000000000e+00  1.2133807081423935e-01 -1.8901343215583191e-01 0.0000000000000000e+00  1.3121443316659187e-01 -1.8086311327515786e-01 0.0000000000000000e+00  1.4117549368952140e-01 -1.7350944362758150e-01 0.0000000000000000e+00  1.5500904370195367e-01 -1.6110394806145131e-01 0.0000000000000000e+00  1.6524473543168183e-01 -1.5112638619771493e-01 0.0000000000000000e+00  1.8087105458682423e-01 -1.3097011745239004e-01 0.0000000000000000e+00  1.8488908282921779e-01 -1.2622597784513417e-01 0.0000000000000000e+00  1.9151072864626256e-01 -1.1482172557754039e-01 0.0000000000000000e+00  2.0512865262960778e-01 -8.9858315655538576e-02 0.0000000000000000e+00  2.1145614340632032e-01 -7.2680907987009158e-02 0.0000000000000000e+00  2.1675447763073055e-01 -5.5294302836492039e-02 0.0000000000000000e+00  2.2056689837547269e-01 -3.6819431556074519e-02 0.0000000000000000e+00  2.2289107205898387e-01 -2.0140138748116154e-02 0.0000000000000000e+00  2.2348463084315770e-01 2.8775239884510188e-03 0.0000000000000000e+00  2.2279512480336774e-01 2.0819082890567147e-02 0.0000000000000000e+00  2.2111981932581493e-01 3.4072714306484959e-02 0.0000000000000000e+00  2.1472311410056807e-01 6.2396821623165066e-02 0.0000000000000000e+00  2.0428556003733123e-01 9.1740892073818289e-02 0.0000000000000000e+00  1.9076919742826084e-01 1.1693137787784558e-01 0.0000000000000000e+00  1.6897848914210339e-01 1.4657121928093103e-01 0.0000000000000000e+00  1.4411994214865356e-01 1.7205014612558148e-01 0.0000000000000000e+00  9.9144531253693449e-02 2.0053738215037376e-01 0.0000000000000000e+00  3.2591133608131873e-02 2.2182454873796709e-01 0.0000000000000000e+00  -1.1337143895341290e-02 2.2471879063945255e-01 0.0000000000000000e+00  -6.6275823670842823e-02 2.1306234403377639e-01 0.0000000000000000e+00  -1.4276050424409542e-01 1.7535141806224805e-01 0.0000000000000000e+00  -1.9784847497429414e-01 1.0618102842117490e-01 0.0000000000000000e+00  -2.2547342498665607e-01 1.0845343059352971e-02 0.0000000000000000e+00  -2.0785340008379366e-01 -8.7032058102745086e-02 0.0000000000000000e+00  -1.5182878187683915e-01 -1.6595426594518947e-01 0.0000000000000000e+00  -8.1525861531102931e-02 -2.0931463467317796e-01 0.0000000000000000e+00  -2.0262172472943703e-02 -2.2341950800786600e-01 0.0000000000000000e+00  3.2684314085413418e-02 -2.2154558176524433e-01 0.0000000000000000e+00  7.8060780715568032e-02 -2.1004710050442915e-01 0.0000000000000000e+00  1.1504524348485586e-01 -1.9186299010656133e-01 0.0000000000000000e+00  1.4287146293985012e-01 -1.7259055452579394e-01 0.0000000000000000e+00  1.6722845683244225e-01 -1.4826529347359579e-01 0.0000000000000000e+00  1.8150413013503888e-01 -1.3092204157656639e-01 0.0000000000000000e+00  1.8927957768334541e-01 -1.1949364872898190e-01 0.0000000000000000e+00  2.0411007334055248e-01 -9.1033210548899388e-02 0.0000000000000000e+00  2.1419976348424205e-01 -6.5222147208829517e-02 0.0000000000000000e+00  2.1846647750321591e-01 -4.7554003535686180e-02 0.0000000000000000e+00  2.2197991886069604e-01 -2.7656899621863251e-02 0.0000000000000000e+00  2.2345529515856158e-01 -1.0203296173379476e-02 0.0000000000000000e+00  2.2345747745980482e-01 8.0278334888431446e-03 0.0000000000000000e+00  2.2283683826102477e-01 1.8875812470007424e-02 0.0000000000000000e+00  2.2214315581076094e-01 2.6828788116759698e-02 0.0000000000000000e+00  2.1794766600940602e-01 4.9641027795878541e-02 0.0000000000000000e+00  2.1211904784501259e-01 7.1338091657802166e-02 0.0000000000000000e+00  2.0670617105368347e-01 8.5288989976638446e-02 0.0000000000000000e+00  1.9912876085500664e-01 1.0193134805432312e-01 0.0000000000000000e+00  1.8990414906068653e-01 1.1797986541397976e-01 0.0000000000000000e+00  1.8038926954863396e-01 1.3284901844325689e-01 0.0000000000000000e+00  1.6015782704358411e-01 1.5552481399355839e-01 0.0000000000000000e+00  1.5851159284568039e-01 1.5763623640433447e-01 0.0000000000000000e+00  1.5445114269333965e-01 1.6078997408865367e-01 0.0000000000000000e+00  1.2712286327751621e-01 1.8485234436073184e-01 0.0000000000000000e+00  1.1266384501499123e-01 1.9287844264881648e-01 0.0000000000000000e+00  9.2536226264295612e-02 2.0406368948957634e-01 0.0000000000000000e+00  6.6018767410307086e-02 2.1299879691294341e-01 0.0000000000000000e+00  4.5405206553989878e-02 2.2108978735861401e-01 0.0000000000000000e+00  -3.8399291030996150e-03 2.2049269966725865e-01 0.0000000000000000e+00  -5.1328279618139322e-02 2.1980935629454551e-01 0.0000000000000000e+00  -5.8367578597900809e-02 2.1468220958436462e-01 0.0000000000000000e+00  -1.0898495427709813e-01 1.9661589971542451e-01 0.0000000000000000e+00  -1.4539718656080020e-01 1.7048992399326568e-01 0.0000000000000000e+00  -1.8305232504064448e-01 1.2837512864386807e-01 0.0000000000000000e+00  -2.1441487243576399e-01 7.2056631139308658e-02 0.0000000000000000e+00  -2.2439293662224072e-01 -3.6806769651419449e-02 0.0000000000000000e+00  -8.3802572627142038e-02 -1.9170396657451039e-01 0.0000000000000000e+00  7.0182043625030027e-02 -2.1039317270026231e-01 0.0000000000000000e+00  -1.3700889637683600e-01 1.7835949866919668e-01 0.0000000000000000e+00  -1.3505875422548419e-01 -1.7833586785658409e-01 0.0000000000000000e+00  -2.2382320197084829e-01 1.1081374925178729e-02 0.0000000000000000e+00  -1.2168122575078888e-01 -1.8859154664492322e-01 0.0000000000000000e+00  1.5377295113202167e-02 -2.2388724349138511e-01 0.0000000000000000e+00  -1.5940683122055480e-01 1.5719413943531468e-01 0.0000000000000000e+00  2.0411204515859810e-01 -1.0796200943517163e-01 0.0000000000000000e+00  6.2653636083192743e-02 2.1570875795432645e-01 0.0000000000000000e+00  -2.3260005176019262e-02 -2.2243178141154674e-01 0.0000000000000000e+00  2.1088646278691692e-01 -9.1312961142953133e-02 0.0000000000000000e+00  -7.3122774470082428e-03 -2.2482142671037411e-01 0.0000000000000000e+00  -8.0272647373956368e-03 2.2356106627043471e-01 0.0000000000000000e+00  -9.9491200239115202e-02 2.0454262808922546e-01 0.0000000000000000e+00  -2.2326082574792383e-01 2.0073473652657471e-02 0.0000000000000000e+00  2.0636207967107238e-02 -2.2423508557398519e-01 0.0000000000000000e+00  -1.5421479149644063e-01 -1.6255838854039953e-01 0.0000000000000000e+00  2.3481607986297037e-01 -1.5696725917058535e-02 0.0000000000000000e+00  -1.7141158708468304e-01 -1.3633764353092054e-01 0.0000000000000000e+00  -2.1575171925564046e-01 -8.1461534385046469e-02 0.0000000000000000e+00  -1.3469302574607883e-01 1.8071593519342927e-01 0.0000000000000000e+00  -9.5793655124942048e-02 2.0208622920712296e-01 0.0000000000000000e+00  -1.0428596328300149e-01 -1.9780740853333170e-01 0.0000000000000000e+00  -1.5267063228378205e-01 1.6325009701741941e-01 0.0000000000000000e+00  -2.2260850495591747e-01 2.6768245489772212e-02 0.0000000000000000e+00  1.6177123576881572e-02 2.2394935666657423e-01 0.0000000000000000e+00  -1.5780430555350516e-01 -1.6104305022489998e-01 0.0000000000000000e+00  2.2441181377877414e-01 -1.2931959170605915e-02 0.0000000000000000e+00  2.2658770273412698e-01 -3.3370859470648842e-02 0.0000000000000000e+00  -1.3815413601806087e-01 1.7600272317539017e-01 0.0000000000000000e+00  -2.5045914719199942e-02 2.2596214348649005e-01 0.0000000000000000e+00  -1.2034915199435046e-01 1.8957229158225047e-01 0.0000000000000000e+00  3.3237294543203066e-02 2.2568573894869171e-01 0.0000000000000000e+00  -1.7295873555815797e-01 1.4206007469428455e-01 0.0000000000000000e+00  2.1327959610340935e-02 2.2517271029768549e-01 0.0000000000000000e+00  2.2886062784029076e-01 -1.2495449134179064e-02 0.0000000000000000e+00  9.3004141767400988e-02 2.0648714607030941e-01 0.0000000000000000e+00  1.0575634956595975e-01 1.9739619306504672e-01 0.0000000000000000e+00  2.1282506126707484e-01 -7.8685186839348206e-02 0.0000000000000000e+00  2.7197339737557523e-02 -2.2214467578632283e-01 0.0000000000000000e+00  5.5468849341579168e-02 -2.1673310296185846e-01 0.0000000000000000e+00  2.6937295390381574e-02 -2.2204612326618861e-01 0.0000000000000000e+00  -5.5572683719560180e-02 -2.1870824711733874e-01 0.0000000000000000e+00  -8.2091976385960386e-02 2.3029145384787872e-01 0.0000000000000000e+00  5.1443951898088196e-02 2.1778147921675164e-01 0.0000000000000000e+00  -2.1959966637025627e-01 -4.2386227220679633e-02 0.0000000000000000e+00  -1.9563992782591938e-01 -1.0828096928053432e-01 0.0000000000000000e+00  -2.2038441574052078e-01 -2.2296790366086082e-02 0.0000000000000000e+00  -7.8040159801101142e-02 -2.1166854238766666e-01 0.0000000000000000e+00  -1.6659563006650899e-01 -1.4926146776167157e-01 0.0000000000000000e+00  4.0536034158945834e-02 -2.2018124076377923e-01 0.0000000000000000e+00  3.1554934888557713e-02 2.2157205655942031e-01 0.0000000000000000e+00  -1.8376151891534079e-01 1.2750572178405944e-01 0.0000000000000000e+00  -1.9677199829831288e-01 1.0647143998774866e-01 0.0000000000000000e+00  -1.9899647451730232e-01 1.0236592095525239e-01 0.0000000000000000e+00  -7.8474694470769824e-02 2.0957540132067937e-01 0.0000000000000000e+00  1.5828699870422715e-02 2.2490063400268132e-01 0.0000000000000000e+00  3.3653028920196670e-02 2.2117183606208829e-01 0.0000000000000000e+00  1.0815060964690110e-02 2.2354430310436427e-01 0.0000000000000000e+00  -1.1275658234619245e-02 -2.2360854081945536e-01 0.0000000000000000e+00  -2.1980289655311020e-03 -2.2363483580204441e-01 0.0000000000000000e+00  1.0629751660078186e-01 -1.9986017060658201e-01 0.0000000000000000e+00  2.3048527144903953e-02 -2.2358802289619850e-01 0.0000000000000000e+00  -2.8802116384195539e-02 2.2316527740475003e-01 0.0000000000000000e+00  2.3473888947230234e-02 2.2661908680571052e-01 0.0000000000000000e+00  1.1017299693874630e-01 1.9729350543434471e-01 0.0000000000000000e+00  2.2227585390809146e-01 4.7854957934421176e-02 0.0000000000000000e+00  2.0420251443464585e-01 -9.8625410681424205e-02 0.0000000000000000e+00  1.0235816762742246e-01 -2.0126141206527196e-01 0.0000000000000000e+00  -2.2244836486464525e-01 -2.5478482851857082e-02 0.0000000000000000e+00  -1.9154749551491618e-01 1.1623638724089146e-01 0.0000000000000000e+00  -2.0470499111026738e-01 -9.1261103862297771e-02 0.0000000000000000e+00  -2.0704108566328963e-01 8.6204756358649187e-02 0.0000000000000000e+00  -9.0827916096984651e-02 2.1035562957518519e-01 0.0000000000000000e+00  4.0104207584145214e-02 -2.2378835014322809e-01 0.0000000000000000e+00  -1.1269248520963417e-01 -1.9349017898055759e-01 0.0000000000000000e+00  -1.5698770835744569e-01 -1.5915433298724124e-01 0.0000000000000000e+00  -1.1892068186801126e-01 -1.8886487308548872e-01 0.0000000000000000e+00  1.1221893620161240e-01 -1.9575339627265423e-01 0.0000000000000000e+00  -3.9962945281344912e-02 -2.2049080988188052e-01 0.0000000000000000e+00  -2.1168390521284791e-01 -7.2289256945085950e-02 0.0000000000000000e+00  -1.1449338774981270e-01 -1.9337308466042794e-01 0.0000000000000000e+00  -8.8893732572839140e-02 -2.0789400348663248e-01 0.0000000000000000e+00  3.1176708875652062e-02 -2.2187960784332675e-01 0.0000000000000000e+00  5.2509922294016508e-03 2.2398621921676870e-01 0.0000000000000000e+00  -8.1843788695321940e-02 -2.0816522791858616e-01 0.0000000000000000e+00  -4.0017480064325511e-02 -2.2090809656485183e-01 0.0000000000000000e+00  -1.3052917328713518e-01 -1.8164313453399247e-01 0.0000000000000000e+00  -3.6824570171773820e-03 -2.2212530059431923e-01 0.0000000000000000e+00  -1.7493682926457943e-01 -1.3951745918967118e-01 0.0000000000000000e+00  -7.1262663648727825e-02 -2.1429745970863878e-01 0.0000000000000000e+00  -2.1973760274547341e-01 4.2172855622274220e-02 0.0000000000000000e+00  -2.2529932577451658e-01 2.5452874922947042e-02 0.0000000000000000e+00  -2.0826536750916949e-01 8.3181016423664642e-02 0.0000000000000000e+00  -2.2431578867900698e-01 -1.0818569692647158e-02 0.0000000000000000e+00  -3.1453423539965185e-02 -2.1189997512131709e-01 0.0000000000000000e+00  8.7466697588219899e-02 -2.2698417073636470e-01 0.0000000000000000e+00  -2.0963637769987400e-01 -8.1697424834928395e-02 0.0000000000000000e+00  9.1010855682196398e-02 -2.0790360750360909e-01 0.0000000000000000e+00  -1.6296664688066653e-01 -1.5371391136925219e-01 0.0000000000000000e+00  -5.3789661846291754e-02 2.2044090558678406e-01 0.0000000000000000e+00  1.9434921463879978e-01 1.1961117676175688e-01 0.0000000000000000e+00  1.1629720568637458e-01 -2.1782182181543941e-01 0.0000000000000000e+00  -1.9084244189127481e-01 -1.1753668535293198e-01 0.0000000000000000e+00  7.8532145129768555e-02 -2.0532878786309322e-01 0.0000000000000000e+00  -7.8364997226086128e-02 2.1094872944797094e-01 0.0000000000000000e+00  2.3006847775189893e-01 9.4458042504053583e-03 0.0000000000000000e+00  -1.6174911075623924e-01 -1.5479601240561774e-01 0.0000000000000000e+00  2.2385857992550182e-01 6.1119706651425174e-02 0.0000000000000000e+00  -1.2969364662330906e-03 -2.2592001395349051e-01 0.0000000000000000e+00  -2.1525450116157710e-01 5.8538353669113086e-02 0.0000000000000000e+00  1.8082140140650693e-01 1.3602625266972579e-01 0.0000000000000000e+00  -1.0296726355762992e-01 1