<?xml version="1.0"?>
<VTKFile type="UnstructuredGrid"  version="0.1"  >
<UnstructuredGrid>
<Piece  NumberOfPoints="4153" NumberOfCells="8064">
<Points>
<DataArray  type="Float64"  NumberOfComponents="3"  format="ascii">-0.4000267510135876 -0.4683509249414478 0  -0.02489553171903797 -0.5143312028561868 0  -0.07210143565567786 -0.510939335880482 0  -0.1191556791796909 -0.5067080387807095 0  -0.1660928280177858 -0.5019919213546844 0  -0.213053585759912 -0.4969941059317694 0  -0.2599910187702784 -0.49079290266626 0  -0.3068186207182523 -0.4838299294899939 0  -0.3535212760842228 -0.4763146075442318 0  0.02245480734975059 -0.5165714726412085 0  -0.4464458735737278 -0.4607709315166021 0  -0.4927708810513136 -0.4531280976152341 0  -0.5389905030085207 -0.4455719137930071 0  -0.5850853189929591 -0.4383901741327975 0  -0.6310779260035346 -0.4315354774510226 0  -0.6769125101757593 -0.4251494728586384 0  -0.7225731612091773 -0.419366857688568 0  0.7474734135714893 -0.4347561816802683 0  0.06992021521929673 -0.5174527615399058 0  0.1174544316216429 -0.5168129107902869 0  0.1649939479803425 -0.5145911234484638 0  0.2124639036422762 -0.5108607275637316 0  0.2598169984112342 -0.5059245643808169 0  0.3070328610832123 -0.4999773488727846 0  0.3540917066981454 -0.4932282781443356 0  0.4009782052563098 -0.4859773885287926 0  0.4477024327115016 -0.4784135815260454 0  0.4942706575176338 -0.4707402941734457 0  0.540685709239653 -0.4631061673765635 0  0.5869497661348763 -0.4557340985028803 0  0.6330557170774659 -0.448670889954926 0  0.6789929443021226 -0.4421841358510717 0  0.7247588892437955 -0.436425035579813 0  0.7018825343488015 -0.4392822872315416 0  -0.6997418819932454 -0.4223127628868049 0  -0.6080993517677845 -0.4349219343862344 0  -0.5158939492648069 -0.4493413015110118 0  -0.4232499088307879 -0.4646116156595412 0  -0.3301855526932263 -0.4801338317624415 0  -0.2365329704646995 -0.4939955309384377 0  -0.1426346244870663 -0.5043880690736771 0  -0.04851799968359089 -0.5127614617115217 0  0.6560456816133751 -0.4453440025374141 0  0.1412278303129454 -0.5158992560506905 0  0.236156135668609 -0.5085321684676845 0  0.3305825585849351 -0.4966937220871893 0  0.4243600799410056 -0.482217296540138 0  0.5174970769943974 -0.4669127998707596 0  0.6100229106046803 -0.452137257173197 0  0.04617541751256012 -0.5171934938696955 0  -0.7451738244617453 -0.4177616463390372 0  0.5638314518139008 -0.4593865950839373 0  0.4710057469195406 -0.4745811759800871 0  0.3775531694496178 -0.4896465863847054 0  0.2834434756803216 -0.5030646164672614 0  0.1887431832081163 -0.5128952293042963 0  0.09368244852886658 -0.5173295262331471 0  -0.001236698200461067 -0.5156110393783051 0  -0.09564639328073113 -0.5089073385543402 0  -0.1895508414385983 -0.4996166100589632 0  -0.2834198102952649 -0.4873906107306277 0  -0.3768181456726383 -0.4722657430644185 0  -0.4696208414335676 -0.4569482608335264 0  -0.5620462939709095 -0.4419100676294767 0  -0.6540161563457998 -0.428274821091396 0  0.9290397214165945 -0.2430055164103125 0  0.8174567711918808 -0.4173682716053536 0  0.8769520953471831 -0.3755966834361334 0  0.9160575759310043 -0.3145138877333795 0  0.782554792830676 -0.4261316040219911 0  0.8475725473085576 -0.3969903695037856 0  0.895948088482879 -0.3446488889472092 0  0.9222063135415386 -0.2785927917256975 0  0.765090638457368 -0.4308444245200934 0  0.7999509279035204 -0.4215597303795706 0  0.8325256598053308 -0.4072852795802435 0  0.8619396018941023 -0.3857928595584892 0  0.8867835323459097 -0.3602887006210565 0  0.9058161148270192 -0.3295349813220361 0  0.9189693247953495 -0.2964812810980966 0  0.925429573321719 -0.2607646984160327 0  0.9288793973338849 -0.2197801759818802 0  0.9374125026182544 0.2916571758559748 0  0.9363628114491698 0.245301768741502 0  0.9360408386323621 0.198964722145829 0  0.9361064795909552 0.152554327771717 0  0.9363825887326036 0.1059943268609764 0  0.9361473156823943 0.05930161619557662 0  0.9353987983226012 0.01257107045416659 0  0.9341347807193914 -0.03413719794683395 0  0.93234816097303 -0.08072421498496173 0  0.9307333202777073 -0.1271585935997486 0  0.9294649203001821 -0.1734919696390529 0  0.9383576428704017 0.314969351249654 0  0.9367649347730833 0.2684693473081307 0  0.9360387755956414 0.1757727076393729 0  0.9363306274847347 0.08265671381074596 0  0.9348328282740127 -0.0107900807447871 0  0.931510970187058 -0.1039563451849523 0  0.9290574982591943 -0.1966366532588085 0  0.9361430537523484 0.2221378103779896 0  0.93626594092063 0.1293025749740393 0  0.9358354017899144 0.0359373795993897 0  0.9332663088720774 -0.05745798708363965 0  0.9300445249806726 -0.1503352501208719 0  0.7637580466271738 0.512236999527462 0  0.9276242399519173 0.3870474004787325 0  0.8904337413799661 0.4492295837020517 0  0.8325537230984673 0.4927791907944873 0  0.9326840324272192 0.3507877406106061 0  0.9085085305457241 0.4176770944841725 0  0.8619815985958336 0.4715658950831499 0  0.7983019382207361 0.5027006799946619 0  0.935309754040663 0.3328267943118745 0  0.9300047009689919 0.3688330290426143 0  0.9178767492922507 0.4022970391732942 0  0.899845106674408 0.4336285981597387 0  0.8758754490358055 0.4598402728319416 0  0.8472878931597648 0.4822759286493947 0  0.8153871372316547 0.4975620411260446 0  0.781117139075988 0.5079476516016538 0  -0.01906463758849454 0.6501655771471473 0  0.6962367682949927 0.5234963455287833 0  0.6507576811696545 0.5329340134139364 0  0.6049947209676886 0.5431990647545428 0  0.5589658810295186 0.5541494252257902 0  0.5126242689415752 0.5656767133925937 0  0.4659591958558145 0.5774838544943802 0  0.4189516915878801 0.5893629583543992 0  0.3715816905280951 0.6011393239910869 0  0.3238076687776162 0.6124306570619948 0  0.275652285589591 0.6228483753703116 0  0.2271344975793758 0.6320853764385632 0  0.1782735860614877 0.6399031703418657 0  0.1291254787331826 0.6457061507751228 0  0.07979993814254308 0.649348274539989 0  0.03039027484228789 0.6507771371846024 0  0.7414370847525908 0.5150248379317102 0  -0.06844952355339431 0.6468522183133181 0  -0.1176007185362836 0.6412728725196745 0  -0.1664247779290896 0.6337707087330562 0  -0.2147929869375003 0.6245678393543067 0  -0.2627275261432312 0.6150897234747642 0  -0.3103374141576288 0.6053025078786146 0  -0.3576610817625435 0.5953168564160612 0  -0.4047022425432406 0.5852703965231881 0  -0.451517504117865 0.5754683169835537 0  -0.4981275499918316 0.5658549995194347 0  -0.5445381704533785 0.5565116760251339 0  -0.5907469699791537 0.5475354373160404 0  -0.6367383034665871 0.5390518381709706 0  -0.6824995700379438 0.5312635156215744 0  -0.7280252844457028 0.5242833960964804 0  -0.7505491077919435 0.5221587332256437 0  -0.7052722770205775 0.5277788683656505 0  -0.6137702755409949 0.5432162768447019 0  -0.5213578689943322 0.5611441273319985 0  -0.428136922828863 0.5803573269506679 0  -0.3340332331181589 0.6003305316894975 0  -0.2388054522562 0.6198885506492168 0  -0.1420594695510631 0.6377326674534967 0  -0.04377837690966167 0.6488047350853507 0  0.05510112103726771 0.6503450057829159 0  0.1537280584743836 0.6430633542169724 0  0.2514374583356564 0.6276386600958759 0  0.3477427984627821 0.6068802388878045 0  0.4424998384051472 0.5834320290583721 0  0.5358338709999405 0.5598717602940173 0  0.6279115510237455 0.537982756157347 0  0.7188482019886637 0.5192716227154391 0  -0.6596481508574847 0.5350609727342057 0  -0.5676678409307393 0.5519744444238084 0  -0.4748475962734892 0.5706334701259266 0  -0.381219048303529 0.5902615949312844 0  -0.2865701650572232 0.6102281043842056 0  -0.1906927576852082 0.6292792474995665 0  -0.09306078263141868 0.6443230796285505 0  0.005681806081582471 0.6507741358443127 0  0.1044788513563795 0.6478042577885852 0  0.2027521905298465 0.6362076110745347 0  0.2997766894675624 0.6177678608430026 0  0.3953160286925311 0.5952685498967971 0  0.4893332854219827 0.5715581414022882 0  0.5820144230667386 0.5485725622231324 0  0.6735322521410794 0.5281017256809331 0  -0.9288951703503026 0.328493874138311 0  -0.82003547940115 0.5040972804862089 0  -0.8788555489205605 0.461667393297595 0  -0.917077654467091 0.4001805407476149 0  -0.785417863203274 0.5133106427137389 0  -0.849903226381806 0.4834731345287285 0  -0.8973862012737267 0.4304640299795364 0  -0.9226440314622658 0.3641294747990131 0  -0.7680692158505275 0.5182130355256749 0  -0.8026788583026787 0.5085291785417759 0  -0.8349858005199964 0.4939040520218449 0  -0.864036664816788 0.4720191321558975 0  -0.8885023909447415 0.4462531830002648 0  -0.9070346799130854 0.4152676750838741 0  -0.9197029814662704 0.3820746964839772 0  -0.9255410175836776 0.3462633059984059 0  -0.9282855987167925 0.3052599711853228 0  -0.9259739939796477 -0.204416280772205 0  -0.9260952164935362 -0.1582325989661174 0  -0.9268647217640571 -0.1120390532457917 0  -0.9279695851842916 -0.06577030487849314 0  -0.929266895169696 -0.01935912045914258 0  -0.9299894923164764 0.02717318735421385 0  -0.9301574515659026 0.07372633885528769 0  -0.9297809654029557 0.1202440329586671 0  -0.9288655860772993 0.1666318278602752 0  -0.9281733287324964 0.2128764505401355 0  -0.927868927464936 0.2590577104172723 0  -0.9263414396110337 -0.2276089646205455 0  -0.9259244852992833 -0.1813200485121021 0  -0.9273873888967317 -0.08891713213111274 0  -0.9296998090869126 0.003900383264254161 0  -0.9300387539217484 0.09699343922079263 0  -0.928483752703372 0.1897660237013269 0  -0.9279532213859684 0.2821497645471381 0  -0.9264285210000071 -0.1351419468117376 0  -0.9286441826540602 -0.04259297286463303 0  -0.9301398877190299 0.05045073245921901 0  -0.9293451185546138 0.1434661839502452 0  -0.9279633263314697 0.2359705721500562 0  -0.9137362210299926 -0.2990525497282472 0  -0.8746752619289807 -0.3599461672836578 0  -0.8151597027587455 -0.4013600047700453 0  -0.9197679881193563 -0.2631698338468149 0  -0.8937161956326398 -0.3291455110177107 0  -0.8453503908877003 -0.3812782532383078 0  -0.7802646968357114 -0.409845823027258 0  -0.9228759675774106 -0.245354441480155 0  -0.916605492645556 -0.
[...]
<PointData  Vectors="f_48"> 
<DataArray  type="Float64"  Name="f_48"  NumberOfComponents="3" format="ascii">5.7882338220684373e-07 3.4253963187407289e-06 0.0000000000000000e+00  -4.0087345925853870e-08 -2.6407367966032938e-07 0.0000000000000000e+00  5.5566360736430685e-08 3.4482570797168072e-07 0.0000000000000000e+00  1.6403887965201898e-07 9.4869827227206592e-07 0.0000000000000000e+00  2.6988868142071504e-07 1.5307777449305970e-06 0.0000000000000000e+00  1.3053000846710791e-07 2.0532877644018400e-06 0.0000000000000000e+00  2.2535098511789776e-07 2.4954750636012747e-06 0.0000000000000000e+00  2.9021625858538780e-07 2.8841052654744714e-06 0.0000000000000000e+00  3.3702252303392465e-07 3.1888482410017456e-06 0.0000000000000000e+00  -9.1609915555971205e-08 -8.6313165792821153e-07 0.0000000000000000e+00  6.2226136434605021e-07 3.5753158033303549e-06 0.0000000000000000e+00  5.6394815153314211e-07 3.7068951025418206e-06 0.0000000000000000e+00  5.1963201425174111e-07 3.7688208786001478e-06 0.0000000000000000e+00  5.2925109711843555e-07 3.7019510511741062e-06 0.0000000000000000e+00  3.9930101287584001e-07 3.6381575389814546e-06 0.0000000000000000e+00  5.6353163119056910e-08 3.5748906207844437e-06 0.0000000000000000e+00  -5.0004001242131118e-07 3.5386797444666456e-06 0.0000000000000000e+00  3.0118252125442920e-07 -2.7594112430837957e-06 0.0000000000000000e+00  -7.7638336217712837e-08 -1.4356676545501194e-06 0.0000000000000000e+00  1.2247182973889514e-08 -1.9668710056002845e-06 0.0000000000000000e+00  1.6517648853520597e-07 -2.4460047717466155e-06 0.0000000000000000e+00  3.7211049140227077e-07 -2.8736397391040272e-06 0.0000000000000000e+00  5.4427399344376281e-07 -3.2441636595103596e-06 0.0000000000000000e+00  7.0242200314661190e-07 -3.5568138846729545e-06 0.0000000000000000e+00  8.4212348205051281e-07 -3.8122156183827266e-06 0.0000000000000000e+00  9.5970480693402891e-07 -3.9911425440108064e-06 0.0000000000000000e+00  9.9314134465622640e-07 -4.1332598663211040e-06 0.0000000000000000e+00  9.8749928305391123e-07 -4.2109514842582178e-06 0.0000000000000000e+00  9.4676475825138110e-07 -4.2281581706498616e-06 0.0000000000000000e+00  8.2652403577200795e-07 -4.1679166637773928e-06 0.0000000000000000e+00  6.5285993345350753e-07 -4.0596279665611857e-06 0.0000000000000000e+00  2.9024147643163607e-07 -3.9235177186339041e-06 0.0000000000000000e+00  -4.3556720936031603e-07 -3.8303307468389988e-06 0.0000000000000000e+00  7.0290488565862795e-07 -3.4609914178357035e-06 0.0000000000000000e+00  5.1593620957279784e-07 3.0924079461464681e-06 0.0000000000000000e+00  5.0934203846482348e-07 3.6598833834360791e-06 0.0000000000000000e+00  5.5444566194277337e-07 3.7312398089378835e-06 0.0000000000000000e+00  5.1054902808887239e-07 3.5090848680338006e-06 0.0000000000000000e+00  2.6080826102657186e-07 3.0855238754451123e-06 0.0000000000000000e+00  2.3993062492231336e-07 2.2659527782978989e-06 0.0000000000000000e+00  1.9638110279998674e-07 1.2396767949471989e-06 0.0000000000000000e+00  3.2783495600569577e-09 3.9880221389278824e-08 0.0000000000000000e+00  6.7192608396528398e-07 -3.9077262527433322e-06 0.0000000000000000e+00  8.3947090018241529e-08 -2.2136275344255506e-06 0.0000000000000000e+00  4.5537201374440546e-07 -3.0666547318375652e-06 0.0000000000000000e+00  7.8709602188566233e-07 -3.6824290205683586e-06 0.0000000000000000e+00  9.9000569958636478e-07 -4.0701160991384766e-06 0.0000000000000000e+00  9.8433272847922665e-07 -4.2145443189480121e-06 0.0000000000000000e+00  7.9176244782358223e-07 -4.1114596315766356e-06 0.0000000000000000e+00  -9.4530534603450735e-08 -1.1539029063989581e-06 0.0000000000000000e+00  8.4339213800374141e-08 2.5499624503042598e-06 0.0000000000000000e+00  8.8969494631741058e-07 -4.1977534934765607e-06 0.0000000000000000e+00  1.0045432962911066e-06 -4.1755733505599569e-06 0.0000000000000000e+00  9.0858449280866377e-07 -3.9074040220084039e-06 0.0000000000000000e+00  6.3048242286365175e-07 -3.4054521953067006e-06 0.0000000000000000e+00  2.8976120249028680e-07 -2.6654677891441422e-06 0.0000000000000000e+00  -4.1598506559705193e-08 -1.7072005817380893e-06 0.0000000000000000e+00  -7.3364321195765839e-08 -5.6638510491043289e-07 0.0000000000000000e+00  1.0964731142222380e-07 6.4802324337102787e-07 0.0000000000000000e+00  4.7969741363519554e-08 1.7932255986840193e-06 0.0000000000000000e+00  2.7129936692248620e-07 2.6958854967898923e-06 0.0000000000000000e+00  6.1212768714106062e-07 3.3231430097760470e-06 0.0000000000000000e+00  5.5871996382148340e-07 3.6546438489224226e-06 0.0000000000000000e+00  5.0485694511066127e-07 3.7594238069611928e-06 0.0000000000000000e+00  4.5785733415018679e-07 3.4936628045249333e-06 0.0000000000000000e+00  1.1151318058859529e-07 9.8083343622814361e-07 0.0000000000000000e+00  1.4888610681021181e-06 -1.4120837705200323e-06 0.0000000000000000e+00  1.2583140665212195e-06 2.3619842975267560e-08 0.0000000000000000e+00  7.1389352938747087e-07 9.6294838580852831e-07 0.0000000000000000e+00  1.5188185297515227e-06 -2.4028801738343451e-06 0.0000000000000000e+00  2.0217160997371416e-06 -5.0852018983421104e-07 0.0000000000000000e+00  1.5967728500497324e-06 8.7830844042273184e-07 0.0000000000000000e+00  4.0791561026106691e-07 1.2248347484849481e-06 0.0000000000000000e+00  1.5098205707763605e-06 -2.3820287978339192e-06 0.0000000000000000e+00  3.5822362691826504e-07 -2.7649918678978118e-06 0.0000000000000000e+00  2.0598894096033111e-06 -6.2827409745409853e-07 0.0000000000000000e+00  1.9295314229510949e-06 -1.3240448636296010e-06 0.0000000000000000e+00  1.1461951935260445e-06 1.4967575384797869e-06 0.0000000000000000e+00  1.4346389552995421e-06 1.1004843294423241e-07 0.0000000000000000e+00  -2.0187712050228491e-07 1.3389644673362574e-06 0.0000000000000000e+00  5.4745946782082403e-07 1.0770748059556416e-06 0.0000000000000000e+00  -6.7289454916291003e-07 1.1589319199586087e-06 0.0000000000000000e+00  -9.1508258826192003e-08 6.3095882092699337e-09 0.0000000000000000e+00  1.4962057864396869e-09 1.7661690895015136e-07 0.0000000000000000e+00  1.9242051414531199e-08 3.4397464199569769e-07 0.0000000000000000e+00  1.4417738288921380e-08 4.9513222933747143e-07 0.0000000000000000e+00  -4.1617169281786829e-09 6.2721304949933769e-07 0.0000000000000000e+00  1.5338026971296340e-08 7.5777508211451007e-07 0.0000000000000000e+00  3.5606419089030176e-08 8.7160018721834973e-07 0.0000000000000000e+00  6.7070864135117652e-08 9.7114734493671501e-07 0.0000000000000000e+00  5.4262848070920744e-09 1.0726924407904747e-06 0.0000000000000000e+00  -5.9178523005686119e-08 1.1330400357777692e-06 0.0000000000000000e+00  -1.9843036997029720e-07 1.1667351902462487e-06 0.0000000000000000e+00  -2.3150985683411528e-08 -1.1323421207579802e-07 0.0000000000000000e+00  -8.6787712770363613e-10 8.5327326074119643e-08 0.0000000000000000e+00  1.9360310254261393e-08 4.2234818461172444e-07 0.0000000000000000e+00  8.9227288033612495e-09 6.9645601055348924e-07 0.0000000000000000e+00  4.1668917383882635e-08 9.2376961668175580e-07 0.0000000000000000e+00  -2.0414207830145274e-08 1.1032208618374207e-06 0.0000000000000000e+00  -7.1786337669023385e-08 1.1579840553362685e-06 0.0000000000000000e+00  1.5291921858110673e-08 2.6151024786992768e-07 0.0000000000000000e+00  -3.4139536034081104e-09 5.6964909501580248e-07 0.0000000000000000e+00  2.4545906804877332e-08 8.1679316448487039e-07 0.0000000000000000e+00  5.4809168409928740e-08 1.0184471349858063e-06 0.0000000000000000e+00  -7.4542793540700357e-08 1.1522928106163481e-06 0.0000000000000000e+00  2.6268159691267905e-07 1.9450992307147736e-06 0.0000000000000000e+00  2.6395399498709558e-07 -4.4172782355172419e-07 0.0000000000000000e+00  7.6361085292632419e-07 -7.7491359705468934e-08 0.0000000000000000e+00  1.1068331982366490e-06 8.9364933670241736e-07 0.0000000000000000e+00  9.7119063054734079e-08 -3.4336489940132009e-07 0.0000000000000000e+00  8.2508406168800922e-07 -5.1040454969345624e-07 0.0000000000000000e+00  1.3365142084538001e-06 2.4067376138949114e-07 0.0000000000000000e+00  1.1699550760000435e-06 1.5618752670873854e-06 0.0000000000000000e+00  9.3290628179347195e-08 -2.2596781121321119e-07 0.0000000000000000e+00  -1.2587277479680570e-07 -4.4908144236933880e-07 0.0000000000000000e+00  7.0990699777031828e-07 -9.2522095326205689e-08 0.0000000000000000e+00  6.0005507602499856e-07 -9.0654135353366506e-07 0.0000000000000000e+00  1.3171129271191945e-06 7.3289902713357929e-07 0.0000000000000000e+00  1.4101571404889064e-06 3.5355431863864535e-07 0.0000000000000000e+00  3.9064169493820182e-07 1.8985529821564366e-06 0.0000000000000000e+00  1.1124409200642277e-06 1.5967484210466532e-06 0.0000000000000000e+00  -1.5249241641902211e-08 1.3233246370198563e-07 0.0000000000000000e+00  3.8205543441667332e-07 2.6561046623504421e-06 0.0000000000000000e+00  6.6566066308103169e-07 2.6267460099280132e-06 0.0000000000000000e+00  7.9249185845444910e-07 2.6211684401436833e-06 0.0000000000000000e+00  8.1652729889632641e-07 2.6242876622291698e-06 0.0000000000000000e+00  8.5626661136212063e-07 2.5558000993252469e-06 0.0000000000000000e+00  8.7333410645842230e-07 2.4560706836875902e-06 0.0000000000000000e+00  8.5615197529418642e-07 2.3356669677216078e-06 0.0000000000000000e+00  7.7511474842561196e-07 2.2068272568299868e-06 0.0000000000000000e+00  6.8868643910398696e-07 2.0461380582336515e-06 0.0000000000000000e+00  5.9169066021759555e-07 1.8568769989217512e-06 0.0000000000000000e+00  4.6991690776704007e-07 1.6466767156188719e-06 0.0000000000000000e+00  3.2151712109945567e-07 1.4025555780261644e-06 0.0000000000000000e+00  1.8424892752497503e-07 1.1384315979303216e-06 0.0000000000000000e+00  7.6523718592359482e-08 8.3406583682646565e-07 0.0000000000000000e+00  1.3698033438001020e-08 4.9289661847644596e-07 0.0000000000000000e+00  -5.2926698510932872e-08 2.7170744490195709e-06 0.0000000000000000e+00  2.6635403777763284e-08 -2.2472248152879766e-07 0.0000000000000000e+00  1.2187989771547216e-07 -5.8838991240926545e-07 0.0000000000000000e+00  2.3843498399718036e-07 -9.4436711103143904e-07 0.0000000000000000e+00  4.2697337956890395e-07 -1.3174677703089450e-06 0.0000000000000000e+00  5.1821882846881577e-07 -1.6851694157639639e-06 0.0000000000000000e+00  5.8631662934162795e-07 -2.0207650370807255e-06 0.0000000000000000e+00  6.4343129439790534e-07 -2.3084225828900861e-06 0.0000000000000000e+00  7.8841473471472568e-07 -2.5113883126892537e-06 0.0000000000000000e+00  8.0582923775023873e-07 -2.6999425271171806e-06 0.0000000000000000e+00  8.0054704968834047e-07 -2.8383913206229932e-06 0.0000000000000000e+00  7.7470368654640190e-07 -2.9252233415052719e-06 0.0000000000000000e+00  6.9616570863637301e-07 -2.9687735935655509e-06 0.0000000000000000e+00  5.7087028103776654e-07 -2.9625066242292523e-06 0.0000000000000000e+00  2.8620741455340470e-07 -2.9551002882767609e-06 0.0000000000000000e+00  -2.0993166869292395e-07 -2.9811018445794265e-06 0.0000000000000000e+00  2.1672411942557337e-07 -2.1582526861017501e-06 0.0000000000000000e+00  6.1602960746468931e-07 -2.5719330415819682e-06 0.0000000000000000e+00  6.6678219930951868e-07 -2.9585630501400183e-06 0.0000000000000000e+00  7.8973022191248972e-07 -2.8880094638944764e-06 0.0000000000000000e+00  7.7856285795117469e-07 -2.6178687111518146e-06 0.0000000000000000e+00  6.1739772503690376e-07 -2.1727819344783217e-06 0.0000000000000000e+00  4.4449922989568387e-07 -1.5145999313381137e-06 0.0000000000000000e+00  1.7339118496516045e-07 -7.7792297425703014e-07 0.0000000000000000e+00  8.4647290766145733e-10 -4.1016764939393982e-08 0.0000000000000000e+00  2.6250523198978400e-08 6.6984665714469353e-07 0.0000000000000000e+00  2.4418621659348211e-07 1.2794998722236971e-06 0.0000000000000000e+00  5.2204758796675404e-07 1.7574077042106807e-06 0.0000000000000000e+00  7.3534350119688922e-07 2.1270990751799022e-06 0.0000000000000000e+00  8.6453965398779129e-07 2.3986743804430010e-06 0.0000000000000000e+00  8.4517032703874097e-07 2.5871249517358503e-06 0.0000000000000000e+00  7.5466797489920047e-07 2.6123195390670717e-06 0.0000000000000000e+00  6.6303507297141741e-07 2.2708889673292417e-06 0.0000000000000000e+00  5.9506402295939373e-07 -2.8683934988847054e-06 0.0000000000000000e+00  7.4280904759284863e-07 -2.9491397060193218e-06 0.0000000000000000e+00  7.9869601727138462e-07 -2.7780257297646890e-06 0.0000000000000000e+00  7.4024467781850931e-07 -2.4201448253253756e-06 0.0000000000000000e+00  5.4050691073958113e-07 -1.8633850207900155e-06 0.0000000000000000e+00  4.2894480680956899e-07 -1.1157086303372613e-06 0.0000000000000000e+00  6.7291168865805147e-08 -4.0740491264137593e-07 0.0000000000000000e+00  1.6690330486769518e-08 3.2427926440572261e-07 0.0000000000000000e+00  1.1662384714222546e-07 9.9287335366455882e-07 0.0000000000000000e+00  4.3295905295496716e-07 1.5191236309597262e-06 0.0000000000000000e+00  6.4014864184355182e-07 1.9548868963342286e-06 0.0000000000000000e+00  8.3353925297084907e-07 2.2703369437427051e-06 0.0000000000000000e+00  8.6953648213129666e-07 2.5069048650704522e-06 0.0000000000000000e+00  8.0323147035960076e-07 2.6368535485846291e-06 0.0000000000000000e+00  6.7940956411756931e-07 2.5352566459974459e-06 0.0000000000000000e+00  1.4659489109481350e-08 3.5902471208102081e-07 0.0000000000000000e+00  1.1923433535050856e-06 -1.0534336375827967e-06 0.0000000000000000e+00  9.0550666029333552e-07 4.8272950457433124e-08 0.0000000000000000e+00  3.9577001256480633e-07 5.9362271742368985e-07 0.0000000000000000e+00  1.2330536624982656e-06 -1.8026485771222938e-06 0.0000000000000000e+00  1.5192008772956008e-06 -3.2845807030854462e-07 0.0000000000000000e+00  1.0536153425732322e-06 6.1619422857128301e-07 0.0000000000000000e+00  1.8038262548578763e-07 5.9560114181431659e-07 0.0000000000000000e+00  1.1772799891874525e-06 -1.8173929400061429e-06 0.0000000000000000e+00  3.5601873581669323e-07 -2.1264606764292856e-06 0.0000000000000000e+00  1.5791880247927778e-06 -4.6719670429012822e-07 0.0000000000000000e+00  1.4828935244186001e-06 -9.1261658114200895e-07 0.0000000000000000e+00  7.5701098198264942e-07 1.0726721243725387e-06 0.0000000000000000e+00  9.2023490163261891e-07 7.8534495324258958e-08 0.0000000000000000e+00  -1.5231280788929638e-07 7.0143796011747778e-07 0.0000000000000000e+00  2.2082029532797412e-07 4.6976224856434644e-07 0.0000000000000000e+00  -2.7238107857817728e-07 3.1249037800889645e-07 0.0000000000000000e+00  -5.3698852738969296e-07 -8.1082394909175758e-07 0.0000000000000000e+00  -1.6557335801037861e-07 -7.7163110825194395e-07 0.0000000000000000e+00  -5.9499864081350996e-08 -7.0219616564890822e-07 0.0000000000000000e+00  -1.1218794893992553e-08 -6.1872784277633120e-07 0.0000000000000000e+00  2.4019088909598043e-08 -5.1069453075710028e-07 0.0000000000000000e+00  6.9951089735965892e-09 -4.0365265207297065e-07 0.0000000000000000e+00  -1.3981775180492063e-09 -2.9178868487740139e-07 0.0000000000000000e+00  -6.1179279966832009e-09 -1.7187811234391368e-07 0.0000000000000000e+00  -3.3389040568324041e-09 -5.2356801232342643e-08 0.0000000000000000e+00  -1.8459968484277586e-08 7.0178361503490857e-08 0.0000000000000000e+00  -6.9349478961314548e-08 1.9725847980396640e-07 0.0000000000000000e+00  6.8428579828771001e-08 -7.2797570245826241e-07 0.0000000000000000e+00  -7.3134801493943867e-08 -7.9400345734468522e-07 0.0000000000000000e+00  -3.1646380671044455e-08 -6.5969607681303375e-07 0.0000000000000000e+00  9.7639783802100119e-09 -4.5748483000922990e-07 0.0000000000000000e+00  -3.4938133930130289e-09 -2.3421739291097571e-07 0.0000000000000000e+00  -8.0947905438355499e-09 6.9456451549440577e-09 0.0000000000000000e+00  -3.4870918175999327e-08 2.6299747265871735e-07 0.0000000000000000e+00  -7.2409921806398754e-08 -7.3895595939310656e-07 0.0000000000000000e+00  1.8986068540015252e-08 -5.5995680863251694e-07 0.0000000000000000e+00  1.8656363198691652e-09 -3.4860052051633764e-07 0.0000000000000000e+00  -5.4295801411398979e-09 -1.1863976885961438e-07 0.0000000000000000e+00  -2.5447879158897017e-08 1.3414118486703909e-07 0.0000000000000000e+00  5.9369990967120311e-07 -8.0639406553492946e-07 0.0000000000000000e+00  1.1159341015826116e-06 -2.4644443746536817e-08 0.0000000000000000e+00  1.3397601031878462e-06 1.2974342234322634e-06 0.0000000000000000e+00  3.1567256251738074e-07 -9.6755752455594174e-07 0.0000000000000000e+00  1.3788163626408635e-06 -7.5574821111956145e-07 0.0000000000000000e+00  1.7995666153381286e-06 4.6927253394587269e-07 0.0000000000000000e+00  1.3163600699199778e-06 2.1835582714411581e-06 0.0000000000000000e+00  4.0764958144405929e-07 -8.3064467346603074e-07 0.0000000000000000e+00  -1.6895966746346226e-07 -1.0757776810036801e-06 0.0000000000000000e+00  1.2264155984225306e-06 -9.8135915706008429e-08 0.0000000000000000e+00  1.0110514731115138e-06 -1.3022986270129835e-06 0.0000000000000000e+00  1.7383121380196079e-06 1.1912204550858283e-06 0.0000000000000000e+00  1.8420353396433013e-06 6.1073229484799176e-07 0.0000000000000000e+00  2.6773155599440737e-07 2.5126723503219148e-06 0.0000000000000000e+00  1.2407474943057899e-06 2.2141619616363152e-06 0.0000000000000000e+00  7.1191145700729714e+02 -4.3346177460303352e+02 0.0000000000000000e+00  1.3671568989767998e+03 -1.5536200103922110e+03 0.0000000000000000e+00  5.8987225945817713e+01 1.9840742270777045e+02 0.0000000000000000e+00  1.6744180766636257e+03 6.4055919750245698e+02 0.0000000000000000e+00  9.2747833106631094e+02 1.9306054239095971e+02 0.0000000000000000e+00  1.7197081380976627e+02 5.7195015524609551e+02 0.0000000000000000e+00  6.5740030070197736e+02 8.3743539080252344e+02 0.0000000000000000e+00  1.8216113125662363e+02 2.9071884487943316e+02 0.0000000000000000e+00  4.5346392671929055e+02 -6.2743391063299691e+02 0.0000000000000000e+00  3.0348330603904341e+01 -5.6971590422244660e+01 0.0000000000000000e+00  7.9193315046598229e+02 -1.1468753384834427e+01 0.0000000000000000e+00  3.1657586916064137e+01 -4.0746459549028863e+01 0.0000000000000000e+00  -1.1931085913983151e+02 1.1638874613147685e+02 0.0000000000000000e+00  4.8635043891011179e+02 1.4953091430016386e+03 0.0000000000000000e+00  1.1280724694607400e+03 1.4930033043505314e+03 0.0000000000000000e+00  1.2028233164603392e+02 9.4447394420895489e+02 0.0000000000000000e+00  -1.7929355460420138e+02 8.0349988824065392e+01 0.0000000000000000e+00  1.5376666542632088e+03 -9.5884705848166277e+01 0.0000000000000000e+00  -9.1972688750441094e+01 9.6561989146323469e+01 0.0000000000000000e+00  1.6046146573022977e+01 2.3164339269363964e+01 0.0000000000000000e+00  2.8196803605500172e+01 1.8730492555295509e+01 0.0000000000000000e+00  8.2736334336685366e+02 -4.9090862440182008e+02 0.0000000000000000e+00  -2.4003300276014144e+01 -4.4718456965507818e+02 0.0000000000000000e+00  1.4490788716665393e+03 2.0136269836243960e+02 0.0000000000000000e+00  1.1577758525956649e+03 -9.1112788247208346e+02 0.0000000000000000e+00  2.2664426632714068e+01 -4.0661494824765964e+02 0.0000000000000000e+00  4.6342105395024294e+02 4.2842009936657360e+02 0.0000000000000000e+00  1.7142311704356844e+03 -4.5104309045956427e+02 0.0000000000000000e+00  5.3796618204314640e+01 -8.8479984275341991e+01 0.0000000000000000e+00  1.0305567221315507e+03 -8.3986641229495348e+01 0.0000000000000000e+00  1.0946482167319161e+03 -3.6916860385631958e+02 0.0000000000000000e+00  7.6366836104090589e+02 4.7496419854837484e+02 0.0000000000000000e+00  2.6113006566825829e+03 4.1707661077566252e+02 0.0000000000000000e+00  3.3946330325816257e+02 -1.1820696317669606e+03 0.0000000000000000e+00  1.2104813417261182e+03 8.1753029041838101e+02 0.0000000000000000e+00  1.9948375742527676e+03 1.0229577811991535e+03 0.0000000000000000e+00  1.3084849414098319e+03 -7.8804854847874253e+02 0.0000000000000000e+00  8.8725051300578794e+00 -4.9740232439690789e+02 0.0000000000000000e+00  1.8738780174285109e+03 -1.1599390209447524e+03 0.0000000000000000e+00  5.2682489221594415e+02 1.3923681911762898e+02 0.0000000000000000e+00  2.1557766396765078e+03 -8.6693183323165397e+02 0.0000000000000000e+00  3.9664908691988757e+02 -1.31469361203893