<?xml version="1.0"?>
<VTKFile type="UnstructuredGrid"  version="0.1"  >
<UnstructuredGrid>
<Piece  NumberOfPoints="4153" NumberOfCells="8064">
<Points>
<DataArray  type="Float64"  NumberOfComponents="3"  format="ascii">-0.4239047651918698 -0.6109530605480015 0  -0.05204200783385295 -0.7552446029429709 0  -0.1030743137080439 -0.7502420294169908 0  -0.1532599422154101 -0.7406601766146428 0  -0.2022822926266795 -0.7271208912673863 0  -0.2502705489703478 -0.7109445949309758 0  -0.2966610425122062 -0.6899189356071976 0  -0.3410574591650666 -0.6656957300078659 0  -0.3834544680294736 -0.6392445601522708 0  -0.000657441246723359 -0.7552912651942141 0  -0.4626462682900286 -0.5830125747810375 0  -0.5002684669212559 -0.5553102351243183 0  -0.5368533992144731 -0.5281261880069118 0  -0.5725574800094489 -0.5018520978062972 0  -0.6077329287572687 -0.477003269081535 0  -0.64248929881581 -0.4537482618779036 0  -0.6769937893762521 -0.4329786975963913 0  0.6514873811010182 -0.4426890625183927 0  0.05053459971339414 -0.7504191455708862 0  0.1010143563747898 -0.7408117387103391 0  0.1503294045984978 -0.7268899564336747 0  0.198127563986108 -0.7091880319722513 0  0.2442507238083462 -0.6886666820135041 0  0.2886932515644069 -0.6659755639390761 0  0.331509965109218 -0.6417431848410406 0  0.3727826423733656 -0.6165420558637874 0  0.4127404429743769 -0.590996115568529 0  0.4515605159758967 -0.5655064334985931 0  0.4894222953836149 -0.5404104654579531 0  0.5264628272910247 -0.5160754025284054 0  0.5628624165886852 -0.4926901447422483 0  0.5987357276361615 -0.4707275328824829 0  0.6342905450121763 -0.4509893323564179 0  0.6163743092627311 -0.460834203185318 0  -0.659533538560534 -0.443248859448967 0  -0.590202324509731 -0.4893200953920934 0  -0.5186686751487096 -0.5416357147519879 0  -0.4433849158325495 -0.596916059179036 0  -0.3625052881989455 -0.652604046315712 0  -0.2737083808613272 -0.7009028726115489 0  -0.1779280798541827 -0.7344099192959981 0  -0.07763613201115806 -0.7533456492477457 0  0.5808312484368718 -0.4816576582446311 0  0.1258415324947217 -0.7343516366162612 0  0.2213996927712736 -0.6992404285312936 0  0.3102938427943961 -0.6540220730638108 0  0.3929179337547727 -0.6037911606208222 0  0.4705957969984153 -0.5529062048559337 0  0.5447495990701698 -0.5042951202906201 0  0.02499604108019444 -0.7534650954666768 0  -0.6937039525899225 -0.4241329975009446 0  0.5080217060263347 -0.5281203664049453 0  0.4322802289563733 -0.5782293280782531 0  0.3523262221552924 -0.6292074542260971 0  0.2666804863796332 -0.6775590134884253 0  0.1744417444561814 -0.718464756588631 0  0.07589411152786778 -0.7461857485306634 0  -0.02635772627408106 -0.7558949602188606 0  -0.1282983557449733 -0.7459993318349525 0  -0.2263219953858807 -0.7194554354152325 0  -0.3190974132923646 -0.6780923951872406 0  -0.4040599821755547 -0.6253983082665527 0  -0.4816004902588742 -0.569131299996374 0  -0.554806101610386 -0.5148350978666928 0  -0.6251153459173026 -0.4653142908004203 0  0.7910335656742425 -0.2542900981680736 0  0.7063677259877902 -0.4154158345588465 0  0.7531616605642872 -0.3729552977949456 0  0.7830310268507159 -0.3176570111855102 0  0.6793770340435074 -0.4295525092011787 0  0.7307637675977473 -0.3954179692536346 0  0.7665434118438459 -0.3440906441158934 0  0.786062450007345 -0.2855744449553734 0  0.6655948173501302 -0.4369647360525609 0  0.692811439434188 -0.4218741751365635 0  0.7186610624885553 -0.4055890868551077 0  0.7415903213291923 -0.3833815848320379 0  0.7615484810651451 -0.3594228974805547 0  0.7740660801389275 -0.3306927119002607 0  0.7838078034371478 -0.3013971088861361 0  0.7879620932162533 -0.2698065595455266 0  0.790367874086072 -0.2338522662070836 0  0.7948621591048173 0.2195862678831584 0  0.7947158069116083 0.1790601129268445 0  0.7958787589975145 0.1382997092205486 0  0.7975598763821838 0.09718982677885292 0  0.7994472772368683 0.05564006185521875 0  0.8001022519235766 0.01373928902256138 0  0.7996082694064214 -0.02824118582394599 0  0.7979707488851902 -0.07011318018895807 0  0.7952020511122291 -0.1115992812760545 0  0.7927070896278205 -0.1526557077211906 0  0.7907967385399312 -0.1933606746055069 0  0.796152074358403 0.2399689784952402 0  0.7945735805868933 0.1993400562554633 0  0.7966885447854513 0.1177925043033968 0  0.7999180068793905 0.03471253478326148 0  0.7989359942571564 -0.04920318343726607 0  0.7939233646570919 -0.1321779887308276 0  0.7903521326148456 -0.2136231910239487 0  0.7952055629919172 0.1587189926789548 0  0.7985727774344182 0.07648992851881571 0  0.7999943820939308 -0.007252614647040587 0  0.7966289902409782 -0.09093104042815277 0  0.791656400319391 -0.1730478366061004 0  0.6625674604232886 0.4305001694382611 0  0.7899198370659765 0.3036029504515474 0  0.7617091696796414 0.3597562709236216 0  0.7163289531676367 0.4029941322423959 0  0.7922787973368798 0.2714111471457271 0  0.7747204807605744 0.3307568890857017 0  0.7399699371626877 0.382395813505876 0  0.6897837584268294 0.4171301075165916 0  0.7938183109627881 0.2556053909922047 0  0.7905508480069512 0.2873176556352171 0  0.7817598941446514 0.3170101811317196 0  0.7694485987067164 0.3458540576743203 0  0.7504424889231662 0.3702730875855973 0  0.7282233042109689 0.3928100076177853 0  0.7029808709347423 0.4095164659375711 0  0.6762916108973007 0.4245188449210689 0  -0.03669823898322232 0.7760605998460111 0  0.6114977289025735 0.4600607146650887 0  0.5768378008426931 0.4833548548341846 0  0.5417153558966012 0.5082829367951044 0  0.5059835923309925 0.5345956685894955 0  0.4693387047903634 0.5618272594904281 0  0.4316073873996376 0.5896089629194201 0  0.3925918300120735 0.6175828957269431 0  0.3520475294551241 0.6454077652396167 0  0.3096795533790743 0.6722458297881008 0  0.2653982111420847 0.6975179648125359 0  0.2191294509043131 0.7205385748349685 0  0.1708629555866464 0.74069290898933 0  0.1207315628932818 0.7567854374110012 0  0.06911128564205096 0.768275854807178 0  0.01647311779494456 0.7746694841548708 0  0.6459233609504972 0.4392432458173794 0  -0.08971821181842383 0.7711956671815545 0  -0.1418020352020072 0.760794594235142 0  -0.1923553496016427 0.7454487896699633 0  -0.2407339049220744 0.7251242631105349 0  -0.2870106136714433 0.7028343044478383 0  -0.3313159933027635 0.6785065763694084 0  -0.3737517672070885 0.6527235852988182 0  -0.4144022221726932 0.6258710387991051 0  -0.4536054961571304 0.5990930436140577 0  -0.4916680435562255 0.5725641868382483 0  -0.5287625345226247 0.5465563593933217 0  -0.5650556089262204 0.521355591945932 0  -0.600689345492444 0.4972205904665661 0  -0.6358500174155924 0.4746456067334366 0  -0.6707607424590905 0.4544519624639524 0  -0.687637150950127 0.4459590860833982 0  -0.6531337739521161 0.4644951941697447 0  -0.5829501983281314 0.5091834977175225 0  -0.5103258623883091 0.5594832217703295 0  -0.4341483428295839 0.6124590809578125 0  -0.3527561055445819 0.6657393567738243 0  -0.2641162495565963 0.7142765130058022 0  -0.1672955467281039 0.7535954677614366 0  -0.06327692888507555 0.7743232699555416 0  0.0428918405903981 0.7721566721503558 0  0.1460091280775674 0.7492593721716585 0  0.2425126062594931 0.7093555843335525 0  0.3310912300609423 0.6589801794406822 0  0.4122705247362562 0.6035946538869634 0  0.487780469755045 0.5481238096589115 0  0.5593438429508721 0.4956983869598373 0  0.6285365361418598 0.4495801176720098 0  -0.6182907078293134 0.4858722258151186 0  -0.5469979847573728 0.5338506441286786 0  -0.4727692024526332 0.5857821075195415 0  -0.3943206416109896 0.6393903064603339 0  -0.3094025061545516 0.690881592850229 0  -0.2169437427403789 0.7358884845187718 0  -0.1159153147808446 0.7666354739970787 0  -0.01004048236666472 0.776073044252106 0  0.09508116080726747 0.7631401083992397 0  0.195264027162526 0.7310773774204089 0  0.2877847426457648 0.6851221490047595 0  0.3725450056969626 0.631563539675827 0  0.4506207277482726 0.5756746576350453 0  0.5239546642891538 0.5212946058183345 0  0.5941900772484442 0.4716299956312341 0  -0.824771829293884 0.2576058293031726 0  -0.7419879469426512 0.4189716763133972 0  -0.7881861053730899 0.3763899976294295 0  -0.817404597298436 0.3209034684543357 0  -0.7151804504693671 0.4329152845813219 0  -0.7660616499223896 0.3988270688740644 0  -0.8014506298007051 0.3475713237025209 0  -0.8202092201510961 0.288866209972766 0  -0.701532456542422 0.4401978633004593 0  -0.7285132973942586 0.4253711759892189 0  -0.7541030094573224 0.409039347130226 0  -0.7767367198499727 0.3868001881287375 0  -0.7963026338376722 0.3627422787105425 0  -0.8087795070777933 0.3340640334706602 0  -0.8181559064287156 0.3046806293702437 0  -0.8219892090291209 0.2731316286258401 0  -0.8238625422347918 0.2372541358641456 0  -0.827013694911517 -0.2143245011387723 0  -0.8267094010070866 -0.1739346510034091 0  -0.8278426638056627 -0.1333483826716087 0  -0.8295611013668935 -0.09243110174442384 0  -0.8315639065351237 -0.05109011431141004 0  -0.8323989949594325 -0.009387537364239019 0  -0.8321135081983664 0.03240190071148707 0  -0.8307113439015072 0.07409519930679187 0  -0.82815445019974 0.1154224898764546 0  -0.825866809772782 0.1563251511744146 0  -0.8241521422243981 0.1968923969004663 0  -0.8282389299650427 -0.2346953567145268 0  -0.8266301111703124 -0.1941418060717751 0  -0.8286675539230048 -0.1129368688428689 0  -0.8321233150999738 -0.03026204796294124 0  -0.8315533928823851 0.05327284117811252 0  -0.8269774918928483 0.1359213984502289 0  -0.823777588836793 0.2170878753371492 0  -0.8271783454801621 -0.1536777490678117 0  -0.8306141814803353 -0.07183551475612693 0  -0.8323918441866274 0.01150777934389285 0  -0.8294842416720303 0.09483330780095485 0  -0.824912995891901 0.1766459338255275 0  -0.8217024617742316 -0.2981523116205869 0  -0.7931107054229287 -0.3538924476656271 0  -0.7475168803136808 -0.3968587512675616 0  -0.8241568128405852 -0.2660319222888775 0  -0.8061570270337127 -0.3249961980241747 0  -0.7713215688950572 -0.3765511983503469 0  -0.7209440219220018 -0.4109949415278794 0  -0.8257142951597364 -0.2502590699846001 0  -0.822
[...]
<PointData  Vectors="f_48"> 
<DataArray  type="Float64"  Name="f_48"  NumberOfComponents="3" format="ascii">1.7727979675442696e-06 2.5302714509270834e-07 0.0000000000000000e+00  -7.1998874941640245e-09 9.0010694788341787e-10 0.0000000000000000e+00  7.6971243468035284e-08 2.2265755534695953e-07 0.0000000000000000e+00  2.4459033720566643e-07 4.1412715809564884e-07 0.0000000000000000e+00  5.2858039450045368e-07 5.3483683894651735e-07 0.0000000000000000e+00  6.9919752051901691e-07 6.2012332730471165e-07 0.0000000000000000e+00  1.0795425792509477e-06 4.3294201252089509e-07 0.0000000000000000e+00  1.3098743011643282e-06 3.6385782913039240e-07 0.0000000000000000e+00  1.4425515455882325e-06 5.0423617283311874e-07 0.0000000000000000e+00  1.1414763922435098e-08 -2.3315245291163138e-07 0.0000000000000000e+00  1.8546770791578918e-06 5.4142491032577508e-07 0.0000000000000000e+00  1.9933175536961443e-06 6.0254873011608354e-07 0.0000000000000000e+00  2.0736602428476281e-06 7.2320626615268371e-07 0.0000000000000000e+00  2.1197634568819938e-06 8.9254518280279859e-07 0.0000000000000000e+00  2.0905536522689524e-06 1.0527668473718214e-06 0.0000000000000000e+00  2.0164424131397264e-06 1.1472662245783968e-06 0.0000000000000000e+00  1.7522616499233776e-06 1.2575135116233678e-06 0.0000000000000000e+00  1.4744922345722087e-06 -2.0810786664408711e-06 0.0000000000000000e+00  1.3443688148357319e-07 -4.5098430581967688e-07 0.0000000000000000e+00  3.4880686162103048e-07 -6.2457404882049266e-07 0.0000000000000000e+00  6.1945485729872247e-07 -7.4485330083939044e-07 0.0000000000000000e+00  9.4432796556135691e-07 -8.0494735659519413e-07 0.0000000000000000e+00  1.2474108529115797e-06 -8.5255600967515883e-07 0.0000000000000000e+00  1.5466912656456290e-06 -8.6812878625514244e-07 0.0000000000000000e+00  1.8172104655346342e-06 -8.7342152854970684e-07 0.0000000000000000e+00  2.0454181728987966e-06 -9.2435506268788047e-07 0.0000000000000000e+00  2.2341654918394562e-06 -9.7317137344074796e-07 0.0000000000000000e+00  2.3670216748797382e-06 -1.0458347067513440e-06 0.0000000000000000e+00  2.4466899518634399e-06 -1.1212131679899858e-06 0.0000000000000000e+00  2.4305053766344225e-06 -1.3064484091767358e-06 0.0000000000000000e+00  2.4045531373830312e-06 -1.4320789184404186e-06 0.0000000000000000e+00  2.2993740881105382e-06 -1.5552712136038613e-06 0.0000000000000000e+00  2.0480973342902462e-06 -1.5700530440556106e-06 0.0000000000000000e+00  2.0072347365007365e-06 -1.6135453060671677e-06 0.0000000000000000e+00  1.7794332817095722e-06 1.3432125936718953e-06 0.0000000000000000e+00  2.0849958407931571e-06 8.8124642072890496e-07 0.0000000000000000e+00  2.0401637540638946e-06 6.5574736834741524e-07 0.0000000000000000e+00  1.7691393530052970e-06 5.5922634745299200e-07 0.0000000000000000e+00  1.4830899218395282e-06 2.4571365128166609e-07 0.0000000000000000e+00  9.5987838038054039e-07 4.4245332488969406e-07 0.0000000000000000e+00  3.5862213807429997e-07 4.7920500492031712e-07 0.0000000000000000e+00  2.4243335502141673e-08 1.1390806700109501e-07 0.0000000000000000e+00  2.3019015288938052e-06 -1.3336962407264114e-06 0.0000000000000000e+00  4.8124108969826306e-07 -6.9136590470357134e-07 0.0000000000000000e+00  1.0913222630577867e-06 -8.3758519435300935e-07 0.0000000000000000e+00  1.6779924629131484e-06 -8.8608856255652954e-07 0.0000000000000000e+00  2.1480808959896759e-06 -9.3554006528570680e-07 0.0000000000000000e+00  2.4058251053300805e-06 -1.0844850702585657e-06 0.0000000000000000e+00  2.4336560104901026e-06 -1.2117190757268731e-06 0.0000000000000000e+00  5.8575241991897678e-08 -3.4672864222211928e-07 0.0000000000000000e+00  1.4037912596012184e-06 1.7193175126996566e-06 0.0000000000000000e+00  2.4606347602532329e-06 -1.1630803320426150e-06 0.0000000000000000e+00  2.3046615408385024e-06 -1.0015727800948201e-06 0.0000000000000000e+00  1.9487834450660633e-06 -8.8283507824743507e-07 0.0000000000000000e+00  1.3966798023338609e-06 -8.6375571600055986e-07 0.0000000000000000e+00  8.0019880491010914e-07 -7.6528160464864341e-07 0.0000000000000000e+00  2.3022752193992194e-07 -5.4530065712451018e-07 0.0000000000000000e+00  -1.1323030213794047e-08 -1.1653780454111338e-07 0.0000000000000000e+00  1.6428644769895899e-07 3.1604285321218693e-07 0.0000000000000000e+00  3.4633799783786620e-07 7.6845256702863281e-07 0.0000000000000000e+00  1.2000761553189259e-06 4.0432480471492510e-07 0.0000000000000000e+00  1.6870760882939134e-06 8.4721890299683904e-08 0.0000000000000000e+00  1.9294662350440020e-06 5.6351398251606328e-07 0.0000000000000000e+00  2.1158258320284957e-06 7.1091005612081495e-07 0.0000000000000000e+00  1.9903877856199020e-06 1.0268567108861222e-06 0.0000000000000000e+00  6.3373517572138996e-08 4.0847732143885707e-07 0.0000000000000000e+00  1.2368204378990262e-06 -6.7061365481499844e-07 0.0000000000000000e+00  8.2719257986544413e-07 9.5191066819819919e-08 0.0000000000000000e+00  2.6652098878843221e-07 5.9014638873605586e-07 0.0000000000000000e+00  1.8118100465616214e-06 -7.4649314016280923e-07 0.0000000000000000e+00  1.2289021214014447e-06 5.4032629408927538e-08 0.0000000000000000e+00  7.5319384124039806e-07 1.0354684405371226e-06 0.0000000000000000e+00  1.5842337021749160e-07 5.7969944343806027e-07 0.0000000000000000e+00  1.3754026560885231e-06 -1.4450109689726163e-06 0.0000000000000000e+00  1.4563093051699619e-06 -1.5926277972513716e-06 0.0000000000000000e+00  1.5587714807107961e-06 -3.7370708481536973e-07 0.0000000000000000e+00  1.5684554565309193e-06 -2.1503147273473751e-07 0.0000000000000000e+00  4.0405885871049565e-07 8.3180041727665107e-07 0.0000000000000000e+00  9.9199355504426277e-07 -1.2695172692645306e-07 0.0000000000000000e+00  -1.7422313290011662e-07 6.7753426198717916e-07 0.0000000000000000e+00  2.3016847256326576e-07 5.8187385354907016e-07 0.0000000000000000e+00  -3.1952748162621757e-07 4.7568071387094694e-07 0.0000000000000000e+00  -1.0590792898858601e-07 -4.4321033263686172e-08 0.0000000000000000e+00  -2.3812576654881482e-08 6.3579704143281085e-09 0.0000000000000000e+00  -9.3382450849528743e-09 5.9208497371457411e-08 0.0000000000000000e+00  -1.0314347982277016e-08 1.0694810965381241e-07 0.0000000000000000e+00  -1.1164236516102180e-08 1.5964247118636465e-07 0.0000000000000000e+00  -1.2995761162070870e-09 2.2431949649098226e-07 0.0000000000000000e+00  1.4218110671979132e-08 2.8497866668480902e-07 0.0000000000000000e+00  3.8242711030121561e-08 3.4351330656720652e-07 0.0000000000000000e+00  4.4165886495091059e-08 4.0399676939731584e-07 0.0000000000000000e+00  1.7083320492566763e-08 4.4113959401948012e-07 0.0000000000000000e+00  -5.5003026765075245e-08 4.7371959496596277e-07 0.0000000000000000e+00  -1.9886725347799391e-08 -8.9142149092895112e-08 0.0000000000000000e+00  -8.9291720712578613e-09 -2.4635091345804183e-08 0.0000000000000000e+00  -7.8245720906236578e-09 8.4569391499564068e-08 0.0000000000000000e+00  -5.7457355448085730e-09 1.9412939628127101e-07 0.0000000000000000e+00  2.2655220080676554e-08 3.1449068299909716e-07 0.0000000000000000e+00  3.0593265068309835e-08 4.1926400961659016e-07 0.0000000000000000e+00  -1.0617388376534375e-08 4.7592503413372161e-07 0.0000000000000000e+00  -8.9737509061328377e-09 3.2987746776345919e-08 0.0000000000000000e+00  -1.4604447226145268e-08 1.3516220749037560e-07 0.0000000000000000e+00  5.7002173187758588e-09 2.5519198853777397e-07 0.0000000000000000e+00  5.4264680849183406e-08 3.7065442125506830e-07 0.0000000000000000e+00  1.1088757611493871e-08 4.5456066659892450e-07 0.0000000000000000e+00  1.3010678467030337e-06 1.6495566730612249e-06 0.0000000000000000e+00  1.2450936777111722e-07 -3.2844282791647285e-07 0.0000000000000000e+00  5.7980294950902693e-07 -1.2258554539603693e-07 0.0000000000000000e+00  1.0134912082401406e-06 4.7812616267326092e-07 0.0000000000000000e+00  5.0153747830353938e-08 -2.4435698046450869e-07 0.0000000000000000e+00  4.7961741827034360e-07 -6.2157039519499310e-07 0.0000000000000000e+00  9.6050903071508564e-07 -8.3451438258804999e-08 0.0000000000000000e+00  1.4695500040492069e-06 6.1410466290591449e-07 0.0000000000000000e+00  5.8191358201212395e-08 -1.9641900783931119e-07 0.0000000000000000e+00  -1.2022895285890549e-07 -3.0899445068569595e-07 0.0000000000000000e+00  5.9738515457693587e-07 -4.6016243438714324e-08 0.0000000000000000e+00  2.9653028825650790e-07 -6.2956639764721020e-07 0.0000000000000000e+00  1.2074193388356540e-06 1.3283122753938487e-07 0.0000000000000000e+00  1.2432369136656370e-06 2.0412306269861302e-07 0.0000000000000000e+00  1.1572520838568092e-06 1.2911492237782210e-06 0.0000000000000000e+00  1.1599127344315022e-06 1.1653893503852367e-06 0.0000000000000000e+00  1.5931602667134083e-08 -2.8517725418485823e-07 0.0000000000000000e+00  1.9249106703121451e-06 1.1315043752617497e-06 0.0000000000000000e+00  1.9968147014926364e-06 1.0091410346955040e-06 0.0000000000000000e+00  2.0238807335670133e-06 8.4583010961344579e-07 0.0000000000000000e+00  1.9810357056002550e-06 7.0520341456978015e-07 0.0000000000000000e+00  1.9019722476038678e-06 5.9721362037933475e-07 0.0000000000000000e+00  1.7751766399458343e-06 5.2418950901488486e-07 0.0000000000000000e+00  1.6129804761139128e-06 4.5999820045958163e-07 0.0000000000000000e+00  1.4043849129036905e-06 4.2916942321558317e-07 0.0000000000000000e+00  1.1792291783242006e-06 4.2656415314220032e-07 0.0000000000000000e+00  9.2788004836649430e-07 4.2739200567614779e-07 0.0000000000000000e+00  6.7300415957643112e-07 4.0009309419963977e-07 0.0000000000000000e+00  4.0995521898540596e-07 3.5579396402852226e-07 0.0000000000000000e+00  1.9898562739715014e-07 2.5204006078959006e-07 0.0000000000000000e+00  4.3721624119748573e-08 9.8763423915251851e-08 0.0000000000000000e+00  -1.5121615905434920e-08 -9.6331837494953482e-08 0.0000000000000000e+00  1.7005667488194372e-06 1.2118262056391095e-06 0.0000000000000000e+00  1.8606025153809917e-07 -4.3376487692783586e-07 0.0000000000000000e+00  4.4959608432422122e-07 -5.0972931121904483e-07 0.0000000000000000e+00  6.2065505758631384e-07 -6.0527542762580209e-07 0.0000000000000000e+00  1.0218239105504319e-06 -5.4967115445362794e-07 0.0000000000000000e+00  1.2684378640093632e-06 -5.9805324293584662e-07 0.0000000000000000e+00  1.5213570453209623e-06 -6.1818216361668737e-07 0.0000000000000000e+00  1.7458062873679267e-06 -6.5358286067961250e-07 0.0000000000000000e+00  1.9990747016002784e-06 -6.5746396778299895e-07 0.0000000000000000e+00  2.1485564922683178e-06 -7.7116481760918788e-07 0.0000000000000000e+00  2.2740955008038276e-06 -8.5948858005584145e-07 0.0000000000000000e+00  2.3478197451168221e-06 -9.6336851012298164e-07 0.0000000000000000e+00  2.3565641642167168e-06 -1.1170534829924311e-06 0.0000000000000000e+00  2.3260070032675908e-06 -1.2795335484622834e-06 0.0000000000000000e+00  2.2280033617302740e-06 -1.4071051700472557e-06 0.0000000000000000e+00  1.9621153135748018e-06 -1.4587670128461202e-06 0.0000000000000000e+00  1.4588414896713331e-06 -1.9918606802529169e-06 0.0000000000000000e+00  1.9402873564418947e-06 -1.5276593230183295e-06 0.0000000000000000e+00  2.3442808492944376e-06 -1.0533936346069187e-06 0.0000000000000000e+00  2.3182766567573998e-06 -8.9313014267529462e-07 0.0000000000000000e+00  2.0636189801828289e-06 -7.5136172045255601e-07 0.0000000000000000e+00  1.6479040201656147e-06 -6.3236698850424271e-07 0.0000000000000000e+00  1.0456546154106102e-06 -7.0204262653401018e-07 0.0000000000000000e+00  5.7900818899002930e-07 -5.4071035464751798e-07 0.0000000000000000e+00  1.0195075626082944e-07 -3.5886573856377177e-07 0.0000000000000000e+00  -8.1211561890165210e-09 1.0289169471566543e-08 0.0000000000000000e+00  3.0204719383288614e-07 3.1020201042175761e-07 0.0000000000000000e+00  7.8888274185933700e-07 4.3434168803239307e-07 0.0000000000000000e+00  1.2939036416421355e-06 4.3597563810197755e-07 0.0000000000000000e+00  1.6951608675731348e-06 4.9867989130434274e-07 0.0000000000000000e+00  1.9494465905245418e-06 6.3729617572832426e-07 0.0000000000000000e+00  1.9974817988821990e-06 8.3177808771415989e-07 0.0000000000000000e+00  1.6910007572281378e-06 1.2485928829284758e-06 0.0000000000000000e+00  2.2167235113979693e-06 -1.2039863895705679e-06 0.0000000000000000e+00  2.3629928281224000e-06 -9.8341367324225325e-07 0.0000000000000000e+00  2.2189648874199967e-06 -8.0757878878264334e-07 0.0000000000000000e+00  1.9111627215589738e-06 -5.5336243919262131e-07 0.0000000000000000e+00  1.3711956586645287e-06 -6.5621129767168619e-07 0.0000000000000000e+00  1.0715873993558588e-06 -3.3162262644983209e-07 0.0000000000000000e+00  2.8751845838222260e-07 -4.9014128459936053e-07 0.0000000000000000e+00  -5.5847740248747598e-08 -1.8604166449162956e-07 0.0000000000000000e+00  1.0550608022490452e-07 1.8607991709750755e-07 0.0000000000000000e+00  5.6729544233222627e-07 3.5536777906494279e-07 0.0000000000000000e+00  1.0510376502781542e-06 4.3659063885727205e-07 0.0000000000000000e+00  1.5280455242967004e-06 4.0500155897450397e-07 0.0000000000000000e+00  1.8428476983706699e-06 5.5834039889338071e-07 0.0000000000000000e+00  2.0167111271675358e-06 6.9915121880603675e-07 0.0000000000000000e+00  1.9085088418333396e-06 9.5518480099174143e-07 0.0000000000000000e+00  2.5222486640948483e-08 3.2578119141483743e-07 0.0000000000000000e+00  1.1732742510904556e-06 -6.1143285644081876e-07 0.0000000000000000e+00  7.5291395818679591e-07 1.1125084143049949e-07 0.0000000000000000e+00  2.2490744972876471e-07 5.1315350018046154e-07 0.0000000000000000e+00  1.7107035611820196e-06 -7.4048482270783192e-07 0.0000000000000000e+00  1.1541584077656317e-06 6.5586965620282620e-08 0.0000000000000000e+00  6.7311071901354065e-07 8.9868857192190421e-07 0.0000000000000000e+00  1.2268451266143246e-07 4.9377810376853281e-07 0.0000000000000000e+00  1.3084938567161865e-06 -1.3926733088435766e-06 0.0000000000000000e+00  1.3464707034939291e-06 -1.5351492402634021e-06 0.0000000000000000e+00  1.4742212154464224e-06 -3.1597290168110065e-07 0.0000000000000000e+00  1.4735859144711266e-06 -1.9602942721373897e-07 0.0000000000000000e+00  3.8143006853866380e-07 7.8607450651077583e-07 0.0000000000000000e+00  8.7470158320220740e-07 -3.8307897379852837e-08 0.0000000000000000e+00  -1.6424871023377282e-07 5.7490119472456721e-07 0.0000000000000000e+00  1.7605909576431907e-07 4.7599210978355661e-07 0.0000000000000000e+00  -2.7251153381479228e-07 3.6591493808341315e-07 0.0000000000000000e+00  -1.5997890920240198e-07 -1.2944504617451471e-07 0.0000000000000000e+00  -3.5805181898853679e-08 -9.4679106988918997e-08 0.0000000000000000e+00  -7.6172323616059595e-09 -5.0099499699501633e-08 0.0000000000000000e+00  -1.0701737622732466e-09 -8.1060412751978594e-09 0.0000000000000000e+00  -3.9049982430128181e-09 4.3153655011956409e-08 0.0000000000000000e+00  -1.6307134572288622e-09 1.0409114195962325e-07 0.0000000000000000e+00  6.4247844213373054e-09 1.6254419235715283e-07 0.0000000000000000e+00  2.1701437292968272e-08 2.2062024356684385e-07 0.0000000000000000e+00  2.8389547132994207e-08 2.7760459741564033e-07 0.0000000000000000e+00  7.0818931020589394e-09 3.1530886442471936e-07 0.0000000000000000e+00  -5.1523648909119654e-08 3.5143031760216970e-07 0.0000000000000000e+00  -5.4589248401604917e-09 -1.5563185149346585e-07 0.0000000000000000e+00  -1.4132975471856874e-08 -1.1798810885302977e-07 0.0000000000000000e+00  -3.4000297155295101e-09 -2.7315682503287256e-08 0.0000000000000000e+00  -3.1698559154206372e-09 7.5134648432131644e-08 0.0000000000000000e+00  1.1513648121711857e-08 1.9128720715308826e-07 0.0000000000000000e+00  1.6964811223553570e-08 2.9372783423628270e-07 0.0000000000000000e+00  -8.0380847173100872e-09 3.5944058623622140e-07 0.0000000000000000e+00  -9.2183776504854316e-09 -7.1908196604685526e-08 0.0000000000000000e+00  -2.4895270096189033e-09 1.9563609427248177e-08 0.0000000000000000e+00  1.5233577005001265e-09 1.3356997048690540e-07 0.0000000000000000e+00  3.3812492279521835e-08 2.4602854069009091e-07 0.0000000000000000e+00  2.6450041635711300e-09 3.3132348672292750e-07 0.0000000000000000e+00  1.5193228087995640e-07 -3.8487545221775646e-07 0.0000000000000000e+00  6.3623495876772516e-07 -1.1303610787717758e-07 0.0000000000000000e+00  1.0582634022008784e-06 5.2241373814235779e-07 0.0000000000000000e+00  6.7004261914653311e-08 -3.1378224141456272e-07 0.0000000000000000e+00  5.2558522274445743e-07 -7.2377077361633095e-07 0.0000000000000000e+00  1.0075949671102669e-06 -7.1967531965856535e-08 0.0000000000000000e+00  1.5195677629610006e-06 6.5639304756327326e-07 0.0000000000000000e+00  8.9724788918163985e-08 -2.7812519502395515e-07 0.0000000000000000e+00  -1.3313083487978383e-07 -3.8212604125788027e-07 0.0000000000000000e+00  6.8856076514536307e-07 1.0750604566207850e-09 0.0000000000000000e+00  3.1371526641458595e-07 -6.6067214793079842e-07 0.0000000000000000e+00  1.2819389066156621e-06 1.3122835363783481e-07 0.0000000000000000e+00  1.3095146084335066e-06 2.5448547518372038e-07 0.0000000000000000e+00  1.2269734858130834e-06 1.3416317916023870e-06 0.0000000000000000e+00  1.1783608282787393e-06 1.2710799541217317e-06 0.0000000000000000e+00  1.1685645889846594e+03 -8.7929386796902133e+02 0.0000000000000000e+00  1.1651467386692877e+03 -8.6579647773000067e+02 0.0000000000000000e+00  7.6594632138728883e+01 2.7043913114421679e+02 0.0000000000000000e+00  1.2864123918479461e+03 1.0541325303515313e+02 0.0000000000000000e+00  1.2084283816989553e+03 8.9349391673385725e+01 0.0000000000000000e+00  1.3222949398810275e+02 3.4341853845503488e+02 0.0000000000000000e+00  2.6372311032360346e+02 4.5830399413581881e+02 0.0000000000000000e+00  2.2176455619627515e+02 4.0027853984128581e+02 0.0000000000000000e+00  1.3348157558316379e+02 -2.6094229770655477e+02 0.0000000000000000e+00  9.7830154938642309e+01 -1.9941687277587002e+02 0.0000000000000000e+00  7.8663713517733663e+02 -2.1962414530157653e+02 0.0000000000000000e+00  4.5220909747537280e+02 -4.9281414157823485e+02 0.0000000000000000e+00  8.1976733295997656e+02 -4.3598723045334833e+02 0.0000000000000000e+00  6.6225271361344269e+01 4.8240739527721809e+02 0.0000000000000000e+00  2.3550603453647716e+02 6.3172024840053757e+02 0.0000000000000000e+00  8.6698527684321132e+00 2.6211767165937653e+02 0.0000000000000000e+00  7.2633142693720561e+02 1.0778370301677228e+02 0.0000000000000000e+00  6.8427174498771944e+02 2.1362776832539186e+02 0.0000000000000000e+00  -5.1041433526784466e+01 -2.0334114197433942e+02 0.0000000000000000e+00  -5.2450324500489508e+01 -5.1128928965963802e+01 0.0000000000000000e+00  1.2437825793253030e+03 -1.6422692160470038e+02 0.0000000000000000e+00  5.0365031414823079e+02 -2.0749722016246594e+02 0.0000000000000000e+00  1.2832787263957832e+02 5.1115516350474587e+02 0.0000000000000000e+00  8.5453695687864979e+02 -2.2526073714364404e+02 0.0000000000000000e+00  5.2707449685506867e+02 -5.6247610046787167e+02 0.0000000000000000e+00  4.8755942604903818e-01 1.3838701029047334e+02 0.0000000000000000e+00  8.5914494721959204e+02 7.7841608291049795e+02 0.0000000000000000e+00  1.1276604839753386e+03 1.5741353783402576e+02 0.0000000000000000e+00  2.3885317386037818e+02 -7.5640003974538251e+02 0.0000000000000000e+00  1.0489642745694835e+03 2.1482100514645776e+02 0.0000000000000000e+00  1.4714791991979271e+03 -2.4261655719038481e+02 0.0000000000000000e+00  9.5901586684212043e+02 6.0504400223375535e+02 0.0000000000000000e+00  1.6817087019239100e+03 4.3897199756341894e+02 0.0000000000000000e+00  2.8472527683414836e+02 -7.3737179625027147e+02 0.0000000000000000e+00  1.0250829577603704e+03 6.9135888092343021e+02 0.0000000000000000e+00  1.0313751714799719e+03 8.1612598518268021e+02 0.0000000000000000e+00  8.5168416726971441e+02 -5.0169780640028688e+02 0.0000000000000000e+00  2.4276534952897624e+01 3.1688001327513933e+02 0.0000000000000000e+00  1.4979139131052380e+03 -3.0462068583799129e+02 0.0000000000000000e+00  4.1775902989681572e+02 2.2171356246386233e+02 0.0000000000000000e+00  1.4765342075140343e+03 -6.6113356760482304e+02 0.0000000000000000e+00  2.9819369766608770e+02 -1.7767240024664653e+02 0.0000