<?xml version="1.0"?>
<VTKFile type="UnstructuredGrid"  version="0.1"  >
<UnstructuredGrid>
<Piece  NumberOfPoints="4153" NumberOfCells="8064">
<Points>
<DataArray  type="Float64"  NumberOfComponents="3"  format="ascii">-0.4200022915044353 -0.5767040434433444 0  -0.0491901931971602 -0.685824712140602 0  -0.0980897406961027 -0.6815332088275069 0  -0.1464417122251523 -0.6740239075548737 0  -0.1941296836434129 -0.6638988880424619 0  -0.2413673303541524 -0.6520798220633662 0  -0.2877727942814416 -0.6364123216116543 0  -0.3330326314550285 -0.6181967653627686 0  -0.3771213060493326 -0.5982208463252715 0  -2.550545884097725e-06 -0.6865221839790664 0  -0.4619759811204243 -0.5558058783721793 0  -0.5033039871442732 -0.5350835001078506 0  -0.5440555673818874 -0.5148316500924589 0  -0.5842958577293913 -0.4954130633491324 0  -0.6242228335981882 -0.4771209510897629 0  -0.6638197000208663 -0.4600225888731634 0  -0.7032121630065472 -0.4449057638143361 0  0.6827177093609735 -0.4613527609919932 0  0.04916263575235812 -0.6835961392970575 0  0.09799859383769784 -0.6771295781028175 0  0.1462244935381867 -0.6673864110271321 0  0.1936112262847883 -0.6547481107764276 0  0.240051139504132 -0.6399537158057053 0  0.2855408111898984 -0.6234899580060802 0  0.3301042866431004 -0.6058164871165963 0  0.3737834326165811 -0.5874151160460791 0  0.416703928940228 -0.5687200079899549 0  0.458963366308387 -0.5500604393815545 0  0.5006542112828942 -0.5316910157495542 0  0.5418483643865528 -0.5139513125350884 0  0.5826177751931445 -0.4969329743057074 0  0.6230075586839829 -0.481048028150621 0  0.6631393426178217 -0.466935699991764 0  0.6430005411648939 -0.4740009748705649 0  -0.6833949311515775 -0.4524822080301303 0  -0.604303891172847 -0.4861724419434892 0  -0.523739940664953 -0.5248926581888246 0  -0.4410520211662138 -0.5662212555349191 0  -0.3552228905538884 -0.6083258383210705 0  -0.2647077761844699 -0.6446153444582901 0  -0.1703681391264796 -0.6692755409311085 0  -0.07369487135551397 -0.6841103380263099 0  0.6028491485539417 -0.4889116957448492 0  0.1222032938565662 -0.6726431355214425 0  0.2169496753357285 -0.6475893760105297 0  0.3079329691482035 -0.6147867723495901 0  0.3953343689311619 -0.5780836672207145 0  0.4798721956490141 -0.5408376959308711 0  0.5622895874122766 -0.5053412750355344 0  0.02460209137682378 -0.6855112817129535 0  -0.7223598116330805 -0.4387457587695223 0  0.5212960076601343 -0.522720063237205 0  0.4379100358499488 -0.5593731430710331 0  0.3520434858702514 -0.5966615496582592 0  0.2629141445308031 -0.6319047041623294 0  0.1700379434940722 -0.6613895269000272 0  0.07364045729313742 -0.6807929802513002 0  -0.02461196695911334 -0.6866325259678726 0  -0.1223456198646397 -0.6781512686980885 0  -0.2177508476901969 -0.6583493961726008 0  -0.3105466412474638 -0.6275566613694206 0  -0.3987928426770179 -0.5875990170127484 0  -0.4827164808400071 -0.54540658368408 0  -0.564224941758485 -0.5049615257303753 0  -0.6440443421807537 -0.4685051484069235 0  0.8397916830455956 -0.2728536501003662 0  0.7441937625751286 -0.4388214258523616 0  0.7963798662928283 -0.3969449312414818 0  0.8300357484658939 -0.3394033273495523 0  0.7137737372323025 -0.4505060035724286 0  0.7710699714481433 -0.4189146948644698 0  0.8120124095028328 -0.3672577873822953 0  0.8341718243613702 -0.3057847775130213 0  0.6984499090820124 -0.4568710915565541 0  0.7289080664653339 -0.4442104371447242 0  0.7576889467377391 -0.4290315577684113 0  0.7833235840280032 -0.4071924868902823 0  0.8052570992232084 -0.3826734940391275 0  0.8205172907105938 -0.3531959763622739 0  0.8316447872448783 -0.3224307424733 0  0.8365138047968872 -0.2892232770393156 0  0.8391716971404263 -0.2513486931901352 0  0.8440195321608986 0.2226485526269127 0  0.843541947985567 0.1799708293757707 0  0.8441907882133517 0.1371961632596635 0  0.8453576200673246 0.09420886358091621 0  0.8467724613186075 0.05090682063457268 0  0.8471918929391775 0.00734767633765443 0  0.8466731355058416 -0.0362670489304119 0  0.8452243923461619 -0.07980306910806348 0  0.8428671665554407 -0.1230544466620334 0  0.8408226449328006 -0.165995579477215 0  0.8393645243274545 -0.2087181820110241 0  0.845187036015363 0.2441275601346387 0  0.8435935484082863 0.2013099502339251 0  0.8447343004704247 0.1157336876103741 0  0.847100408777693 0.02914346984325908 0  0.8460682437041629 -0.05805384309666354 0  0.8418023625169699 -0.1445583163252342 0  0.8390650907328133 -0.2300362806551007 0  0.8437809371439469 0.1586047406539561 0  0.8461176634402766 0.07261424713043498 0  0.8470458064234808 -0.01446103727436618 0  0.8440779164083672 -0.1014853060272153 0  0.8400019246095166 -0.1873789886212822 0  0.6933024737644069 0.4347606012800541 0  0.8370935663001022 0.3109816619462499 0  0.8049183417362535 0.3692877133121242 0  0.7539123979573906 0.4119689815542181 0  0.8405979581624246 0.2772326112644428 0  0.8201638972879245 0.3394193949425339 0  0.7801869530098187 0.3915198179805964 0  0.7238749201757479 0.423785260292282 0  0.842587925431162 0.2606109236567118 0  0.8384853705031862 0.2939579886049786 0  0.8282377577854654 0.3250801163983777 0  0.8133648875037657 0.3547565575294401 0  0.7921534927916504 0.3796805582455997 0  0.767093522931146 0.4018633370904894 0  0.7388175944492645 0.4174833005316492 0  0.7087570780163991 0.430104311133868 0  -0.03544702624115579 0.6939316836852805 0  0.6348159054785024 0.4558906489591768 0  0.5952673348762787 0.4729508803635109 0  0.5553479486574965 0.4912529125869519 0  0.5150310355889971 0.5106412345287044 0  0.4741468369620367 0.5308068934212348 0  0.4326123323415775 0.5514181422710219 0  0.390323702395181 0.5721968294455496 0  0.3471604425031803 0.5929212160165296 0  0.3029554934732659 0.6130043100996669 0  0.2576655997541241 0.6319980389386539 0  0.2112456983348416 0.6494279473908909 0  0.1636634165208789 0.664860536256995 0  0.1149812555733485 0.6773640590603579 0  0.06540393252533994 0.6865496031903613 0  0.01518401683588221 0.6920556473370819 0  0.6741524581365885 0.4407801724351499 0  -0.08608131384184572 0.6910047104273257 0  -0.1362008162180615 0.6837577759184564 0  -0.1853961394332356 0.6725552172017627 0  -0.233195604212123 0.6574094769733504 0  -0.2796307632671841 0.6407982136749582 0  -0.3248820967580737 0.6227737291056532 0  -0.3690311546086921 0.60371761513322 0  -0.4121251854565299 0.5839317140382694 0  -0.454405927422336 0.5643127031147657 0  -0.4960267660214761 0.5448993731469792 0  -0.5370871285084056 0.5259043155662918 0  -0.5776720028900827 0.5075511976130349 0  -0.6178387133332925 0.4900512288315124 0  -0.6576681344224061 0.473779709283881 0  -0.6973037549941289 0.459391167551126 0  -0.7166354198927519 0.4537116268215147 0  -0.6773982689918321 0.4665979647394554 0  -0.5978046784897108 0.4986873099800317 0  -0.5166215769095138 0.535338594897145 0  -0.4333517433735117 0.5741104908123328 0  -0.3470878320942878 0.6133429468095142 0  -0.256564690421904 0.6493153265098506 0  -0.1609365360847224 0.6785760898238792 0  -0.06079681978678342 0.6930039472960279 0  0.04035879636903403 0.6897939431333212 0  0.1394482478470566 0.6714878242044996 0  0.234597187530269 0.6409403586851294 0  0.3251876979642672 0.6030743869427443 0  0.4115674409053993 0.5618043624541645 0  0.4946611021271921 0.5206559595062102 0  0.5753587970612979 0.4819943750621289 0  0.6543935945983749 0.4483456810019386 0  -0.6377841182577185 0.4818294957198372 0  -0.5574329495353935 0.5166395188445616 0  -0.4752920224848753 0.5545664785158095 0  -0.390717379448533 0.5938574996184099 0  -0.3023987557601636 0.6319376923590622 0  -0.2095451832863154 0.6653721975716689 0  -0.1112319787852138 0.6878945812506533 0  -0.01006814935844227 0.6935364128026253 0  0.09029023835369396 0.6823969605921139 0  0.1876134727936044 0.6574678487055933 0  0.2804497561008421 0.622667782586239 0  0.3688690344788682 0.5825911027293552 0  0.453466900839591 0.5410761106896007 0  0.5352511154065921 0.5008095683180125 0  0.6150763101180886 0.4643309181998418 0  -0.8715111647717894 0.2653106171574695 0  -0.7776863596214285 0.4315252952837227 0  -0.8293658838100495 0.3895286221199465 0  -0.862395661133501 0.3318130696323709 0  -0.7474258166565502 0.443038839573006 0  -0.8042882088357862 0.4114833823819128 0  -0.8448594607914307 0.3598589509966657 0  -0.8663088220366943 0.2982288135513524 0  -0.7322035529595138 0.44925100910049 0  -0.7624746940313724 0.4368648317238161 0  -0.7910305151093276 0.4216401374557249 0  -0.8164186564038839 0.3997703797786748 0  -0.8380460936092118 0.3751754655849531 0  -0.8531838919242566 0.3457134802815762 0  -0.8639421749509935 0.3148650972546239 0  -0.8685306875857608 0.2816907888056842 0  -0.8706908196804063 0.2438878920918784 0  -0.8741406894341597 -0.2280836515593026 0  -0.8734907802854373 -0.1855611975720808 0  -0.8740888830387694 -0.1429818163459188 0  -0.8752863289284479 -0.1002099888998023 0  -0.876829172792245 -0.05713822376890386 0  -0.8774444104297071 -0.01379709263726901 0  -0.8771503380085094 0.02960847343529624 0  -0.8759510760282421 0.07294954901657816 0  -0.8738179038789865 0.1160277687021538 0  -0.8719888819548287 0.1588046798279854 0  -0.8707313807734 0.2013841672136508 0  -0.8752652245123123 -0.2495420305119449 0  -0.8736135511912465 -0.2068184012246471 0  -0.8746417358490336 -0.1216262456193661 0  -0.8772532871727226 -0.03548447156015141 0  -0.8766654001088022 0.05129586799127867 0  -0.8728589916318844 0.1374462310049595 0  -0.8705104922341147 0.2226344693220174 0  -0.8736963411959207 -0.1642895056639208 0  -0.876091834371328 -0.07873087387400754 0  -0.8774071323642337 0.007905734366051166 0  -0.8749255180186117 0.09454430782558754 0  -0.8712695691457241 0.1801135093366176 0  -0.866861744333188 -0.3161913081642034 0  -0.8342733306845709 -0.3740577645603252 0  -0.7830460942199661 -0.4163844770224031 0  -0.8704599403346025 -0.2825262168994273 0  -0.8495827743735955 -0.3443251373026288 0  -0.809485961355863 -0.3962691138231036 0  -0.7529749980554193 -0.4281303825989493 0  -0.8724695554778061 -0.2659470495414114 0  -0.868260891
[...]
<PointData  Vectors="f_48"> 
<DataArray  type="Float64"  Name="f_48"  NumberOfComponents="3" format="ascii">1.8819316841699676e-06 1.3538789686885546e-06 0.0000000000000000e+00  -1.0398460624879392e-08 -2.1312710035314306e-08 0.0000000000000000e+00  8.5172072021323287e-08 3.0700988982475134e-07 0.0000000000000000e+00  2.5990096879719438e-07 6.1595249507802164e-07 0.0000000000000000e+00  5.1365586949142348e-07 8.9491234206843612e-07 0.0000000000000000e+00  6.6365087937774970e-07 1.0917721952401232e-06 0.0000000000000000e+00  1.0770231185124082e-06 1.1047671686916127e-06 0.0000000000000000e+00  1.3804316824961602e-06 1.1416263034142288e-06 0.0000000000000000e+00  1.5052799662708701e-06 1.3446168389685641e-06 0.0000000000000000e+00  1.5746861300852660e-10 -3.5852992037856459e-07 0.0000000000000000e+00  1.8818235615624103e-06 1.6085432973127667e-06 0.0000000000000000e+00  1.9441366035017316e-06 1.7694695785294970e-06 0.0000000000000000e+00  1.9580676156592410e-06 1.8973001769234584e-06 0.0000000000000000e+00  1.8890664068066514e-06 2.0564610238143086e-06 0.0000000000000000e+00  1.7684240869595939e-06 2.1700591336244866e-06 0.0000000000000000e+00  1.5941300431067191e-06 2.2776916648961630e-06 0.0000000000000000e+00  1.3544156104756454e-06 2.1934171066324952e-06 0.0000000000000000e+00  7.6536971756705167e-07 -2.4868458258799535e-06 0.0000000000000000e+00  1.1850778700725939e-07 -6.8147607553606533e-07 0.0000000000000000e+00  3.3316798876458791e-07 -9.6648172916180074e-07 0.0000000000000000e+00  6.1084073120659016e-07 -1.2033996042150028e-06 0.0000000000000000e+00  9.3960548978718729e-07 -1.3951750371407021e-06 0.0000000000000000e+00  1.2333814864802542e-06 -1.5724584847658645e-06 0.0000000000000000e+00  1.5149321744110347e-06 -1.7212941408821701e-06 0.0000000000000000e+00  1.7716283035577002e-06 -1.8406399631110014e-06 0.0000000000000000e+00  1.9528746884745134e-06 -1.9843352224663097e-06 0.0000000000000000e+00  2.0881727564872659e-06 -2.1117244663879513e-06 0.0000000000000000e+00  2.1581357945440524e-06 -2.2297970617146938e-06 0.0000000000000000e+00  2.1823865076565186e-06 -2.3140677243867783e-06 0.0000000000000000e+00  2.0661336216145803e-06 -2.4441760863836705e-06 0.0000000000000000e+00  1.9349275727773242e-06 -2.5434792759386978e-06 0.0000000000000000e+00  1.7122606123459932e-06 -2.6423277337501127e-06 0.0000000000000000e+00  1.4183694213065209e-06 -2.6007645595664414e-06 0.0000000000000000e+00  1.5270704164204136e-06 -2.3811351196845517e-06 0.0000000000000000e+00  1.3446354243959925e-06 2.1326402669598474e-06 0.0000000000000000e+00  1.8691023239663609e-06 2.0065181888251364e-06 0.0000000000000000e+00  1.9519122651073045e-06 1.8410282105584910e-06 0.0000000000000000e+00  1.7641844173515884e-06 1.6263643177517769e-06 0.0000000000000000e+00  1.5000875243385662e-06 1.2142775829706707e-06 0.0000000000000000e+00  9.6155345596116922e-07 1.0323494538982985e-06 0.0000000000000000e+00  3.7269676096504459e-07 7.4655641558096217e-07 0.0000000000000000e+00  2.5652397618227886e-08 1.4444183106072894e-07 0.0000000000000000e+00  1.9082073725902573e-06 -2.3706828677605748e-06 0.0000000000000000e+00  4.6702298582443123e-07 -1.0918538928204777e-06 0.0000000000000000e+00  1.0835571885493312e-06 -1.4899038093874541e-06 0.0000000000000000e+00  1.6389096912211154e-06 -1.7883157343192992e-06 0.0000000000000000e+00  2.0383719703457957e-06 -2.0368159922693333e-06 0.0000000000000000e+00  2.1688705196020634e-06 -2.2706186884879502e-06 0.0000000000000000e+00  2.0808756294648795e-06 -2.3820113135955405e-06 0.0000000000000000e+00  4.4676072302112431e-08 -5.2388241847140723e-07 0.0000000000000000e+00  7.5215466463601655e-07 2.2940682539374864e-06 0.0000000000000000e+00  2.1396351686833374e-06 -2.3733099521905260e-06 0.0000000000000000e+00  2.1333816187861971e-06 -2.1628903128991044e-06 0.0000000000000000e+00  1.8766624793829780e-06 -1.9124104148894062e-06 0.0000000000000000e+00  1.3791053436842731e-06 -1.6457382172285045e-06 0.0000000000000000e+00  7.9587955588450233e-07 -1.2929803002214365e-06 0.0000000000000000e+00  2.1432022622571975e-07 -8.3014448413147763e-07 0.0000000000000000e+00  -1.9005412173232521e-08 -1.9055985671326902e-07 0.0000000000000000e+00  1.7395658572330063e-07 4.5947191238296146e-07 0.0000000000000000e+00  2.8215507352974505e-07 1.1414850571349214e-06 0.0000000000000000e+00  1.2224766758940117e-06 1.1419331987963494e-06 0.0000000000000000e+00  1.9065874355489946e-06 1.0290026495803662e-06 0.0000000000000000e+00  1.9193217113853886e-06 1.6904944774164585e-06 0.0000000000000000e+00  1.9692909113448611e-06 1.9356947971539394e-06 0.0000000000000000e+00  1.7345341369252971e-06 2.0038893374181871e-06 0.0000000000000000e+00  6.6360097677943732e-08 5.0390493431874417e-07 0.0000000000000000e+00  1.2735267430591721e-06 -9.0871409227786086e-07 0.0000000000000000e+00  9.2317095772487333e-07 6.4263595791274779e-08 0.0000000000000000e+00  3.8531414888704849e-07 6.7114321026746903e-07 0.0000000000000000e+00  1.7985252676706223e-06 -1.3082268998816985e-06 0.0000000000000000e+00  1.4504194023287201e-06 -1.1151336658298502e-07 0.0000000000000000e+00  1.0191161526092274e-06 9.4593553990565470e-07 0.0000000000000000e+00  1.9901976421101333e-07 7.1407185470110351e-07 0.0000000000000000e+00  1.2885272442181268e-06 -1.7593298984323670e-06 0.0000000000000000e+00  9.9441218114009543e-07 -2.1086264800840137e-06 0.0000000000000000e+00  1.6643293258673023e-06 -5.2029261343287376e-07 0.0000000000000000e+00  1.6943329618193971e-06 -5.9060717873634130e-07 0.0000000000000000e+00  6.0558286411819462e-07 1.0338917276152855e-06 0.0000000000000000e+00  1.0654665264882507e-06 -6.8069753304070022e-08 0.0000000000000000e+00  -1.8946718065797443e-07 8.0423887584026902e-07 0.0000000000000000e+00  2.9384865532747320e-07 6.5725937391734700e-07 0.0000000000000000e+00  -3.8836701785907528e-07 5.6440474415806408e-07 0.0000000000000000e+00  -1.9741806702569867e-07 -1.9026074687050462e-07 0.0000000000000000e+00  -4.7209740655670186e-08 -1.1971100969484943e-07 0.0000000000000000e+00  -1.1954155829170990e-08 -4.0435586697625540e-08 0.0000000000000000e+00  -3.9090585130049659e-09 3.3784863549725098e-08 0.0000000000000000e+00  -6.0565608712570585e-09 1.1189074939441149e-07 0.0000000000000000e+00  1.4587622318924392e-10 1.9644701836231906e-07 0.0000000000000000e+00  1.2172034622302592e-08 2.7628973486939571e-07 0.0000000000000000e+00  3.2798992368479759e-08 3.5431670848880824e-07 0.0000000000000000e+00  2.9617244365547271e-08 4.3470470276224871e-07 0.0000000000000000e+00  -3.8983567969547809e-09 4.9344605119392225e-07 0.0000000000000000e+00  -8.6695824081079801e-08 5.4525072003104731e-07 0.0000000000000000e+00  -1.3248439077976569e-08 -2.2370413041488086e-07 0.0000000000000000e+00  -1.9506428805153322e-08 -1.6099685555252893e-07 0.0000000000000000e+00  -6.0480194516493926e-09 -1.3525070100386010e-09 0.0000000000000000e+00  -2.9772946411323579e-09 1.5625707114680530e-07 0.0000000000000000e+00  1.8785023143810617e-08 3.1523857876129234e-07 0.0000000000000000e+00  1.3915073921700555e-08 4.6162256793817843e-07 0.0000000000000000e+00  -3.0469573195432140e-08 5.6065256955282292e-07 0.0000000000000000e+00  -1.4848758053113340e-08 -7.9700115009363062e-08 0.0000000000000000e+00  -6.4325471422193175e-09 7.7082413307708466e-08 0.0000000000000000e+00  5.3091590507228260e-09 2.3688257470137960e-07 0.0000000000000000e+00  4.3138329322649528e-08 3.9028821143234113e-07 0.0000000000000000e+00  -1.3197046523894456e-08 5.1870951481139880e-07 0.0000000000000000e+00  7.2313505322653960e-07 2.1697992449331628e-06 0.0000000000000000e+00  2.3501013778347991e-07 -4.6274171192164923e-07 0.0000000000000000e+00  7.2844062854400668e-07 -1.0279387598580778e-07 0.0000000000000000e+00  1.1243728252951217e-06 7.2896656924986010e-07 0.0000000000000000e+00  9.9155813040134778e-08 -4.1750537081210774e-07 0.0000000000000000e+00  7.3923685208129294e-07 -6.7757882822404577e-07 0.0000000000000000e+00  1.2247869489303280e-06 5.7688472687736866e-08 0.0000000000000000e+00  1.5322205171049280e-06 1.1351039826371602e-06 0.0000000000000000e+00  1.2361582809607529e-07 -3.4427962084963139e-07 0.0000000000000000e+00  -1.4908498543733977e-07 -4.9358106746579523e-07 0.0000000000000000e+00  7.5828957608810031e-07 -6.5090565929252722e-08 0.0000000000000000e+00  4.8103588904673005e-07 -8.4326383453331305e-07 0.0000000000000000e+00  1.4168013436661188e-06 4.5146830591425687e-07 0.0000000000000000e+00  1.4238237253406843e-06 3.5493862091161349e-07 0.0000000000000000e+00  8.4628224446929947e-07 1.8039239206740599e-06 0.0000000000000000e+00  1.1293181479927715e-06 1.5262652031504561e-06 0.0000000000000000e+00  -8.6939716868206347e-09 -3.9944120035669266e-07 0.0000000000000000e+00  1.5350860128906439e-06 2.2518600232837289e-06 0.0000000000000000e+00  1.7290025953046954e-06 2.1206194463929976e-06 0.0000000000000000e+00  1.8568858905958185e-06 1.9980176452505410e-06 0.0000000000000000e+00  1.9016719322157014e-06 1.8775542385357715e-06 0.0000000000000000e+00  1.8905566552454809e-06 1.7507223246590733e-06 0.0000000000000000e+00  1.8217804804357491e-06 1.6129244874859414e-06 0.0000000000000000e+00  1.7057834134484079e-06 1.4628117208346438e-06 0.0000000000000000e+00  1.5217917794944622e-06 1.3132325936532267e-06 0.0000000000000000e+00  1.2984404908130352e-06 1.1775029296917677e-06 0.0000000000000000e+00  1.0447545042428984e-06 1.0268609744565810e-06 0.0000000000000000e+00  7.7851856624800251e-07 8.5567779561270440e-07 0.0000000000000000e+00  4.8828989732514327e-07 6.7371450085708234e-07 0.0000000000000000e+00  2.4882904150153467e-07 4.5270037261797030e-07 0.0000000000000000e+00  6.6294338534206534e-08 1.9002522668818971e-07 0.0000000000000000e+00  -1.8431185335499981e-08 -1.1041026280530492e-07 0.0000000000000000e+00  1.2773741905650906e-06 2.2340390743511851e-06 0.0000000000000000e+00  1.5297134761315716e-07 -6.5890338920702392e-07 0.0000000000000000e+00  4.3667926076554613e-07 -8.5390899349091732e-07 0.0000000000000000e+00  7.0544450248797189e-07 -1.0064361685669724e-06 0.0000000000000000e+00  1.0744795578112379e-06 -1.1635977886223983e-06 0.0000000000000000e+00  1.3328537483542704e-06 -1.3364171156775187e-06 0.0000000000000000e+00  1.5748281093723573e-06 -1.4976663958222450e-06 0.0000000000000000e+00  1.7854640345215636e-06 -1.6440943310820147e-06 0.0000000000000000e+00  2.0045884229887407e-06 -1.7910712322783987e-06 0.0000000000000000e+00  2.0957245474913523e-06 -1.9515671158990915e-06 0.0000000000000000e+00  2.1456793406001225e-06 -2.0933757947678051e-06 0.0000000000000000e+00  2.1445378375247868e-06 -2.2099424613623700e-06 0.0000000000000000e+00  2.0586073609637055e-06 -2.3324377301924003e-06 0.0000000000000000e+00  1.8996957693710968e-06 -2.4676550803410657e-06 0.0000000000000000e+00  1.6685275716779126e-06 -2.5920055193908165e-06 0.0000000000000000e+00  1.3722367162555640e-06 -2.5548665978577303e-06 0.0000000000000000e+00  7.2888835921783150e-07 -2.4563846949517284e-06 0.0000000000000000e+00  1.4682160721870082e-06 -2.3297846120350733e-06 0.0000000000000000e+00  2.0440221288452847e-06 -2.2919153929022023e-06 0.0000000000000000e+00  2.1543783367607231e-06 -2.1475023390950726e-06 0.0000000000000000e+00  2.0256020701730724e-06 -1.9008167051052849e-06 0.0000000000000000e+00  1.6806599534226620e-06 -1.5884257406314464e-06 0.0000000000000000e+00  1.1313284958272630e-06 -1.3065289414072532e-06 0.0000000000000000e+00  5.5715833670954213e-07 -9.5516432378606738e-07 0.0000000000000000e+00  7.4589384579790714e-08 -5.2935405724682737e-07 0.0000000000000000e+00  9.8623842901125357e-10 4.9228873214102757e-08 0.0000000000000000e+00  3.6402930404164827e-07 5.7075571076142350e-07 0.0000000000000000e+00  8.9927377092434190e-07 9.5566534307414458e-07 0.0000000000000000e+00  1.4105314663236001e-06 1.2528699983243881e-06 0.0000000000000000e+00  1.7640120787549867e-06 1.5446884401127680e-06 0.0000000000000000e+00  1.9029701147173262e-06 1.8146512189305036e-06 0.0000000000000000e+00  1.8291047022450476e-06 1.9695105138292248e-06 0.0000000000000000e+00  1.3447918368839706e-06 2.0368517273799195e-06 0.0000000000000000e+00  1.8708251465736117e-06 -2.2855275589046767e-06 0.0000000000000000e+00  2.1202731490482899e-06 -2.2494302135730769e-06 0.0000000000000000e+00  2.1242309613367590e-06 -2.0282686287039892e-06 0.0000000000000000e+00  1.9671524610274178e-06 -1.6420079914944426e-06 0.0000000000000000e+00  1.4273730935075803e-06 -1.4488086688200972e-06 0.0000000000000000e+00  1.1593717468595860e-06 -9.0679017598668293e-07 0.0000000000000000e+00  2.6860741642075670e-07 -7.7048190181226115e-07 0.0000000000000000e+00  -7.1290450726539403e-08 -2.4473100379424059e-07 0.0000000000000000e+00  1.4088743367769832e-07 3.3055624760218268e-07 0.0000000000000000e+00  6.6597323464513603e-07 7.4505084666880119e-07 0.0000000000000000e+00  1.1716325850955873e-06 1.1066148248748320e-06 0.0000000000000000e+00  1.6418293688685466e-06 1.3656364207793221e-06 0.0000000000000000e+00  1.8624044179349886e-06 1.6816780704881883e-06 0.0000000000000000e+00  1.9134885916620818e-06 1.9046235225009011e-06 0.0000000000000000e+00  1.6994275157367723e-06 1.9643515272407109e-06 0.0000000000000000e+00  3.1209883711885577e-08 4.4576805368962175e-07 0.0000000000000000e+00  1.2397779535856497e-06 -8.6196847590248360e-07 0.0000000000000000e+00  8.7150996888864989e-07 8.2074106401158614e-08 0.0000000000000000e+00  3.4535306938215826e-07 6.1961088168747390e-07 0.0000000000000000e+00  1.7115862252814868e-06 -1.3030052086070599e-06 0.0000000000000000e+00  1.3992007400757150e-06 -9.6675533838234510e-08 0.0000000000000000e+00  9.4631404217490993e-07 8.6337800942246247e-07 0.0000000000000000e+00  1.7210630387445416e-07 6.5029899191166229e-07 0.0000000000000000e+00  1.2398864175273292e-06 -1.7275803015061109e-06 0.0000000000000000e+00  9.1938810740232105e-07 -2.0540366408721895e-06 0.0000000000000000e+00  1.6091926337921086e-06 -4.6488303672920857e-07 0.0000000000000000e+00  1.6310995473767961e-06 -5.6607710693438421e-07 0.0000000000000000e+00  5.8195403178030306e-07 9.9877271225305594e-07 0.0000000000000000e+00  9.8453643298020503e-07 3.2238749581293568e-09 0.0000000000000000e+00  -1.8437845562127860e-07 7.3247536001704956e-07 0.0000000000000000e+00  2.4344916904014457e-07 5.8685932379425071e-07 0.0000000000000000e+00  -3.5577922272200994e-07 4.8907619741814073e-07 0.0000000000000000e+00  -2.3658955135169244e-07 -2.3709075379802136e-07 0.0000000000000000e+00  -5.8751533377648424e-08 -1.8164422978720449e-07 0.0000000000000000e+00  -1.4537764354868005e-08 -1.1090645461791707e-07 0.0000000000000000e+00  -1.2170292081120573e-09 -4.2820211339066197e-08 0.0000000000000000e+00  -2.5588262093702565e-09 3.2062257206033438e-08 0.0000000000000000e+00  -1.0388625675450557e-09 1.1288066657312840e-07 0.0000000000000000e+00  6.3460922853562850e-09 1.9020995418042958e-07 0.0000000000000000e+00  2.1363960768021726e-08 2.6714926355124262e-07 0.0000000000000000e+00  2.0438183577449124e-08 3.4531286781088342e-07 0.0000000000000000e+00  -9.7117228816890044e-09 4.0451404896863965e-07 0.0000000000000000e+00  -8.3703171356643054e-08 4.5982157008556941e-07 0.0000000000000000e+00  3.5485111922747280e-09 -2.6372550752590439e-07 0.0000000000000000e+00  -2.9060650950102536e-08 -2.1820361533223429e-07 0.0000000000000000e+00  -6.3211618852109953e-09 -7.4791372533148845e-08 0.0000000000000000e+00  -2.4142465094987004e-09 7.4153500193651905e-08 0.0000000000000000e+00  1.0814053045367017e-08 2.2826551890976242e-07 0.0000000000000000e+00  5.5319225763685249e-09 3.7264860661592177e-07 0.0000000000000000e+00  -2.8399538347072671e-08 4.7842457630111624e-07 0.0000000000000000e+00  -1.9398826468356708e-08 -1.4618239467742718e-07 0.0000000000000000e+00  -8.2182778665882811e-10 -1.2983420240978463e-09 0.0000000000000000e+00  1.7212322720584016e-09 1.5184745862331036e-07 0.0000000000000000e+00  3.0129710404321780e-08 3.0166139361209146e-07 0.0000000000000000e+00  -1.7653274819439824e-08 4.3149881573631188e-07 0.0000000000000000e+00  2.5980227631472275e-07 -4.9784869149357101e-07 0.0000000000000000e+00  7.6364595462717922e-07 -8.6518293107318887e-08 0.0000000000000000e+00  1.1405706378163289e-06 7.6428614826402575e-07 0.0000000000000000e+00  1.0991824584408797e-07 -4.6023712691144107e-07 0.0000000000000000e+00  7.7920799713046646e-07 -7.4295597297251461e-07 0.0000000000000000e+00  1.2456949992302902e-06 7.2589381932121134e-08 0.0000000000000000e+00  1.5728562208167767e-06 1.1496246211769518e-06 0.0000000000000000e+00  1.4960472686873301e-07 -3.9293041843316687e-07 0.0000000000000000e+00  -1.5597294816782784e-07 -5.3669551203820437e-07 0.0000000000000000e+00  8.1776402366922175e-07 -1.2033090775616754e-08 0.0000000000000000e+00  4.9279768824711386e-07 -8.5817898259700712e-07 0.0000000000000000e+00  1.4635544137240052e-06 4.5742848517185938e-07 0.0000000000000000e+00  1.4547789660940805e-06 4.1436480158983913e-07 0.0000000000000000e+00  8.6640440594359012e-07 1.8519940607533520e-06 0.0000000000000000e+00  1.0692944133374279e-06 1.5991722893708762e-06 0.0000000000000000e+00  1.1866590120044227e+03 -9.3134978849265576e+02 0.0000000000000000e+00  1.1689403872205305e+03 -9.4336871657018685e+02 0.0000000000000000e+00  7.6181963187494588e+01 2.6839160230189640e+02 0.0000000000000000e+00  1.3211735256298136e+03 1.9674253171574429e+02 0.0000000000000000e+00  1.2750934674882371e+03 1.9133243580541492e+02 0.0000000000000000e+00  1.3767530255537281e+02 3.5051127918027527e+02 0.0000000000000000e+00  3.0994402580770429e+02 4.9443890896737253e+02 0.0000000000000000e+00  2.7960465003775215e+02 4.5721186295259082e+02 0.0000000000000000e+00  1.7121182490354821e+02 -3.0545039641723650e+02 0.0000000000000000e+00  1.4573840481858633e+02 -2.6783536698963485e+02 0.0000000000000000e+00  9.3765219679355550e+02 -1.3195323477411418e+02 0.0000000000000000e+00  5.0065121987237370e+02 -5.2335101087430053e+02 0.0000000000000000e+00  7.4381879873208584e+02 -4.5929070345338062e+02 0.0000000000000000e+00  5.9053063486345529e+01 4.5119234729890854e+02 0.0000000000000000e+00  1.9081396227716846e+02 5.7906335631202103e+02 0.0000000000000000e+00  7.1909678134638364e+00 2.4136773402955876e+02 0.0000000000000000e+00  6.5381122422318538e+02 5.5146232942162321e+00 0.0000000000000000e+00  5.7942658459884785e+02 2.7131633389574745e+02 0.0000000000000000e+00  -5.5087788538100988e+01 -1.9248205980397773e+02 0.0000000000000000e+00  -8.1543693007425148e+01 -6.0074185662137921e+01 0.0000000000000000e+00  1.1601036197272972e+03 1.2573125983443989e+01 0.0000000000000000e+00  3.7571538308563294e+02 -2.1948305322164470e+02 0.0000000000000000e+00  1.2217652197252453e+02 5.1214488024862408e+02 0.0000000000000000e+00  9.7706306271554695e+02 -1.2878749336056379e+02 0.0000000000000000e+00  5.3965909556050667e+02 -5.6186718351807883e+02 0.0000000000000000e+00  1.3281694169062639e+00 1.5967041827537102e+02 0.0000000000000000e+00  9.1920006524784674e+02 7.9119872118636363e+02 0.0000000000000000e+00  1.2354548447539109e+03 4.6444675191683986e+00 0.0000000000000000e+00  2.5137331531892278e+02 -7.6963210545087543e+02 0.0000000000000000e+00  1.1867510966662298e+03 7.9285033379606446e+01 0.0000000000000000e+00  1.5212087002456856e+03 -3.9584271467613820e+02 0.0000000000000000e+00  9.8162030584093532e+02 6.3382776633951028e+02 0.0000000000000000e+00  1.5763230830520881e+03 5.0483614838321637e+02 0.0000000000000000e+00  2.9071642323150780e+02 -7.8009999430867822e+02 0.0000000000000000e+00  1.0245458752638256e+03 6.5589492320517979e+02 0.0000000000000000e+00  1.0613294071900457e+03 8.0449709415293262e+02 0.0000000000000000e+00  7.3473322293574483e+02 -5.0287900624298999e+02 0.0000000000000000e+00  2.8716326931810645e+01 3.4166446345448560e+02 0.0000000000000000e+00  1.5247989318798907e+03 -4.6553919859657839e+02 0.0000000000000000e+00  5.2256812670036595e+02 2.0411428676360305e+02 0.0000000000000000e+00  1.4363424750795277e+03 -4.5316347703125768e+02 0.0000000000000000e+00  4.0443491333255906e+02 -1.8089418485245938e+02