<?xml version="1.0"?>
<VTKFile type="UnstructuredGrid"  version="0.1"  >
<UnstructuredGrid>
<Piece  NumberOfPoints="4153" NumberOfCells="8064">
<Points>
<DataArray  type="Float64"  NumberOfComponents="3"  format="ascii">-0.4249999999999999 -0.5 0  -0.02499999999999988 -0.5 0  -0.07499999999999987 -0.5 0  -0.1249999999999998 -0.5 0  -0.1749999999999998 -0.5 0  -0.2249999999999998 -0.5 0  -0.2749999999999998 -0.5 0  -0.3249999999999998 -0.5 0  -0.3749999999999999 -0.5 0  0.02500000000000016 -0.5 0  -0.4749999999999998 -0.5 0  -0.5249999999999998 -0.5 0  -0.5749999999999998 -0.5 0  -0.6249999999999999 -0.5 0  -0.6749999999999999 -0.5 0  -0.725 -0.5 0  -0.775 -0.5 0  0.8 -0.5 0  0.07500000000000025 -0.5 0  0.1250000000000003 -0.5 0  0.1750000000000004 -0.5 0  0.2250000000000004 -0.5 0  0.2750000000000004 -0.5 0  0.3250000000000003 -0.5 0  0.3750000000000001 -0.5 0  0.4250000000000002 -0.5 0  0.4750000000000002 -0.5 0  0.5250000000000001 -0.5 0  0.5750000000000002 -0.5 0  0.625 -0.5 0  0.675 -0.5 0  0.725 -0.5 0  0.775 -0.5 0  0.75 -0.5 0  -0.75 -0.5 0  -0.6499999999999999 -0.5 0  -0.5499999999999998 -0.5 0  -0.4499999999999998 -0.5 0  -0.3499999999999999 -0.5 0  -0.2499999999999998 -0.5 0  -0.1499999999999998 -0.5 0  -0.04999999999999988 -0.5 0  0.7 -0.5 0  0.1500000000000004 -0.5 0  0.2500000000000003 -0.5 0  0.3500000000000002 -0.5 0  0.4500000000000002 -0.5 0  0.5500000000000002 -0.5 0  0.65 -0.5 0  0.0500000000000002 -0.5 0  -0.8 -0.5 0  0.6000000000000001 -0.5 0  0.5000000000000002 -0.5 0  0.4000000000000001 -0.5 0  0.3000000000000003 -0.5 0  0.2000000000000004 -0.5 0  0.1000000000000003 -0.5 0  1.110223024625157e-16 -0.5 0  -0.09999999999999987 -0.5 0  -0.1999999999999998 -0.5 0  -0.2999999999999998 -0.5 0  -0.3999999999999999 -0.5 0  -0.4999999999999998 -0.5 0  -0.5999999999999999 -0.5 0  -0.7 -0.5 0  1 -0.3 0  0.8765366864730179 -0.4847759065022574 0  0.9414213562373094 -0.4414213562373097 0  0.9847759065022573 -0.3765366864730181 0  0.838268343236509 -0.4923879532511287 0  0.9089790213551636 -0.4630986313697836 0  0.9630986313697834 -0.4089790213551639 0  0.9923879532511286 -0.338268343236509 0  0.8191341716182545 -0.4961939766255644 0  0.8574025148547635 -0.488581929876693 0  0.8927578539140908 -0.4739372689360205 0  0.9252001887962364 -0.4522599938035466 0  0.9522599938035463 -0.4252001887962368 0  0.9739372689360204 -0.392757853914091 0  0.9885819298766929 -0.3574025148547635 0  0.9961939766255643 -0.3191341716182545 0  1 -0.275 0  1 0.275 0  1 0.225 0  1 0.175 0  1 0.125 0  1 0.07499999999999994 0  1 0.02499999999999987 0  1 -0.0250000000000002 0  1 -0.07500000000000026 0  1 -0.1250000000000003 0  1 -0.1750000000000002 0  1 -0.2250000000000001 0  1 0.3 0  1 0.25 0  1 0.15 0  1 0.04999999999999991 0  1 -0.05000000000000023 0  1 -0.1500000000000002 0  1 -0.2500000000000001 0  1 0.2 0  1 0.09999999999999998 0  1 -1.665334536937735e-16 0  1 -0.1000000000000003 0  1 -0.2000000000000002 0  0.8 0.5 0  0.9847759065022573 0.3765366864730181 0  0.9414213562373094 0.4414213562373097 0  0.8765366864730179 0.4847759065022574 0  0.9923879532511286 0.338268343236509 0  0.9630986313697834 0.4089790213551639 0  0.9089790213551636 0.4630986313697836 0  0.838268343236509 0.4923879532511287 0  0.9961939766255643 0.3191341716182545 0  0.9885819298766929 0.3574025148547635 0  0.9739372689360204 0.392757853914091 0  0.9522599938035463 0.4252001887962368 0  0.9252001887962364 0.4522599938035466 0  0.8927578539140908 0.4739372689360205 0  0.8574025148547635 0.488581929876693 0  0.8191341716182545 0.4961939766255644 0  -0.02500000000000016 0.5 0  0.725 0.5 0  0.6749999999999999 0.5 0  0.6249999999999999 0.5 0  0.5749999999999998 0.5 0  0.5249999999999998 0.5 0  0.4749999999999998 0.5 0  0.4249999999999999 0.5 0  0.3749999999999999 0.5 0  0.3249999999999998 0.5 0  0.2749999999999998 0.5 0  0.2249999999999998 0.5 0  0.1749999999999998 0.5 0  0.1249999999999998 0.5 0  0.07499999999999987 0.5 0  0.02499999999999988 0.5 0  0.775 0.5 0  -0.07500000000000025 0.5 0  -0.1250000000000003 0.5 0  -0.1750000000000004 0.5 0  -0.2250000000000004 0.5 0  -0.2750000000000004 0.5 0  -0.3250000000000003 0.5 0  -0.3750000000000001 0.5 0  -0.4250000000000002 0.5 0  -0.4750000000000002 0.5 0  -0.5250000000000001 0.5 0  -0.5750000000000002 0.5 0  -0.625 0.5 0  -0.675 0.5 0  -0.725 0.5 0  -0.775 0.5 0  -0.8 0.5 0  -0.75 0.5 0  -0.65 0.5 0  -0.5500000000000002 0.5 0  -0.4500000000000002 0.5 0  -0.3500000000000002 0.5 0  -0.2500000000000003 0.5 0  -0.1500000000000004 0.5 0  -0.0500000000000002 0.5 0  0.04999999999999988 0.5 0  0.1499999999999998 0.5 0  0.2499999999999998 0.5 0  0.3499999999999999 0.5 0  0.4499999999999998 0.5 0  0.5499999999999998 0.5 0  0.6499999999999999 0.5 0  0.75 0.5 0  -0.7 0.5 0  -0.6000000000000001 0.5 0  -0.5000000000000002 0.5 0  -0.4000000000000001 0.5 0  -0.3000000000000003 0.5 0  -0.2000000000000004 0.5 0  -0.1000000000000003 0.5 0  -1.110223024625157e-16 0.5 0  0.09999999999999987 0.5 0  0.1999999999999998 0.5 0  0.2999999999999998 0.5 0  0.3999999999999999 0.5 0  0.4999999999999998 0.5 0  0.5999999999999999 0.5 0  0.7 0.5 0  -1 0.3 0  -0.8765366864730181 0.4847759065022573 0  -0.9414213562373097 0.4414213562373094 0  -0.9847759065022574 0.3765366864730179 0  -0.838268343236509 0.4923879532511287 0  -0.9089790213551638 0.4630986313697834 0  -0.9630986313697836 0.4089790213551636 0  -0.9923879532511287 0.338268343236509 0  -0.8191341716182545 0.4961939766255643 0  -0.8574025148547635 0.488581929876693 0  -0.892757853914091 0.4739372689360203 0  -0.9252001887962368 0.4522599938035464 0  -0.9522599938035466 0.4252001887962365 0  -0.9739372689360205 0.3927578539140908 0  -0.9885819298766931 0.3574025148547634 0  -0.9961939766255643 0.3191341716182545 0  -1 0.275 0  -1 -0.275 0  -1 -0.225 0  -1 -0.175 0  -1 -0.125 0  -1 -0.07499999999999994 0  -1 -0.02499999999999987 0  -1 0.0250000000000002 0  -1 0.07500000000000026 0  -1 0.1250000000000003 0  -1 0.1750000000000002 0  -1 0.2250000000000001 0  -1 -0.3 0  -1 -0.25 0  -1 -0.15 0  -1 -0.04999999999999991 0  -1 0.05000000000000023 0  -1 0.1500000000000002 0  -1 0.2500000000000001 0  -1 -0.2 0  -1 -0.09999999999999998 0  -1 1.665334536937735e-16 0  -1 0.1000000000000003 0  -1 0.2000000000000002 0  -0.9847759065022574 -0.3765366864730179 0  -0.9414213562373096 -0.4414213562373094 0  -0.8765366864730181 -0.4847759065022573 0  -0.9923879532511287 -0.338268343236509 0  -0.9630986313697836 -0.4089790213551636 0  -0.9089790213551638 -0.4630986313697834 0  -0.838268343236509 -0.4923879532511287 0  -0.9961939766255643 -0.3191341716182545 0  -0.9885819298766931 -0.3574025148547634 0  -0.9739372689360205 -0.3927578539140908 0  -0.9522599938035465 -0.4252001887962365 0  -0.9252001887962367 -0.4522599938035464 0  -0.892757853914091 -0.4739372689360203 0  -0.8574025148547635 -0.488581929876693 0  -0.8191341716182545 -0.4961939766255643 0  -0.3000000000000003 0.3267949192431125 0  0.3181343990330772 -0.3439416921723297 0  -0.08257249764926196 -0.3383308877677023 0  -0.50979744334887 -0.3255818518047211 0  0.5060441378325211 0.3274561643884037 0  0.1037631564626732 0.3131559137665553 0  0.843149210446875 -0.1923130104173427 0  -0.8418263458721231 0.1927503215247096 0  -0.8408809410250262 -0.1897116835785854 0  0.8409071959036176 0.1896235182386696 0  0.705967194587281 0.3354524287114743 0  0.6276370409402552 0.1658336215477063 0  0.4215070288293651 0.1446794873901968 0  0.5369019087152576 -0.01677883310260353 0  0.3378219718963524 -0.0304857337078401 0  0.7359191653189867 -0.0003779706345871367 0  0.2206709281181736 0.1292871338121241 0  0.1390057666500616 -0.05482518983879574 0  0.02156604114872933 0.1091113821954512 0  -0.05991856886335568 -0.07544049830328706 0  -0.2091026540303009 0.113218101697482 0  -0.2557387210741711 -0.08957125969209863 0  -0.3742518736706093 0.02381865171750689 0  -0.7065883696935737 -0.3351547375041799 0  -0.6319769825415822 -0.1640183941417108 0  -0.7379485134301987 -0.0003221286420197649 0  -0.6263925638672921 0.1747922261462193 0  0.7000000000000003 -0.3471147448144379 0  -0.09731754444756222 0.2985839976753261 0  -0.7019016658227 0.339872535812372 0  -0.5036626740707574 0.3416097573515475 0  0.3086642085404555 0.31909644989288 0  0.4355889359290377 -0.1794947220360297 0  0.1233906847482294 -0.33992001942789 0  -0.2910439982708135 -0.2942818290560931 0  0.6252598700683595 -0.1832373653183336 0  -0.4390211493546888 -0.1414717198202583 0  -0.5445756908252299 0.01225332998817602 0  0.5094027625036279 -0.3483114655372777 0  -0.8570298735864267 0.3548088427148782 0  0.2432245006188761 -0.181388344807941 0  0.8576591493456415 0.3532994606374906 0  -0.8577781333911819 -0.3532575554640149 0  0.856914113336837 -0.3561698222938181 0  -0.4103395160999327 0.186370105143853 0  0.04059278020228735 -0.1932320619509051 0  -0.894759031223147 0.000141425932117211 0  0.8948577502800618 -0.0001596971477125707 0  -0.1430838089440986 -0.1942958300671257 0  -0.4774576034625814 0.09931171756601452 0  -0.5183660399836124 0.1805811656450362 0  -0.585484127346261 0.09352277806719765 0  -0.3551697580499665 0.2565825121934828 0  -0.3097210850651168 0.1497941034206675 0  -0.2545513270151506 0.2200065104702973 0  -0.3922956948852711 0.10509437843068 0  -0.4594137822479196 0.01803599085284146 0  -0.1532100992389315 0.205901049686404 0  -0.1986587722237813 0.3126894584592193 0  -0.1486587722237813 0.399291998837663 0  -0.04865877222378117 0.399291998837663 0  0.5673313162859936 -0.2657744154278056 0  0.6047013812518141 -0.3477131051758577 0  0.6626299350341799 -0.2651760550663858 0  0.4724958492163328 -0.2639030937866537 0  0.5304244029986986 -0.1813660436771817 0  -0.3650325738127511 -0.2178767744381757 0  -0.4744092963517794 -0.2335267858124897 0  -0.4004207208098418 -0.3099318404304071 0  -0.3473799352144299 -0.1155214897561785 0  -0.2733913596724923 -0.1919265443740958 0  0.06266459880570127 0.2111336479810033 0  0.1211184846334515 0.1191992580037876 0  0.1622170422904234 0.2212215237893397 0  
[...]
<PointData  Vectors="f_517"> 
<DataArray  type="Float64"  Name="f_517"  NumberOfComponents="3" format="ascii">-1.2594038144409174e-03 6.9971535548270375e-03 0.0000000000000000e+00  -3.0454744632876519e-04 9.2940781718770335e-02 0.0000000000000000e+00  -6.4703433451104180e-04 8.4894735269318122e-02 0.0000000000000000e+00  -9.2806260172002082e-04 7.5229121627827911e-02 0.0000000000000000e+00  -1.1479256131566632e-03 6.4295957068057227e-02 0.0000000000000000e+00  -1.5103384838465006e-03 5.5842800175415964e-02 0.0000000000000000e+00  -1.5885185406567730e-03 4.3625224719453431e-02 0.0000000000000000e+00  -1.5736472777052677e-03 3.3052893224534412e-02 0.0000000000000000e+00  -1.5009049483475740e-03 2.3689707487400454e-02 0.0000000000000000e+00  5.2211237902904379e-05 9.8528602426351086e-02 0.0000000000000000e+00  -1.1420118041547583e-03 8.3279475805498335e-04 0.0000000000000000e+00  -1.0405265240708281e-03 -1.0523657766043148e-02 0.0000000000000000e+00  -9.3406654993219993e-04 -2.3795179027086392e-02 0.0000000000000000e+00  -7.9244861990444208e-04 -3.4395096191595788e-02 0.0000000000000000e+00  -6.5582448515338128e-04 -4.7737105515143617e-02 0.0000000000000000e+00  -6.7390652126661093e-05 -6.1210488166317051e-02 0.0000000000000000e+00  1.4425309470862891e-02 -5.4045397604371909e-02 0.0000000000000000e+00  -3.5095585571050083e-03 -1.7060222988283175e-01 0.0000000000000000e+00  4.1308496857180770e-04 1.0060503086680664e-01 0.0000000000000000e+00  7.2788183459458950e-04 9.8914695013945161e-02 0.0000000000000000e+00  9.6870822016701991e-04 9.3502125707585801e-02 0.0000000000000000e+00  1.1121982210811517e-03 8.4944507521335505e-02 0.0000000000000000e+00  1.1874916523954312e-03 7.3904082466300536e-02 0.0000000000000000e+00  1.2018301536440268e-03 6.0943567859134823e-02 0.0000000000000000e+00  1.1683228840103077e-03 4.6234319287624018e-02 0.0000000000000000e+00  1.0827347495707834e-03 3.3410677065035983e-02 0.0000000000000000e+00  1.0011892493285031e-03 1.8273601892606448e-02 0.0000000000000000e+00  9.1430722751953538e-04 3.3610687158600141e-03 0.0000000000000000e+00  8.2525332225510386e-04 -1.2345032669216608e-02 0.0000000000000000e+00  7.3460523797067923e-04 -2.5277740991941022e-02 0.0000000000000000e+00  6.1813538685691924e-04 -4.1436557227423378e-02 0.0000000000000000e+00  9.5939392786317595e-05 -5.5802754410372662e-02 0.0000000000000000e+00  -1.3283198436125181e-02 -4.5258969832471109e-02 0.0000000000000000e+00  1.2370752275794555e-04 -7.8468736947150425e-02 0.0000000000000000e+00  -6.1943728349528570e-05 -8.2386901095563611e-02 0.0000000000000000e+00  -7.3622651821496376e-04 -4.0850711637550385e-02 0.0000000000000000e+00  -9.8910513126229910e-04 -1.6152908843787211e-02 0.0000000000000000e+00  -1.1951123141827784e-03 7.3571788602883941e-03 0.0000000000000000e+00  -1.5484108181857076e-03 2.8068858268088675e-02 0.0000000000000000e+00  -1.5681265075768525e-03 4.8600220427622159e-02 0.0000000000000000e+00  -1.0409780509968714e-03 7.0093569406722164e-02 0.0000000000000000e+00  -4.8127753580157342e-04 8.9194667828621538e-02 0.0000000000000000e+00  5.8944786016686655e-04 -5.0968292357681882e-02 0.0000000000000000e+00  8.5877711484460802e-04 9.6650505476427173e-02 0.0000000000000000e+00  1.1580948724176847e-03 7.9777159516561488e-02 0.0000000000000000e+00  1.1906062719005666e-03 5.4157033955192134e-02 0.0000000000000000e+00  1.0426171791818595e-03 2.5642774968762289e-02 0.0000000000000000e+00  8.6974024206193390e-04 -3.9968154728406736e-03 0.0000000000000000e+00  6.8772318550319939e-04 -3.4070882660343180e-02 0.0000000000000000e+00  2.3591359422260407e-04 9.9995208291139864e-02 0.0000000000000000e+00  3.6539908562376300e-03 -1.9867307479120833e-01 0.0000000000000000e+00  7.7924636156040796e-04 -1.8698676782680942e-02 0.0000000000000000e+00  9.5829948837175538e-04 1.0839151482189282e-02 0.0000000000000000e+00  1.1335651156618803e-03 3.9629941121282278e-02 0.0000000000000000e+00  1.2014709552582053e-03 6.7636568755317983e-02 0.0000000000000000e+00  1.0542286254453122e-03 8.9539766349603006e-02 0.0000000000000000e+00  5.7837179749760045e-04 1.0024258187248443e-01 0.0000000000000000e+00  -1.2834154840411191e-04 9.6126603254537230e-02 0.0000000000000000e+00  -7.9684602049187223e-04 8.0218368393773609e-02 0.0000000000000000e+00  -1.3175139382151733e-03 6.0595921007811027e-02 0.0000000000000000e+00  -1.5886122644942504e-03 3.8254448283324596e-02 0.0000000000000000e+00  -1.4684974423844551e-03 1.2258700701456307e-02 0.0000000000000000e+00  -1.0919708860854323e-03 -4.4930429826051509e-03 0.0000000000000000e+00  -8.9697840620420297e-04 -3.0283616173036317e-02 0.0000000000000000e+00  -6.2292972195127473e-04 -5.6431077828836503e-02 0.0000000000000000e+00  2.0111197355581305e-02 -6.8782091533784015e-04 0.0000000000000000e+00  1.8370429910493943e-03 -1.9472250734623692e-01 0.0000000000000000e+00  1.9874118848557176e-02 -2.0466423419806801e-02 0.0000000000000000e+00  -8.8275928750068205e-02 -4.9668928656566099e-04 0.0000000000000000e+00  2.4821040853766203e-02 -9.7114432652169763e-02 0.0000000000000000e+00  4.5727373390248571e-02 -5.3653818879117125e-02 0.0000000000000000e+00  5.9389975653894714e-02 -3.7493859145897070e-02 0.0000000000000000e+00  5.5836783014387652e-02 -8.8797153331050729e-03 0.0000000000000000e+00  1.9661743962885812e-02 -1.4959025014160029e-01 0.0000000000000000e+00  -2.5529048249417246e-02 4.6662986621153653e-02 0.0000000000000000e+00  1.1425012320568653e-01 -1.8261753718928680e-01 0.0000000000000000e+00  -1.7346256754573092e-02 -1.2621163077909565e-02 0.0000000000000000e+00  1.0981712818132351e-01 -8.0068249200450192e-02 0.0000000000000000e+00  -3.7614805588368230e-02 3.7545505786444628e-03 0.0000000000000000e+00  1.4426790438777401e-01 -1.7611614034140032e-02 0.0000000000000000e+00  2.9323411038992088e-02 -9.3533533860287905e-03 0.0000000000000000e+00  7.9941127782546875e-02 2.3643641990538813e-03 0.0000000000000000e+00  8.3093006677440823e-02 -1.6803757055063708e-03 0.0000000000000000e+00  5.2211480623121607e-02 1.2580605755886285e-04 0.0000000000000000e+00  4.0859462493912660e-02 2.4298454490789061e-04 0.0000000000000000e+00  3.3745410403543341e-02 1.8029329574328516e-04 0.0000000000000000e+00  2.7845936990639721e-02 9.0447475856641373e-05 0.0000000000000000e+00  2.5942615314675628e-02 2.8383475488548612e-05 0.0000000000000000e+00  2.5942202202587712e-02 -2.9656009099569716e-05 0.0000000000000000e+00  2.7820789136758815e-02 -9.1654566865532189e-05 0.0000000000000000e+00  3.3671471529536971e-02 -1.8154681277967610e-04 0.0000000000000000e+00  4.0727885969071162e-02 -2.4002254812939512e-04 0.0000000000000000e+00  5.1795317083823504e-02 -9.9955785777956023e-05 0.0000000000000000e+00  1.6925473930621198e-02 8.9368078148489415e-04 0.0000000000000000e+00  5.2727859574713765e-02 6.3833212115369550e-04 0.0000000000000000e+00  3.6633826489815467e-02 2.2041155511961830e-04 0.0000000000000000e+00  2.6904299139661431e-02 5.7815395107524241e-05 0.0000000000000000e+00  2.6913137125018822e-02 -5.9061288800242431e-05 0.0000000000000000e+00  3.6553932606443525e-02 -2.2044909566566002e-04 0.0000000000000000e+00  5.3286136847020812e-02 -6.4812142200154372e-04 0.0000000000000000e+00  4.4981002843219361e-02 3.1780581982947595e-04 0.0000000000000000e+00  3.0336887040807867e-02 1.4446341519592284e-04 0.0000000000000000e+00  2.5682268979312015e-02 -6.4081622707369765e-07 0.0000000000000000e+00  3.0306029473984725e-02 -1.4562786093153139e-04 0.0000000000000000e+00  4.4972656731656423e-02 -3.1571031615303623e-04 0.0000000000000000e+00  -3.4948380986596912e-03 2.0497511161803691e-01 0.0000000000000000e+00  -9.0899268800506139e-02 2.4807696520062184e-03 0.0000000000000000e+00  1.1885276817407961e-02 1.3766163032377017e-02 0.0000000000000000e+00  5.0899821667258725e-03 2.2417110544935592e-01 0.0000000000000000e+00  5.4976859343143912e-02 8.3395972081181675e-03 0.0000000000000000e+00  5.9542038195574139e-02 3.6718228318310550e-02 0.0000000000000000e+00  4.5172971895604375e-02 5.1407683497679539e-02 0.0000000000000000e+00  2.5678876597959682e-02 9.8092198267445793e-02 0.0000000000000000e+00  2.5026536964589396e-02 8.4384449176448575e-03 0.0000000000000000e+00  1.5315678700116622e-01 1.9650411815893901e-02 0.0000000000000000e+00  -4.4307695801213035e-02 -8.5925276009615539e-03 0.0000000000000000e+00  1.1296455987231470e-01 8.2084643652197947e-02 0.0000000000000000e+00  -2.2357808424433311e-02 6.6076341138651719e-03 0.0000000000000000e+00  1.2125963050340997e-01 1.9428771527422573e-01 0.0000000000000000e+00  -2.6354331946832201e-02 -5.4772120215489245e-02 0.0000000000000000e+00  1.9974153013897000e-02 1.5703863928225836e-01 0.0000000000000000e+00  -3.0268031294245303e-04 -1.1533727397406784e-01 0.0000000000000000e+00  5.1549308158407812e-05 5.8190155367433001e-02 0.0000000000000000e+00  6.5094460727173353e-04 4.3305075164222516e-02 0.0000000000000000e+00  7.8819505843886377e-04 2.8198633334021034e-02 0.0000000000000000e+00  9.2329286067208312e-04 1.3769061300997474e-02 0.0000000000000000e+00  1.0295930553600278e-03 -2.2730054969207990e-03 0.0000000000000000e+00  1.1300920496770659e-03 -1.7840186177300019e-02 0.0000000000000000e+00  1.2265526590734023e-03 -3.3114237208882666e-02 0.0000000000000000e+00  1.3438025207030842e-03 -4.8300501379561843e-02 0.0000000000000000e+00  1.3866153069690564e-03 -6.4391518182144031e-02 0.0000000000000000e+00  1.3757075489779968e-03 -7.9318901834251415e-02 0.0000000000000000e+00  1.2994905738826393e-03 -9.2149960163123726e-02 0.0000000000000000e+00  1.1708457839013158e-03 -1.0504262072811289e-01 0.0000000000000000e+00  9.1229435928380975e-04 -1.1277234606122900e-01 0.0000000000000000e+00  5.6198497928512767e-04 -1.1719035446875194e-01 0.0000000000000000e+00  1.5038966246355877e-04 -1.1610730342376521e-01 0.0000000000000000e+00  -1.4884555877854224e-02 5.0740998655317504e-02 0.0000000000000000e+00  -7.4059938943881365e-04 -1.0658603728384891e-01 0.0000000000000000e+00  -1.1005260428713502e-03 -9.6629172226684809e-02 0.0000000000000000e+00  -1.3454027791376375e-03 -8.6585957518675996e-02 0.0000000000000000e+00  -1.3284995540427573e-03 -6.9388496867901467e-02 0.0000000000000000e+00  -1.3663369476301650e-03 -5.8544714759890856e-02 0.0000000000000000e+00  -1.3593164104330278e-03 -4.5490910698256566e-02 0.0000000000000000e+00  -1.3010361530597513e-03 -3.2550824993679242e-02 0.0000000000000000e+00  -1.1415330184878132e-03 -1.8895941854040088e-02 0.0000000000000000e+00  -1.0442541218240022e-03 -7.3132989890797211e-03 0.0000000000000000e+00  -9.5032249382494282e-04 5.4481863569166636e-03 0.0000000000000000e+00  -8.5445031144372517e-04 1.8533290742481449e-02 0.0000000000000000e+00  -7.5881293675015638e-04 3.1720112791104461e-02 0.0000000000000000e+00  -6.2865544322224893e-04 4.5998662048350375e-02 0.0000000000000000e+00  -2.5593014859351272e-05 5.9176264297903805e-02 0.0000000000000000e+00  1.5086573026052244e-02 4.6466258889836576e-02 0.0000000000000000e+00  3.5004097782819501e-03 1.9787564265095300e-01 0.0000000000000000e+00  -1.3315395965440586e-04 8.2779348276259143e-02 0.0000000000000000e+00  -7.0837491362878092e-04 3.9177953956292394e-02 0.0000000000000000e+00  -9.0239038825197396e-04 1.1941759487616620e-02 0.0000000000000000e+00  -1.0909450558838837e-03 -1.3917794847007361e-02 0.0000000000000000e+00  -1.3377094631538190e-03 -3.9084189754500412e-02 0.0000000000000000e+00  -1.3497757332167914e-03 -6.5590555157721261e-02 0.0000000000000000e+00  -1.2414055701331309e-03 -9.0710059925836944e-02 0.0000000000000000e+00  -5.2937290903205412e-04 -1.1036897217847814e-01 0.0000000000000000e+00  3.6113007964217223e-04 -1.1813403109947224e-01 0.0000000000000000e+00  1.0547498229609960e-03 -1.0898900972464372e-01 0.0000000000000000e+00  1.3459321988345577e-03 -8.6465447028604023e-02 0.0000000000000000e+00  1.3720055597433918e-03 -5.6786834385032944e-02 0.0000000000000000e+00  1.1783541202319081e-03 -2.5825114669031448e-02 0.0000000000000000e+00  9.7806585885595139e-04 5.2052068646247212e-03 0.0000000000000000e+00  7.3173030243923901e-04 3.5452908944999958e-02 0.0000000000000000e+00  5.5452893276133378e-05 8.0895104124897865e-02 0.0000000000000000e+00  -6.0355057190626215e-04 5.5161224429907160e-02 0.0000000000000000e+00  -8.0402687862059078e-04 2.4899194589989879e-02 0.0000000000000000e+00  -9.9769550462992644e-04 -1.0042796657591369e-03 0.0000000000000000e+00  -1.2419673419495349e-03 -2.4824601485594427e-02 0.0000000000000000e+00  -1.3695119847436309e-03 -5.2115196975657849e-02 0.0000000000000000e+00  -1.3709675168820966e-03 -7.7799468613193201e-02 0.0000000000000000e+00  -9.3233493994640537e-04 -1.0176183666025840e-01 0.0000000000000000e+00  -5.9099709957634448e-05 -1.1623683427967131e-01 0.0000000000000000e+00  7.4706178480857125e-04 -1.1552478966924606e-01 0.0000000000000000e+00  1.2506039799989965e-03 -9.8810069203827733e-02 0.0000000000000000e+00  1.3887079502085391e-03 -7.2039849118992416e-02 0.0000000000000000e+00  1.3071686983647159e-03 -3.9952853024667688e-02 0.0000000000000000e+00  1.0807184731232052e-03 -1.0096489676502795e-02 0.0000000000000000e+00  8.8427359080903948e-04 2.2042664190704171e-02 0.0000000000000000e+00  6.1639118634421218e-04 5.2917594753802796e-02 0.0000000000000000e+00  -1.0961761602021010e-02 6.5166672080996940e-04 0.0000000000000000e+00  -4.5651870909855629e-03 2.2171422603975172e-01 0.0000000000000000e+00  -1.6649247459351722e-02 1.7619706010600492e-02 0.0000000000000000e+00  1.0340005256193442e-01 -2.3573467264493010e-04 0.0000000000000000e+00  -2.6083268706906765e-02 9.9791121410835154e-02 0.0000000000000000e+00  -4.6074956330903256e-02 5.2568292158066847e-02 0.0000000000000000e+00  -6.0292736744472851e-02 3.7141476215195000e-02 0.0000000000000000e+00  -5.4703582519778381e-02 8.1020251635596768e-03 0.0000000000000000e+00  -2.1169283609526877e-02 1.6043220855305224e-01 0.0000000000000000e+00  2.8081180735791623e-02 -5.9974574330622289e-02 0.0000000000000000e+00  -1.2399071959510735e-01 1.9820582209286541e-01 0.0000000000000000e+00  2.3758356133708077e-02 4.6602187040655574e-03 0.0000000000000000e+00  -1.1716451135515293e-01 8.5607518874963817e-02 0.0000000000000000e+00  5.0082853890234834e-02 -1.1742519980449874e-02 0.0000000000000000e+00  -1.5820369624094463e-01 2.0637486720552264e-02 0.0000000000000000e+00  -2.2296393546865946e-02 8.0673707284692944e-03 0.0000000000000000e+00  -8.5213600912984161e-02 -1.3107394172283721e-03 0.0000000000000000e+00  -8.1625613821927234e-02 2.4445053232337614e-03 0.0000000000000000e+00  -5.3551407921142241e-02 -8.5334786319463948e-05 0.0000000000000000e+00  -4.2931668035845777e-02 -2.3418596620323055e-04 0.0000000000000000e+00  -3.6359452800988408e-02 -1.7742211021643686e-04 0.0000000000000000e+00  -3.0571403231242446e-02 -9.1707175195163981e-05 0.0000000000000000e+00  -2.8959086791095937e-02 -2.9797579045029762e-05 0.0000000000000000e+00  -2.8977863891390659e-02 2.8195303748119705e-05 0.0000000000000000e+00  -3.0730359361357356e-02 9.0489266646845209e-05 0.0000000000000000e+00  -3.6368322361194909e-02 1.8372378751624043e-04 0.0000000000000000e+00  -4.3055656952094290e-02 2.4900033365292607e-04 0.0000000000000000e+00  -5.3990648152773879e-02 1.4303066026776653e-04 0.0000000000000000e+00  -2.3631794865531863e-02 -1.0393081167431970e-03 0.0000000000000000e+00  -5.4950891378284045e-02 -6.6079652924056008e-04 0.0000000000000000e+00  -3.8947720592890873e-02 -2.1577497659957105e-04 0.0000000000000000e+00  -2.9882651515505843e-02 -5.9161493186444888e-05 0.0000000000000000e+00  -2.9889653737367908e-02 5.7658685760318413e-05 0.0000000000000000e+00  -3.9027125429144237e-02 2.2516631591000424e-04 0.0000000000000000e+00  -5.3533563667721218e-02 6.5754156120377278e-04 0.0000000000000000e+00  -4.6964651224620742e-02 -3.1238038275011509e-04 0.0000000000000000e+00  -3.3033667698339889e-02 -1.4569487433282560e-04 0.0000000000000000e+00  -2.8732327589979130e-02 -8.1495595795793829e-07 0.0000000000000000e+00  -3.3111366579330344e-02 1.4565720422782046e-04 0.0000000000000000e+00  -4.6862247808544318e-02 3.2619951433029200e-04 0.0000000000000000e+00  8.0967475430048133e-02 -3.5155778366904151e-03 0.0000000000000000e+00  -1.2083904026182273e-02 -1.4171763726604910e-02 0.0000000000000000e+00  -3.9249759420011939e-03 -2.1410298559035523e-01 0.0000000000000000e+00  -5.6826247437829609e-02 -9.0095692981667138e-03 0.0000000000000000e+00  -5.9686424944605188e-02 -3.7272502784769880e-02 0.0000000000000000e+00  -4.5317857196869517e-02 -5.2209884728679518e-02 0.0000000000000000e+00  -2.5371189588919176e-02 -9.7913974711188664e-02 0.0000000000000000e+00  -3.0361223191799621e-02 -9.4709184399251068e-03 0.0000000000000000e+00  -1.4619405883350126e-01 -1.7993205409272572e-02 0.0000000000000000e+00  3.6699192763996531e-02 3.7216415310235883e-03 0.0000000000000000e+00  -1.0928330363016625e-01 -7.9121628607711630e-02 0.0000000000000000e+00  1.8938718901104868e-02 -1.1039607699592039e-02 0.0000000000000000e+00  -1.1723495910071445e-01 -1.8766398209630156e-01 0.0000000000000000e+00  2.4852390812387461e-02 4.7512463934807084e-02 0.0000000000000000e+00  -1.9442231533718678e-02 -1.5371704577204939e-01 0.0000000000000000e+00  2.6554482721647231e-05 5.5092264225490168e-05 0.0000000000000000e+00  -9.5855820432562405e-06 -5.3904911560124114e-05 0.0000000000000000e+00  2.4309255448310522e-05 -2.1378470316871099e-06 0.0000000000000000e+00  1.6469791035990747e-05 -9.0724811849815721e-05 0.0000000000000000e+00  -1.2912986627156128e-05 8.6580566172210312e-05 0.0000000000000000e+00  -6.3359238413454100e-06 6.9322822187808638e-06 0.0000000000000000e+00  -1.0504520493186359e-05 -1.4947730790103790e-05 0.0000000000000000e+00  1.2755315532632285e-05 1.6874945841344308e-05 0.0000000000000000e+00  9.2508137348606029e-06 -1.3561514132368489e-05 0.0000000000000000e+00  -1.0762237466100579e-05 1.4940155477279478e-05 0.0000000000000000e+00  -2.6564008332367509e-05 8.5346288762244319e-05 0.0000000000000000e+00  -8.5690827872925366e-06 4.1016581888725736e-05 0.0000000000000000e+00  -6.0443316062328413e-06 3.9873307406070721e-05 0.0000000000000000e+00  1.1155543522915474e-07 1.9867623908171618e-06 0.0000000000000000e+00  1.9777567397394325e-07 7.2963132070681024e-06 0.0000000000000000e+00  2.0940128101333902e-08 4.2912261731650660e-07 0.0000000000000000e+00  -6.6712967757521303e-06 2.0205199904030368e-05 0.0000000000000000e+00  5.8879817979621499e-06 3.6389606020078311e-05 0.0000000000000000e+00  1.2639573823321220e-04 -3.6078803768460469e-05 0.0000000000000000e+00  1.5599115879550720e-04 2.9613713847676123e-05 0.0000000000000000e+00  7.7580353333208746e-05 8.1135202161473300e-05 0.0000000000000000e+00  -6.9757493905702080e-06 -6.7551525982276184e-06 0.0000000000000000e+00  -2.6757684551645161e-06 1.6689933909625458e-05 0.0000000000000000e+00  2.6165312761968916e-05 -8.5336015049821250e-05 0.0000000000000000e+00  6.9696660838006175e-06 -3.6465356981639870e-05 0.0000000000000000e+00  5.7941239185580785e-08 3.4157445019940513e-06 0.0000000000000000e+00  1.2101505713947184e-05 4.8351801651322200e-05 0.0000000000000000e+00  -2.3937092436992005e-05 -8.7463443559150482e-05 0.0000000000000000e+00  3.3828795262901690e-05 8.8956105212058582e-06 0.0000000000000000e+00  2.7775138406231447e-05 8.5479678423676137e-05 0.0000000000000000e+00  1.7503503920700779e-05 8.3800766051804622e-05 0.0000000000000000e+00  -1.4312796292659504e-05 5.7538608880316775e-05 0.0000000000000000e+00  -3.7911396543447205e-06 -3.5641191913920797e-05 0.0000000000000000e+00  -4.0522003562350965e-06 -7.3300872790325248e-06 0.0000000000000000e+00  3.5003650350620244e-05 -6.6178750443737075e-05 0.0000000000000000e+00  -7.2522464040287635e-06 -3.9881313398105569e-05 0.0000000000000000e+00  4.7468955604431577e-06 -3.7175175988960922e-05 0.0000000000000000e+00  1.1730266092530603e-06 1.2881852186674974e-05 0.0000000000000000e+00  -9.9070915908994683e-06 -8.3368030062013892e-05 0.0000000000000000e+00  2.5579630002626016e-05 3.8391916176164752e-05 0.0000000000000000e+00  -1.4331751878