<?xml version="1.0"?>
<VTKFile type="UnstructuredGrid"  version="0.1"  >
<UnstructuredGrid>
<Piece  NumberOfPoints="4153" NumberOfCells="8064">
<Points>
<DataArray  type="Float64"  NumberOfComponents="3"  format="ascii">-0.4239047651919077 -0.6109530605484605 0  -0.05204200783384334 -0.7552446029438185 0  -0.1030743137080657 -0.7502420294178269 0  -0.1532599422154592 -0.7406601766154527 0  -0.2022822926267493 -0.7271208912681552 0  -0.2502705489704299 -0.7109445949316926 0  -0.2966610425122901 -0.6899189356078539 0  -0.3410574591651435 -0.6656957300084583 0  -0.3834544680295345 -0.6392445601527964 0  -0.0006574412466812717 -0.7552912651950581 0  -0.462646268290035 -0.5830125747814274 0  -0.5002684669212232 -0.5553102351246377 0  -0.536853399214394 -0.5281261880071599 0  -0.5725574800093175 -0.501852097806474 0  -0.60773292875708 -0.4770032690816416 0  -0.6424892988155613 -0.4537482618779431 0  -0.6769937893759408 -0.4329786975963663 0  0.6514873811007157 -0.4426890625182654 0  0.0505345997134669 -0.7504191455717122 0  0.1010143563748887 -0.7408117387111337 0  0.1503294045986162 -0.726889956434426 0  0.1981275639862374 -0.7091880319729489 0  0.2442507238084773 -0.6886666820141399 0  0.2886932515645302 -0.6659755639396439 0  0.331509965109324 -0.6417431848415359 0  0.3727826423734451 -0.6165420558642071 0  0.412740442974422 -0.5909961155688721 0  0.4515605159759005 -0.5655064334988593 0  0.4894222953835714 -0.5404104654581434 0  0.5264628272909287 -0.5160754025285208 0  0.5628624165885333 -0.4926901447422911 0  0.5987357276359507 -0.4707275328824556 0  0.6342905450119045 -0.450989332356324 0  0.616374309262489 -0.4608342031852565 0  -0.6595335385602537 -0.4432488594489731 0  -0.5902023245095712 -0.4893200953922353 0  -0.5186686751486546 -0.5416357147522717 0  -0.4433849158325727 -0.5969160591794608 0  -0.3625052881990155 -0.6526040463162711 0  -0.2737083808614111 -0.7009028726122356 0  -0.1779280798542432 -0.7344099192967899 0  -0.07763613201116447 -0.7533456492485894 0  0.5808312484366904 -0.4816576582446392 0  0.1258415324948313 -0.7343516366170355 0  0.2213996927714051 -0.6992404285319613 0  0.3102938427945119 -0.6540220730643426 0  0.3929179337548359 -0.6037911606212036 0  0.470595796998396 -0.5529062048561618 0  0.5447495990700464 -0.5042951202906996 0  0.02499604108025226 -0.7534650954675136 0  -0.6937039525895805 -0.4241329975008878 0  0.5080217060262656 -0.5281203664050982 0  0.4322802289563986 -0.5782293280785578 0  0.3523262221553863 -0.6292074542265549 0  0.2666804863797616 -0.6775590134890278 0  0.1744417444563065 -0.7184647565893566 0  0.07589411152795432 -0.7461857485314753 0  -0.02635772627405516 -0.7558949602197083 0  -0.1282983557450094 -0.7459993318357775 0  -0.2263219953859573 -0.7194554354159759 0  -0.3190974132924457 -0.6780923951878646 0  -0.4040599821756062 -0.6253983082670472 0  -0.481600490258862 -0.569131299996729 0  -0.5548061016102817 -0.5148350978669056 0  -0.6251153459170837 -0.4653142908004934 0  0.7910335656737182 -0.254290098167925 0  0.7063677259873974 -0.4154158345586502 0  0.7531616605638259 -0.3729552977947374 0  0.7830310268502076 -0.3176570111853264 0  0.679377034043161 -0.4295525092010166 0  0.7307637675973223 -0.3954179692534334 0  0.7665434118433565 -0.3440906441156937 0  0.7860624500068257 -0.2855744449552072 0  0.6655948173498031 -0.4369647360524108 0  0.6928114394338188 -0.4218741751363824 0  0.7186610624881469 -0.4055890868549089 0  0.7415903213287499 -0.3833815848318327 0  0.7615484810646795 -0.3594228974803552 0  0.7740660801384261 -0.3306927119000688 0  0.7838078034366297 -0.3013971088859606 0  0.7879620932157303 -0.2698065595453688 0  0.7903678740855495 -0.2338522662069461 0  0.7948621591042798 0.2195862678831072 0  0.7947158069110808 0.1790601129268147 0  0.7958787589969969 0.1382997092205377 0  0.7975598763816744 0.09718982677885894 0  0.7994472772363649 0.05564006185524011 0  0.8001022519230767 0.01373928902259708 0  0.7996082694059226 -0.02824118582389622 0  0.7979707488846901 -0.07011318018889388 0  0.7952020511117254 -0.1115992812759747 0  0.7927070896273115 -0.1526557077210937 0  0.790796738539415 -0.1933606746053909 0  0.7961520743578636 0.2399689784951774 0  0.7945735805863609 0.1993400562554231 0  0.796688544784938 0.1177925043033946 0  0.799918006878889 0.03471253478329008 0  0.7989359942566573 -0.04920318343720917 0  0.7939233646565859 -0.1321779887307396 0  0.7903521326143262 -0.2136231910238223 0  0.7952055629913949 0.1587189926789347 0  0.7985727774339121 0.0764899285188296 0  0.7999943820934317 -0.00725261464699786 0  0.7966289902404765 -0.09093104042808099 0  0.7916564003188786 -0.1730478366059942 0  0.662567460422973 0.4305001694382153 0  0.7899198370654515 0.3036029504514486 0  0.761709169679163 0.359756270923499 0  0.7163289531672288 0.4029941322422836 0  0.7922787973363449 0.2714111471456462 0  0.7747204807600698 0.3307568890855889 0  0.7399699371622459 0.3823958135057587 0  0.6897837584264679 0.4171301075165106 0  0.79381831096225 0.2556053909921328 0  0.7905508480064187 0.287317655635127 0  0.7817598941441347 0.3170101811316133 0  0.7694485987062301 0.3458540576742047 0  0.7504424889227064 0.3702730875854767 0  0.7282233042105445 0.3928100076176703 0  0.7029808709343577 0.4095164659374725 0  0.6762916108969599 0.4245188449210009 0  -0.036698238983231 0.7760605998468491 0  0.6114977289023529 0.4600607146651387 0  0.5768378008425339 0.483354854834302 0  0.5417153558965009 0.5082829367952922 0  0.5059835923309467 0.5345956685897555 0  0.4693387047903665 0.5618272594907612 0  0.431607387399683 0.5896089629198265 0  0.3925918300121535 0.6175828957274224 0  0.3520475294552301 0.6454077652401673 0  0.3096795533791963 0.6722458297887191 0  0.2653982111422125 0.6975179648132167 0  0.2191294509044363 0.7205385748357045 0  0.1708629555867556 0.7406929089901121 0  0.1207315628933685 0.7567854374118181 0  0.06911128564210868 0.7682758548080166 0  0.01647311779496947 0.7746694841557166 0  0.645923360950213 0.4392432458173652 0  -0.08971821181846365 0.7711956671823714 0  -0.1418020352020732 0.7607945942359263 0  -0.1923553496017281 0.745448789670705 0  -0.2407339049221709 0.7251242631112256 0  -0.2870106136715437 0.7028343044484735 0  -0.3313159933028576 0.6785065763699795 0  -0.3737517672071665 0.6527235852993201 0  -0.414402222172746 0.6258710387995344 0  -0.4536054961571492 0.5990930436144127 0  -0.4916680435562034 0.5725641868385285 0  -0.5287625345225555 0.5465563593935275 0  -0.565055608926099 0.5213555919460644 0  -0.6006893454922663 0.497220590466627 0  -0.6358500174153554 0.4746456067334283 0  -0.6707607424587916 0.4544519624638779 0  -0.6876371509497973 0.4459590860832904 0  -0.6531337739518475 0.4644951941697021 0  -0.5829501983279823 0.5091834977176196 0  -0.5103258623882643 0.5594832217705725 0  -0.4341483428296206 0.6124590809582048 0  -0.3527561055446691 0.665739356774361 0  -0.264116249556696 0.7142765130064664 0  -0.1672955467281805 0.7535954677622001 0  -0.06327692888510021 0.7743232699563705 0  0.04289184059043975 0.7721566721511999 0  0.1460091280776663 0.7492593721724594 0  0.2425126062596198 0.7093555843342619 0  0.3310912300610575 0.658980179441267 0  0.41227052473632 0.6035946538874064 0  0.4877804697550245 0.5481238096592079 0  0.5593438429507427 0.49569838695999 0  0.6285365361416068 0.4495801176720268 0  -0.6182907078291059 0.4858722258151451 0  -0.5469979847572781 0.5338506441288478 0  -0.4727692024526324 0.5857821075198592 0  -0.3943206416110563 0.6393903064608002 0  -0.3094025061546501 0.6908815928508327 0  -0.2169437427404721 0.7358884845194915 0  -0.1159153147808982 0.7666354739978802 0  -0.01004048236665664 0.7760730442529495 0  0.09508116080734033 0.7631401084000692 0  0.1952640271626434 0.7310773774211694 0  0.2877847426458909 0.6851221490054098 0  0.3725450056970569 0.6315635396763424 0  0.4506207277482978 0.575674657635415 0  0.5239546642890816 0.5212946058185587 0  0.5941900772482542 0.471629995631318 0  -0.8247718292933333 0.2576058293030429 0  -0.7419879469422304 0.4189716763132197 0  -0.7881861053725999 0.3763899976292404 0  -0.8174045972978999 0.3209034684541708 0  -0.7151804504689926 0.4329152845811781 0  -0.766061649921936 0.398827068873882 0  -0.8014506298001882 0.3475713237023408 0  -0.8202092201505498 0.2888662099726186 0  -0.7015324565420672 0.4401978633003281 0  -0.7285132973938613 0.4253711759890563 0  -0.7541030094568858 0.4090393471300461 0  -0.7767367198495017 0.3868001881285512 0  -0.7963026338371768 0.3627422787103615 0  -0.8087795070772645 0.3340640334704873 0  -0.8181559064281708 0.3046806293700871 0  -0.8219892090285711 0.2731316286257013 0  -0.8238625422342428 0.2372541358640271 0  -0.8270136949109556 -0.2143245011387071 0  -0.8267094010065354 -0.173934651003365 0  -0.8278426638051218 -0.1333483826715831 0  -0.8295611013663609 -0.09243110174441475 0  -0.8315639065345971 -0.05109011431141584 0  -0.8323989949589091 -0.009387537364258666 0  -0.832113508197844 0.03240190071145385 0  -0.8307113439009834 0.07409519930674474 0  -0.8281544501992121 0.1154224898763924 0  -0.8258668097722482 0.1563251511743359 0  -0.8241521422238566 0.1968923969003689 0  -0.828238929964479 -0.2346953567144503 0  -0.8266301111697562 -0.1941418060717208 0  -0.8286675539224685 -0.1129368688428518 0  -0.8321233150994491 -0.03026204796295404 0  -0.8315533928818623 0.05327284117807243 0  -0.8269774918923178 0.1359213984501586 0  -0.8237775888362476 0.2170878753370415 0  -0.8271783454796163 -0.1536777490677771 0  -0.8306141814798059 -0.07183551475612548 0  -0.8323918441861048 0.01150777934386642 0  -0.8294842416715046 0.09483330780090041 0  -0.8249129958913636 0.1766459338254397 0  -0.8217024617736819 -0.2981523116204747 0  -0.7931107054224253 -0.3538924476654913 0  -0.7475168803132471 -0.3968587512674368 0  -0.8241568128400257 -0.266031922288783 0  -0.806157027033183 -0.3249961980240483 0  -0.7713215688945901 -0.3765511983502168 0  -0.7209440219216142 -0.4109949415277865 0  -0.8257142951591739 -0.2502590699845145 0  -0.822315522
[...]
<PointData  Vectors="f_13246"> 
<DataArray  type="Float64"  Name="f_13246"  NumberOfComponents="3" format="ascii">7.2646910843283674e-03 1.0046110663699035e-02 0.0000000000000000e+00  1.5414718876650389e-03 3.0937367857192293e-02 0.0000000000000000e+00  4.7529905229949368e-03 3.2736366607374487e-02 0.0000000000000000e+00  7.9972907016606920e-03 3.4194375770506338e-02 0.0000000000000000e+00  9.4687595581358190e-03 3.0584395887566406e-02 0.0000000000000000e+00  1.3800353370578645e-02 3.4989950998211242e-02 0.0000000000000000e+00  2.0975130399067430e-02 4.1782482332654573e-02 0.0000000000000000e+00  2.2436474696556262e-02 3.8277562723634494e-02 0.0000000000000000e+00  1.9112004693201450e-02 2.9120240296142186e-02 0.0000000000000000e+00  -1.4440220072672383e-03 3.0527108732270037e-02 0.0000000000000000e+00  1.1201195893356983e-02 1.5406688445061850e-02 0.0000000000000000e+00  8.5830157441556063e-03 1.1571608911607498e-02 0.0000000000000000e+00  6.8299303254645604e-03 9.2111435712117443e-03 0.0000000000000000e+00  8.4580665501277248e-03 1.1770395434648095e-02 0.0000000000000000e+00  8.0976236448745947e-03 1.1870519932507496e-02 0.0000000000000000e+00  7.1370245873668449e-03 1.1379675810204753e-02 0.0000000000000000e+00  2.6338512221348353e-03 4.6992757604055789e-03 0.0000000000000000e+00  -3.7531291185329864e-02 8.2661222769428111e-02 0.0000000000000000e+00  -4.4877749426004169e-03 3.1359901619753931e-02 0.0000000000000000e+00  -7.8324934063591558e-03 3.3049382276639380e-02 0.0000000000000000e+00  -1.1291275833668563e-02 3.4547512592146536e-02 0.0000000000000000e+00  -1.3938526351239522e-02 3.4066150453258261e-02 0.0000000000000000e+00  -1.5246010328945675e-02 3.1847131640641811e-02 0.0000000000000000e+00  -1.5148573949582286e-02 2.8077060914779694e-02 0.0000000000000000e+00  -1.4141465107151422e-02 2.3968764075979788e-02 0.0000000000000000e+00  -1.1932011677284167e-02 1.9059966218632231e-02 0.0000000000000000e+00  -9.7607703519683661e-03 1.5029737125836960e-02 0.0000000000000000e+00  -7.6821309925260584e-03 1.1622914237145683e-02 0.0000000000000000e+00  -5.3865595826555835e-03 8.1348415916714135e-03 0.0000000000000000e+00  -5.4677694809684404e-03 8.4406713760286044e-03 0.0000000000000000e+00  -6.3264649983417699e-03 1.0187080445906244e-02 0.0000000000000000e+00  -7.1833113503261799e-03 1.2619518847271473e-02 0.0000000000000000e+00  1.8789430662476592e-03 -3.2619503931188955e-03 0.0000000000000000e+00  6.3399127136325173e-04 -1.5086201901121608e-03 0.0000000000000000e+00  6.4899945024431017e-03 1.0679044144257922e-02 0.0000000000000000e+00  4.5588319556522112e-03 6.3992237164568200e-03 0.0000000000000000e+00  7.8453313240920350e-03 1.0559082095938371e-02 0.0000000000000000e+00  1.3565689659638940e-02 1.8805587500545656e-02 0.0000000000000000e+00  1.9164499629389826e-02 3.0729260416507032e-02 0.0000000000000000e+00  1.8293159580548252e-02 4.0464132876861666e-02 0.0000000000000000e+00  9.6944614831228400e-03 3.5222655301102010e-02 0.0000000000000000e+00  3.1201975922898052e-03 3.1818825881538171e-02 0.0000000000000000e+00  6.2879603678720375e-04 -1.2169797996023335e-03 0.0000000000000000e+00  -9.5436649651381208e-03 3.3787483528953562e-02 0.0000000000000000e+00  -1.4895442882588796e-02 3.3486568572754359e-02 0.0000000000000000e+00  -1.4657544646176010e-02 2.5901927049183187e-02 0.0000000000000000e+00  -1.0916789920214113e-02 1.7079396906447927e-02 0.0000000000000000e+00  -6.6763001429692723e-03 1.0073049191657460e-02 0.0000000000000000e+00  -1.6359125551291243e-03 2.5021816173420594e-03 0.0000000000000000e+00  -2.9281678298985073e-03 3.0736541820403251e-02 0.0000000000000000e+00  3.9452385233580925e-02 8.1504167056640694e-02 0.0000000000000000e+00  -5.1794970479329032e-03 7.8809842187016303e-03 0.0000000000000000e+00  -8.6884496685098352e-03 1.3234658828433750e-02 0.0000000000000000e+00  -1.3031192432661803e-02 2.1343360967900651e-02 0.0000000000000000e+00  -1.5425045100390297e-02 3.0223853746881364e-02 0.0000000000000000e+00  -1.3267016507590029e-02 3.5833261635154434e-02 0.0000000000000000e+00  -6.1111922768664860e-03 3.2088387797300583e-02 0.0000000000000000e+00  2.8149589235649078e-05 3.0441661503923828e-02 0.0000000000000000e+00  6.5764813148851574e-03 3.4468634950937369e-02 0.0000000000000000e+00  7.2683425867744057e-03 2.1559810536264157e-02 0.0000000000000000e+00  1.9808746608737514e-02 3.6310713082526758e-02 0.0000000000000000e+00  2.9236315578606530e-02 4.1950932484434378e-02 0.0000000000000000e+00  9.7484487875054201e-03 1.3240309802484510e-02 0.0000000000000000e+00  5.8734326899149885e-03 7.9711214244189109e-03 0.0000000000000000e+00  1.4574408515110797e-03 2.0446731796201364e-03 0.0000000000000000e+00  3.9399126090364819e-02 -2.3177279527538770e-03 0.0000000000000000e+00  6.7379603297199539e-02 -1.0078774654965050e-01 0.0000000000000000e+00  6.4402556994718585e-02 -5.1537481757072443e-02 0.0000000000000000e+00  -1.4393969843626242e-01 5.1953416647634802e-02 0.0000000000000000e+00  2.8431095760879582e-02 -5.2913780133733171e-02 0.0000000000000000e+00  1.9640403277404541e-02 -1.8772340367986928e-02 0.0000000000000000e+00  1.8143290808084553e-01 -7.8269396866563076e-02 0.0000000000000000e+00  2.6751406918040194e-02 -3.5443050161922053e-03 0.0000000000000000e+00  4.4912825694096360e-02 -9.3952053440163205e-02 0.0000000000000000e+00  -5.7739443111312384e-02 1.0569225676958245e-01 0.0000000000000000e+00  3.6313233059541421e-02 -4.9055132698561980e-02 0.0000000000000000e+00  -1.8880165019321868e-02 1.4782472633949679e-02 0.0000000000000000e+00  -1.6058532174627707e-01 7.8753643296610568e-02 0.0000000000000000e+00  -2.0618827857749070e-01 1.1597145669061951e-01 0.0000000000000000e+00  1.8714086113185077e-01 -1.9323728474154103e-02 0.0000000000000000e+00  1.1986627159618422e-02 -2.3785866453861961e-03 0.0000000000000000e+00  7.4552701722273129e-02 5.3503612745319504e-04 0.0000000000000000e+00  5.1334641475816442e-02 -1.7621240280885097e-03 0.0000000000000000e+00  1.9169319884369124e-02 2.9519304416839189e-04 0.0000000000000000e+00  1.1785146475420895e-02 4.2585956906939995e-04 0.0000000000000000e+00  9.4560815217493918e-03 4.2989583362031206e-04 0.0000000000000000e+00  1.0012566729265489e-02 3.2512614130518480e-04 0.0000000000000000e+00  1.0182463047005067e-02 1.9185277567145714e-05 0.0000000000000000e+00  1.0137066058533617e-02 -2.5583964385340229e-04 0.0000000000000000e+00  9.6468951393867824e-03 -5.3295291697748911e-04 0.0000000000000000e+00  9.3464815015087358e-03 -6.1106258781350056e-04 0.0000000000000000e+00  1.2324042213088766e-02 -6.8108827109824915e-04 0.0000000000000000e+00  2.3599000440021847e-02 -7.4944629160408329e-04 0.0000000000000000e+00  2.9156060183590380e-02 1.0037847723661536e-03 0.0000000000000000e+00  2.2640202016755286e-02 -1.0102298563969711e-04 0.0000000000000000e+00  9.8986806709528575e-03 4.0478902395534250e-04 0.0000000000000000e+00  1.0402634489650743e-02 1.6089549155896802e-04 0.0000000000000000e+00  1.0418298602458388e-02 -4.0730697168471459e-04 0.0000000000000000e+00  1.0026930470350899e-02 -6.1013293041350892e-04 0.0000000000000000e+00  2.3551126424495764e-02 -2.5780641021086567e-04 0.0000000000000000e+00  1.4150164152108216e-02 4.0011320830188405e-04 0.0000000000000000e+00  9.7439539682684703e-03 4.3963591852517846e-04 0.0000000000000000e+00  1.0133425335479696e-02 -1.1943392509440778e-04 0.0000000000000000e+00  8.6689045680082080e-03 -5.7778164847592820e-04 0.0000000000000000e+00  1.4512678323872564e-02 -6.7707486540584687e-04 0.0000000000000000e+00  -3.6631229349491277e-02 -7.5019286259214849e-02 0.0000000000000000e+00  -4.3965720156885373e-02 -1.4853981926406959e-02 0.0000000000000000e+00  6.0408934539310552e-02 4.2573572836993236e-02 0.0000000000000000e+00  6.1656056435367271e-02 8.7900554512309090e-02 0.0000000000000000e+00  3.4912616818788267e-02 3.5936990178893759e-03 0.0000000000000000e+00  8.9975287136269261e-02 3.7959170192777440e-02 0.0000000000000000e+00  2.3724154410246254e-02 2.2433009202791069e-02 0.0000000000000000e+00  2.7539576500909213e-02 5.0118289530479809e-02 0.0000000000000000e+00  2.7870287005104827e-02 3.6165873056185605e-03 0.0000000000000000e+00  1.1428639744426840e-01 9.1244941267560539e-03 0.0000000000000000e+00  -7.3720882914887959e-02 -3.6211444451426794e-02 0.0000000000000000e+00  -6.1114132732870710e-02 -2.9247574714138715e-02 0.0000000000000000e+00  -1.4098579873922466e-02 -1.0645439455153888e-02 0.0000000000000000e+00  3.7472872987295860e-02 4.6643254241092856e-02 0.0000000000000000e+00  -4.6641806218537904e-02 -8.3083386710245580e-02 0.0000000000000000e+00  3.7167097260397061e-02 7.4978927518651706e-02 0.0000000000000000e+00  8.0592601018871076e-04 -2.3584126080376678e-02 0.0000000000000000e+00  -8.9679190027174577e-03 -1.4268652795445305e-02 0.0000000000000000e+00  -7.9290820175976287e-03 -1.1571249205806513e-02 0.0000000000000000e+00  -7.5538495795066923e-03 -1.0472589970895773e-02 0.0000000000000000e+00  -6.8995983751945818e-03 -9.3047991788391456e-03 0.0000000000000000e+00  -8.5975715260129832e-03 -1.1596623573910328e-02 0.0000000000000000e+00  -1.0845393062009189e-02 -1.4898167354205119e-02 0.0000000000000000e+00  -1.2922995621105424e-02 -1.8360535856541061e-02 0.0000000000000000e+00  -1.6252920448758066e-02 -2.4589194331567983e-02 0.0000000000000000e+00  -1.7086608874760750e-02 -2.8318106709769891e-02 0.0000000000000000e+00  -1.6857552838176054e-02 -3.1502482013515909e-02 0.0000000000000000e+00  -1.4892540111634654e-02 -3.2420563348329774e-02 0.0000000000000000e+00  -1.2165741754233355e-02 -3.2947502771237182e-02 0.0000000000000000e+00  -8.1817744333807368e-03 -3.0010012633197983e-02 0.0000000000000000e+00  -4.6604329005588852e-03 -2.6974549183603060e-02 0.0000000000000000e+00  -1.8668977505057591e-03 -2.5311923403554003e-02 0.0000000000000000e+00  -2.9026805468128280e-03 -5.4570824616405325e-03 0.0000000000000000e+00  4.3774131027158871e-03 -2.9867140390617317e-02 0.0000000000000000e+00  9.7938213280122106e-03 -3.8608659052190873e-02 0.0000000000000000e+00  1.5042555078271257e-02 -4.2030055498031460e-02 0.0000000000000000e+00  1.3080236922971058e-02 -2.8713045168192869e-02 0.0000000000000000e+00  1.7835184277328827e-02 -3.4536849747815769e-02 0.0000000000000000e+00  1.7612459110218234e-02 -3.0393484279090510e-02 0.0000000000000000e+00  1.6560257440186289e-02 -2.6135470357148759e-02 0.0000000000000000e+00  1.1637899445460563e-02 -1.7214038508063689e-02 0.0000000000000000e+00  1.0481915588935829e-02 -1.5176031490244823e-02 0.0000000000000000e+00  8.2671103823610658e-03 -1.1806321894905117e-02 0.0000000000000000e+00  6.4727322656531758e-03 -9.2632924542374144e-03 0.0000000000000000e+00  5.9136659964053760e-03 -8.6377422097265819e-03 0.0000000000000000e+00  8.0703642751387746e-03 -1.2347559082505578e-02 0.0000000000000000e+00  9.1727665300429580e-03 -1.5306919867802363e-02 0.0000000000000000e+00  1.8921105097219116e-03 -3.8042578380335212e-03 0.0000000000000000e+00  4.4266589382885940e-02 -9.4925514271404485e-02 0.0000000000000000e+00  2.8395300490077291e-03 -4.6201852603317091e-03 0.0000000000000000e+00  2.7747839536007338e-03 -4.0482836045988534e-03 0.0000000000000000e+00  7.1754343996878545e-03 -1.0234353336461990e-02 0.0000000000000000e+00  1.2073056148803132e-02 -1.7675886470758843e-02 0.0000000000000000e+00  1.6361123986692611e-02 -2.6920881504804445e-02 0.0000000000000000e+00  1.6862791432976875e-02 -3.4964530730959745e-02 0.0000000000000000e+00  1.1430717339518890e-02 -3.7555303000876852e-02 0.0000000000000000e+00  2.4476418171216485e-03 -2.6686995188212093e-02 0.0000000000000000e+00  -3.1254913254422450e-03 -2.5636822401748870e-02 0.0000000000000000e+00  -1.0072533576827841e-02 -3.1351909188198142e-02 0.0000000000000000e+00  -1.6162866744986671e-02 -3.2483710275187920e-02 0.0000000000000000e+00  -1.6472355983799494e-02 -2.6005568382003980e-02 0.0000000000000000e+00  -1.2226231439023353e-02 -1.7054275958729329e-02 0.0000000000000000e+00  -7.7210448179453571e-03 -1.0390598263221773e-02 0.0000000000000000e+00  -4.3220854446705459e-03 -6.0431030094847821e-03 0.0000000000000000e+00  -3.3385635464839771e-03 -5.2832937702793322e-03 0.0000000000000000e+00  6.5572206310938205e-04 -8.3579966980393901e-04 0.0000000000000000e+00  5.3288968188827399e-03 -7.6686456641677095e-03 0.0000000000000000e+00  9.2944936904339158e-03 -1.3336224545606460e-02 0.0000000000000000e+00  1.5579801681331237e-02 -2.3612223349779211e-02 0.0000000000000000e+00  1.7359934575479928e-02 -3.1617847397987411e-02 0.0000000000000000e+00  2.7446256408629289e-02 -6.5670120039004881e-02 0.0000000000000000e+00  6.4121195583033844e-03 -3.2022505342862148e-02 0.0000000000000000e+00  -5.6632756407490965e-04 -2.1260798602070120e-02 0.0000000000000000e+00  -6.2730507634407200e-03 -2.8141195150714924e-02 0.0000000000000000e+00  -1.4710300600879937e-02 -3.5254573768674566e-02 0.0000000000000000e+00  -1.7129821570279379e-02 -3.0023220617219012e-02 0.0000000000000000e+00  -1.4954911176662825e-02 -2.1801517652613952e-02 0.0000000000000000e+00  -9.7067894257141431e-03 -1.3184383802683804e-02 0.0000000000000000e+00  -5.8617369530981267e-03 -7.9526140028338237e-03 0.0000000000000000e+00  -1.3247958240395817e-03 -1.8223946226867272e-03 0.0000000000000000e+00  -3.2302757593065223e-02 1.4325609056162719e-03 0.0000000000000000e+00  -6.6941522214180413e-02 9.8665461426862625e-02 0.0000000000000000e+00  -6.5001389613951133e-02 4.9255864823914239e-02 0.0000000000000000e+00  1.0341223756282993e-01 -3.6293469965574233e-02 0.0000000000000000e+00  -2.8057113716267897e-02 5.2517788422570537e-02 0.0000000000000000e+00  -2.0536407680642577e-02 1.9566120429586876e-02 0.0000000000000000e+00  -1.4137981702717703e-01 6.0795006773890437e-02 0.0000000000000000e+00  -2.9421315696835537e-02 3.5888436481974362e-03 0.0000000000000000e+00  -4.1889721843187913e-02 8.7419219315673605e-02 0.0000000000000000e+00  5.6770052375150433e-02 -1.0416116942662994e-01 0.0000000000000000e+00  -3.7149978778081010e-02 4.8921426355464641e-02 0.0000000000000000e+00  2.1166548576495380e-02 -1.7184238341859587e-02 0.0000000000000000e+00  1.2161975948276685e-01 -5.9195636669612195e-02 0.0000000000000000e+00  1.5412504861505635e-01 -8.2858190344509947e-02 0.0000000000000000e+00  -1.6231275407618873e-01 1.5628997988113253e-02 0.0000000000000000e+00  -1.6278769674705196e-02 2.7999059952304494e-03 0.0000000000000000e+00  -7.1918928962838635e-02 -1.1715337490816461e-03 0.0000000000000000e+00  -5.7455256942407565e-02 1.9377870268568033e-03 0.0000000000000000e+00  -2.0105069127354637e-02 -2.6779457996454803e-04 0.0000000000000000e+00  -1.1558133036045555e-02 -4.2096617335049210e-04 0.0000000000000000e+00  -8.9284795354800488e-03 -4.2121869070693382e-04 0.0000000000000000e+00  -9.4938596016265996e-03 -3.4647544824109843e-04 0.0000000000000000e+00  -9.7686829453048178e-03 -6.3272941508331218e-05 0.0000000000000000e+00  -9.7640713342161227e-03 1.9619801378821197e-04 0.0000000000000000e+00  -9.4129310770837190e-03 4.6902291938030342e-04 0.0000000000000000e+00  -8.9704654120011992e-03 5.4534269227265498e-04 0.0000000000000000e+00  -1.1792426948516253e-02 5.9574720922553901e-04 0.0000000000000000e+00  -2.1984730086469915e-02 6.0901050612446818e-04 0.0000000000000000e+00  -3.1597785261124195e-02 -1.2151842767537482e-03 0.0000000000000000e+00  -2.3161017956325500e-02 1.8511810080112516e-04 0.0000000000000000e+00  -9.5282410815170724e-03 -4.0038507019241049e-04 0.0000000000000000e+00  -1.0003622551540933e-02 -1.9901901954368328e-04 0.0000000000000000e+00  -1.0065338169935373e-02 3.3809853312437754e-04 0.0000000000000000e+00  -9.6554896351125664e-03 5.4071176658184686e-04 0.0000000000000000e+00  -2.2764636235614331e-02 1.6137089901202290e-04 0.0000000000000000e+00  -1.4009898775455519e-02 -3.8717874259912088e-04 0.0000000000000000e+00  -8.9916121141700809e-03 -4.3322128397354749e-04 0.0000000000000000e+00  -9.7469828734332246e-03 6.6684425581402693e-05 0.0000000000000000e+00  -8.5948230139225815e-03 5.3046669977053140e-04 0.0000000000000000e+00  -1.4109545051271905e-02 5.9256367197525989e-04 0.0000000000000000e+00  6.7510597685438378e-02 2.3006944789169637e-02 0.0000000000000000e+00  -6.1196479578340818e-02 -4.5328393477532640e-02 0.0000000000000000e+00  -6.3895287961186167e-02 -9.2442191349788413e-02 0.0000000000000000e+00  -3.3197905518311401e-02 -3.5708958411154101e-03 0.0000000000000000e+00  -1.1605437839259697e-01 -4.8767031794554834e-02 0.0000000000000000e+00  -2.3503991162115739e-02 -2.2217372167977201e-02 0.0000000000000000e+00  -2.4895863743251312e-02 -4.5875905123251792e-02 0.0000000000000000e+00  -2.4347663344239143e-02 -3.4196005101246479e-03 0.0000000000000000e+00  -1.2945660850502816e-01 -1.0781372494678365e-02 0.0000000000000000e+00  1.0821989153658694e-01 5.5771083813041751e-02 0.0000000000000000e+00  9.1095915973267383e-02 4.3678355221508494e-02 0.0000000000000000e+00  1.0953736456961469e-02 7.4623323795175184e-03 0.0000000000000000e+00  -3.6482612242657142e-02 -4.6724335509796440e-02 0.0000000000000000e+00  4.6411035226507621e-02 8.2942508950842181e-02 0.0000000000000000e+00  -3.8421866687961111e-02 -7.9177128349498568e-02 0.0000000000000000e+00  1.0567629749887516e-08 -1.9440097948966853e-08 0.0000000000000000e+00  -1.0000801018766150e-08 1.9782651749097149e-08 0.0000000000000000e+00  4.6121752516912177e-09 2.4309740698507140e-08 0.0000000000000000e+00  6.8688721775750128e-09 9.3747903256474071e-09 0.0000000000000000e+00  -6.8858726434379939e-09 -9.3994998975505420e-09 0.0000000000000000e+00  -4.3772526080476496e-09 -1.9474877114250631e-08 0.0000000000000000e+00  9.1865082234915789e-09 -3.5943603387799838e-10 0.0000000000000000e+00  -9.0162856271500922e-09 3.0788990615138077e-10 0.0000000000000000e+00  -8.9218105255120827e-09 -1.8113338701078700e-10 0.0000000000000000e+00  8.7999330393100029e-09 1.9015034705920435e-10 0.0000000000000000e+00  -2.4997368817402305e-09 -3.8650327006484565e-09 0.0000000000000000e+00  -5.1432087569440124e-15 -7.2285254551906905e-15 0.0000000000000000e+00  -1.2093515646396179e-14 -1.7965014479744655e-14 0.0000000000000000e+00  -5.6643708687991554e-21 -1.9532168844225596e-21 0.0000000000000000e+00  -3.1959603001738735e-20 -3.6271965413131574e-21 0.0000000000000000e+00  1.2071625567233230e-14 -1.2761211633025926e-16 0.0000000000000000e+00  -1.1620466541674977e-14 -2.8237950291791247e-14 0.0000000000000000e+00  -1.4486789952197879e-20 -2.8246101537666942e-21 0.0000000000000000e+00  -4.1844742832464230e-16 -2.3129686368930112e-14 0.0000000000000000e+00  2.3379853577261308e-20 3.1667229542828226e-21 0.0000000000000000e+00  1.1987858208979684e-14 -2.9890121910910186e-14 0.0000000000000000e+00  2.1300507977091838e-16 3.9491812375954804e-16 0.0000000000000000e+00  3.6885971116128074e-20 -1.5910855762368138e-20 0.0000000000000000e+00  2.3509746525783563e-09 3.6469033325460752e-09 0.0000000000000000e+00  5.5949199585730838e-15 7.8675579525491235e-15 0.0000000000000000e+00  -1.1942650721161842e-14 8.6459277884595130e-17 0.0000000000000000e+00  4.3387501735027354e-15 -6.4923684287255555e-15 0.0000000000000000e+00  -1.4065141981086230e-09 2.4308656031091520e-09 0.0000000000000000e+00  4.3961300724089599e-09 -2.1324828735880280e-08 0.0000000000000000e+00  2.2415021268007251e-09 -3.6698227399307284e-09 0.0000000000000000e+00  6.4793089324252597e-09 -9.3356039723800054e-09 0.0000000000000000e+00  -1.0707791767797024e-08 -1.8934321228238198e-08 0.0000000000000000e+00  -1.0977220163017115e-14 1.8290657418291869e-14 0.0000000000000000e+00  -4.4036813828430468e-09 2.3123100296393160e-08 0.0000000000000000e+00  1.1325228251191069e-08 2.0967892613269878e-08 0.0000000000000000e+00  -3.7825720866762354e-15 6.0191259217295740e-15 0.0000000000000000e+00  1.6972156133749971e-14 2.5105160110859112e-14 0.0000000000000000e+00  7.9777136889109425e-21 -2.7668458103539690e-23 0.0000000000000000e+00  -6.1576374224250631e-09 9.4250755091538992e-09 0.0000000000000000e+00  -1.7757219673882183e-08 2.8741489402076418e-08 0.0000000000000000e+00  -1.