<?xml version="1.0"?>
<VTKFile type="UnstructuredGrid"  version="0.1"  >
<UnstructuredGrid>
<Piece  NumberOfPoints="4153" NumberOfCells="8064">
<Points>
<DataArray  type="Float64"  NumberOfComponents="3"  format="ascii">-0.4239047651967306 -0.6109530606067566 0  -0.05204200783262312 -0.7552446030514517 0  -0.1030743137108343 -0.7502420295240152 0  -0.1532599422217072 -0.7406601767183081 0  -0.2022822926356152 -0.7271208913657935 0  -0.2502705489808467 -0.7109445950227166 0  -0.2966610425229549 -0.689918935691196 0  -0.3410574591749097 -0.6656957300837 0  -0.3834544680372601 -0.6392445602195381 0  -0.0006574412413361812 -0.7552912653022474 0  -0.4626462682908412 -0.5830125748309412 0  -0.5002684669170669 -0.5553102351652048 0  -0.5368533992043495 -0.5281261880386706 0  -0.5725574799926243 -0.5018520978289273 0  -0.6077329287331138 -0.4770032690951888 0  -0.6424892987839761 -0.4537482618829661 0  -0.676993789336404 -0.4329786975931902 0  0.6514873810622888 -0.4426890625020913 0  0.05053459972270638 -0.7504191456766219 0  0.1010143563874503 -0.7408117388120484 0  0.1503294046136466 -0.7268899565298329 0  0.1981275640026681 -0.709188032061534 0  0.2442507238251373 -0.6886666820948897 0  0.2886932515801915 -0.6659755640117465 0  0.3315099651227822 -0.6417431849044377 0  0.3727826423835402 -0.6165420559174987 0  0.4127404429801528 -0.5909961156124343 0  0.4515605159763773 -0.5655064335326709 0  0.4894222953780425 -0.5404104654823111 0  0.5264628272787424 -0.5160754025431693 0  0.56286241656924 -0.4926901447477244 0  0.5987357276091827 -0.4707275328789963 0  0.6342905449773907 -0.450989332344406 0  0.6163743092317572 -0.46083420317745 0  -0.6595335385246485 -0.4432488594497556 0  -0.5902023244892817 -0.4893200954102504 0  -0.5186686751416595 -0.5416357147883138 0  -0.4433849158355235 -0.5969160592334085 0  -0.3625052882079102 -0.652604046387274 0  -0.2737083808720732 -0.7009028726994493 0  -0.177928079861936 -0.7344099193973449 0  -0.077636132011979 -0.7533456493557384 0  0.5808312484136532 -0.4816576582456708 0  0.1258415325087481 -0.7343516367153651 0  0.2213996927881044 -0.6992404286167514 0  0.3102938428092112 -0.6540220731318859 0  0.3929179337628689 -0.6037911606696472 0  0.4705957969959518 -0.5529062048851355 0  0.544749599054368 -0.5042951203007929 0  0.02499604108759616 -0.7534650955737882 0  -0.6937039525461498 -0.4241329974936793 0  0.5080217060174937 -0.5281203664245123 0  0.4322802289596041 -0.5782293281172448 0  0.3523262221673114 -0.629207454284693 0  0.2666804863960757 -0.6775590135655425 0  0.1744417444721879 -0.7184647566815116 0  0.07589411153894558 -0.7461857486345895 0  -0.02635772627076544 -0.7558949603273544 0  -0.1282983557496053 -0.7459993319405505 0  -0.226321995395683 -0.7194554355103899 0  -0.3190974133027537 -0.6780923952671022 0  -0.4040599821821479 -0.6253983083298419 0  -0.4816004902573134 -0.5691313000417996 0  -0.5548061015970269 -0.5148350978939401 0  -0.6251153458892912 -0.4653142908097697 0  0.7910335656071189 -0.2542900981490515 0  0.7063677259375167 -0.4154158345337215 0  0.7531616605052422 -0.3729552977682838 0  0.7830310267856604 -0.3176570111619932 0  0.6793770339991753 -0.4295525091804267 0  0.7307637675433436 -0.3954179692278837 0  0.7665434117812034 -0.3440906440903365 0  0.7860624499408846 -0.2855744449340915 0  0.6655948173082641 -0.4369647360333541 0  0.6928114393869341 -0.4218741751133758 0  0.7186610624362798 -0.4055890868296579 0  0.7415903212725666 -0.3833815848057682 0  0.7615484810055606 -0.3594228974550206 0  0.7740660800747564 -0.3306927118756872 0  0.7838078033708248 -0.3013971088636609 0  0.7879620931493057 -0.2698065595253279 0  0.7903678740191935 -0.2338522661894896 0  0.7948621590360154 0.2195862678766048 0  0.7947158068440919 0.1790601129230291 0  0.7958787589312668 0.138299709219157 0  0.7975598763169658 0.09718982677962343 0  0.799447277172434 0.05564006185795332 0  0.8001022518595782 0.01373928902713063 0  0.7996082693425693 -0.02824118581757579 0  0.7979707488211881 -0.07011318018074156 0  0.7952020510477581 -0.1115992812658438 0  0.7927070895626604 -0.15265570770879 0  0.7907967384738697 -0.1933606745906526 0  0.7961520742893609 0.2399689784872026 0  0.7945735805187366 0.1993400562503199 0  0.7966885447197588 0.1177925043031153 0  0.799918006815207 0.03471253478692297 0  0.7989359941932669 -0.04920318342998343 0  0.7939233645923189 -0.1321779887195543 0  0.7903521325483723 -0.2136231910077638 0  0.7952055629250597 0.1587189926763879 0  0.7985727773696288 0.07648992852059379 0  0.7999943820300413 -0.007252614641571488 0  0.7966289901767621 -0.0909310404189652 0  0.7916564002538021 -0.1730478365925107 0  0.6625674603828822 0.4305001694323954 0  0.789919836998784 0.3036029504389094 0  0.7617091696184028 0.359756270907934 0  0.7163289531154319 0.4029941322280247 0  0.792278797268409 0.2714111471353758 0  0.7747204806959901 0.3307568890712604 0  0.7399699371061389 0.3823958134908665 0  0.6897837583805531 0.4171301075062187 0  0.7938183108939135 0.2556053909829991 0  0.7905508479387942 0.2873176556236831 0  0.7817598940785156 0.3170101811181143 0  0.7694485986444586 0.3458540576595283 0  0.750442488864303 0.3702730875701564 0  0.7282233041566407 0.3928100076030689 0  0.702980870885511 0.4095164659249577 0  0.6762916108536674 0.4245188449123652 0  -0.036698238984333 0.7760605999532708 0  0.6114977288743295 0.460060714671492 0  0.5768378008223127 0.4833548548492128 0  0.5417153558837607 0.5082829368191494 0  0.5059835923251298 0.5345956686227791 0  0.4693387047907652 0.5618272595330556 0  0.4316073874054529 0.5896089629714375 0  0.3925918300223206 0.6175828957882868 0  0.3520475294686853 0.6454077653100936 0  0.3096795533946845 0.6722458298672359 0  0.2653982111584371 0.6975179648996771 0  0.2191294509200853 0.7205385749291687 0  0.1708629556006203 0.7406929090894341 0  0.120731562904375 0.7567854375155634 0  0.06911128564943805 0.7682758549145218 0  0.01647311779813307 0.7746694842631286 0  0.6459233609141156 0.4392432458155583 0  -0.08971821182352058 0.7711956672861122 0  -0.1418020352104654 0.7607945943355396 0  -0.1923553496125734 0.7454487897649088 0  -0.2407339049344289 0.7251242631989411 0  -0.2870106136843046 0.7028343045291371 0  -0.3313159933148175 0.6785065764425053 0  -0.3737517672170714 0.6527235853630508 0  -0.4144022221794462 0.625871038854064 0  -0.4536054961595478 0.599093043659499 0  -0.4916680435534041 0.5725641868741165 0  -0.5287625345137683 0.5465563594196637 0  -0.5650556089106671 0.5213555919628844 0  -0.6006893454696904 0.4972205904743573 0  -0.6358500173852489 0.474645606732372 0  -0.6707607424208399 0.4544519624544101 0  -0.687637150907926 0.4459590860695983 0  -0.6531337739177275 0.4644951941642961 0  -0.582950198309042 0.5091834977299512 0  -0.5103258623825632 0.5594832218014318 0  -0.4341483428342851 0.6124590810080216 0  -0.3527561055557484 0.6657393568425262 0  -0.2641162495693605 0.7142765130908191 0  -0.167295546737908 0.7535954678591661 0  -0.06327692888823261 0.7743232700616365 0  0.04289184059572953 0.7721566722584075 0  0.1460091280902224 0.7492593722741806 0  0.2425126062757212 0.7093555844243652 0  0.3310912300756808 0.6589801795155371 0  0.4122705247444194 0.6035946539436634 0  0.4877804697524142 0.5481238096968594 0  0.5593438429343092 0.4956983869793919 0  0.6285365361094762 0.4495801176741784 0  -0.6182907078027499 0.4858722258185139 0  -0.5469979847452496 0.5338506441503352 0  -0.4727692024525429 0.5857821075602042 0  -0.3943206416195335 0.6393903065200258 0  -0.3094025061671639 0.6908815929275095 0  -0.2169437427523065 0.735888484610894 0  -0.1159153147877082 0.7666354740996854 0  -0.0100404823656301 0.7760730443600734 0  0.09508116081659293 0.7631401085054147 0  0.1952640271775582 0.7310773775177478 0  0.2877847426619115 0.6851221490879958 0  0.3725450057090335 0.6315635397417949 0  0.4506207277514956 0.575674657682369 0  0.5239546642799014 0.5212946058470255 0  0.5941900772241249 0.4716299956419668 0  -0.8247718292233878 0.2576058292865742 0  -0.7419879468887841 0.4189716762906868 0  -0.7881861053103756 0.3763899976052209 0  -0.8174045972298285 0.3209034684332282 0  -0.7151804504214292 0.4329152845629118 0  -0.7660616498643429 0.3988270688507245 0  -0.8014506297345412 0.347571323679474 0  -0.82020922008117 0.2888662099539013 0  -0.701532456497005 0.44019786328366 0  -0.7285132973433931 0.4253711759684097 0  -0.7541030094014273 0.4090393471071876 0  -0.776736719789674 0.3868001881048909 0  -0.79630263377426 0.362742278687379 0  -0.8087795070101012 0.3340640334485276 0  -0.8181559063589868 0.3046806293501991 0  -0.8219892089587487 0.2731316286080743 0  -0.823862542164513 0.237254135848969 0  -0.8270136948396547 -0.214324501130429 0  -0.8267094009365437 -0.1739346509977631 0  -0.8278426637364322 -0.133348382668339 0  -0.8295611012987149 -0.09243110174326054 0  -0.8315639064677218 -0.05109011431215241 0  -0.8323989948924493 -0.009387537366753939 0  -0.832113508131501 0.03240190070723564 0  -0.8307113438344556 0.07409519930076021 0  -0.8281544501321689 0.1154224898684973 0  -0.8258668097044535 0.1563251511643329 0  -0.8241521421550781 0.1968923968879898 0  -0.8282389298928986 -0.2346953567047247 0  -0.8266301110991089 -0.1941418060648231 0  -0.8286675538543451 -0.1129368688406828 0  -0.8321233150328163 -0.03026204796457968 0  -0.8315533928154638 0.05327284117298153 0  -0.8269774918249435 0.1359213984412416 0  -0.8237775887669933 0.2170878753233658 0  -0.827178345410302 -0.1536777490633918 0  -0.8306141814125817 -0.07183551475594213 0  -0.8323918441197402 0.0115077793405101 0  -0.8294842416047433 0.09483330779398667 0  -0.8249129958230996 0.1766459338142868 0  -0.8217024617038694 -0.2981523116062341 0  -0.7931107053585016 -0.3538924476482445 0  -0.7475168802581781 -0.3968587512515853 0  -0.8241568127689776 -0.2660319222767912 0  -0.8061570269659096 -0.3249961980079912 0  -0.7713215688352736 -0.3765511983336921 0  -0.7209440218723954 -0.4109949415159944 0  -0.8257142950877374 -0.2502590699736387 0  -0.8223155227364951
[...]
<PointData  Vectors="f_11218"> 
<DataArray  type="Float64"  Name="f_11218"  NumberOfComponents="3" format="ascii">1.0019055973804227e-02 1.2990753819591049e-02 0.0000000000000000e+00  1.8789958518759509e-03 3.9504045728051281e-02 0.0000000000000000e+00  6.3201793624063181e-03 4.2331297432121946e-02 0.0000000000000000e+00  1.0791039120269016e-02 4.4781198211799302e-02 0.0000000000000000e+00  1.2898024178739387e-02 3.9568154993554296e-02 0.0000000000000000e+00  2.1303206831862910e-02 4.7204941984327779e-02 0.0000000000000000e+00  3.1173186176153514e-02 5.8822931326981923e-02 0.0000000000000000e+00  3.2810110834793071e-02 5.3791790882327467e-02 0.0000000000000000e+00  2.8378025974055868e-02 4.1818318616144469e-02 0.0000000000000000e+00  -2.2636947682556684e-03 3.8838618000081739e-02 0.0000000000000000e+00  1.4495613713352212e-02 2.0180552085188444e-02 0.0000000000000000e+00  1.0569283495495206e-02 1.4738455538645999e-02 0.0000000000000000e+00  8.0891613248991155e-03 1.1995270101945682e-02 0.0000000000000000e+00  1.0338311719851969e-02 1.6791304293165582e-02 0.0000000000000000e+00  9.9636264610920115e-03 1.8197607677410483e-02 0.0000000000000000e+00  6.9087288635626548e-03 1.9347437312174282e-02 0.0000000000000000e+00  -2.0906714409788061e-03 1.6324827250664520e-02 0.0000000000000000e+00  -5.6634159001683011e-02 1.2705791777580411e-01 0.0000000000000000e+00  -6.4526418937008194e-03 4.0231281671912991e-02 0.0000000000000000e+00  -1.1114692712589018e-02 4.3033927177839222e-02 0.0000000000000000e+00  -1.5937834484781154e-02 4.5646898904451769e-02 0.0000000000000000e+00  -1.9520397939129693e-02 4.5285464228239945e-02 0.0000000000000000e+00  -2.1161161983543054e-02 4.2261430977943250e-02 0.0000000000000000e+00  -2.0800030829677650e-02 3.7032008262550375e-02 0.0000000000000000e+00  -1.9070569718170775e-02 3.1263860228565421e-02 0.0000000000000000e+00  -1.5629081965399770e-02 2.4621623414097821e-02 0.0000000000000000e+00  -1.2374901086883673e-02 1.9143625833648155e-02 0.0000000000000000e+00  -9.3807609823428860e-03 1.4784494417929218e-02 0.0000000000000000e+00  -6.1141925036417325e-03 1.0420845924644139e-02 0.0000000000000000e+00  -6.6570193536642629e-03 1.2094433196116581e-02 0.0000000000000000e+00  -7.6263746757124972e-03 1.5766068930775468e-02 0.0000000000000000e+00  -7.1660346902160405e-03 2.1180089854952094e-02 0.0000000000000000e+00  9.6638805229983613e-03 4.5363141528648124e-03 0.0000000000000000e+00  2.1717993029476694e-03 3.1858572656570405e-03 0.0000000000000000e+00  7.6949483458473725e-03 2.1106057170364789e-02 0.0000000000000000e+00  5.0978055703105761e-03 9.6478587497702099e-03 0.0000000000000000e+00  9.5001834121909816e-03 1.3580018329863604e-02 0.0000000000000000e+00  1.7359837392790855e-02 2.4817590837375333e-02 0.0000000000000000e+00  2.8193393950804894e-02 4.3323188538249548e-02 0.0000000000000000e+00  2.7644362990937206e-02 5.6735684952722444e-02 0.0000000000000000e+00  1.3200973099736784e-02 4.5823396915419479e-02 0.0000000000000000e+00  4.0700103042379037e-03 4.0848296982074199e-02 0.0000000000000000e+00  2.1910825721417888e-03 2.1379732657178909e-04 0.0000000000000000e+00  -1.3512996976286757e-02 4.4354821211772644e-02 0.0000000000000000e+00  -2.0715924933433934e-02 4.4470963081727134e-02 0.0000000000000000e+00  -1.9999451103403322e-02 3.4102872228250321e-02 0.0000000000000000e+00  -1.4067361583061508e-02 2.1845202786208683e-02 0.0000000000000000e+00  -7.9586419047517273e-03 1.2850770446490679e-02 0.0000000000000000e+00  -9.4764693311267113e-04 3.6800656021819299e-03 0.0000000000000000e+00  -4.2938860013924732e-03 3.9207527974597041e-02 0.0000000000000000e+00  5.2811107046900015e-02 1.2586429638161253e-01 0.0000000000000000e+00  -5.7550612274359916e-03 1.0427792350614922e-02 0.0000000000000000e+00  -1.0797825656740983e-02 1.6786427779817217e-02 0.0000000000000000e+00  -1.7247800308655217e-02 2.7509359340347116e-02 0.0000000000000000e+00  -2.1299474354060884e-02 4.0008462150631086e-02 0.0000000000000000e+00  -1.8690765334698486e-02 4.7466165813032632e-02 0.0000000000000000e+00  -8.7015993050628942e-03 4.1461984195499110e-02 0.0000000000000000e+00  -2.4709242600032993e-04 3.8836104944812766e-02 0.0000000000000000e+00  8.9258645132474519e-03 4.4855630075276466e-02 0.0000000000000000e+00  1.0025230472226644e-02 2.8164610856359157e-02 0.0000000000000000e+00  2.9522638832525035e-02 5.1693821476507466e-02 0.0000000000000000e+00  4.1880538433166248e-02 5.7985591917510425e-02 0.0000000000000000e+00  1.2302596766993055e-02 1.6932577837701513e-02 0.0000000000000000e+00  6.4392483989356595e-03 1.0348207180749285e-02 0.0000000000000000e+00  7.9721682181026980e-04 5.0173284255978553e-03 0.0000000000000000e+00  5.2151534100905193e-02 1.4885296384289277e-03 0.0000000000000000e+00  7.6325320516723402e-02 -1.2558235171787310e-01 0.0000000000000000e+00  3.4579071564145712e-02 -5.8887779458839391e-02 0.0000000000000000e+00  -2.3699230597593132e-01 4.0113675253656521e-02 0.0000000000000000e+00  3.6946992210077245e-02 -7.7375158606154182e-02 0.0000000000000000e+00  2.4344936476906821e-02 -2.4416734156213697e-02 0.0000000000000000e+00  2.4555326577149550e-01 -6.3064412826606214e-02 0.0000000000000000e+00  3.9363722717550564e-02 -3.1188933248630425e-03 0.0000000000000000e+00  4.5079390959949117e-02 -1.2133000616340500e-01 0.0000000000000000e+00  -9.6552594888007812e-02 1.5619922282694482e-01 0.0000000000000000e+00  3.6315503651139287e-02 -7.5220379956149427e-02 0.0000000000000000e+00  -3.8239163986136096e-02 2.6113289287861215e-02 0.0000000000000000e+00  -2.1421555773997020e-01 9.0958264769280858e-02 0.0000000000000000e+00  -3.3568231473234594e-01 1.5085413361328792e-01 0.0000000000000000e+00  2.5149077714851359e-01 -4.5139105447600612e-03 0.0000000000000000e+00  9.0893509548372088e-03 -4.2760061284987895e-03 0.0000000000000000e+00  1.0439459084312874e-01 2.3865721031173285e-03 0.0000000000000000e+00  6.8920042136402432e-02 -4.8668316123770886e-03 0.0000000000000000e+00  2.5180485779927753e-02 1.3036865723525968e-03 0.0000000000000000e+00  1.5231318538859650e-02 1.0519397698542327e-03 0.0000000000000000e+00  1.2191452686696001e-02 8.2563583822462916e-04 0.0000000000000000e+00  1.2845953177690887e-02 4.1919014478712966e-04 0.0000000000000000e+00  1.3073526735588101e-02 -4.3751751531051117e-06 0.0000000000000000e+00  1.3016630325595004e-02 -3.4301704303344100e-04 0.0000000000000000e+00  1.2235944671223610e-02 -7.2620317943370880e-04 0.0000000000000000e+00  1.1970971636977369e-02 -9.7662036681495611e-04 0.0000000000000000e+00  1.5998697168774081e-02 -1.2986289374636328e-03 0.0000000000000000e+00  3.1607310540220895e-02 -1.7881651309203730e-03 0.0000000000000000e+00  3.6003689485842032e-02 -3.6110179216267274e-03 0.0000000000000000e+00  3.0566535556131289e-02 1.8429310653161292e-03 0.0000000000000000e+00  1.2795242723972058e-02 8.6843608596094332e-04 0.0000000000000000e+00  1.3292681665845971e-02 1.2090915213472270e-04 0.0000000000000000e+00  1.3356847152369346e-02 -4.9764461194248821e-04 0.0000000000000000e+00  1.3010478450178322e-02 -1.0752456155609354e-03 0.0000000000000000e+00  3.3217064527819674e-02 -1.6275683852374182e-03 0.0000000000000000e+00  1.8420807447576168e-02 1.3471115786937342e-03 0.0000000000000000e+00  1.2508472296771409e-02 7.7301203082898325e-04 0.0000000000000000e+00  1.3005294999453873e-02 -1.7937652500744030e-04 0.0000000000000000e+00  1.0760380511245645e-02 -9.3219753002062446e-04 0.0000000000000000e+00  1.9108811383548797e-02 -1.5780315310850168e-03 0.0000000000000000e+00  -5.1445308347793997e-02 -1.1693400786872922e-01 0.0000000000000000e+00  -8.1197200017490576e-02 -8.0885235773698397e-03 0.0000000000000000e+00  4.4900033334481074e-02 4.4515064024267824e-02 0.0000000000000000e+00  6.7235472688885356e-02 1.1151640919126789e-01 0.0000000000000000e+00  4.7212073030035828e-02 4.9275148811550222e-03 0.0000000000000000e+00  1.1699081295157994e-01 3.2752051500061385e-02 0.0000000000000000e+00  2.9649570579819273e-02 2.9144281035379815e-02 0.0000000000000000e+00  3.6028044232239174e-02 7.0414025040228298e-02 0.0000000000000000e+00  3.2499511983282194e-02 5.7640278296114513e-03 0.0000000000000000e+00  1.5205499922593110e-01 -2.7512024493910247e-03 0.0000000000000000e+00  -1.3294171251609849e-01 -3.9399619543238965e-02 0.0000000000000000e+00  -7.9930629603749262e-02 -2.9562125143465318e-02 0.0000000000000000e+00  -3.2889103113942254e-02 -2.1348676078547551e-02 0.0000000000000000e+00  4.0376312893867256e-02 7.0347852258179633e-02 0.0000000000000000e+00  -8.2140347748968293e-02 -1.2293172607297966e-01 0.0000000000000000e+00  3.6541008604918046e-02 9.4893590394603280e-02 0.0000000000000000e+00  1.8654334152753400e-03 -3.0166105267357714e-02 0.0000000000000000e+00  -9.6023238353313937e-03 -2.3725781281412426e-02 0.0000000000000000e+00  -9.8259858948503056e-03 -1.7847466368553895e-02 0.0000000000000000e+00  -9.1686980362639166e-03 -1.4916509080021468e-02 0.0000000000000000e+00  -8.2276321954626915e-03 -1.2161758385193689e-02 0.0000000000000000e+00  -1.0615833247484861e-02 -1.4804439511013375e-02 0.0000000000000000e+00  -1.3894706671677250e-02 -1.9146199445876842e-02 0.0000000000000000e+00  -1.7061554484518775e-02 -2.3917376663552883e-02 0.0000000000000000e+00  -2.2207067638461739e-02 -3.2772233359884835e-02 0.0000000000000000e+00  -2.3648368994267636e-02 -3.8042143693438335e-02 0.0000000000000000e+00  -2.3461237702458341e-02 -4.2486175489638255e-02 0.0000000000000000e+00  -2.0756798458972558e-02 -4.3772228967105177e-02 0.0000000000000000e+00  -1.6882873824737236e-02 -4.4329879153517167e-02 0.0000000000000000e+00  -1.1130212940335373e-02 -3.9521721574208177e-02 0.0000000000000000e+00  -6.1043931629441162e-03 -3.4746166589126208e-02 0.0000000000000000e+00  -2.1257926827780616e-03 -3.2062276518374538e-02 0.0000000000000000e+00  2.5509019143696134e-03 -1.7425078521452222e-02 0.0000000000000000e+00  6.6676188605166303e-03 -3.9953428582139190e-02 0.0000000000000000e+00  1.4595274954563852e-02 -5.3183935754467754e-02 0.0000000000000000e+00  2.2696193404389147e-02 -5.9945266378763191e-02 0.0000000000000000e+00  1.9265677654376898e-02 -4.0749656145944578e-02 0.0000000000000000e+00  2.5074433415972111e-02 -4.6951678220848087e-02 0.0000000000000000e+00  2.4565814894060015e-02 -4.1138103625819974e-02 0.0000000000000000e+00  2.2880320366338198e-02 -3.5279390494782924e-02 0.0000000000000000e+00  1.5192081516778489e-02 -2.2169124104426216e-02 0.0000000000000000e+00  1.3329917162945177e-02 -1.9540422932216247e-02 0.0000000000000000e+00  1.0150164537151986e-02 -1.5133782251967905e-02 0.0000000000000000e+00  7.6793118268017662e-03 -1.2164548580196770e-02 0.0000000000000000e+00  7.1314095783833109e-03 -1.2287686425713710e-02 0.0000000000000000e+00  9.9817799241599912e-03 -1.8984319191585206e-02 0.0000000000000000e+00  9.7346105332834030e-03 -2.5246850687546042e-02 0.0000000000000000e+00  -4.2672453449078092e-03 -1.5506333021648821e-02 0.0000000000000000e+00  6.2973112362957412e-02 -1.4557234368870212e-01 0.0000000000000000e+00  2.7997335130403879e-03 -1.2663977299591124e-02 0.0000000000000000e+00  2.4691601177980276e-03 -5.9733819162471301e-03 0.0000000000000000e+00  8.5927327476076464e-03 -1.3128072270449598e-02 0.0000000000000000e+00  1.5510783389914308e-02 -2.2981722054501354e-02 0.0000000000000000e+00  2.2796285806799561e-02 -3.6418294637197000e-02 0.0000000000000000e+00  2.3270026198958484e-02 -4.7728533873276989e-02 0.0000000000000000e+00  1.7065035300235652e-02 -5.2679287610594365e-02 0.0000000000000000e+00  3.9472636599468727e-03 -3.5080739302704340e-02 0.0000000000000000e+00  -3.8558663464463255e-03 -3.2671591023480481e-02 0.0000000000000000e+00  -1.3864924608442223e-02 -4.1748176479510180e-02 0.0000000000000000e+00  -2.2430046643492289e-02 -4.3792496389983344e-02 0.0000000000000000e+00  -2.2721586445448642e-02 -3.4884616286058594e-02 0.0000000000000000e+00  -1.5879481274214385e-02 -2.2085690478512384e-02 0.0000000000000000e+00  -9.3523890514484193e-03 -1.3346402300167185e-02 0.0000000000000000e+00  -4.7253617263075766e-03 -9.0623938422139706e-03 0.0000000000000000e+00  -3.2432276390411902e-03 -1.3358800785314037e-02 0.0000000000000000e+00  -3.4512790352088889e-04 -3.4157153173682091e-03 0.0000000000000000e+00  6.0328114108625297e-03 -1.0181553196331170e-02 0.0000000000000000e+00  1.1584725193248911e-02 -1.7027671410365396e-02 0.0000000000000000e+00  2.1153514239284688e-02 -3.1101274869317797e-02 0.0000000000000000e+00  2.4335155681948509e-02 -4.3027097022845420e-02 0.0000000000000000e+00  4.0319156400681747e-02 -9.1743274720951812e-02 0.0000000000000000e+00  9.5761290262049541e-03 -4.3706437304297838e-02 0.0000000000000000e+00  -5.2999116131557716e-04 -2.6604260274322351e-02 0.0000000000000000e+00  -8.3543640855558848e-03 -3.6631671534822753e-02 0.0000000000000000e+00  -2.0627213680059847e-02 -4.7659969324477483e-02 0.0000000000000000e+00  -2.3791653375370866e-02 -4.0452985958135408e-02 0.0000000000000000e+00  -2.0131149655918137e-02 -2.8636274600267644e-02 0.0000000000000000e+00  -1.2217337947316465e-02 -1.6851522727664006e-02 0.0000000000000000e+00  -6.5677286095845487e-03 -1.0444694373218273e-02 0.0000000000000000e+00  -5.4783841157447647e-04 -4.7152950572455317e-03 0.0000000000000000e+00  -4.2130505066809265e-02 -2.9876191723039553e-03 0.0000000000000000e+00  -7.4718056085439022e-02 1.2382207375463630e-01 0.0000000000000000e+00  -4.0922275805822812e-02 5.4096502375000334e-02 0.0000000000000000e+00  1.7356600702546682e-01 -2.5339738263208299e-02 0.0000000000000000e+00  -3.6448495116142794e-02 7.5330535821471867e-02 0.0000000000000000e+00  -2.5298447685096981e-02 2.5493705370281460e-02 0.0000000000000000e+00  -1.8859013963386348e-01 4.9942090078332717e-02 0.0000000000000000e+00  -4.1802743689664537e-02 3.7658342661487185e-03 0.0000000000000000e+00  -4.0826743512343090e-02 1.1054067018463969e-01 0.0000000000000000e+00  9.6771142753370856e-02 -1.5355315374207790e-01 0.0000000000000000e+00  -3.8273748073516051e-02 7.4767393572199831e-02 0.0000000000000000e+00  4.2517962565819661e-02 -3.0284242238715339e-02 0.0000000000000000e+00  1.6129827762647578e-01 -6.5860309326003563e-02 0.0000000000000000e+00  2.5606484253301443e-01 -1.0461832146893052e-01 0.0000000000000000e+00  -2.1819199611401310e-01 2.6332241752754009e-03 0.0000000000000000e+00  -1.5087671578639269e-02 4.7633188610958091e-03 0.0000000000000000e+00  -9.9915582074369527e-02 -3.4845674453219061e-03 0.0000000000000000e+00  -7.8073136209715982e-02 5.2507109167340823e-03 0.0000000000000000e+00  -2.6608157046607701e-02 -1.3334266651421464e-03 0.0000000000000000e+00  -1.4972682321860831e-02 -1.0682715609345800e-03 0.0000000000000000e+00  -1.1494869986395517e-02 -8.1445471392602858e-04 0.0000000000000000e+00  -1.2154981032556012e-02 -4.6398197512759301e-04 0.0000000000000000e+00  -1.2542818196860766e-02 -6.1772220874594741e-05 0.0000000000000000e+00  -1.2538073549441973e-02 2.5726303310158547e-04 0.0000000000000000e+00  -1.1980730031726724e-02 6.3208596993000177e-04 0.0000000000000000e+00  -1.1491448529933970e-02 9.1975838250298503e-04 0.0000000000000000e+00  -1.5292630685268659e-02 1.2194237094664403e-03 0.0000000000000000e+00  -2.9355572741088073e-02 1.6507238871071269e-03 0.0000000000000000e+00  -3.9815214254624351e-02 3.3314353865097545e-03 0.0000000000000000e+00  -3.1655373947740539e-02 -1.5612178691132592e-03 0.0000000000000000e+00  -1.2340787978155729e-02 -8.8056454294202339e-04 0.0000000000000000e+00  -1.2791896482301734e-02 -1.8446492686257656e-04 0.0000000000000000e+00  -1.2898471485429667e-02 3.9439064872447268e-04 0.0000000000000000e+00  -1.2527457528130089e-02 1.0078762997751955e-03 0.0000000000000000e+00  -3.1892346654997308e-02 1.7210603045461675e-03 0.0000000000000000e+00  -1.8321791076379882e-02 -1.3580805580500406e-03 0.0000000000000000e+00  -1.1460033353468832e-02 -7.7665746330522279e-04 0.0000000000000000e+00  -1.2512131352073326e-02 9.8563434151940091e-05 0.0000000000000000e+00  -1.0744107431797038e-02 8.8000818004226327e-04 0.0000000000000000e+00  -1.8528433262478744e-02 1.5118879913300126e-03 0.0000000000000000e+00  1.1835189511644449e-01 1.4705065946211068e-02 0.0000000000000000e+00  -4.1438048954702052e-02 -4.9779902987376758e-02 0.0000000000000000e+00  -7.0983592675526785e-02 -1.1743021544547387e-01 0.0000000000000000e+00  -4.5575291900932471e-02 -4.4977252380415719e-03 0.0000000000000000e+00  -1.5363453372022734e-01 -4.1202749793228854e-02 0.0000000000000000e+00  -2.9676820883955762e-02 -2.8851498593068715e-02 0.0000000000000000e+00  -3.1589313915182479e-02 -6.5183389340315381e-02 0.0000000000000000e+00  -2.7355002980192958e-02 -5.5748995781220697e-03 0.0000000000000000e+00  -1.7239260354547839e-01 2.2462726038496536e-03 0.0000000000000000e+00  1.8560689145796622e-01 6.6074784783220042e-02 0.0000000000000000e+00  1.2122175575402076e-01 4.7788763831088495e-02 0.0000000000000000e+00  2.6931095969359862e-02 1.6322286087914736e-02 0.0000000000000000e+00  -3.8026650426685918e-02 -7.1065347827108771e-02 0.0000000000000000e+00  8.1318249404769671e-02 1.2269427662323330e-01 0.0000000000000000e+00  -3.6141048367226689e-02 -9.9648534533289979e-02 0.0000000000000000e+00  3.4900631346768588e-05 1.5247548407530513e-05 0.0000000000000000e+00  -2.7649594177877628e-05 -1.3087316443117043e-05 0.0000000000000000e+00  1.5588693674048609e-05 -1.6415285770205864e-06 0.0000000000000000e+00  1.3756591916679525e-05 -2.4439384031335924e-05 0.0000000000000000e+00  -1.2143220483779016e-05 2.3065155116371479e-05 0.0000000000000000e+00  -2.6771065457780640e-05 3.7126283522098983e-06 0.0000000000000000e+00  -2.6215590556794634e-06 -4.4544348334522467e-06 0.0000000000000000e+00  1.7757984021944541e-06 3.2840537101300946e-06 0.0000000000000000e+00  8.9593085287087594e-07 -1.7931656996755090e-06 0.0000000000000000e+00  -4.4225785229330970e-07 1.0143376834356546e-06 0.0000000000000000e+00  -1.8487540861664484e-06 2.3570849960603737e-05 0.0000000000000000e+00  -4.0587238853018672e-06 1.6356863715856625e-05 0.0000000000000000e+00  -1.8175377292128496e-05 3.9072615636380627e-05 0.0000000000000000e+00  -3.4954949913474503e-07 -5.1970836169964763e-06 0.0000000000000000e+00  1.7854579883550827e-06 -1.1710818674470237e-05 0.0000000000000000e+00  -7.4255843209647735e-08 -2.4433261703691935e-06 0.0000000000000000e+00  -6.9087331332864517e-05 6.6973927536245900e-05 0.0000000000000000e+00  9.5542117641575302e-06 2.5405338566985528e-06 0.0000000000000000e+00  -1.4240793059235686e-05 -3.5687141897318940e-08 0.0000000000000000e+00  1.4387044696900965e-04 -2.6913772879846431e-05 0.0000000000000000e+00  8.9348502837337780e-05 9.0848789841254963e-05 0.0000000000000000e+00  3.1774916425954502e-05 -5.9165067628363840e-05 0.0000000000000000e+00  -1.2397829751159149e-05 4.8762244886501341e-06 0.0000000000000000e+00  2.2671709298325614e-06 -2.4015360616984333e-05 0.0000000000000000e+00  4.6109899812871039e-06 -1.6868091841720401e-05 0.0000000000000000e+00  -7.4366907306023687e-09 8.8949205990502655e-07 0.0000000000000000e+00  5.4383826812985330e-06 2.0354142816301606e-05 0.0000000000000000e+00  -2.3186171746081323e-06 -2.7278760130089134e-05 0.0000000000000000e+00  3.3804953379865089e-05 4.0256342779111751e-06 0.0000000000000000e+00  2.3025329807683446e-06 2.5519108859782914e-05 0.0000000000000000e+00  1.2446876569406466e-05 2.1533292374473094e-05 0.0000000000000000e+00  -3.3215365553084466e-05 1.7559560605767292e-05 0.0000000000000000e+00  -2.1104758827331686e-05 -3.5809318710789621e-05 0.0000000000000000e+00  -2.3842403168897904e-05 -2.6067823012199196e-06 0.0000000000000000e+00  4.4992201943039235e-05 -2.4554910835730782e-05 0.0000000000000000e+00  -6.6338564220292640e-06 -2.1515840409651389e-05 0.0000000000000000e+00  1.6621816097204465e-05 -3.4564965418466771e-05 0.0000000000000000e+00  5.3675616261050969e-07 4.5793781779505824e-06 0.0000000000000000e+00  -1.1532630638311846e-05 -2.1643096668685212e-05 0.0000000000000000e+00  4.5613818461013073e-06 1.3452447342968637e-05 0.0000000000000000e+00  -5.20