<?xml version="1.0"?>
<VTKFile type="UnstructuredGrid"  version="0.1"  >
<UnstructuredGrid>
<Piece  NumberOfPoints="4153" NumberOfCells="8064">
<Points>
<DataArray  type="Float64"  NumberOfComponents="3"  format="ascii">-0.4239047651918698 -0.6109530605480015 0  -0.05204200783385295 -0.7552446029429709 0  -0.1030743137080439 -0.7502420294169908 0  -0.1532599422154101 -0.7406601766146428 0  -0.2022822926266795 -0.7271208912673863 0  -0.2502705489703478 -0.7109445949309758 0  -0.2966610425122062 -0.6899189356071976 0  -0.3410574591650666 -0.6656957300078659 0  -0.3834544680294736 -0.6392445601522708 0  -0.000657441246723359 -0.7552912651942141 0  -0.4626462682900286 -0.5830125747810375 0  -0.5002684669212559 -0.5553102351243183 0  -0.5368533992144731 -0.5281261880069118 0  -0.5725574800094489 -0.5018520978062972 0  -0.6077329287572687 -0.477003269081535 0  -0.64248929881581 -0.4537482618779036 0  -0.6769937893762521 -0.4329786975963913 0  0.6514873811010182 -0.4426890625183927 0  0.05053459971339414 -0.7504191455708862 0  0.1010143563747898 -0.7408117387103391 0  0.1503294045984978 -0.7268899564336747 0  0.198127563986108 -0.7091880319722513 0  0.2442507238083462 -0.6886666820135041 0  0.2886932515644069 -0.6659755639390761 0  0.331509965109218 -0.6417431848410406 0  0.3727826423733656 -0.6165420558637874 0  0.4127404429743769 -0.590996115568529 0  0.4515605159758967 -0.5655064334985931 0  0.4894222953836149 -0.5404104654579531 0  0.5264628272910247 -0.5160754025284054 0  0.5628624165886852 -0.4926901447422483 0  0.5987357276361615 -0.4707275328824829 0  0.6342905450121763 -0.4509893323564179 0  0.6163743092627311 -0.460834203185318 0  -0.659533538560534 -0.443248859448967 0  -0.590202324509731 -0.4893200953920934 0  -0.5186686751487096 -0.5416357147519879 0  -0.4433849158325495 -0.596916059179036 0  -0.3625052881989455 -0.652604046315712 0  -0.2737083808613272 -0.7009028726115489 0  -0.1779280798541827 -0.7344099192959981 0  -0.07763613201115806 -0.7533456492477457 0  0.5808312484368718 -0.4816576582446311 0  0.1258415324947217 -0.7343516366162612 0  0.2213996927712736 -0.6992404285312936 0  0.3102938427943961 -0.6540220730638108 0  0.3929179337547727 -0.6037911606208222 0  0.4705957969984153 -0.5529062048559337 0  0.5447495990701698 -0.5042951202906201 0  0.02499604108019444 -0.7534650954666768 0  -0.6937039525899225 -0.4241329975009446 0  0.5080217060263347 -0.5281203664049453 0  0.4322802289563733 -0.5782293280782531 0  0.3523262221552924 -0.6292074542260971 0  0.2666804863796332 -0.6775590134884253 0  0.1744417444561814 -0.718464756588631 0  0.07589411152786778 -0.7461857485306634 0  -0.02635772627408106 -0.7558949602188606 0  -0.1282983557449733 -0.7459993318349525 0  -0.2263219953858807 -0.7194554354152325 0  -0.3190974132923646 -0.6780923951872406 0  -0.4040599821755547 -0.6253983082665527 0  -0.4816004902588742 -0.569131299996374 0  -0.554806101610386 -0.5148350978666928 0  -0.6251153459173026 -0.4653142908004203 0  0.7910335656742425 -0.2542900981680736 0  0.7063677259877902 -0.4154158345588465 0  0.7531616605642872 -0.3729552977949456 0  0.7830310268507159 -0.3176570111855102 0  0.6793770340435074 -0.4295525092011787 0  0.7307637675977473 -0.3954179692536346 0  0.7665434118438459 -0.3440906441158934 0  0.786062450007345 -0.2855744449553734 0  0.6655948173501302 -0.4369647360525609 0  0.692811439434188 -0.4218741751365635 0  0.7186610624885553 -0.4055890868551077 0  0.7415903213291923 -0.3833815848320379 0  0.7615484810651451 -0.3594228974805547 0  0.7740660801389275 -0.3306927119002607 0  0.7838078034371478 -0.3013971088861361 0  0.7879620932162533 -0.2698065595455266 0  0.790367874086072 -0.2338522662070836 0  0.7948621591048173 0.2195862678831584 0  0.7947158069116083 0.1790601129268445 0  0.7958787589975145 0.1382997092205486 0  0.7975598763821838 0.09718982677885292 0  0.7994472772368683 0.05564006185521875 0  0.8001022519235766 0.01373928902256138 0  0.7996082694064214 -0.02824118582394599 0  0.7979707488851902 -0.07011318018895807 0  0.7952020511122291 -0.1115992812760545 0  0.7927070896278205 -0.1526557077211906 0  0.7907967385399312 -0.1933606746055069 0  0.796152074358403 0.2399689784952402 0  0.7945735805868933 0.1993400562554633 0  0.7966885447854513 0.1177925043033968 0  0.7999180068793905 0.03471253478326148 0  0.7989359942571564 -0.04920318343726607 0  0.7939233646570919 -0.1321779887308276 0  0.7903521326148456 -0.2136231910239487 0  0.7952055629919172 0.1587189926789548 0  0.7985727774344182 0.07648992851881571 0  0.7999943820939308 -0.007252614647040587 0  0.7966289902409782 -0.09093104042815277 0  0.791656400319391 -0.1730478366061004 0  0.6625674604232886 0.4305001694382611 0  0.7899198370659765 0.3036029504515474 0  0.7617091696796414 0.3597562709236216 0  0.7163289531676367 0.4029941322423959 0  0.7922787973368798 0.2714111471457271 0  0.7747204807605744 0.3307568890857017 0  0.7399699371626877 0.382395813505876 0  0.6897837584268294 0.4171301075165916 0  0.7938183109627881 0.2556053909922047 0  0.7905508480069512 0.2873176556352171 0  0.7817598941446514 0.3170101811317196 0  0.7694485987067164 0.3458540576743203 0  0.7504424889231662 0.3702730875855973 0  0.7282233042109689 0.3928100076177853 0  0.7029808709347423 0.4095164659375711 0  0.6762916108973007 0.4245188449210689 0  -0.03669823898322232 0.7760605998460111 0  0.6114977289025735 0.4600607146650887 0  0.5768378008426931 0.4833548548341846 0  0.5417153558966012 0.5082829367951044 0  0.5059835923309925 0.5345956685894955 0  0.4693387047903634 0.5618272594904281 0  0.4316073873996376 0.5896089629194201 0  0.3925918300120735 0.6175828957269431 0  0.3520475294551241 0.6454077652396167 0  0.3096795533790743 0.6722458297881008 0  0.2653982111420847 0.6975179648125359 0  0.2191294509043131 0.7205385748349685 0  0.1708629555866464 0.74069290898933 0  0.1207315628932818 0.7567854374110012 0  0.06911128564205096 0.768275854807178 0  0.01647311779494456 0.7746694841548708 0  0.6459233609504972 0.4392432458173794 0  -0.08971821181842383 0.7711956671815545 0  -0.1418020352020072 0.760794594235142 0  -0.1923553496016427 0.7454487896699633 0  -0.2407339049220744 0.7251242631105349 0  -0.2870106136714433 0.7028343044478383 0  -0.3313159933027635 0.6785065763694084 0  -0.3737517672070885 0.6527235852988182 0  -0.4144022221726932 0.6258710387991051 0  -0.4536054961571304 0.5990930436140577 0  -0.4916680435562255 0.5725641868382483 0  -0.5287625345226247 0.5465563593933217 0  -0.5650556089262204 0.521355591945932 0  -0.600689345492444 0.4972205904665661 0  -0.6358500174155924 0.4746456067334366 0  -0.6707607424590905 0.4544519624639524 0  -0.687637150950127 0.4459590860833982 0  -0.6531337739521161 0.4644951941697447 0  -0.5829501983281314 0.5091834977175225 0  -0.5103258623883091 0.5594832217703295 0  -0.4341483428295839 0.6124590809578125 0  -0.3527561055445819 0.6657393567738243 0  -0.2641162495565963 0.7142765130058022 0  -0.1672955467281039 0.7535954677614366 0  -0.06327692888507555 0.7743232699555416 0  0.0428918405903981 0.7721566721503558 0  0.1460091280775674 0.7492593721716585 0  0.2425126062594931 0.7093555843335525 0  0.3310912300609423 0.6589801794406822 0  0.4122705247362562 0.6035946538869634 0  0.487780469755045 0.5481238096589115 0  0.5593438429508721 0.4956983869598373 0  0.6285365361418598 0.4495801176720098 0  -0.6182907078293134 0.4858722258151186 0  -0.5469979847573728 0.5338506441286786 0  -0.4727692024526332 0.5857821075195415 0  -0.3943206416109896 0.6393903064603339 0  -0.3094025061545516 0.690881592850229 0  -0.2169437427403789 0.7358884845187718 0  -0.1159153147808446 0.7666354739970787 0  -0.01004048236666472 0.776073044252106 0  0.09508116080726747 0.7631401083992397 0  0.195264027162526 0.7310773774204089 0  0.2877847426457648 0.6851221490047595 0  0.3725450056969626 0.631563539675827 0  0.4506207277482726 0.5756746576350453 0  0.5239546642891538 0.5212946058183345 0  0.5941900772484442 0.4716299956312341 0  -0.824771829293884 0.2576058293031726 0  -0.7419879469426512 0.4189716763133972 0  -0.7881861053730899 0.3763899976294295 0  -0.817404597298436 0.3209034684543357 0  -0.7151804504693671 0.4329152845813219 0  -0.7660616499223896 0.3988270688740644 0  -0.8014506298007051 0.3475713237025209 0  -0.8202092201510961 0.288866209972766 0  -0.701532456542422 0.4401978633004593 0  -0.7285132973942586 0.4253711759892189 0  -0.7541030094573224 0.409039347130226 0  -0.7767367198499727 0.3868001881287375 0  -0.7963026338376722 0.3627422787105425 0  -0.8087795070777933 0.3340640334706602 0  -0.8181559064287156 0.3046806293702437 0  -0.8219892090291209 0.2731316286258401 0  -0.8238625422347918 0.2372541358641456 0  -0.827013694911517 -0.2143245011387723 0  -0.8267094010070866 -0.1739346510034091 0  -0.8278426638056627 -0.1333483826716087 0  -0.8295611013668935 -0.09243110174442384 0  -0.8315639065351237 -0.05109011431141004 0  -0.8323989949594325 -0.009387537364239019 0  -0.8321135081983664 0.03240190071148707 0  -0.8307113439015072 0.07409519930679187 0  -0.82815445019974 0.1154224898764546 0  -0.825866809772782 0.1563251511744146 0  -0.8241521422243981 0.1968923969004663 0  -0.8282389299650427 -0.2346953567145268 0  -0.8266301111703124 -0.1941418060717751 0  -0.8286675539230048 -0.1129368688428689 0  -0.8321233150999738 -0.03026204796294124 0  -0.8315533928823851 0.05327284117811252 0  -0.8269774918928483 0.1359213984502289 0  -0.823777588836793 0.2170878753371492 0  -0.8271783454801621 -0.1536777490678117 0  -0.8306141814803353 -0.07183551475612693 0  -0.8323918441866274 0.01150777934389285 0  -0.8294842416720303 0.09483330780095485 0  -0.824912995891901 0.1766459338255275 0  -0.8217024617742316 -0.2981523116205869 0  -0.7931107054229287 -0.3538924476656271 0  -0.7475168803136808 -0.3968587512675616 0  -0.8241568128405852 -0.2660319222888775 0  -0.8061570270337127 -0.3249961980241747 0  -0.7713215688950572 -0.3765511983503469 0  -0.7209440219220018 -0.4109949415278794 0  -0.8257142951597364 -0.2502590699846001 0  -0.822
[...]
<PointData  Vectors="f_4562"> 
<DataArray  type="Float64"  Name="f_4562"  NumberOfComponents="3" format="ascii">1.0019055976662614e-02 1.2990753830093430e-02 0.0000000000000000e+00  1.8789958530247681e-03 3.9504045755739257e-02 0.0000000000000000e+00  6.3201793649961899e-03 4.2331297459174043e-02 0.0000000000000000e+00  1.0791039122934439e-02 4.4781198235676611e-02 0.0000000000000000e+00  1.2898024178765663e-02 3.9568155008775301e-02 0.0000000000000000e+00  2.1303206818364211e-02 4.7204941966240935e-02 0.0000000000000000e+00  3.1173186160553576e-02 5.8822931315780223e-02 0.0000000000000000e+00  3.2810110820017162e-02 5.3791790875782008e-02 0.0000000000000000e+00  2.8378025965466198e-02 4.1818318617884390e-02 0.0000000000000000e+00  -2.2636947688822332e-03 3.8838618026868339e-02 0.0000000000000000e+00  1.4495613710295717e-02 2.0180552091174024e-02 0.0000000000000000e+00  1.0569283494645301e-02 1.4738455546151136e-02 0.0000000000000000e+00  8.0891613246807520e-03 1.1995270109648728e-02 0.0000000000000000e+00  1.0338311725589813e-02 1.6791304312828027e-02 0.0000000000000000e+00  9.9636264665477030e-03 1.8197607698110452e-02 0.0000000000000000e+00  6.9087288769856276e-03 1.9347437351196491e-02 0.0000000000000000e+00  -2.0906714474463106e-03 1.6324827264266567e-02 0.0000000000000000e+00  -5.6634158996968581e-02 1.2705791781636089e-01 0.0000000000000000e+00  -6.4526418955284121e-03 4.0231281696290741e-02 0.0000000000000000e+00  -1.1114692714514346e-02 4.3033927198649111e-02 0.0000000000000000e+00  -1.5937834485659250e-02 4.5646898921460503e-02 0.0000000000000000e+00  -1.9520397937949446e-02 4.5285464241181309e-02 0.0000000000000000e+00  -2.1161161979775574e-02 4.2261430986503354e-02 0.0000000000000000e+00  -2.0800030823899838e-02 3.7032008267701144e-02 0.0000000000000000e+00  -1.9070569711046072e-02 3.1263860230974827e-02 0.0000000000000000e+00  -1.5629081960712967e-02 2.4621623419385737e-02 0.0000000000000000e+00  -1.2374901083324548e-02 1.9143625839065755e-02 0.0000000000000000e+00  -9.3807609803703337e-03 1.4784494424179936e-02 0.0000000000000000e+00  -6.1141925018230233e-03 1.0420845929344620e-02 0.0000000000000000e+00  -6.6570193501763837e-03 1.2094433199098656e-02 0.0000000000000000e+00  -7.6263746769861286e-03 1.5766068943917622e-02 0.0000000000000000e+00  -7.1660347024712391e-03 2.1180089893422693e-02 0.0000000000000000e+00  9.6638805264021542e-03 4.5363141664192001e-03 0.0000000000000000e+00  2.1717993187151167e-03 3.1858572423353556e-03 0.0000000000000000e+00  7.6949483308662858e-03 2.1106057160511796e-02 0.0000000000000000e+00  5.0978055706235419e-03 9.6478587579712279e-03 0.0000000000000000e+00  9.5001834128998035e-03 1.3580018339257045e-02 0.0000000000000000e+00  1.7359837390634320e-02 2.4817590846177864e-02 0.0000000000000000e+00  2.8193393934975674e-02 4.3323188528909151e-02 0.0000000000000000e+00  2.7644362980312975e-02 5.6735684946623899e-02 0.0000000000000000e+00  1.3200973101235421e-02 4.5823396935093900e-02 0.0000000000000000e+00  4.0700103061923716e-03 4.0848297009513562e-02 0.0000000000000000e+00  2.1910825757377518e-03 2.1379732355889504e-04 0.0000000000000000e+00  -1.3512996977774493e-02 4.4354821230522687e-02 0.0000000000000000e+00  -2.0715924930893751e-02 4.4470963092432619e-02 0.0000000000000000e+00  -1.9999451097436571e-02 3.4102872232941742e-02 0.0000000000000000e+00  -1.4067361578128944e-02 2.1845202790227926e-02 0.0000000000000000e+00  -7.9586419027961493e-03 1.2850770451905386e-02 0.0000000000000000e+00  -9.4764693161320218e-04 3.6800656040677452e-03 0.0000000000000000e+00  -4.2938860027273837e-03 3.9207528000431237e-02 0.0000000000000000e+00  5.2811107058365399e-02 1.2586429647249092e-01 0.0000000000000000e+00  -5.7550612289291236e-03 1.0427792360737844e-02 0.0000000000000000e+00  -1.0797825653544988e-02 1.6786427784921797e-02 0.0000000000000000e+00  -1.7247800302723375e-02 2.7509359344397303e-02 0.0000000000000000e+00  -2.1299474349219024e-02 4.0008462157418469e-02 0.0000000000000000e+00  -1.8690765334016781e-02 4.7466165826980933e-02 0.0000000000000000e+00  -8.7015993071228419e-03 4.1461984218263463e-02 0.0000000000000000e+00  -2.4709242578211033e-04 3.8836104972224540e-02 0.0000000000000000e+00  8.9258645159164193e-03 4.4855630100540542e-02 0.0000000000000000e+00  1.0025230470302116e-02 2.8164610861244298e-02 0.0000000000000000e+00  2.9522638822329902e-02 5.1693821475078262e-02 0.0000000000000000e+00  4.1880538399194901e-02 5.7985591890111383e-02 0.0000000000000000e+00  1.2302596763647963e-02 1.6932577842141881e-02 0.0000000000000000e+00  6.4392484022269686e-03 1.0348207193351932e-02 0.0000000000000000e+00  7.9721681686614157e-04 5.0173284240423530e-03 0.0000000000000000e+00  5.2151534091844330e-02 1.4885296385231922e-03 0.0000000000000000e+00  7.6325320480936543e-02 -1.2558235171722562e-01 0.0000000000000000e+00  3.4579071601975209e-02 -5.8887779460715085e-02 0.0000000000000000e+00  -2.3699230588923911e-01 4.0113675225335349e-02 0.0000000000000000e+00  3.6946992252406483e-02 -7.7375158720086615e-02 0.0000000000000000e+00  2.4344936456718879e-02 -2.4416734151158276e-02 0.0000000000000000e+00  2.4555326557528065e-01 -6.3064412795577174e-02 0.0000000000000000e+00  3.9363722729440651e-02 -3.1188933240309173e-03 0.0000000000000000e+00  4.5079390979499374e-02 -1.2133000625150066e-01 0.0000000000000000e+00  -9.6552594925513019e-02 1.5619922294462704e-01 0.0000000000000000e+00  3.6315503665860345e-02 -7.5220379984621166e-02 0.0000000000000000e+00  -3.8239164074222821e-02 2.6113289368908738e-02 0.0000000000000000e+00  -2.1421555763870603e-01 9.0958264734323127e-02 0.0000000000000000e+00  -3.3568231455026043e-01 1.5085413353645594e-01 0.0000000000000000e+00  2.5149077713898987e-01 -4.5139105523702193e-03 0.0000000000000000e+00  9.0893509446082349e-03 -4.2760061281953291e-03 0.0000000000000000e+00  1.0439459086252970e-01 2.3865721052540906e-03 0.0000000000000000e+00  6.8920042153048047e-02 -4.8668316157232444e-03 0.0000000000000000e+00  2.5180485793517577e-02 1.3036865717265035e-03 0.0000000000000000e+00  1.5231318548336009e-02 1.0519397698884418e-03 0.0000000000000000e+00  1.2191452693544727e-02 8.2563583836275326e-04 0.0000000000000000e+00  1.2845953182251369e-02 4.1919014476731777e-04 0.0000000000000000e+00  1.3073526739655365e-02 -4.3751752288537588e-06 0.0000000000000000e+00  1.3016630329637836e-02 -3.4301704311887776e-04 0.0000000000000000e+00  1.2235944675787452e-02 -7.2620317957106269e-04 0.0000000000000000e+00  1.1970971643990906e-02 -9.7662036714418862e-04 0.0000000000000000e+00  1.5998697179232184e-02 -1.2986289377509832e-03 0.0000000000000000e+00  3.1607310555698910e-02 -1.7881651305016908e-03 0.0000000000000000e+00  3.6003689489981422e-02 -3.6110179219246631e-03 0.0000000000000000e+00  3.0566535571485941e-02 1.8429310641086181e-03 0.0000000000000000e+00  1.2795242731918529e-02 8.6843608607847832e-04 0.0000000000000000e+00  1.3292681670149761e-02 1.2090915207193647e-04 0.0000000000000000e+00  1.3356847156609866e-02 -4.9764461204245046e-04 0.0000000000000000e+00  1.3010478458693802e-02 -1.0752456159078380e-03 0.0000000000000000e+00  3.3217064542933668e-02 -1.6275683843221403e-03 0.0000000000000000e+00  1.8420807458979008e-02 1.3471115785289793e-03 0.0000000000000000e+00  1.2508472302359486e-02 7.7301203091117445e-04 0.0000000000000000e+00  1.3005295003437879e-02 -1.7937652508551855e-04 0.0000000000000000e+00  1.0760380516655101e-02 -9.3219753026869522e-04 0.0000000000000000e+00  1.9108811396152905e-02 -1.5780315311865595e-03 0.0000000000000000e+00  -5.1445308338368433e-02 -1.1693400790498940e-01 0.0000000000000000e+00  -8.1197200019701418e-02 -8.0885235702893021e-03 0.0000000000000000e+00  4.4900033341388562e-02 4.4515064023570070e-02 0.0000000000000000e+00  6.7235472649939537e-02 1.1151640919030763e-01 0.0000000000000000e+00  4.7212073040327318e-02 4.9275148810829922e-03 0.0000000000000000e+00  1.1699081290585289e-01 3.2752051496096321e-02 0.0000000000000000e+00  2.9649570570013436e-02 2.9144281038606973e-02 0.0000000000000000e+00  3.6028044255513036e-02 7.0414025116948262e-02 0.0000000000000000e+00  3.2499511986983046e-02 5.7640278310346635e-03 0.0000000000000000e+00  1.5205499923786114e-01 -2.7512024458107233e-03 0.0000000000000000e+00  -1.3294171247039843e-01 -3.9399619529399250e-02 0.0000000000000000e+00  -7.9930629570903425e-02 -2.9562125133155783e-02 0.0000000000000000e+00  -3.2889103161568282e-02 -2.1348676118882619e-02 0.0000000000000000e+00  4.0376312905980975e-02 7.0347852283529799e-02 0.0000000000000000e+00  -8.2140347758499030e-02 -1.2293172612723732e-01 0.0000000000000000e+00  3.6541008628276653e-02 9.4893590483799320e-02 0.0000000000000000e+00  1.8654334153633729e-03 -3.0166105285168537e-02 0.0000000000000000e+00  -9.6023238479628920e-03 -2.3725781320897994e-02 0.0000000000000000e+00  -9.8259858973674293e-03 -1.7847466384697652e-02 0.0000000000000000e+00  -9.1686980389094168e-03 -1.4916509094224465e-02 0.0000000000000000e+00  -8.2276321951146644e-03 -1.2161758392859680e-02 0.0000000000000000e+00  -1.0615833246055834e-02 -1.4804439517819002e-02 0.0000000000000000e+00  -1.3894706668184199e-02 -1.9146199451054835e-02 0.0000000000000000e+00  -1.7061554480238186e-02 -2.3917376668581788e-02 0.0000000000000000e+00  -2.2207067630382240e-02 -3.2772233360606078e-02 0.0000000000000000e+00  -2.3648368988152410e-02 -3.8042143696699421e-02 0.0000000000000000e+00  -2.3461237699553789e-02 -4.2486175497110104e-02 0.0000000000000000e+00  -2.0756798459835298e-02 -4.3772228979973453e-02 0.0000000000000000e+00  -1.6882873827703253e-02 -4.4329879170526228e-02 0.0000000000000000e+00  -1.1130212944219647e-02 -3.9521721594460421e-02 0.0000000000000000e+00  -6.1043931663528157e-03 -3.4746166611587588e-02 0.0000000000000000e+00  -2.1257926846628243e-03 -3.2062276540125736e-02 0.0000000000000000e+00  2.5509019183889521e-03 -1.7425078539726573e-02 0.0000000000000000e+00  6.6676188611148358e-03 -3.9953428597356594e-02 0.0000000000000000e+00  1.4595274954680623e-02 -5.3183935768678282e-02 0.0000000000000000e+00  2.2696193410143332e-02 -5.9945266408523080e-02 0.0000000000000000e+00  1.9265677658379287e-02 -4.0749656166794476e-02 0.0000000000000000e+00  2.5074433409018455e-02 -4.6951678223194668e-02 0.0000000000000000e+00  2.4565814884767334e-02 -4.1138103625418018e-02 0.0000000000000000e+00  2.2880320356773395e-02 -3.5279390494303481e-02 0.0000000000000000e+00  1.5192081513437391e-02 -2.2169124110745564e-02 0.0000000000000000e+00  1.3329917159397313e-02 -1.9540422937695565e-02 0.0000000000000000e+00  1.0150164535561062e-02 -1.5133782258903270e-02 0.0000000000000000e+00  7.6793118262085012e-03 -1.2164548587578686e-02 0.0000000000000000e+00  7.1314095771364159e-03 -1.2287686432579683e-02 0.0000000000000000e+00  9.9817799288735767e-03 -1.8984319212070666e-02 0.0000000000000000e+00  9.7346105501334903e-03 -2.5246850736670445e-02 0.0000000000000000e+00  -4.2672453502738440e-03 -1.5506333040684979e-02 0.0000000000000000e+00  6.2973112363732708e-02 -1.4557234376146774e-01 0.0000000000000000e+00  2.7997334939589063e-03 -1.2663977277444029e-02 0.0000000000000000e+00  2.4691601179770164e-03 -5.9733819224223883e-03 0.0000000000000000e+00  8.5927327467528111e-03 -1.3128072277692979e-02 0.0000000000000000e+00  1.5510783386240965e-02 -2.2981722061041276e-02 0.0000000000000000e+00  2.2796285798338898e-02 -3.6418294638071655e-02 0.0000000000000000e+00  2.3270026199051858e-02 -4.7728533887588048e-02 0.0000000000000000e+00  1.7065035299038005e-02 -5.2679287619862895e-02 0.0000000000000000e+00  3.9472636606698109e-03 -3.5080739320223549e-02 0.0000000000000000e+00  -3.8558663490927247e-03 -3.2671591046600196e-02 0.0000000000000000e+00  -1.3864924611890596e-02 -4.1748176497772134e-02 0.0000000000000000e+00  -2.2430046642609208e-02 -4.3792496400479136e-02 0.0000000000000000e+00  -2.2721586439037891e-02 -3.4884616289046572e-02 0.0000000000000000e+00  -1.5879481269714408e-02 -2.2085690483035547e-02 0.0000000000000000e+00  -9.3523890514261160e-03 -1.3346402308531694e-02 0.0000000000000000e+00  -4.7253617263859808e-03 -9.0623938498540484e-03 0.0000000000000000e+00  -3.2432276227026642e-03 -1.3358800769361769e-02 0.0000000000000000e+00  -3.4512790721226482e-04 -3.4157153168112775e-03 0.0000000000000000e+00  6.0328114118116368e-03 -1.0181553205196063e-02 0.0000000000000000e+00  1.1584725190660823e-02 -1.7027671416479623e-02 0.0000000000000000e+00  2.1153514227086698e-02 -3.1101274864604542e-02 0.0000000000000000e+00  2.4335155675597065e-02 -4.3027097026747237e-02 0.0000000000000000e+00  4.0319156382525881e-02 -9.1743274703654690e-02 0.0000000000000000e+00  9.5761290271484736e-03 -4.3706437319447400e-02 0.0000000000000000e+00  -5.2999116239847027e-04 -2.6604260292745260e-02 0.0000000000000000e+00  -8.3543640893888223e-03 -3.6631671556580502e-02 0.0000000000000000e+00  -2.0627213681167600e-02 -4.7659969337840218e-02 0.0000000000000000e+00  -2.3791653371050422e-02 -4.0452985963803839e-02 0.0000000000000000e+00  -2.0131149647987696e-02 -2.8636274601029191e-02 0.0000000000000000e+00  -1.2217337944654242e-02 -1.6851522733354364e-02 0.0000000000000000e+00  -6.5677286117585588e-03 -1.0444694384162309e-02 0.0000000000000000e+00  -5.4783840756763430e-04 -4.7152950570924215e-03 0.0000000000000000e+00  -4.2130505061436632e-02 -2.9876191721135942e-03 0.0000000000000000e+00  -7.4718056041792408e-02 1.2382207374770196e-01 0.0000000000000000e+00  -4.0922275830414974e-02 5.4096502374001390e-02 0.0000000000000000e+00  1.7356600697261915e-01 -2.5339738242600923e-02 0.0000000000000000e+00  -3.6448495151861354e-02 7.5330535924436101e-02 0.0000000000000000e+00  -2.5298447668685300e-02 2.5493705368299698e-02 0.0000000000000000e+00  -1.8859013949792841e-01 4.9942090056027157e-02 0.0000000000000000e+00  -4.1802743701574163e-02 3.7658342656835941e-03 0.0000000000000000e+00  -4.0826743541991714e-02 1.1054067029004740e-01 0.0000000000000000e+00  9.6771142777376029e-02 -1.5355315383583343e-01 0.0000000000000000e+00  -3.8273748088309363e-02 7.4767393599977125e-02 0.0000000000000000e+00  4.2517962640455757e-02 -3.0284242307391126e-02 0.0000000000000000e+00  1.6129827754126108e-01 -6.5860309296159381e-02 0.0000000000000000e+00  2.5606484239770810e-01 -1.0461832141522641e-01 0.0000000000000000e+00  -2.1819199610798617e-01 2.6332241809775025e-03 0.0000000000000000e+00  -1.5087671577918947e-02 4.7633188619179831e-03 0.0000000000000000e+00  -9.9915582087812677e-02 -3.4845674478657445e-03 0.0000000000000000e+00  -7.8073136229448323e-02 5.2507109200282337e-03 0.0000000000000000e+00  -2.6608157061721302e-02 -1.3334266644025796e-03 0.0000000000000000e+00  -1.4972682331804175e-02 -1.0682715609846426e-03 0.0000000000000000e+00  -1.1494869993308161e-02 -8.1445471409683672e-04 0.0000000000000000e+00  -1.2154981037061896e-02 -4.6398197513490520e-04 0.0000000000000000e+00  -1.2542818200952145e-02 -6.1772220825471940e-05 0.0000000000000000e+00  -1.2538073553537385e-02 2.5726303316204595e-04 0.0000000000000000e+00  -1.1980730036361938e-02 6.3208597004781508e-04 0.0000000000000000e+00  -1.1491448536954815e-02 9.1975838281275145e-04 0.0000000000000000e+00  -1.5292630695497397e-02 1.2194237097120145e-03 0.0000000000000000e+00  -2.9355572755711504e-02 1.6507238866449092e-03 0.0000000000000000e+00  -3.9815214258263232e-02 3.3314353867080486e-03 0.0000000000000000e+00  -3.1655373963819615e-02 -1.5612178676832555e-03 0.0000000000000000e+00  -1.2340787986329441e-02 -8.8056454309325062e-04 0.0000000000000000e+00  -1.2791896486633873e-02 -1.8446492682783590e-04 0.0000000000000000e+00  -1.2898471489723623e-02 3.9439064879834767e-04 0.0000000000000000e+00  -1.2527457536528196e-02 1.0078763000869614e-03 0.0000000000000000e+00  -3.1892346670788690e-02 1.7210603035962616e-03 0.0000000000000000e+00  -1.8321791088405905e-02 -1.3580805578635483e-03 0.0000000000000000e+00  -1.1460033358837524e-02 -7.7665746342113354e-04 0.0000000000000000e+00  -1.2512131356094988e-02 9.8563434204701380e-05 0.0000000000000000e+00  -1.0744107437410916e-02 8.8000818028100176e-04 0.0000000000000000e+00  -1.8528433274832688e-02 1.5118879913902871e-03 0.0000000000000000e+00  1.1835189511357788e-01 1.4705065937248931e-02 0.0000000000000000e+00  -4.1438048969067325e-02 -4.9779902988565397e-02 0.0000000000000000e+00  -7.0983592639945484e-02 -1.1743021544869101e-01 0.0000000000000000e+00  -4.5575291911094697e-02 -4.4977252374329068e-03 0.0000000000000000e+00  -1.5363453365094953e-01 -4.1202749785818032e-02 0.0000000000000000e+00  -2.9676820869877094e-02 -2.8851498593157804e-02 0.0000000000000000e+00  -3.1589313940632781e-02 -6.5183389422918542e-02 0.0000000000000000e+00  -2.7355002979850825e-02 -5.5748995791078879e-03 0.0000000000000000e+00  -1.7239260356246663e-01 2.2462725996995163e-03 0.0000000000000000e+00  1.8560689140063319e-01 6.6074784766318770e-02 0.0000000000000000e+00  1.2122175572213421e-01 4.7788763823310924e-02 0.0000000000000000e+00  2.6931096029524024e-02 1.6322286137994295e-02 0.0000000000000000e+00  -3.8026650438825624e-02 -7.1065347853780408e-02 0.0000000000000000e+00  8.1318249425856790e-02 1.2269427669765816e-01 0.0000000000000000e+00  -3.6141048407554423e-02 -9.9648534659819987e-02 0.0000000000000000e+00  3.4900631339185508e-05 1.5247548416711557e-05 0.0000000000000000e+00  -2.7649594171710862e-05 -1.3087316452605878e-05 0.0000000000000000e+00  1.5588693671715053e-05 -1.6415285778365908e-06 0.0000000000000000e+00  1.3756591910579004e-05 -2.4439384044711750e-05 0.0000000000000000e+00  -1.2143220477160057e-05 2.3065155129505033e-05 0.0000000000000000e+00  -2.6771065452432026e-05 3.7126283538470978e-06 0.0000000000000000e+00  -2.6215590584505148e-06 -4.4544348378780413e-06 0.0000000000000000e+00  1.7757984043102916e-06 3.2840537138412102e-06 0.0000000000000000e+00  8.9593085454119103e-07 -1.7931657027527018e-06 0.0000000000000000e+00  -4.4225785361047982e-07 1.0143376860308213e-06 0.0000000000000000e+00  -1.8487540859970757e-06 2.3570849978599568e-05 0.0000000000000000e+00  -4.0587238835983891e-06 1.6356863717766813e-05 0.0000000000000000e+00  -1.8175377279970009e-05 3.9072615629223768e-05 0.0000000000000000e+00  -3.4954949915773012e-07 -5.1970836188376955e-06 0.0000000000000000e+00  1.7854579850032988e-06 -1.1710818675882357e-05 0.0000000000000000e+00  -7.4255843272917708e-08 -2.4433261715652041e-06 0.0000000000000000e+00  -6.9087331300663130e-05 6.6973927530288724e-05 0.0000000000000000e+00  9.5542117371027828e-06 2.5405338299392777e-06 0.0000000000000000e+00  -1.4240793031371148e-05 -3.5687143023696577e-08 0.0000000000000000e+00  1.4387044691767078e-04 -2.6913772868323747e-05 0.0000000000000000e+00  8.9348502800068100e-05 9.0848789834653337e-05 0.0000000000000000e+00  3.1774916410776241e-05 -5.9165067612418533e-05 0.0000000000000000e+00  -1.2397829742751243e-05 4.8762244877273561e-06 0.0000000000000000e+00  2.2671709300291204e-06 -2.4015360634893150e-05 0.0000000000000000e+00  4.6109899802612725e-06 -1.6868091845057454e-05 0.0000000000000000e+00  -7.4366907362944301e-09 8.8949206002538654e-07 0.0000000000000000e+00  5.4383826798912792e-06 2.0354142820405949e-05 0.0000000000000000e+00  -2.3186171752890384e-06 -2.7278760150460351e-05 0.0000000000000000e+00  3.3804953376217101e-05 4.0256342803778706e-06 0.0000000000000000e+00  2.3025329810255038e-06 2.5519108878754466e-05 0.0000000000000000e+00  1.2446876563688953e-05 2.1533292389033079e-05 0.0000000000000000e+00  -3.3215365543278501e-05 1.7559560614435712e-05 0.0000000000000000e+00  -2.1104758818501818e-05 -3.5809318711556504e-05 0.0000000000000000e+00  -2.3842403165763713e-05 -2.6067823036219018e-06 0.0000000000000000e+00  4.4992201931574129e-05 -2.4554910844827462e-05 0.0000000000000000e+00  -6.6338564212021803e-06 -2.1515840415310565e-05 0.0000000000000000e+00  1.6621816088407493e-05 -3.4564965415023128e-05 0.0000000000000000e+00  5.3675616228318905e-07 4.5793781766688521e-06 0.0000000000000000e+00  -1.1532630633368630e-05 -2.1643096684137502e-05 0.0000000000000000e+00  4.5613818514772764e-06 1.3452447354384716e-05 0.0000000000000000e+00  -5.2073