<?xml version="1.0"?>
<VTKFile type="UnstructuredGrid"  version="0.1"  >
<UnstructuredGrid>
<Piece  NumberOfPoints="4153" NumberOfCells="8064">
<Points>
<DataArray  type="Float64"  NumberOfComponents="3"  format="ascii">-0.4249999999999999 -0.5 0  -0.02499999999999988 -0.5 0  -0.07499999999999987 -0.5 0  -0.1249999999999998 -0.5 0  -0.1749999999999998 -0.5 0  -0.2249999999999998 -0.5 0  -0.2749999999999998 -0.5 0  -0.3249999999999998 -0.5 0  -0.3749999999999999 -0.5 0  0.02500000000000016 -0.5 0  -0.4749999999999998 -0.5 0  -0.5249999999999998 -0.5 0  -0.5749999999999998 -0.5 0  -0.6249999999999999 -0.5 0  -0.6749999999999999 -0.5 0  -0.725 -0.5 0  -0.775 -0.5 0  0.8 -0.5 0  0.07500000000000025 -0.5 0  0.1250000000000003 -0.5 0  0.1750000000000004 -0.5 0  0.2250000000000004 -0.5 0  0.2750000000000004 -0.5 0  0.3250000000000003 -0.5 0  0.3750000000000001 -0.5 0  0.4250000000000002 -0.5 0  0.4750000000000002 -0.5 0  0.5250000000000001 -0.5 0  0.5750000000000002 -0.5 0  0.625 -0.5 0  0.675 -0.5 0  0.725 -0.5 0  0.775 -0.5 0  0.75 -0.5 0  -0.75 -0.5 0  -0.6499999999999999 -0.5 0  -0.5499999999999998 -0.5 0  -0.4499999999999998 -0.5 0  -0.3499999999999999 -0.5 0  -0.2499999999999998 -0.5 0  -0.1499999999999998 -0.5 0  -0.04999999999999988 -0.5 0  0.7 -0.5 0  0.1500000000000004 -0.5 0  0.2500000000000003 -0.5 0  0.3500000000000002 -0.5 0  0.4500000000000002 -0.5 0  0.5500000000000002 -0.5 0  0.65 -0.5 0  0.0500000000000002 -0.5 0  -0.8 -0.5 0  0.6000000000000001 -0.5 0  0.5000000000000002 -0.5 0  0.4000000000000001 -0.5 0  0.3000000000000003 -0.5 0  0.2000000000000004 -0.5 0  0.1000000000000003 -0.5 0  1.110223024625157e-16 -0.5 0  -0.09999999999999987 -0.5 0  -0.1999999999999998 -0.5 0  -0.2999999999999998 -0.5 0  -0.3999999999999999 -0.5 0  -0.4999999999999998 -0.5 0  -0.5999999999999999 -0.5 0  -0.7 -0.5 0  1 -0.3 0  0.8765366864730179 -0.4847759065022574 0  0.9414213562373094 -0.4414213562373097 0  0.9847759065022573 -0.3765366864730181 0  0.838268343236509 -0.4923879532511287 0  0.9089790213551636 -0.4630986313697836 0  0.9630986313697834 -0.4089790213551639 0  0.9923879532511286 -0.338268343236509 0  0.8191341716182545 -0.4961939766255644 0  0.8574025148547635 -0.488581929876693 0  0.8927578539140908 -0.4739372689360205 0  0.9252001887962364 -0.4522599938035466 0  0.9522599938035463 -0.4252001887962368 0  0.9739372689360204 -0.392757853914091 0  0.9885819298766929 -0.3574025148547635 0  0.9961939766255643 -0.3191341716182545 0  1 -0.275 0  1 0.275 0  1 0.225 0  1 0.175 0  1 0.125 0  1 0.07499999999999994 0  1 0.02499999999999987 0  1 -0.0250000000000002 0  1 -0.07500000000000026 0  1 -0.1250000000000003 0  1 -0.1750000000000002 0  1 -0.2250000000000001 0  1 0.3 0  1 0.25 0  1 0.15 0  1 0.04999999999999991 0  1 -0.05000000000000023 0  1 -0.1500000000000002 0  1 -0.2500000000000001 0  1 0.2 0  1 0.09999999999999998 0  1 -1.665334536937735e-16 0  1 -0.1000000000000003 0  1 -0.2000000000000002 0  0.8 0.5 0  0.9847759065022573 0.3765366864730181 0  0.9414213562373094 0.4414213562373097 0  0.8765366864730179 0.4847759065022574 0  0.9923879532511286 0.338268343236509 0  0.9630986313697834 0.4089790213551639 0  0.9089790213551636 0.4630986313697836 0  0.838268343236509 0.4923879532511287 0  0.9961939766255643 0.3191341716182545 0  0.9885819298766929 0.3574025148547635 0  0.9739372689360204 0.392757853914091 0  0.9522599938035463 0.4252001887962368 0  0.9252001887962364 0.4522599938035466 0  0.8927578539140908 0.4739372689360205 0  0.8574025148547635 0.488581929876693 0  0.8191341716182545 0.4961939766255644 0  -0.02500000000000016 0.5 0  0.725 0.5 0  0.6749999999999999 0.5 0  0.6249999999999999 0.5 0  0.5749999999999998 0.5 0  0.5249999999999998 0.5 0  0.4749999999999998 0.5 0  0.4249999999999999 0.5 0  0.3749999999999999 0.5 0  0.3249999999999998 0.5 0  0.2749999999999998 0.5 0  0.2249999999999998 0.5 0  0.1749999999999998 0.5 0  0.1249999999999998 0.5 0  0.07499999999999987 0.5 0  0.02499999999999988 0.5 0  0.775 0.5 0  -0.07500000000000025 0.5 0  -0.1250000000000003 0.5 0  -0.1750000000000004 0.5 0  -0.2250000000000004 0.5 0  -0.2750000000000004 0.5 0  -0.3250000000000003 0.5 0  -0.3750000000000001 0.5 0  -0.4250000000000002 0.5 0  -0.4750000000000002 0.5 0  -0.5250000000000001 0.5 0  -0.5750000000000002 0.5 0  -0.625 0.5 0  -0.675 0.5 0  -0.725 0.5 0  -0.775 0.5 0  -0.8 0.5 0  -0.75 0.5 0  -0.65 0.5 0  -0.5500000000000002 0.5 0  -0.4500000000000002 0.5 0  -0.3500000000000002 0.5 0  -0.2500000000000003 0.5 0  -0.1500000000000004 0.5 0  -0.0500000000000002 0.5 0  0.04999999999999988 0.5 0  0.1499999999999998 0.5 0  0.2499999999999998 0.5 0  0.3499999999999999 0.5 0  0.4499999999999998 0.5 0  0.5499999999999998 0.5 0  0.6499999999999999 0.5 0  0.75 0.5 0  -0.7 0.5 0  -0.6000000000000001 0.5 0  -0.5000000000000002 0.5 0  -0.4000000000000001 0.5 0  -0.3000000000000003 0.5 0  -0.2000000000000004 0.5 0  -0.1000000000000003 0.5 0  -1.110223024625157e-16 0.5 0  0.09999999999999987 0.5 0  0.1999999999999998 0.5 0  0.2999999999999998 0.5 0  0.3999999999999999 0.5 0  0.4999999999999998 0.5 0  0.5999999999999999 0.5 0  0.7 0.5 0  -1 0.3 0  -0.8765366864730181 0.4847759065022573 0  -0.9414213562373097 0.4414213562373094 0  -0.9847759065022574 0.3765366864730179 0  -0.838268343236509 0.4923879532511287 0  -0.9089790213551638 0.4630986313697834 0  -0.9630986313697836 0.4089790213551636 0  -0.9923879532511287 0.338268343236509 0  -0.8191341716182545 0.4961939766255643 0  -0.8574025148547635 0.488581929876693 0  -0.892757853914091 0.4739372689360203 0  -0.9252001887962368 0.4522599938035464 0  -0.9522599938035466 0.4252001887962365 0  -0.9739372689360205 0.3927578539140908 0  -0.9885819298766931 0.3574025148547634 0  -0.9961939766255643 0.3191341716182545 0  -1 0.275 0  -1 -0.275 0  -1 -0.225 0  -1 -0.175 0  -1 -0.125 0  -1 -0.07499999999999994 0  -1 -0.02499999999999987 0  -1 0.0250000000000002 0  -1 0.07500000000000026 0  -1 0.1250000000000003 0  -1 0.1750000000000002 0  -1 0.2250000000000001 0  -1 -0.3 0  -1 -0.25 0  -1 -0.15 0  -1 -0.04999999999999991 0  -1 0.05000000000000023 0  -1 0.1500000000000002 0  -1 0.2500000000000001 0  -1 -0.2 0  -1 -0.09999999999999998 0  -1 1.665334536937735e-16 0  -1 0.1000000000000003 0  -1 0.2000000000000002 0  -0.9847759065022574 -0.3765366864730179 0  -0.9414213562373096 -0.4414213562373094 0  -0.8765366864730181 -0.4847759065022573 0  -0.9923879532511287 -0.338268343236509 0  -0.9630986313697836 -0.4089790213551636 0  -0.9089790213551638 -0.4630986313697834 0  -0.838268343236509 -0.4923879532511287 0  -0.9961939766255643 -0.3191341716182545 0  -0.9885819298766931 -0.3574025148547634 0  -0.9739372689360205 -0.3927578539140908 0  -0.9522599938035465 -0.4252001887962365 0  -0.9252001887962367 -0.4522599938035464 0  -0.892757853914091 -0.4739372689360203 0  -0.8574025148547635 -0.488581929876693 0  -0.8191341716182545 -0.4961939766255643 0  -0.3000000000000003 0.3267949192431125 0  0.3181343990330772 -0.3439416921723297 0  -0.08257249764926196 -0.3383308877677023 0  -0.50979744334887 -0.3255818518047211 0  0.5060441378325211 0.3274561643884037 0  0.1037631564626732 0.3131559137665553 0  0.843149210446875 -0.1923130104173427 0  -0.8418263458721231 0.1927503215247096 0  -0.8408809410250262 -0.1897116835785854 0  0.8409071959036176 0.1896235182386696 0  0.705967194587281 0.3354524287114743 0  0.6276370409402552 0.1658336215477063 0  0.4215070288293651 0.1446794873901968 0  0.5369019087152576 -0.01677883310260353 0  0.3378219718963524 -0.0304857337078401 0  0.7359191653189867 -0.0003779706345871367 0  0.2206709281181736 0.1292871338121241 0  0.1390057666500616 -0.05482518983879574 0  0.02156604114872933 0.1091113821954512 0  -0.05991856886335568 -0.07544049830328706 0  -0.2091026540303009 0.113218101697482 0  -0.2557387210741711 -0.08957125969209863 0  -0.3742518736706093 0.02381865171750689 0  -0.7065883696935737 -0.3351547375041799 0  -0.6319769825415822 -0.1640183941417108 0  -0.7379485134301987 -0.0003221286420197649 0  -0.6263925638672921 0.1747922261462193 0  0.7000000000000003 -0.3471147448144379 0  -0.09731754444756222 0.2985839976753261 0  -0.7019016658227 0.339872535812372 0  -0.5036626740707574 0.3416097573515475 0  0.3086642085404555 0.31909644989288 0  0.4355889359290377 -0.1794947220360297 0  0.1233906847482294 -0.33992001942789 0  -0.2910439982708135 -0.2942818290560931 0  0.6252598700683595 -0.1832373653183336 0  -0.4390211493546888 -0.1414717198202583 0  -0.5445756908252299 0.01225332998817602 0  0.5094027625036279 -0.3483114655372777 0  -0.8570298735864267 0.3548088427148782 0  0.2432245006188761 -0.181388344807941 0  0.8576591493456415 0.3532994606374906 0  -0.8577781333911819 -0.3532575554640149 0  0.856914113336837 -0.3561698222938181 0  -0.4103395160999327 0.186370105143853 0  0.04059278020228735 -0.1932320619509051 0  -0.894759031223147 0.000141425932117211 0  0.8948577502800618 -0.0001596971477125707 0  -0.1430838089440986 -0.1942958300671257 0  -0.4774576034625814 0.09931171756601452 0  -0.5183660399836124 0.1805811656450362 0  -0.585484127346261 0.09352277806719765 0  -0.3551697580499665 0.2565825121934828 0  -0.3097210850651168 0.1497941034206675 0  -0.2545513270151506 0.2200065104702973 0  -0.3922956948852711 0.10509437843068 0  -0.4594137822479196 0.01803599085284146 0  -0.1532100992389315 0.205901049686404 0  -0.1986587722237813 0.3126894584592193 0  -0.1486587722237813 0.399291998837663 0  -0.04865877222378117 0.399291998837663 0  0.5673313162859936 -0.2657744154278056 0  0.6047013812518141 -0.3477131051758577 0  0.6626299350341799 -0.2651760550663858 0  0.4724958492163328 -0.2639030937866537 0  0.5304244029986986 -0.1813660436771817 0  -0.3650325738127511 -0.2178767744381757 0  -0.4744092963517794 -0.2335267858124897 0  -0.4004207208098418 -0.3099318404304071 0  -0.3473799352144299 -0.1155214897561785 0  -0.2733913596724923 -0.1919265443740958 0  0.06266459880570127 0.2111336479810033 0  0.1211184846334515 0.1191992580037876 0  0.1622170422904234 0.2212215237893397 0  
[...]
<PointData  Vectors="f_45"> 
<DataArray  type="Float64"  Name="f_45"  NumberOfComponents="3" format="ascii">-2.2360679779553599e-01 1.5245313768334034e-10 0.0000000000000000e+00  -2.2360679775050962e-01 -3.8219900229821043e-11 0.0000000000000000e+00  -2.2360679774993761e-01 7.1729650318852828e-12 0.0000000000000000e+00  -2.2360679775071340e-01 5.2792961881791396e-11 0.0000000000000000e+00  -2.2360679775175862e-01 9.7138752069862993e-11 0.0000000000000000e+00  -2.2360679776577128e-01 1.3786564240933613e-10 0.0000000000000000e+00  -2.2360679777392986e-01 1.7323715979576619e-10 0.0000000000000000e+00  -2.2360679778350936e-01 2.0374727192157141e-10 0.0000000000000000e+00  -2.2360679779644649e-01 2.2340635632071816e-10 0.0000000000000000e+00  -2.2360679775236336e-01 -8.1525113478553974e-11 0.0000000000000000e+00  -2.2360679806753683e-01 -1.1143625151144133e-09 0.0000000000000000e+00  -2.2360680174349673e-01 -1.9021529755587987e-08 0.0000000000000000e+00  -2.2360685287554061e-01 -2.6868006371226742e-07 0.0000000000000000e+00  -2.2360756494924605e-01 -3.7462330718056215e-06 0.0000000000000000e+00  -2.2361748294000969e-01 -5.2182604214833395e-05 0.0000000000000000e+00  -2.2375562262936868e-01 -7.2681470334317114e-04 0.0000000000000000e+00  -2.2567966038784784e-01 -1.0123229091789372e-02 0.0000000000000000e+00  -2.1587076912237188e-01 -3.7780409807148266e-02 0.0000000000000000e+00  -2.2360679775518544e-01 -1.2124339986366700e-10 0.0000000000000000e+00  -2.2360679775857650e-01 -1.5639926935221289e-10 0.0000000000000000e+00  -2.2360679776240414e-01 -1.8652908383017906e-10 0.0000000000000000e+00  -2.2360679776393397e-01 -2.1172185562301260e-10 0.0000000000000000e+00  -2.2360679776690370e-01 -2.3258539605986112e-10 0.0000000000000000e+00  -2.2360679776962031e-01 -2.4934267456745952e-10 0.0000000000000000e+00  -2.2360679777388698e-01 -2.5727331299793487e-10 0.0000000000000000e+00  -2.2360679779169113e-01 -1.7773201193288038e-10 0.0000000000000000e+00  -2.2360679805733122e-01 1.0967222679177069e-09 0.0000000000000000e+00  -2.2360680173018571e-01 1.9009350433071049e-08 0.0000000000000000e+00  -2.2360685285817042e-01 2.6867188707351886e-07 0.0000000000000000e+00  -2.2360756494209122e-01 3.7462273308524358e-06 0.0000000000000000e+00  -2.2361748292878689e-01 5.2182601025496925e-05 0.0000000000000000e+00  -2.2375562261363835e-01 7.2681470483018716e-04 0.0000000000000000e+00  -2.2567966035298334e-01 1.0123229106156555e-02 0.0000000000000000e+00  -2.2305137601639288e-01 -2.7125115979909345e-03 0.0000000000000000e+00  -2.2305137603573125e-01 2.7125115870063536e-03 0.0000000000000000e+00  -2.2360393472257872e-01 1.3982736661455119e-05 0.0000000000000000e+00  -2.2360678303234871e-01 7.2377025125611279e-08 0.0000000000000000e+00  -2.2360679770694847e-01 6.3424733322143489e-10 0.0000000000000000e+00  -2.2360679778612100e-01 2.1991806562495141e-10 0.0000000000000000e+00  -2.2360679776898065e-01 1.5567907167301538e-10 0.0000000000000000e+00  -2.2360679775230402e-01 7.4852671066410120e-11 0.0000000000000000e+00  -2.2360679775006154e-01 -1.5663323471129261e-11 0.0000000000000000e+00  -2.2356692031011235e-01 -1.9474991894385125e-04 0.0000000000000000e+00  -2.2360679776019293e-01 -1.7212150862171307e-10 0.0000000000000000e+00  -2.2360679776556738e-01 -2.2273222179332460e-10 0.0000000000000000e+00  -2.2360679777001755e-01 -2.5931833670574756e-10 0.0000000000000000e+00  -2.2360679769643010e-01 -6.5511254997089483e-10 0.0000000000000000e+00  -2.2360678301838890e-01 -7.2387055075447897e-08 0.0000000000000000e+00  -2.2360393471182283e-01 -1.3982741284567735e-05 0.0000000000000000e+00  -2.2360679775368442e-01 -1.0189684494825214e-10 0.0000000000000000e+00  -2.1587076914958209e-01 3.7780409804645247e-02 0.0000000000000000e+00  -2.2360659221964296e-01 -1.0042194353127122e-06 0.0000000000000000e+00  -2.2360679671488470e-01 -5.4712311303290179e-09 0.0000000000000000e+00  -2.2360679776517925e-01 -2.9769329955121269e-10 0.0000000000000000e+00  -2.2360679776817385e-01 -2.4177483104354939e-10 0.0000000000000000e+00  -2.2360679776278397e-01 -1.9992438922794439e-10 0.0000000000000000e+00  -2.2360679775680858e-01 -1.3943338328945154e-10 0.0000000000000000e+00  -2.2360679775134976e-01 -6.0171098881688582e-11 0.0000000000000000e+00  -2.2360679775026598e-01 3.0050257900239804e-11 0.0000000000000000e+00  -2.2360679775843356e-01 1.1514122231078728e-10 0.0000000000000000e+00  -2.2360679777826575e-01 1.8948606235759224e-10 0.0000000000000000e+00  -2.2360679778378575e-01 2.6977739124923451e-10 0.0000000000000000e+00  -2.2360679672683012e-01 5.4565499517533740e-09 0.0000000000000000e+00  -2.2360659223313931e-01 1.0042130332937400e-06 0.0000000000000000e+00  -2.2356692032358122e-01 1.9474991474322420e-04 0.0000000000000000e+00  2.1587076914649261e-01 -3.7780409709455350e-02 0.0000000000000000e+00  -1.4568495743807880e-01 -1.4582861256707924e-01 0.0000000000000000e+00  2.3175127477336249e-11 -2.0595938362933267e-01 0.0000000000000000e+00  1.4568495748089616e-01 -1.4582861250528834e-01 0.0000000000000000e+00  -2.0289890423856211e-01 -8.6461173573037370e-02 0.0000000000000000e+00  -8.3752311648772379e-02 -2.0220120959715607e-01 0.0000000000000000e+00  8.3752311723201481e-02 -2.0220120956154530e-01 0.0000000000000000e+00  2.0289890426845986e-01 -8.6461173477433567e-02 0.0000000000000000e+00  -2.0518619708771191e-01 -9.7295529132492564e-02 0.0000000000000000e+00  -2.2273264879276872e-01 -7.0283480454391908e-02 0.0000000000000000e+00  -7.0996608928280525e-02 -2.2287115869056784e-01 0.0000000000000000e+00  -1.0741784549699471e-01 -2.0783846738374953e-01 0.0000000000000000e+00  1.0741784555896021e-01 -2.0783846731858230e-01 0.0000000000000000e+00  7.0996609000403776e-02 -2.2287115868605967e-01 0.0000000000000000e+00  2.2273264878489560e-01 -7.0283480361006817e-02 0.0000000000000000e+00  2.0518619713199068e-01 -9.7295529045302517e-02 0.0000000000000000e+00  2.2567966028263312e-01 1.0123229230177709e-02 0.0000000000000000e+00  2.2567966028532996e-01 -1.0123229223717138e-02 0.0000000000000000e+00  2.2375562257884130e-01 -7.2681485808215188e-04 0.0000000000000000e+00  2.2361748289979758e-01 -5.2182785867592521e-05 0.0000000000000000e+00  2.2360756491516154e-01 -3.7464355343987757e-06 0.0000000000000000e+00  2.2360685284958812e-01 -2.6881814436325933e-07 0.0000000000000000e+00  2.2360680198840377e-01 -1.7900411137639942e-08 0.0000000000000000e+00  2.2360680198839822e-01 1.7905512780859992e-08 0.0000000000000000e+00  2.2360685284961831e-01 2.6882315618459379e-07 0.0000000000000000e+00  2.2360756491451528e-01 3.7464402852570755e-06 0.0000000000000000e+00  2.2361748289880787e-01 5.2182790263984564e-05 0.0000000000000000e+00  2.2375562257740947e-01 7.2681486261271259e-04 0.0000000000000000e+00  2.1587076914783460e-01 3.7780409709222432e-02 0.0000000000000000e+00  2.2305137600635078e-01 2.7125114540436637e-03 0.0000000000000000e+00  2.2360393468351031e-01 1.3982538429123611e-05 0.0000000000000000e+00  2.2360678291567901e-01 7.1753526314511085e-08 0.0000000000000000e+00  2.2360678291563635e-01 -7.1748493098718477e-08 0.0000000000000000e+00  2.2360393468271894e-01 -1.3982533956079883e-05 0.0000000000000000e+00  2.2305137600326128e-01 -2.7125114524530619e-03 0.0000000000000000e+00  2.2356692028451425e-01 1.9474974753860703e-04 0.0000000000000000e+00  2.2360659218696816e-01 1.0039600640188334e-06 0.0000000000000000e+00  2.2360679563077682e-01 2.5565193303690513e-12 0.0000000000000000e+00  2.2360659218674794e-01 -1.0039554088481037e-06 0.0000000000000000e+00  2.2356692028304279e-01 -1.9474974374078386e-04 0.0000000000000000e+00  -2.1587076914954806e-01 3.7780409803125990e-02 0.0000000000000000e+00  1.4568495748541527e-01 1.4582861250576906e-01 0.0000000000000000e+00  7.6461984611173771e-12 2.0595938364488370e-01 0.0000000000000000e+00  -1.4568495746580670e-01 1.4582861260087690e-01 0.0000000000000000e+00  2.0289890426815282e-01 8.6461173480093856e-02 0.0000000000000000e+00  8.3752311721158323e-02 2.0220120956609577e-01 0.0000000000000000e+00  -8.3752311660229437e-02 2.0220120961474769e-01 0.0000000000000000e+00  -2.0289890425598026e-01 8.6461173575019729e-02 0.0000000000000000e+00  2.0518619713051112e-01 9.7295529049529456e-02 0.0000000000000000e+00  2.2273264877739082e-01 7.0283480360301576e-02 0.0000000000000000e+00  7.0996608993679766e-02 2.2287115868853827e-01 0.0000000000000000e+00  1.0741784555973134e-01 2.0783846730569444e-01 0.0000000000000000e+00  -1.0741784548300841e-01 2.0783846737800030e-01 0.0000000000000000e+00  -7.0996608925536706e-02 2.2287115865470319e-01 0.0000000000000000e+00  -2.2273264878025537e-01 7.0283480449490537e-02 0.0000000000000000e+00  -2.0518619707555649e-01 9.7295529120595220e-02 0.0000000000000000e+00  -2.2360679775043735e-01 2.3606912388321061e-11 0.0000000000000000e+00  -2.2375562262798002e-01 -7.2681470597756471e-04 0.0000000000000000e+00  -2.2361748293905864e-01 -5.2182606540423779e-05 0.0000000000000000e+00  -2.2360756494870132e-01 -3.7462346425313987e-06 0.0000000000000000e+00  -2.2360685287336990e-01 -2.6868030868655705e-07 0.0000000000000000e+00  -2.2360680174257996e-01 -1.9019355426584103e-08 0.0000000000000000e+00  -2.2360679806799288e-01 -1.1084278673218118e-09 0.0000000000000000e+00  -2.2360679780032219e-01 1.6415955327008282e-10 0.0000000000000000e+00  -2.2360679778479922e-01 2.4192640599075333e-10 0.0000000000000000e+00  -2.2360679777842121e-01 2.3203777216619262e-10 0.0000000000000000e+00  -2.2360679777381098e-01 2.1343432025384345e-10 0.0000000000000000e+00  -2.2360679776874076e-01 1.9099935128579701e-10 0.0000000000000000e+00  -2.2360679776614850e-01 1.6480070439151837e-10 0.0000000000000000e+00  -2.2360679776062606e-01 1.3449766090738262e-10 0.0000000000000000e+00  -2.2360679775589451e-01 1.0033907056395372e-10 0.0000000000000000e+00  -2.2360679775227099e-01 6.2864770409031330e-11 0.0000000000000000e+00  -2.2567966038469067e-01 -1.0123229094769488e-02 0.0000000000000000e+00  -2.2360679775012840e-01 -1.6138884024932853e-11 0.0000000000000000e+00  -2.2360679775231149e-01 -5.5373071149059569e-11 0.0000000000000000e+00  -2.2360679775712561e-01 -9.2428425966561722e-11 0.0000000000000000e+00  -2.2360679775668657e-01 -1.2682275150659679e-10 0.0000000000000000e+00  -2.2360679776125494e-01 -1.5832909555815179e-10 0.0000000000000000e+00  -2.2360679776580403e-01 -1.8560765537973405e-10 0.0000000000000000e+00  -2.2360679777245512e-01 -2.0351362472935309e-10 0.0000000000000000e+00  -2.2360679778699993e-01 -1.3294988003798046e-10 0.0000000000000000e+00  -2.2360679805478650e-01 1.1334329113246787e-09 0.0000000000000000e+00  -2.2360680172894887e-01 1.9039214475610450e-08 0.0000000000000000e+00  -2.2360685285781942e-01 2.6869597830317775e-07 0.0000000000000000e+00  -2.2360756494370543e-01 3.7462465400204110e-06 0.0000000000000000e+00  -2.2361748293226913e-01 5.2182615980420143e-05 0.0000000000000000e+00  -2.2375562261932824e-01 7.2681471448467466e-04 0.0000000000000000e+00  -2.2567966036622120e-01 1.0123229106225469e-02 0.0000000000000000e+00  -2.1587076913988582e-01 -3.7780409799640334e-02 0.0000000000000000e+00  -2.2305137602636782e-01 -2.7125115824415584e-03 0.0000000000000000e+00  -2.2360393471458806e-01 -1.3982724064875366e-05 0.0000000000000000e+00  -2.2360678301792986e-01 -7.2360212901572931e-08 0.0000000000000000e+00  -2.2360679769364103e-01 -6.1459555563477383e-10 0.0000000000000000e+00  -2.2360679776701481e-01 -2.0070894840216628e-10 0.0000000000000000e+00  -2.2360679775943157e-01 -1.4335433984527064e-10 0.0000000000000000e+00  -2.2360679775382661e-01 -7.4478865409253639e-11 0.0000000000000000e+00  -2.2360679774990169e-01 3.9160466229546240e-12 0.0000000000000000e+00  -2.2360679775393766e-01 8.2119831648282716e-11 0.0000000000000000e+00  -2.2360679776309697e-01 1.5018196809370945e-10 0.0000000000000000e+00  -2.2360679777164830e-01 2.0275614117098335e-10 0.0000000000000000e+00  -2.2360679777953210e-01 2.4298342890253119e-10 0.0000000000000000e+00  -2.2360679770663394e-01 6.4253182551266495e-10 0.0000000000000000e+00  -2.2360678303115805e-01 7.2377853640519457e-08 0.0000000000000000e+00  -2.2360393472171211e-01 1.3982734627071741e-05 0.0000000000000000e+00  -2.2305137603479283e-01 2.7125115848706158e-03 0.0000000000000000e+00  -2.2356692031518621e-01 -1.9474990472757414e-04 0.0000000000000000e+00  -2.2360659222183007e-01 -1.0041979770866034e-06 0.0000000000000000e+00  -2.2360679671309758e-01 -5.4380903689895873e-09 0.0000000000000000e+00  -2.2360679776392761e-01 -2.4899209457650732e-10 0.0000000000000000e+00  -2.2360679776337866e-01 -1.7282693501633184e-10 0.0000000000000000e+00  -2.2360679775718975e-01 -1.1178196443613139e-10 0.0000000000000000e+00  -2.2360679775085718e-01 -3.5929627085905314e-11 0.0000000000000000e+00  -2.2360679775118691e-01 4.4517351776962537e-11 0.0000000000000000e+00  -2.2360679775812797e-01 1.1787694813262562e-10 0.0000000000000000e+00  -2.2360679776800660e-01 1.7866004500653188e-10 0.0000000000000000e+00  -2.2360679777601053e-01 2.2352386937879857e-10 0.0000000000000000e+00  -2.2360679777578996e-01 2.8338498505173734e-10 0.0000000000000000e+00  -2.2360679672633280e-01 5.4603934591201074e-09 0.0000000000000000e+00  -2.2360659223253296e-01 1.0042120043582096e-06 0.0000000000000000e+00  -2.2356692032254430e-01 1.9474991231857090e-04 0.0000000000000000e+00  2.1587076914584197e-01 -3.7780409713197412e-02 0.0000000000000000e+00  -1.4568495745469748e-01 -1.4582861258100446e-01 0.0000000000000000e+00  1.4273729177338024e-11 -2.0595938363853930e-01 0.0000000000000000e+00  1.4568495748339852e-01 -1.4582861251092188e-01 0.0000000000000000e+00  -2.0289890424900436e-01 -8.6461173569123570e-02 0.0000000000000000e+00  -8.3752311658113199e-02 -2.0220120960456484e-01 0.0000000000000000e+00  8.3752311719523811e-02 -2.0220120956680698e-01 0.0000000000000000e+00  2.0289890426804785e-01 -8.6461173483103990e-02 0.0000000000000000e+00  -2.0518619708312388e-01 -9.7295529122073551e-02 0.0000000000000000e+00  -2.2273264878523771e-01 -7.0283480446811139e-02 0.0000000000000000e+00  -7.0996608929917659e-02 -2.2287115867239005e-01 0.0000000000000000e+00  -1.0741784549315070e-01 -2.0783846737649700e-01 0.0000000000000000e+00  1.0741784555538529e-01 -2.0783846731452463e-01 0.0000000000000000e+00  7.0996608993342231e-02 -2.2287115868482091e-01 0.0000000000000000e+00  2.2273264878028434e-01 -7.0283480364300197e-02 0.0000000000000000e+00  2.0518619712891434e-01 -9.7295529050348759e-02 0.0000000000000000e+00  2.2567966028879954e-01 1.0123229221774499e-02 0.0000000000000000e+00  2.2567966028382896e-01 -1.0123229226814271e-02 0.0000000000000000e+00  2.2375562257798354e-01 -7.2681486221315352e-04 0.0000000000000000e+00  2.2361748289915251e-01 -5.2182790975128341e-05 0.0000000000000000e+00  2.2360756491461245e-01 -3.7464415766629535e-06 0.0000000000000000e+00  2.2360685284960327e-01 -2.6882505245349075e-07 0.0000000000000000e+00  2.2360680198839264e-01 -1.7908072941905535e-08 0.0000000000000000e+00  2.2360680198840863e-01 1.7897293822471757e-08 0.0000000000000000e+00  2.2360685284957818e-01 2.6881461782458229e-07 0.0000000000000000e+00  2.2360756491544043e-01 3.7464317195926357e-06 0.0000000000000000e+00  2.2361748290017491e-01 5.2182781985572666e-05 0.0000000000000000e+00  2.2375562257969908e-01 7.2681485465721522e-04 0.0000000000000000e+00  2.1587076914770228e-01 3.7780409706520600e-02 0.0000000000000000e+00  2.2305137600587824e-01 2.7125114503405777e-03 0.0000000000000000e+00  2.2360393468297277e-01 1.3982532841134550e-05 0.0000000000000000e+00  2.2360678291562780e-01 7.1746214367876462e-08 0.0000000000000000e+00  2.2360678291570935e-01 -7.1756896471301882e-08 0.0000000000000000e+00  2.2360393468376735e-01 -1.3982542369435343e-05 0.0000000000000000e+00  2.2305137600520533e-01 -2.7125114584872420e-03 0.0000000000000000e+00  2.2356692028388750e-01 1.9474974290076361e-04 0.0000000000000000e+00  2.2360659218674106e-01 1.0039535402258142e-06 0.0000000000000000e+00  2.2360679563077901e-01 -5.4111298899240759e-12 0.0000000000000000e+00  2.2360659218711867e-01 -1.0039639346764768e-06 0.0000000000000000e+00  2.2356692028464611e-01 -1.9474975154365676e-04 0.0000000000000000e+00  1.4568495748550200e-01 1.4582861250311910e-01 0.0000000000000000e+00  8.1816832295049251e-12 2.0595938364427380e-01 0.0000000000000000e+00  -1.4568495746472962e-01 1.4582861260225033e-01 0.0000000000000000e+00  2.0289890426835577e-01 8.6461173477601072e-02 0.0000000000000000e+00  8.3752311722546588e-02 2.0220120956464382e-01 0.0000000000000000e+00  -8.3752311658628495e-02 2.0220120961540838e-01 0.0000000000000000e+00  -2.0289890425544063e-01 8.6461173576899850e-02 0.0000000000000000e+00  2.0518619713212816e-01 9.7295529047788959e-02 0.0000000000000000e+00  2.2273264877777019e-01 7.0283480358246594e-02 0.0000000000000000e+00  7.0996608995583729e-02 2.2287115868965812e-01 0.0000000000000000e+00  1.0741784556165403e-01 2.0783846730448668e-01 0.0000000000000000e+00  -1.0741784548151068e-01 2.0783846738004913e-01 0.0000000000000000e+00  -7.0996608924221938e-02 2.2287115865470786e-01 0.0000000000000000e+00  -2.2273264878077467e-01 7.0283480451599531e-02 0.0000000000000000e+00  -2.0518619707466187e-01 9.7295529122299190e-02 0.0000000000000000e+00  -1.7189114038086328e-01 -1.4324186515912485e-01 0.0000000000000000e+00  -1.4305008852695378e-01 -1.7211609035735462e-01 0.0000000000000000e+00  -2.2340669692143400e-01 1.1500632183284190e-02 0.0000000000000000e+00  -1.0043971091291617e-01 2.0008505671121557e-01 0.0000000000000000e+00  -1.0308822907548834e-01 1.9871901907988751e-01 0.0000000000000000e+00  -1.9189775287352182e-01 1.1508752727728681e-01 0.0000000000000000e+00  1.8127162852090747e-01 -1.3120837031925081e-01 0.0000000000000000e+00  1.7641333557249522e-01 -1.3766991580443783e-01 0.0000000000000000e+00  1.8195765882418694e-01 1.3022586978362000e-01 0.0000000000000000e+00  1.7975802803463742e-01 1.3324776397422256e-01 0.0000000000000000e+00  -5.7142072786157454e-02 2.1650030676892995e-01 0.0000000000000000e+00  1.3336107814847836e-01 1.7974152701268956e-01 0.0000000000000000e+00  1.2006479633782183e-01 1.8896257744147266e-01 0.0000000000000000e+00  2.2338758072141884e-01 -1.3962975127449888e-02 0.0000000000000000e+00  2.2143572597140920e-01 -3.3056492105329613e-02 0.0000000000000000e+00  2.2373554577652985e-01 3.4064839245583943e-03 0.0000000000000000e+00  7.6733866904966586e-02 2.1051254952864754e-01 0.0000000000000000e+00  1.9494792215293724e-01 -1.1108329272825562e-01 0.0000000000000000e+00  -1.5815267698875801e-01 1.5974457770516542e-01 0.0000000000000000e+00  -2.0532532942742479e-01 -9.0166053062446960e-02 0.0000000000000000e+00  -3.3629052887757950e-02 -2.2172639168065306e-01 0.0000000000000000e+00  1.5737205453682088e-01 1.6005165795337559e-01 0.0000000000000000e+00  2.0886810411346443e-01 -8.0628408658754994e-02 0.0000000000000000e+00  -5.3950485569508932e-02 2.1732782451406393e-01 0.0000000000000000e+00  1.4348610628711078e-01 1.7178126754815598e-01 0.0000000000000000e+00  2.2362863812589900e-01 -7.7610843167165060e-03 0.0000000000000000e+00  1.1352023303663129e-01 -1.9290455694148320e-01 0.0000000000000000e+00  -7.2926817934338792e-02 -2.1170688639443166e-01 0.0000000000000000e+00  -2.2049054905550686e-01 -3.7891661546131335e-02 0.0000000000000000e+00  -7.0835130671564495e-02 -2.1240096667327960e-01 0.0000000000000000e+00  -1.3343811178789955e-01 -1.7967789098259773e-01 0.0000000000000000e+00  -1.3231985170433280e-01 1.8054748784098201e-01 0.0000000000000000e+00  9.7012260244027926e-02 -2.0172855536902873e-01 0.0000000000000000e+00  -1.8633206169852995e-01 -1.2386877497356855e-01 0.0000000000000000e+00  -1.3683208538526551e-01 1.7722995177504949e-01 0.0000000000000000e+00  1.2294893431275619e-01 -1.8704157075133468e-01 0.0000000000000000e+00  1.3679732281506568e-01 1.7727652498288016e-01 0.0000000000000000e+00  2.2103827827787936e-01 -3.5451276620849549e-02 0.0000000000000000e+00  -1.2068186882212316e-01 -1.8851762980639944e-01 0.0000000000000000e+00  2.7800250299641373e-02 -2.2208430970432821e-