<?xml version="1.0"?>
<VTKFile type="UnstructuredGrid"  version="0.1"  >
<UnstructuredGrid>
<Piece  NumberOfPoints="4153" NumberOfCells="8064">
<Points>
<DataArray  type="Float64"  NumberOfComponents="3"  format="ascii">-0.4249999999999999 -0.5 0  -0.02499999999999988 -0.5 0  -0.07499999999999987 -0.5 0  -0.1249999999999998 -0.5 0  -0.1749999999999998 -0.5 0  -0.2249999999999998 -0.5 0  -0.2749999999999998 -0.5 0  -0.3249999999999998 -0.5 0  -0.3749999999999999 -0.5 0  0.02500000000000016 -0.5 0  -0.4749999999999998 -0.5 0  -0.5249999999999998 -0.5 0  -0.5749999999999998 -0.5 0  -0.6249999999999999 -0.5 0  -0.6749999999999999 -0.5 0  -0.725 -0.5 0  -0.775 -0.5 0  0.8 -0.5 0  0.07500000000000025 -0.5 0  0.1250000000000003 -0.5 0  0.1750000000000004 -0.5 0  0.2250000000000004 -0.5 0  0.2750000000000004 -0.5 0  0.3250000000000003 -0.5 0  0.3750000000000001 -0.5 0  0.4250000000000002 -0.5 0  0.4750000000000002 -0.5 0  0.5250000000000001 -0.5 0  0.5750000000000002 -0.5 0  0.625 -0.5 0  0.675 -0.5 0  0.725 -0.5 0  0.775 -0.5 0  0.75 -0.5 0  -0.75 -0.5 0  -0.6499999999999999 -0.5 0  -0.5499999999999998 -0.5 0  -0.4499999999999998 -0.5 0  -0.3499999999999999 -0.5 0  -0.2499999999999998 -0.5 0  -0.1499999999999998 -0.5 0  -0.04999999999999988 -0.5 0  0.7 -0.5 0  0.1500000000000004 -0.5 0  0.2500000000000003 -0.5 0  0.3500000000000002 -0.5 0  0.4500000000000002 -0.5 0  0.5500000000000002 -0.5 0  0.65 -0.5 0  0.0500000000000002 -0.5 0  -0.8 -0.5 0  0.6000000000000001 -0.5 0  0.5000000000000002 -0.5 0  0.4000000000000001 -0.5 0  0.3000000000000003 -0.5 0  0.2000000000000004 -0.5 0  0.1000000000000003 -0.5 0  1.110223024625157e-16 -0.5 0  -0.09999999999999987 -0.5 0  -0.1999999999999998 -0.5 0  -0.2999999999999998 -0.5 0  -0.3999999999999999 -0.5 0  -0.4999999999999998 -0.5 0  -0.5999999999999999 -0.5 0  -0.7 -0.5 0  1 -0.3 0  0.8765366864730179 -0.4847759065022574 0  0.9414213562373094 -0.4414213562373097 0  0.9847759065022573 -0.3765366864730181 0  0.838268343236509 -0.4923879532511287 0  0.9089790213551636 -0.4630986313697836 0  0.9630986313697834 -0.4089790213551639 0  0.9923879532511286 -0.338268343236509 0  0.8191341716182545 -0.4961939766255644 0  0.8574025148547635 -0.488581929876693 0  0.8927578539140908 -0.4739372689360205 0  0.9252001887962364 -0.4522599938035466 0  0.9522599938035463 -0.4252001887962368 0  0.9739372689360204 -0.392757853914091 0  0.9885819298766929 -0.3574025148547635 0  0.9961939766255643 -0.3191341716182545 0  1 -0.275 0  1 0.275 0  1 0.225 0  1 0.175 0  1 0.125 0  1 0.07499999999999994 0  1 0.02499999999999987 0  1 -0.0250000000000002 0  1 -0.07500000000000026 0  1 -0.1250000000000003 0  1 -0.1750000000000002 0  1 -0.2250000000000001 0  1 0.3 0  1 0.25 0  1 0.15 0  1 0.04999999999999991 0  1 -0.05000000000000023 0  1 -0.1500000000000002 0  1 -0.2500000000000001 0  1 0.2 0  1 0.09999999999999998 0  1 -1.665334536937735e-16 0  1 -0.1000000000000003 0  1 -0.2000000000000002 0  0.8 0.5 0  0.9847759065022573 0.3765366864730181 0  0.9414213562373094 0.4414213562373097 0  0.8765366864730179 0.4847759065022574 0  0.9923879532511286 0.338268343236509 0  0.9630986313697834 0.4089790213551639 0  0.9089790213551636 0.4630986313697836 0  0.838268343236509 0.4923879532511287 0  0.9961939766255643 0.3191341716182545 0  0.9885819298766929 0.3574025148547635 0  0.9739372689360204 0.392757853914091 0  0.9522599938035463 0.4252001887962368 0  0.9252001887962364 0.4522599938035466 0  0.8927578539140908 0.4739372689360205 0  0.8574025148547635 0.488581929876693 0  0.8191341716182545 0.4961939766255644 0  -0.02500000000000016 0.5 0  0.725 0.5 0  0.6749999999999999 0.5 0  0.6249999999999999 0.5 0  0.5749999999999998 0.5 0  0.5249999999999998 0.5 0  0.4749999999999998 0.5 0  0.4249999999999999 0.5 0  0.3749999999999999 0.5 0  0.3249999999999998 0.5 0  0.2749999999999998 0.5 0  0.2249999999999998 0.5 0  0.1749999999999998 0.5 0  0.1249999999999998 0.5 0  0.07499999999999987 0.5 0  0.02499999999999988 0.5 0  0.775 0.5 0  -0.07500000000000025 0.5 0  -0.1250000000000003 0.5 0  -0.1750000000000004 0.5 0  -0.2250000000000004 0.5 0  -0.2750000000000004 0.5 0  -0.3250000000000003 0.5 0  -0.3750000000000001 0.5 0  -0.4250000000000002 0.5 0  -0.4750000000000002 0.5 0  -0.5250000000000001 0.5 0  -0.5750000000000002 0.5 0  -0.625 0.5 0  -0.675 0.5 0  -0.725 0.5 0  -0.775 0.5 0  -0.8 0.5 0  -0.75 0.5 0  -0.65 0.5 0  -0.5500000000000002 0.5 0  -0.4500000000000002 0.5 0  -0.3500000000000002 0.5 0  -0.2500000000000003 0.5 0  -0.1500000000000004 0.5 0  -0.0500000000000002 0.5 0  0.04999999999999988 0.5 0  0.1499999999999998 0.5 0  0.2499999999999998 0.5 0  0.3499999999999999 0.5 0  0.4499999999999998 0.5 0  0.5499999999999998 0.5 0  0.6499999999999999 0.5 0  0.75 0.5 0  -0.7 0.5 0  -0.6000000000000001 0.5 0  -0.5000000000000002 0.5 0  -0.4000000000000001 0.5 0  -0.3000000000000003 0.5 0  -0.2000000000000004 0.5 0  -0.1000000000000003 0.5 0  -1.110223024625157e-16 0.5 0  0.09999999999999987 0.5 0  0.1999999999999998 0.5 0  0.2999999999999998 0.5 0  0.3999999999999999 0.5 0  0.4999999999999998 0.5 0  0.5999999999999999 0.5 0  0.7 0.5 0  -1 0.3 0  -0.8765366864730181 0.4847759065022573 0  -0.9414213562373097 0.4414213562373094 0  -0.9847759065022574 0.3765366864730179 0  -0.838268343236509 0.4923879532511287 0  -0.9089790213551638 0.4630986313697834 0  -0.9630986313697836 0.4089790213551636 0  -0.9923879532511287 0.338268343236509 0  -0.8191341716182545 0.4961939766255643 0  -0.8574025148547635 0.488581929876693 0  -0.892757853914091 0.4739372689360203 0  -0.9252001887962368 0.4522599938035464 0  -0.9522599938035466 0.4252001887962365 0  -0.9739372689360205 0.3927578539140908 0  -0.9885819298766931 0.3574025148547634 0  -0.9961939766255643 0.3191341716182545 0  -1 0.275 0  -1 -0.275 0  -1 -0.225 0  -1 -0.175 0  -1 -0.125 0  -1 -0.07499999999999994 0  -1 -0.02499999999999987 0  -1 0.0250000000000002 0  -1 0.07500000000000026 0  -1 0.1250000000000003 0  -1 0.1750000000000002 0  -1 0.2250000000000001 0  -1 -0.3 0  -1 -0.25 0  -1 -0.15 0  -1 -0.04999999999999991 0  -1 0.05000000000000023 0  -1 0.1500000000000002 0  -1 0.2500000000000001 0  -1 -0.2 0  -1 -0.09999999999999998 0  -1 1.665334536937735e-16 0  -1 0.1000000000000003 0  -1 0.2000000000000002 0  -0.9847759065022574 -0.3765366864730179 0  -0.9414213562373096 -0.4414213562373094 0  -0.8765366864730181 -0.4847759065022573 0  -0.9923879532511287 -0.338268343236509 0  -0.9630986313697836 -0.4089790213551636 0  -0.9089790213551638 -0.4630986313697834 0  -0.838268343236509 -0.4923879532511287 0  -0.9961939766255643 -0.3191341716182545 0  -0.9885819298766931 -0.3574025148547634 0  -0.9739372689360205 -0.3927578539140908 0  -0.9522599938035465 -0.4252001887962365 0  -0.9252001887962367 -0.4522599938035464 0  -0.892757853914091 -0.4739372689360203 0  -0.8574025148547635 -0.488581929876693 0  -0.8191341716182545 -0.4961939766255643 0  -0.3000000000000003 0.3267949192431125 0  0.3181343990330772 -0.3439416921723297 0  -0.08257249764926196 -0.3383308877677023 0  -0.50979744334887 -0.3255818518047211 0  0.5060441378325211 0.3274561643884037 0  0.1037631564626732 0.3131559137665553 0  0.843149210446875 -0.1923130104173427 0  -0.8418263458721231 0.1927503215247096 0  -0.8408809410250262 -0.1897116835785854 0  0.8409071959036176 0.1896235182386696 0  0.705967194587281 0.3354524287114743 0  0.6276370409402552 0.1658336215477063 0  0.4215070288293651 0.1446794873901968 0  0.5369019087152576 -0.01677883310260353 0  0.3378219718963524 -0.0304857337078401 0  0.7359191653189867 -0.0003779706345871367 0  0.2206709281181736 0.1292871338121241 0  0.1390057666500616 -0.05482518983879574 0  0.02156604114872933 0.1091113821954512 0  -0.05991856886335568 -0.07544049830328706 0  -0.2091026540303009 0.113218101697482 0  -0.2557387210741711 -0.08957125969209863 0  -0.3742518736706093 0.02381865171750689 0  -0.7065883696935737 -0.3351547375041799 0  -0.6319769825415822 -0.1640183941417108 0  -0.7379485134301987 -0.0003221286420197649 0  -0.6263925638672921 0.1747922261462193 0  0.7000000000000003 -0.3471147448144379 0  -0.09731754444756222 0.2985839976753261 0  -0.7019016658227 0.339872535812372 0  -0.5036626740707574 0.3416097573515475 0  0.3086642085404555 0.31909644989288 0  0.4355889359290377 -0.1794947220360297 0  0.1233906847482294 -0.33992001942789 0  -0.2910439982708135 -0.2942818290560931 0  0.6252598700683595 -0.1832373653183336 0  -0.4390211493546888 -0.1414717198202583 0  -0.5445756908252299 0.01225332998817602 0  0.5094027625036279 -0.3483114655372777 0  -0.8570298735864267 0.3548088427148782 0  0.2432245006188761 -0.181388344807941 0  0.8576591493456415 0.3532994606374906 0  -0.8577781333911819 -0.3532575554640149 0  0.856914113336837 -0.3561698222938181 0  -0.4103395160999327 0.186370105143853 0  0.04059278020228735 -0.1932320619509051 0  -0.894759031223147 0.000141425932117211 0  0.8948577502800618 -0.0001596971477125707 0  -0.1430838089440986 -0.1942958300671257 0  -0.4774576034625814 0.09931171756601452 0  -0.5183660399836124 0.1805811656450362 0  -0.585484127346261 0.09352277806719765 0  -0.3551697580499665 0.2565825121934828 0  -0.3097210850651168 0.1497941034206675 0  -0.2545513270151506 0.2200065104702973 0  -0.3922956948852711 0.10509437843068 0  -0.4594137822479196 0.01803599085284146 0  -0.1532100992389315 0.205901049686404 0  -0.1986587722237813 0.3126894584592193 0  -0.1486587722237813 0.399291998837663 0  -0.04865877222378117 0.399291998837663 0  0.5673313162859936 -0.2657744154278056 0  0.6047013812518141 -0.3477131051758577 0  0.6626299350341799 -0.2651760550663858 0  0.4724958492163328 -0.2639030937866537 0  0.5304244029986986 -0.1813660436771817 0  -0.3650325738127511 -0.2178767744381757 0  -0.4744092963517794 -0.2335267858124897 0  -0.4004207208098418 -0.3099318404304071 0  -0.3473799352144299 -0.1155214897561785 0  -0.2733913596724923 -0.1919265443740958 0  0.06266459880570127 0.2111336479810033 0  0.1211184846334515 0.1191992580037876 0  0.1622170422904234 0.2212215237893397 0  
[...]
<PointData  Vectors="f_45"> 
<DataArray  type="Float64"  Name="f_45"  NumberOfComponents="3" format="ascii">-2.2362341776536335e-01 -4.9061534565901517e-05 0.0000000000000000e+00  -2.2360681805537844e-01 -1.7503685140944704e-06 0.0000000000000000e+00  -2.2360703328357551e-01 -5.4517712774827570e-06 0.0000000000000000e+00  -2.2360747433331465e-01 -9.1853760958010505e-06 0.0000000000000000e+00  -2.2360800375298207e-01 -1.1710497975579827e-05 0.0000000000000000e+00  -2.2361121739105028e-01 -3.0585991681912497e-05 0.0000000000000000e+00  -2.2361380615918336e-01 -3.7894114573875703e-05 0.0000000000000000e+00  -2.2361774031966264e-01 -4.7566625620258173e-05 0.0000000000000000e+00  -2.2362401481713151e-01 -6.1010518943008432e-05 0.0000000000000000e+00  -2.2360682337360951e-01 1.9203814357712285e-06 0.0000000000000000e+00  -2.2363254158014459e-01 -6.3692389617230324e-05 0.0000000000000000e+00  -2.2364515347413430e-01 -7.9411620642638319e-05 0.0000000000000000e+00  -2.2366562316065652e-01 -1.0180893201322823e-04 0.0000000000000000e+00  -2.2368517643085734e-01 -1.1686954990959659e-04 0.0000000000000000e+00  -2.2374078597514047e-01 -2.0842414125089420e-04 0.0000000000000000e+00  -2.2392063545698485e-01 -9.8440928294350207e-04 0.0000000000000000e+00  -2.2523642810460620e-01 -1.0938565401265792e-02 0.0000000000000000e+00  -2.2136044979541603e-01 -3.8737882349970845e-02 0.0000000000000000e+00  -2.2360704794022826e-01 5.5605023825308973e-06 0.0000000000000000e+00  -2.2360751610593529e-01 9.3752066064400074e-06 0.0000000000000000e+00  -2.2360829315377578e-01 1.3573872093546247e-05 0.0000000000000000e+00  -2.2360925420082892e-01 1.6884391956314345e-05 0.0000000000000000e+00  -2.2361082363536494e-01 2.1759021060074372e-05 0.0000000000000000e+00  -2.2361305804339562e-01 2.7287317328167613e-05 0.0000000000000000e+00  -2.2361634335949784e-01 3.4077194454315916e-05 0.0000000000000000e+00  -2.2361983793486789e-01 3.8821670659327023e-05 0.0000000000000000e+00  -2.2362616427587670e-01 4.8137284990056541e-05 0.0000000000000000e+00  -2.2363550223471712e-01 5.9766775996303297e-05 0.0000000000000000e+00  -2.2364995765353521e-01 7.5433889264651453e-05 0.0000000000000000e+00  -2.2367468516490660e-01 1.0223831719791459e-04 0.0000000000000000e+00  -2.2372122998849506e-01 1.8638895897545607e-04 0.0000000000000000e+00  -2.2387711110705064e-01 9.5167361136817494e-04 0.0000000000000000e+00  -2.2503445474885542e-01 1.0875843687650455e-02 0.0000000000000000e+00  -2.2367266836231980e-01 -2.5894206214057899e-03 0.0000000000000000e+00  -2.2370508116543109e-01 2.5496027794581718e-03 0.0000000000000000e+00  -2.2370706593754902e-01 -1.1765129798083399e-04 0.0000000000000000e+00  -2.2365316190616177e-01 -8.8145670434769892e-05 0.0000000000000000e+00  -2.2362830982008958e-01 -5.8346678103487329e-05 0.0000000000000000e+00  -2.2361992155834065e-01 -5.2025112463148959e-05 0.0000000000000000e+00  -2.2361226722142735e-01 -3.3179338157049802e-05 0.0000000000000000e+00  -2.2360791157650609e-01 -1.1881120299368534e-05 0.0000000000000000e+00  -2.2360689893309638e-01 -3.5937692948084362e-06 0.0000000000000000e+00  -2.2374117695151269e-01 -4.7595941760388207e-05 0.0000000000000000e+00  -2.2360784632831435e-01 1.1323363230130445e-05 0.0000000000000000e+00  -2.2360998021400000e-01 1.9331306828617305e-05 0.0000000000000000e+00  -2.2361445154065923e-01 3.0253657056416044e-05 0.0000000000000000e+00  -2.2362277843068759e-01 4.3450777492352501e-05 0.0000000000000000e+00  -2.2364189760128766e-01 6.6822669972234732e-05 0.0000000000000000e+00  -2.2369195062126718e-01 9.8261309759186834e-05 0.0000000000000000e+00  -2.2360690744031883e-01 3.7174151801297839e-06 0.0000000000000000e+00  -2.2139425823289119e-01 3.8719326133798727e-02 0.0000000000000000e+00  -2.2366015224684982e-01 8.3917492828914278e-05 0.0000000000000000e+00  -2.2363035599601624e-01 5.3580747366240521e-05 0.0000000000000000e+00  -2.2361784441591512e-01 3.6062793970700127e-05 0.0000000000000000e+00  -2.2361183356744530e-01 2.4404865532699910e-05 0.0000000000000000e+00  -2.2360872053464281e-01 1.5139355651518059e-05 0.0000000000000000e+00  -2.2360724756553271e-01 7.4308849696653032e-06 0.0000000000000000e+00  -2.2360679389799759e-01 9.0597319030282586e-08 0.0000000000000000e+00  -2.2360723998946880e-01 -7.4136934553082992e-06 0.0000000000000000e+00  -2.2360956415687996e-01 -2.1520751373384918e-05 0.0000000000000000e+00  -2.2361552533853146e-01 -4.2310339089209016e-05 0.0000000000000000e+00  -2.2362408310006943e-01 -5.6630857259624166e-05 0.0000000000000000e+00  -2.2363816371557271e-01 -7.1101356522471182e-05 0.0000000000000000e+00  -2.2367360952739679e-01 -1.0514594504238653e-04 0.0000000000000000e+00  -2.2376570987097619e-01 2.1436008242194134e-05 0.0000000000000000e+00  2.2130138553349374e-01 -3.8747736845984551e-02 0.0000000000000000e+00  -1.6055450378649994e-01 -1.6094670214725054e-01 0.0000000000000000e+00  1.9781039880265550e-07 -2.2755404923268710e-01 0.0000000000000000e+00  1.6053400490041470e-01 -1.6091655267222027e-01 0.0000000000000000e+00  -2.0524431832714901e-01 -8.7761277435849841e-02 0.0000000000000000e+00  -8.5177661717586645e-02 -2.0578771305418808e-01 0.0000000000000000e+00  8.5163422079080231e-02 -2.0580110621054445e-01 0.0000000000000000e+00  2.0521359704739625e-01 -8.7772275903619912e-02 0.0000000000000000e+00  -2.0242154011268715e-01 -9.6347147782946480e-02 0.0000000000000000e+00  -2.1874640081574237e-01 -6.5776348952937283e-02 0.0000000000000000e+00  -6.6003169743305043e-02 -2.1589394326930234e-01 0.0000000000000000e+00  -1.0758262356814523e-01 -2.0134359434139776e-01 0.0000000000000000e+00  1.0753269037267284e-01 -2.0121023733232646e-01 0.0000000000000000e+00  6.6013179162703065e-02 -2.1594887831374465e-01 0.0000000000000000e+00  2.1860049782538499e-01 -6.5756817838191914e-02 0.0000000000000000e+00  2.0243817363081185e-01 -9.6364442272468764e-02 0.0000000000000000e+00  2.2492696647638183e-01 1.0838885026358483e-02 0.0000000000000000e+00  2.2494238977004258e-01 -1.0846905087892445e-02 0.0000000000000000e+00  2.2382909854448185e-01 -9.2222225091641882e-04 0.0000000000000000e+00  2.2368040706538209e-01 -1.5277379525802800e-04 0.0000000000000000e+00  2.2363707470759572e-01 -6.5922496189474122e-05 0.0000000000000000e+00  2.2360876360958784e-01 -9.6903534281996656e-06 0.0000000000000000e+00  2.2360698869947435e-01 -4.1995298147314207e-06 0.0000000000000000e+00  2.2360699452356125e-01 4.2179941669567808e-06 0.0000000000000000e+00  2.2360885670231861e-01 9.9243129505410327e-06 0.0000000000000000e+00  2.2363630382872721e-01 6.4269705560965844e-05 0.0000000000000000e+00  2.2367856974686248e-01 1.5017378142155106e-04 0.0000000000000000e+00  2.2382492886624081e-01 9.1792947847979143e-04 0.0000000000000000e+00  2.2128499431719167e-01 3.8745816251999056e-02 0.0000000000000000e+00  2.2365487621693592e-01 2.6135933430296511e-03 0.0000000000000000e+00  2.2365258863127782e-01 -6.1913695578113623e-05 0.0000000000000000e+00  2.2360912268298774e-01 -1.0552992647926989e-05 0.0000000000000000e+00  2.2360909747914892e-01 1.0486804624213702e-05 0.0000000000000000e+00  2.2365138319940894e-01 5.9881405359154336e-05 0.0000000000000000e+00  2.2364760492207078e-01 -2.6187402288980525e-03 0.0000000000000000e+00  2.2370269152244110e-01 7.8616036632699526e-05 0.0000000000000000e+00  2.2362101562485329e-01 -3.4309872197854555e-05 0.0000000000000000e+00  2.2360682035986473e-01 -4.5467817106093218e-09 0.0000000000000000e+00  2.2362073269991073e-01 3.3591359396673843e-05 0.0000000000000000e+00  2.2369982686605794e-01 -8.1879610336707924e-05 0.0000000000000000e+00  -2.2139204242158919e-01 3.8719877981750007e-02 0.0000000000000000e+00  1.6051749146563793e-01 1.6089592450737777e-01 0.0000000000000000e+00  -4.1357909007944262e-06 2.2755743121023059e-01 0.0000000000000000e+00  -1.6056461830257276e-01 1.6095481893774918e-01 0.0000000000000000e+00  2.0522217750907656e-01 8.7777792312765307e-02 0.0000000000000000e+00  8.5165693809972243e-02 2.0582155988746975e-01 0.0000000000000000e+00  -8.5182761165454077e-02 2.0576933653119645e-01 0.0000000000000000e+00  -2.0524960203130893e-01 8.7751676403311218e-02 0.0000000000000000e+00  2.0244407988997390e-01 9.6370972598417634e-02 0.0000000000000000e+00  2.1853307431624402e-01 6.5735183272742498e-02 0.0000000000000000e+00  6.6012929663454734e-02 2.1597907218251056e-01 0.0000000000000000e+00  1.0751633547242841e-01 2.0112234151035938e-01 0.0000000000000000e+00  -1.0762152797099972e-01 2.0144773407027072e-01 0.0000000000000000e+00  -6.5998274552148614e-02 2.1588375004430740e-01 0.0000000000000000e+00  -2.1884097816238232e-01 6.5799709521773539e-02 0.0000000000000000e+00  -2.0242168176228492e-01 9.6347084118179188e-02 0.0000000000000000e+00  -2.2360683345666685e-01 2.8137505109703414e-06 0.0000000000000000e+00  -2.2391921875539714e-01 -9.8350801375798836e-04 0.0000000000000000e+00  -2.2374025509003062e-01 -2.0784720748230897e-04 0.0000000000000000e+00  -2.2368505854548390e-01 -1.1670704739383829e-04 0.0000000000000000e+00  -2.2366399439872378e-01 -9.9191348252762273e-05 0.0000000000000000e+00  -2.2364422647293056e-01 -7.7598756926470312e-05 0.0000000000000000e+00  -2.2363198552026192e-01 -6.2409932432050549e-05 0.0000000000000000e+00  -2.2362367255136104e-01 -5.0069959056681386e-05 0.0000000000000000e+00  -2.2361972999098698e-01 -4.6052916902617077e-05 0.0000000000000000e+00  -2.2361523829362537e-01 -3.6727845160213593e-05 0.0000000000000000e+00  -2.2361221985889645e-01 -2.9268462182752480e-05 0.0000000000000000e+00  -2.2361009991849426e-01 -2.2660006470851209e-05 0.0000000000000000e+00  -2.2360881792504109e-01 -1.8418749792204902e-05 0.0000000000000000e+00  -2.2360776358501711e-01 -1.2685548039099688e-05 0.0000000000000000e+00  -2.2360713010764258e-01 -7.4746284596929699e-06 0.0000000000000000e+00  -2.2360682974423277e-01 -2.5145535071701749e-06 0.0000000000000000e+00  -2.2522840211284639e-01 -1.0936802192074354e-02 0.0000000000000000e+00  -2.2360718202292307e-01 8.6520451704883328e-06 0.0000000000000000e+00  -2.2360792690972420e-01 1.4777417968538739e-05 0.0000000000000000e+00  -2.2360924518557185e-01 2.2089153158563965e-05 0.0000000000000000e+00  -2.2360970382047834e-01 1.9918165041254810e-05 0.0000000000000000e+00  -2.2361172414144131e-01 2.6663623334380726e-05 0.0000000000000000e+00  -2.2361449313203796e-01 3.3571816945407665e-05 0.0000000000000000e+00  -2.2361871406470724e-01 4.2488521420311344e-05 0.0000000000000000e+00  -2.2362076971681089e-01 4.1521061736886034e-05 0.0000000000000000e+00  -2.2362787699764600e-01 5.2391021703952478e-05 0.0000000000000000e+00  -2.2363805185443791e-01 6.5090419125187019e-05 0.0000000000000000e+00  -2.2365363816064013e-01 8.1911933304318847e-05 0.0000000000000000e+00  -2.2368161543702325e-01 1.1202028123628113e-04 0.0000000000000000e+00  -2.2373272220510529e-01 1.9945847488491914e-04 0.0000000000000000e+00  -2.2390177328362545e-01 9.7093009285055011e-04 0.0000000000000000e+00  -2.2514351510838260e-01 1.0912797032439699e-02 0.0000000000000000e+00  -2.2137210915226499e-01 -3.8727322698044651e-02 0.0000000000000000e+00  -2.2369356132171592e-01 -2.5665735818964914e-03 0.0000000000000000e+00  -2.2370058952587910e-01 1.0937592603000061e-04 0.0000000000000000e+00  -2.2364509776349872e-01 7.2856349317797163e-05 0.0000000000000000e+00  -2.2362427784552616e-01 4.7558868765607943e-05 0.0000000000000000e+00  -2.2361612542817208e-01 3.6992597105272901e-05 0.0000000000000000e+00  -2.2361072559325135e-01 2.3965685423947985e-05 0.0000000000000000e+00  -2.2360840844943017e-01 1.7614568809870493e-05 0.0000000000000000e+00  -2.2360696197810720e-01 5.7334901560070038e-06 0.0000000000000000e+00  -2.2360694098608788e-01 -4.9489031556503331e-06 0.0000000000000000e+00  -2.2360821331434025e-01 -1.5342652585629381e-05 0.0000000000000000e+00  -2.2361108197348262e-01 -2.6004616991468367e-05 0.0000000000000000e+00  -2.2361708951219833e-01 -4.0637880005923516e-05 0.0000000000000000e+00  -2.2362760118734143e-01 -5.6417943363278524e-05 0.0000000000000000e+00  -2.2365213294035929e-01 -8.6217206725819248e-05 0.0000000000000000e+00  -2.2370659890640071e-01 -1.1705880177727516e-04 0.0000000000000000e+00  -2.2370467278865985e-01 2.5508263283469013e-03 0.0000000000000000e+00  -2.2375564411496057e-01 -3.2260002140045837e-05 0.0000000000000000e+00  -2.2366561780413671e-01 9.2500709683733491e-05 0.0000000000000000e+00  -2.2363247664645455e-01 5.8396910760498791e-05 0.0000000000000000e+00  -2.2361969107807894e-01 4.2235955077491186e-05 0.0000000000000000e+00  -2.2361296911026976e-01 2.9983220425617565e-05 0.0000000000000000e+00  -2.2360948377710402e-01 2.1376665956141005e-05 0.0000000000000000e+00  -2.2360749170853877e-01 1.1612494949274479e-05 0.0000000000000000e+00  -2.2360679179675921e-01 6.6088209765619283e-08 0.0000000000000000e+00  -2.2360740012643238e-01 -1.0028588767913124e-05 0.0000000000000000e+00  -2.2360940920274711e-01 -2.0597277792101147e-05 0.0000000000000000e+00  -2.2361357873109031e-01 -3.2823930770771350e-05 0.0000000000000000e+00  -2.2362148101048818e-01 -4.7871262672423468e-05 0.0000000000000000e+00  -2.2363741051694180e-01 -6.9446888548829267e-05 0.0000000000000000e+00  -2.2367282474476902e-01 -1.0393775254108113e-04 0.0000000000000000e+00  -2.2376505233671579e-01 2.2165848317866547e-05 0.0000000000000000e+00  2.2129778518777077e-01 -3.8745896380625887e-02 0.0000000000000000e+00  -1.6055779768541426e-01 -1.6094865160422825e-01 0.0000000000000000e+00  -1.5709898385126966e-06 -2.2755562532194679e-01 0.0000000000000000e+00  1.6052642003356585e-01 -1.6090674038037028e-01 0.0000000000000000e+00  -2.0524733830762759e-01 -8.7756979547619199e-02 0.0000000000000000e+00  -8.5180269375294493e-02 -2.0578036544568173e-01 0.0000000000000000e+00  8.5164852062783153e-02 -2.0580969494902293e-01 0.0000000000000000e+00  2.0521817727812619e-01 -8.7774250160177938e-02 0.0000000000000000e+00  -2.0242302733489265e-01 -9.6347992059620607e-02 0.0000000000000000e+00  -2.1878726875144039e-01 -6.5785887773124455e-02 0.0000000000000000e+00  -6.6000678003661176e-02 -2.1589141083038357e-01 0.0000000000000000e+00  -1.0760055479041926e-01 -2.0138736312821218e-01 0.0000000000000000e+00  1.0752795756786154e-01 -2.0117526910330863e-01 0.0000000000000000e+00  6.6012590946626690e-02 -2.1596287845783058e-01 0.0000000000000000e+00  2.1857485275032099e-01 -6.5747906468717754e-02 0.0000000000000000e+00  2.0244076242006623e-01 -9.6367663657309130e-02 0.0000000000000000e+00  2.2494723048316942e-01 1.0844473277009123e-02 0.0000000000000000e+00  2.2494340894213422e-01 -1.0847048400241970e-02 0.0000000000000000e+00  2.2382922527781221e-01 -9.2228645162500825e-04 0.0000000000000000e+00  2.2368043801515430e-01 -1.5281051596016847e-04 0.0000000000000000e+00  2.2363708674082033e-01 -6.5944459556291842e-05 0.0000000000000000e+00  2.2360877300115642e-01 -9.7220546537529007e-06 0.0000000000000000e+00  2.2360698903484216e-01 -4.2094162444663568e-06 0.0000000000000000e+00  2.2360698911729848e-01 4.2131319941349020e-06 0.0000000000000000e+00  2.2360879184593324e-01 9.7886372640451801e-06 0.0000000000000000e+00  2.2363684105419832e-01 6.5344778289040681e-05 0.0000000000000000e+00  2.2367984599982638e-01 1.5184992782489245e-04 0.0000000000000000e+00  2.2382858575969949e-01 9.2073266461322118e-04 0.0000000000000000e+00  2.2128458171211474e-01 3.8745788991440537e-02 0.0000000000000000e+00  2.2365479235581814e-01 2.6135012455965239e-03 0.0000000000000000e+00  2.2365260612566065e-01 -6.1941544621352867e-05 0.0000000000000000e+00  2.2360912556272552e-01 -1.0568728779154387e-05 0.0000000000000000e+00  2.2360912258153076e-01 1.0552891990029409e-05 0.0000000000000000e+00  2.2365218651320395e-01 6.1177562553034646e-05 0.0000000000000000e+00  2.2364983786006726e-01 -2.6151369960858346e-03 0.0000000000000000e+00  2.2370272319332921e-01 7.8569447034528142e-05 0.0000000000000000e+00  2.2362102492342961e-01 -3.4333382111584824e-05 0.0000000000000000e+00  2.2360682188761252e-01 -8.3099309946521139e-10 0.0000000000000000e+00  2.2362096259863767e-01 3.4120484197664018e-05 0.0000000000000000e+00  2.2370157447451369e-01 -7.9773829752486890e-05 0.0000000000000000e+00  1.6051711636977911e-01 1.6089559227722738e-01 0.0000000000000000e+00  -4.3301943504501028e-06 2.2755745691952786e-01 0.0000000000000000e+00  -1.6056542094309381e-01 1.6095577799943561e-01 0.0000000000000000e+00  2.0522199647935055e-01 8.7778111197296255e-02 0.0000000000000000e+00  8.5165571793976352e-02 2.0582240485626943e-01 0.0000000000000000e+00  -8.5182719544344490e-02 2.0576841059399778e-01 0.0000000000000000e+00  -2.0524922691054537e-01 8.7751326666614213e-02 0.0000000000000000e+00  2.0244446011075334e-01 9.6371204657531476e-02 0.0000000000000000e+00  2.1852919290911071e-01 6.5734245314863660e-02 0.0000000000000000e+00  6.6013123005447691e-02 2.1597959573139086e-01 0.0000000000000000e+00  1.0751472767530576e-01 2.0111795251388767e-01 0.0000000000000000e+00  -1.0762232354715132e-01 2.0145180334350368e-01 0.0000000000000000e+00  -6.5998294221683546e-02 2.1588259839165330e-01 0.0000000000000000e+00  -2.1884420199684593e-01 6.5800776715894196e-02 0.0000000000000000e+00  -2.0242167776382292e-01 9.6347027196166266e-02 0.0000000000000000e+00  -2.1894393061864661e-01 -4.5573224861186881e-02 0.0000000000000000e+00  -2.1952741961025582e-01 -4.2668809861961317e-02 0.0000000000000000e+00  -2.2338961553538028e-01 9.9366809633266526e-03 0.0000000000000000e+00  -1.9926994258754901e-01 1.0177780219057878e-01 0.0000000000000000e+00  -2.0059336202940484e-01 9.9126991747026147e-02 0.0000000000000000e+00  -2.2308149019865772e-01 1.5427598481112836e-02 0.0000000000000000e+00  1.7956274674571254e-01 -1.3381545234389819e-01 0.0000000000000000e+00  1.7852294970293947e-01 -1.3518300963119231e-01 0.0000000000000000e+00  1.7974412270527015e-01 1.3351741018134222e-01 0.0000000000000000e+00  1.7980922077667519e-01 1.3343478027958455e-01 0.0000000000000000e+00  -1.3040063421457979e-01 1.8222066799270201e-01 0.0000000000000000e+00  4.3836257345110270e-02 2.1990355816678650e-01 0.0000000000000000e+00  -9.0078119675776336e-02 2.0534416289485308e-01 0.0000000000000000e+00  2.2007019294691949e-01 -4.6253021529128552e-02 0.0000000000000000e+00  1.6269936151643813e-01 -1.5960058585738263e-01 0.0000000000000000e+00  2.2389802868716724e-01 -4.4293594470990480e-04 0.0000000000000000e+00  -1.8400672882426869e-01 1.2762098086020579e-01 0.0000000000000000e+00  -1.4244931028431540e-01 -1.7097452526670567e-01 0.0000000000000000e+00  -2.2336463852238059e-01 1.5557216898428889e-02 0.0000000000000000e+00  -2.1871438439358495e-01 6.5249571325386849e-02 0.0000000000000000e+00  -1.7707730330138333e-01 -1.3713802110480319e-01 0.0000000000000000e+00  -1.1687140099033357e-01 1.9178451138130154e-01 0.0000000000000000e+00  1.9498176976712836e-01 -1.1578744989366496e-01 0.0000000000000000e+00  -1.2960576828851572e-01 1.8278992025052043e-01 0.0000000000000000e+00  5.0613517794371760e-02 2.1842580194061575e-01 0.0000000000000000e+00  2.2388423240492955e-01 3.9782605559370265e-04 0.0000000000000000e+00  2.7960005180431687e-02 -2.2252051228086528e-01 0.0000000000000000e+00  -1.4737852313257907e-01 -1.6873701183725981e-01 0.0000000000000000e+00  -2.2303061052966219e-01 -1.6159954727407035e-02 0.0000000000000000e+00  -1.3828996808293384e-01 -1.7628305478859085e-01 0.0000000000000000e+00  -2.0558173217950540e-01 -8.8244336365997988e-02 0.0000000000000000e+00  -2.1793098425432367e-01 5.0240412559722739e-02 0.0000000000000000e+00  -1.2733349569842375e-01 -1.8428482346380476e-01 0.0000000000000000e+00  -2.2312004603079527e-01 -1.4834750950052281e-02 0.0000000000000000e+00  -2.1648871239651579e-01 5.6165810436378229e-02 0.0000000000000000e+00  1.3112836917175252e-02 -2.2386822412574017e-01 0.0000000000000000e+00  -7.1747574495441169e-02 2.1245370947197822e-01 0.0000000000000000e+00  2.2241190162616517e-01 -3.2876733098412554e-02 0.0000000000000000e+00  -2.0679190135940065e-01 -8.5362942888961291e-02 0.0000000000000000e+00  1.2248478128540749e-02 -2.2381367642