<?xml version="1.0"?>
<VTKFile type="UnstructuredGrid"  version="0.1"  >
<UnstructuredGrid>
<Piece  NumberOfPoints="4153" NumberOfCells="8064">
<Points>
<DataArray  type="Float64"  NumberOfComponents="3"  format="ascii">-0.4239047651919448 -0.6109530605489089 0  -0.05204200783383395 -0.7552446029446461 0  -0.103074313708087 -0.7502420294186435 0  -0.1532599422155073 -0.7406601766162436 0  -0.2022822926268175 -0.7271208912689059 0  -0.25027054897051 -0.7109445949323925 0  -0.2966610425123721 -0.6899189356084947 0  -0.3410574591652186 -0.6656957300090368 0  -0.3834544680295939 -0.6392445601533097 0  -0.0006574412466401708 -0.7552912651958823 0  -0.4626462682900412 -0.5830125747818081 0  -0.5002684669211912 -0.5553102351249497 0  -0.5368533992143167 -0.5281261880074022 0  -0.5725574800091892 -0.5018520978066466 0  -0.6077329287568957 -0.4770032690817458 0  -0.6424892988153184 -0.4537482618779817 0  -0.6769937893756368 -0.4329786975963419 0  0.6514873811004203 -0.4426890625181411 0  0.05053459971353794 -0.7504191455725189 0  0.1010143563749853 -0.7408117387119096 0  0.1503294045987317 -0.7268899564351596 0  0.1981275639863637 -0.70918803197363 0  0.2442507238086055 -0.6886666820147609 0  0.2886932515646506 -0.6659755639401983 0  0.3315099651094274 -0.6417431848420196 0  0.3727826423735227 -0.6165420558646169 0  0.4127404429744661 -0.5909961155692071 0  0.4515605159759042 -0.5655064334991193 0  0.4894222953835289 -0.5404104654583293 0  0.526462827290835 -0.5160754025286335 0  0.562862416588385 -0.4926901447423329 0  0.5987357276357449 -0.470727532882429 0  0.6342905450116392 -0.4509893323562323 0  0.6163743092622527 -0.4608342031851965 0  -0.6595335385599799 -0.4432488594489791 0  -0.5902023245094152 -0.4893200953923738 0  -0.5186686751486008 -0.5416357147525488 0  -0.4433849158325954 -0.5969160591798756 0  -0.3625052881990839 -0.6526040463168171 0  -0.2737083808614931 -0.7009028726129062 0  -0.1779280798543024 -0.7344099192975632 0  -0.07763613201117073 -0.7533456492494133 0  0.5808312484365132 -0.4816576582446471 0  0.1258415324949383 -0.7343516366177916 0  0.2213996927715335 -0.6992404285326134 0  0.3102938427946249 -0.6540220730648619 0  0.3929179337548977 -0.6037911606215761 0  0.4705957969983772 -0.5529062048563846 0  0.5447495990699258 -0.5042951202907772 0  0.02499604108030874 -0.7534650954683308 0  -0.6937039525892466 -0.4241329975008324 0  0.5080217060261981 -0.5281203664052475 0  0.4322802289564232 -0.5782293280788552 0  0.352326222155478 -0.629207454227002 0  0.2666804863798871 -0.6775590134896161 0  0.1744417444564286 -0.7184647565900653 0  0.07589411152803884 -0.7461857485322683 0  -0.02635772627402986 -0.755894960220536 0  -0.1282983557450448 -0.7459993318365832 0  -0.2263219953860321 -0.7194554354167019 0  -0.319097413292525 -0.6780923951884739 0  -0.4040599821756565 -0.6253983082675301 0  -0.48160049025885 -0.5691312999970756 0  -0.5548061016101797 -0.5148350978671135 0  -0.62511534591687 -0.4653142908005647 0  0.791033565673206 -0.2542900981677799 0  0.7063677259870138 -0.4154158345584585 0  0.7531616605633754 -0.372955297794534 0  0.7830310268497113 -0.317657011185147 0  0.6793770340428228 -0.4295525092008582 0  0.7307637675969072 -0.395417969253237 0  0.7665434118428786 -0.3440906441154987 0  0.7860624500063187 -0.2855744449550448 0  0.6655948173494837 -0.4369647360522643 0  0.6928114394334584 -0.4218741751362055 0  0.7186610624877481 -0.4055890868547147 0  0.7415903213283179 -0.3833815848316323 0  0.7615484810642249 -0.3594228974801604 0  0.7740660801379365 -0.3306927118998813 0  0.7838078034361237 -0.3013971088857891 0  0.7879620932152195 -0.2698065595452147 0  0.7903678740850393 -0.2338522662068119 0  0.7948621591037549 0.2195862678830572 0  0.7947158069105656 0.1790601129267856 0  0.7958787589964914 0.1382997092205271 0  0.7975598763811768 0.09718982677886483 0  0.7994472772358733 0.05564006185526098 0  0.8001022519225884 0.01373928902263194 0  0.7996082694054354 -0.02824118582384762 0  0.7979707488842018 -0.0701131801888312 0  0.7952020511112335 -0.1115992812758968 0  0.7927070896268144 -0.1526557077209991 0  0.790796738538911 -0.1933606746052776 0  0.7961520743573368 0.2399689784951161 0  0.7945735805858408 0.1993400562553839 0  0.7966885447844368 0.1177925043033924 0  0.7999180068783993 0.03471253478331802 0  0.7989359942561699 -0.04920318343715361 0  0.7939233646560917 -0.1321779887306536 0  0.7903521326138191 -0.2136231910236988 0  0.7952055629908849 0.1587189926789151 0  0.7985727774334178 0.07648992851884318 0  0.7999943820929443 -0.007252614646956134 0  0.7966289902399866 -0.0909310404280109 0  0.7916564003183783 -0.1730478366058905 0  0.6625674604226647 0.4305001694381705 0  0.789919837064939 0.3036029504513522 0  0.7617091696786958 0.3597562709233794 0  0.7163289531668305 0.402994132242174 0  0.7922787973358225 0.2714111471455672 0  0.7747204807595771 0.3307568890854787 0  0.7399699371618145 0.3823958135056442 0  0.6897837584261148 0.4171301075164314 0  0.7938183109617245 0.2556053909920625 0  0.7905508480058987 0.287317655635039 0  0.7817598941436301 0.3170101811315095 0  0.7694485987057551 0.3458540576740919 0  0.7504424889222573 0.3702730875853589 0  0.72822330421013 0.392810007617558 0  0.7029808709339821 0.4095164659373763 0  0.676291610896627 0.4245188449209346 0  -0.03669823898323948 0.7760605998476674 0  0.6114977289021374 0.4600607146651876 0  0.5768378008423783 0.4833548548344166 0  0.541715355896403 0.5082829367954756 0  0.505983592330902 0.5345956685900094 0  0.4693387047903696 0.5618272594910864 0  0.4316073873997273 0.5896089629202234 0  0.3925918300122317 0.6175828957278905 0  0.3520475294553336 0.645407765240705 0  0.3096795533793154 0.6722458297893228 0  0.2653982111423372 0.6975179648138815 0  0.2191294509045566 0.7205385748364231 0  0.1708629555868622 0.7406929089908758 0  0.1207315628934531 0.7567854374126158 0  0.06911128564216504 0.7682758548088356 0  0.0164731177949938 0.7746694841565425 0  0.6459233609499354 0.4392432458173514 0  -0.08971821181850254 0.7711956671831691 0  -0.1418020352021378 0.7607945942366923 0  -0.1923553496018115 0.7454487896714295 0  -0.2407339049222652 0.7251242631119 0  -0.2870106136716419 0.7028343044490938 0  -0.3313159933029496 0.6785065763705371 0  -0.3737517672072426 0.6527235852998101 0  -0.4144022221727975 0.6258710387999538 0  -0.4536054961571677 0.5990930436147595 0  -0.4916680435561819 0.5725641868388022 0  -0.5287625345224879 0.5465563593937285 0  -0.5650556089259803 0.5213555919461937 0  -0.6006893454920926 0.4972205904666864 0  -0.6358500174151239 0.4746456067334202 0  -0.6707607424584997 0.4544519624638051 0  -0.6876371509494753 0.4459590860831851 0  -0.6531337739515851 0.4644951941696605 0  -0.5829501983278367 0.5091834977177144 0  -0.5103258623882204 0.5594832217708098 0  -0.4341483428296565 0.6124590809585878 0  -0.3527561055447543 0.6657393567748852 0  -0.2641162495567934 0.714276513007115 0  -0.1672955467282553 0.7535954677629457 0  -0.0632769288851243 0.7743232699571799 0  0.04289184059048043 0.7721566721520242 0  0.1460091280777629 0.7492593721732416 0  0.2425126062597437 0.7093555843349548 0  0.3310912300611699 0.6589801794418381 0  0.4122705247363823 0.603594653887839 0  0.4877804697550044 0.5481238096594975 0  0.5593438429506163 0.4956983869601392 0  0.6285365361413597 0.4495801176720433 0  -0.6182907078289033 0.485872225815171 0  -0.5469979847571856 0.533850644129013 0  -0.4727692024526318 0.5857821075201693 0  -0.3943206416111215 0.6393903064612556 0  -0.3094025061547463 0.6908815928514224 0  -0.2169437427405631 0.7358884845201944 0  -0.1159153147809506 0.7666354739986631 0  -0.01004048236664874 0.7760730442537732 0  0.09508116080741148 0.7631401084008792 0  0.1952640271627581 0.731077377421912 0  0.2877847426460141 0.6851221490060448 0  0.372545005697149 0.6315635396768456 0  0.4506207277483224 0.5756746576357761 0  0.5239546642890109 0.5212946058187776 0  0.5941900772480687 0.4716299956313998 0  -0.8247718292927955 0.2576058293029163 0  -0.7419879469418194 0.4189716763130465 0  -0.7881861053721214 0.3763899976290557 0  -0.8174045972973765 0.3209034684540097 0  -0.7151804504686269 0.4329152845810377 0  -0.7660616499214932 0.3988270688737039 0  -0.8014506297996834 0.347571323702165 0  -0.8202092201500163 0.2888662099724747 0  -0.7015324565417207 0.4401978633001999 0  -0.7285132973934733 0.4253711759888975 0  -0.7541030094564594 0.4090393471298703 0  -0.7767367198490416 0.3868001881283692 0  -0.796302633836693 0.3627422787101848 0  -0.8087795070767481 0.3340640334703184 0  -0.8181559064276388 0.3046806293699342 0  -0.8219892090280342 0.2731316286255657 0  -0.8238625422337066 0.2372541358639113 0  -0.8270136949104073 -0.2143245011386435 0  -0.8267094010059972 -0.1739346510033219 0  -0.8278426638045937 -0.1333483826715582 0  -0.8295611013658407 -0.09243110174440587 0  -0.8315639065340829 -0.05109011431142151 0  -0.8323989949583981 -0.009387537364277854 0  -0.8321135081973339 0.03240190071142142 0  -0.8307113439004719 0.07409519930669872 0  -0.8281544501986966 0.1154224898763317 0  -0.8258668097717269 0.156325151174259 0  -0.8241521422233277 0.1968923969002737 0  -0.8282389299639286 -0.2346953567143755 0  -0.8266301111692129 -0.1941418060716677 0  -0.8286675539219447 -0.1129368688428351 0  -0.8321233150989368 -0.03026204796296654 0  -0.8315533928813517 0.05327284117803328 0  -0.8269774918917998 0.1359213984500901 0  -0.8237775888357151 0.2170878753369364 0  -0.8271783454790833 -0.1536777490677434 0  -0.830614181479289 -0.07183551475612407 0  -0.8323918441855945 0.01150777934384061 0  -0.8294842416709912 0.09483330780084724 0  -0.8249129958908387 0.176645933825354 0  -0.8217024617731451 -0.2981523116203652 0  -0.7931107054219338 -0.3538924476653587 0  -0.7475168803128237 -0.3968587512673149 0  -0.8241568128394794 -0.2660319222886908 0  -0.8061570270326658 -0.3249961980239248 0  -0.7713215688941341 -0.3765511983500897 0  -0.7209440219212357 -0.4109949415276959 0  -0.8257142951586246 -0.2502590699844308 0  -0.822315
[...]
<PointData  Vectors="f_15785"> 
<DataArray  type="Float64"  Name="f_15785"  NumberOfComponents="3" format="ascii">5.9022450469843646e-01 8.0732484212588396e-01 0.0000000000000000e+00  5.2080200260389030e-02 1.0763780057635066e+00 0.0000000000000000e+00  1.4368560333331079e-01 9.8001345577961196e-01 0.0000000000000000e+00  2.2685717093313965e-01 9.7373040698024960e-01 0.0000000000000000e+00  2.9742663441947997e-01 9.5478844030654242e-01 0.0000000000000000e+00  3.6434990598462796e-01 9.3148220357064415e-01 0.0000000000000000e+00  4.4983077305206925e-01 8.9325827486752973e-01 0.0000000000000000e+00  5.0692309961604998e-01 8.6212432923391835e-01 0.0000000000000000e+00  5.4481771608635132e-01 8.3863030919571568e-01 0.0000000000000000e+00  4.8824353912706689e-02 -1.0713311419242655e+00 0.0000000000000000e+00  5.8804053666937550e-01 8.0883798682709984e-01 0.0000000000000000e+00  5.9613960959406198e-01 8.0288060050686072e-01 0.0000000000000000e+00  5.9587015444596425e-01 8.0308887799483819e-01 0.0000000000000000e+00  5.8412804106643790e-01 8.1171443850068226e-01 0.0000000000000000e+00  5.6606247359998318e-01 8.2448050966360487e-01 0.0000000000000000e+00  5.4153427691193734e-01 8.4088384381414971e-01 0.0000000000000000e+00  4.9701203050254006e-01 8.6823729145372053e-01 0.0000000000000000e+00  3.9214155911514270e-01 -9.2185196644434919e-01 0.0000000000000000e+00  1.4187440578763777e-01 -9.8463426418433420e-01 0.0000000000000000e+00  2.3096833800859531e-01 -9.7302444534427401e-01 0.0000000000000000e+00  3.1093969840564217e-01 -9.5055785752541300e-01 0.0000000000000000e+00  3.7952894771841728e-01 -9.2527200731417170e-01 0.0000000000000000e+00  4.3231065072335595e-01 -9.0179663960268341e-01 0.0000000000000000e+00  4.7542831126954493e-01 -8.7980473948771809e-01 0.0000000000000000e+00  5.0897174118437516e-01 -8.6081783433925485e-01 0.0000000000000000e+00  5.3085812164175306e-01 -8.4747243276823847e-01 0.0000000000000000e+00  5.4490456805640142e-01 -8.3850061208339610e-01 0.0000000000000000e+00  5.5160027604433381e-01 -8.3411117791333433e-01 0.0000000000000000e+00  5.5266631290552382e-01 -8.3341494560367546e-01 0.0000000000000000e+00  5.4336906033036958e-01 -8.3955275312826272e-01 0.0000000000000000e+00  5.3059417332088621e-01 -8.4774109481962723e-01 0.0000000000000000e+00  5.0597311347232043e-01 -8.6276717604576758e-01 0.0000000000000000e+00  4.6863875701323060e-01 -8.8383442488823094e-01 0.0000000000000000e+00  4.8462392705857238e-01 -8.7506024590935494e-01 0.0000000000000000e+00  5.1419479675158530e-01 8.5808672462729929e-01 0.0000000000000000e+00  5.7792711659209728e-01 8.1614706923911273e-01 0.0000000000000000e+00  5.9662637002886365e-01 8.0252102775991996e-01 0.0000000000000000e+00  5.8285740189765523e-01 8.1257645780656618e-01 0.0000000000000000e+00  5.3110084753691567e-01 8.4741691716998335e-01 0.0000000000000000e+00  4.1556863680484568e-01 9.0978574005619317e-01 0.0000000000000000e+00  2.6821626617207966e-01 9.6349437210534983e-01 0.0000000000000000e+00  9.7320887421371405e-02 1.0145246155737682e+00 0.0000000000000000e+00  5.2410803226416103e-01 -8.5175783871989874e-01 0.0000000000000000e+00  2.7200088119186683e-01 -9.6240382397494006e-01 0.0000000000000000e+00  4.0679058455354261e-01 -9.1359965369185347e-01 0.0000000000000000e+00  4.9272667307174428e-01 -8.7022413732920234e-01 0.0000000000000000e+00  5.3904576117932113e-01 -8.4228349051731721e-01 0.0000000000000000e+00  5.5266707072398313e-01 -8.3340921991720829e-01 0.0000000000000000e+00  5.4230074282200991e-01 -8.4022865667768798e-01 0.0000000000000000e+00  9.4416807507769415e-02 -1.0085526174202433e+00 0.0000000000000000e+00  4.2391380827296260e-01 9.0748257096350315e-01 0.0000000000000000e+00  5.4962047557562110e-01 -8.3543896884272983e-01 0.0000000000000000e+00  5.4918219324477746e-01 -8.3570379612184575e-01 0.0000000000000000e+00  5.2176165294257715e-01 -8.5311286493890637e-01 0.0000000000000000e+00  4.5516433818568985e-01 -8.9046871409722239e-01 0.0000000000000000e+00  3.4829665626368261e-01 -9.3749843272359767e-01 0.0000000000000000e+00  1.8719915275264301e-01 -9.8340842579659660e-01 0.0000000000000000e+00  -9.0904134170769358e-04 6.8638599735188335e-02 0.0000000000000000e+00  1.8866227622614215e-01 9.8448070912646191e-01 0.0000000000000000e+00  3.1359230364423590e-01 9.4967000453635209e-01 0.0000000000000000e+00  4.7924726932261874e-01 8.7781523914184845e-01 0.0000000000000000e+00  5.7599348579296161e-01 8.1763725860912551e-01 0.0000000000000000e+00  5.9336174513817919e-01 8.0493837640533827e-01 0.0000000000000000e+00  5.9402949643177883e-01 8.0445651423993203e-01 0.0000000000000000e+00  5.5729117637725056e-01 8.3044251627460897e-01 0.0000000000000000e+00  9.9808323453838921e-01 -7.4413706250645598e-02 0.0000000000000000e+00  5.2915346231711413e-01 -8.5053210503814958e-01 0.0000000000000000e+00  7.3961160628155620e-01 -6.8269922056355370e-01 0.0000000000000000e+00  9.5617004674132033e-01 -3.0737944721668581e-01 0.0000000000000000e+00  5.1478560413055541e-01 -8.5763261210857966e-01 0.0000000000000000e+00  7.0816674440399141e-01 -7.0634133958546430e-01 0.0000000000000000e+00  9.3859000971462370e-01 -3.5057023312073615e-01 0.0000000000000000e+00  9.8962000892278290e-01 -1.4163253198292194e-01 0.0000000000000000e+00  4.1235683916451205e-01 -9.1264783176907793e-01 0.0000000000000000e+00  4.3625975633603653e-01 -9.0290778506544522e-01 0.0000000000000000e+00  6.3978321790096648e-01 -7.7006911934731448e-01 0.0000000000000000e+00  7.0143113565089854e-01 -7.1251626953802361e-01 0.0000000000000000e+00  9.3554942956940512e-01 -3.7497737551304555e-01 0.0000000000000000e+00  8.0023392037244845e-01 -6.1968562322779286e-01 0.0000000000000000e+00  1.0072165691884853e+00 -3.4967748471647492e-02 0.0000000000000000e+00  9.8399687976967198e-01 -1.8082556030729430e-01 0.0000000000000000e+00  1.0013806586033160e+00 4.8361995546652298e-02 0.0000000000000000e+00  9.9997681477094191e-01 -6.7573759988993579e-02 0.0000000000000000e+00  1.0000985397246347e+00 1.3791517853843508e-02 0.0000000000000000e+00  9.9936601646246292e-01 3.6620527403068585e-02 0.0000000000000000e+00  9.9893781241522772e-01 4.6093662956677946e-02 0.0000000000000000e+00  9.9949324529544747e-01 3.2466675172512373e-02 0.0000000000000000e+00  1.0000082971078026e+00 1.9772105535590329e-03 0.0000000000000000e+00  9.9969011113193285e-01 -2.5295312926700935e-02 0.0000000000000000e+00  9.9845676323726107e-01 -5.5850816197693887e-02 0.0000000000000000e+00  9.9784729746966161e-01 -6.5639774892316427e-02 0.0000000000000000e+00  9.9848708381856488e-01 -5.5755657667864819e-02 0.0000000000000000e+00  9.9973650360919519e-01 -3.0976549666362308e-02 0.0000000000000000e+00  1.0003882559994031e+00 3.0566204759796049e-02 0.0000000000000000e+00  1.0000927686052670e+00 8.0116598749504671e-03 0.0000000000000000e+00  9.9919429715035379e-01 4.0605554761003380e-02 0.0000000000000000e+00  9.9990538736016621e-01 1.4840903691388930e-02 0.0000000000000000e+00  9.9928113748296477e-01 -3.8336729170866467e-02 0.0000000000000000e+00  9.9818181006383411e-01 -6.0632463621976058e-02 0.0000000000000000e+00  9.9992420624629785e-01 -2.0242191096583692e-02 0.0000000000000000e+00  9.9960347368209201e-01 3.0167519294308665e-02 0.0000000000000000e+00  9.9883312361075582e-01 4.8437963011518453e-02 0.0000000000000000e+00  9.9994221055089594e-01 -1.1819322782788017e-02 0.0000000000000000e+00  9.9758494497781458e-01 -6.9519569183293328e-02 0.0000000000000000e+00  9.9888436573449380e-01 -4.8628909666209502e-02 0.0000000000000000e+00  4.2200800904247754e-01 9.0855664638744826e-01 0.0000000000000000e+00  9.6440077633036669e-01 2.7957248211731650e-01 0.0000000000000000e+00  7.6683239978182549e-01 6.5010427689735906e-01 0.0000000000000000e+00  5.4989003165294770e-01 8.3751290460678351e-01 0.0000000000000000e+00  9.9330496719579608e-01 1.1296855119879134e-01 0.0000000000000000e+00  9.3519130515152071e-01 3.5611691633279352e-01 0.0000000000000000e+00  7.2436455393263122e-01 6.8942647426647186e-01 0.0000000000000000e+00  5.1821144752014603e-01 8.5544213744877895e-01 0.0000000000000000e+00  9.8969242310438277e-01 1.4691005854532793e-01 0.0000000000000000e+00  1.0068536844582809e+00 1.6415292890833103e-02 0.0000000000000000e+00  8.3444997409764665e-01 5.6645400559543446e-01 0.0000000000000000e+00  9.3849854365402219e-01 3.6465871140095840e-01 0.0000000000000000e+00  7.1064796215953852e-01 7.0450923910842556e-01 0.0000000000000000e+00  6.6480483964823145e-01 7.4853215586514721e-01 0.0000000000000000e+00  4.3970526157721501e-01 9.0206381151181403e-01 0.0000000000000000e+00  4.2653748867161961e-01 9.0622119701402781e-01 0.0000000000000000e+00  2.8224489500880866e-02 -1.3319047244359610e+00 0.0000000000000000e+00  5.4118461872954471e-01 8.4114039705922339e-01 0.0000000000000000e+00  5.6762504600244323e-01 8.2341361789478740e-01 0.0000000000000000e+00  5.8558474081348610e-01 8.1066500349963577e-01 0.0000000000000000e+00  5.9585555198694418e-01 8.0310356889875345e-01 0.0000000000000000e+00  5.9588383166704273e-01 8.0307139736167910e-01 0.0000000000000000e+00  5.8886920649672059e-01 8.0823314039710181e-01 0.0000000000000000e+00  5.7615769987648802e-01 8.1735831237289891e-01 0.0000000000000000e+00  5.5194752608726783e-01 8.3393154517292545e-01 0.0000000000000000e+00  5.1734866678811131e-01 8.5584921015308124e-01 0.0000000000000000e+00  4.7252733466043201e-01 8.8141684967186662e-01 0.0000000000000000e+00  4.1851652773041770e-01 9.0832334496219325e-01 0.0000000000000000e+00  3.4620208771922412e-01 9.3832241829893770e-01 0.0000000000000000e+00  2.6359002748027144e-01 9.6494252954428827e-01 0.0000000000000000e+00  1.7105458527803388e-01 9.8285124232320775e-01 0.0000000000000000e+00  7.4847047306434142e-02 8.6185496948757834e-01 0.0000000000000000e+00  4.9803293724250974e-01 8.6767922680547993e-01 0.0000000000000000e+00  1.4478780554040760e-01 -9.9290309485950812e-01 0.0000000000000000e+00  2.4735015825599624e-01 -9.6866765924753651e-01 0.0000000000000000e+00  3.3281767212789304e-01 -9.4321905766204728e-01 0.0000000000000000e+00  4.1880093516814715e-01 -9.0818469724102990e-01 0.0000000000000000e+00  4.6035821350338901e-01 -8.8784850127138937e-01 0.0000000000000000e+00  5.0231699365736315e-01 -8.6475856289206954e-01 0.0000000000000000e+00  5.3505806601527650e-01 -8.4486601996685851e-01 0.0000000000000000e+00  5.6116247196029911e-01 -8.2772445377088655e-01 0.0000000000000000e+00  5.6858063540413195e-01 -8.2263081019946283e-01 0.0000000000000000e+00  5.7376255905700646e-01 -8.1902313154117334e-01 0.0000000000000000e+00  5.7299561566937751e-01 -8.1957226483684076e-01 0.0000000000000000e+00  5.6529726506805400e-01 -8.2493731962156791e-01 0.0000000000000000e+00  5.4982401514204315e-01 -8.3539896345143583e-01 0.0000000000000000e+00  5.2387612528738992e-01 -8.5201730453334934e-01 0.0000000000000000e+00  4.8279317574926300e-01 -8.7621688520070462e-01 0.0000000000000000e+00  4.0524448217350878e-01 -9.1615587403376431e-01 0.0000000000000000e+00  4.9963741678873580e-01 -8.6661172040948087e-01 0.0000000000000000e+00  5.6239995268508547e-01 -8.2691191235515105e-01 0.0000000000000000e+00  5.7443268936926817e-01 -8.1855650151938519e-01 0.0000000000000000e+00  5.6362664286540154e-01 -8.2603345663426841e-01 0.0000000000000000e+00  5.1956150957076286e-01 -8.5448855858689376e-01 0.0000000000000000e+00  4.3115648334030632e-01 -9.0234022800929481e-01 0.0000000000000000e+00  2.9064150575361092e-01 -9.5707237192452299e-01 0.0000000000000000e+00  9.2713348780442129e-02 -9.3910427016456266e-01 0.0000000000000000e+00  1.1964624989367334e-01 1.0187381906740369e+00 0.0000000000000000e+00  3.0597453594585400e-01 9.5215583164105333e-01 0.0000000000000000e+00  4.4541614991702644e-01 8.9542439985669187e-01 0.0000000000000000e+00  5.3538369869289693e-01 8.4466829668488264e-01 0.0000000000000000e+00  5.8280245443502021e-01 8.1262328837212361e-01 0.0000000000000000e+00  5.9675905985837663e-01 8.0242408031085666e-01 0.0000000000000000e+00  5.7987966062188445e-01 8.1476218974977921e-01 0.0000000000000000e+00  5.1663233114843798e-01 8.5660434829447096e-01 0.0000000000000000e+00  5.4203103005753639e-01 -8.4047348391235954e-01 0.0000000000000000e+00  5.7095984437385361e-01 -8.2099956229299120e-01 0.0000000000000000e+00  5.7211893616518761e-01 -8.2017101955956961e-01 0.0000000000000000e+00  5.5274542023590156e-01 -8.3340997601975564e-01 0.0000000000000000e+00  4.8132021407186926e-01 -8.7661953935563053e-01 0.0000000000000000e+00  3.9310126106877913e-01 -9.1989297770213774e-01 0.0000000000000000e+00  1.9565615869158384e-01 -9.8207313115758599e-01 0.0000000000000000e+00  1.9525394446508044e-02 1.3950740229044261e+00 0.0000000000000000e+00  2.1720844882036025e-01 9.7609560713327947e-01 0.0000000000000000e+00  3.8677791020941410e-01 9.2233985737121948e-01 0.0000000000000000e+00  4.9605460426101528e-01 8.6837649724597277e-01 0.0000000000000000e+00  5.6677778546103741e-01 8.2391450028332103e-01 0.0000000000000000e+00  5.9319773214727700e-01 8.0505786928607104e-01 0.0000000000000000e+00  5.9407774477827835e-01 8.0442467251079841e-01 0.0000000000000000e+00  5.5954545567470537e-01 8.2892406464102941e-01 0.0000000000000000e+00  9.9923361164946878e-01 -5.6991497280393065e-02 0.0000000000000000e+00  5.3518686229794832e-01 -8.4686805646733621e-01 0.0000000000000000e+00  7.4975156616336447e-01 -6.7072057839456600e-01 0.0000000000000000e+00  9.5914682415003505e-01 -2.9761722823113862e-01 0.0000000000000000e+00  5.1075526404522298e-01 -8.5996687462809429e-01 0.0000000000000000e+00  7.1322081557086869e-01 -7.0111023622240609e-01 0.0000000000000000e+00  9.3602880090279805e-01 -3.5569447650471814e-01 0.0000000000000000e+00  9.9102810734233071e-01 -1.3145054805565135e-01 0.0000000000000000e+00  4.1310496432048766e-01 -9.1241890180770591e-01 0.0000000000000000e+00  4.3218543840058160e-01 -9.0531431330248302e-01 0.0000000000000000e+00  6.4859147332422840e-01 -7.6264921616414294e-01 0.0000000000000000e+00  7.0364175236427029e-01 -7.1082247652944908e-01 0.0000000000000000e+00  9.3594384918358875e-01 -3.7283695528773803e-01 0.0000000000000000e+00  8.1428308196612964e-01 -5.9824748798138516e-01 0.0000000000000000e+00  1.0070575615621451e+00 -2.9124714814557917e-02 0.0000000000000000e+00  9.8614842457737850e-01 -1.6893245071795193e-01 0.0000000000000000e+00  1.0009450810313174e+00 5.5134512147211955e-02 0.0000000000000000e+00  1.0000072151355801e+00 -7.0049652256569062e-02 0.0000000000000000e+00  1.0001389790930679e+00 1.2130370543916221e-02 0.0000000000000000e+00  9.9935911069419447e-01 3.6944071794188849e-02 0.0000000000000000e+00  9.9886748874251274e-01 4.7635553776728706e-02 0.0000000000000000e+00  9.9934338378078136e-01 3.6749045311900194e-02 0.0000000000000000e+00  9.9998822529219111e-01 6.5513467255222235e-03 0.0000000000000000e+00  9.9980573707704046e-01 -2.0193543875771887e-02 0.0000000000000000e+00  9.9875789645581825e-01 -5.0195901341338715e-02 0.0000000000000000e+00  9.9812678529839605e-01 -6.1220105803814866e-02 0.0000000000000000e+00  9.9873700744725569e-01 -5.1038754570382171e-02 0.0000000000000000e+00  9.9985289496852547e-01 -2.6650290090622846e-02 0.0000000000000000e+00  1.0000321325625072e+00 4.0577096857343620e-02 0.0000000000000000e+00  1.0001340829138201e+00 3.1810575766698036e-03 0.0000000000000000e+00  9.9914828011229406e-01 4.1791292906659484e-02 0.0000000000000000e+00  9.9983108921587049e-01 1.9213311159018160e-02 0.0000000000000000e+00  9.9947652711832169e-01 -3.2826106904305721e-02 0.0000000000000000e+00  9.9846886713204053e-01 -5.5693143562582141e-02 0.0000000000000000e+00  9.9996756444979984e-01 -1.7883038920382604e-02 0.0000000000000000e+00  9.9962941969960362e-01 2.9589841535514930e-02 0.0000000000000000e+00  9.9867891288008481e-01 5.1496258213121177e-02 0.0000000000000000e+00  9.9998825917882173e-01 -6.8362391726038809e-03 0.0000000000000000e+00  9.9790497891389507e-01 -6.4781338048990555e-02 0.0000000000000000e+00  9.9909977789604965e-01 -4.3914035988517418e-02 0.0000000000000000e+00  9.6254549551086377e-01 2.8628220529406095e-01 0.0000000000000000e+00  7.5753817103790522e-01 6.6167248491371589e-01 0.0000000000000000e+00  5.4439041996337190e-01 8.4098826169899510e-01 0.0000000000000000e+00  9.9282232762017053e-01 1.1715903532258420e-01 0.0000000000000000e+00  9.3890389785747241e-01 3.4782482707540430e-01 0.0000000000000000e+00  7.2010014507752951e-01 6.9404583311358903e-01 0.0000000000000000e+00  5.1334948429712324e-01 8.5838114555571454e-01 0.0000000000000000e+00  9.8864004249023352e-01 1.5372309545959645e-01 0.0000000000000000e+00  1.0070695600188460e+00 1.8815567257314248e-02 0.0000000000000000e+00  8.2337948795499794e-01 5.8498614714286201e-01 0.0000000000000000e+00  9.3783314952105079e-01 3.6708824991017597e-01 0.0000000000000000e+00  7.1312685505849605e-01 7.0135717754035387e-01 0.0000000000000000e+00  6.5551613148979471e-01 7.5671944068108699e-01 0.0000000000000000e+00  4.4163755280500178e-01 9.0073744054991556e-01 0.0000000000000000e+00  4.1752776006155684e-01 9.1062884807324163e-01 0.0000000000000000e+00  4.4671282191391448e-01 -8.9477803030283554e-01 0.0000000000000000e+00  4.4946468966668268e-01 -8.9339296314750560e-01 0.0000000000000000e+00  1.3895946585351143e-01 9.8789493105297888e-01 0.0000000000000000e+00  6.7776317816782028e-01 7.3545158246606712e-01 0.0000000000000000e+00  6.8068105857531480e-01 7.3274745079487147e-01 0.0000000000000000e+00  1.8390752624830670e-01 9.8275679378191150e-01 0.0000000000000000e+00  9.6605118871474915e-01 -2.5887110602575919e-01 0.0000000000000000e+00  9.6810927096247890e-01 -2.5103569716439822e-01 0.0000000000000000e+00  9.7207172883243198e-01 2.3519355254611685e-01 0.0000000000000000e+00  9.7394723597544997e-01 2.2729807397077256e-01 0.0000000000000000e+00  7.9657560620095602e-01 6.0484127282096900e-01 0.0000000000000000e+00  9.3167456323636477e-01 3.6390441023671377e-01 0.0000000000000000e+00  8.5676345171967350e-01 5.1662049466943794e-01 0.0000000000000000e+00  9.9781273362356182e-01 -7.1253306733600572e-02 0.0000000000000000e+00  9.8428643122012394e-01 -1.8219805730358579e-01 0.0000000000000000e+00  9.9997185212863704e-01 -1.8547095363920910e-02 0.0000000000000000e+00  6.5223450026422924e-01 7.5916179951163387e-01 0.0000000000000000e+00  8.0551172999669185e-01 -5.9857454097269436e-01 0.0000000000000000e+00  1.2120929722491589e-01 1.1070742457802438e+00 0.0000000000000000e+00  3.9973264357496119e-01 9.3628166099890064e-01 0.0000000000000000e+00  6.5871302850258073e-01 -7.5394502232016369e-01 0.0000000000000000e+00  8.2869463634608043e-01 5.6177905037153153e-01 0.0000000000000000e+00  9.9267229490631581e-01 -1.2656009158986226e-01 0.0000000000000000e+00  7.9218798807519109e-01 6.1057276349165623e-01 0.0000000000000000e+00  9.2982710500961741e-01 3.6857680810951488e-01 0.0000000000000000e+00  1.0001233358140338e+00 -5.3430529753382520e-03 0.0000000000000000e+00  9.1411695802155091e-01 -4.0602668648979229e-01 0.0000000000000000e+00  7.5454070156818953e-01 -6.5652310237053513e-01 0.0000000000000000e+00  1.5293628947868565e-01 -9.8868961343992656e-01 0.0000000000000000e+00  7.7491112718673349e-01 -6.3234935740637011e-01 0.0000000000000000e+00  6.4720981770967523e-01 -7.6244423021958874e-01 0.0000000000000000e+00  4.8321209111349123e-01 8.7563108630583286e-01 0.0000000000000000e+00  7.9137106221768339e-01 -6.1189076430642186e-01 0.0000000000000000e+00  1.8378525101424684e-01 -9.8254194308404041e-01 0.0000000000000000e+00  4.6981582468119182e-01 8.8293805500071598e-01 0.0000000000000000e+00  9.0011173607135797e-01 -4.3619617121239596e-01 0.0000000000000000e+00  8.6788798510529941e-01 4.9761048911504013e-01 0.0000000000000000e+00  9.9942069878803019e-01 -4.2995511465574461e-02 0.0000000000000000e+00  6.3293203318643043e-01 -7.7433305131318397e-01 0.0000000000000000e+00  8.5704044428051485e-01 -5.1570314650044169e-01 0.0000000000000000e+00  5.4390565016301762e-01 -8.3961502510784924e-01 0.0000000000000000e+00  8.6948779237416440e-01 4.9442478715882177e-01 0.0000000000000000e+00  8.