<?xml version="1.0"?>
<VTKFile type="UnstructuredGrid"  version="0.1"  >
<UnstructuredGrid>
<Piece  NumberOfPoints="4153" NumberOfCells="8064">
<Points>
<DataArray  type="Float64"  NumberOfComponents="3"  format="ascii">-0.4239047651919448 -0.6109530605489089 0  -0.05204200783383395 -0.7552446029446461 0  -0.103074313708087 -0.7502420294186435 0  -0.1532599422155073 -0.7406601766162436 0  -0.2022822926268175 -0.7271208912689059 0  -0.25027054897051 -0.7109445949323925 0  -0.2966610425123721 -0.6899189356084947 0  -0.3410574591652186 -0.6656957300090368 0  -0.3834544680295939 -0.6392445601533097 0  -0.0006574412466401708 -0.7552912651958823 0  -0.4626462682900412 -0.5830125747818081 0  -0.5002684669211912 -0.5553102351249497 0  -0.5368533992143167 -0.5281261880074022 0  -0.5725574800091892 -0.5018520978066466 0  -0.6077329287568957 -0.4770032690817458 0  -0.6424892988153184 -0.4537482618779817 0  -0.6769937893756368 -0.4329786975963419 0  0.6514873811004203 -0.4426890625181411 0  0.05053459971353794 -0.7504191455725189 0  0.1010143563749853 -0.7408117387119096 0  0.1503294045987317 -0.7268899564351596 0  0.1981275639863637 -0.70918803197363 0  0.2442507238086055 -0.6886666820147609 0  0.2886932515646506 -0.6659755639401983 0  0.3315099651094274 -0.6417431848420196 0  0.3727826423735227 -0.6165420558646169 0  0.4127404429744661 -0.5909961155692071 0  0.4515605159759042 -0.5655064334991193 0  0.4894222953835289 -0.5404104654583293 0  0.526462827290835 -0.5160754025286335 0  0.562862416588385 -0.4926901447423329 0  0.5987357276357449 -0.470727532882429 0  0.6342905450116392 -0.4509893323562323 0  0.6163743092622527 -0.4608342031851965 0  -0.6595335385599799 -0.4432488594489791 0  -0.5902023245094152 -0.4893200953923738 0  -0.5186686751486008 -0.5416357147525488 0  -0.4433849158325954 -0.5969160591798756 0  -0.3625052881990839 -0.6526040463168171 0  -0.2737083808614931 -0.7009028726129062 0  -0.1779280798543024 -0.7344099192975632 0  -0.07763613201117073 -0.7533456492494133 0  0.5808312484365132 -0.4816576582446471 0  0.1258415324949383 -0.7343516366177916 0  0.2213996927715335 -0.6992404285326134 0  0.3102938427946249 -0.6540220730648619 0  0.3929179337548977 -0.6037911606215761 0  0.4705957969983772 -0.5529062048563846 0  0.5447495990699258 -0.5042951202907772 0  0.02499604108030874 -0.7534650954683308 0  -0.6937039525892466 -0.4241329975008324 0  0.5080217060261981 -0.5281203664052475 0  0.4322802289564232 -0.5782293280788552 0  0.352326222155478 -0.629207454227002 0  0.2666804863798871 -0.6775590134896161 0  0.1744417444564286 -0.7184647565900653 0  0.07589411152803884 -0.7461857485322683 0  -0.02635772627402986 -0.755894960220536 0  -0.1282983557450448 -0.7459993318365832 0  -0.2263219953860321 -0.7194554354167019 0  -0.319097413292525 -0.6780923951884739 0  -0.4040599821756565 -0.6253983082675301 0  -0.48160049025885 -0.5691312999970756 0  -0.5548061016101797 -0.5148350978671135 0  -0.62511534591687 -0.4653142908005647 0  0.791033565673206 -0.2542900981677799 0  0.7063677259870138 -0.4154158345584585 0  0.7531616605633754 -0.372955297794534 0  0.7830310268497113 -0.317657011185147 0  0.6793770340428228 -0.4295525092008582 0  0.7307637675969072 -0.395417969253237 0  0.7665434118428786 -0.3440906441154987 0  0.7860624500063187 -0.2855744449550448 0  0.6655948173494837 -0.4369647360522643 0  0.6928114394334584 -0.4218741751362055 0  0.7186610624877481 -0.4055890868547147 0  0.7415903213283179 -0.3833815848316323 0  0.7615484810642249 -0.3594228974801604 0  0.7740660801379365 -0.3306927118998813 0  0.7838078034361237 -0.3013971088857891 0  0.7879620932152195 -0.2698065595452147 0  0.7903678740850393 -0.2338522662068119 0  0.7948621591037549 0.2195862678830572 0  0.7947158069105656 0.1790601129267856 0  0.7958787589964914 0.1382997092205271 0  0.7975598763811768 0.09718982677886483 0  0.7994472772358733 0.05564006185526098 0  0.8001022519225884 0.01373928902263194 0  0.7996082694054354 -0.02824118582384762 0  0.7979707488842018 -0.0701131801888312 0  0.7952020511112335 -0.1115992812758968 0  0.7927070896268144 -0.1526557077209991 0  0.790796738538911 -0.1933606746052776 0  0.7961520743573368 0.2399689784951161 0  0.7945735805858408 0.1993400562553839 0  0.7966885447844368 0.1177925043033924 0  0.7999180068783993 0.03471253478331802 0  0.7989359942561699 -0.04920318343715361 0  0.7939233646560917 -0.1321779887306536 0  0.7903521326138191 -0.2136231910236988 0  0.7952055629908849 0.1587189926789151 0  0.7985727774334178 0.07648992851884318 0  0.7999943820929443 -0.007252614646956134 0  0.7966289902399866 -0.0909310404280109 0  0.7916564003183783 -0.1730478366058905 0  0.6625674604226647 0.4305001694381705 0  0.789919837064939 0.3036029504513522 0  0.7617091696786958 0.3597562709233794 0  0.7163289531668305 0.402994132242174 0  0.7922787973358225 0.2714111471455672 0  0.7747204807595771 0.3307568890854787 0  0.7399699371618145 0.3823958135056442 0  0.6897837584261148 0.4171301075164314 0  0.7938183109617245 0.2556053909920625 0  0.7905508480058987 0.287317655635039 0  0.7817598941436301 0.3170101811315095 0  0.7694485987057551 0.3458540576740919 0  0.7504424889222573 0.3702730875853589 0  0.72822330421013 0.392810007617558 0  0.7029808709339821 0.4095164659373763 0  0.676291610896627 0.4245188449209346 0  -0.03669823898323948 0.7760605998476674 0  0.6114977289021374 0.4600607146651876 0  0.5768378008423783 0.4833548548344166 0  0.541715355896403 0.5082829367954756 0  0.505983592330902 0.5345956685900094 0  0.4693387047903696 0.5618272594910864 0  0.4316073873997273 0.5896089629202234 0  0.3925918300122317 0.6175828957278905 0  0.3520475294553336 0.645407765240705 0  0.3096795533793154 0.6722458297893228 0  0.2653982111423372 0.6975179648138815 0  0.2191294509045566 0.7205385748364231 0  0.1708629555868622 0.7406929089908758 0  0.1207315628934531 0.7567854374126158 0  0.06911128564216504 0.7682758548088356 0  0.0164731177949938 0.7746694841565425 0  0.6459233609499354 0.4392432458173514 0  -0.08971821181850254 0.7711956671831691 0  -0.1418020352021378 0.7607945942366923 0  -0.1923553496018115 0.7454487896714295 0  -0.2407339049222652 0.7251242631119 0  -0.2870106136716419 0.7028343044490938 0  -0.3313159933029496 0.6785065763705371 0  -0.3737517672072426 0.6527235852998101 0  -0.4144022221727975 0.6258710387999538 0  -0.4536054961571677 0.5990930436147595 0  -0.4916680435561819 0.5725641868388022 0  -0.5287625345224879 0.5465563593937285 0  -0.5650556089259803 0.5213555919461937 0  -0.6006893454920926 0.4972205904666864 0  -0.6358500174151239 0.4746456067334202 0  -0.6707607424584997 0.4544519624638051 0  -0.6876371509494753 0.4459590860831851 0  -0.6531337739515851 0.4644951941696605 0  -0.5829501983278367 0.5091834977177144 0  -0.5103258623882204 0.5594832217708098 0  -0.4341483428296565 0.6124590809585878 0  -0.3527561055447543 0.6657393567748852 0  -0.2641162495567934 0.714276513007115 0  -0.1672955467282553 0.7535954677629457 0  -0.0632769288851243 0.7743232699571799 0  0.04289184059048043 0.7721566721520242 0  0.1460091280777629 0.7492593721732416 0  0.2425126062597437 0.7093555843349548 0  0.3310912300611699 0.6589801794418381 0  0.4122705247363823 0.603594653887839 0  0.4877804697550044 0.5481238096594975 0  0.5593438429506163 0.4956983869601392 0  0.6285365361413597 0.4495801176720433 0  -0.6182907078289033 0.485872225815171 0  -0.5469979847571856 0.533850644129013 0  -0.4727692024526318 0.5857821075201693 0  -0.3943206416111215 0.6393903064612556 0  -0.3094025061547463 0.6908815928514224 0  -0.2169437427405631 0.7358884845201944 0  -0.1159153147809506 0.7666354739986631 0  -0.01004048236664874 0.7760730442537732 0  0.09508116080741148 0.7631401084008792 0  0.1952640271627581 0.731077377421912 0  0.2877847426460141 0.6851221490060448 0  0.372545005697149 0.6315635396768456 0  0.4506207277483224 0.5756746576357761 0  0.5239546642890109 0.5212946058187776 0  0.5941900772480687 0.4716299956313998 0  -0.8247718292927955 0.2576058293029163 0  -0.7419879469418194 0.4189716763130465 0  -0.7881861053721214 0.3763899976290557 0  -0.8174045972973765 0.3209034684540097 0  -0.7151804504686269 0.4329152845810377 0  -0.7660616499214932 0.3988270688737039 0  -0.8014506297996834 0.347571323702165 0  -0.8202092201500163 0.2888662099724747 0  -0.7015324565417207 0.4401978633001999 0  -0.7285132973934733 0.4253711759888975 0  -0.7541030094564594 0.4090393471298703 0  -0.7767367198490416 0.3868001881283692 0  -0.796302633836693 0.3627422787101848 0  -0.8087795070767481 0.3340640334703184 0  -0.8181559064276388 0.3046806293699342 0  -0.8219892090280342 0.2731316286255657 0  -0.8238625422337066 0.2372541358639113 0  -0.8270136949104073 -0.2143245011386435 0  -0.8267094010059972 -0.1739346510033219 0  -0.8278426638045937 -0.1333483826715582 0  -0.8295611013658407 -0.09243110174440587 0  -0.8315639065340829 -0.05109011431142151 0  -0.8323989949583981 -0.009387537364277854 0  -0.8321135081973339 0.03240190071142142 0  -0.8307113439004719 0.07409519930669872 0  -0.8281544501986966 0.1154224898763317 0  -0.8258668097717269 0.156325151174259 0  -0.8241521422233277 0.1968923969002737 0  -0.8282389299639286 -0.2346953567143755 0  -0.8266301111692129 -0.1941418060716677 0  -0.8286675539219447 -0.1129368688428351 0  -0.8321233150989368 -0.03026204796296654 0  -0.8315533928813517 0.05327284117803328 0  -0.8269774918917998 0.1359213984500901 0  -0.8237775888357151 0.2170878753369364 0  -0.8271783454790833 -0.1536777490677434 0  -0.830614181479289 -0.07183551475612407 0  -0.8323918441855945 0.01150777934384061 0  -0.8294842416709912 0.09483330780084724 0  -0.8249129958908387 0.176645933825354 0  -0.8217024617731451 -0.2981523116203652 0  -0.7931107054219338 -0.3538924476653587 0  -0.7475168803128237 -0.3968587512673149 0  -0.8241568128394794 -0.2660319222886908 0  -0.8061570270326658 -0.3249961980239248 0  -0.7713215688941341 -0.3765511983500897 0  -0.7209440219212357 -0.4109949415276959 0  -0.8257142951586246 -0.2502590699844308 0  -0.822315
[...]
<PointData  Vectors="f_44"> 
<DataArray  type="Float64"  Name="f_44"  NumberOfComponents="3" format="ascii">-6.7850801154832080e-02 2.1311623788663947e-01 0.0000000000000000e+00  -2.2259093296129329e-01 2.2244775636722374e-02 0.0000000000000000e+00  -2.1449141900881197e-01 6.3563569967501954e-02 0.0000000000000000e+00  -2.0072873894083632e-01 9.8863122788000135e-02 0.0000000000000000e+00  -1.8408961322455603e-01 1.2701782414953741e-01 0.0000000000000000e+00  -1.6418430057839289e-01 1.5164402633036800e-01 0.0000000000000000e+00  -1.3309900484362058e-01 1.7960390195950574e-01 0.0000000000000000e+00  -1.0869504741260475e-01 1.9537442285523776e-01 0.0000000000000000e+00  -9.0917441283694236e-02 2.0439350844517076e-01 0.0000000000000000e+00  -2.2269481778813563e-01 -2.1165061641292740e-02 0.0000000000000000e+00  -6.8966379289256724e-02 2.1270786655829668e-01 0.0000000000000000e+00  -6.4674940583025836e-02 2.1404959026734860e-01 0.0000000000000000e+00  -6.4819406734418203e-02 2.1400112359187498e-01 0.0000000000000000e+00  -7.1020505039085358e-02 2.1200143539542093e-01 0.0000000000000000e+00  -8.0313459403058340e-02 2.0861428142466359e-01 0.0000000000000000e+00  -9.2476295414024107e-02 2.0350892262185527e-01 0.0000000000000000e+00  -1.1348423512862292e-01 1.9324901356644683e-01 0.0000000000000000e+00  -1.5521125890563409e-01 -1.6119123658607251e-01 0.0000000000000000e+00  -2.1469260542449675e-01 -6.2799468964214747e-02 0.0000000000000000e+00  -1.9981398052905866e-01 -1.0051764342814239e-01 0.0000000000000000e+00  -1.8042593515181424e-01 -1.3218481720866604e-01 0.0000000000000000e+00  -1.5923635511628809e-01 -1.5705600345862719e-01 0.0000000000000000e+00  -1.4005855712635307e-01 -1.7435365523459606e-01 0.0000000000000000e+00  -1.2254222879867940e-01 -1.8706283628831180e-01 0.0000000000000000e+00  -1.0776556004168271e-01 -1.9593349038061095e-01 0.0000000000000000e+00  -9.7581317700976514e-02 -2.0119485722701544e-01 0.0000000000000000e+00  -9.0821432497758259e-02 -2.0433491118078123e-01 0.0000000000000000e+00  -8.7537260917891435e-02 -2.0576112979971653e-01 0.0000000000000000e+00  -8.7012341759539091e-02 -2.0598166915372743e-01 0.0000000000000000e+00  -9.1575558422068409e-02 -2.0398181020979680e-01 0.0000000000000000e+00  -9.7698088950807366e-02 -2.0105574266906734e-01 0.0000000000000000e+00  -1.0908802699564053e-01 -1.9501231001863117e-01 0.0000000000000000e+00  -1.2559675934845316e-01 -1.8527278635377312e-01 0.0000000000000000e+00  -1.1867486003635232e-01 -1.8960296005992600e-01 0.0000000000000000e+00  -1.0544283342363214e-01 1.9716239912514713e-01 0.0000000000000000e+00  -7.4267542488952162e-02 2.1096370418968505e-01 0.0000000000000000e+00  -6.4416103473175237e-02 2.1412864216842559e-01 0.0000000000000000e+00  -7.1677361808439088e-02 2.1180324953293944e-01 0.0000000000000000e+00  -9.7501211611203842e-02 2.0127018157655116e-01 0.0000000000000000e+00  -1.4657379250307087e-01 1.6920286598995901e-01 0.0000000000000000e+00  -1.9139882945396994e-01 1.1551730720146335e-01 0.0000000000000000e+00  -2.1938456444592075e-01 4.3615510721530748e-02 0.0000000000000000e+00  -1.0083266096466909e-01 -1.9970363420513618e-01 0.0000000000000000e+00  -1.9058740145902736e-01 -1.1708020210074400e-01 0.0000000000000000e+00  -1.4962611164630027e-01 -1.6619531178534591e-01 0.0000000000000000e+00  -1.1504729038211813e-01 -1.9175633094673689e-01 0.0000000000000000e+00  -9.3662018182644996e-02 -2.0304720200209020e-01 0.0000000000000000e+00  -8.7011062239014808e-02 -2.0598306606973699e-01 0.0000000000000000e+00  -9.2111181592438238e-02 -2.0379567667732484e-01 0.0000000000000000e+00  -2.1966791604378039e-01 -4.2207978395705982e-02 0.0000000000000000e+00  -1.4326777948856845e-01 1.7109198568475076e-01 0.0000000000000000e+00  -8.8519235146131608e-02 -2.0534601626091820e-01 0.0000000000000000e+00  -8.8726690253215959e-02 -2.0524931077563977e-01 0.0000000000000000e+00  -1.0186818222494813e-01 -1.9906531433643099e-01 0.0000000000000000e+00  -1.3097487814599382e-01 -1.8125335350482472e-01 0.0000000000000000e+00  -1.6939788390485752e-01 -1.4602347002958110e-01 0.0000000000000000e+00  -2.0801194710626267e-01 -8.2257001363485210e-02 0.0000000000000000e+00  -2.2368887718015668e-01 3.4165153711347094e-04 0.0000000000000000e+00  -2.0770504351379490e-01 8.2856132426308654e-02 0.0000000000000000e+00  -1.7976934792606397e-01 1.3325635548552867e-01 0.0000000000000000e+00  -1.2098184202806249e-01 1.8819458137640910e-01 0.0000000000000000e+00  -7.5246957459959324e-02 2.1047291619728564e-01 0.0000000000000000e+00  -6.6153549958412175e-02 2.1359802313391399e-01 0.0000000000000000e+00  -6.5806522440555903e-02 2.1372234625468925e-01 0.0000000000000000e+00  -8.4773787553303726e-02 2.0700290103586164e-01 0.0000000000000000e+00  2.1420420318490352e-01 -3.1986574033747064e-02 0.0000000000000000e+00  -9.6075469789761947e-02 -1.9375309946730118e-01 0.0000000000000000e+00  1.7482248115637242e-02 -2.2176503509716658e-01 0.0000000000000000e+00  1.5159892680071396e-01 -1.0683074720423504e-01 0.0000000000000000e+00  -1.0579314920809998e-01 -1.9841716560315298e-01 0.0000000000000000e+00  6.3609777227561148e-04 -2.1985948183065049e-01 0.0000000000000000e+00  1.6532779364964081e-01 -1.4251280272618153e-01 0.0000000000000000e+00  2.1169915129183733e-01 -6.1593153894017275e-02 0.0000000000000000e+00  -1.4728011935099286e-01 -1.6706241023109453e-01 0.0000000000000000e+00  -1.3996618415519529e-01 -1.7688700434254964e-01 0.0000000000000000e+00  -4.1987942642813386e-02 -2.2537307970240658e-01 0.0000000000000000e+00  -3.4830471560205515e-03 -2.2316974057832389e-01 0.0000000000000000e+00  1.6459900184766726e-01 -1.5770064206312157e-01 0.0000000000000000e+00  6.7735242262187731e-02 -2.3777803021166993e-01 0.0000000000000000e+00  2.3733911305374783e-01 -2.0337176371493754e-02 0.0000000000000000e+00  2.1150583571110013e-01 -8.0262487552889797e-02 0.0000000000000000e+00  2.2576538278555650e-01 2.1511834877078022e-02 0.0000000000000000e+00  2.2386092883843839e-01 -3.0162597099711023e-02 0.0000000000000000e+00  2.2352412177141084e-01 6.1645276536173516e-03 0.0000000000000000e+00  2.2299896937763555e-01 1.6364734096218813e-02 0.0000000000000000e+00  2.2264589411300850e-01 2.0590769717898000e-02 0.0000000000000000e+00  2.2312415895835191e-01 1.4510870451607514e-02 0.0000000000000000e+00  2.2360292548182781e-01 8.8419060877826616e-04 0.0000000000000000e+00  2.2331975880807658e-01 -1.1308603873235044e-02 0.0000000000000000e+00  2.2220084939876125e-01 -2.4936608420481260e-02 0.0000000000000000e+00  2.2166989056319689e-01 -2.9290199715221201e-02 0.0000000000000000e+00  2.2221149337993151e-01 -2.4893960185135240e-02 0.0000000000000000e+00  2.2326205689969569e-01 -1.3848814159544927e-02 0.0000000000000000e+00  2.1709895829463174e-01 1.3071271574280110e-02 0.0000000000000000e+00  2.2347941727718498e-01 3.5703527452047639e-03 0.0000000000000000e+00  2.2287796792367404e-01 1.8144743073116636e-02 0.0000000000000000e+00  2.2353295201136111e-01 6.6370135696341426e-03 0.0000000000000000e+00  2.2297228298601485e-01 -1.7133628937073545e-02 0.0000000000000000e+00  2.2197080728262242e-01 -2.7066168834435161e-02 0.0000000000000000e+00  2.2299216303322461e-01 -9.0097201935612509e-03 0.0000000000000000e+00  2.2322084541540527e-01 1.3485605917332062e-02 0.0000000000000000e+00  2.2257779920517753e-01 2.1638408857976570e-02 0.0000000000000000e+00  2.2355719633634430e-01 -5.2856306589964940e-03 0.0000000000000000e+00  2.2146402993936848e-01 -3.1017261456119067e-02 0.0000000000000000e+00  2.2255400987374840e-01 -2.1720522901600779e-02 0.0000000000000000e+00  -1.4420478526856717e-01 1.7073046317429449e-01 0.0000000000000000e+00  1.6276449830679504e-01 1.0177694761562932e-01 0.0000000000000000e+00  3.4665551184372867e-02 2.1425895032243608e-01 0.0000000000000000e+00  -8.5991245009069656e-02 1.9682947274234047e-01 0.0000000000000000e+00  2.1490228406065748e-01 4.9296443615467152e-02 0.0000000000000000e+00  1.6368756604283863e-01 1.4506347773199091e-01 0.0000000000000000e+00  1.0874449475292702e-02 2.1916988282884908e-01 0.0000000000000000e+00  -1.0392180427731965e-01 1.9881331394721849e-01 0.0000000000000000e+00  2.1695941017635287e-01 6.5682978013619581e-02 0.0000000000000000e+00  2.3673016184704679e-01 1.0886642529544563e-02 0.0000000000000000e+00  9.3288423596858128e-02 2.2351564973236462e-01 0.0000000000000000e+00  1.7003806358027207e-01 1.5705810943785270e-01 0.0000000000000000e+00  2.2570244814458028e-03 2.2482609334688869e-01 0.0000000000000000e+00  -2.7164755167581572e-02 2.2819555943274494e-01 0.0000000000000000e+00  -1.3922806574609761e-01 1.7873150517617734e-01 0.0000000000000000e+00  -1.4226945637092223e-01 1.7191970802141013e-01 0.0000000000000000e+00  -2.2314180630122935e-01 -1.4951638347651357e-02 0.0000000000000000e+00  -9.2628607682557165e-02 2.0337185196926458e-01 0.0000000000000000e+00  -7.9521684516391716e-02 2.0891120294985149e-01 0.0000000000000000e+00  -7.0259609300582462e-02 2.1225743483162882e-01 0.0000000000000000e+00  -6.4828358691755211e-02 2.1399902301865076e-01 0.0000000000000000e+00  -6.4811544997263520e-02 2.1400830184865138e-01 0.0000000000000000e+00  -6.8529940019973631e-02 2.1284937385188010e-01 0.0000000000000000e+00  -7.5157698521093635e-02 2.1060420152392639e-01 0.0000000000000000e+00  -8.7380631169788142e-02 2.0583749548927807e-01 0.0000000000000000e+00  -1.0393424816915316e-01 1.9800575870712456e-01 0.0000000000000000e+00  -1.2379274011415417e-01 1.8626333306770371e-01 0.0000000000000000e+00  -1.4533486023029349e-01 1.7002374267564360e-01 0.0000000000000000e+00  -1.7007300758584928e-01 1.4527818957391941e-01 0.0000000000000000e+00  -1.9260590276848552e-01 1.1373359292773522e-01 0.0000000000000000e+00  -2.1064680724540447e-01 7.5416376719756331e-02 0.0000000000000000e+00  -2.2132093816446072e-01 3.2763369592027788e-02 0.0000000000000000e+00  -1.1295623318127394e-01 1.9337034729355151e-01 0.0000000000000000e+00  -2.1424667089760832e-01 -6.4015537378904239e-02 0.0000000000000000e+00  -1.9622657646012034e-01 -1.0714612401402950e-01 0.0000000000000000e+00  -1.7417076912017609e-01 -1.4039496777252283e-01 0.0000000000000000e+00  -1.4525406254755618e-01 -1.7014450137855253e-01 0.0000000000000000e+00  -1.2888893639166049e-01 -1.8280850660863932e-01 0.0000000000000000e+00  -1.1078513979325012e-01 -1.9424732542648307e-01 0.0000000000000000e+00  -9.5591148209525467e-02 -2.0215739374185934e-01 0.0000000000000000e+00  -8.2785341525612011e-02 -2.0772679839458050e-01 0.0000000000000000e+00  -7.9031375509028570e-02 -2.0917699153627631e-01 0.0000000000000000e+00  -7.6382877140984670e-02 -2.1015626178834845e-01 0.0000000000000000e+00  -7.6778232380963013e-02 -2.1000904188355343e-01 0.0000000000000000e+00  -8.0700627157225049e-02 -2.0851747858047517e-01 0.0000000000000000e+00  -8.8410250247752759e-02 -2.0530472994680030e-01 0.0000000000000000e+00  -1.0085947516047208e-01 -1.9941143751347826e-01 0.0000000000000000e+00  -1.1964607789792638e-01 -1.8932095955491360e-01 0.0000000000000000e+00  -1.5039268604868189e-01 -1.6533675922576027e-01 0.0000000000000000e+00  -1.1206259961666860e-01 -1.9355362568772805e-01 0.0000000000000000e+00  -8.2183226004762217e-02 -2.0800481033546692e-01 0.0000000000000000e+00  -7.6039907240037993e-02 -2.1028169119415246e-01 0.0000000000000000e+00  -8.1538188801734385e-02 -2.0820760635744209e-01 0.0000000000000000e+00  -1.0290599733301080e-01 -1.9854609467886802e-01 0.0000000000000000e+00  -1.4044683683040005e-01 -1.7392750286130959e-01 0.0000000000000000e+00  -1.8598476010552370e-01 -1.2444551978819392e-01 0.0000000000000000e+00  -2.2000819071005001e-01 -4.1214775533406085e-02 0.0000000000000000e+00  -2.1722142539684947e-01 5.3148363632995313e-02 0.0000000000000000e+00  -1.8181713044150982e-01 1.3030456956590289e-01 0.0000000000000000e+00  -1.3490452008786494e-01 1.7834318261438264e-01 0.0000000000000000e+00  -9.5440309750052646e-02 2.0223675583302592e-01 0.0000000000000000e+00  -7.1709165692281196e-02 2.1179674712556601e-01 0.0000000000000000e+00  -6.4345711177210205e-02 2.1414974055625000e-01 0.0000000000000000e+00  -7.3256889995446356e-02 2.1131722771645825e-01 0.0000000000000000e+00  -1.0434928965490951e-01 1.9782835525607825e-01 0.0000000000000000e+00  -9.2286472656239169e-02 -2.0379479265789918e-01 0.0000000000000000e+00  -7.7825641659888881e-02 -2.0963583377318631e-01 0.0000000000000000e+00  -7.7224936713380182e-02 -2.0984843635841463e-01 0.0000000000000000e+00  -8.6985393430377075e-02 -2.0599757282490472e-01 0.0000000000000000e+00  -1.2002132735861538e-01 -1.8868148134337562e-01 0.0000000000000000e+00  -1.5453832770340006e-01 -1.6159603191456645e-01 0.0000000000000000e+00  -2.0668085044517354e-01 -8.5886707943677879e-02 0.0000000000000000e+00  -2.2335809214803096e-01 1.3084666355731888e-02 0.0000000000000000e+00  -2.0257976492240271e-01 9.4831693409503898e-02 0.0000000000000000e+00  -1.5675084744889539e-01 1.5951735516710891e-01 0.0000000000000000e+00  -1.1358751006265091e-01 1.9263251311793020e-01 0.0000000000000000e+00  -7.9958431331451113e-02 2.0883086192218567e-01 0.0000000000000000e+00  -6.6240046779553211e-02 2.1357056817145426e-01 0.0000000000000000e+00  -6.5780976326148016e-02 2.1372709852257826e-01 0.0000000000000000e+00  -8.3657341405948771e-02 2.0748600490332322e-01 0.0000000000000000e+00  2.1550498833317691e-01 -2.4486732469110147e-02 0.0000000000000000e+00  -9.3017595824026855e-02 -1.9429696684698092e-01 0.0000000000000000e+00  2.3806771898818954e-02 -2.1866600324835597e-01 0.0000000000000000e+00  1.5607424552445681e-01 -1.0559882784676286e-01 0.0000000000000000e+00  -1.0748310635339667e-01 -1.9716316953483393e-01 0.0000000000000000e+00  3.8140715958108794e-03 -2.1954434765706490e-01 0.0000000000000000e+00  1.6378944243837518e-01 -1.4459784007657883e-01 0.0000000000000000e+00  2.1291065122133002e-01 -5.7242107235607582e-02 0.0000000000000000e+00  -1.4720262991834443e-01 -1.6752909262337320e-01 0.0000000000000000e+00  -1.4190282585304562e-01 -1.7604574716700802e-01 0.0000000000000000e+00  -3.6873214293750699e-02 -2.2661635772197386e-01 0.0000000000000000e+00  -2.1282201231482781e-03 -2.2390375222281306e-01 0.0000000000000000e+00  1.6632265735066809e-01 -1.5848439276700171e-01 0.0000000000000000e+00  7.8113378183612706e-02 -2.3209082017671309e-01 0.0000000000000000e+00  2.3705901447623695e-01 -1.7258135626072285e-02 0.0000000000000000e+00  2.1364283138291312e-01 -7.5218537732089891e-02 0.0000000000000000e+00  2.2506914720303609e-01 2.4572344863414031e-02 0.0000000000000000e+00  2.2418362637863723e-01 -3.1270888239152125e-02 0.0000000000000000e+00  2.2358203053560335e-01 5.4234117983721812e-03 0.0000000000000000e+00  2.2298900267965116e-01 1.6509051344267021e-02 0.0000000000000000e+00  2.2258032577583575e-01 2.1277864485400078e-02 0.0000000000000000e+00  2.2299034719523800e-01 1.6422360131277455e-02 0.0000000000000000e+00  2.2358552170732604e-01 2.9297059199839214e-03 0.0000000000000000e+00  2.2342251231749208e-01 -9.0287959102244505e-03 0.0000000000000000e+00  2.2246811693915869e-01 -2.2418396384231615e-02 0.0000000000000000e+00  2.2191977679046784e-01 -2.7325656418943942e-02 0.0000000000000000e+00  2.2243522766264362e-01 -2.2793573158423217e-02 0.0000000000000000e+00  2.2333515887503552e-01 -1.1913388529532418e-02 0.0000000000000000e+00  2.1625807217042481e-01 1.7398595849789388e-02 0.0000000000000000e+00  2.2334264621180322e-01 1.4048150849711237e-03 0.0000000000000000e+00  2.2283531882228869e-01 1.8673711057405565e-02 0.0000000000000000e+00  2.2346599190405500e-01 8.5917313268941715e-03 0.0000000000000000e+00  2.2314858145508340e-01 -1.4673760809826868e-02 0.0000000000000000e+00  2.2222847453763939e-01 -2.4868544719814492e-02 0.0000000000000000e+00  2.2318809797641451e-01 -7.9691106774806165e-03 0.0000000000000000e+00  2.2322994436669230e-01 1.3226989773634288e-02 0.0000000000000000e+00  2.2244167419395572e-01 2.3001187357796195e-02 0.0000000000000000e+00  2.2359863857690826e-01 -3.0573257660716797e-03 0.0000000000000000e+00  2.2174992036216992e-01 -2.8912579581321828e-02 0.0000000000000000e+00  2.2275717490445363e-01 -1.9619700876436066e-02 0.0000000000000000e+00  1.5921260653290861e-01 1.0246264150284097e-01 0.0000000000000000e+00  2.8988973008993019e-02 2.1802244591973985e-01 0.0000000000000000e+00  -8.8745470718980965e-02 1.9623324784259311e-01 0.0000000000000000e+00  2.1439486843277022e-01 5.1066653919886795e-02 0.0000000000000000e+00  1.6636328726359270e-01 1.4205216775600549e-01 0.0000000000000000e+00  8.1287663434701923e-03 2.1927103028412762e-01 0.0000000000000000e+00  -1.0612850190713857e-01 1.9754469490915563e-01 0.0000000000000000e+00  2.1592394065828099e-01 6.8622077037602786e-02 0.0000000000000000e+00  2.3724091599968281e-01 1.2300324272927550e-02 0.0000000000000000e+00  8.5010813895293594e-02 2.2892308798456568e-01 0.0000000000000000e+00  1.6813802832301047e-01 1.5638171780843338e-01 0.0000000000000000e+00  3.8748871865962949e-03 2.2395694694344659e-01 0.0000000000000000e+00  -3.2730236570284774e-02 2.2727782148881967e-01 0.0000000000000000e+00  -1.3822054266349568e-01 1.7903800627462191e-01 0.0000000000000000e+00  -1.4585737677254651e-01 1.6926640415387717e-01 0.0000000000000000e+00  -1.3441168153059263e-01 -1.7876465182089368e-01 0.0000000000000000e+00  -1.3330904968978494e-01 -1.7959107445769207e-01 0.0000000000000000e+00  -2.1502482332812012e-01 6.1563207804121285e-02 0.0000000000000000e+00  -1.8232794766927702e-02 2.2295414345977718e-01 0.0000000000000000e+00  -1.6458300327188393e-02 2.2308907934595923e-01 0.0000000000000000e+00  -2.0854276051705778e-01 8.0853429562819171e-02 0.0000000000000000e+00  1.9372051741959670e-01 -1.1185358779377197e-01 0.0000000000000000e+00  1.9550133831553440e-01 -1.0869763772360314e-01 0.0000000000000000e+00  1.9894082696755694e-01 1.0225368695978745e-01 0.0000000000000000e+00  2.0057361776422311e-01 9.9011679095843352e-02 0.0000000000000000e+00  6.0094025200519485e-02 2.1550777146296624e-01 0.0000000000000000e+00  1.6452274680113860e-01 1.5165996741889642e-01 0.0000000000000000e+00  1.0452290204576344e-01 1.9807063746117939e-01 0.0000000000000000e+00  2.2158568346871835e-01 -3.1809159124197656e-02 0.0000000000000000e+00  2.0948041811367149e-01 -8.0308197380368512e-02 0.0000000000000000e+00  2.2355257949148877e-01 -8.2955145329811492e-03 0.0000000000000000e+00  -3.3784490731456500e-02 2.2168042174971900e-01 0.0000000000000000e+00  6.5215559192955075e-02 -2.1653843961149266e-01 0.0000000000000000e+00  -2.1783281673935959e-01 5.2326276059158364e-02 0.0000000000000000e+00  -1.5431737362817799e-01 1.6471605578607174e-01 0.0000000000000000e+00  -3.0133265892032676e-02 -2.2245288802453253e-01 0.0000000000000000e+00  8.3108283960325352e-02 2.0851401241923873e-01 0.0000000000000000e+00  2.1687690103900328e-01 -5.6215746181381053e-02 0.0000000000000000e+00  5.6976892168584800e-02 2.1635107626287059e-01 0.0000000000000000e+00  1.6298629427989875e-01 1.5330082136534767e-01 0.0000000000000000e+00  2.2368858988894141e-01 -2.3900732688351789e-03 0.0000000000000000e+00  1.5002342505983721e-01 -1.6602866920109288e-01 0.0000000000000000e+00  3.0932139008483003e-02 -2.2157785128048726e-01 0.0000000000000000e+00  -2.1320764748675536e-01 -6.7619151914218148e-02 0.0000000000000000e+00  4.4867974141167041e-02 -2.1917918419191157e-01 0.0000000000000000e+00  -3.6327700794206157e-02 -2.2071112373607216e-01 0.0000000000000000e+00  -1.1924725131394999e-01 1.8924207105106303e-01 0.0000000000000000e+00  5.6341434012189599e-02 -2.1664819804211427e-01 0.0000000000000000e+00  -2.0855654756676431e-01 -8.0801021281980356e-02 0.0000000000000000e+00  -1.2498391337313206e-01 1.8554282639368844e-01 0.0000000000000000e+00  1.3865916545491461e-01 -1.7563532237437743e-01 0.0000000000000000e+00  1.1312011316404526e-01 1.9324217537478799e-01 0.0000000000000000e+00  2.2303029764762605e-01 -1.9224978250442247e-02 0.0000000000000000e+00  -4.4500475612455258e-02 -2.1920457046900810e-01 0.0000000000000000e+00  1.0476327822646818e-01 -1.9763645731385857e-01 0.0000