<?xml version="1.0"?>
<VTKFile type="UnstructuredGrid"  version="0.1"  >
<UnstructuredGrid>
<Piece  NumberOfPoints="4153" NumberOfCells="8064">
<Points>
<DataArray  type="Float64"  NumberOfComponents="3"  format="ascii">-0.4239047651918698 -0.6109530605480015 0  -0.05204200783385295 -0.7552446029429709 0  -0.1030743137080439 -0.7502420294169908 0  -0.1532599422154101 -0.7406601766146428 0  -0.2022822926266795 -0.7271208912673863 0  -0.2502705489703478 -0.7109445949309758 0  -0.2966610425122062 -0.6899189356071976 0  -0.3410574591650666 -0.6656957300078659 0  -0.3834544680294736 -0.6392445601522708 0  -0.000657441246723359 -0.7552912651942141 0  -0.4626462682900286 -0.5830125747810375 0  -0.5002684669212559 -0.5553102351243183 0  -0.5368533992144731 -0.5281261880069118 0  -0.5725574800094489 -0.5018520978062972 0  -0.6077329287572687 -0.477003269081535 0  -0.64248929881581 -0.4537482618779036 0  -0.6769937893762521 -0.4329786975963913 0  0.6514873811010182 -0.4426890625183927 0  0.05053459971339414 -0.7504191455708862 0  0.1010143563747898 -0.7408117387103391 0  0.1503294045984978 -0.7268899564336747 0  0.198127563986108 -0.7091880319722513 0  0.2442507238083462 -0.6886666820135041 0  0.2886932515644069 -0.6659755639390761 0  0.331509965109218 -0.6417431848410406 0  0.3727826423733656 -0.6165420558637874 0  0.4127404429743769 -0.590996115568529 0  0.4515605159758967 -0.5655064334985931 0  0.4894222953836149 -0.5404104654579531 0  0.5264628272910247 -0.5160754025284054 0  0.5628624165886852 -0.4926901447422483 0  0.5987357276361615 -0.4707275328824829 0  0.6342905450121763 -0.4509893323564179 0  0.6163743092627311 -0.460834203185318 0  -0.659533538560534 -0.443248859448967 0  -0.590202324509731 -0.4893200953920934 0  -0.5186686751487096 -0.5416357147519879 0  -0.4433849158325495 -0.596916059179036 0  -0.3625052881989455 -0.652604046315712 0  -0.2737083808613272 -0.7009028726115489 0  -0.1779280798541827 -0.7344099192959981 0  -0.07763613201115806 -0.7533456492477457 0  0.5808312484368718 -0.4816576582446311 0  0.1258415324947217 -0.7343516366162612 0  0.2213996927712736 -0.6992404285312936 0  0.3102938427943961 -0.6540220730638108 0  0.3929179337547727 -0.6037911606208222 0  0.4705957969984153 -0.5529062048559337 0  0.5447495990701698 -0.5042951202906201 0  0.02499604108019444 -0.7534650954666768 0  -0.6937039525899225 -0.4241329975009446 0  0.5080217060263347 -0.5281203664049453 0  0.4322802289563733 -0.5782293280782531 0  0.3523262221552924 -0.6292074542260971 0  0.2666804863796332 -0.6775590134884253 0  0.1744417444561814 -0.718464756588631 0  0.07589411152786778 -0.7461857485306634 0  -0.02635772627408106 -0.7558949602188606 0  -0.1282983557449733 -0.7459993318349525 0  -0.2263219953858807 -0.7194554354152325 0  -0.3190974132923646 -0.6780923951872406 0  -0.4040599821755547 -0.6253983082665527 0  -0.4816004902588742 -0.569131299996374 0  -0.554806101610386 -0.5148350978666928 0  -0.6251153459173026 -0.4653142908004203 0  0.7910335656742425 -0.2542900981680736 0  0.7063677259877902 -0.4154158345588465 0  0.7531616605642872 -0.3729552977949456 0  0.7830310268507159 -0.3176570111855102 0  0.6793770340435074 -0.4295525092011787 0  0.7307637675977473 -0.3954179692536346 0  0.7665434118438459 -0.3440906441158934 0  0.786062450007345 -0.2855744449553734 0  0.6655948173501302 -0.4369647360525609 0  0.692811439434188 -0.4218741751365635 0  0.7186610624885553 -0.4055890868551077 0  0.7415903213291923 -0.3833815848320379 0  0.7615484810651451 -0.3594228974805547 0  0.7740660801389275 -0.3306927119002607 0  0.7838078034371478 -0.3013971088861361 0  0.7879620932162533 -0.2698065595455266 0  0.790367874086072 -0.2338522662070836 0  0.7948621591048173 0.2195862678831584 0  0.7947158069116083 0.1790601129268445 0  0.7958787589975145 0.1382997092205486 0  0.7975598763821838 0.09718982677885292 0  0.7994472772368683 0.05564006185521875 0  0.8001022519235766 0.01373928902256138 0  0.7996082694064214 -0.02824118582394599 0  0.7979707488851902 -0.07011318018895807 0  0.7952020511122291 -0.1115992812760545 0  0.7927070896278205 -0.1526557077211906 0  0.7907967385399312 -0.1933606746055069 0  0.796152074358403 0.2399689784952402 0  0.7945735805868933 0.1993400562554633 0  0.7966885447854513 0.1177925043033968 0  0.7999180068793905 0.03471253478326148 0  0.7989359942571564 -0.04920318343726607 0  0.7939233646570919 -0.1321779887308276 0  0.7903521326148456 -0.2136231910239487 0  0.7952055629919172 0.1587189926789548 0  0.7985727774344182 0.07648992851881571 0  0.7999943820939308 -0.007252614647040587 0  0.7966289902409782 -0.09093104042815277 0  0.791656400319391 -0.1730478366061004 0  0.6625674604232886 0.4305001694382611 0  0.7899198370659765 0.3036029504515474 0  0.7617091696796414 0.3597562709236216 0  0.7163289531676367 0.4029941322423959 0  0.7922787973368798 0.2714111471457271 0  0.7747204807605744 0.3307568890857017 0  0.7399699371626877 0.382395813505876 0  0.6897837584268294 0.4171301075165916 0  0.7938183109627881 0.2556053909922047 0  0.7905508480069512 0.2873176556352171 0  0.7817598941446514 0.3170101811317196 0  0.7694485987067164 0.3458540576743203 0  0.7504424889231662 0.3702730875855973 0  0.7282233042109689 0.3928100076177853 0  0.7029808709347423 0.4095164659375711 0  0.6762916108973007 0.4245188449210689 0  -0.03669823898322232 0.7760605998460111 0  0.6114977289025735 0.4600607146650887 0  0.5768378008426931 0.4833548548341846 0  0.5417153558966012 0.5082829367951044 0  0.5059835923309925 0.5345956685894955 0  0.4693387047903634 0.5618272594904281 0  0.4316073873996376 0.5896089629194201 0  0.3925918300120735 0.6175828957269431 0  0.3520475294551241 0.6454077652396167 0  0.3096795533790743 0.6722458297881008 0  0.2653982111420847 0.6975179648125359 0  0.2191294509043131 0.7205385748349685 0  0.1708629555866464 0.74069290898933 0  0.1207315628932818 0.7567854374110012 0  0.06911128564205096 0.768275854807178 0  0.01647311779494456 0.7746694841548708 0  0.6459233609504972 0.4392432458173794 0  -0.08971821181842383 0.7711956671815545 0  -0.1418020352020072 0.760794594235142 0  -0.1923553496016427 0.7454487896699633 0  -0.2407339049220744 0.7251242631105349 0  -0.2870106136714433 0.7028343044478383 0  -0.3313159933027635 0.6785065763694084 0  -0.3737517672070885 0.6527235852988182 0  -0.4144022221726932 0.6258710387991051 0  -0.4536054961571304 0.5990930436140577 0  -0.4916680435562255 0.5725641868382483 0  -0.5287625345226247 0.5465563593933217 0  -0.5650556089262204 0.521355591945932 0  -0.600689345492444 0.4972205904665661 0  -0.6358500174155924 0.4746456067334366 0  -0.6707607424590905 0.4544519624639524 0  -0.687637150950127 0.4459590860833982 0  -0.6531337739521161 0.4644951941697447 0  -0.5829501983281314 0.5091834977175225 0  -0.5103258623883091 0.5594832217703295 0  -0.4341483428295839 0.6124590809578125 0  -0.3527561055445819 0.6657393567738243 0  -0.2641162495565963 0.7142765130058022 0  -0.1672955467281039 0.7535954677614366 0  -0.06327692888507555 0.7743232699555416 0  0.0428918405903981 0.7721566721503558 0  0.1460091280775674 0.7492593721716585 0  0.2425126062594931 0.7093555843335525 0  0.3310912300609423 0.6589801794406822 0  0.4122705247362562 0.6035946538869634 0  0.487780469755045 0.5481238096589115 0  0.5593438429508721 0.4956983869598373 0  0.6285365361418598 0.4495801176720098 0  -0.6182907078293134 0.4858722258151186 0  -0.5469979847573728 0.5338506441286786 0  -0.4727692024526332 0.5857821075195415 0  -0.3943206416109896 0.6393903064603339 0  -0.3094025061545516 0.690881592850229 0  -0.2169437427403789 0.7358884845187718 0  -0.1159153147808446 0.7666354739970787 0  -0.01004048236666472 0.776073044252106 0  0.09508116080726747 0.7631401083992397 0  0.195264027162526 0.7310773774204089 0  0.2877847426457648 0.6851221490047595 0  0.3725450056969626 0.631563539675827 0  0.4506207277482726 0.5756746576350453 0  0.5239546642891538 0.5212946058183345 0  0.5941900772484442 0.4716299956312341 0  -0.824771829293884 0.2576058293031726 0  -0.7419879469426512 0.4189716763133972 0  -0.7881861053730899 0.3763899976294295 0  -0.817404597298436 0.3209034684543357 0  -0.7151804504693671 0.4329152845813219 0  -0.7660616499223896 0.3988270688740644 0  -0.8014506298007051 0.3475713237025209 0  -0.8202092201510961 0.288866209972766 0  -0.701532456542422 0.4401978633004593 0  -0.7285132973942586 0.4253711759892189 0  -0.7541030094573224 0.409039347130226 0  -0.7767367198499727 0.3868001881287375 0  -0.7963026338376722 0.3627422787105425 0  -0.8087795070777933 0.3340640334706602 0  -0.8181559064287156 0.3046806293702437 0  -0.8219892090291209 0.2731316286258401 0  -0.8238625422347918 0.2372541358641456 0  -0.827013694911517 -0.2143245011387723 0  -0.8267094010070866 -0.1739346510034091 0  -0.8278426638056627 -0.1333483826716087 0  -0.8295611013668935 -0.09243110174442384 0  -0.8315639065351237 -0.05109011431141004 0  -0.8323989949594325 -0.009387537364239019 0  -0.8321135081983664 0.03240190071148707 0  -0.8307113439015072 0.07409519930679187 0  -0.82815445019974 0.1154224898764546 0  -0.825866809772782 0.1563251511744146 0  -0.8241521422243981 0.1968923969004663 0  -0.8282389299650427 -0.2346953567145268 0  -0.8266301111703124 -0.1941418060717751 0  -0.8286675539230048 -0.1129368688428689 0  -0.8321233150999738 -0.03026204796294124 0  -0.8315533928823851 0.05327284117811252 0  -0.8269774918928483 0.1359213984502289 0  -0.823777588836793 0.2170878753371492 0  -0.8271783454801621 -0.1536777490678117 0  -0.8306141814803353 -0.07183551475612693 0  -0.8323918441866274 0.01150777934389285 0  -0.8294842416720303 0.09483330780095485 0  -0.824912995891901 0.1766459338255275 0  -0.8217024617742316 -0.2981523116205869 0  -0.7931107054229287 -0.3538924476656271 0  -0.7475168803136808 -0.3968587512675616 0  -0.8241568128405852 -0.2660319222888775 0  -0.8061570270337127 -0.3249961980241747 0  -0.7713215688950572 -0.3765511983503469 0  -0.7209440219220018 -0.4109949415278794 0  -0.8257142951597364 -0.2502590699846001 0  -0.822
[...]
<PointData  Vectors="PointNormal"> 
<DataArray  type="Float64"  Name="PointNormal"  NumberOfComponents="3" format="ascii">-5.8656365316797121e-01 -8.0990313049292750e-01 0.0000000000000000e+00  -4.9667066928063414e-02 -9.9876582964314675e-01 0.0000000000000000e+00  -1.4352613510687776e-01 -9.8964652706978273e-01 0.0000000000000000e+00  -2.2742785097554402e-01 -9.7379493354640423e-01 0.0000000000000000e+00  -2.9527266140432129e-01 -9.5541302870915934e-01 0.0000000000000000e+00  -3.6452305991734851e-01 -9.3119436144582246e-01 0.0000000000000000e+00  -4.4906715230266947e-01 -8.9349800935579649e-01 0.0000000000000000e+00  -5.0637179003829103e-01 -8.6231526152180382e-01 0.0000000000000000e+00  -5.4775221782886307e-01 -8.3664060854321531e-01 0.0000000000000000e+00  4.7258219757610000e-02 -9.9888270615990815e-01 0.0000000000000000e+00  -5.8807101576221987e-01 -8.0880929793146594e-01 0.0000000000000000e+00  -5.9575922624733713e-01 -8.0316308701357420e-01 0.0000000000000000e+00  -5.9568422883070116e-01 -8.0321871213410667e-01 0.0000000000000000e+00  -5.8470795732900271e-01 -8.1124386261847625e-01 0.0000000000000000e+00  -5.6648348143067284e-01 -8.2407309461369060e-01 0.0000000000000000e+00  -5.3939975384521877e-01 -8.4204982367536751e-01 0.0000000000000000e+00  -4.8754823082091969e-01 -8.7309605578274785e-01 0.0000000000000000e+00  4.0554475400258327e-01 -9.1407518974151369e-01 0.0000000000000000e+00  1.4158163631691259e-01 -9.8992658326657001e-01 0.0000000000000000e+00  2.3056308285140098e-01 -9.7305738002753883e-01 0.0000000000000000e+00  3.1073129020340756e-01 -9.5049779867631756e-01 0.0000000000000000e+00  3.7890950653150385e-01 -9.2543372850791017e-01 0.0000000000000000e+00  4.3190239657393648e-01 -9.0192035115839919e-01 0.0000000000000000e+00  4.7496086351238298e-01 -8.8000691936573527e-01 0.0000000000000000e+00  5.0841741976657540e-01 -8.6111075203942133e-01 0.0000000000000000e+00  5.3071691914724628e-01 -8.4754914413906124e-01 0.0000000000000000e+00  5.4464645188469007e-01 -8.3866575132732002e-01 0.0000000000000000e+00  5.5137415815283242e-01 -8.3425807620978731e-01 0.0000000000000000e+00  5.5215069155944851e-01 -8.3374433360018874e-01 0.0000000000000000e+00  5.4420267689717683e-01 -8.3895378088303940e-01 0.0000000000000000e+00  5.3137603145993551e-01 -8.4713606533418795e-01 0.0000000000000000e+00  5.0520901247420646e-01 -8.6299701836961007e-01 0.0000000000000000e+00  4.5828825448443838e-01 -8.8880362049307982e-01 0.0000000000000000e+00  4.8539142678401731e-01 -8.7429695344578207e-01 0.0000000000000000e+00  -5.1576782336656735e-01 -8.5672840059129207e-01 0.0000000000000000e+00  -5.7696864904187195e-01 -8.1676629339291240e-01 0.0000000000000000e+00  -5.9641787117813561e-01 -8.0267410755507795e-01 0.0000000000000000e+00  -5.8494889429187658e-01 -8.1107015175428010e-01 0.0000000000000000e+00  -5.2936993836091084e-01 -8.4839110577596555e-01 0.0000000000000000e+00  -4.1283094992624325e-01 -9.1080766728382101e-01 0.0000000000000000e+00  -2.6622964755603923e-01 -9.6390962997689111e-01 0.0000000000000000e+00  -9.7577258332682978e-02 -9.9522795311238965e-01 0.0000000000000000e+00  5.2213999181273718e-01 -8.5285979442684179e-01 0.0000000000000000e+00  2.7170554626462667e-01 -9.6238043212081203e-01 0.0000000000000000e+00  4.0653980815466029e-01 -9.1363306878941952e-01 0.0000000000000000e+00  4.9257401161527875e-01 -8.7027055740225490e-01 0.0000000000000000e+00  5.3866744664637745e-01 -8.4251847571639171e-01 0.0000000000000000e+00  5.5248759686715820e-01 -8.3352111869343337e-01 0.0000000000000000e+00  5.4051498690074862e-01 -8.4133438592255549e-01 0.0000000000000000e+00  9.4744712993498806e-02 -9.9550160188709869e-01 0.0000000000000000e+00  -4.3180852567210948e-01 -9.0196529709123474e-01 0.0000000000000000e+00  5.4907217308217315e-01 -8.3577493905166844e-01 0.0000000000000000e+00  5.4887715335895426e-01 -8.3590302698373509e-01 0.0000000000000000e+00  5.2115891880415222e-01 -8.5345965420216974e-01 0.0000000000000000e+00  4.5476445347797023e-01 -8.9061175146799132e-01 0.0000000000000000e+00  3.4733102674044469e-01 -9.3774258614154260e-01 0.0000000000000000e+00  1.8697535363814655e-01 -9.8236460498731826e-01 0.0000000000000000e+00  -9.1515406772456635e-04 -9.9999958124642851e-01 0.0000000000000000e+00  -1.8756265281291401e-01 -9.8225264126383605e-01 0.0000000000000000e+00  -3.1937235059248531e-01 -9.4762930604589823e-01 0.0000000000000000e+00  -4.7899473754864896e-01 -8.7781777231991653e-01 0.0000000000000000e+00  -5.7322722661954428e-01 -8.1939645267847339e-01 0.0000000000000000e+00  -5.9294345326816333e-01 -8.0524410039839800e-01 0.0000000000000000e+00  -5.9268099777434258e-01 -8.0543729419316668e-01 0.0000000000000000e+00  -5.5608809924903602e-01 -8.3112335177974284e-01 0.0000000000000000e+00  9.9668629042413459e-01 -8.1341492982227301e-02 0.0000000000000000e+00  5.3073938939693432e-01 -8.4753507334066669e-01 0.0000000000000000e+00  7.6734049189087827e-01 -6.4123986892945528e-01 0.0000000000000000e+00  9.4762282228462624e-01 -3.1939158831334225e-01 0.0000000000000000e+00  4.8497487862796218e-01 -8.7452808251067227e-01 0.0000000000000000e+00  6.9511511657251901e-01 -7.1889844534007263e-01 0.0000000000000000e+00  9.1581031632477194e-01 -4.0161108614320062e-01 0.0000000000000000e+00  9.9146833263952661e-01 -1.3034778622207940e-01 0.0000000000000000e+00  4.2544384363926352e-01 -9.0498482634210498e-01 0.0000000000000000e+00  4.6347672997105704e-01 -8.8610909078698430e-01 0.0000000000000000e+00  6.3392767273978767e-01 -7.7339233622703851e-01 0.0000000000000000e+00  7.0741107598180175e-01 -7.0680235538534353e-01 0.0000000000000000e+00  9.0692105300305048e-01 -4.2130060956499715e-01 0.0000000000000000e+00  8.4883093593415582e-01 -5.2866439467884063e-01 0.0000000000000000e+00  9.9552506539396501e-01 -9.4497852739317989e-02 0.0000000000000000e+00  9.8759734145365952e-01 -1.5700793340995134e-01 0.0000000000000000e+00  9.9986107388734535e-01 1.6668320996561521e-02 0.0000000000000000e+00  9.9925022309466704e-01 -3.8716813469835784e-02 0.0000000000000000e+00  9.9987921365975729e-01 1.5542139207498855e-02 0.0000000000000000e+00  9.9934441599360424e-01 3.6204118859624601e-02 0.0000000000000000e+00  9.9896139738798939e-01 4.5564531476087716e-02 0.0000000000000000e+00  9.9948150136541536e-01 3.2198267474127122e-02 0.0000000000000000e+00  9.9999833838611019e-01 1.8229714804837351e-03 0.0000000000000000e+00  9.9968181098948816e-01 -2.5224527285505453e-02 0.0000000000000000e+00  9.9847431622516181e-01 -5.5218111509680749e-02 0.0000000000000000e+00  9.9785605411452438e-01 -6.5446888902310429e-02 0.0000000000000000e+00  9.9846569938891883e-01 -5.5373704443510474e-02 0.0000000000000000e+00  9.9948428333842609e-01 -3.2111794709619883e-02 0.0000000000000000e+00  9.9909790970805212e-01 4.2466066653282328e-02 0.0000000000000000e+00  9.9999344879282237e-01 -3.6197198009060442e-03 0.0000000000000000e+00  9.9916505367694342e-01 4.0855789195056405e-02 0.0000000000000000e+00  9.9987774405234853e-01 1.5636398203756157e-02 0.0000000000000000e+00  9.9923590125338946e-01 -3.9084698365557592e-02 0.0000000000000000e+00  9.9815886808043464e-01 -6.0653722658922452e-02 0.0000000000000000e+00  9.9994402912297864e-01 -1.0580104976018120e-02 0.0000000000000000e+00  9.9959348639705381e-01 2.8510733988852791e-02 0.0000000000000000e+00  9.9896932932541793e-01 4.5390297059224795e-02 0.0000000000000000e+00  9.9993077642050643e-01 -1.1766153453146589e-02 0.0000000000000000e+00  9.9777990864678212e-01 -6.6597701918451879e-02 0.0000000000000000e+00  9.9890099185144132e-01 -4.6870123513885149e-02 0.0000000000000000e+00  4.3256987653607543e-01 9.0160041144265490e-01 0.0000000000000000e+00  9.5745916408526754e-01 2.8856879441329158e-01 0.0000000000000000e+00  7.8759989496811289e-01 6.1618698902704661e-01 0.0000000000000000e+00  5.4911306176999519e-01 8.3574807531551121e-01 0.0000000000000000e+00  9.9473595540566551e-01 1.0247135708664003e-01 0.0000000000000000e+00  9.1925523990460711e-01 3.9366204275739247e-01 0.0000000000000000e+00  7.1163490260231099e-01 7.0254947540952539e-01 0.0000000000000000e+00  4.9005147561650281e-01 8.7169349615910763e-01 0.0000000000000000e+00  9.9249072778414693e-01 1.2231988907162411e-01 0.0000000000000000e+00  9.9730246997363903e-01 7.3401521676861786e-02 0.0000000000000000e+00  8.7274443621988429e-01 4.8817737457530375e-01 0.0000000000000000e+00  9.1228483865513355e-01 4.0955631256272573e-01 0.0000000000000000e+00  7.2058412983246967e-01 6.9336751570403299e-01 0.0000000000000000e+00  6.5691365377526234e-01 7.5396581585880584e-01 0.0000000000000000e+00  4.6964968982180200e-01 8.8285285798386881e-01 0.0000000000000000e+00  4.4037254008226667e-01 8.9781514018281761e-01 0.0000000000000000e+00  -3.2863823749395053e-02 9.9945983865714616e-01 0.0000000000000000e+00  5.3992041303540639e-01 8.4171607302443519e-01 0.0000000000000000e+00  5.6822492074593522e-01 8.2287328273755234e-01 0.0000000000000000e+00  5.8601191146741127e-01 8.1030243712968730e-01 0.0000000000000000e+00  5.9570217033257677e-01 8.0320540602081214e-01 0.0000000000000000e+00  5.9558367859029182e-01 8.0329327259529315e-01 0.0000000000000000e+00  5.8858624711218266e-01 8.0843443129940762e-01 0.0000000000000000e+00  5.7570702986483890e-01 8.1765604979368023e-01 0.0000000000000000e+00  5.5168062126839346e-01 8.3405544906613927e-01 0.0000000000000000e+00  5.1683310807406668e-01 8.5608617463343029e-01 0.0000000000000000e+00  4.7196934883255315e-01 8.8161495776930643e-01 0.0000000000000000e+00  4.1775104725097900e-01 9.0856153480141910e-01 0.0000000000000000e+00  3.4632368552622300e-01 9.3811508081020301e-01 0.0000000000000000e+00  2.6298579712439474e-01 9.6479970486668720e-01 0.0000000000000000e+00  1.7025888371373640e-01 9.8539936701651698e-01 0.0000000000000000e+00  7.3791633147869795e-02 9.9727368103112513e-01 0.0000000000000000e+00  4.8820415178473159e-01 8.7272945760994602e-01 0.0000000000000000e+00  -1.4453363133319017e-01 9.8949988853644721e-01 0.0000000000000000e+00  -2.4601828093758613e-01 9.6926518840022047e-01 0.0000000000000000e+00  -3.3590831845012237e-01 9.4189468710467372e-01 0.0000000000000000e+00  -4.1654306105344846e-01 9.0911598725807430e-01 0.0000000000000000e+00  -4.5902353676228186e-01 8.8842410632436475e-01 0.0000000000000000e+00  -5.0171776655254963e-01 8.6503137672891461e-01 0.0000000000000000e+00  -5.3544532726392824e-01 8.4456989143067651e-01 0.0000000000000000e+00  -5.6016377444619658e-01 8.2838188403549162e-01 0.0000000000000000e+00  -5.6835007603659193e-01 8.2278684424898296e-01 0.0000000000000000e+00  -5.7360015818155774e-01 8.1913543357255159e-01 0.0000000000000000e+00  -5.7288570226172675e-01 8.1963526775272921e-01 0.0000000000000000e+00  -5.6572590983641291e-01 8.2459335125852362e-01 0.0000000000000000e+00  -5.5052834826071306e-01 8.3481646950771826e-01 0.0000000000000000e+00  -5.2263153317208733e-01 8.5255866691635573e-01 0.0000000000000000e+00  -4.7244563216293928e-01 8.8135981565428811e-01 0.0000000000000000e+00  -4.1654302366181045e-01 9.0911600439035090e-01 0.0000000000000000e+00  -5.0073943436752677e-01 8.6559807004711453e-01 0.0000000000000000e+00  -5.6077527329050658e-01 8.2796805063115675e-01 0.0000000000000000e+00  -5.7407978182631403e-01 8.1879936742663140e-01 0.0000000000000000e+00  -5.6404598091273261e-01 8.2574338109136136e-01 0.0000000000000000e+00  -5.1928759278441639e-01 8.5459955299553370e-01 0.0000000000000000e+00  -4.3399757509380738e-01 9.0091403852570473e-01 0.0000000000000000e+00  -2.9051829122969358e-01 9.5686943856566919e-01 0.0000000000000000e+00  -9.1377569858485733e-02 9.9581631826695705e-01 0.0000000000000000e+00  1.2059357119815099e-01 9.9270196463272731e-01 0.0000000000000000e+00  3.0567822275527567e-01 9.5213487707003785e-01 0.0000000000000000e+00  4.4549320576538298e-01 8.9528531967014968e-01 0.0000000000000000e+00  5.3516065818312142e-01 8.4475030034502396e-01 0.0000000000000000e+00  5.8271426087766998e-01 8.1267711310814628e-01 0.0000000000000000e+00  5.9646072766175129e-01 8.0264226175626596e-01 0.0000000000000000e+00  5.7877223364110486e-01 8.1548924061944938e-01 0.0000000000000000e+00  5.1749100408388293e-01 8.5568864705116587e-01 0.0000000000000000e+00  -5.4027428574265413e-01 8.4148897566472303e-01 0.0000000000000000e+00  -5.7034569903284826e-01 8.2140476233993898e-01 0.0000000000000000e+00  -5.7180642319110475e-01 8.2038857524797060e-01 0.0000000000000000e+00  -5.5121983263487029e-01 8.3436005184212025e-01 0.0000000000000000e+00  -4.8135205804433900e-01 8.7652735052391795e-01 0.0000000000000000e+00  -3.8745013391901600e-01 9.2189066256586882e-01 0.0000000000000000e+00  -1.9585655161964399e-01 9.8063255666312743e-01 0.0000000000000000e+00  2.6207586849024089e-02 9.9965652220727841e-01 0.0000000000000000e+00  2.1729786796301420e-01 9.7610534092316514e-01 0.0000000000000000e+00  3.8536998517704596e-01 9.2276214406782175e-01 0.0000000000000000e+00  4.9571499613478809e-01 8.6848525756462158e-01 0.0000000000000000e+00  5.6588421367558095e-01 8.2448472194017608e-01 0.0000000000000000e+00  5.9292909503552560e-01 8.0525467292053177e-01 0.0000000000000000e+00  5.9295115875692450e-01 8.0523842638613596e-01 0.0000000000000000e+00  5.5779893300673844e-01 8.2997611431687834e-01 0.0000000000000000e+00  -9.9779985453842446e-01 6.6298192155587826e-02 0.0000000000000000e+00  -5.3546147183922332e-01 8.4455965578268810e-01 0.0000000000000000e+00  -7.7460003729236482e-01 6.3245140700821201e-01 0.0000000000000000e+00  -9.5134904928683395e-01 3.0811521614655352e-01 0.0000000000000000e+00  -4.8165304656942920e-01 8.7636199297458539e-01 0.0000000000000000e+00  -7.0031104170319214e-01 7.1383782812946384e-01 0.0000000000000000e+00  -9.1626694026846989e-01 4.0056821412969862e-01 0.0000000000000000e+00  -9.9270273750183025e-01 1.2058720892521045e-01 0.0000000000000000e+00  -4.2739031358607277e-01 9.0406720980953537e-01 0.0000000000000000e+00  -4.6102720611658315e-01 8.8738600125330891e-01 0.0000000000000000e+00  -6.4173244683541109e-01 7.6692859294632920e-01 0.0000000000000000e+00  -7.1132682094448152e-01 7.0286140440702627e-01 0.0000000000000000e+00  -9.0820016061610642e-01 4.1853610149768261e-01 0.0000000000000000e+00  -8.5840773336512721e-01 5.1296799441967578e-01 0.0000000000000000e+00  -9.9615705952955902e-01 8.7584888818920348e-02 0.0000000000000000e+00  -9.8950664836078916e-01 1.4448734494687568e-01 0.0000000000000000e+00  -9.9970158255003083e-01 -2.4428381996434816e-02 0.0000000000000000e+00  -9.9921844769539903e-01 3.9528392140296145e-02 0.0000000000000000e+00  -9.9990840628546629e-01 -1.3534365136889675e-02 0.0000000000000000e+00  -9.9933290586495427e-01 -3.6520449826181176e-02 0.0000000000000000e+00  -9.9888074233844970e-01 -4.7299710204055795e-02 0.0000000000000000e+00  -9.9934122672839509e-01 -3.6292045423019864e-02 0.0000000000000000e+00  -9.9997931622639646e-01 -6.4317275586376560e-03 0.0000000000000000e+00  -9.9979849270662668e-01 2.0074211853954794e-02 0.0000000000000000e+00  -9.9876222449322050e-01 4.9739510706820526e-02 0.0000000000000000e+00  -9.9814464593818930e-01 6.0887320395356909e-02 0.0000000000000000e+00  -9.9871794408078862e-01 5.0620827443283063e-02 0.0000000000000000e+00  -9.9960653785607734e-01 2.8049411319787547e-02 0.0000000000000000e+00  -9.9873174849103152e-01 -5.0347736354745869e-02 0.0000000000000000e+00  -9.9997157637596668e-01 7.5396578280555156e-03 0.0000000000000000e+00  -9.9911941245487623e-01 -4.1957116867378262e-02 0.0000000000000000e+00  -9.9979942920361931e-01 -2.0027515175803572e-02 0.0000000000000000e+00  -9.9943476182168667e-01 3.3617805734882385e-02 0.0000000000000000e+00  -9.9843983923485091e-01 5.5838046426115992e-02 0.0000000000000000e+00  -9.9997432559592880e-01 7.1657622739889921e-03 0.0000000000000000e+00  -9.9961065464131793e-01 -2.7902314017941673e-02 0.0000000000000000e+00  -9.9882810312273484e-01 -4.8398557956198539e-02 0.0000000000000000e+00  -9.9997666645573136e-01 6.8312915384461615e-03 0.0000000000000000e+00  -9.9809099474042873e-01 6.1760555519371568e-02 0.0000000000000000e+00  -9.9910833342771921e-01 4.2220114581623794e-02 0.0000000000000000e+00  -9.5490503883301470e-01 -2.9691137871647594e-01 0.0000000000000000e+00  -7.8162692890937191e-01 -6.2374621762677140e-01 0.0000000000000000e+00  -5.4428205023711917e-01 -8.3890228858293037e-01 0.0000000000000000e+00  -9.9428013637436219e-01 -1.0680360673394768e-01 0.0000000000000000e+00  -9.1994117232000805e-01 -3.9205642383525530e-01 0.0000000000000000e+00  -7.0758876660976910e-01 -7.0662446700327719e-01 0.0000000000000000e+00  -4.8562572461335035e-01 -8.7416683510286441e-01 0.0000000000000000e+00  -9.9161123916718708e-01 -1.2925614243553613e-01 0.0000000000000000e+00  -9.9706492303005889e-01 -7.6560690063914499e-02 0.0000000000000000e+00  -8.6557909812893008e-01 -5.0077222854538161e-01 0.0000000000000000e+00  -9.1117945981142801e-01 -4.1200969893651068e-01 0.0000000000000000e+00  -7.2005853628781435e-01 -6.9391332622961654e-01 0.0000000000000000e+00  -6.4899960100875975e-01 -7.6078874721598688e-01 0.0000000000000000e+00  -4.6924745600490486e-01 -8.8306671607128584e-01 0.0000000000000000e+00  -4.3379876211325108e-01 -9.0100978573432322e-01 0.0000000000000000e+00  0.0000000000000000e+00 0.0000000000000000e+00 0.0000000000000000e+00  0.0000000000000000e+00 0.0000000000000000e+00 0.0000000000000000e+00  0.0000000000000000e+00 0.0000000000000000e+00 0.0000000000000000e+00  0.0000000000000000e+00 0.0000000000000000e+00 0.0000000000000000e+00  0.0000000000000000e+00 0.0000000000000000e+00 0.0000000000000000e+00  0.0000000000000000e+00 0.0000000000000000e+00 0.0000000000000000e+00  0.0000000000000000e+00 0.0000000000000000e+00 0.0000000000000000e+00  0.0000000000000000e+00 0.0000000000000000e+00 0.0000000000000000e+00  0.0000000000000000e+00 0.0000000000000000e+00 0.0000000000000000e+00  0.0000000000000000e+00 0.0000000000000000e+00 0.0000000000000000e+00  0.0000000000000000e+00 0.0000000000000000e+00 0.0000000000000000e+00  0.0000000000000000e+00 0.0000000000000000e+00 0.0000000000000000e+00  0.0000000000000000e+00 0.0000000000000000e+00 0.0000000000000000e+00  0.0000000000000000e+00 0.0000000000000000e+00 0.0000000000000000e+00  0.0000000000000000e+00 0.0000000000000000e+00 0.0000000000000000e+00  0.0000000000000000e+00 0.0000000000000000e+00 0.0000000000000000e+00  0.0000000000000000e+00 0.0000000000000000e+00 0.0000000000000000e+00  0.0000000000000000e+00 0.0000000000000000e+00 0.0000000000000000e+00  0.0000000000000000e+00 0.0000000000000000e+00 0.0000000000000000e+00  0.0000000000000000e+00 0.0000000000000000e+00 0.0000000000000000e+00  0.0000000000000000e+00 0.0000000000000000e+00 0.0000000000000000e+00  0.0000000000000000e+00 0.0000000000000000e+00 0.0000000000000000e+00  0.0000000000000000e+00 0.0000000000000000e+00 0.0000000000000000e+00  0.0000000000000000e+00 0.0000000000000000e+00 0.0000000000000000e+00  0.0000000000000000e+00 0.0000000000000000e+00 0.0000000000000000e+00  0.0000000000000000e+00 0.0000000000000000e+00 0.0000000000000000e+00  0.0000000000000000e+00 0.0000000000000000e+00 0.0000000000000000e+00  0.0000000000000000e+00 0.0000000000000000e+00 0.0000000000000000e+00  0.0000000000000000e+00 0.0000000000000000e+00 0.0000000000000000e+00  0.0000000000000000e+00 0.0000000000000000e+00 0.0000000000000000e+00  0.0000000000000000e+00 0.0000000000000000e+00 0.0000000000000000e+00  0.0000000000000000e+00 0.0000000000000000e+00 0.0000000000000000e+00  0.0000000000000000e+00 0.0000000000000000e+00 0.0000000000000000e+00  0.0000000000000000e+00 0.0000000000000000e+00 0.0000000000000000e+00  0.0000000000000000e+00 0.0000000000000000e+00 0.0000000000000000e+00  0.0000000000000000e+00 0.0000000000000000e+00 0.0000000000000000e+00  0.0000000000000000e+00 0.0000000000000000e+00 0.0000000000000000e+00  0.0000000000000000e+00 0.0000000000000000e+00 0.0000000000000000e+00  0.0000000000000000e+00 0.0000000000000000e+00 0.0000000000000000e+00  0.0000000000000000e+00 0.0000000000000000e+00 0.0000000000000000e+00  0.0000000000000000e+00 0.0000000000000