<?xml version="1.0"?>
<VTKFile type="UnstructuredGrid"  version="0.1"  >
<UnstructuredGrid>
<Piece  NumberOfPoints="4153" NumberOfCells="8064">
<Points>
<DataArray  type="Float64"  NumberOfComponents="3"  format="ascii">-0.4177982853532611 -0.5674407136875121 0  -0.04711151113254782 -0.6675294844492503 0  -0.09550192653014532 -0.6633500579618272 0  -0.1434146441903849 -0.6563142377960627 0  -0.1907825575832711 -0.6470186853134713 0  -0.2378368715324466 -0.6362810222875651 0  -0.2842479950110101 -0.6219896641443454 0  -0.3297340138636713 -0.6053548106179086 0  -0.3742689686798194 -0.5871118549631784 0  0.001556549415354502 -0.6684743660811926 0  -0.4606293460204018 -0.5484631336758365 0  -0.502933046142312 -0.5296411407135362 0  -0.5447734406268838 -0.5112717913955946 0  -0.586192755831913 -0.4937118193538954 0  -0.62734566722965 -0.4771857233456466 0  -0.6681867306164858 -0.4617396727503747 0  -0.7088291897059457 -0.4481228153106184 0  0.6924019549823861 -0.4664105249596054 0  0.05025089128693605 -0.666133796367384 0  0.0987176897069493 -0.6605607386006109 0  0.1467180238658817 -0.6519748739474218 0  0.1940517061446234 -0.6407158043563974 0  0.2406217206261953 -0.6274631270580414 0  0.2864221568962733 -0.612659394885974 0  0.331467267540566 -0.5967205390707342 0  0.3757876734350695 -0.5801065134397325 0  0.4194822316049671 -0.563203266068519 0  0.4626285220185245 -0.5463228666048471 0  0.50529728909273 -0.5296996433086024 0  0.5475447645007921 -0.5136663823965076 0  0.5894170702931379 -0.4982926245013781 0  0.6309420998837616 -0.4839728527036693 0  0.6722193664555719 -0.4712980257166886 0  0.6515257634926669 -0.4776499353815271 0  -0.6884119707657078 -0.4549860006209735 0  -0.6068104799686905 -0.4853585822594177 0  -0.5239020273651243 -0.5203972378087689 0  -0.4392664312824912 -0.5579303732498108 0  -0.3521197829558709 -0.5963431195081889 0  -0.261152996652026 -0.6294728131747803 0  -0.1671634008048757 -0.6519276119794605 0  -0.07135650096681691 -0.6658259392052082 0  0.6102169674458578 -0.4910461588381151 0  0.1227896038735523 -0.6566238120649084 0  0.2174323155107412 -0.6343101242999536 0  0.3090352660224316 -0.6048169651459798 0  0.397709902989253 -0.571670338448047 0  0.4840168673040843 -0.5379774583348385 0  0.5685299972473967 -0.5058763340737017 0  0.02591614712176782 -0.6677152878500188 0  -0.7286062230702633 -0.442674621386145 0  0.5264582539852978 -0.5215895253369356 0  0.4411192223809501 -0.5547480889330226 0  0.3537079782790351 -0.5884559476373983 0  0.2636178945619613 -0.620231203175835 0  0.1704814177086355 -0.6466418299763592 0  0.07452848789284296 -0.6637414525353122 0  -0.02279573270550873 -0.6684168330751368 0  -0.1195259685563211 -0.6601586269422468 0  -0.2143018507893682 -0.6419887719741612 0  -0.307109392238144 -0.613910031279831 0  -0.396226033738285 -0.577369489324751 0  -0.4818409700532928 -0.5390119987129131 0  -0.5655200083332415 -0.5023312770016111 0  -0.6477941064800635 -0.469393817181916 0  0.8539326942616294 -0.2776906198721681 0  0.755532245314677 -0.4450150103096336 0  0.8090850826676393 -0.4032407889772089 0  0.8437059198361109 -0.3450902960221438 0  0.7242493126007165 -0.4560997036236935 0  0.7830325790095554 -0.4250982430846696 0  0.8252934398551525 -0.3733269295573835 0  0.8481358709509571 -0.3110639196789877 0  0.7085323254466014 -0.4621969311446638 0  0.7398125658000186 -0.4501449905537546 0  0.7693303875704949 -0.4352171777397665 0  0.7956523802491294 -0.413451867545335 0  0.8180942422675794 -0.3887732936370736 0  0.8340485246595392 -0.3590867741674475 0  0.8455297819374766 -0.3279284132011841 0  0.8505987508384688 -0.2942892880931963 0  0.8533354620413772 -0.2558983201731782 0  0.8582595337825033 0.2238157544749936 0  0.8577191140054196 0.180550812324452 0  0.8582478257315712 0.1372194454300615 0  0.8592853485031589 0.09370796710070703 0  0.8605734223372492 0.04991360886966554 0  0.8609301975913819 0.00588703108996616 0  0.8604063732262029 -0.03818879586008213 0  0.8590107692687813 -0.08219354049666783 0  0.8567667343449848 -0.1259401582478015 0  0.8548374716230384 -0.1694064290642719 0  0.8534864397330033 -0.2126852757374292 0  0.859382774895794 0.2455901701022075 0  0.8578109183139123 0.2021800116398698 0  0.8587254307065796 0.1154908310344717 0  0.8608631381452075 0.02791480834889599 0  0.859820662355789 -0.06020808989393346 0  0.8557576875654489 -0.1477024626643415 0  0.8532162897920454 -0.2342918724121003 0  0.8579008364300684 0.1589022457609526 0  0.8599780663083345 0.07186222086483927 0  0.8607745435146195 -0.01615216192608056 0  0.8579184933642983 -0.1041185652172216 0  0.8540723238008566 -0.1910639790059639 0  0.7028358096855881 0.4364485969925687 0  0.8507831452304425 0.313303721203034 0  0.8175921117955706 0.3721954412264797 0  0.7651609658395875 0.4147801737624771 0  0.8545946325705014 0.2791410573787194 0  0.8334115792517456 0.3420887459219199 0  0.7920978221119275 0.3943368012058782 0  0.7342454169795789 0.4260320734922144 0  0.8567089093038723 0.2623008779147634 0  0.8523753530858708 0.2960843669994153 0  0.8417502421610142 0.3275886158942481 0  0.8262212395349772 0.3574941313097888 0  0.8044469008828599 0.3825652053380391 0  0.7786661401368558 0.4046777824468701 0  0.7496276712958536 0.4200514056485628 0  0.7187151710646038 0.4320833883529656 0  -0.03390414533314685 0.6724371658830622 0  0.6424819275968622 0.4554166261954913 0  0.6017027680573263 0.470863230441687 0  0.5605710759108581 0.4874443790076615 0  0.5190866479153164 0.5050238824222696 0  0.4771136226081594 0.523336329704907 0  0.4345907579502232 0.5420574459501649 0  0.391437894003153 0.5609292193863242 0  0.3475660283772911 0.5797596279164176 0  0.3028421165756977 0.5980290038198118 0  0.2572367321058104 0.6153225052659248 0  0.2107150586487602 0.6312215598729143 0  0.163243816266068 0.6453426754664688 0  0.1148709722595817 0.656827061803466 0  0.06576071117320413 0.6653266761149625 0  0.01611250287885237 0.6705175318368429 0  0.6830487104364364 0.4417673700978705 0  -0.0839509401656641 0.6699496550359182 0  -0.1335819690286562 0.6634793231227469 0  -0.1824395992947727 0.6533329515674769 0  -0.2301031383100463 0.6395449212114656 0  -0.2765987644429748 0.6244429024357799 0  -0.3221110289081512 0.6080967940547441 0  -0.3667167757821622 0.5908390303687248 0  -0.4104556611340795 0.5729533995888119 0  -0.4535400398730907 0.555257807247441 0  -0.4960852162200381 0.5377573716130873 0  -0.5381708021967527 0.5206468349815681 0  -0.5798606584959444 0.5041314056827964 0  -0.6211910716390782 0.4884096820769302 0  -0.6622144230954016 0.4738206649401754 0  -0.7030515960510723 0.4609648685305741 0  -0.7230154896317009 0.4560287287315021 0  -0.6825680233671442 0.4674205128007566 0  -0.6005681974056577 0.4961562593109302 0  -0.5171813319519684 0.5291429108089046 0  -0.432069455918482 0.5640968840517289 0  -0.3445218181029448 0.5995567240471601 0  -0.2534786640950819 0.63218235618029 0  -0.1581285448362835 0.6588074049137619 0  -0.05895225313607829 0.6716856201223194 0  0.04099138515922409 0.6683629589917072 0  0.1391607915112262 0.6514232425929195 0  0.234090581732751 0.6234746957701622 0  0.3253099034765192 0.5889961878784388 0  0.4130969734936392 0.5514912633951473 0  0.4981617184749013 0.5141185746671558 0  0.5811844178570311 0.47905076900121 0  0.6626982918373008 0.4486227951168885 0  -0.6417353902439965 0.4810224256088134 0  -0.5590606113650702 0.5123067491942721 0  -0.4748742633138715 0.5464701185921063 0  -0.3886988470304554 0.5819129170597578 0  -0.299472469935525 0.6164045167464249 0  -0.2064835045002783 0.6467764639639533 0  -0.1088415840380926 0.6671910635201962 0  -0.008836544596050227 0.6719744736293053 0  0.0903967106007713 0.6614729341511338 0  0.1871103794524508 0.6385702803883654 0  0.2801522276568199 0.6068243346496822 0  0.3696052980337686 0.5703685305476193 0  0.4559254793603265 0.5326634800384522 0  0.539880627719957 0.4961003585550909 0  0.6221302252376534 0.4630459749771647 0  -0.8825218048127569 0.2675413642574492 0  -0.7857747010765568 0.4350415984151174 0  -0.8388773061194985 0.3931863016957707 0  -0.8729129599087903 0.3348887952944312 0  -0.7546319266463246 0.4459398921527286 0  -0.8130313893280673 0.415016828654207 0  -0.8549581141343631 0.3632951399920983 0  -0.877133654675867 0.3008996056094352 0  -0.7390006354724512 0.4518650746044002 0  -0.7701206921220262 0.4401144944517769 0  -0.7994383221841499 0.42516442935933 0  -0.8255434952974208 0.4033876810285542 0  -0.8477174251643279 0.3786531878042502 0  -0.8635442333309572 0.3489833458291553 0  -0.8746717084538362 0.317751462110092 0  -0.8794810002087621 0.2841483637152502 0  -0.8817393624211219 0.245832140065985 0  -0.8852397550258078 -0.231734731905764 0  -0.8845282843378045 -0.1886364786790971 0  -0.8850045810927176 -0.1455132599861382 0  -0.8860753741803692 -0.1022312356787189 0  -0.8875012146508149 -0.05868076733857339 0  -0.8880613999898765 -0.01488491465970023 0  -0.8877672824063652 0.02896960782057296 0  -0.8866229572651857 0.07276780524027301 0  -0.8846018866011469 0.1163298875240607 0  -0.8828881040011565 0.1596220545553426 0  -0.8817373198440045 0.2027502039038947 0  -0.886322134789201 -0.2534834506941126 0  -0.8846910733097565 -0.2101780835642165 0  -0.8854920686736304 -0.1238984288783919 0  -0.8878911493449358 -0.03679800389965755 0  -0.887302972149926 0.05088364367321142 0  -0.8836986505292883 0.1380016511279868 0  -0.8815469688133551 0.2242861420542652 0  -0.8846751938957996 -0.1670885398777313 0  -0.8868181859155529 -0.08050803600865503 0  -0.8880173856971082 0.007042245476999588 0  -0.8856509775349036 0.09459958761623466 0  -0.8822247952850534 0.18120095304662 0  -0.8773898950812601 -0.3209735309561035 0  -0.8437448252531784 -0.379395253272938 0  -0.7910509735217457 -0.4215595476589204 0  -0.8813066732959951 -0.2869044309390731 0  -0.8596524430454057 -0.3494459513024508 0  -0.8181742780702037 -0.4014869651165999 0  -0.7600829084430044 -0.4326930113283161 0  -0.8834458703499501 -0.2701118477938351 0  -0.87900171606765
[...]
<PointData  Vectors="f_2904"> 
<DataArray  type="Float64"  Name="f_2904"  NumberOfComponents="3" format="ascii">-8.8160246046967065e-06 -3.7053319023328980e-05 0.0000000000000000e+00  -8.3147282584495204e-06 -7.3180910765406778e-05 0.0000000000000000e+00  -1.0351256663829517e-05 -7.2732603462718768e-05 0.0000000000000000e+00  -1.2108272139069704e-05 -7.0838679035244430e-05 0.0000000000000000e+00  -1.3388504240567059e-05 -6.7520810915962435e-05 0.0000000000000000e+00  -1.4121835286823462e-05 -6.3195199103204349e-05 0.0000000000000000e+00  -1.4099197081725939e-05 -5.7690629869235292e-05 0.0000000000000000e+00  -1.3194470365429055e-05 -5.1367818979439798e-05 0.0000000000000000e+00  -1.1409349478052754e-05 -4.4435965448372429e-05 0.0000000000000000e+00  -6.2363998449543977e-06 -7.2191271591495293e-05 0.0000000000000000e+00  -5.3865404000898990e-06 -2.9370978785371168e-05 0.0000000000000000e+00  -1.4837640078442685e-06 -2.1769437577257687e-05 0.0000000000000000e+00  2.8714929799857109e-06 -1.4239434787457048e-05 0.0000000000000000e+00  7.5875924100866322e-06 -6.8049759809478203e-06 0.0000000000000000e+00  1.2491334525847134e-05 2.5908902353456088e-07 0.0000000000000000e+00  1.7468122382477876e-05 6.8683355088452394e-06 0.0000000000000000e+00  2.2468106797593703e-05 1.2868205985129049e-05 0.0000000000000000e+00  -3.8736982485650355e-05 2.0231055870448699e-05 0.0000000000000000e+00  -4.3530221383116955e-06 -6.9849371718693994e-05 0.0000000000000000e+00  -2.8763834770058651e-06 -6.6275358008826196e-05 0.0000000000000000e+00  -1.9741213107801045e-06 -6.1646148318841162e-05 0.0000000000000000e+00  -1.7619194393405243e-06 -5.6129225680120510e-05 0.0000000000000000e+00  -2.2823244882531778e-06 -4.9962354990655510e-05 0.0000000000000000e+00  -3.5253828254998278e-06 -4.3322252480425032e-05 0.0000000000000000e+00  -5.4519235898624347e-06 -3.6383792183448228e-05 0.0000000000000000e+00  -8.0169632739533184e-06 -2.9234410425386509e-05 0.0000000000000000e+00  -1.1113210658956404e-05 -2.2066967685743699e-05 0.0000000000000000e+00  -1.4660622840549835e-05 -1.4950291106829659e-05 0.0000000000000000e+00  -1.8572311239343107e-05 -7.9654897638074490e-06 0.0000000000000000e+00  -2.2785600456957406e-05 -1.1397205543231377e-06 0.0000000000000000e+00  -2.7197180399973647e-05 5.4386007826824565e-06 0.0000000000000000e+00  -3.1738164799114662e-05 1.1699298212193289e-05 0.0000000000000000e+00  -3.6320095351000937e-05 1.7449302899698520e-05 0.0000000000000000e+00  -3.4100889311091722e-05 1.4595842043848851e-05 0.0000000000000000e+00  2.0068158456521330e-05 1.0015170363372677e-05 0.0000000000000000e+00  1.0026355183374334e-05 -3.2554387362857412e-06 0.0000000000000000e+00  6.4834680068514107e-07 -1.7981681520222587e-05 0.0000000000000000e+00  -7.1423595348902269e-06 -3.3163529140433327e-05 0.0000000000000000e+00  -1.2412430392069913e-05 -4.7930875251526336e-05 0.0000000000000000e+00  -1.4219118129775793e-05 -6.0570125134038952e-05 0.0000000000000000e+00  -1.2818953286415460e-05 -6.9391715806592114e-05 0.0000000000000000e+00  -9.3534815547882752e-06 -7.3137595284407164e-05 0.0000000000000000e+00  -2.9471275567664902e-05 8.5378523730638967e-06 0.0000000000000000e+00  -2.3452400679444449e-06 -6.4077293826136670e-05 0.0000000000000000e+00  -1.9305607000509329e-06 -5.3117006842304548e-05 0.0000000000000000e+00  -4.4091874969126098e-06 -3.9879228814440989e-05 0.0000000000000000e+00  -9.5021362323646665e-06 -2.5653315090669664e-05 0.0000000000000000e+00  -1.6578686620281034e-05 -1.1440950384130615e-05 0.0000000000000000e+00  -2.4961639340480175e-05 2.1402361526692951e-06 0.0000000000000000e+00  -5.2562229797761356e-06 -7.1183975451738818e-05 0.0000000000000000e+00  2.4985645748731562e-05 1.5715450466490824e-05 0.0000000000000000e+00  -2.0648985300654091e-05 -4.5221516010776549e-06 0.0000000000000000e+00  -1.2836746124005592e-05 -1.8500216552042241e-05 0.0000000000000000e+00  -6.6579696351345238e-06 -3.2822408083443900e-05 0.0000000000000000e+00  -2.8150001246325928e-06 -4.6694003945977351e-05 0.0000000000000000e+00  -1.7738968582532619e-06 -5.8990787694671685e-05 0.0000000000000000e+00  -3.5521223988221069e-06 -6.8206110863951880e-05 0.0000000000000000e+00  -7.2649370144184321e-06 -7.2862771570943199e-05 0.0000000000000000e+00  -1.1278605233274462e-05 -7.1970567023366822e-05 0.0000000000000000e+00  -1.3795987603314752e-05 -6.5442496793758747e-05 0.0000000000000000e+00  -1.3748996037279190e-05 -5.4586520358358150e-05 0.0000000000000000e+00  -1.0267235754931660e-05 -4.0918110751989756e-05 0.0000000000000000e+00  -3.5020431468570433e-06 -2.5578339884667934e-05 0.0000000000000000e+00  5.1802662990256126e-06 -1.0520994915057028e-05 0.0000000000000000e+00  1.4999057197239327e-05 3.5546750999702568e-06 0.0000000000000000e+00  -5.6564044864135535e-05 1.9347879087208006e-05 0.0000000000000000e+00  -4.5353930958193596e-05 2.4774337829088367e-05 0.0000000000000000e+00  -5.0820865499244171e-05 2.5183430942908118e-05 0.0000000000000000e+00  -5.4680685480867826e-05 2.2747874690366243e-05 0.0000000000000000e+00  -4.1902301473655806e-05 2.2374800205059312e-05 0.0000000000000000e+00  -4.7850430245648188e-05 2.4734192880799390e-05 0.0000000000000000e+00  -5.3124121409278398e-05 2.4276568700352800e-05 0.0000000000000000e+00  -5.5856186358347762e-05 2.1116568663865697e-05 0.0000000000000000e+00  -4.0329665458355723e-05 2.1303358352438526e-05 0.0000000000000000e+00  -4.3617997338738742e-05 2.3738213636121409e-05 0.0000000000000000e+00  -4.6565763331023030e-05 2.4742479885421000e-05 0.0000000000000000e+00  -4.9315184884505239e-05 2.5037522620211011e-05 0.0000000000000000e+00  -5.1348572177483884e-05 2.4399198391784319e-05 0.0000000000000000e+00  -5.4124935795781481e-05 2.3563191220694414e-05 0.0000000000000000e+00  -5.5539978770393047e-05 2.1990682911536488e-05 0.0000000000000000e+00  -5.6339784166326258e-05 2.0264044215522907e-05 0.0000000000000000e+00  -5.6655059603803635e-05 1.8198507932171777e-05 0.0000000000000000e+00  -5.6960006486418489e-05 -4.6688073923236638e-06 0.0000000000000000e+00  -5.6708664079410107e-05 -2.3199317947253435e-06 0.0000000000000000e+00  -5.6228150072878282e-05 -9.3128681592127270e-08 0.0000000000000000e+00  -5.5710913743337044e-05 2.0035859208367418e-06 0.0000000000000000e+00  -5.5203844074566820e-05 3.9728470596285535e-06 0.0000000000000000e+00  -5.4953218608817545e-05 5.8425809907530771e-06 0.0000000000000000e+00  -5.4932950881445647e-05 7.6869877186809035e-06 0.0000000000000000e+00  -5.5145507690477489e-05 9.5618855544173736e-06 0.0000000000000000e+00  -5.5598271158176511e-05 1.1542846343072220e-05 0.0000000000000000e+00  -5.6059306760951384e-05 1.3643398348227500e-05 0.0000000000000000e+00  -5.6487661622195429e-05 1.5868374905620364e-05 0.0000000000000000e+00  -5.6782955521723790e-05 -5.8504398702748435e-06 0.0000000000000000e+00  -5.6869479622504189e-05 -3.4802456237785823e-06 0.0000000000000000e+00  -5.5964520944619488e-05 9.7142630360979526e-07 0.0000000000000000e+00  -5.5050917470058351e-05 4.9146459774523238e-06 0.0000000000000000e+00  -5.5009674606504503e-05 8.6169871890796819e-06 0.0000000000000000e+00  -5.5821300193915922e-05 1.2576585356429025e-05 0.0000000000000000e+00  -5.6604796236928274e-05 1.7022367027998096e-05 0.0000000000000000e+00  -5.6479597144486269e-05 -1.1900204279862254e-06 0.0000000000000000e+00  -5.5441611472231471e-05 3.0081050623828212e-06 0.0000000000000000e+00  -5.4914948364554628e-05 6.7644986068575501e-06 0.0000000000000000e+00  -5.5362307823724595e-05 1.0533036760025236e-05 0.0000000000000000e+00  -5.6281596765360081e-05 1.4739961538726927e-05 0.0000000000000000e+00  -3.8133343684724928e-05 -6.7519828500583158e-06 0.0000000000000000e+00  -5.4758315721361259e-05 -9.2882370271362537e-06 0.0000000000000000e+00  -5.0695080237268132e-05 -1.1630911657422019e-05 0.0000000000000000e+00  -4.4994271528787434e-05 -1.1244768833036033e-05 0.0000000000000000e+00  -5.5986697632307448e-05 -7.6337844571065503e-06 0.0000000000000000e+00  -5.2990727855284310e-05 -1.0677403917544114e-05 0.0000000000000000e+00  -4.7643476408435303e-05 -1.1267932901127219e-05 0.0000000000000000e+00  -4.1481987215323620e-05 -8.9872527997298026e-06 0.0000000000000000e+00  -5.6483935490841273e-05 -6.7598170322064982e-06 0.0000000000000000e+00  -5.5559930330738202e-05 -8.5055135777466660e-06 0.0000000000000000e+00  -5.4049937502195494e-05 -1.0033997983481389e-05 0.0000000000000000e+00  -5.1425408124845859e-05 -1.0950295121394589e-05 0.0000000000000000e+00  -4.9173632364838124e-05 -1.1538588369757407e-05 0.0000000000000000e+00  -4.6290468822839009e-05 -1.1257781425523058e-05 0.0000000000000000e+00  -4.3240307386356121e-05 -1.0272420467654429e-05 0.0000000000000000e+00  -3.9832372192818660e-05 -7.9163088763899836e-06 0.0000000000000000e+00  -6.1715236320357756e-06 8.5978071208873104e-05 0.0000000000000000e+00  -3.0664088473439000e-05 1.8960910547419942e-06 0.0000000000000000e+00  -2.5741732724190092e-05 8.3505996872952862e-06 0.0000000000000000e+00  -2.0892509013446338e-05 1.5234134317161563e-05 0.0000000000000000e+00  -1.6222449305277298e-05 2.2469408425739248e-05 0.0000000000000000e+00  -1.1867142584490493e-05 2.9882254865311218e-05 0.0000000000000000e+00  -7.9137024345830952e-06 3.7442785283428146e-05 0.0000000000000000e+00  -4.4567664318880329e-06 4.5070440236901445e-05 0.0000000000000000e+00  -1.6223434964432349e-06 5.2646352400448270e-05 0.0000000000000000e+00  4.5350759027325948e-07 5.9901225119420461e-05 0.0000000000000000e+00  1.7154705932545606e-06 6.6702134690916555e-05 0.0000000000000000e+00  2.1225587443253869e-06 7.2825550071906476e-05 0.0000000000000000e+00  1.6784010192433933e-06 7.8071443162104647e-05 0.0000000000000000e+00  4.4113325506703994e-07 8.2147989027567836e-05 0.0000000000000000e+00  -1.4271145914567591e-06 8.4891708301594877e-05 0.0000000000000000e+00  -3.7139441718806521e-06 8.6152462000955949e-05 0.0000000000000000e+00  -3.5585009199391864e-05 -3.9487906508826532e-06 0.0000000000000000e+00  -8.5214947047264975e-06 8.4220221565630077e-05 0.0000000000000000e+00  -1.0475388757621095e-05 8.1113811182838207e-05 0.0000000000000000e+00  -1.1826160553851884e-05 7.6889062537142933e-05 0.0000000000000000e+00  -1.2369863608307084e-05 7.1458223047539483e-05 0.0000000000000000e+00  -1.2127995296837163e-05 6.5421244956712855e-05 0.0000000000000000e+00  -1.1084271399689664e-05 5.8707740203636149e-05 0.0000000000000000e+00  -9.2575153061195622e-06 5.1514339057980837e-05 0.0000000000000000e+00  -6.6780972898017492e-06 4.3913257797829990e-05 0.0000000000000000e+00  -3.4635501969812491e-06 3.6219583469298870e-05 0.0000000000000000e+00  2.3380079424819056e-07 2.8568006135567574e-05 0.0000000000000000e+00  4.3346947533887637e-06 2.1029922338895036e-05 0.0000000000000000e+00  8.7546224234465352e-06 1.3679167720954147e-05 0.0000000000000000e+00  1.3409433223142537e-05 6.5661870183288301e-06 0.0000000000000000e+00  1.8185154691981795e-05 -1.6382262517767931e-07 0.0000000000000000e+00  2.2991364227773295e-05 -6.2948039177925374e-06 0.0000000000000000e+00  2.5520278955795806e-05 -9.2684076399496988e-06 0.0000000000000000e+00  2.0679017501248429e-05 -3.2901922452046165e-06 0.0000000000000000e+00  1.1054075663787838e-05 1.0124202676406213e-05 0.0000000000000000e+00  2.2390201698180541e-06 2.4782736352961486e-05 0.0000000000000000e+00  -5.1291498201189036e-06 4.0054427042415813e-05 0.0000000000000000e+00  -1.0264055965372101e-05 5.5144891049416319e-05 0.0000000000000000e+00  -1.2344105307288620e-05 6.8531881318242667e-05 0.0000000000000000e+00  -1.1231964993755678e-05 7.9074739640469242e-05 0.0000000000000000e+00  -7.3782666028205207e-06 8.5273308694834107e-05 0.0000000000000000e+00  -2.5303551607602319e-06 8.5723936566456136e-05 0.0000000000000000e+00  1.1498253433218491e-06 8.0258326446320554e-05 0.0000000000000000e+00  2.0264231900719633e-06 6.9862651659868933e-05 0.0000000000000000e+00  -4.8882204900812254e-07 5.6312796257221907e-05 0.0000000000000000e+00  -6.1181303529594545e-06 4.1252396236068734e-05 0.0000000000000000e+00  -1.4002465390836761e-05 2.6149539356217796e-05 0.0000000000000000e+00  -2.3302483182932804e-05 1.1774424243675445e-05 0.0000000000000000e+00  -3.3218788955703719e-05 -1.1084564597995444e-06 0.0000000000000000e+00  1.5805087945111773e-05 3.2282804440949751e-06 0.0000000000000000e+00  6.5106473187070157e-06 1.7331078601157959e-05 0.0000000000000000e+00  -1.6710366840153309e-06 3.2385439694813337e-05 0.0000000000000000e+00  -8.0741296723105269e-06 4.7778330234608758e-05 0.0000000000000000e+00  -1.1705143298554460e-05 6.2132702450549016e-05 0.0000000000000000e+00  -1.2246715144148669e-05 7.4382934430862542e-05 0.0000000000000000e+00  -9.5615789884845118e-06 8.2814070921828194e-05 0.0000000000000000e+00  -4.9264190495681761e-06 8.6247756693280425e-05 0.0000000000000000e+00  -4.2588898830933764e-07 8.3696105763920265e-05 0.0000000000000000e+00  2.0123733646142983e-06 7.5590273268911405e-05 0.0000000000000000e+00  1.1901137760889457e-06 6.3373791746226934e-05 0.0000000000000000e+00  -2.9450542196019050e-06 4.8890288726943688e-05 0.0000000000000000e+00  -9.8343140829422810e-06 3.3650522604593780e-05 0.0000000000000000e+00  -1.8518049253459636e-05 1.8836839051686366e-05 0.0000000000000000e+00  -2.8215660478259161e-05 5.1397728907084440e-06 0.0000000000000000e+00  4.4042560163869963e-05 -8.9229883999188147e-06 0.0000000000000000e+00  3.2353365820513076e-05 -1.4065212525578404e-05 0.0000000000000000e+00  3.8045689237796169e-05 -1.4630718303296669e-05 0.0000000000000000e+00  4.2069195101157201e-05 -1.2302902648240975e-05 0.0000000000000000e+00  2.8824439959097661e-05 -1.1604210318890272e-05 0.0000000000000000e+00  3.4972721969124177e-05 -1.4133785089176471e-05 0.0000000000000000e+00  4.0394613371729635e-05 -1.3744755981730303e-05 0.0000000000000000e+00  4.3299330556690825e-05 -1.0683168232331444e-05 0.0000000000000000e+00  2.7188330051749607e-05 -1.0456262015640925e-05 0.0000000000000000e+00  3.0583992362615200e-05 -1.2998650911842904e-05 0.0000000000000000e+00  3.3631228299289057e-05 -1.4097167614420298e-05 0.0000000000000000e+00  3.6499355574147590e-05 -1.4469204999517317e-05 0.0000000000000000e+00  3.8685326220464297e-05 -1.3910888877188352e-05 0.0000000000000000e+00  4.1441365626802460e-05 -1.3079462190316496e-05 0.0000000000000000e+00  4.2918134011371097e-05 -1.1545459421872526e-05 0.0000000000000000e+00  4.3801250492005295e-05 -9.8302996382638443e-06 0.0000000000000000e+00  4.4194170962862395e-05 -7.7769918964263257e-06 0.0000000000000000e+00  4.4396262366592129e-05 1.4604321385845428e-05 0.0000000000000000e+00  4.4150016209468842e-05 1.2301124428064880e-05 0.0000000000000000e+00  4.3662792215792692e-05 1.0125774560877484e-05 0.0000000000000000e+00  4.3156181007685150e-05 8.0849871156663952e-06 0.0000000000000000e+00  4.2688167434279266e-05 6.1701742786781268e-06 0.0000000000000000e+00  4.2467958240677642e-05 4.3512880897248845e-06 0.0000000000000000e+00  4.2467777591423087e-05 2.5554624588931123e-06 0.0000000000000000e+00  4.2687524947774614e-05 7.2697510522057658e-07 0.0000000000000000e+00  4.3135930888641676e-05 -1.2084752876278790e-06 0.0000000000000000e+00  4.3596888185310897e-05 -3.2694989094291666e-06 0.0000000000000000e+00  4.4023756282418250e-05 -5.4641467609754661e-06 0.0000000000000000e+00  4.4227641107554958e-05 1.5765680728670785e-05 0.0000000000000000e+00  4.4310088474039937e-05 1.3438729358277647e-05 0.0000000000000000e+00  4.3401331298387202e-05 9.0887330361031109e-06 0.0000000000000000e+00  4.2551448688853195e-05 5.2541293580245396e-06 0.0000000000000000e+00  4.2550288164495173e-05 1.6488972722689885e-06 0.0000000000000000e+00  4.3358635589615634e-05 -2.2216804921094661e-06 0.0000000000000000e+00  4.4145906316961650e-05 -6.6066909289910115e-06 0.0000000000000000e+00  4.3915410799515778e-05 1.1196136855242100e-05 0.0000000000000000e+00  4.2905406176899837e-05 7.1086485385899463e-06 0.0000000000000000e+00  4.2441013331497882e-05 3.4539555562063131e-06 0.0000000000000000e+00  4.2901838065167422e-05 -2.2111916258846999e-07 0.0000000000000000e+00  4.3820904557317196e-05 -4.3497748400097591e-06 0.0000000000000000e+00  4.2112602992288533e-05 1.9128891167600422e-05 0.0000000000000000e+00  3.7885978274429875e-05 2.1349954850451452e-05 0.0000000000000000e+00  3.2019517207118320e-05 2.0700282546069086e-05 0.0000000000000000e+00  4.3386931845570563e-05 1.7512856158583422e-05 0.0000000000000000e+00  4.0278674687240643e-05 2.0483255999287974e-05 0.0000000000000000e+00  3.4753266857362607e-05 2.0871405173984933e-05 0.0000000000000000e+00  2.8431641550340179e-05 1.8250514917467185e-05 0.0000000000000000e+00  4.3905259488576216e-05 1.6659193009694752e-05 0.0000000000000000e+00  4.2963298954159844e-05 1.8369377602246200e-05 0.0000000000000000e+00  4.1377692862208247e-05 1.9857003061810133e-05 0.0000000000000000e+00  3.8605291014057755e-05 2.0680236926050534e-05 0.0000000000000000e+00  3.6312581415850321e-05 2.1194111956361771e-05 0.0000000000000000e+00  3.3360744686492110e-05 2.0797558896382744e-05 0.0000000000000000e+00  3.0224071531284616e-05 1.9637199015988922e-05 0.0000000000000000e+00  2.6780868304905815e-05 1.7164954229211466e-05 0.0000000000000000e+00  7.7916282551294069e-06 4.7388847094723049e-05 0.0000000000000000e+00  -2.1474120595177438e-05 -3.3315449165264588e-05 0.0000000000000000e+00  -5.4753728735743733e-06 -4.9908529733602480e-05 0.0000000000000000e+00  1.9465643075094238e-05 -1.9073284687330484e-05 0.0000000000000000e+00  -3.2135361645083302e-05 2.8791348638440067e-05 0.0000000000000000e+00  -9.4415442361535663e-06 5.8090411052691486e-05 0.0000000000000000e+00  -5.3438778523630632e-05 1.1896386325218781e-05 0.0000000000000000e+00  4.1050852249305458e-05 -1.1344731215464403e-06 0.0000000000000000e+00  4.0969834205571293e-05 7.9498585204686491e-06 0.0000000000000000e+00  -5.3449497090222116e-05 1.9769291940465549e-06 0.0000000000000000e+00  -4.4495465528826093e-05 8.2510154970467724e-06 0.0000000000000000e+00  -4.6117505207072390e-05 1.1956664988159502e-05 0.0000000000000000e+00  -3.4650000520358478e-05 2.0834750220866124e-05 0.0000000000000000e+00  -4.3145658682217623e-05 6.1125265630555563e-06 0.0000000000000000e+00  -3.1007930213854854e-05 3.5214773700552625e-06 0.0000000000000000e+00  -5.1468341085486741e-05 6.9534270416706353e-06 0.0000000000000000e+00  -2.1362082801093289e-05 2.5944695641986205e-05 0.0000000000000000e+00  -1.7185570794029662e-05 -1.7447976758444437e-06 0.0000000000000000e+00  -7.6700990195363307e-06 2.5080599715212634e-05 0.0000000000000000e+00  -2.9037720014048407e-06 -6.3111599997112511e-06 0.0000000000000000e+00  8.5202308133872948e-06 2.2727218020869595e-05 0.0000000000000000e+00  1.1091030153774259e-05 -7.4518614851744529e-06 0.0000000000000000e+00  2.0245644348289779e-05 7.4378940656286894e-06 0.0000000000000000e+00  3.1790887429444571e-05 1.0790956256512202e-06 0.0000000000000000e+00  3.3655734708719565e-05 -1.6315763215443268e-06 0.0000000000000000e+00  3.9093811198390592e-05 3.6117067118821145e-06 0.0000000000000000e+00  3.3678274498242440e-05 9.7449342167722621e-06 0.0000000000000000e+00  -4.4017677144413237e-05 5.3431757239956932e-06 0.0000000000000000e+00  -8.8764796316076866e-07 5.5477660191498337e-05 0.0000000000000000e+00  3.1872142558590078e-05 6.2665481039159769e-06 0.0000000000000000e+00  1.9281357616514964e-05 2.8063648420451110e-05 0.0000000000000000e+00  -1.9751592757485031e-05 4.7045951719831152e-05 0.0000000000000000e+00  -3.5753638639201589e-05 -8.7851264883789070e-06 0.0000000000000000e+00  -1.2998281021077983e-05 -4.6641448253126494e-05 0.0000000000000000e+00  7.0173363932931165e-06 -3.4730303739351468e-05 0.0000000000000000e+00  -4.6041688541385584e-05 1.6427956899222877e-06 0.0000000000000000e+00  2.2774197991772499e-05 -9.0546815023643613e-06 0.0000000000000000e+00  3.0777552850086017e-05 4.7974791700443623e-06 0.0000000000000000e+00  -3.2350297747730612e-05 -1.4427521532524611e-05 0.0000000000000000e+00  3.8180046142822511e-05 -6.9055061287409738e-06 0.0000000000000000