<?xml version="1.0"?>
<VTKFile type="UnstructuredGrid"  version="0.1"  >
<UnstructuredGrid>
<Piece  NumberOfPoints="4153" NumberOfCells="8064">
<Points>
<DataArray  type="Float64"  NumberOfComponents="3"  format="ascii">-0.4000267510135876 -0.4683509249414478 0  -0.02489553171903797 -0.5143312028561868 0  -0.07210143565567786 -0.510939335880482 0  -0.1191556791796909 -0.5067080387807095 0  -0.1660928280177858 -0.5019919213546844 0  -0.213053585759912 -0.4969941059317694 0  -0.2599910187702784 -0.49079290266626 0  -0.3068186207182523 -0.4838299294899939 0  -0.3535212760842228 -0.4763146075442318 0  0.02245480734975059 -0.5165714726412085 0  -0.4464458735737278 -0.4607709315166021 0  -0.4927708810513136 -0.4531280976152341 0  -0.5389905030085207 -0.4455719137930071 0  -0.5850853189929591 -0.4383901741327975 0  -0.6310779260035346 -0.4315354774510226 0  -0.6769125101757593 -0.4251494728586384 0  -0.7225731612091773 -0.419366857688568 0  0.7474734135714893 -0.4347561816802683 0  0.06992021521929673 -0.5174527615399058 0  0.1174544316216429 -0.5168129107902869 0  0.1649939479803425 -0.5145911234484638 0  0.2124639036422762 -0.5108607275637316 0  0.2598169984112342 -0.5059245643808169 0  0.3070328610832123 -0.4999773488727846 0  0.3540917066981454 -0.4932282781443356 0  0.4009782052563098 -0.4859773885287926 0  0.4477024327115016 -0.4784135815260454 0  0.4942706575176338 -0.4707402941734457 0  0.540685709239653 -0.4631061673765635 0  0.5869497661348763 -0.4557340985028803 0  0.6330557170774659 -0.448670889954926 0  0.6789929443021226 -0.4421841358510717 0  0.7247588892437955 -0.436425035579813 0  0.7018825343488015 -0.4392822872315416 0  -0.6997418819932454 -0.4223127628868049 0  -0.6080993517677845 -0.4349219343862344 0  -0.5158939492648069 -0.4493413015110118 0  -0.4232499088307879 -0.4646116156595412 0  -0.3301855526932263 -0.4801338317624415 0  -0.2365329704646995 -0.4939955309384377 0  -0.1426346244870663 -0.5043880690736771 0  -0.04851799968359089 -0.5127614617115217 0  0.6560456816133751 -0.4453440025374141 0  0.1412278303129454 -0.5158992560506905 0  0.236156135668609 -0.5085321684676845 0  0.3305825585849351 -0.4966937220871893 0  0.4243600799410056 -0.482217296540138 0  0.5174970769943974 -0.4669127998707596 0  0.6100229106046803 -0.452137257173197 0  0.04617541751256012 -0.5171934938696955 0  -0.7451738244617453 -0.4177616463390372 0  0.5638314518139008 -0.4593865950839373 0  0.4710057469195406 -0.4745811759800871 0  0.3775531694496178 -0.4896465863847054 0  0.2834434756803216 -0.5030646164672614 0  0.1887431832081163 -0.5128952293042963 0  0.09368244852886658 -0.5173295262331471 0  -0.001236698200461067 -0.5156110393783051 0  -0.09564639328073113 -0.5089073385543402 0  -0.1895508414385983 -0.4996166100589632 0  -0.2834198102952649 -0.4873906107306277 0  -0.3768181456726383 -0.4722657430644185 0  -0.4696208414335676 -0.4569482608335264 0  -0.5620462939709095 -0.4419100676294767 0  -0.6540161563457998 -0.428274821091396 0  0.9290397214165945 -0.2430055164103125 0  0.8174567711918808 -0.4173682716053536 0  0.8769520953471831 -0.3755966834361334 0  0.9160575759310043 -0.3145138877333795 0  0.782554792830676 -0.4261316040219911 0  0.8475725473085576 -0.3969903695037856 0  0.895948088482879 -0.3446488889472092 0  0.9222063135415386 -0.2785927917256975 0  0.765090638457368 -0.4308444245200934 0  0.7999509279035204 -0.4215597303795706 0  0.8325256598053308 -0.4072852795802435 0  0.8619396018941023 -0.3857928595584892 0  0.8867835323459097 -0.3602887006210565 0  0.9058161148270192 -0.3295349813220361 0  0.9189693247953495 -0.2964812810980966 0  0.925429573321719 -0.2607646984160327 0  0.9288793973338849 -0.2197801759818802 0  0.9374125026182544 0.2916571758559748 0  0.9363628114491698 0.245301768741502 0  0.9360408386323621 0.198964722145829 0  0.9361064795909552 0.152554327771717 0  0.9363825887326036 0.1059943268609764 0  0.9361473156823943 0.05930161619557662 0  0.9353987983226012 0.01257107045416659 0  0.9341347807193914 -0.03413719794683395 0  0.93234816097303 -0.08072421498496173 0  0.9307333202777073 -0.1271585935997486 0  0.9294649203001821 -0.1734919696390529 0  0.9383576428704017 0.314969351249654 0  0.9367649347730833 0.2684693473081307 0  0.9360387755956414 0.1757727076393729 0  0.9363306274847347 0.08265671381074596 0  0.9348328282740127 -0.0107900807447871 0  0.931510970187058 -0.1039563451849523 0  0.9290574982591943 -0.1966366532588085 0  0.9361430537523484 0.2221378103779896 0  0.93626594092063 0.1293025749740393 0  0.9358354017899144 0.0359373795993897 0  0.9332663088720774 -0.05745798708363965 0  0.9300445249806726 -0.1503352501208719 0  0.7637580466271738 0.512236999527462 0  0.9276242399519173 0.3870474004787325 0  0.8904337413799661 0.4492295837020517 0  0.8325537230984673 0.4927791907944873 0  0.9326840324272192 0.3507877406106061 0  0.9085085305457241 0.4176770944841725 0  0.8619815985958336 0.4715658950831499 0  0.7983019382207361 0.5027006799946619 0  0.935309754040663 0.3328267943118745 0  0.9300047009689919 0.3688330290426143 0  0.9178767492922507 0.4022970391732942 0  0.899845106674408 0.4336285981597387 0  0.8758754490358055 0.4598402728319416 0  0.8472878931597648 0.4822759286493947 0  0.8153871372316547 0.4975620411260446 0  0.781117139075988 0.5079476516016538 0  -0.01906463758849454 0.6501655771471473 0  0.6962367682949927 0.5234963455287833 0  0.6507576811696545 0.5329340134139364 0  0.6049947209676886 0.5431990647545428 0  0.5589658810295186 0.5541494252257902 0  0.5126242689415752 0.5656767133925937 0  0.4659591958558145 0.5774838544943802 0  0.4189516915878801 0.5893629583543992 0  0.3715816905280951 0.6011393239910869 0  0.3238076687776162 0.6124306570619948 0  0.275652285589591 0.6228483753703116 0  0.2271344975793758 0.6320853764385632 0  0.1782735860614877 0.6399031703418657 0  0.1291254787331826 0.6457061507751228 0  0.07979993814254308 0.649348274539989 0  0.03039027484228789 0.6507771371846024 0  0.7414370847525908 0.5150248379317102 0  -0.06844952355339431 0.6468522183133181 0  -0.1176007185362836 0.6412728725196745 0  -0.1664247779290896 0.6337707087330562 0  -0.2147929869375003 0.6245678393543067 0  -0.2627275261432312 0.6150897234747642 0  -0.3103374141576288 0.6053025078786146 0  -0.3576610817625435 0.5953168564160612 0  -0.4047022425432406 0.5852703965231881 0  -0.451517504117865 0.5754683169835537 0  -0.4981275499918316 0.5658549995194347 0  -0.5445381704533785 0.5565116760251339 0  -0.5907469699791537 0.5475354373160404 0  -0.6367383034665871 0.5390518381709706 0  -0.6824995700379438 0.5312635156215744 0  -0.7280252844457028 0.5242833960964804 0  -0.7505491077919435 0.5221587332256437 0  -0.7052722770205775 0.5277788683656505 0  -0.6137702755409949 0.5432162768447019 0  -0.5213578689943322 0.5611441273319985 0  -0.428136922828863 0.5803573269506679 0  -0.3340332331181589 0.6003305316894975 0  -0.2388054522562 0.6198885506492168 0  -0.1420594695510631 0.6377326674534967 0  -0.04377837690966167 0.6488047350853507 0  0.05510112103726771 0.6503450057829159 0  0.1537280584743836 0.6430633542169724 0  0.2514374583356564 0.6276386600958759 0  0.3477427984627821 0.6068802388878045 0  0.4424998384051472 0.5834320290583721 0  0.5358338709999405 0.5598717602940173 0  0.6279115510237455 0.537982756157347 0  0.7188482019886637 0.5192716227154391 0  -0.6596481508574847 0.5350609727342057 0  -0.5676678409307393 0.5519744444238084 0  -0.4748475962734892 0.5706334701259266 0  -0.381219048303529 0.5902615949312844 0  -0.2865701650572232 0.6102281043842056 0  -0.1906927576852082 0.6292792474995665 0  -0.09306078263141868 0.6443230796285505 0  0.005681806081582471 0.6507741358443127 0  0.1044788513563795 0.6478042577885852 0  0.2027521905298465 0.6362076110745347 0  0.2997766894675624 0.6177678608430026 0  0.3953160286925311 0.5952685498967971 0  0.4893332854219827 0.5715581414022882 0  0.5820144230667386 0.5485725622231324 0  0.6735322521410794 0.5281017256809331 0  -0.9288951703503026 0.328493874138311 0  -0.82003547940115 0.5040972804862089 0  -0.8788555489205605 0.461667393297595 0  -0.917077654467091 0.4001805407476149 0  -0.785417863203274 0.5133106427137389 0  -0.849903226381806 0.4834731345287285 0  -0.8973862012737267 0.4304640299795364 0  -0.9226440314622658 0.3641294747990131 0  -0.7680692158505275 0.5182130355256749 0  -0.8026788583026787 0.5085291785417759 0  -0.8349858005199964 0.4939040520218449 0  -0.864036664816788 0.4720191321558975 0  -0.8885023909447415 0.4462531830002648 0  -0.9070346799130854 0.4152676750838741 0  -0.9197029814662704 0.3820746964839772 0  -0.9255410175836776 0.3462633059984059 0  -0.9282855987167925 0.3052599711853228 0  -0.9259739939796477 -0.204416280772205 0  -0.9260952164935362 -0.1582325989661174 0  -0.9268647217640571 -0.1120390532457917 0  -0.9279695851842916 -0.06577030487849314 0  -0.929266895169696 -0.01935912045914258 0  -0.9299894923164764 0.02717318735421385 0  -0.9301574515659026 0.07372633885528769 0  -0.9297809654029557 0.1202440329586671 0  -0.9288655860772993 0.1666318278602752 0  -0.9281733287324964 0.2128764505401355 0  -0.927868927464936 0.2590577104172723 0  -0.9263414396110337 -0.2276089646205455 0  -0.9259244852992833 -0.1813200485121021 0  -0.9273873888967317 -0.08891713213111274 0  -0.9296998090869126 0.003900383264254161 0  -0.9300387539217484 0.09699343922079263 0  -0.928483752703372 0.1897660237013269 0  -0.9279532213859684 0.2821497645471381 0  -0.9264285210000071 -0.1351419468117376 0  -0.9286441826540602 -0.04259297286463303 0  -0.9301398877190299 0.05045073245921901 0  -0.9293451185546138 0.1434661839502452 0  -0.9279633263314697 0.2359705721500562 0  -0.9137362210299926 -0.2990525497282472 0  -0.8746752619289807 -0.3599461672836578 0  -0.8151597027587455 -0.4013600047700453 0  -0.9197679881193563 -0.2631698338468149 0  -0.8937161956326398 -0.3291455110177107 0  -0.8453503908877003 -0.3812782532383078 0  -0.7802646968357114 -0.409845823027258 0  -0.9228759675774106 -0.245354441480155 0  -0.916605492645556 -0.
[...]
<PointData  Vectors="f_2338"> 
<DataArray  type="Float64"  Name="f_2338"  NumberOfComponents="3" format="ascii">-1.7771534339673521e-05 -9.9089788746064406e-05 0.0000000000000000e+00  -2.2215979413509851e-05 -1.5319828159306349e-04 0.0000000000000000e+00  -2.3400490874467450e-05 -1.5241072208134522e-04 0.0000000000000000e+00  -2.4258965010694052e-05 -1.4960619901535326e-04 0.0000000000000000e+00  -2.4689729565485319e-05 -1.4502676395878691e-04 0.0000000000000000e+00  -2.4783285772534637e-05 -1.3928691635579574e-04 0.0000000000000000e+00  -2.4256976240731723e-05 -1.3119676147808543e-04 0.0000000000000000e+00  -2.2915393145419001e-05 -1.2152488112791478e-04 0.0000000000000000e+00  -2.0747692595596607e-05 -1.1079724741894665e-04 0.0000000000000000e+00  -2.0898257934396087e-05 -1.5190289343998412e-04 0.0000000000000000e+00  -1.4183472446674043e-05 -8.7692202159234394e-05 0.0000000000000000e+00  -1.0162165090998515e-05 -7.6513043098302058e-05 0.0000000000000000e+00  -5.7829376183630748e-06 -6.5699877602587466e-05 0.0000000000000000e+00  -1.1074368389538434e-06 -5.5321645221097966e-05 0.0000000000000000e+00  3.7322587738846100e-06 -4.5650245894624044e-05 0.0000000000000000e+00  8.7257795592734032e-06 -3.6590199891736281e-05 0.0000000000000000e+00  1.3743971503231535e-05 -2.8755957622050435e-05 0.0000000000000000e+00  -5.5071458589103169e-05 -3.1654343279337084e-05 0.0000000000000000e+00  -1.9669323932360679e-05 -1.4868103482747815e-04 0.0000000000000000e+00  -1.8736741914693555e-05 -1.4374782781032409e-04 0.0000000000000000e+00  -1.8275924114460814e-05 -1.3738375049895799e-04 0.0000000000000000e+00  -1.8412197497652725e-05 -1.2985507679266582e-04 0.0000000000000000e+00  -1.9195277785038856e-05 -1.2153856267722448e-04 0.0000000000000000e+00  -2.0610704186939006e-05 -1.1268204601318940e-04 0.0000000000000000e+00  -2.2624439157579421e-05 -1.0349226092639857e-04 0.0000000000000000e+00  -2.5190531821240300e-05 -9.4129124910939861e-05 0.0000000000000000e+00  -2.8220201106534553e-05 -8.4789684542473640e-05 0.0000000000000000e+00  -3.1642135499109254e-05 -7.5582572431401348e-05 0.0000000000000000e+00  -3.5388420146923018e-05 -6.6593475932038928e-05 0.0000000000000000e+00  -3.9405001634084103e-05 -5.7932283893627336e-05 0.0000000000000000e+00  -4.3638646784327889e-05 -4.9621734546452077e-05 0.0000000000000000e+00  -4.8050844418361070e-05 -4.1788716852597634e-05 0.0000000000000000e+00  -5.2539522788223559e-05 -3.4872990136875573e-05 0.0000000000000000e+00  -5.0356770856134672e-05 -3.8367648149985520e-05 0.0000000000000000e+00  1.1329911227537583e-05 -3.2673237734168638e-05 0.0000000000000000e+00  1.2888717990939549e-06 -5.0436647873183388e-05 0.0000000000000000e+00  -8.0080781003173665e-06 -7.1055936297757116e-05 0.0000000000000000e+00  -1.6016522451703299e-05 -9.3318757590269628e-05 0.0000000000000000e+00  -2.1934230262644649e-05 -1.1620928774574735e-04 0.0000000000000000e+00  -2.4620026187326557e-05 -1.3547728223634259e-04 0.0000000000000000e+00  -2.4528776317809326e-05 -1.4753954290578345e-04 0.0000000000000000e+00  -2.2838501283226019e-05 -1.5306447749368647e-04 0.0000000000000000e+00  -4.5828714167517173e-05 -4.5702156300701078e-05 0.0000000000000000e+00  -1.8438226439393022e-05 -1.4072455601421782e-04 0.0000000000000000e+00  -1.8723820157867764e-05 -1.2577795583226909e-04 0.0000000000000000e+00  -2.1547292562503492e-05 -1.0812324305879062e-04 0.0000000000000000e+00  -2.6650176951752534e-05 -8.9453041907909135e-05 0.0000000000000000e+00  -3.3480209690313037e-05 -7.1064658464078804e-05 0.0000000000000000e+00  -4.1492913357283572e-05 -5.3739076900504656e-05 0.0000000000000000e+00  -2.0259270390792303e-05 -1.5052179398032325e-04 0.0000000000000000e+00  1.6567601391481975e-05 -2.4912975047107770e-05 0.0000000000000000e+00  -3.7373197828603050e-05 -6.2202930252998302e-05 0.0000000000000000e+00  -2.9886524538590482e-05 -8.0166912952935450e-05 0.0000000000000000e+00  -2.3845191170582758e-05 -9.8809361252692916e-05 0.0000000000000000e+00  -1.9825581118360284e-05 -1.1716658670857361e-04 0.0000000000000000e+00  -1.8261765499480793e-05 -1.3374660067206286e-04 0.0000000000000000e+00  -1.9153960636023617e-05 -1.4641192630216517e-04 0.0000000000000000e+00  -2.1559034505047665e-05 -1.5280579369683173e-04 0.0000000000000000e+00  -2.3879575275589958e-05 -1.5125128838790663e-04 0.0000000000000000e+00  -2.4751009350769834e-05 -1.4237216191519798e-04 0.0000000000000000e+00  -2.3689581942879129e-05 -1.2651942054920325e-04 0.0000000000000000e+00  -1.9407888065646752e-05 -1.0510374626033239e-04 0.0000000000000000e+00  -1.2220128619725207e-05 -8.2063737879386664e-05 0.0000000000000000e+00  -3.4737143623319392e-06 -6.0421209372134372e-05 0.0000000000000000e+00  6.2220498657362663e-06 -4.1118996090519978e-05 0.0000000000000000e+00  -7.5107027154965137e-05 -3.4685103461855617e-05 0.0000000000000000e+00  -6.1924525877203734e-05 -2.7646738704280040e-05 0.0000000000000000e+00  -6.7867012679543714e-05 -2.7644105541075504e-05 0.0000000000000000e+00  -7.2351656094893474e-05 -3.0576408288764288e-05 0.0000000000000000e+00  -5.8305480229959509e-05 -2.9968099601702339e-05 0.0000000000000000e+00  -6.4539968299002232e-05 -2.8107873580884074e-05 0.0000000000000000e+00  -7.0654648627726499e-05 -2.8678040610174266e-05 0.0000000000000000e+00  -7.4070442590581494e-05 -3.2471127953290292e-05 0.0000000000000000e+00  -5.6558313010766615e-05 -3.1352506624570326e-05 0.0000000000000000e+00  -6.0138362103501771e-05 -2.8585260174183919e-05 0.0000000000000000e+00  -6.3195272234835864e-05 -2.7931898159523017e-05 0.0000000000000000e+00  -6.6287221644972908e-05 -2.7659007986845855e-05 0.0000000000000000e+00  -6.8689290078330231e-05 -2.8484593016017108e-05 0.0000000000000000e+00  -7.1767590167480009e-05 -2.9551792845411417e-05 0.0000000000000000e+00  -7.3439542857872938e-05 -3.1447132103087549e-05 0.0000000000000000e+00  -7.4830822483250222e-05 -3.3524589677163557e-05 0.0000000000000000e+00  -7.5543935292507727e-05 -3.6118144191297928e-05 0.0000000000000000e+00  -7.9152968835751050e-05 -6.7841421380981218e-05 0.0000000000000000e+00  -7.8643697443750253e-05 -6.4750956417049957e-05 0.0000000000000000e+00  -7.7793012900790901e-05 -6.1745276715767419e-05 0.0000000000000000e+00  -7.6821131087796300e-05 -5.8846360671010011e-05 0.0000000000000000e+00  -7.5809166395354383e-05 -5.6080717991310874e-05 0.0000000000000000e+00  -7.5217118091012346e-05 -5.3414585105610461e-05 0.0000000000000000e+00  -7.4992425096398284e-05 -5.0759866314248717e-05 0.0000000000000000e+00  -7.5124011450610121e-05 -4.8056342549833871e-05 0.0000000000000000e+00  -7.5581426628045114e-05 -4.5215943262839737e-05 0.0000000000000000e+00  -7.5895848654668882e-05 -4.2247835464523237e-05 0.0000000000000000e+00  -7.5978480567178767e-05 -3.9193306098376283e-05 0.0000000000000000e+00  -7.8974867974607776e-05 -6.9379181147446572e-05 0.0000000000000000e+00  -7.8954016459170957e-05 -6.6289335668260916e-05 0.0000000000000000e+00  -7.7313344889061791e-05 -6.0281876604901190e-05 0.0000000000000000e+00  -7.5467489339527206e-05 -5.4741905461849972e-05 0.0000000000000000e+00  -7.5012165918223638e-05 -4.9418009149146359e-05 0.0000000000000000e+00  -7.5753282621609131e-05 -4.3746117479389265e-05 0.0000000000000000e+00  -7.5841208467148852e-05 -3.7655219153291771e-05 0.0000000000000000e+00  -7.8242217322279937e-05 -6.3235564617036976e-05 0.0000000000000000e+00  -7.6287874612295507e-05 -5.7440354109199996e-05 0.0000000000000000e+00  -7.5060858275294995e-05 -5.2089541525470267e-05 0.0000000000000000e+00  -7.5347815507779154e-05 -4.6660578133581939e-05 0.0000000000000000e+00  -7.5972201179815967e-05 -4.0728728885091972e-05 0.0000000000000000e+00  -6.0922236941585713e-05 -7.5788402534893398e-05 0.0000000000000000e+00  -7.6841094721474850e-05 -7.3743679275698517e-05 0.0000000000000000e+00  -7.2841629584395511e-05 -7.7034142475572011e-05 0.0000000000000000e+00  -6.7392757258879783e-05 -7.7999017032010266e-05 0.0000000000000000e+00  -7.8089399856717836e-05 -7.1646683231886701e-05 0.0000000000000000e+00  -7.5096951293978541e-05 -7.5588348562252624e-05 0.0000000000000000e+00  -6.9883776483906031e-05 -7.7229093877271735e-05 0.0000000000000000e+00  -6.4056521241157236e-05 -7.6668606502447513e-05 0.0000000000000000e+00  -7.8600844736790635e-05 -7.0525916397111101e-05 0.0000000000000000e+00  -7.7629347883121180e-05 -7.2748662043198937e-05 0.0000000000000000e+00  -7.6126507131236523e-05 -7.4708423279046135e-05 0.0000000000000000e+00  -7.3623867139430854e-05 -7.6134466849949893e-05 0.0000000000000000e+00  -7.1428548152945663e-05 -7.7275067493902497e-05 0.0000000000000000e+00  -6.8621753022909076e-05 -7.7598146202524572e-05 0.0000000000000000e+00  -6.5759465935801015e-05 -7.7510635477481843e-05 0.0000000000000000e+00  -6.2401968011384173e-05 -7.5864263248688247e-05 0.0000000000000000e+00  -1.4839507744652309e-05 2.2271588735914919e-05 0.0000000000000000e+00  -5.3754840698130557e-05 -6.8079719333292066e-05 0.0000000000000000e+00  -4.9054913112328230e-05 -6.2070782972249407e-05 0.0000000000000000e+00  -4.4423645056830485e-05 -5.5754685746881387e-05 0.0000000000000000e+00  -3.9879233114202118e-05 -4.9125542803520699e-05 0.0000000000000000e+00  -3.5510646333415808e-05 -4.2340383687686736e-05 0.0000000000000000e+00  -3.1368437905591307e-05 -3.5426408544215333e-05 0.0000000000000000e+00  -2.7513797584727110e-05 -2.8433738968074978e-05 0.0000000000000000e+00  -2.4015662150803985e-05 -2.1379696074669434e-05 0.0000000000000000e+00  -2.0965552201918577e-05 -1.4401653242182975e-05 0.0000000000000000e+00  -1.8415553483780600e-05 -7.5258701043867233e-06 0.0000000000000000e+00  -1.6419438930615571e-05 -8.6381656564888668e-07 0.0000000000000000e+00  -1.5029769795419726e-05 5.4395051246031371e-06 0.0000000000000000e+00  -1.4254506473600859e-05 1.1120911028343078e-05 0.0000000000000000e+00  -1.4039226969338939e-05 1.5978401574973583e-05 0.0000000000000000e+00  -1.4277771963435520e-05 1.9740394652240508e-05 0.0000000000000000e+00  -5.8388374316154404e-05 -7.3257467833839641e-05 0.0000000000000000e+00  -1.5501416612269778e-05 2.3097436722600065e-05 0.0000000000000000e+00  -1.5981250492372584e-05 2.2206450603072498e-05 0.0000000000000000e+00  -1.6014821365683123e-05 1.9562242834420812e-05 0.0000000000000000e+00  -1.5310151372545941e-05 1.4977081857158881e-05 0.0000000000000000e+00  -1.3871238299743563e-05 9.3531789610157606e-06 0.0000000000000000e+00  -1.1773614750522418e-05 2.7942861761295121e-06 0.0000000000000000e+00  -9.0556940196187491e-06 -4.4778260473364786e-06 0.0000000000000000e+00  -5.7534185908389172e-06 -1.2316996934376318e-05 0.0000000000000000e+00  -2.0225357552256474e-06 -2.0210509736112730e-05 0.0000000000000000e+00  2.0423337717935281e-06 -2.8097627906347453e-05 0.0000000000000000e+00  6.3673682566257111e-06 -3.5864841043565820e-05 0.0000000000000000e+00  1.0886311483209257e-05 -4.3404031633244045e-05 0.0000000000000000e+00  1.5547231827508984e-05 -5.0642156094040356e-05 0.0000000000000000e+00  2.0285146942542261e-05 -5.7442850681398922e-05 0.0000000000000000e+00  2.4973688394630561e-05 -6.3318527565906331e-05 0.0000000000000000e+00  2.7533618160242577e-05 -6.6130004494141555e-05 0.0000000000000000e+00  2.2704253653433322e-05 -6.0358355564893887e-05 0.0000000000000000e+00  1.3202078135337295e-05 -4.7060017533771703e-05 0.0000000000000000e+00  4.1765370423639066e-06 -3.2001216523093862e-05 0.0000000000000000e+00  -3.9325330896189974e-06 -1.6260442898938966e-05 0.0000000000000000e+00  -1.0488584984785950e-05 -7.7380764233734653e-07 0.0000000000000000e+00  -1.4673211838881790e-05 1.2293805531073169e-05 0.0000000000000000e+00  -1.6069075285220459e-05 2.1074737460265203e-05 0.0000000000000000e+00  -1.5173876226416620e-05 2.2880885036968636e-05 0.0000000000000000e+00  -1.4109735878043613e-05 1.8017953208791312e-05 0.0000000000000000e+00  -1.4567266963157413e-05 8.3598883759470913e-06 0.0000000000000000e+00  -1.7346876602905498e-05 -4.1639643257136307e-06 0.0000000000000000e+00  -2.2432894986262894e-05 -1.7884051009365779e-05 0.0000000000000000e+00  -2.9402864911508083e-05 -3.1940765663224780e-05 0.0000000000000000e+00  -3.7672152525039190e-05 -4.5753185626861444e-05 0.0000000000000000e+00  -4.6727133166714338e-05 -5.8931987156136980e-05 0.0000000000000000e+00  -5.6149910151362948e-05 -7.0648827598550608e-05 0.0000000000000000e+00  1.7912760613488223e-05 -5.4038547125392321e-05 0.0000000000000000e+00  8.6072295656690992e-06 -3.9667695229536340e-05 0.0000000000000000e+00  -2.6667040382302536e-08 -2.4163351533820359e-05 0.0000000000000000e+00  -7.4797987269263116e-06 -8.3486778715266183e-06 0.0000000000000000e+00  -1.2902304878301769e-05 6.1764123622193142e-06 0.0000000000000000e+00  -1.5790746815070068e-05 1.7497216464386714e-05 0.0000000000000000e+00  -1.5780801406673961e-05 2.2867983891645636e-05 0.0000000000000000e+00  -1.4518350677632698e-05 2.1200337784992621e-05 0.0000000000000000e+00  -1.4082140755608249e-05 1.3668676362548598e-05 0.0000000000000000e+00  -1.5641811077395687e-05 2.3626693138306266e-06 0.0000000000000000e+00  -1.9624461810742493e-05 -1.0943526193320449e-05 0.0000000000000000e+00  -2.5710730658762426e-05 -2.4900019349177841e-05 0.0000000000000000e+00  -3.3407806061656211e-05 -3.8894661363835974e-05 0.0000000000000000e+00  -4.2133795346781475e-05 -5.2472203668041540e-05 0.0000000000000000e+00  -5.1402026903425986e-05 -6.5055750703768415e-05 0.0000000000000000e+00  4.6373365537545665e-05 -6.0952509880861831e-05 0.0000000000000000e+00  3.4260778324593192e-05 -6.9055682071091619e-05 0.0000000000000000e+00  3.9978242801061939e-05 -6.8481091601824335e-05 0.0000000000000000e+00  4.4164694558300738e-05 -6.5291745453183715e-05 0.0000000000000000e+00  3.0785936556949409e-05 -6.7370750561010330e-05 0.0000000000000000e+00  3.6871837053738775e-05 -6.8456305874521508e-05 0.0000000000000000e+00  4.2428087139363651e-05 -6.7168889987438135e-05 0.0000000000000000e+00  4.5510376786398797e-05 -6.3229869189577857e-05 0.0000000000000000e+00  2.9068580378076246e-05 -6.6347960921274633e-05 0.0000000000000000e+00  3.2558166180652534e-05 -6.8414684089999043e-05 0.0000000000000000e+00  3.5547478335846501e-05 -6.8739622662514967e-05 0.0000000000000000e+00  3.8493169519367265e-05 -6.8631451127343314e-05 0.0000000000000000e+00  4.0784965780413604e-05 -6.7599995196014601e-05 0.0000000000000000e+00  4.3490446582128210e-05 -6.6284329254718817e-05 0.0000000000000000e+00  4.5031273012434101e-05 -6.4323234373885195e-05 0.0000000000000000e+00  4.6060017374915549e-05 -6.2114942283155727e-05 0.0000000000000000e+00  4.6546236295670562e-05 -5.9427831119337800e-05 0.0000000000000000e+00  4.0734238953839930e-05 -2.7318451133558924e-05 0.0000000000000000e+00  4.1566932155731742e-05 -3.0403879712979695e-05 0.0000000000000000e+00  4.1860140671339461e-05 -3.3474206740346432e-05 0.0000000000000000e+00  4.1894211003922399e-05 -3.6460930800225734e-05 0.0000000000000000e+00  4.1765680518881065e-05 -3.9321646879430818e-05 0.0000000000000000e+00  4.1928092326599906e-05 -4.2058102013914083e-05 0.0000000000000000e+00  4.2390169159537403e-05 -4.4756731034714733e-05 0.0000000000000000e+00  4.3158008137770069e-05 -4.7476227718394059e-05 0.0000000000000000e+00  4.4263699476152400e-05 -5.0301940336214478e-05 0.0000000000000000e+00  4.5285224731339926e-05 -5.3254395984792864e-05 0.0000000000000000e+00  4.6131607620931485e-05 -5.6307506513377595e-05 0.0000000000000000e+00  4.0019304821832635e-05 -2.5874486073567071e-05 0.0000000000000000e+00  4.1233411989526821e-05 -2.8858035052114322e-05 0.0000000000000000e+00  4.1895320223101302e-05 -3.4981296747279177e-05 0.0000000000000000e+00  4.1808659741976765e-05 -4.0698387163911705e-05 0.0000000000000000e+00  4.2735781771822364e-05 -4.6109795547581217e-05 0.0000000000000000e+00  4.4785102174083727e-05 -5.1764372573340114e-05 0.0000000000000000e+00  4.6406252572613224e-05 -5.7863622492872934e-05 0.0000000000000000e+00  4.1753327104207441e-05 -3.1946593065993676e-05 0.0000000000000000e+00  4.1825996738507269e-05 -3.7915063144021985e-05 0.0000000000000000e+00  4.2122502021921674e-05 -4.3408486982219417e-05 0.0000000000000000e+00  4.3694141019710170e-05 -4.8866596334010556e-05 0.0000000000000000e+00  4.5738531046416383e-05 -5.4769619103436184e-05 0.0000000000000000e+00  3.6346325948732503e-05 -2.1920981227856319e-05 0.0000000000000000e+00  3.0930436675802286e-05 -1.9449085989280244e-05 0.0000000000000000e+00  2.4108729236999755e-05 -2.0199542888875115e-05 0.0000000000000000e+00  3.8461314823361238e-05 -2.3734597092258252e-05 0.0000000000000000e+00  3.4063752587234105e-05 -2.0300440284740024e-05 0.0000000000000000e+00  2.7176112817496500e-05 -2.0208711878292097e-05 0.0000000000000000e+00  2.0181788392707010e-05 -2.2847188301058082e-05 0.0000000000000000e+00  3.9430097227460438e-05 -2.4757406313680042e-05 0.0000000000000000e+00  3.7603776577897771e-05 -2.2750768887612949e-05 0.0000000000000000e+00  3.5434940700084282e-05 -2.1033119481926635e-05 0.0000000000000000e+00  3.1988084015470517e-05 -2.0153841887364254e-05 0.0000000000000000e+00  2.9122053610812228e-05 -1.9623355634693181e-05 0.0000000000000000e+00  2.5610631178114085e-05 -2.0226991452060867e-05 0.0000000000000000e+00  2.2163773651297618e-05 -2.1313596368784211e-05 0.0000000000000000e+00  1.8271935933775168e-05 -2.4370924861888848e-05 0.0000000000000000e+00  4.3146443499735331e-06 -1.2761793957468450e-05 0.0000000000000000e+00  -4.1244336167722118e-05 -9.9363723767659064e-05 0.0000000000000000e+00  -1.6752614821809812e-05 -1.2218221542324085e-04 0.0000000000000000e+00  1.6286657393725298e-05 -7.2998319186100952e-05 0.0000000000000000e+00  -5.3335897764903444e-05 -4.3021935584174146e-05 0.0000000000000000e+00  -2.5699208934454867e-05 -1.0559929190444655e-05 0.0000000000000000e+00  -7.2729680990641510e-05 -4.4605374086103217e-05 0.0000000000000000e+00  4.2099107725153652e-05 -5.3580884657800715e-05 0.0000000000000000e+00  3.8548220925798615e-05 -3.7519388450717858e-05 0.0000000000000000e+00  -7.4283558446918205e-05 -6.1796419469637061e-05 0.0000000000000000e+00  -6.5508679149079257e-05 -6.0652962793789310e-05 0.0000000000000000e+00  -6.7011040268347805e-05 -5.4784371385844322e-05 0.0000000000000000e+00  -5.5161958228400377e-05 -4.7611354523486186e-05 0.0000000000000000e+00  -6.4133980928137997e-05 -5.8063152291864967e-05 0.0000000000000000e+00  -5.0914392560873389e-05 -6.2782163131138436e-05 0.0000000000000000e+00  -7.1987083397518939e-05 -5.4629128931111476e-05 0.0000000000000000e+00  -3.9489486602554265e-05 -4.2185952623792069e-05 0.0000000000000000e+00  -3.3635469501266653e-05 -6.8934745568822027e-05 0.0000000000000000e+00  -2.1227338212187875e-05 -4.1033807218850226e-05 0.0000000000000000e+00  -1.3963992219143331e-05 -7.2737565262413515e-05 0.0000000000000000e+00  1.6661936434019592e-06 -4.0007697550923299e-05 0.0000000000000000e+00  5.6753778067261716e-06 -7.0691448584268721e-05 0.0000000000000000e+00  1.7558258877304319e-05 -5.2561733707526274e-05 0.0000000000000000e+00  2.7124349621399489e-05 -4.4350556370268135e-05 0.0000000000000000e+00  3.2338175045948745e-05 -5.2662963476084767e-05 0.0000000000000000e+00  3.9059296498944137e-05 -4.7506461924833096e-05 0.0000000000000000e+00  3.4198178521353394e-05 -4.6345343368290314e-05 0.0000000000000000e+00  -6.2350305773817803e-05 -4.9767205609274249e-05 0.0000000000000000e+00  -1.1061966356112064e-05 -8.1052636561105848e-06 0.0000000000000000e+00  3.2856455617007967e-05 -5.0763830148408621e-05 0.0000000000000000e+00  1.9585554292291160e-05 -3.0873229338819807e-05 0.0000000000000000e+00  -3.9737974935332744e-05 -2.5075472973377531e-05 0.0000000000000000e+00  -5.6469564104612039e-05 -7.2119264920148866e-05 0.0000000000000000e+00  -3.0024040204515778e-05 -1.1804318448925120e-04 0.0000000000000000e+00  1.9492210124149067e-06 -9.9600951122216056e-05 0.0000000000000000e+00  -6.6377780612750619e-05 -5.7878641644440011e-05 0.0000000000000000e+00  2.0866921017972924e-05 -6.7020710703508840e-05 0.0000000000000000e+00  3.0405596677491911e-05 -5.1116622430114777e-05 0.000000