<?xml version="1.0"?>
<VTKFile type="UnstructuredGrid"  version="0.1"  >
<UnstructuredGrid>
<Piece  NumberOfPoints="4153" NumberOfCells="8064">
<Points>
<DataArray  type="Float64"  NumberOfComponents="3"  format="ascii">-0.4200022915044353 -0.5767040434433444 0  -0.0491901931971602 -0.685824712140602 0  -0.0980897406961027 -0.6815332088275069 0  -0.1464417122251523 -0.6740239075548737 0  -0.1941296836434129 -0.6638988880424619 0  -0.2413673303541524 -0.6520798220633662 0  -0.2877727942814416 -0.6364123216116543 0  -0.3330326314550285 -0.6181967653627686 0  -0.3771213060493326 -0.5982208463252715 0  -2.550545884097725e-06 -0.6865221839790664 0  -0.4619759811204243 -0.5558058783721793 0  -0.5033039871442732 -0.5350835001078506 0  -0.5440555673818874 -0.5148316500924589 0  -0.5842958577293913 -0.4954130633491324 0  -0.6242228335981882 -0.4771209510897629 0  -0.6638197000208663 -0.4600225888731634 0  -0.7032121630065472 -0.4449057638143361 0  0.6827177093609735 -0.4613527609919932 0  0.04916263575235812 -0.6835961392970575 0  0.09799859383769784 -0.6771295781028175 0  0.1462244935381867 -0.6673864110271321 0  0.1936112262847883 -0.6547481107764276 0  0.240051139504132 -0.6399537158057053 0  0.2855408111898984 -0.6234899580060802 0  0.3301042866431004 -0.6058164871165963 0  0.3737834326165811 -0.5874151160460791 0  0.416703928940228 -0.5687200079899549 0  0.458963366308387 -0.5500604393815545 0  0.5006542112828942 -0.5316910157495542 0  0.5418483643865528 -0.5139513125350884 0  0.5826177751931445 -0.4969329743057074 0  0.6230075586839829 -0.481048028150621 0  0.6631393426178217 -0.466935699991764 0  0.6430005411648939 -0.4740009748705649 0  -0.6833949311515775 -0.4524822080301303 0  -0.604303891172847 -0.4861724419434892 0  -0.523739940664953 -0.5248926581888246 0  -0.4410520211662138 -0.5662212555349191 0  -0.3552228905538884 -0.6083258383210705 0  -0.2647077761844699 -0.6446153444582901 0  -0.1703681391264796 -0.6692755409311085 0  -0.07369487135551397 -0.6841103380263099 0  0.6028491485539417 -0.4889116957448492 0  0.1222032938565662 -0.6726431355214425 0  0.2169496753357285 -0.6475893760105297 0  0.3079329691482035 -0.6147867723495901 0  0.3953343689311619 -0.5780836672207145 0  0.4798721956490141 -0.5408376959308711 0  0.5622895874122766 -0.5053412750355344 0  0.02460209137682378 -0.6855112817129535 0  -0.7223598116330805 -0.4387457587695223 0  0.5212960076601343 -0.522720063237205 0  0.4379100358499488 -0.5593731430710331 0  0.3520434858702514 -0.5966615496582592 0  0.2629141445308031 -0.6319047041623294 0  0.1700379434940722 -0.6613895269000272 0  0.07364045729313742 -0.6807929802513002 0  -0.02461196695911334 -0.6866325259678726 0  -0.1223456198646397 -0.6781512686980885 0  -0.2177508476901969 -0.6583493961726008 0  -0.3105466412474638 -0.6275566613694206 0  -0.3987928426770179 -0.5875990170127484 0  -0.4827164808400071 -0.54540658368408 0  -0.564224941758485 -0.5049615257303753 0  -0.6440443421807537 -0.4685051484069235 0  0.8397916830455956 -0.2728536501003662 0  0.7441937625751286 -0.4388214258523616 0  0.7963798662928283 -0.3969449312414818 0  0.8300357484658939 -0.3394033273495523 0  0.7137737372323025 -0.4505060035724286 0  0.7710699714481433 -0.4189146948644698 0  0.8120124095028328 -0.3672577873822953 0  0.8341718243613702 -0.3057847775130213 0  0.6984499090820124 -0.4568710915565541 0  0.7289080664653339 -0.4442104371447242 0  0.7576889467377391 -0.4290315577684113 0  0.7833235840280032 -0.4071924868902823 0  0.8052570992232084 -0.3826734940391275 0  0.8205172907105938 -0.3531959763622739 0  0.8316447872448783 -0.3224307424733 0  0.8365138047968872 -0.2892232770393156 0  0.8391716971404263 -0.2513486931901352 0  0.8440195321608986 0.2226485526269127 0  0.843541947985567 0.1799708293757707 0  0.8441907882133517 0.1371961632596635 0  0.8453576200673246 0.09420886358091621 0  0.8467724613186075 0.05090682063457268 0  0.8471918929391775 0.00734767633765443 0  0.8466731355058416 -0.0362670489304119 0  0.8452243923461619 -0.07980306910806348 0  0.8428671665554407 -0.1230544466620334 0  0.8408226449328006 -0.165995579477215 0  0.8393645243274545 -0.2087181820110241 0  0.845187036015363 0.2441275601346387 0  0.8435935484082863 0.2013099502339251 0  0.8447343004704247 0.1157336876103741 0  0.847100408777693 0.02914346984325908 0  0.8460682437041629 -0.05805384309666354 0  0.8418023625169699 -0.1445583163252342 0  0.8390650907328133 -0.2300362806551007 0  0.8437809371439469 0.1586047406539561 0  0.8461176634402766 0.07261424713043498 0  0.8470458064234808 -0.01446103727436618 0  0.8440779164083672 -0.1014853060272153 0  0.8400019246095166 -0.1873789886212822 0  0.6933024737644069 0.4347606012800541 0  0.8370935663001022 0.3109816619462499 0  0.8049183417362535 0.3692877133121242 0  0.7539123979573906 0.4119689815542181 0  0.8405979581624246 0.2772326112644428 0  0.8201638972879245 0.3394193949425339 0  0.7801869530098187 0.3915198179805964 0  0.7238749201757479 0.423785260292282 0  0.842587925431162 0.2606109236567118 0  0.8384853705031862 0.2939579886049786 0  0.8282377577854654 0.3250801163983777 0  0.8133648875037657 0.3547565575294401 0  0.7921534927916504 0.3796805582455997 0  0.767093522931146 0.4018633370904894 0  0.7388175944492645 0.4174833005316492 0  0.7087570780163991 0.430104311133868 0  -0.03544702624115579 0.6939316836852805 0  0.6348159054785024 0.4558906489591768 0  0.5952673348762787 0.4729508803635109 0  0.5553479486574965 0.4912529125869519 0  0.5150310355889971 0.5106412345287044 0  0.4741468369620367 0.5308068934212348 0  0.4326123323415775 0.5514181422710219 0  0.390323702395181 0.5721968294455496 0  0.3471604425031803 0.5929212160165296 0  0.3029554934732659 0.6130043100996669 0  0.2576655997541241 0.6319980389386539 0  0.2112456983348416 0.6494279473908909 0  0.1636634165208789 0.664860536256995 0  0.1149812555733485 0.6773640590603579 0  0.06540393252533994 0.6865496031903613 0  0.01518401683588221 0.6920556473370819 0  0.6741524581365885 0.4407801724351499 0  -0.08608131384184572 0.6910047104273257 0  -0.1362008162180615 0.6837577759184564 0  -0.1853961394332356 0.6725552172017627 0  -0.233195604212123 0.6574094769733504 0  -0.2796307632671841 0.6407982136749582 0  -0.3248820967580737 0.6227737291056532 0  -0.3690311546086921 0.60371761513322 0  -0.4121251854565299 0.5839317140382694 0  -0.454405927422336 0.5643127031147657 0  -0.4960267660214761 0.5448993731469792 0  -0.5370871285084056 0.5259043155662918 0  -0.5776720028900827 0.5075511976130349 0  -0.6178387133332925 0.4900512288315124 0  -0.6576681344224061 0.473779709283881 0  -0.6973037549941289 0.459391167551126 0  -0.7166354198927519 0.4537116268215147 0  -0.6773982689918321 0.4665979647394554 0  -0.5978046784897108 0.4986873099800317 0  -0.5166215769095138 0.535338594897145 0  -0.4333517433735117 0.5741104908123328 0  -0.3470878320942878 0.6133429468095142 0  -0.256564690421904 0.6493153265098506 0  -0.1609365360847224 0.6785760898238792 0  -0.06079681978678342 0.6930039472960279 0  0.04035879636903403 0.6897939431333212 0  0.1394482478470566 0.6714878242044996 0  0.234597187530269 0.6409403586851294 0  0.3251876979642672 0.6030743869427443 0  0.4115674409053993 0.5618043624541645 0  0.4946611021271921 0.5206559595062102 0  0.5753587970612979 0.4819943750621289 0  0.6543935945983749 0.4483456810019386 0  -0.6377841182577185 0.4818294957198372 0  -0.5574329495353935 0.5166395188445616 0  -0.4752920224848753 0.5545664785158095 0  -0.390717379448533 0.5938574996184099 0  -0.3023987557601636 0.6319376923590622 0  -0.2095451832863154 0.6653721975716689 0  -0.1112319787852138 0.6878945812506533 0  -0.01006814935844227 0.6935364128026253 0  0.09029023835369396 0.6823969605921139 0  0.1876134727936044 0.6574678487055933 0  0.2804497561008421 0.622667782586239 0  0.3688690344788682 0.5825911027293552 0  0.453466900839591 0.5410761106896007 0  0.5352511154065921 0.5008095683180125 0  0.6150763101180886 0.4643309181998418 0  -0.8715111647717894 0.2653106171574695 0  -0.7776863596214285 0.4315252952837227 0  -0.8293658838100495 0.3895286221199465 0  -0.862395661133501 0.3318130696323709 0  -0.7474258166565502 0.443038839573006 0  -0.8042882088357862 0.4114833823819128 0  -0.8448594607914307 0.3598589509966657 0  -0.8663088220366943 0.2982288135513524 0  -0.7322035529595138 0.44925100910049 0  -0.7624746940313724 0.4368648317238161 0  -0.7910305151093276 0.4216401374557249 0  -0.8164186564038839 0.3997703797786748 0  -0.8380460936092118 0.3751754655849531 0  -0.8531838919242566 0.3457134802815762 0  -0.8639421749509935 0.3148650972546239 0  -0.8685306875857608 0.2816907888056842 0  -0.8706908196804063 0.2438878920918784 0  -0.8741406894341597 -0.2280836515593026 0  -0.8734907802854373 -0.1855611975720808 0  -0.8740888830387694 -0.1429818163459188 0  -0.8752863289284479 -0.1002099888998023 0  -0.876829172792245 -0.05713822376890386 0  -0.8774444104297071 -0.01379709263726901 0  -0.8771503380085094 0.02960847343529624 0  -0.8759510760282421 0.07294954901657816 0  -0.8738179038789865 0.1160277687021538 0  -0.8719888819548287 0.1588046798279854 0  -0.8707313807734 0.2013841672136508 0  -0.8752652245123123 -0.2495420305119449 0  -0.8736135511912465 -0.2068184012246471 0  -0.8746417358490336 -0.1216262456193661 0  -0.8772532871727226 -0.03548447156015141 0  -0.8766654001088022 0.05129586799127867 0  -0.8728589916318844 0.1374462310049595 0  -0.8705104922341147 0.2226344693220174 0  -0.8736963411959207 -0.1642895056639208 0  -0.876091834371328 -0.07873087387400754 0  -0.8774071323642337 0.007905734366051166 0  -0.8749255180186117 0.09454430782558754 0  -0.8712695691457241 0.1801135093366176 0  -0.866861744333188 -0.3161913081642034 0  -0.8342733306845709 -0.3740577645603252 0  -0.7830460942199661 -0.4163844770224031 0  -0.8704599403346025 -0.2825262168994273 0  -0.8495827743735955 -0.3443251373026288 0  -0.809485961355863 -0.3962691138231036 0  -0.7529749980554193 -0.4281303825989493 0  -0.8724695554778061 -0.2659470495414114 0  -0.868260891
[...]
<PointData  Vectors="f_4083"> 
<DataArray  type="Float64"  Name="f_4083"  NumberOfComponents="3" format="ascii">-3.9024736874344503e-06 -3.4249017104657104e-05 0.0000000000000000e+00  -2.8518146366927418e-06 -6.9419890802368875e-05 0.0000000000000000e+00  -4.9845730119411876e-06 -6.8708820589483862e-05 0.0000000000000000e+00  -6.8182299902577072e-06 -6.6636269059769002e-05 0.0000000000000000e+00  -8.1526089832666440e-06 -6.3222003224924436e-05 0.0000000000000000e+00  -8.9032186161953736e-06 -5.8864772867609610e-05 0.0000000000000000e+00  -8.8882482307645418e-06 -5.3506613995543325e-05 0.0000000000000000e+00  -8.0248277100381094e-06 -4.7498964645097306e-05 0.0000000000000000e+00  -6.3331619801410779e-06 -4.1023713826999345e-05 0.0000000000000000e+00  -6.5489070083926132e-07 -6.8769081215147636e-05 0.0000000000000000e+00  -6.7028716960432127e-07 -2.7206696408858163e-05 0.0000000000000000e+00  3.0355202230171784e-06 -2.0226735016467777e-05 0.0000000000000000e+00  7.2021681674143157e-06 -1.3294537914452864e-05 0.0000000000000000e+00  1.1738377719942382e-05 -6.4390344571648356e-06 0.0000000000000000e+00  1.6489904840919511e-05 1.1768200822800319e-07 0.0000000000000000e+00  2.1330401205056381e-05 6.2743269952597994e-06 0.0000000000000000e+00  2.6218373630295060e-05 1.1927066217944772e-05 0.0000000000000000e+00  -3.1230328259955321e-05 1.8663698473600495e-05 0.0000000000000000e+00  1.3719639610360158e-06 -6.6823006273828659e-05 0.0000000000000000e+00  3.0157625370919509e-06 -6.3682160607521671e-05 0.0000000000000000e+00  4.1049110603111001e-06 -5.9503545406542564e-05 0.0000000000000000e+00  4.5163377013197191e-06 -5.4439921195823702e-05 0.0000000000000000e+00  4.1995843042141412e-06 -4.8712966207798825e-05 0.0000000000000000e+00  3.1524403745085736e-06 -4.2485605932995847e-05 0.0000000000000000e+00  1.4056784661176041e-06 -3.5926697724444330e-05 0.0000000000000000e+00  -1.0007902432155729e-06 -2.9126939817708352e-05 0.0000000000000000e+00  -3.9634859658510378e-06 -2.2276107578574082e-05 0.0000000000000000e+00  -7.4028503324903005e-06 -1.5445994117038585e-05 0.0000000000000000e+00  -1.1231915899279294e-05 -8.7194497083989078e-06 0.0000000000000000e+00  -1.5385537095528188e-05 -2.1240899933169912e-06 0.0000000000000000e+00  -1.9755358604459305e-05 4.2428295634591986e-06 0.0000000000000000e+00  -2.4271831047821500e-05 1.0320495268138107e-05 0.0000000000000000e+00  -2.8848797605645443e-05 1.5946367635346102e-05 0.0000000000000000e+00  -2.6626231902162823e-05 1.3166771685246932e-05 0.0000000000000000e+00  2.3861392591043524e-05 9.2333485811633724e-06 0.0000000000000000e+00  1.4101566663115978e-05 -3.1476534486042624e-06 0.0000000000000000e+00  5.0712655162434211e-06 -1.6743056563163291e-05 0.0000000000000000e+00  -2.3328946663357042e-06 -3.0694803644116912e-05 0.0000000000000000e+00  -7.2823976450570500e-06 -4.4278207994641535e-05 0.0000000000000000e+00  -9.0006046768572358e-06 -5.6287528153258864e-05 0.0000000000000000e+00  -7.5599407277031342e-06 -6.5134378364889513e-05 0.0000000000000000e+00  -3.9412606556440813e-06 -6.9235311221435745e-05 0.0000000000000000e+00  -2.2017900117069848e-05 7.2540375002180818e-06 0.0000000000000000e+00  3.6382386381555101e-06 -6.1708501094818701e-05 0.0000000000000000e+00  4.4500174355451957e-06 -5.1651052520763973e-05 0.0000000000000000e+00  2.3608736461926386e-06 -3.9235300714220661e-05 0.0000000000000000e+00  -2.4164351763891824e-06 -2.5707493400107659e-05 0.0000000000000000e+00  -9.2763986505987674e-06 -1.2068508925062608e-05 0.0000000000000000e+00  -1.7539988342106818e-05 1.0461547449143394e-06 0.0000000000000000e+00  3.9394970337065499e-07 -6.7953813753723387e-05 0.0000000000000000e+00  2.8655859043157991e-05 1.4612761268577646e-05 0.0000000000000000e+00  -1.3274301633799616e-05 -5.4003031677403711e-06 0.0000000000000000e+00  -5.6298068935754566e-06 -1.8856185007220000e-05 0.0000000000000000e+00  2.8273628504097366e-07 -3.2545904567837898e-05 0.0000000000000000e+00  3.7663418488300097e-06 -4.5654309326095940e-05 0.0000000000000000e+00  4.4038009621092240e-06 -5.7075229688603828e-05 0.0000000000000000e+00  2.2536542347303587e-06 -6.5392768279363278e-05 0.0000000000000000e+00  -1.7457593149677168e-06 -6.9262434250987994e-05 0.0000000000000000e+00  -5.9527358803335678e-06 -6.7848063136863960e-05 0.0000000000000000e+00  -8.5711476956838062e-06 -6.1106039242631694e-05 0.0000000000000000e+00  -8.5507720449008146e-06 -5.0535733817820063e-05 0.0000000000000000e+00  -5.2671394985368138e-06 -3.7799291253804279e-05 0.0000000000000000e+00  1.1159905811328783e-06 -2.3724716312293957e-05 0.0000000000000000e+00  9.4188401480989858e-06 -9.8735721363174082e-06 0.0000000000000000e+00  1.8928996263451150e-05 3.1908576065031888e-06 0.0000000000000000e+00  -4.8758117371353078e-05 1.8563551932292538e-05 0.0000000000000000e+00  -3.7826036587338438e-05 2.3405591293515074e-05 0.0000000000000000e+00  -4.3218205728541101e-05 2.3989633446536202e-05 0.0000000000000000e+00  -4.7004721615177957e-05 2.1746316164042095e-05 0.0000000000000000e+00  -3.4396703188795205e-05 2.0953494371249922e-05 0.0000000000000000e+00  -4.0306203850395917e-05 2.3496725610835184e-05 0.0000000000000000e+00  -4.5468997658986923e-05 2.3167143266401923e-05 0.0000000000000000e+00  -4.8109374354025240e-05 2.0210332557647844e-05 0.0000000000000000e+00  -3.2855091731882259e-05 1.9906355503993264e-05 0.0000000000000000e+00  -3.6096627031145899e-05 2.2336262008160706e-05 0.0000000000000000e+00  -3.9027884249183773e-05 2.3442470913303537e-05 0.0000000000000000e+00  -4.1733262698810806e-05 2.3810902058244379e-05 0.0000000000000000e+00  -4.3708618158063408e-05 2.3250596558572777e-05 0.0000000000000000e+00  -4.6451210571666284e-05 2.2503264462013183e-05 0.0000000000000000e+00  -4.7836983807730439e-05 2.1033633587163857e-05 0.0000000000000000e+00  -4.8551711580633904e-05 1.9416717493788929e-05 0.0000000000000000e+00  -4.8803823054354312e-05 1.7496426983051631e-05 0.0000000000000000e+00  -4.9157373056081310e-05 -3.0622847437542694e-06 0.0000000000000000e+00  -4.8826141073958752e-05 -9.1071644892620519e-07 0.0000000000000000e+00  -4.8312029215837216e-05 1.1035459608850854e-06 0.0000000000000000e+00  -4.7797743685140762e-05 2.9809631979367080e-06 0.0000000000000000e+00  -4.7325184081739264e-05 4.7332412206460675e-06 0.0000000000000000e+00  -4.7089641015600886e-05 6.3916126849069484e-06 0.0000000000000000e+00  -4.7064866099420219e-05 8.0258631064659167e-06 0.0000000000000000e+00  -4.7253643460971771e-05 9.6898889191054059e-06 0.0000000000000000e+00  -4.7665115443211616e-05 1.1455165385978914e-05 0.0000000000000000e+00  -4.8115555304980000e-05 1.3339871756024386e-05 0.0000000000000000e+00  -4.8567785787523270e-05 1.5357507405517134e-05 0.0000000000000000e+00  -4.9034961656960049e-05 -4.1585816393985818e-06 0.0000000000000000e+00  -4.9019967821392926e-05 -1.9698939784617816e-06 0.0000000000000000e+00  -4.8045755684973532e-05 2.0588166930226674e-06 0.0000000000000000e+00  -4.7182401898302449e-05 5.5690649400024039e-06 0.0000000000000000e+00  -4.7132249447006496e-05 8.8506596593974712e-06 0.0000000000000000e+00  -4.7878997859878058e-05 1.2380327594406597e-05 0.0000000000000000e+00  -4.8712958117967679e-05 1.6413089631151978e-05 0.0000000000000000e+00  -4.8575374152029585e-05 1.1425202499869682e-07 0.0000000000000000e+00  -4.7544886005858325e-05 3.8756813883807403e-06 0.0000000000000000e+00  -4.7051424329549980e-05 7.2084226273255896e-06 0.0000000000000000e+00  -4.7448926167388900e-05 1.0554265599062511e-05 0.0000000000000000e+00  -4.8345524290125622e-05 1.4331152015181781e-05 0.0000000000000000e+00  -3.0735013341118300e-05 -4.2604318417929140e-06 0.0000000000000000e+00  -4.7173729234125807e-05 -7.3787114947024645e-06 0.0000000000000000e+00  -4.3209172056612175e-05 -9.5314423885026335e-06 0.0000000000000000e+00  -3.7583444789753913e-05 -8.9748493118221639e-06 0.0000000000000000e+00  -4.8319160825544820e-05 -5.8214641187156350e-06 0.0000000000000000e+00  -4.5443416527350092e-05 -8.6625058568321588e-06 0.0000000000000000e+00  -4.0217015847130978e-05 -9.1240044747204220e-06 0.0000000000000000e+00  -3.4091161748918536e-05 -6.6551527756903206e-06 0.0000000000000000e+00  -4.8769614468373875e-05 -5.0055326645070946e-06 0.0000000000000000e+00  -4.7934522496234971e-05 -6.6403329697615659e-06 0.0000000000000000e+00  -4.6477863640813943e-05 -8.0699352666581127e-06 0.0000000000000000e+00  -4.3916288797049179e-05 -8.9024998551198237e-06 0.0000000000000000e+00  -4.1711003868484086e-05 -9.4074706600024403e-06 0.0000000000000000e+00  -3.8870218720176999e-05 -9.0533294727041169e-06 0.0000000000000000e+00  -3.5836723514522288e-05 -7.9668345940780935e-06 0.0000000000000000e+00  -3.2465467119098354e-05 -5.5854662127990731e-06 0.0000000000000000e+00  -1.2512127420665374e-06 8.2128916160730556e-05 0.0000000000000000e+00  -2.3318176575928896e-05 4.1700657059118722e-06 0.0000000000000000e+00  -1.8429534033585575e-05 1.0403974470673747e-05 0.0000000000000000e+00  -1.3632592760895252e-05 1.7030024208152489e-05 0.0000000000000000e+00  -9.0474432580045198e-06 2.3954434060791062e-05 0.0000000000000000e+00  -4.8081321716733646e-06 3.1020366069193368e-05 0.0000000000000000e+00  -1.0049449419399094e-06 3.8190820648398132e-05 0.0000000000000000e+00  2.2681276168924108e-06 4.5386066281393536e-05 0.0000000000000000e+00  4.8870869519438395e-06 5.2486549223087140e-05 0.0000000000000000e+00  6.7240599058083729e-06 5.9241519688433804e-05 0.0000000000000000e+00  7.7326113879606457e-06 6.5519925873881965e-05 0.0000000000000000e+00  7.8837525694714848e-06 7.1110627444077613e-05 0.0000000000000000e+00  7.1995390657675618e-06 7.5832372732335016e-05 0.0000000000000000e+00  5.7503073199333445e-06 7.9421378350643347e-05 0.0000000000000000e+00  3.7073531167110321e-06 8.1726251616816626e-05 0.0000000000000000e+00  1.2891009590623495e-06 8.2613836817788867e-05 0.0000000000000000e+00  -2.8229097186091315e-05 -1.5369266177704653e-06 0.0000000000000000e+00  -3.6368979765781111e-06 8.0190956754228783e-05 0.0000000000000000e+00  -5.6012189839456451e-06 7.7036818316685490e-05 0.0000000000000000e+00  -6.9592101684070314e-06 7.2893572468200592e-05 0.0000000000000000e+00  -7.5383007099513919e-06 6.7714786137184493e-05 0.0000000000000000e+00  -7.3798504042591679e-06 6.2036090772880152e-05 0.0000000000000000e+00  -6.4338965446897759e-06 5.5732847263755175e-05 0.0000000000000000e+00  -4.7206125983963177e-06 4.9005970165598318e-05 0.0000000000000000e+00  -2.2770367161633077e-06 4.1939324760835770e-05 0.0000000000000000e+00  8.0043126520562742e-07 3.4780340499291986e-05 0.0000000000000000e+00  4.3587224652506124e-06 2.7664813691269069e-05 0.0000000000000000e+00  8.3245939857808970e-06 2.0652043827029877e-05 0.0000000000000000e+00  1.2616393963862305e-05 1.3804394332897052e-05 0.0000000000000000e+00  1.7149367840848497e-05 7.1693616350536818e-06 0.0000000000000000e+00  2.1818117006813737e-05 8.6589744955561084e-07 0.0000000000000000e+00  2.6543012535038471e-05 -4.9392050871735405e-06 0.0000000000000000e+00  2.8998268942624944e-05 -7.7525407381165027e-06 0.0000000000000000e+00  2.4264495039715993e-05 -2.1027705697107698e-06 0.0000000000000000e+00  1.4854480161579311e-05 1.0496187737490769e-05 0.0000000000000000e+00  6.2957145212047043e-06 2.4144626873184504e-05 0.0000000000000000e+00  -7.9659945607211327e-07 3.8348590145479759e-05 0.0000000000000000e+00  -5.6682734502940056e-06 5.2396409964310219e-05 0.0000000000000000e+00  -7.5515591346923156e-06 6.4961186495951566e-05 0.0000000000000000e+00  -6.3590106433814217e-06 7.5019377937557438e-05 0.0000000000000000e+00  -2.4801090982921391e-06 8.1319322659513635e-05 0.0000000000000000e+00  2.5330442213640615e-06 8.2362729017034533e-05 0.0000000000000000e+00  6.5608802305108200e-06 7.7771547967158869e-05 0.0000000000000000e+00  7.9154187292240979e-06 6.8415225648423044e-05 0.0000000000000000e+00  5.9035320966751046e-06 5.5905792497937894e-05 0.0000000000000000e+00  7.0308383085694968e-07 4.1790291432798878e-05 0.0000000000000000e+00  -6.8806323721470914e-06 2.7467850152701292e-05 0.0000000000000000e+00  -1.6014954110425804e-05 1.3704011897708375e-05 0.0000000000000000e+00  -2.5857058456515117e-05 1.2344366700712154e-06 0.0000000000000000e+00  1.9493410428405168e-05 4.0427300952813800e-06 0.0000000000000000e+00  1.0434964778020690e-05 1.7211125284116992e-05 0.0000000000000000e+00  2.5228200322422142e-06 3.1215629003732033e-05 0.0000000000000000e+00  -3.6032621624565707e-06 4.5532806841923904e-05 0.0000000000000000e+00  -7.0037503943879716e-06 5.8943900491166796e-05 0.0000000000000000e+00  -7.3985594540634795e-06 7.0516286947102866e-05 0.0000000000000000e+00  -4.6833359956308387e-06 7.8740892746425418e-05 0.0000000000000000e+00  2.7666991777550295e-08 8.2536631449480632e-05 0.0000000000000000e+00  4.7909224535735109e-06 8.0743147807125882e-05 0.0000000000000000e+00  7.6505543689215749e-06 7.3609528714815574e-05 0.0000000000000000e+00  7.3349865449226344e-06 6.2454366418520534e-05 0.0000000000000000e+00  3.6759712180944451e-06 4.8972436946471841e-05 0.0000000000000000e+00  -2.8461730913183534e-06 3.4598546945444667e-05 0.0000000000000000e+00  -1.1296451117438237e-05 2.0485037500322076e-05 0.0000000000000000e+00  -2.0886232869644455e-05 7.2990774313923424e-06 0.0000000000000000e+00  4.6739335477905324e-05 -7.7047878542969313e-06 0.0000000000000000e+00  3.5698412678777289e-05 -1.2553618970325612e-05 0.0000000000000000e+00  4.1179778436959613e-05 -1.3138624490517063e-05 0.0000000000000000e+00  4.4991063835064984e-05 -1.0909601178035208e-05 0.0000000000000000e+00  3.2245366187183041e-05 -1.0123554991684089e-05 0.0000000000000000e+00  3.8226558913396694e-05 -1.2656313507848475e-05 0.0000000000000000e+00  4.3408830990725519e-05 -1.2287627294144781e-05 0.0000000000000000e+00  4.6099601885598206e-05 -9.3626035785863501e-06 0.0000000000000000e+00  3.0671096417091791e-05 -9.0531458000307192e-06 0.0000000000000000e+00  3.3961396637113747e-05 -1.1493655734597253e-05 0.0000000000000000e+00  3.6927505652005246e-05 -1.2600790325498848e-05 0.0000000000000000e+00  3.9681936553911127e-05 -1.2970191649937344e-05 0.0000000000000000e+00  4.1743459771539576e-05 -1.2433186874410611e-05 0.0000000000000000e+00  4.4404384846463295e-05 -1.1649446810915948e-05 0.0000000000000000e+00  4.5786268522277891e-05 -1.0184467884380143e-05 0.0000000000000000e+00  4.6541478556639974e-05 -8.5591601798441342e-06 0.0000000000000000e+00  4.6828277445614415e-05 -6.6337562277327441e-06 0.0000000000000000e+00  4.7126994522642695e-05 1.3759150420530317e-05 0.0000000000000000e+00  4.6781379278350661e-05 1.1626546568671721e-05 0.0000000000000000e+00  4.6246219233106635e-05 9.6334336743101343e-06 0.0000000000000000e+00  4.5725227561554337e-05 7.7788871553784283e-06 0.0000000000000000e+00  4.5265266257121326e-05 6.0481094574938148e-06 0.0000000000000000e+00  4.5045415470274666e-05 4.4095552730299925e-06 0.0000000000000000e+00  4.5036829810142983e-05 2.7934272761908298e-06 0.0000000000000000e+00  4.5239732126734771e-05 1.1456502902137089e-06 0.0000000000000000e+00  4.5663453679246561e-05 -6.0527882569921056e-07 0.0000000000000000e+00  4.6122072182046686e-05 -2.4795286535707175e-06 0.0000000000000000e+00  4.6579238549001843e-05 -4.4917703131844610e-06 0.0000000000000000e+00  4.7026294547269638e-05 1.4846673797418052e-05 0.0000000000000000e+00  4.6983440020934092e-05 1.2676595152871989e-05 0.0000000000000000e+00  4.5974181926028703e-05 8.6893767764972742e-06 0.0000000000000000e+00  4.5129972072748705e-05 5.2224235972101642e-06 0.0000000000000000e+00  4.5112007226417142e-05 1.9769731868338512e-06 0.0000000000000000e+00  4.5881499739036079e-05 -1.5248325547306366e-06 0.0000000000000000e+00  4.6732903397321772e-05 -5.5465939848682229e-06 0.0000000000000000e+00  4.6517995715758565e-05 1.0611756596109073e-05 0.0000000000000000e+00  4.5477652890992658e-05 6.8953591178806092e-06 0.0000000000000000e+00  4.5015288177606393e-05 3.6020449778416831e-06 0.0000000000000000e+00  4.5441276346581449e-05 2.8899997536731665e-07 0.0000000000000000e+00  4.6356573253822973e-05 -3.4675755110900534e-06 0.0000000000000000e+00  4.5159282558956368e-05 1.8038996543616567e-05 0.0000000000000000e+00  4.1162625261642216e-05 2.0165316894698143e-05 0.0000000000000000e+00  3.5529213906285247e-05 1.9525725754841516e-05 0.0000000000000000e+00  4.6303127494017344e-05 1.6494294610549879e-05 0.0000000000000000e+00  4.3425747339882834e-05 1.9328939278454011e-05 0.0000000000000000e+00  3.8164392460805888e-05 1.9717915472756756e-05 0.0000000000000000e+00  3.2030976133417569e-05 1.7135441071069914e-05 0.0000000000000000e+00  4.6755260318069769e-05 1.5687979556811310e-05 0.0000000000000000e+00  4.5945368521256027e-05 1.7310111907001812e-05 0.0000000000000000e+00  4.4467428869667704e-05 1.8730590062751202e-05 0.0000000000000000e+00  4.1817919084303316e-05 1.9516494802030363e-05 0.0000000000000000e+00  3.9648662571027954e-05 2.0012843026172271e-05 0.0000000000000000e+00  3.6818712302914994e-05 1.9631283659290696e-05 0.0000000000000000e+00  3.3775063905249034e-05 1.8483903172383276e-05 0.0000000000000000e+00  3.0439730161270894e-05 1.6116053671324644e-05 0.0000000000000000e+00  1.1660568261468163e-05 4.5750200395897265e-05 0.0000000000000000e+00  -1.4135249766326956e-05 -3.2856156275672048e-05 0.0000000000000000e+00  8.4661611428127058e-08 -4.7412761182904101e-05 0.0000000000000000e+00  2.2807726696492844e-05 -1.8192164298491670e-05 0.0000000000000000e+00  -2.4493213427736660e-05 2.9835666033925611e-05 0.0000000000000000e+00  -3.3146395187096925e-06 5.6536648358478792e-05 0.0000000000000000e+00  -4.5631520980840388e-05 1.1457523685034936e-05 0.0000000000000000e+00  4.3636845519081162e-05 -3.6365336998939409e-07 0.0000000000000000e+00  4.3617455613455193e-05 7.5574827861986971e-06 0.0000000000000000e+00  -4.5675372041668224e-05 3.2310515413243985e-06 0.0000000000000000e+00  -3.6890903395297806e-05 1.0115658962415905e-05 0.0000000000000000e+00  -3.8270744491104356e-05 1.2888005745025506e-05 0.0000000000000000e+00  -2.7068012942521359e-05 2.1166881473361642e-05 0.0000000000000000e+00  -3.5299661481904254e-05 6.3278863267149176e-06 0.0000000000000000e+00  -2.3655689086068716e-05 3.7141913528911828e-06 0.0000000000000000e+00  -4.3555588817721468e-05 7.3106578621586950e-06 0.0000000000000000e+00  -1.4556918591378321e-05 2.5722910846287651e-05 0.0000000000000000e+00  -1.0723213903083360e-05 -1.3935919948391327e-06 0.0000000000000000e+00  -1.9691733059504804e-06 2.4611238611033434e-05 0.0000000000000000e+00  2.4299927430947932e-06 -5.7169536938335779e-06 0.0000000000000000e+00  1.2813101213471788e-05 2.2250563549810125e-05 0.0000000000000000e+00  1.5247534340448273e-05 -6.7634918875164644e-06 0.0000000000000000e+00  2.3662674931242051e-05 7.5655841832169784e-06 0.0000000000000000e+00  3.4850281457324474e-05 6.6039536982670214e-07 0.0000000000000000e+00  3.6367839862897753e-05 -1.4952906210843787e-06 0.0000000000000000e+00  4.1566530505624478e-05 3.8171646394409067e-06 0.0000000000000000e+00  3.6323974573267645e-05 1.0068796555416288e-05 0.0000000000000000e+00  -3.6368024211107641e-05 4.2349067428754145e-06 0.0000000000000000e+00  4.0663488077632301e-06 5.3535914951304731e-05 0.0000000000000000e+00  3.4807315359301668e-05 7.1227099975147802e-06 0.0000000000000000e+00  2.2439623412998998e-05 2.7693161405554433e-05 0.0000000000000000e+00  -1.2605421464962379e-05 4.6762447763161364e-05 0.0000000000000000e+00  -2.8092792802377283e-05 -8.7930603321204627e-06 0.0000000000000000e+00  -6.3885080354844490e-06 -4.4987077031289843e-05 0.0000000000000000e+00  1.1300300539018711e-05 -3.2774781403728061e-05 0.0000000000000000e+00  -3.8189297591020223e-05 1.2783525078932186e-06 0.0000000000000000e+00  2.6031943071778305e-05 -8.3922241038330711e-06 0.0000000000000000e+00  3.3530572317233101e-05 5.0177214006303788e-06 0.0000000000000000e+00  -2.4678245013793776e-05 -1.5000739304458637e-05 0.0000000000000000e+00  4.1168701866374301e-05 -5.6268829644512381e-06 0.0000000000000000e+00  -1.6556907789280442e-05 -1.7684