<?xml version="1.0"?>
<VTKFile type="UnstructuredGrid"  version="0.1"  >
<UnstructuredGrid>
<Piece  NumberOfPoints="4153" NumberOfCells="8064">
<Points>
<DataArray  type="Float64"  NumberOfComponents="3"  format="ascii">-0.4239047651918698 -0.6109530605480015 0  -0.05204200783385295 -0.7552446029429709 0  -0.1030743137080439 -0.7502420294169908 0  -0.1532599422154101 -0.7406601766146428 0  -0.2022822926266795 -0.7271208912673863 0  -0.2502705489703478 -0.7109445949309758 0  -0.2966610425122062 -0.6899189356071976 0  -0.3410574591650666 -0.6656957300078659 0  -0.3834544680294736 -0.6392445601522708 0  -0.000657441246723359 -0.7552912651942141 0  -0.4626462682900286 -0.5830125747810375 0  -0.5002684669212559 -0.5553102351243183 0  -0.5368533992144731 -0.5281261880069118 0  -0.5725574800094489 -0.5018520978062972 0  -0.6077329287572687 -0.477003269081535 0  -0.64248929881581 -0.4537482618779036 0  -0.6769937893762521 -0.4329786975963913 0  0.6514873811010182 -0.4426890625183927 0  0.05053459971339414 -0.7504191455708862 0  0.1010143563747898 -0.7408117387103391 0  0.1503294045984978 -0.7268899564336747 0  0.198127563986108 -0.7091880319722513 0  0.2442507238083462 -0.6886666820135041 0  0.2886932515644069 -0.6659755639390761 0  0.331509965109218 -0.6417431848410406 0  0.3727826423733656 -0.6165420558637874 0  0.4127404429743769 -0.590996115568529 0  0.4515605159758967 -0.5655064334985931 0  0.4894222953836149 -0.5404104654579531 0  0.5264628272910247 -0.5160754025284054 0  0.5628624165886852 -0.4926901447422483 0  0.5987357276361615 -0.4707275328824829 0  0.6342905450121763 -0.4509893323564179 0  0.6163743092627311 -0.460834203185318 0  -0.659533538560534 -0.443248859448967 0  -0.590202324509731 -0.4893200953920934 0  -0.5186686751487096 -0.5416357147519879 0  -0.4433849158325495 -0.596916059179036 0  -0.3625052881989455 -0.652604046315712 0  -0.2737083808613272 -0.7009028726115489 0  -0.1779280798541827 -0.7344099192959981 0  -0.07763613201115806 -0.7533456492477457 0  0.5808312484368718 -0.4816576582446311 0  0.1258415324947217 -0.7343516366162612 0  0.2213996927712736 -0.6992404285312936 0  0.3102938427943961 -0.6540220730638108 0  0.3929179337547727 -0.6037911606208222 0  0.4705957969984153 -0.5529062048559337 0  0.5447495990701698 -0.5042951202906201 0  0.02499604108019444 -0.7534650954666768 0  -0.6937039525899225 -0.4241329975009446 0  0.5080217060263347 -0.5281203664049453 0  0.4322802289563733 -0.5782293280782531 0  0.3523262221552924 -0.6292074542260971 0  0.2666804863796332 -0.6775590134884253 0  0.1744417444561814 -0.718464756588631 0  0.07589411152786778 -0.7461857485306634 0  -0.02635772627408106 -0.7558949602188606 0  -0.1282983557449733 -0.7459993318349525 0  -0.2263219953858807 -0.7194554354152325 0  -0.3190974132923646 -0.6780923951872406 0  -0.4040599821755547 -0.6253983082665527 0  -0.4816004902588742 -0.569131299996374 0  -0.554806101610386 -0.5148350978666928 0  -0.6251153459173026 -0.4653142908004203 0  0.7910335656742425 -0.2542900981680736 0  0.7063677259877902 -0.4154158345588465 0  0.7531616605642872 -0.3729552977949456 0  0.7830310268507159 -0.3176570111855102 0  0.6793770340435074 -0.4295525092011787 0  0.7307637675977473 -0.3954179692536346 0  0.7665434118438459 -0.3440906441158934 0  0.786062450007345 -0.2855744449553734 0  0.6655948173501302 -0.4369647360525609 0  0.692811439434188 -0.4218741751365635 0  0.7186610624885553 -0.4055890868551077 0  0.7415903213291923 -0.3833815848320379 0  0.7615484810651451 -0.3594228974805547 0  0.7740660801389275 -0.3306927119002607 0  0.7838078034371478 -0.3013971088861361 0  0.7879620932162533 -0.2698065595455266 0  0.790367874086072 -0.2338522662070836 0  0.7948621591048173 0.2195862678831584 0  0.7947158069116083 0.1790601129268445 0  0.7958787589975145 0.1382997092205486 0  0.7975598763821838 0.09718982677885292 0  0.7994472772368683 0.05564006185521875 0  0.8001022519235766 0.01373928902256138 0  0.7996082694064214 -0.02824118582394599 0  0.7979707488851902 -0.07011318018895807 0  0.7952020511122291 -0.1115992812760545 0  0.7927070896278205 -0.1526557077211906 0  0.7907967385399312 -0.1933606746055069 0  0.796152074358403 0.2399689784952402 0  0.7945735805868933 0.1993400562554633 0  0.7966885447854513 0.1177925043033968 0  0.7999180068793905 0.03471253478326148 0  0.7989359942571564 -0.04920318343726607 0  0.7939233646570919 -0.1321779887308276 0  0.7903521326148456 -0.2136231910239487 0  0.7952055629919172 0.1587189926789548 0  0.7985727774344182 0.07648992851881571 0  0.7999943820939308 -0.007252614647040587 0  0.7966289902409782 -0.09093104042815277 0  0.791656400319391 -0.1730478366061004 0  0.6625674604232886 0.4305001694382611 0  0.7899198370659765 0.3036029504515474 0  0.7617091696796414 0.3597562709236216 0  0.7163289531676367 0.4029941322423959 0  0.7922787973368798 0.2714111471457271 0  0.7747204807605744 0.3307568890857017 0  0.7399699371626877 0.382395813505876 0  0.6897837584268294 0.4171301075165916 0  0.7938183109627881 0.2556053909922047 0  0.7905508480069512 0.2873176556352171 0  0.7817598941446514 0.3170101811317196 0  0.7694485987067164 0.3458540576743203 0  0.7504424889231662 0.3702730875855973 0  0.7282233042109689 0.3928100076177853 0  0.7029808709347423 0.4095164659375711 0  0.6762916108973007 0.4245188449210689 0  -0.03669823898322232 0.7760605998460111 0  0.6114977289025735 0.4600607146650887 0  0.5768378008426931 0.4833548548341846 0  0.5417153558966012 0.5082829367951044 0  0.5059835923309925 0.5345956685894955 0  0.4693387047903634 0.5618272594904281 0  0.4316073873996376 0.5896089629194201 0  0.3925918300120735 0.6175828957269431 0  0.3520475294551241 0.6454077652396167 0  0.3096795533790743 0.6722458297881008 0  0.2653982111420847 0.6975179648125359 0  0.2191294509043131 0.7205385748349685 0  0.1708629555866464 0.74069290898933 0  0.1207315628932818 0.7567854374110012 0  0.06911128564205096 0.768275854807178 0  0.01647311779494456 0.7746694841548708 0  0.6459233609504972 0.4392432458173794 0  -0.08971821181842383 0.7711956671815545 0  -0.1418020352020072 0.760794594235142 0  -0.1923553496016427 0.7454487896699633 0  -0.2407339049220744 0.7251242631105349 0  -0.2870106136714433 0.7028343044478383 0  -0.3313159933027635 0.6785065763694084 0  -0.3737517672070885 0.6527235852988182 0  -0.4144022221726932 0.6258710387991051 0  -0.4536054961571304 0.5990930436140577 0  -0.4916680435562255 0.5725641868382483 0  -0.5287625345226247 0.5465563593933217 0  -0.5650556089262204 0.521355591945932 0  -0.600689345492444 0.4972205904665661 0  -0.6358500174155924 0.4746456067334366 0  -0.6707607424590905 0.4544519624639524 0  -0.687637150950127 0.4459590860833982 0  -0.6531337739521161 0.4644951941697447 0  -0.5829501983281314 0.5091834977175225 0  -0.5103258623883091 0.5594832217703295 0  -0.4341483428295839 0.6124590809578125 0  -0.3527561055445819 0.6657393567738243 0  -0.2641162495565963 0.7142765130058022 0  -0.1672955467281039 0.7535954677614366 0  -0.06327692888507555 0.7743232699555416 0  0.0428918405903981 0.7721566721503558 0  0.1460091280775674 0.7492593721716585 0  0.2425126062594931 0.7093555843335525 0  0.3310912300609423 0.6589801794406822 0  0.4122705247362562 0.6035946538869634 0  0.487780469755045 0.5481238096589115 0  0.5593438429508721 0.4956983869598373 0  0.6285365361418598 0.4495801176720098 0  -0.6182907078293134 0.4858722258151186 0  -0.5469979847573728 0.5338506441286786 0  -0.4727692024526332 0.5857821075195415 0  -0.3943206416109896 0.6393903064603339 0  -0.3094025061545516 0.690881592850229 0  -0.2169437427403789 0.7358884845187718 0  -0.1159153147808446 0.7666354739970787 0  -0.01004048236666472 0.776073044252106 0  0.09508116080726747 0.7631401083992397 0  0.195264027162526 0.7310773774204089 0  0.2877847426457648 0.6851221490047595 0  0.3725450056969626 0.631563539675827 0  0.4506207277482726 0.5756746576350453 0  0.5239546642891538 0.5212946058183345 0  0.5941900772484442 0.4716299956312341 0  -0.824771829293884 0.2576058293031726 0  -0.7419879469426512 0.4189716763133972 0  -0.7881861053730899 0.3763899976294295 0  -0.817404597298436 0.3209034684543357 0  -0.7151804504693671 0.4329152845813219 0  -0.7660616499223896 0.3988270688740644 0  -0.8014506298007051 0.3475713237025209 0  -0.8202092201510961 0.288866209972766 0  -0.701532456542422 0.4401978633004593 0  -0.7285132973942586 0.4253711759892189 0  -0.7541030094573224 0.409039347130226 0  -0.7767367198499727 0.3868001881287375 0  -0.7963026338376722 0.3627422787105425 0  -0.8087795070777933 0.3340640334706602 0  -0.8181559064287156 0.3046806293702437 0  -0.8219892090291209 0.2731316286258401 0  -0.8238625422347918 0.2372541358641456 0  -0.827013694911517 -0.2143245011387723 0  -0.8267094010070866 -0.1739346510034091 0  -0.8278426638056627 -0.1333483826716087 0  -0.8295611013668935 -0.09243110174442384 0  -0.8315639065351237 -0.05109011431141004 0  -0.8323989949594325 -0.009387537364239019 0  -0.8321135081983664 0.03240190071148707 0  -0.8307113439015072 0.07409519930679187 0  -0.82815445019974 0.1154224898764546 0  -0.825866809772782 0.1563251511744146 0  -0.8241521422243981 0.1968923969004663 0  -0.8282389299650427 -0.2346953567145268 0  -0.8266301111703124 -0.1941418060717751 0  -0.8286675539230048 -0.1129368688428689 0  -0.8321233150999738 -0.03026204796294124 0  -0.8315533928823851 0.05327284117811252 0  -0.8269774918928483 0.1359213984502289 0  -0.823777588836793 0.2170878753371492 0  -0.8271783454801621 -0.1536777490678117 0  -0.8306141814803353 -0.07183551475612693 0  -0.8323918441866274 0.01150777934389285 0  -0.8294842416720303 0.09483330780095485 0  -0.824912995891901 0.1766459338255275 0  -0.8217024617742316 -0.2981523116205869 0  -0.7931107054229287 -0.3538924476656271 0  -0.7475168803136808 -0.3968587512675616 0  -0.8241568128405852 -0.2660319222888775 0  -0.8061570270337127 -0.3249961980241747 0  -0.7713215688950572 -0.3765511983503469 0  -0.7209440219220018 -0.4109949415278794 0  -0.8257142951597364 -0.2502590699846001 0  -0.822
[...]
<CellData  Scalars="f_4640"> 
<DataArray  type="Float64"  Name="f_4640"  format="ascii">1.1177175586927539e-01   1.1177388578896882e-01   1.1176904231379531e-01   1.1177074232725900e-01   1.1177391390062075e-01   1.1176883202413822e-01   1.1177562652970205e-01   1.1177538302603486e-01   1.1176673010181833e-01   1.1177453824222275e-01   1.1176497669208063e-01   1.1176674013584288e-01   1.1177165780340492e-01   1.1177709156847046e-01   1.1177055407713742e-01   1.1177232087484344e-01   1.1177533027774583e-01   1.1176552151419801e-01   1.1177681498132649e-01   1.1177607695313203e-01   1.1176828849238546e-01   1.1177804549070823e-01   1.1177082975108439e-01   1.1176910679215118e-01   1.1177929511757528e-01   1.1177209564553545e-01   1.1177927343308153e-01   1.1178001534806604e-01   1.1177763297687372e-01   1.1177213417039272e-01   1.1177912665824838e-01   1.1177850544567186e-01   1.1176388649390157e-01   1.1177651047492623e-01   1.1176304758680375e-01   1.1176497879809280e-01   1.1177730372185357e-01   1.1176697253526263e-01   1.1177735614643136e-01   1.1177851921077331e-01   1.1176674458941216e-01   1.1178038485092656e-01   1.1175705638588077e-01   1.1176397093185983e-01   1.1176995173364013e-01   1.1177881565750163e-01   1.1176523295039577e-01   1.1176739297156249e-01   1.1177324408296445e-01   1.1177960281422121e-01   1.1177356354914948e-01   1.1177397041195061e-01   1.1178081855350230e-01   1.1177628322229342e-01   1.1178040953129979e-01   1.1178089671995005e-01   1.1177405648278017e-01   1.1177979865717151e-01   1.1176929838513776e-01   1.1177100165641071e-01   1.1177589375823842e-01   1.1178017131595004e-01   1.1177315238983883e-01   1.1177211912540107e-01   1.1179493038444066e-01   1.1178724163391528e-01   1.1179113329516413e-01   1.1179223149816647e-01   1.1178303239365263e-01   1.1178523704673977e-01   1.1177669998525371e-01   1.1178223114528861e-01   1.1179087957744491e-01   1.1178044706980572e-01   1.1178912032688237e-01   1.1178505762911445e-01   1.1179131301457589e-01   1.1177727179955137e-01   1.1178176357523444e-01   1.1178973046419137e-01   1.1177706245865403e-01   1.1178350990238065e-01   1.1176919460079585e-01   1.1177353677336098e-01   1.1177895120172582e-01   1.1176537679912496e-01   1.1177653585562483e-01   1.1178206598952838e-01   1.1176156364017108e-01   1.1177858119137228e-01   1.1174470283422994e-01   1.1175624389318178e-01   1.1176976480197402e-01   1.1177716493657883e-01   1.1175986735253808e-01   1.1177036262782188e-01   1.1178733379371134e-01   1.1177307838952724e-01   1.1178425881332109e-01   1.1178107435069760e-01   1.1177082779945825e-01   1.1178285879697414e-01   1.1175916556106676e-01   1.1176609377690348e-01   1.1178297876323910e-01   1.1175930229127755e-01   1.1177664155451721e-01   1.1176536652678397e-01   1.1178077249950864e-01   1.1175197154179964e-01   1.1176307051266987e-01   1.1175794223823635e-01   1.1178877215156860e-01   1.1176006164566693e-01   1.1177006973271210e-01   1.1178667833513962e-01   1.1174765846543640e-01   1.1177028114015444e-01   1.1172487796019828e-01   1.1174994423768782e-01   1.1177639033933623e-01   1.1173469565494121e-01   1.1175191549143070e-01   1.1174740057528787e-01   1.1179246549597344e-01   1.1170856998547511e-01   1.1172763432854399e-01   1.1178515826442860e-01   1.1167435833289684e-01   1.1172333508976620e-01   1.1170179794885465e-01   1.1175045556507425e-01   1.1172862982423035e-01   1.1176607349509848e-01   1.1175391157506467e-01   1.1174948212512990e-01   1.1170867304064924e-01   1.1172922221704400e-01   1.1171707552478279e-01   1.1176750414083557e-01   1.1174323281082202e-01   1.1175164554958410e-01   1.1175921758375307e-01   1.1175047230973435e-01   1.1173424905885268e-01   1.1177167641880614e-01   1.1175629404698706e-01   1.1175415907907404e-01   1.1176490946910021e-01   1.1175557425667881e-01   1.1176483945976025e-01   1.1176068015332018e-01   1.1175772665278692e-01   1.1176868548754318e-01   1.1176093430354746e-01   1.1176032116379218e-01   1.1175514024444302e-01   1.1176379003961212e-01   1.1175989482790501e-01   1.1175677756884753e-01   1.1172629550574378e-01   1.1173968536790407e-01   1.1173530921783577e-01   1.1177455848213519e-01   1.1174637279875455e-01   1.1177756539695853e-01   1.1176177085637150e-01   1.1175913224942817e-01   1.1174337010477804e-01   1.1175146612131062e-01   1.1175208374246554e-01   1.1177837574741460e-01   1.1176868032906027e-01   1.1175934171324614e-01   1.1176979530611041e-01   1.1176911440763540e-01   1.1175459392781688e-01   1.1176071023529044e-01   1.1176600308417498e-01   1.1175866136606270e-01   1.1176352761015633e-01   1.1176878109781772e-01   1.1176613311953443e-01   1.1176453297218999e-01   1.1176725179547252e-01   1.1176286764653763e-01   1.1176784419780160e-01   1.1176734267684410e-01   1.1176213150533959e-01   1.1176630860517389e-01   1.1176896271217747e-01   1.1176694069214418e-01   1.1166825303754002e-01   1.1175171461291979e-01   1.1173129622720965e-01   1.1169813368315291e-01   1.1176651572957561e-01   1.1174992375732107e-01   1.1177068837886134e-01   1.1175958999690949e-01   1.1174823463151427e-01   1.1176792095820764e-01   1.1176527958634622e-01   1.1175735588538889e-01   1.1172841110369847e-01   1.1176791665808590e-01   1.1176468468162699e-01   1.1174811530613757e-01   1.1177183499999356e-01   1.1176760694771094e-01   1.1177561721698594e-01   1.1177203411525834e-01   1.1177654977907266e-01   1.1177830296741377e-01   1.1177659688324491e-01   1.1176965287143752e-01   1.1178113072483334e-01   1.1178155477289931e-01   1.1178456701811784e-01   1.1178265309624415e-01   1.1177673305368994e-01   1.1177353939752505e-01   1.1178123642911308e-01   1.1177415778756608e-01   1.1177469616465033e-01   1.1177579687569707e-01   1.1178076927792495e-01   1.1177405640561967e-01   1.1177913731270148e-01   1.1177876629442360e-01   1.1178133292645608e-01   1.1177878615187892e-01   1.1178519679416475e-01   1.1178257363232313e-01   1.1178580460130977e-01   1.1178138321281347e-01   1.1178095719706348e-01   1.1178322034673523e-01   1.1178334275309891e-01   1.1178376701542241e-01   1.1176147878584072e-01   1.1177955230440700e-01   1.1177988808680266e-01   1.1177112656662024e-01   1.1178500898945044e-01   1.1178467238077752e-01   1.1178775123673793e-01   1.1178399223441879e-01   1.1178208886054322e-01   1.1178589027597313e-01   1.1178468709511062e-01   1.1178521580161092e-01   1.1177843582864497e-01   1.1178703010230480e-01   1.1178728644044747e-01   1.1178357068822142e-01   1.1170071518597281e-01   1.1179946329061195e-01   1.1179495295963381e-01   1.1179323955873681e-01   1.1178500472647275e-01   1.1178538672377294e-01   1.1179051115022613e-01   1.1179614446351749e-01   1.1178941273890070e-01   1.1178980470810244e-01   1.1178972800615734e-01   1.1178669021261954e-01   1.1177551868788536e-01   1.1176383186538497e-01   1.1179023126054832e-01   1.1176405560084882e-01   1.1178900270483350e-01   1.1178756477040891e-01   1.1178858581226934e-01   1.1178819284865990e-01   1.1178679678739767e-01   1.1178867540533299e-01   1.1178465290710939e-01   1.1178517794288496e-01   1.1178839942623622e-01   1.1178590091520019e-01   1.1178831474927620e-01   1.1178872839654352e-01   1.1179009662295220e-01   1.1178697345770776e-01   1.1178913096264699e-01   1.1180505501525208e-01   1.1178881597413662e-01   1.1178806575352812e-01   1.1178780683744424e-01   1.1178723615392341e-01   1.1178666140228623e-01   1.1178681644283678e-01   1.1178636161737571e-01   1.1178760730694105e-01   1.1178617421992376e-01   1.1178445635382014e-01   1.1178568296389417e-01   1.1178615275029319e-01   1.1178660499617134e-01   1.1178749742164314e-01   1.1178649336652793e-01   1.1178625330083852e-01   1.1177590441281798e-01   1.1176800604613774e-01   1.1178476487396977e-01   1.1177901028891929e-01   1.1178938218698839e-01   1.1178279926248604e-01   1.1178966783144960e-01   1.1180411528017380e-01   1.1178416615904836e-01   1.1178908790130342e-01   1.1178564825377842e-01   1.1178343508628877e-01   1.1176773815769704e-01   1.1177820600161059e-01   1.1178629050405575e-01   1.1174464536040302e-01   1.1178134809138567e-01   1.1178246796214950e-01   1.1178043976918832e-01   1.1178070258553593e-01   1.1178360642775129e-01   1.1178127709138840e-01   1.1178410595378360e-01   1.1178336960809584e-01   1.1178152961213457e-01   1.1178502483328331e-01   1.1178313921445610e-01   1.1178277297083393e-01   1.1178206743255714e-01   1.1178348924189864e-01   1.1178225980631122e-01   1.1178271081460506e-01   1.1178675322983291e-01   1.1178464052189237e-01   1.1178773449671670e-01   1.1178579944709850e-01   1.1178597780947888e-01   1.1178651047969254e-01   1.1178508225935357e-01   1.1178409953624151e-01   1.1178895442885749e-01   1.1178803190613847e-01   1.1178881773124286e-01   1.1178743928231778e-01   1.1178464576432630e-01   1.1178320377752712e-01   1.1178498550426660e-01   1.1178368971226646e-01   1.1178518823890883e-01   1.1178876176830588e-01   1.1178740622720186e-01   1.1178676297378913e-01   1.1179117908020743e-01   1.1178988109278547e-01   1.1179169322587483e-01   1.1179019604103739e-01   1.1179047314638547e-01   1.1179252477897159e-01   1.1179065692064140e-01   1.1178967907047388e-01   1.1178904734185532e-01   1.1179041064517502e-01   1.1178861510427847e-01   1.1178726597411993e-01   1.1178331422198458e-01   1.1178359054446325e-01   1.1178380839323725e-01   1.1178349722944850e-01   1.1178554187573919e-01   1.1178531409889732e-01   1.1178444697309631e-01   1.1178374440882059e-01   1.1178686619200640e-01   1.1178685323618665e-01   1.1178565063616216e-01   1.1178378852578773e-01   1.1178434619693843e-01   1.1178153068424099e-01   1.1178136341863140e-01   1.1177997386060938e-01   1.1177571003794809e-01   1.1177146405528487e-01   1.1178343913429464e-01   1.1177686884384282e-01   1.1177659230270985e-01   1.1178358148295979e-01   1.1177745485752520e-01   1.1177283973941619e-01   1.1178462458943118e-01   1.1177967151479458e-01   1.1178693380492598e-01   1.1178464240588504e-01   1.1177759459166779e-01   1.1177422397692234e-01   1.1178378414403056e-01   1.1177821190661978e-01   1.1178279519325705e-01   1.1178675346872029e-01   1.1178295646606436e-01   1.1178015751681382e-01   1.1178658475221069e-01   1.1178060528298975e-01   1.1178457842577455e-01   1.1178469524518524e-01   1.1178307784859549e-01   1.1178624422204650e-01   1.1178305710491469e-01   1.1178095816302570e-01   1.1177826582573265e-01   1.1178383594309090e-01   1.1177897298652686e-01   1.1177543821521047e-01   1.1178885148499927e-01   1.1178557620191891e-01   1.1179068760561402e-01   1.1178851962993273e-01   1.1178801640890869e-01   1.1179022074822212e-01   1.1178769847965168e-01   1.1178548586200422e-01   1.1179255126217927e-01   1.1179077587743004e-01   1.1179368329865995e-01   1.1179203974163575e-01   1.1178817877209507e-01   1.1178532005959789e-01   1.1178968230771236e-01   1.1178756381594655e-01   1.1177868538925191e-01   1.1177644840618584e-01   1.1178376385380957e-01   1.1177917627010447e-01   1.1177952794577789e-01   1.1178373849599200e-01   1.1178010394315346e-01   1.1177767331636260e-01   1.1178435344290040e-01   1.1178113753490458e-01   1.1178564661030863e-01   1.1178386381810468e-01   1.1177898620989479e-01   1.1177732158344852e-01   1.1178311447449747e-01   1.1178142593536483e-01   1.1178079971624885e-01   1.1178708407295065e-01   1.1178095918911021e-01   1.1178204271719855e-01   1.1178690834378822e-01   1.1178279116200344e-01   1.1178842407054793e-01   1.1178877341719350e-01   1.1177762949147269e-01   1.1178587703231815e-01   1.1177563872550628e-01   1.1177871187853122e-01   1.1178323321644737e-01   1.1178993542496214e-01   1.1178389052626210e-01   1.1178447246243134e-01   1.1178468273131131e-01   1.1177535880528416e-01   1.1178486970449433e-01   1.1178667242723542e-01   1.1177762646027273e-01   1.1178779207581123e-01   1.1178149343116263e-01   1.1178041102384362e-01   1.1178622539847766e-01   1.1177941629108966e-01   1.1178615074800170e-01   1.1178865944659906e-01   1.1178953782098426e-01   1.1178493324023424e-01   1.1179035765283574e-01   1.1179098517773414e-01   1.1177369949915199e-01   1.1178386132610618e-01   1.1177158272956897e-01   1.1177195769001312e-01   1.1178104855273756e-01   1.1176904259037233e-01   1.1177991420280384e-01   1.1178333206669143e-01   1.1177331764296451e-01   1.1178432267611749e-01   1.1176570569203514e-01   1.1176615173941618e-01   1.1177543386278273e-01   1.1178385473822723e-01   1.1177131502130716e-01   1.1177492333922980e-01   1.1178560628454962e-01   1.1179181236893206e-01   1.1178576507043267e-01   1.1178653533587402e-01   1.1179114297286290e-01   1.1178695995532313e-01   1.1179085296476492e-01   1.1179260852628906e-01   1.1178308538952454e-01   1.1178849118501261e-01   1.1177859941698071e-01   1.1178186139293143e-01   1.1178779900667506e-01   1.1179233398830007e-01   1.1178548280400157e-01   1.1178681240380121e-01   1.1165487054902787e-01   1.1167612670358272e-01   1.1169606424898942e-01   1.1174055074025462e-01   1.1171179296846354e-01   1.1178271626194723e-01   1.1174111257918937e-01   1.1171822608572583e-01   1.1170440561743050e-01   1.1172031532737010e-01   1.1171567345409722e-01   1.1177723070807401e-01   1.1173633445369065e-01   1.1173189819722072e-01   1.1177324082299001e-01   1.1175252567485291e-01   1.1173127974549402e-01   1.1177972911306668e-01   1.1175368385277827e-01   1.1174703640367796e-01   1.1177376046198517e-01   1.1175340422985601e-01   1.1177848642937378e-01   1.1177074334675290e-01   1.1175889810020001e-01   1.1178112377265963e-01   1.1176619805383778e-01   1.1176295809665499e-01   1.1174904287617189e-01   1.1178071288327063e-01   1.1176002361151206e-01   1.1174696937854822e-01   1.1172466929871264e-01   1.1173939129635663e-01   1.1173229187152807e-01   1.1178065435545731e-01   1.1174711397409588e-01   1.1178297303361319e-01   1.1176210552134448e-01   1.1175921807093747e-01   1.1173931598325032e-01   1.1174891074788272e-01   1.1174184113163192e-01   1.1177772104789606e-01   1.1177630312868085e-01   1.1176199576654562e-01   1.1177386896783617e-01   1.1177998569695433e-01   1.1176051317928287e-01   1.1175829011112801e-01   1.1178344789748516e-01   1.1176835026233219e-01   1.1176807251152628e-01   1.1178644863661602e-01   1.1177519691517175e-01   1.1176758997896721e-01   1.1178195140443656e-01   1.1177002089088935e-01   1.1178310522038173e-01   1.1178561613084732e-01   1.1177330432468345e-01   1.1177385374316316e-01   1.1179003876982123e-01   1.1178410971058987e-01   1.1178289722437990e-01   1.1178156957811705e-01   1.1177795595481105e-01   1.1177995687414095e-01   1.1177697423372558e-01   1.1177323818762942e-01   1.1177139396135129e-01   1.1177768095704828e-01   1.1177252117029196e-01   1.1177138171109874e-01   1.1176437428255703e-01   1.1176603938624270e-01   1.1177676571113933e-01   1.1177250316523561e-01   1.1176850760788651e-01   1.1177280579814151e-01   1.1176325936849710e-01   1.1175560926622199e-01   1.1175039213482892e-01   1.1176321750963124e-01   1.1174555485949313e-01   1.1175085317191796e-01   1.1175174430748303e-01   1.1175993137547285e-01   1.1173231463811839e-01   1.1174222396594176e-01   1.1169363971691941e-01   1.1173345904482813e-01   1.1176364390421530e-01   1.1176344874546822e-01   1.1175142332731509e-01   1.1176487707312489e-01   1.1175263882757334e-01   1.1175061417163182e-01   1.1173386196116167e-01   1.1173868370275002e-01   1.1173326022594683e-01   1.1171773149383907e-01   1.1169343121525467e-01   1.1173174649260970e-01   1.1170378296332667e-01   1.1169480795584734e-01   1.1165212566473139e-01   1.1166294942001881e-01   1.1173088262864299e-01   1.1169242393902282e-01   1.1168422773785573e-01   1.1170181920953889e-01   1.1176901457919827e-01   1.1175321219956419e-01   1.1175698182873992e-01   1.1176359828739592e-01   1.1173521017911044e-01   1.1175930641023012e-01   1.1170138739918843e-01   1.1173792993050334e-01   1.1175190933926686e-01   1.1169691172271003e-01   1.1171553200150834e-01   1.1172593754225457e-01   1.1176752566153404e-01   1.1170893461705297e-01   1.1173400713975563e-01   1.1173884060636773e-01   1.1179144092098138e-01   1.1179132210515626e-01   1.1179095749876358e-01   1.1179128593950101e-01   1.1178945680783375e-01   1.1179007600064089e-01   1.1179046544921997e-01   1.1179139963192444e-01   1.1178938430326565e-01   1.1178864228672873e-01   1.1178821069261981e-01   1.1178901933130121e-01   1.1179155471187624e-01   1.1179224700791708e-01   1.1179109452820223e-01   1.1179098788004839e-01   1.1178762057919443e-01   1.1178803444217028e-01   1.1178833376840340e-01   1.1178932623555217e-01   1.1178908854680665e-01   1.1179002712943602e-01   1.1179002866890078e-01   1.1178996362648719e-01   1.1178900612981944e-01   1.1178968895086336e-01   1.1178847080225758e-01   1.1178995940395701e-01   1.1179129962666864e-01   1.1179129501470257e-01   1.1179136726336662e-01   1.1179237910688521e-01   1.1178692103518376e-01   1.1178664165257807e-01   1.1178578595814130e-01   1.1178702317000451e-01   1.1178604298290547e-01   1.1178628231522060e-01   1.1178653954284007e-01   1.1178741655021025e-01   1.1178423337495992e-01   1.1178449617820628e-01   1.1178371099310605e-01   1.1178502457956968e-01   1.1178840551700579e-01   1.1178772095404367e-01   1.1178696813110098e-01   1.1178800459681196e-01   1.1179005098257196e-01   1.1179267891574135e-01   1.1179140776751224e-01   1.1178794845436379e-01   1.1179206595875527e-01   1.1178994598442998e-01   1.1178706102810568e-01   1.1178970022782274e-01   1.1179067021965955e-01   1.1178942679728127e-01   1.1178857515293390e-01   1.1178810820788827e-01   1.1178622855019024e-01   1.1180203776641154e-01   1.1179826791304590e-01   1.1174217100288367e-01   1.1178549033773635e-01   1.1178022890799368e-01   1.1178637671476239e-01   1.1178270199164431e-01   1.1177863432696554e-01   1.1178222331443437e-01   1.1177845593996695e-01   1.1177890177472086e-01   1.1178639794106325e-01   1.1177791347136978e-01   1.1178648956178314e-01   1.1178224131558442e-01   1.1178424401595606e-01   1.1178084759219840e-01   1.1178453958247539e-01   1.1178528150619238e-01   1.1177699185917861e-01   1.1178217694953210e-01   1.1177710675715852e-01   1.1177787573100377e-01   1.1178449855304100e-01   1.1178040075909917e-01   1.1178583605399853e-01   1.1178484049358321e-01   1.1178079390845956e-01   1.1178780394855624e-01   1.1178099609244257e-01   1.1178355658749459e-01   1.1178070753539067e-01   1.1178592285330506e-01   1.1178293002833825e-01   1.1178279027648978e-01   1.1178659424102456e-01   1.1177582745371689e-01   1.1178592089108669e-01   1.1178140268981501e-01   1.1177560449116533e-01   1.1178339032178228e-01   1.1177296109031302e-01   1.1177712868837075e-01   1.1178848055234560e-01   1.1177014392986244e-01   1.1177261269183753e-01   1.1177037793123379e-01   1.1178651794941227e-01   1.1177745147541479e-01   1.1177571502623121e-01   1.1177858266570766e-01   1.1178696080419445e-01   1.1178519501608128e-01   1.1178746347374305e-01   1.1178846195953666e-01   1.1178615057458624e-01   1.1179080405482149e-01   1.1178707529065751e-01   1.1178822901829595e-01   1.1178933118687412e-01   1.1178418953715810e-01   1.1178165285115325e-01   1.1178438268052232e-01   1.1179173252633445e-01   1.1178943699383985e-01   1.1178693089030783e-01   1.1178908292912497e-01   1.1178857715558779e-01   1.1178503364224558e-01   1.1179400923560734e-01   1.1178550873929276e-01   1.1178328106653825e-01   1.1178897212840300e-01   1.1178560085560220e-01   1.1178480325913345e-01   1.1178835091711861e-01   1.1178556611175920e-01   1.1178826926982802e-01   1.1178837631878846e-01   1.1178861235432476e-01   1.1178565080025456e-01   1.1178847233028152e-01   1.1178809291072916e-01   1.1178590998582062e-01   1.1178731637605874e-01   1.1178591979816661e-01   1.1178579368624052e-01   1.1178615392507942e-01   1.1178589894151329e-01   1.1178632465095187e-01   1.1178743211338217e-01   1.1178538833083373e-01   1.1178442966516436e-01   1.1178445165300452e-01   1.1178544282926954e-01   1.1178599481