<?xml version="1.0"?>
<VTKFile type="UnstructuredGrid"  version="0.1"  >
<UnstructuredGrid>
<Piece  NumberOfPoints="4153" NumberOfCells="8064">
<Points>
<DataArray  type="Float64"  NumberOfComponents="3"  format="ascii">-0.4177982853532611 -0.5674407136875121 0  -0.04711151113254782 -0.6675294844492503 0  -0.09550192653014532 -0.6633500579618272 0  -0.1434146441903849 -0.6563142377960627 0  -0.1907825575832711 -0.6470186853134713 0  -0.2378368715324466 -0.6362810222875651 0  -0.2842479950110101 -0.6219896641443454 0  -0.3297340138636713 -0.6053548106179086 0  -0.3742689686798194 -0.5871118549631784 0  0.001556549415354502 -0.6684743660811926 0  -0.4606293460204018 -0.5484631336758365 0  -0.502933046142312 -0.5296411407135362 0  -0.5447734406268838 -0.5112717913955946 0  -0.586192755831913 -0.4937118193538954 0  -0.62734566722965 -0.4771857233456466 0  -0.6681867306164858 -0.4617396727503747 0  -0.7088291897059457 -0.4481228153106184 0  0.6924019549823861 -0.4664105249596054 0  0.05025089128693605 -0.666133796367384 0  0.0987176897069493 -0.6605607386006109 0  0.1467180238658817 -0.6519748739474218 0  0.1940517061446234 -0.6407158043563974 0  0.2406217206261953 -0.6274631270580414 0  0.2864221568962733 -0.612659394885974 0  0.331467267540566 -0.5967205390707342 0  0.3757876734350695 -0.5801065134397325 0  0.4194822316049671 -0.563203266068519 0  0.4626285220185245 -0.5463228666048471 0  0.50529728909273 -0.5296996433086024 0  0.5475447645007921 -0.5136663823965076 0  0.5894170702931379 -0.4982926245013781 0  0.6309420998837616 -0.4839728527036693 0  0.6722193664555719 -0.4712980257166886 0  0.6515257634926669 -0.4776499353815271 0  -0.6884119707657078 -0.4549860006209735 0  -0.6068104799686905 -0.4853585822594177 0  -0.5239020273651243 -0.5203972378087689 0  -0.4392664312824912 -0.5579303732498108 0  -0.3521197829558709 -0.5963431195081889 0  -0.261152996652026 -0.6294728131747803 0  -0.1671634008048757 -0.6519276119794605 0  -0.07135650096681691 -0.6658259392052082 0  0.6102169674458578 -0.4910461588381151 0  0.1227896038735523 -0.6566238120649084 0  0.2174323155107412 -0.6343101242999536 0  0.3090352660224316 -0.6048169651459798 0  0.397709902989253 -0.571670338448047 0  0.4840168673040843 -0.5379774583348385 0  0.5685299972473967 -0.5058763340737017 0  0.02591614712176782 -0.6677152878500188 0  -0.7286062230702633 -0.442674621386145 0  0.5264582539852978 -0.5215895253369356 0  0.4411192223809501 -0.5547480889330226 0  0.3537079782790351 -0.5884559476373983 0  0.2636178945619613 -0.620231203175835 0  0.1704814177086355 -0.6466418299763592 0  0.07452848789284296 -0.6637414525353122 0  -0.02279573270550873 -0.6684168330751368 0  -0.1195259685563211 -0.6601586269422468 0  -0.2143018507893682 -0.6419887719741612 0  -0.307109392238144 -0.613910031279831 0  -0.396226033738285 -0.577369489324751 0  -0.4818409700532928 -0.5390119987129131 0  -0.5655200083332415 -0.5023312770016111 0  -0.6477941064800635 -0.469393817181916 0  0.8539326942616294 -0.2776906198721681 0  0.755532245314677 -0.4450150103096336 0  0.8090850826676393 -0.4032407889772089 0  0.8437059198361109 -0.3450902960221438 0  0.7242493126007165 -0.4560997036236935 0  0.7830325790095554 -0.4250982430846696 0  0.8252934398551525 -0.3733269295573835 0  0.8481358709509571 -0.3110639196789877 0  0.7085323254466014 -0.4621969311446638 0  0.7398125658000186 -0.4501449905537546 0  0.7693303875704949 -0.4352171777397665 0  0.7956523802491294 -0.413451867545335 0  0.8180942422675794 -0.3887732936370736 0  0.8340485246595392 -0.3590867741674475 0  0.8455297819374766 -0.3279284132011841 0  0.8505987508384688 -0.2942892880931963 0  0.8533354620413772 -0.2558983201731782 0  0.8582595337825033 0.2238157544749936 0  0.8577191140054196 0.180550812324452 0  0.8582478257315712 0.1372194454300615 0  0.8592853485031589 0.09370796710070703 0  0.8605734223372492 0.04991360886966554 0  0.8609301975913819 0.00588703108996616 0  0.8604063732262029 -0.03818879586008213 0  0.8590107692687813 -0.08219354049666783 0  0.8567667343449848 -0.1259401582478015 0  0.8548374716230384 -0.1694064290642719 0  0.8534864397330033 -0.2126852757374292 0  0.859382774895794 0.2455901701022075 0  0.8578109183139123 0.2021800116398698 0  0.8587254307065796 0.1154908310344717 0  0.8608631381452075 0.02791480834889599 0  0.859820662355789 -0.06020808989393346 0  0.8557576875654489 -0.1477024626643415 0  0.8532162897920454 -0.2342918724121003 0  0.8579008364300684 0.1589022457609526 0  0.8599780663083345 0.07186222086483927 0  0.8607745435146195 -0.01615216192608056 0  0.8579184933642983 -0.1041185652172216 0  0.8540723238008566 -0.1910639790059639 0  0.7028358096855881 0.4364485969925687 0  0.8507831452304425 0.313303721203034 0  0.8175921117955706 0.3721954412264797 0  0.7651609658395875 0.4147801737624771 0  0.8545946325705014 0.2791410573787194 0  0.8334115792517456 0.3420887459219199 0  0.7920978221119275 0.3943368012058782 0  0.7342454169795789 0.4260320734922144 0  0.8567089093038723 0.2623008779147634 0  0.8523753530858708 0.2960843669994153 0  0.8417502421610142 0.3275886158942481 0  0.8262212395349772 0.3574941313097888 0  0.8044469008828599 0.3825652053380391 0  0.7786661401368558 0.4046777824468701 0  0.7496276712958536 0.4200514056485628 0  0.7187151710646038 0.4320833883529656 0  -0.03390414533314685 0.6724371658830622 0  0.6424819275968622 0.4554166261954913 0  0.6017027680573263 0.470863230441687 0  0.5605710759108581 0.4874443790076615 0  0.5190866479153164 0.5050238824222696 0  0.4771136226081594 0.523336329704907 0  0.4345907579502232 0.5420574459501649 0  0.391437894003153 0.5609292193863242 0  0.3475660283772911 0.5797596279164176 0  0.3028421165756977 0.5980290038198118 0  0.2572367321058104 0.6153225052659248 0  0.2107150586487602 0.6312215598729143 0  0.163243816266068 0.6453426754664688 0  0.1148709722595817 0.656827061803466 0  0.06576071117320413 0.6653266761149625 0  0.01611250287885237 0.6705175318368429 0  0.6830487104364364 0.4417673700978705 0  -0.0839509401656641 0.6699496550359182 0  -0.1335819690286562 0.6634793231227469 0  -0.1824395992947727 0.6533329515674769 0  -0.2301031383100463 0.6395449212114656 0  -0.2765987644429748 0.6244429024357799 0  -0.3221110289081512 0.6080967940547441 0  -0.3667167757821622 0.5908390303687248 0  -0.4104556611340795 0.5729533995888119 0  -0.4535400398730907 0.555257807247441 0  -0.4960852162200381 0.5377573716130873 0  -0.5381708021967527 0.5206468349815681 0  -0.5798606584959444 0.5041314056827964 0  -0.6211910716390782 0.4884096820769302 0  -0.6622144230954016 0.4738206649401754 0  -0.7030515960510723 0.4609648685305741 0  -0.7230154896317009 0.4560287287315021 0  -0.6825680233671442 0.4674205128007566 0  -0.6005681974056577 0.4961562593109302 0  -0.5171813319519684 0.5291429108089046 0  -0.432069455918482 0.5640968840517289 0  -0.3445218181029448 0.5995567240471601 0  -0.2534786640950819 0.63218235618029 0  -0.1581285448362835 0.6588074049137619 0  -0.05895225313607829 0.6716856201223194 0  0.04099138515922409 0.6683629589917072 0  0.1391607915112262 0.6514232425929195 0  0.234090581732751 0.6234746957701622 0  0.3253099034765192 0.5889961878784388 0  0.4130969734936392 0.5514912633951473 0  0.4981617184749013 0.5141185746671558 0  0.5811844178570311 0.47905076900121 0  0.6626982918373008 0.4486227951168885 0  -0.6417353902439965 0.4810224256088134 0  -0.5590606113650702 0.5123067491942721 0  -0.4748742633138715 0.5464701185921063 0  -0.3886988470304554 0.5819129170597578 0  -0.299472469935525 0.6164045167464249 0  -0.2064835045002783 0.6467764639639533 0  -0.1088415840380926 0.6671910635201962 0  -0.008836544596050227 0.6719744736293053 0  0.0903967106007713 0.6614729341511338 0  0.1871103794524508 0.6385702803883654 0  0.2801522276568199 0.6068243346496822 0  0.3696052980337686 0.5703685305476193 0  0.4559254793603265 0.5326634800384522 0  0.539880627719957 0.4961003585550909 0  0.6221302252376534 0.4630459749771647 0  -0.8825218048127569 0.2675413642574492 0  -0.7857747010765568 0.4350415984151174 0  -0.8388773061194985 0.3931863016957707 0  -0.8729129599087903 0.3348887952944312 0  -0.7546319266463246 0.4459398921527286 0  -0.8130313893280673 0.415016828654207 0  -0.8549581141343631 0.3632951399920983 0  -0.877133654675867 0.3008996056094352 0  -0.7390006354724512 0.4518650746044002 0  -0.7701206921220262 0.4401144944517769 0  -0.7994383221841499 0.42516442935933 0  -0.8255434952974208 0.4033876810285542 0  -0.8477174251643279 0.3786531878042502 0  -0.8635442333309572 0.3489833458291553 0  -0.8746717084538362 0.317751462110092 0  -0.8794810002087621 0.2841483637152502 0  -0.8817393624211219 0.245832140065985 0  -0.8852397550258078 -0.231734731905764 0  -0.8845282843378045 -0.1886364786790971 0  -0.8850045810927176 -0.1455132599861382 0  -0.8860753741803692 -0.1022312356787189 0  -0.8875012146508149 -0.05868076733857339 0  -0.8880613999898765 -0.01488491465970023 0  -0.8877672824063652 0.02896960782057296 0  -0.8866229572651857 0.07276780524027301 0  -0.8846018866011469 0.1163298875240607 0  -0.8828881040011565 0.1596220545553426 0  -0.8817373198440045 0.2027502039038947 0  -0.886322134789201 -0.2534834506941126 0  -0.8846910733097565 -0.2101780835642165 0  -0.8854920686736304 -0.1238984288783919 0  -0.8878911493449358 -0.03679800389965755 0  -0.887302972149926 0.05088364367321142 0  -0.8836986505292883 0.1380016511279868 0  -0.8815469688133551 0.2242861420542652 0  -0.8846751938957996 -0.1670885398777313 0  -0.8868181859155529 -0.08050803600865503 0  -0.8880173856971082 0.007042245476999588 0  -0.8856509775349036 0.09459958761623466 0  -0.8822247952850534 0.18120095304662 0  -0.8773898950812601 -0.3209735309561035 0  -0.8437448252531784 -0.379395253272938 0  -0.7910509735217457 -0.4215595476589204 0  -0.8813066732959951 -0.2869044309390731 0  -0.8596524430454057 -0.3494459513024508 0  -0.8181742780702037 -0.4014869651165999 0  -0.7600829084430044 -0.4326930113283161 0  -0.8834458703499501 -0.2701118477938351 0  -0.87900171606765
[...]
<CellData  Scalars="f_2895"> 
<DataArray  type="Float64"  Name="f_2895"  format="ascii">1.1177105710691279e-01   1.1177167178484411e-01   1.1176887035438021e-01   1.1177032333814854e-01   1.1177124228290006e-01   1.1176884733257728e-01   1.1177243688461336e-01   1.1177271383058107e-01   1.1176723995141037e-01   1.1177133328785983e-01   1.1176598988655219e-01   1.1176724281046883e-01   1.1177113925100145e-01   1.1177385454616212e-01   1.1177011618184460e-01   1.1177164012176873e-01   1.1177164778676509e-01   1.1176615899478570e-01   1.1177274257467737e-01   1.1177244289172586e-01   1.1176799656506532e-01   1.1177385878826669e-01   1.1176994806277539e-01   1.1176891884156506e-01   1.1177473809663975e-01   1.1177081617288809e-01   1.1177426750176701e-01   1.1177534206378872e-01   1.1177383835923077e-01   1.1177120266781125e-01   1.1177482353692586e-01   1.1177478199069156e-01   1.1176518325286663e-01   1.1177253769807038e-01   1.1176419675703765e-01   1.1176539239345688e-01   1.1177309807172911e-01   1.1176660930219404e-01   1.1177274358895196e-01   1.1177415339196756e-01   1.1176749519473708e-01   1.1177668888665226e-01   1.1175640315198425e-01   1.1176258195402902e-01   1.1176917815840630e-01   1.1177404034739949e-01   1.1176373891113871e-01   1.1176557740697922e-01   1.1177224962112829e-01   1.1177540587231893e-01   1.1177203999170375e-01   1.1177258217917123e-01   1.1177601278452581e-01   1.1177407241338681e-01   1.1177510544880155e-01   1.1177626450525001e-01   1.1177235094219302e-01   1.1177463342970854e-01   1.1176712352729433e-01   1.1176850051484415e-01   1.1177393067390341e-01   1.1177489726598473e-01   1.1177017458669639e-01   1.1176930842938472e-01   1.1179711282160347e-01   1.1178580524355931e-01   1.1178772969206940e-01   1.1179591517392609e-01   1.1177921993181059e-01   1.1178348292534117e-01   1.1177342799759116e-01   1.1178073482782808e-01   1.1178692758426141e-01   1.1177641995152221e-01   1.1178348019036319e-01   1.1178362392814745e-01   1.1179425067431188e-01   1.1177532322328179e-01   1.1177901483368888e-01   1.1179256520610797e-01   1.1177289480990492e-01   1.1178123812408179e-01   1.1176692959948507e-01   1.1177076826427403e-01   1.1177523523970101e-01   1.1176291066405572e-01   1.1177354768115810e-01   1.1177956489707983e-01   1.1176057380726723e-01   1.1177514270099251e-01   1.1174480176800718e-01   1.1175548667440036e-01   1.1176627854171774e-01   1.1177401596487146e-01   1.1175686539812013e-01   1.1176825891799612e-01   1.1178042865568068e-01   1.1176918333730472e-01   1.1177601011331846e-01   1.1177803495197119e-01   1.1176790121641331e-01   1.1178010953769207e-01   1.1175810745378068e-01   1.1176519004003230e-01   1.1177503194060197e-01   1.1175625098448724e-01   1.1176256568705760e-01   1.1175785745540419e-01   1.1177712191172028e-01   1.1175131082949305e-01   1.1175448236804580e-01   1.1174970096179564e-01   1.1179125815930804e-01   1.1175831887495338e-01   1.1176609524671981e-01   1.1178821067447296e-01   1.1174642287426378e-01   1.1176565235079121e-01   1.1172561552636041e-01   1.1174958574129079e-01   1.1177316715877340e-01   1.1173563921454926e-01   1.1174354503883757e-01   1.1173886141317177e-01   1.1179316658579833e-01   1.1171210243178778e-01   1.1171771335418322e-01   1.1177554812281014e-01   1.1169844176502530e-01   1.1173455660523253e-01   1.1171684558248432e-01   1.1175326920133188e-01   1.1173937989192825e-01   1.1176483796371210e-01   1.1175750943981316e-01   1.1175348219907820e-01   1.1172056398527641e-01   1.1173937759362673e-01   1.1172513676918661e-01   1.1176575967927285e-01   1.1174759098709167e-01   1.1175513369756893e-01   1.1175948117791407e-01   1.1175339901546981e-01   1.1174250539612211e-01   1.1176902699130181e-01   1.1175968482274870e-01   1.1175801739528018e-01   1.1176316401485421e-01   1.1175872041589889e-01   1.1176392872684818e-01   1.1176020629442865e-01   1.1176036542511419e-01   1.1176672396671553e-01   1.1176274014897671e-01   1.1176233204592809e-01   1.1175825787685566e-01   1.1176347980284074e-01   1.1176187962070354e-01   1.1175904372257857e-01   1.1173054832604286e-01   1.1174560533900203e-01   1.1173624137282885e-01   1.1177141438435947e-01   1.1175002975145762e-01   1.1177424516674277e-01   1.1176321154140434e-01   1.1176169526877038e-01   1.1174128119173107e-01   1.1175203423052656e-01   1.1174655054036481e-01   1.1177435621270258e-01   1.1176603329295878e-01   1.1176124447227763e-01   1.1176623958636392e-01   1.1176657688095072e-01   1.1175652908817277e-01   1.1176198769613448e-01   1.1176535199799746e-01   1.1175969690146258e-01   1.1176457947495702e-01   1.1176773356847325e-01   1.1176659827811898e-01   1.1176493514897201e-01   1.1176597742054815e-01   1.1176415362976540e-01   1.1176607678797898e-01   1.1176623771916194e-01   1.1176231883371912e-01   1.1176615081555170e-01   1.1176802862555758e-01   1.1176656518349111e-01   1.1166613190695220e-01   1.1174917282540253e-01   1.1172146243462361e-01   1.1169404992738353e-01   1.1176478131981862e-01   1.1174362995931753e-01   1.1177040170823600e-01   1.1175786170502260e-01   1.1173711881829210e-01   1.1176666859670030e-01   1.1175652905651766e-01   1.1175045894452694e-01   1.1172032327609653e-01   1.1176622138001956e-01   1.1175922444453569e-01   1.1173978162686674e-01   1.1177066852752510e-01   1.1176226761037214e-01   1.1177511135740840e-01   1.1177147627969709e-01   1.1177300041575140e-01   1.1177805509039465e-01   1.1177282906932476e-01   1.1176437901967552e-01   1.1178140384449287e-01   1.1177987681483645e-01   1.1178509441544765e-01   1.1178304564830953e-01   1.1177650737735934e-01   1.1176953014034635e-01   1.1178134006788887e-01   1.1177255932100674e-01   1.1176891145857112e-01   1.1177473358289704e-01   1.1177758224587717e-01   1.1177042689494077e-01   1.1177852941708560e-01   1.1177730735381963e-01   1.1178130634167248e-01   1.1177862376756358e-01   1.1178441736113062e-01   1.1178210110259222e-01   1.1178587806120763e-01   1.1178025755250307e-01   1.1177944395224064e-01   1.1178353171530878e-01   1.1178205622188657e-01   1.1178201021161562e-01   1.1175365978136073e-01   1.1177818787320863e-01   1.1177702196108613e-01   1.1176400348894021e-01   1.1178569226047340e-01   1.1178331273303725e-01   1.1178845916876379e-01   1.1178311669367814e-01   1.1178004964117623e-01   1.1178641197949833e-01   1.1178256585943429e-01   1.1178247884679288e-01   1.1177273100794539e-01   1.1178621775610101e-01   1.1178492381953881e-01   1.1177680778181133e-01   1.1176540970235035e-01   1.1178897793168849e-01   1.1179834321655571e-01   1.1178654523082718e-01   1.1179489530880438e-01   1.1179275796166313e-01   1.1179393598933889e-01   1.1180465719565409e-01   1.1179411701941457e-01   1.1179440597342380e-01   1.1179337698481144e-01   1.1179348209069305e-01   1.1179639303310152e-01   1.1178351992677650e-01   1.1179311495399717e-01   1.1178561282490768e-01   1.1179272453309010e-01   1.1179302298697798e-01   1.1179239448852078e-01   1.1179354532973480e-01   1.1179230920844657e-01   1.1179297330619999e-01   1.1179177220990132e-01   1.1179232119115823e-01   1.1179181914720634e-01   1.1179181361587123e-01   1.1179157958964075e-01   1.1179269895649395e-01   1.1179449769869293e-01   1.1179276405932338e-01   1.1179370675701171e-01   1.1180116914011508e-01   1.1179183925933163e-01   1.1179079326618388e-01   1.1179009700123471e-01   1.1179221726332034e-01   1.1178837272455994e-01   1.1179096003362811e-01   1.1178844688884668e-01   1.1179055692941164e-01   1.1178749485507483e-01   1.1178508519236431e-01   1.1178681171097246e-01   1.1178994329654100e-01   1.1179148458070712e-01   1.1179020202635188e-01   1.1179089518911929e-01   1.1179174601130432e-01   1.1178783732209133e-01   1.1178470272131069e-01   1.1179142586190421e-01   1.1179230659351683e-01   1.1179308873689425e-01   1.1179020752883057e-01   1.1179325702934728e-01   1.1180135331384568e-01   1.1179149639850919e-01   1.1179274000852976e-01   1.1179201214430506e-01   1.1179141882626620e-01   1.1178388741978387e-01   1.1178884708519961e-01   1.1179310237614512e-01   1.1176755355556268e-01   1.1177635302124229e-01   1.1177551388976695e-01   1.1177561148889882e-01   1.1177457629684115e-01   1.1177656405124807e-01   1.1177544901391681e-01   1.1177620302486521e-01   1.1177585222837290e-01   1.1177589549907965e-01   1.1177741533218702e-01   1.1177690274326384e-01   1.1177603073298949e-01   1.1177537083235224e-01   1.1177511842582728e-01   1.1177564616862111e-01   1.1177513170261186e-01   1.1177876733414178e-01   1.1177725880747136e-01   1.1177879733231784e-01   1.1177730461483543e-01   1.1177764416046583e-01   1.1177708800654206e-01   1.1177643695062962e-01   1.1177654506458883e-01   1.1177925799900805e-01   1.1177913691741144e-01   1.1177732872221936e-01   1.1177710153979538e-01   1.1177590559863293e-01   1.1177567853970867e-01   1.1177518841416453e-01   1.1177439483532831e-01   1.1177837494123932e-01   1.1178048969120123e-01   1.1178002965412938e-01   1.1177867691274609e-01   1.1178298912511418e-01   1.1178180245352069e-01   1.1178194679567902e-01   1.1178115825228020e-01   1.1178324858174517e-01   1.1178383350294022e-01   1.1178128657266158e-01   1.1177922810477475e-01   1.1178056482879727e-01   1.1177978785930173e-01   1.1177754332668229e-01   1.1177554736838753e-01   1.1177482025729067e-01   1.1177313824915430e-01   1.1177514222032524e-01   1.1177385626560540e-01   1.1177469302069652e-01   1.1177597675410286e-01   1.1177144651053801e-01   1.1177219104283337e-01   1.1177759549947769e-01   1.1177453202501231e-01   1.1177335836635746e-01   1.1177093854741690e-01   1.1177387893114267e-01   1.1176734262210551e-01   1.1176818552937122e-01   1.1176625184433642e-01   1.1177044667870482e-01   1.1176813765396804e-01   1.1177797876371327e-01   1.1177190024497211e-01   1.1177228531325019e-01   1.1177789943846826e-01   1.1177305508518250e-01   1.1176923017936055e-01   1.1177902641082164e-01   1.1177476653908935e-01   1.1178104852048135e-01   1.1177877607338017e-01   1.1177233866897557e-01   1.1177046566029419e-01   1.1177784942763881e-01   1.1177278597726659e-01   1.1177726694187719e-01   1.1178050418847907e-01   1.1177719505945519e-01   1.1177508657325647e-01   1.1177987830439853e-01   1.1177532484762527e-01   1.1177803778497374e-01   1.1177847113543241e-01   1.1177707921806440e-01   1.1177920979475477e-01   1.1177671025656725e-01   1.1177550231163380e-01   1.1177368524175396e-01   1.1177768694447683e-01   1.1177421795058821e-01   1.1177148228980588e-01   1.1178267285154529e-01   1.1177947665252076e-01   1.1178411345560457e-01   1.1178185760763087e-01   1.1178126049651646e-01   1.1178312099427827e-01   1.1178040603274582e-01   1.1177909057220954e-01   1.1178577698190995e-01   1.1178372990678810e-01   1.1178553202757174e-01   1.1178421509553761e-01   1.1178103217909414e-01   1.1177847732518849e-01   1.1178158631358702e-01   1.1177959912886448e-01   1.1177308086364009e-01   1.1177229775166227e-01   1.1177741495795750e-01   1.1177340555465667e-01   1.1177462980306997e-01   1.1177728505806069e-01   1.1177493835331224e-01   1.1177336607899756e-01   1.1177759948091189e-01   1.1177540490653698e-01   1.1177794801572660e-01   1.1177656455986704e-01   1.1177311861206754e-01   1.1177285613600368e-01   1.1177632684605078e-01   1.1177518459482762e-01   1.1178190921652523e-01   1.1178684482655728e-01   1.1178017746938214e-01   1.1177926317889343e-01   1.1178568859900777e-01   1.1177839345586879e-01   1.1178541562200264e-01   1.1178722085504635e-01   1.1177692041598278e-01   1.1178392893638354e-01   1.1177512019538252e-01   1.1177458351697829e-01   1.1178127729901105e-01   1.1178785461112500e-01   1.1177981144473682e-01   1.1178211713574857e-01   1.1178183956542909e-01   1.1177151211423428e-01   1.1178045456361113e-01   1.1178293628601824e-01   1.1177424669025560e-01   1.1178360387066952e-01   1.1177741401054193e-01   1.1177674031263418e-01   1.1178128335647027e-01   1.1177523456287958e-01   1.1178106583902926e-01   1.1178359340818876e-01   1.1178600394103787e-01   1.1178024418787602e-01   1.1178596396290139e-01   1.1178814246643658e-01   1.1177360098972408e-01   1.1178019284569760e-01   1.1177212805287912e-01   1.1176896043994058e-01   1.1177690977998921e-01   1.1176675006440455e-01   1.1177530920447171e-01   1.1177829741757363e-01   1.1177374353570727e-01   1.1177963116983906e-01   1.1176779298134375e-01   1.1176622597571818e-01   1.1177234055361736e-01   1.1177901984596023e-01   1.1177048483559857e-01   1.1177290627053217e-01   1.1178298037757924e-01   1.1178818713319590e-01   1.1178062073094421e-01   1.1178354205735276e-01   1.1178580171813866e-01   1.1178082847420030e-01   1.1178501275611653e-01   1.1178790151778042e-01   1.1177828906094811e-01   1.1178320080950330e-01   1.1177558080838064e-01   1.1177806209856606e-01   1.1178418697284480e-01   1.1178752800157571e-01   1.1178022629137875e-01   1.1178285369790378e-01   1.1166364400014031e-01   1.1169542650784899e-01   1.1170071853882221e-01   1.1173446366940758e-01   1.1172299930673998e-01   1.1177323979159000e-01   1.1174558268597773e-01   1.1172466556251785e-01   1.1170774009716228e-01   1.1172952907406596e-01   1.1171815999149493e-01   1.1176897046701552e-01   1.1173185614184800e-01   1.1173394519670100e-01   1.1176817258457820e-01   1.1174707880874185e-01   1.1173833210501490e-01   1.1177244874161558e-01   1.1175608666434027e-01   1.1175036639054257e-01   1.1176859705614334e-01   1.1175425933143081e-01   1.1177339368762991e-01   1.1176542248868743e-01   1.1175955030352695e-01   1.1177684758721990e-01   1.1176388447861085e-01   1.1176192195798702e-01   1.1175048931075132e-01   1.1177643641724090e-01   1.1175897899596199e-01   1.1174547797926011e-01   1.1172609385209099e-01   1.1174462348919567e-01   1.1173262752808988e-01   1.1177378112784829e-01   1.1175095917113817e-01   1.1177706205891078e-01   1.1176219248167153e-01   1.1176092768854734e-01   1.1173928984931217e-01   1.1175097702320411e-01   1.1173906239073986e-01   1.1176974828222191e-01   1.1177178597556228e-01   1.1176106561977095e-01   1.1176640961687456e-01   1.1177216526019003e-01   1.1175559097848542e-01   1.1175513681637794e-01   1.1178030455325273e-01   1.1176367614935448e-01   1.1176601401130092e-01   1.1178487562202703e-01   1.1177151617207549e-01   1.1176404748860956e-01   1.1177854221199357e-01   1.1176659620613738e-01   1.1177600282943170e-01   1.1177936852899356e-01   1.1176986709278315e-01   1.1176893140013523e-01   1.1178549334313251e-01   1.1178015375445584e-01   1.1178247506243442e-01   1.1178226149821426e-01   1.1177571547763496e-01   1.1177834790655124e-01   1.1177614700229876e-01   1.1176934806216386e-01   1.1176840977207633e-01   1.1177655489887731e-01   1.1176807830616069e-01   1.1176891571897224e-01   1.1175681460237410e-01   1.1175952408640839e-01   1.1177405176001493e-01   1.1176925591060882e-01   1.1176327669165166e-01   1.1176901400950114e-01   1.1175875450070945e-01   1.1174524281464505e-01   1.1174211451546928e-01   1.1175797094373507e-01   1.1173286501490234e-01   1.1174184091024336e-01   1.1174209620789964e-01   1.1175176561359865e-01   1.1171890152284929e-01   1.1172848882027069e-01   1.1167194048098207e-01   1.1171973647178993e-01   1.1175791329444329e-01   1.1175704044140135e-01   1.1174210009158479e-01   1.1175892974982207e-01   1.1174043194687233e-01   1.1174344736349537e-01   1.1171478840015367e-01   1.1172238764025560e-01   1.1172354217359216e-01   1.1169164916373055e-01   1.1167607749958083e-01   1.1171944404300774e-01   1.1167024851517744e-01   1.1168159878478838e-01   1.1160420353987099e-01   1.1161995671543438e-01   1.1171163401499687e-01   1.1167116034390209e-01   1.1165151701451376e-01   1.1167759924733554e-01   1.1176433641661015e-01   1.1174410608174727e-01   1.1174967228932185e-01   1.1175804922087762e-01   1.1172209993503936e-01   1.1175195851975887e-01   1.1168421354923982e-01   1.1172597558303145e-01   1.1174209471705505e-01   1.1167688178171971e-01   1.1169763663739637e-01   1.1171199763871477e-01   1.1176147581611000e-01   1.1169514276235655e-01   1.1172252305990933e-01   1.1172836932411893e-01   1.1179353988927584e-01   1.1179207160767007e-01   1.1179436819170993e-01   1.1179358793764581e-01   1.1178982854598801e-01   1.1179165485970469e-01   1.1179147886360125e-01   1.1179210767887164e-01   1.1179265319150115e-01   1.1178962981955541e-01   1.1179138631543641e-01   1.1179092646177029e-01   1.1179568871771320e-01   1.1179450848774126e-01   1.1179410313327723e-01   1.1179648448291593e-01   1.1178888149152599e-01   1.1178979730508946e-01   1.1179019992966019e-01   1.1179082441335851e-01   1.1179212890246344e-01   1.1179281464065348e-01   1.1179412562915297e-01   1.1179319959276751e-01   1.1179200454084383e-01   1.1179305675592981e-01   1.1179300862165940e-01   1.1179382635679337e-01   1.1179355196945739e-01   1.1179505063675101e-01   1.1179481379376958e-01   1.1179591000078949e-01   1.1178981053915288e-01   1.1178819287556870e-01   1.1178835341555270e-01   1.1178869605698188e-01   1.1178773965086677e-01   1.1178742732725237e-01   1.1178934200657029e-01   1.1178948594467253e-01   1.1178599617734851e-01   1.1178677233574418e-01   1.1178620287440415e-01   1.1178730775196986e-01   1.1179091164544967e-01   1.1179146481899861e-01   1.1179058974015382e-01   1.1179248052487462e-01   1.1179709741970605e-01   1.1179703873195355e-01   1.1179592888788613e-01   1.1179710953339950e-01   1.1179584787942645e-01   1.1179620903273257e-01   1.1179460268878717e-01   1.1179725406900876e-01   1.1179508848508382e-01   1.1179452401580280e-01   1.1179407183501390e-01   1.1179477624165944e-01   1.1179534695051274e-01   1.1180024464934722e-01   1.1179954614257673e-01   1.1178853952136029e-01   1.1178035450721804e-01   1.1177673582878349e-01   1.1178056920854638e-01   1.1177713784706148e-01   1.1177502273976404e-01   1.1177602536538117e-01   1.1177412498469391e-01   1.1177467921480722e-01   1.1178083445482534e-01   1.1177453573097133e-01   1.1178103374510145e-01   1.1177648168466199e-01   1.1177825341397896e-01   1.1177589707604484e-01   1.1177794414061502e-01   1.1177899674153216e-01   1.1177381454567802e-01   1.1177674237809276e-01   1.1177315579842102e-01   1.1177378021581202e-01   1.1177883755566297e-01   1.1177547897424382e-01   1.1177966279141036e-01   1.1177882319043524e-01   1.1177611311441242e-01   1.1178251952120026e-01   1.1177529467709148e-01   1.1177804435748316e-01   1.1177557772480372e-01   1.1177909250144989e-01   1.1177702058768266e-01   1.1177706542920256e-01   1.1178138951945372e-01   1.1177283407608857e-01   1.1178101149089717e-01   1.1177634537227045e-01   1.1177284082613050e-01   1.1177898429917370e-01   1.1176927864924505e-01   1.1177337772180408e-01   1.1178408796340092e-01   1.1176727806166038e-01   1.1176838640910960e-01   1.1176604532406664e-01   1.1178163783057461e-01   1.1177259130567241e-01   1.1177071692129495e-01   1.1177277439298439e-01   1.1178047785902787e-01   1.1177875168833015e-01   1.1178041637657811e-01   1.1178177494631444e-01   1.1177973691960655e-01   1.1178424233307648e-01   1.1177977623685161e-01   1.1178138859797325e-01   1.1178356177079327e-01   1.1177765949232780e-01   1.1177507155010288e-01   1.1177711045676257e-01   1.1178567370759765e-01   1.1178156246973582e-01   1.1177847639623006e-01   1.1178137439931836e-01   1.1178954828279462e-01   1.1179336337214510e-01   1.1179572881154456e-01   1.1179121978848278e-01   1.1179114122658113e-01   1.1179250620228381e-01   1.1179224785820058e-01   1.1179243686640999e-01   1.1179187554955487e-01   1.1179181595274111e-01   1.1179104730565706e-01   1.1179147560077811e-01   1.1179233142379276e-01   1.1179253058540059e-01   1.1179159138640236e-01   1.1179155930349220e-01   1.1179127987534372e-01   1.1178986085865673e-01   1.1179063310060679e-01   1.1179150684994535e-01   1.1178781737370738e-01   1.1179077665581344e-01   1.1178809688180283e-01   1.1178992330101443e-01   1.1178934897070082e-01   1.1178524903966441e-01   1.1178753301703241e-01   1.1178953379082927e-01   1.1179181727