<?xml version="1.0"?>
<VTKFile type="UnstructuredGrid"  version="0.1"  >
<UnstructuredGrid>
<Piece  NumberOfPoints="4153" NumberOfCells="8064">
<Points>
<DataArray  type="Float64"  NumberOfComponents="3"  format="ascii">-0.4000267510135876 -0.4683509249414478 0  -0.02489553171903797 -0.5143312028561868 0  -0.07210143565567786 -0.510939335880482 0  -0.1191556791796909 -0.5067080387807095 0  -0.1660928280177858 -0.5019919213546844 0  -0.213053585759912 -0.4969941059317694 0  -0.2599910187702784 -0.49079290266626 0  -0.3068186207182523 -0.4838299294899939 0  -0.3535212760842228 -0.4763146075442318 0  0.02245480734975059 -0.5165714726412085 0  -0.4464458735737278 -0.4607709315166021 0  -0.4927708810513136 -0.4531280976152341 0  -0.5389905030085207 -0.4455719137930071 0  -0.5850853189929591 -0.4383901741327975 0  -0.6310779260035346 -0.4315354774510226 0  -0.6769125101757593 -0.4251494728586384 0  -0.7225731612091773 -0.419366857688568 0  0.7474734135714893 -0.4347561816802683 0  0.06992021521929673 -0.5174527615399058 0  0.1174544316216429 -0.5168129107902869 0  0.1649939479803425 -0.5145911234484638 0  0.2124639036422762 -0.5108607275637316 0  0.2598169984112342 -0.5059245643808169 0  0.3070328610832123 -0.4999773488727846 0  0.3540917066981454 -0.4932282781443356 0  0.4009782052563098 -0.4859773885287926 0  0.4477024327115016 -0.4784135815260454 0  0.4942706575176338 -0.4707402941734457 0  0.540685709239653 -0.4631061673765635 0  0.5869497661348763 -0.4557340985028803 0  0.6330557170774659 -0.448670889954926 0  0.6789929443021226 -0.4421841358510717 0  0.7247588892437955 -0.436425035579813 0  0.7018825343488015 -0.4392822872315416 0  -0.6997418819932454 -0.4223127628868049 0  -0.6080993517677845 -0.4349219343862344 0  -0.5158939492648069 -0.4493413015110118 0  -0.4232499088307879 -0.4646116156595412 0  -0.3301855526932263 -0.4801338317624415 0  -0.2365329704646995 -0.4939955309384377 0  -0.1426346244870663 -0.5043880690736771 0  -0.04851799968359089 -0.5127614617115217 0  0.6560456816133751 -0.4453440025374141 0  0.1412278303129454 -0.5158992560506905 0  0.236156135668609 -0.5085321684676845 0  0.3305825585849351 -0.4966937220871893 0  0.4243600799410056 -0.482217296540138 0  0.5174970769943974 -0.4669127998707596 0  0.6100229106046803 -0.452137257173197 0  0.04617541751256012 -0.5171934938696955 0  -0.7451738244617453 -0.4177616463390372 0  0.5638314518139008 -0.4593865950839373 0  0.4710057469195406 -0.4745811759800871 0  0.3775531694496178 -0.4896465863847054 0  0.2834434756803216 -0.5030646164672614 0  0.1887431832081163 -0.5128952293042963 0  0.09368244852886658 -0.5173295262331471 0  -0.001236698200461067 -0.5156110393783051 0  -0.09564639328073113 -0.5089073385543402 0  -0.1895508414385983 -0.4996166100589632 0  -0.2834198102952649 -0.4873906107306277 0  -0.3768181456726383 -0.4722657430644185 0  -0.4696208414335676 -0.4569482608335264 0  -0.5620462939709095 -0.4419100676294767 0  -0.6540161563457998 -0.428274821091396 0  0.9290397214165945 -0.2430055164103125 0  0.8174567711918808 -0.4173682716053536 0  0.8769520953471831 -0.3755966834361334 0  0.9160575759310043 -0.3145138877333795 0  0.782554792830676 -0.4261316040219911 0  0.8475725473085576 -0.3969903695037856 0  0.895948088482879 -0.3446488889472092 0  0.9222063135415386 -0.2785927917256975 0  0.765090638457368 -0.4308444245200934 0  0.7999509279035204 -0.4215597303795706 0  0.8325256598053308 -0.4072852795802435 0  0.8619396018941023 -0.3857928595584892 0  0.8867835323459097 -0.3602887006210565 0  0.9058161148270192 -0.3295349813220361 0  0.9189693247953495 -0.2964812810980966 0  0.925429573321719 -0.2607646984160327 0  0.9288793973338849 -0.2197801759818802 0  0.9374125026182544 0.2916571758559748 0  0.9363628114491698 0.245301768741502 0  0.9360408386323621 0.198964722145829 0  0.9361064795909552 0.152554327771717 0  0.9363825887326036 0.1059943268609764 0  0.9361473156823943 0.05930161619557662 0  0.9353987983226012 0.01257107045416659 0  0.9341347807193914 -0.03413719794683395 0  0.93234816097303 -0.08072421498496173 0  0.9307333202777073 -0.1271585935997486 0  0.9294649203001821 -0.1734919696390529 0  0.9383576428704017 0.314969351249654 0  0.9367649347730833 0.2684693473081307 0  0.9360387755956414 0.1757727076393729 0  0.9363306274847347 0.08265671381074596 0  0.9348328282740127 -0.0107900807447871 0  0.931510970187058 -0.1039563451849523 0  0.9290574982591943 -0.1966366532588085 0  0.9361430537523484 0.2221378103779896 0  0.93626594092063 0.1293025749740393 0  0.9358354017899144 0.0359373795993897 0  0.9332663088720774 -0.05745798708363965 0  0.9300445249806726 -0.1503352501208719 0  0.7637580466271738 0.512236999527462 0  0.9276242399519173 0.3870474004787325 0  0.8904337413799661 0.4492295837020517 0  0.8325537230984673 0.4927791907944873 0  0.9326840324272192 0.3507877406106061 0  0.9085085305457241 0.4176770944841725 0  0.8619815985958336 0.4715658950831499 0  0.7983019382207361 0.5027006799946619 0  0.935309754040663 0.3328267943118745 0  0.9300047009689919 0.3688330290426143 0  0.9178767492922507 0.4022970391732942 0  0.899845106674408 0.4336285981597387 0  0.8758754490358055 0.4598402728319416 0  0.8472878931597648 0.4822759286493947 0  0.8153871372316547 0.4975620411260446 0  0.781117139075988 0.5079476516016538 0  -0.01906463758849454 0.6501655771471473 0  0.6962367682949927 0.5234963455287833 0  0.6507576811696545 0.5329340134139364 0  0.6049947209676886 0.5431990647545428 0  0.5589658810295186 0.5541494252257902 0  0.5126242689415752 0.5656767133925937 0  0.4659591958558145 0.5774838544943802 0  0.4189516915878801 0.5893629583543992 0  0.3715816905280951 0.6011393239910869 0  0.3238076687776162 0.6124306570619948 0  0.275652285589591 0.6228483753703116 0  0.2271344975793758 0.6320853764385632 0  0.1782735860614877 0.6399031703418657 0  0.1291254787331826 0.6457061507751228 0  0.07979993814254308 0.649348274539989 0  0.03039027484228789 0.6507771371846024 0  0.7414370847525908 0.5150248379317102 0  -0.06844952355339431 0.6468522183133181 0  -0.1176007185362836 0.6412728725196745 0  -0.1664247779290896 0.6337707087330562 0  -0.2147929869375003 0.6245678393543067 0  -0.2627275261432312 0.6150897234747642 0  -0.3103374141576288 0.6053025078786146 0  -0.3576610817625435 0.5953168564160612 0  -0.4047022425432406 0.5852703965231881 0  -0.451517504117865 0.5754683169835537 0  -0.4981275499918316 0.5658549995194347 0  -0.5445381704533785 0.5565116760251339 0  -0.5907469699791537 0.5475354373160404 0  -0.6367383034665871 0.5390518381709706 0  -0.6824995700379438 0.5312635156215744 0  -0.7280252844457028 0.5242833960964804 0  -0.7505491077919435 0.5221587332256437 0  -0.7052722770205775 0.5277788683656505 0  -0.6137702755409949 0.5432162768447019 0  -0.5213578689943322 0.5611441273319985 0  -0.428136922828863 0.5803573269506679 0  -0.3340332331181589 0.6003305316894975 0  -0.2388054522562 0.6198885506492168 0  -0.1420594695510631 0.6377326674534967 0  -0.04377837690966167 0.6488047350853507 0  0.05510112103726771 0.6503450057829159 0  0.1537280584743836 0.6430633542169724 0  0.2514374583356564 0.6276386600958759 0  0.3477427984627821 0.6068802388878045 0  0.4424998384051472 0.5834320290583721 0  0.5358338709999405 0.5598717602940173 0  0.6279115510237455 0.537982756157347 0  0.7188482019886637 0.5192716227154391 0  -0.6596481508574847 0.5350609727342057 0  -0.5676678409307393 0.5519744444238084 0  -0.4748475962734892 0.5706334701259266 0  -0.381219048303529 0.5902615949312844 0  -0.2865701650572232 0.6102281043842056 0  -0.1906927576852082 0.6292792474995665 0  -0.09306078263141868 0.6443230796285505 0  0.005681806081582471 0.6507741358443127 0  0.1044788513563795 0.6478042577885852 0  0.2027521905298465 0.6362076110745347 0  0.2997766894675624 0.6177678608430026 0  0.3953160286925311 0.5952685498967971 0  0.4893332854219827 0.5715581414022882 0  0.5820144230667386 0.5485725622231324 0  0.6735322521410794 0.5281017256809331 0  -0.9288951703503026 0.328493874138311 0  -0.82003547940115 0.5040972804862089 0  -0.8788555489205605 0.461667393297595 0  -0.917077654467091 0.4001805407476149 0  -0.785417863203274 0.5133106427137389 0  -0.849903226381806 0.4834731345287285 0  -0.8973862012737267 0.4304640299795364 0  -0.9226440314622658 0.3641294747990131 0  -0.7680692158505275 0.5182130355256749 0  -0.8026788583026787 0.5085291785417759 0  -0.8349858005199964 0.4939040520218449 0  -0.864036664816788 0.4720191321558975 0  -0.8885023909447415 0.4462531830002648 0  -0.9070346799130854 0.4152676750838741 0  -0.9197029814662704 0.3820746964839772 0  -0.9255410175836776 0.3462633059984059 0  -0.9282855987167925 0.3052599711853228 0  -0.9259739939796477 -0.204416280772205 0  -0.9260952164935362 -0.1582325989661174 0  -0.9268647217640571 -0.1120390532457917 0  -0.9279695851842916 -0.06577030487849314 0  -0.929266895169696 -0.01935912045914258 0  -0.9299894923164764 0.02717318735421385 0  -0.9301574515659026 0.07372633885528769 0  -0.9297809654029557 0.1202440329586671 0  -0.9288655860772993 0.1666318278602752 0  -0.9281733287324964 0.2128764505401355 0  -0.927868927464936 0.2590577104172723 0  -0.9263414396110337 -0.2276089646205455 0  -0.9259244852992833 -0.1813200485121021 0  -0.9273873888967317 -0.08891713213111274 0  -0.9296998090869126 0.003900383264254161 0  -0.9300387539217484 0.09699343922079263 0  -0.928483752703372 0.1897660237013269 0  -0.9279532213859684 0.2821497645471381 0  -0.9264285210000071 -0.1351419468117376 0  -0.9286441826540602 -0.04259297286463303 0  -0.9301398877190299 0.05045073245921901 0  -0.9293451185546138 0.1434661839502452 0  -0.9279633263314697 0.2359705721500562 0  -0.9137362210299926 -0.2990525497282472 0  -0.8746752619289807 -0.3599461672836578 0  -0.8151597027587455 -0.4013600047700453 0  -0.9197679881193563 -0.2631698338468149 0  -0.8937161956326398 -0.3291455110177107 0  -0.8453503908877003 -0.3812782532383078 0  -0.7802646968357114 -0.409845823027258 0  -0.9228759675774106 -0.245354441480155 0  -0.916605492645556 -0.
[...]
<CellData  Scalars="f_2329"> 
<DataArray  type="Float64"  Name="f_2329"  format="ascii">1.1176843791134008e-01   1.1176701686767318e-01   1.1176583295373121e-01   1.1176788226041996e-01   1.1176613331108139e-01   1.1176620212626451e-01   1.1176686486265722e-01   1.1176792832100924e-01   1.1176455003606386e-01   1.1176552909005884e-01   1.1176334426324555e-01   1.1176468973027905e-01   1.1176848187248266e-01   1.1176849463326405e-01   1.1176692701885561e-01   1.1176877244966772e-01   1.1176512448213824e-01   1.1176339761053561e-01   1.1176571609410083e-01   1.1176620306199138e-01   1.1176431253314988e-01   1.1176692691970916e-01   1.1176603132375115e-01   1.1176564334355768e-01   1.1176699035201303e-01   1.1176625081357644e-01   1.1176581219628236e-01   1.1176778400789737e-01   1.1176762849029975e-01   1.1176755214600509e-01   1.1176803964063828e-01   1.1176894231075990e-01   1.1176247964347256e-01   1.1176530042766349e-01   1.1176120149870142e-01   1.1176220834623807e-01   1.1176512514817734e-01   1.1176260356423798e-01   1.1176413424445350e-01   1.1176633825319995e-01   1.1176389715248154e-01   1.1176820214191339e-01   1.1175252723337056e-01   1.1175755256479110e-01   1.1176483017697239e-01   1.1176547792959948e-01   1.1175855336645574e-01   1.1176018337894361e-01   1.1176905199274582e-01   1.1176904874891254e-01   1.1176782942312194e-01   1.1176900878197624e-01   1.1176864039596283e-01   1.1176928405394131e-01   1.1176708450504139e-01   1.1176946135983548e-01   1.1176769870694246e-01   1.1176636752747053e-01   1.1176157752734477e-01   1.1176293179502987e-01   1.1176982483770510e-01   1.1176726027704051e-01   1.1176448219237294e-01   1.1176420323534540e-01   1.1178795024672435e-01   1.1177584800244696e-01   1.1177187116271196e-01   1.1179420642451787e-01   1.1176771973451430e-01   1.1177580815553463e-01   1.1176537948175168e-01   1.1177368485202129e-01   1.1177115987020322e-01   1.1176553085929304e-01   1.1176651703507129e-01   1.1177645519926391e-01   1.1179070977938917e-01   1.1176865895929211e-01   1.1176966767925464e-01   1.1178923814891777e-01   1.1176269903697536e-01   1.1177346885906676e-01   1.1176124136600442e-01   1.1176404163398880e-01   1.1176557880643240e-01   1.1175752559409542e-01   1.1176513405578230e-01   1.1177075144121740e-01   1.1175714052282766e-01   1.1176751088040773e-01   1.1174252662629057e-01   1.1175350444575619e-01   1.1175916888859090e-01   1.1176521994386227e-01   1.1175213033383796e-01   1.1176310916000376e-01   1.1176307587157179e-01   1.1175992183146667e-01   1.1175828527918120e-01   1.1176989158987424e-01   1.1176019971357183e-01   1.1177338880538790e-01   1.1175303594920628e-01   1.1176129161840793e-01   1.1175934303189949e-01   1.1174790502847709e-01   1.1173937497455831e-01   1.1174457131477425e-01   1.1176880257204372e-01   1.1174717158580119e-01   1.1173956390997596e-01   1.1173583216548828e-01   1.1178723888278559e-01   1.1175560359006653e-01   1.1175724376381127e-01   1.1178261611993495e-01   1.1174576835450971e-01   1.1175785399706541e-01   1.1172798341788523e-01   1.1175056277589426e-01   1.1176596167159200e-01   1.1173578539379087e-01   1.1173022188218221e-01   1.1172625104958862e-01   1.1178646972986089e-01   1.1172000563335938e-01   1.1170675271788093e-01   1.1175882987265248e-01   1.1171421417219464e-01   1.1174148765143307e-01   1.1172558902506964e-01   1.1175395210465337e-01   1.1174440131960299e-01   1.1176043969220249e-01   1.1175718872144356e-01   1.1175441161029130e-01   1.1172746001465401e-01   1.1174403967414508e-01   1.1172925670026675e-01   1.1176121218852599e-01   1.1174941261194944e-01   1.1175569948126589e-01   1.1175655206130389e-01   1.1175389152857231e-01   1.1174568958922466e-01   1.1176342036632129e-01   1.1175870952989647e-01   1.1175764435274825e-01   1.1175863204018735e-01   1.1175798516639932e-01   1.1176015975318294e-01   1.1175691574578493e-01   1.1175895697629579e-01   1.1176180629636645e-01   1.1176089382813774e-01   1.1176073517482345e-01   1.1175769271816310e-01   1.1175997807361408e-01   1.1176047109579380e-01   1.1175859795710064e-01   1.1173174015523381e-01   1.1174704355712968e-01   1.1173469025076989e-01   1.1176506818322847e-01   1.1174979419683767e-01   1.1176725251978220e-01   1.1176061493797805e-01   1.1175987128743080e-01   1.1173657446712619e-01   1.1174906846563495e-01   1.1173907314995038e-01   1.1176689414544187e-01   1.1176040322274940e-01   1.1175925694955391e-01   1.1176001372829940e-01   1.1176143337253158e-01   1.1175619224611173e-01   1.1176080203839261e-01   1.1176163743708367e-01   1.1175864002629540e-01   1.1176251099952120e-01   1.1176368009299319e-01   1.1176432764423797e-01   1.1176308352578450e-01   1.1176186002382071e-01   1.1176224993548993e-01   1.1176178756384167e-01   1.1176271109395740e-01   1.1176054649057872e-01   1.1176407560395890e-01   1.1176456012453843e-01   1.1176486697806363e-01   1.1167980840503379e-01   1.1174302062066697e-01   1.1171711251668032e-01   1.1170134935238715e-01   1.1175851285192887e-01   1.1173999515317336e-01   1.1176713100891265e-01   1.1175331344033557e-01   1.1172436930673364e-01   1.1176232352163418e-01   1.1173913499537505e-01   1.1174210578486764e-01   1.1171624675405060e-01   1.1176085325539925e-01   1.1175091434645561e-01   1.1173108096404365e-01   1.1176756455630285e-01   1.1175165865712518e-01   1.1177315046927835e-01   1.1176914356439861e-01   1.1176201658994142e-01   1.1177471856711417e-01   1.1176252833275287e-01   1.1175361939449910e-01   1.1177897744625859e-01   1.1177113919088337e-01   1.1178170762797744e-01   1.1177973733559202e-01   1.1177251264312069e-01   1.1176059296371442e-01   1.1177719753022169e-01   1.1176676186395308e-01   1.1175119818224688e-01   1.1177211588591009e-01   1.1176199499658329e-01   1.1175941149434357e-01   1.1177642933479759e-01   1.1176831645806232e-01   1.1177913418216054e-01   1.1177702191834951e-01   1.1177301131184976e-01   1.1177916686254810e-01   1.1177635321759241e-01   1.1177030246452001e-01   1.1177028888288104e-01   1.1178076123476764e-01   1.1177191496561657e-01   1.1177162179356857e-01   1.1174243219419118e-01   1.1177195732636394e-01   1.1176785856954316e-01   1.1175138185377724e-01   1.1178161471707904e-01   1.1177517368813324e-01   1.1178313622840347e-01   1.1177647124920662e-01   1.1177116273188881e-01   1.1178205316251366e-01   1.1177186938685546e-01   1.1177112279983124e-01   1.1176083404477342e-01   1.1177927093743888e-01   1.1177409740542354e-01   1.1176048157675832e-01   1.1179414056013184e-01   1.1179690753938025e-01   1.1179788760547811e-01   1.1179467365979501e-01   1.1179909451965826e-01   1.1179973218962852e-01   1.1179843394329847e-01   1.1180124798219658e-01   1.1179507647622788e-01   1.1179628961231507e-01   1.1179314381560765e-01   1.1179780356057561e-01   1.1179953555610422e-01   1.1179660746456671e-01   1.1179921700648779e-01   1.1179754606744319e-01   1.1179379741717792e-01   1.1179644086237625e-01   1.1179439404382874e-01   1.1179665290729716e-01   1.1179597298841282e-01   1.1179593428544399e-01   1.1179753923709715e-01   1.1179733843146303e-01   1.1179359031030890e-01   1.1179616590511070e-01   1.1179333603950019e-01   1.1179553579879530e-01   1.1179804287253076e-01   1.1179930758099875e-01   1.1179766923209623e-01   1.1180042295734920e-01   1.1179040714929359e-01   1.1179072892171647e-01   1.1178733317412955e-01   1.1179456118588763e-01   1.1178722974703750e-01   1.1179205764895271e-01   1.1178819153374212e-01   1.1179143367581834e-01   1.1178256620840628e-01   1.1178240404434804e-01   1.1178077349193652e-01   1.1179014830730712e-01   1.1179389602427829e-01   1.1179085109376795e-01   1.1179233601154770e-01   1.1179513664383220e-01   1.1179746264104568e-01   1.1179547363159960e-01   1.1179876189872472e-01   1.1180022738399019e-01   1.1179683932622587e-01   1.1179812056950893e-01   1.1179691433115188e-01   1.1180124466842252e-01   1.1179747036876762e-01   1.1179532736550252e-01   1.1179683042965922e-01   1.1179776872813763e-01   1.1179509518705180e-01   1.1179544996126640e-01   1.1179931259241971e-01   1.1178992050206217e-01   1.1177308767192212e-01   1.1177029755576028e-01   1.1177192512039029e-01   1.1177068233857135e-01   1.1177070809768178e-01   1.1177105692974711e-01   1.1176955806846488e-01   1.1176995280563963e-01   1.1177172973048516e-01   1.1177087679841717e-01   1.1177215161966125e-01   1.1177101633812354e-01   1.1177094465297369e-01   1.1176845315845309e-01   1.1177059263969986e-01   1.1177004922003321e-01   1.1177150393774332e-01   1.1177152264602500e-01   1.1177053961208713e-01   1.1176987963965151e-01   1.1177097451233881e-01   1.1176872033837072e-01   1.1176972677155296e-01   1.1177077944957317e-01   1.1177013982244456e-01   1.1177188745103417e-01   1.1176652775227679e-01   1.1176783622163544e-01   1.1176842686855334e-01   1.1176988601103892e-01   1.1176674102089240e-01   1.1176689370978876e-01   1.1177294574852720e-01   1.1177246884474347e-01   1.1177376656214877e-01   1.1177204772784380e-01   1.1177436933409959e-01   1.1177464883042425e-01   1.1177170463544224e-01   1.1177221739484627e-01   1.1177651985259943e-01   1.1177404824719099e-01   1.1177218199858355e-01   1.1176952999849045e-01   1.1177336386286446e-01   1.1176925849263326e-01   1.1176767113594302e-01   1.1176548775459488e-01   1.1176905341653455e-01   1.1176465540061827e-01   1.1176843923819177e-01   1.1176724461781765e-01   1.1176532270509960e-01   1.1176882695440832e-01   1.1176024838287534e-01   1.1176283077343037e-01   1.1177036841676284e-01   1.1176350225859687e-01   1.1176317077179812e-01   1.1176067496009194e-01   1.1176683263459755e-01   1.1175591320362246e-01   1.1175786564918165e-01   1.1175614013985077e-01   1.1176785736093053e-01   1.1176787533941279e-01   1.1177404102934385e-01   1.1176884759093243e-01   1.1177075220492402e-01   1.1177367308730149e-01   1.1177096796365825e-01   1.1176820545196693e-01   1.1177433129795762e-01   1.1177213255180501e-01   1.1177547802072606e-01   1.1177380227870685e-01   1.1176883744096602e-01   1.1176878534766078e-01   1.1177333767233943e-01   1.1176890667526468e-01   1.1177351864384745e-01   1.1177467756670492e-01   1.1177309129593599e-01   1.1177200747157316e-01   1.1177376659542147e-01   1.1177184551574519e-01   1.1177253949371803e-01   1.1177320716572582e-01   1.1177267306735807e-01   1.1177292658223621e-01   1.1177199275389128e-01   1.1177171193912600e-01   1.1177110462667032e-01   1.1177295332834897e-01   1.1177123224291055e-01   1.1176926396103658e-01   1.1177625263594942e-01   1.1177465460078069e-01   1.1177678284781538e-01   1.1177516689583820e-01   1.1177532296647129e-01   1.1177557034243690e-01   1.1177412998648341e-01   1.1177399406328356e-01   1.1177771408322827e-01   1.1177695222020440e-01   1.1177576393080996e-01   1.1177556328626047e-01   1.1177410747398590e-01   1.1177304773883351e-01   1.1177349238310419e-01   1.1177225089858325e-01   1.1176888121455206e-01   1.1176963023080891e-01   1.1177249263649167e-01   1.1176894965950211e-01   1.1177132504390794e-01   1.1177225895417398e-01   1.1177135680533515e-01   1.1177038480683300e-01   1.1177195099413786e-01   1.1177131100929942e-01   1.1177132716925625e-01   1.1177064476829805e-01   1.1176842028024370e-01   1.1176950283190432e-01   1.1177110635954982e-01   1.1177045297713713e-01   1.1178187274006551e-01   1.1178212958224906e-01   1.1177638058964309e-01   1.1177547833126247e-01   1.1177949981209878e-01   1.1177119641319982e-01   1.1177733575202425e-01   1.1178084791530789e-01   1.1177391378474656e-01   1.1177747136335420e-01   1.1177210631400543e-01   1.1176867049291102e-01   1.1177767424873082e-01   1.1178047434177887e-01   1.1177232914258030e-01   1.1177771653680262e-01   1.1177504627192857e-01   1.1176605520892888e-01   1.1177251135849869e-01   1.1177495366312318e-01   1.1176856261211759e-01   1.1177497123672515e-01   1.1177061863330384e-01   1.1177061872552670e-01   1.1177273439314563e-01   1.1176865960543038e-01   1.1177229561601670e-01   1.1177415216613878e-01   1.1177709044499085e-01   1.1177187918738060e-01   1.1177611053741705e-01   1.1177972510573782e-01   1.1177082483589794e-01   1.1177331917645919e-01   1.1176963609430744e-01   1.1176432483169871e-01   1.1177037842050244e-01   1.1176265962015952e-01   1.1176847211283462e-01   1.1177057058411374e-01   1.1177097690258388e-01   1.1177314083120612e-01   1.1176596776033967e-01   1.1176344992698253e-01   1.1176711437994130e-01   1.1177119917399196e-01   1.1176679098472464e-01   1.1176809561935752e-01   1.1177799746787440e-01   1.1177888100646376e-01   1.1177162944400949e-01   1.1177792478468404e-01   1.1177509971067626e-01   1.1177089801925946e-01   1.1177385745442113e-01   1.1177748232240124e-01   1.1177069417487333e-01   1.1177351979752267e-01   1.1176958626567696e-01   1.1177105197023422e-01   1.1177803603366339e-01   1.1177738848137560e-01   1.1177103990008608e-01   1.1177561854856795e-01   1.1167731778397852e-01   1.1170730329763542e-01   1.1170919565626847e-01   1.1173422558702227e-01   1.1172873133073150e-01   1.1176673934678702e-01   1.1174740595796236e-01   1.1172981526464182e-01   1.1171422591766886e-01   1.1173413925518573e-01   1.1172268349829056e-01   1.1176333118924792e-01   1.1173241266481691e-01   1.1173703785945981e-01   1.1176352173638657e-01   1.1174511878034346e-01   1.1174115105631338e-01   1.1176670872820373e-01   1.1175581692986784e-01   1.1175121327487601e-01   1.1176342517940746e-01   1.1175389591564344e-01   1.1176744510074363e-01   1.1176079611761337e-01   1.1175833700030259e-01   1.1177091826826094e-01   1.1176051153615132e-01   1.1176002176757695e-01   1.1175099536072107e-01   1.1177081640159758e-01   1.1175761772883153e-01   1.1174607639428920e-01   1.1172873833004156e-01   1.1174592697134206e-01   1.1173350107211563e-01   1.1176782011559293e-01   1.1175096212815412e-01   1.1177118220207015e-01   1.1175981729797790e-01   1.1175974884394836e-01   1.1173887387121662e-01   1.1174977487353205e-01   1.1173658657819530e-01   1.1176279827017545e-01   1.1176651305084345e-01   1.1175843593743982e-01   1.1175930635224664e-01   1.1176383688180033e-01   1.1175273410425608e-01   1.1175382440543045e-01   1.1177446940014393e-01   1.1175970524268650e-01   1.1176340717333903e-01   1.1177948161796483e-01   1.1176688003084083e-01   1.1176134552911403e-01   1.1177273072141998e-01   1.1176246853353337e-01   1.1176721009582079e-01   1.1177047763995450e-01   1.1176608014147264e-01   1.1176395288890988e-01   1.1177664264976471e-01   1.1177411108569127e-01   1.1176965595090921e-01   1.1177591881773206e-01   1.1175446664552910e-01   1.1175957485245845e-01   1.1176641998872883e-01   1.1173696479430963e-01   1.1175166554633988e-01   1.1176425788183197e-01   1.1173379343310438e-01   1.1175765318293859e-01   1.1170373804630153e-01   1.1170875710582184e-01   1.1174795584326196e-01   1.1174672794462455e-01   1.1171842790528003e-01   1.1173494923858365e-01   1.1174178333998433e-01   1.1164118746963110e-01   1.1174928594263542e-01   1.1173280890466790e-01   1.1161113850644259e-01   1.1170321339123521e-01   1.1163872874650010e-01   1.1166449605417796e-01   1.1159037206831678e-01   1.1136450329696491e-01   1.1123692184715055e-01   1.1161036424552848e-01   1.1172475116412973e-01   1.1169704096506088e-01   1.1166501984980955e-01   1.1171721458081502e-01   1.1164673751520431e-01   1.1173057159790117e-01   1.1158544826596008e-01   1.1158144546009675e-01   1.1169205891160683e-01   1.1132250068005242e-01   1.1138529936493652e-01   1.1167594162477823e-01   1.1157264670750226e-01   1.1144660219994570e-01   1.1166239770735382e-01   1.1141485150214740e-01   1.1105868336265567e-01   1.1273366912955884e-01   1.1124675400776900e-01   1.1156852304249770e-01   1.1172649603506950e-01   1.1166256834561371e-01   1.1168043596498321e-01   1.1172133154973221e-01   1.1156105146439221e-01   1.1172889109864086e-01   1.1136683911912303e-01   1.1158248735422717e-01   1.1166181656677879e-01   1.1122738406228209e-01   1.1155879794700256e-01   1.1166176045265896e-01   1.1174729801593572e-01   1.1148246292954771e-01   1.1167824004537863e-01   1.1166076276305861e-01   1.1178673261333848e-01   1.1178445050890812e-01   1.1179304521262874e-01   1.1178615474186704e-01   1.1178308877264298e-01   1.1178734455277897e-01   1.1178518989114486e-01   1.1178396311219194e-01   1.1179170007416327e-01   1.1178378673562785e-01   1.1179156278011816e-01   1.1178736668193075e-01   1.1179041501288398e-01   1.1178826165330503e-01   1.1179180262694946e-01   1.1179276662776454e-01   1.1178376115887628e-01   1.1178713152684017e-01   1.1178579945683020e-01   1.1178543040894996e-01   1.1179149369678930e-01   1.1178951269571713e-01   1.1179377818758043e-01   1.1179161504836287e-01   1.1178962198558524e-01   1.1179293605622558e-01   1.1179326949964354e-01   1.1179224702885235e-01   1.1178908575055192e-01   1.1179383686719820e-01   1.1179206885049192e-01   1.1179124156279782e-01   1.1179064942268147e-01   1.1178375811683500e-01   1.1178972536413195e-01   1.1178673362538816e-01   1.1178358610548679e-01   1.1178520241027955e-01   1.1178710308503706e-01   1.1178571073952909e-01   1.1178683265101383e-01   1.1178413093220783e-01   1.1178950589910705e-01   1.1178804563901661e-01   1.1179026553427414e-01   1.1179075581753256e-01   1.1179277071656504e-01   1.1179507239704729e-01   1.1179540220320652e-01   1.1179418108359040e-01   1.1179629301001581e-01   1.1179776465709046e-01   1.1179462472939154e-01   1.1179807791841591e-01   1.1179699822702351e-01   1.1179633700240217e-01   1.1179562348641697e-01   1.1179545820037463e-01   1.1179737731665353e-01   1.1179913793295798e-01   1.1179988044812059e-01   1.1179889644400430e-01   1.1180156387911211e-01   1.1180722190401429e-01   1.1177319071899018e-01   1.1177089624705876e-01   1.1177212851621436e-01   1.1176880266528418e-01   1.1176861235727124e-01   1.1176643019850234e-01   1.1176660292368480e-01   1.1176767203845135e-01   1.1177220935981118e-01   1.1176801414433468e-01   1.1177206006789465e-01   1.1176686725816912e-01   1.1176891034488982e-01   1.1176779646681841e-01   1.1176734194516254e-01   1.1176866973354088e-01   1.1176719082178303e-01   1.1176697192304293e-01   1.1176541475676401e-01   1.1176615826444732e-01   1.1176818091689800e-01   1.1176664053442881e-01   1.1176822242106738e-01   1.1176829080813215e-01   1.1176717811564747e-01   1.1177130361126963e-01   1.1176496493651472e-01   1.1176802128553487e-01   1.1176686526991653e-01   1.1176749668938893e-01   1.1176702153607294e-01   1.1176770878846190e-01   1.1177222432433730e-01   1.1176618460257440e-01   1.1177174155582555e-01   1.1176656081949447e-01   1.1176623614377613e-01   1.1176929738421537e-01   1.1176182048800291e-01   1.1176557057329350e-01   1.1177479115121930e-01   1.1176055330502194e-01   1.1175995812201084e-01   1.1175680333057969e-01   1.1177113321773151e-01   1.1176346665249233e-01   1.1176059349894962e-01   1.1176132460483965e-01   1.1176917814189256e-01   1.1176807734149276e-01   1.1176778837931292e-01   1.1176942473259253e-01   1.1176852398516997e-01   1.1177109008184670e-01   1.1176700110147705e-01   1.1176953973124348e-01   1.1177156127358182e-01   1.1176606528641417e-01   1.1176236750454903e-01   1.1176322832133936e-01   1.1177293847050201e-01   1.1176770338583696e-01   1.1176270840270432e-01   1.1176623824340291e-01   1.1179625487849731e-01   1.1179944867176241e-01   1.1179728271035949e-01   1.1179573821138780e-01   1.1179763910193531e-01   1.1179483810278334e-01   1.1179713938938204e-01   1.1179840487907129e-01   1.1179438464557991e-01   1.1179672054188890e-01   1.1179225065062739e-01   1.1179268496262382e-01   1.1179482217188720e-01   1.1179734139146731e-01   1.1179261040113854e-01   1.1179273681404295e-01   1.1179494300991036e-01   1.1178987176978583e-01   1.1179320207364557e-01   1.1179544947311450e-01   1.1178588683759857e-01   1.1179353377800445e-01   1.1178585220187025e-01   1.1178967848420779e-01   1.1179074354752186e-01   1.1178117220415762e-01   1.1178709916009211e-01   1.1179110284268196e-01   1.1179569530