<?xml version="1.0"?>
<VTKFile type="UnstructuredGrid"  version="0.1"  >
<UnstructuredGrid>
<Piece  NumberOfPoints="4153" NumberOfCells="8064">
<Points>
<DataArray  type="Float64"  NumberOfComponents="3"  format="ascii">-0.4249999999999999 -0.5 0  -0.02499999999999988 -0.5 0  -0.07499999999999987 -0.5 0  -0.1249999999999998 -0.5 0  -0.1749999999999998 -0.5 0  -0.2249999999999998 -0.5 0  -0.2749999999999998 -0.5 0  -0.3249999999999998 -0.5 0  -0.3749999999999999 -0.5 0  0.02500000000000016 -0.5 0  -0.4749999999999998 -0.5 0  -0.5249999999999998 -0.5 0  -0.5749999999999998 -0.5 0  -0.6249999999999999 -0.5 0  -0.6749999999999999 -0.5 0  -0.725 -0.5 0  -0.775 -0.5 0  0.8 -0.5 0  0.07500000000000025 -0.5 0  0.1250000000000003 -0.5 0  0.1750000000000004 -0.5 0  0.2250000000000004 -0.5 0  0.2750000000000004 -0.5 0  0.3250000000000003 -0.5 0  0.3750000000000001 -0.5 0  0.4250000000000002 -0.5 0  0.4750000000000002 -0.5 0  0.5250000000000001 -0.5 0  0.5750000000000002 -0.5 0  0.625 -0.5 0  0.675 -0.5 0  0.725 -0.5 0  0.775 -0.5 0  0.75 -0.5 0  -0.75 -0.5 0  -0.6499999999999999 -0.5 0  -0.5499999999999998 -0.5 0  -0.4499999999999998 -0.5 0  -0.3499999999999999 -0.5 0  -0.2499999999999998 -0.5 0  -0.1499999999999998 -0.5 0  -0.04999999999999988 -0.5 0  0.7 -0.5 0  0.1500000000000004 -0.5 0  0.2500000000000003 -0.5 0  0.3500000000000002 -0.5 0  0.4500000000000002 -0.5 0  0.5500000000000002 -0.5 0  0.65 -0.5 0  0.0500000000000002 -0.5 0  -0.8 -0.5 0  0.6000000000000001 -0.5 0  0.5000000000000002 -0.5 0  0.4000000000000001 -0.5 0  0.3000000000000003 -0.5 0  0.2000000000000004 -0.5 0  0.1000000000000003 -0.5 0  1.110223024625157e-16 -0.5 0  -0.09999999999999987 -0.5 0  -0.1999999999999998 -0.5 0  -0.2999999999999998 -0.5 0  -0.3999999999999999 -0.5 0  -0.4999999999999998 -0.5 0  -0.5999999999999999 -0.5 0  -0.7 -0.5 0  1 -0.3 0  0.8765366864730179 -0.4847759065022574 0  0.9414213562373094 -0.4414213562373097 0  0.9847759065022573 -0.3765366864730181 0  0.838268343236509 -0.4923879532511287 0  0.9089790213551636 -0.4630986313697836 0  0.9630986313697834 -0.4089790213551639 0  0.9923879532511286 -0.338268343236509 0  0.8191341716182545 -0.4961939766255644 0  0.8574025148547635 -0.488581929876693 0  0.8927578539140908 -0.4739372689360205 0  0.9252001887962364 -0.4522599938035466 0  0.9522599938035463 -0.4252001887962368 0  0.9739372689360204 -0.392757853914091 0  0.9885819298766929 -0.3574025148547635 0  0.9961939766255643 -0.3191341716182545 0  1 -0.275 0  1 0.275 0  1 0.225 0  1 0.175 0  1 0.125 0  1 0.07499999999999994 0  1 0.02499999999999987 0  1 -0.0250000000000002 0  1 -0.07500000000000026 0  1 -0.1250000000000003 0  1 -0.1750000000000002 0  1 -0.2250000000000001 0  1 0.3 0  1 0.25 0  1 0.15 0  1 0.04999999999999991 0  1 -0.05000000000000023 0  1 -0.1500000000000002 0  1 -0.2500000000000001 0  1 0.2 0  1 0.09999999999999998 0  1 -1.665334536937735e-16 0  1 -0.1000000000000003 0  1 -0.2000000000000002 0  0.8 0.5 0  0.9847759065022573 0.3765366864730181 0  0.9414213562373094 0.4414213562373097 0  0.8765366864730179 0.4847759065022574 0  0.9923879532511286 0.338268343236509 0  0.9630986313697834 0.4089790213551639 0  0.9089790213551636 0.4630986313697836 0  0.838268343236509 0.4923879532511287 0  0.9961939766255643 0.3191341716182545 0  0.9885819298766929 0.3574025148547635 0  0.9739372689360204 0.392757853914091 0  0.9522599938035463 0.4252001887962368 0  0.9252001887962364 0.4522599938035466 0  0.8927578539140908 0.4739372689360205 0  0.8574025148547635 0.488581929876693 0  0.8191341716182545 0.4961939766255644 0  -0.02500000000000016 0.5 0  0.725 0.5 0  0.6749999999999999 0.5 0  0.6249999999999999 0.5 0  0.5749999999999998 0.5 0  0.5249999999999998 0.5 0  0.4749999999999998 0.5 0  0.4249999999999999 0.5 0  0.3749999999999999 0.5 0  0.3249999999999998 0.5 0  0.2749999999999998 0.5 0  0.2249999999999998 0.5 0  0.1749999999999998 0.5 0  0.1249999999999998 0.5 0  0.07499999999999987 0.5 0  0.02499999999999988 0.5 0  0.775 0.5 0  -0.07500000000000025 0.5 0  -0.1250000000000003 0.5 0  -0.1750000000000004 0.5 0  -0.2250000000000004 0.5 0  -0.2750000000000004 0.5 0  -0.3250000000000003 0.5 0  -0.3750000000000001 0.5 0  -0.4250000000000002 0.5 0  -0.4750000000000002 0.5 0  -0.5250000000000001 0.5 0  -0.5750000000000002 0.5 0  -0.625 0.5 0  -0.675 0.5 0  -0.725 0.5 0  -0.775 0.5 0  -0.8 0.5 0  -0.75 0.5 0  -0.65 0.5 0  -0.5500000000000002 0.5 0  -0.4500000000000002 0.5 0  -0.3500000000000002 0.5 0  -0.2500000000000003 0.5 0  -0.1500000000000004 0.5 0  -0.0500000000000002 0.5 0  0.04999999999999988 0.5 0  0.1499999999999998 0.5 0  0.2499999999999998 0.5 0  0.3499999999999999 0.5 0  0.4499999999999998 0.5 0  0.5499999999999998 0.5 0  0.6499999999999999 0.5 0  0.75 0.5 0  -0.7 0.5 0  -0.6000000000000001 0.5 0  -0.5000000000000002 0.5 0  -0.4000000000000001 0.5 0  -0.3000000000000003 0.5 0  -0.2000000000000004 0.5 0  -0.1000000000000003 0.5 0  -1.110223024625157e-16 0.5 0  0.09999999999999987 0.5 0  0.1999999999999998 0.5 0  0.2999999999999998 0.5 0  0.3999999999999999 0.5 0  0.4999999999999998 0.5 0  0.5999999999999999 0.5 0  0.7 0.5 0  -1 0.3 0  -0.8765366864730181 0.4847759065022573 0  -0.9414213562373097 0.4414213562373094 0  -0.9847759065022574 0.3765366864730179 0  -0.838268343236509 0.4923879532511287 0  -0.9089790213551638 0.4630986313697834 0  -0.9630986313697836 0.4089790213551636 0  -0.9923879532511287 0.338268343236509 0  -0.8191341716182545 0.4961939766255643 0  -0.8574025148547635 0.488581929876693 0  -0.892757853914091 0.4739372689360203 0  -0.9252001887962368 0.4522599938035464 0  -0.9522599938035466 0.4252001887962365 0  -0.9739372689360205 0.3927578539140908 0  -0.9885819298766931 0.3574025148547634 0  -0.9961939766255643 0.3191341716182545 0  -1 0.275 0  -1 -0.275 0  -1 -0.225 0  -1 -0.175 0  -1 -0.125 0  -1 -0.07499999999999994 0  -1 -0.02499999999999987 0  -1 0.0250000000000002 0  -1 0.07500000000000026 0  -1 0.1250000000000003 0  -1 0.1750000000000002 0  -1 0.2250000000000001 0  -1 -0.3 0  -1 -0.25 0  -1 -0.15 0  -1 -0.04999999999999991 0  -1 0.05000000000000023 0  -1 0.1500000000000002 0  -1 0.2500000000000001 0  -1 -0.2 0  -1 -0.09999999999999998 0  -1 1.665334536937735e-16 0  -1 0.1000000000000003 0  -1 0.2000000000000002 0  -0.9847759065022574 -0.3765366864730179 0  -0.9414213562373096 -0.4414213562373094 0  -0.8765366864730181 -0.4847759065022573 0  -0.9923879532511287 -0.338268343236509 0  -0.9630986313697836 -0.4089790213551636 0  -0.9089790213551638 -0.4630986313697834 0  -0.838268343236509 -0.4923879532511287 0  -0.9961939766255643 -0.3191341716182545 0  -0.9885819298766931 -0.3574025148547634 0  -0.9739372689360205 -0.3927578539140908 0  -0.9522599938035465 -0.4252001887962365 0  -0.9252001887962367 -0.4522599938035464 0  -0.892757853914091 -0.4739372689360203 0  -0.8574025148547635 -0.488581929876693 0  -0.8191341716182545 -0.4961939766255643 0  -0.3000000000000003 0.3267949192431125 0  0.3181343990330772 -0.3439416921723297 0  -0.08257249764926196 -0.3383308877677023 0  -0.50979744334887 -0.3255818518047211 0  0.5060441378325211 0.3274561643884037 0  0.1037631564626732 0.3131559137665553 0  0.843149210446875 -0.1923130104173427 0  -0.8418263458721231 0.1927503215247096 0  -0.8408809410250262 -0.1897116835785854 0  0.8409071959036176 0.1896235182386696 0  0.705967194587281 0.3354524287114743 0  0.6276370409402552 0.1658336215477063 0  0.4215070288293651 0.1446794873901968 0  0.5369019087152576 -0.01677883310260353 0  0.3378219718963524 -0.0304857337078401 0  0.7359191653189867 -0.0003779706345871367 0  0.2206709281181736 0.1292871338121241 0  0.1390057666500616 -0.05482518983879574 0  0.02156604114872933 0.1091113821954512 0  -0.05991856886335568 -0.07544049830328706 0  -0.2091026540303009 0.113218101697482 0  -0.2557387210741711 -0.08957125969209863 0  -0.3742518736706093 0.02381865171750689 0  -0.7065883696935737 -0.3351547375041799 0  -0.6319769825415822 -0.1640183941417108 0  -0.7379485134301987 -0.0003221286420197649 0  -0.6263925638672921 0.1747922261462193 0  0.7000000000000003 -0.3471147448144379 0  -0.09731754444756222 0.2985839976753261 0  -0.7019016658227 0.339872535812372 0  -0.5036626740707574 0.3416097573515475 0  0.3086642085404555 0.31909644989288 0  0.4355889359290377 -0.1794947220360297 0  0.1233906847482294 -0.33992001942789 0  -0.2910439982708135 -0.2942818290560931 0  0.6252598700683595 -0.1832373653183336 0  -0.4390211493546888 -0.1414717198202583 0  -0.5445756908252299 0.01225332998817602 0  0.5094027625036279 -0.3483114655372777 0  -0.8570298735864267 0.3548088427148782 0  0.2432245006188761 -0.181388344807941 0  0.8576591493456415 0.3532994606374906 0  -0.8577781333911819 -0.3532575554640149 0  0.856914113336837 -0.3561698222938181 0  -0.4103395160999327 0.186370105143853 0  0.04059278020228735 -0.1932320619509051 0  -0.894759031223147 0.000141425932117211 0  0.8948577502800618 -0.0001596971477125707 0  -0.1430838089440986 -0.1942958300671257 0  -0.4774576034625814 0.09931171756601452 0  -0.5183660399836124 0.1805811656450362 0  -0.585484127346261 0.09352277806719765 0  -0.3551697580499665 0.2565825121934828 0  -0.3097210850651168 0.1497941034206675 0  -0.2545513270151506 0.2200065104702973 0  -0.3922956948852711 0.10509437843068 0  -0.4594137822479196 0.01803599085284146 0  -0.1532100992389315 0.205901049686404 0  -0.1986587722237813 0.3126894584592193 0  -0.1486587722237813 0.399291998837663 0  -0.04865877222378117 0.399291998837663 0  0.5673313162859936 -0.2657744154278056 0  0.6047013812518141 -0.3477131051758577 0  0.6626299350341799 -0.2651760550663858 0  0.4724958492163328 -0.2639030937866537 0  0.5304244029986986 -0.1813660436771817 0  -0.3650325738127511 -0.2178767744381757 0  -0.4744092963517794 -0.2335267858124897 0  -0.4004207208098418 -0.3099318404304071 0  -0.3473799352144299 -0.1155214897561785 0  -0.2733913596724923 -0.1919265443740958 0  0.06266459880570127 0.2111336479810033 0  0.1211184846334515 0.1191992580037876 0  0.1622170422904234 0.2212215237893397 0  
[...]
<CellData  Scalars="f_599"> 
<DataArray  type="Float64"  Name="f_599"  format="ascii">1.1176001641756296e-01   1.1176141126475861e-01   1.1175831460466615e-01   1.1175959683978801e-01   1.1176021378826419e-01   1.1175837417895336e-01   1.1176114659693558e-01   1.1176202402569681e-01   1.1175650636651875e-01   1.1175970858374523e-01   1.1175537091727530e-01   1.1175670820738423e-01   1.1176097887791837e-01   1.1176300336929249e-01   1.1176001132700300e-01   1.1176176730951473e-01   1.1175931835936048e-01   1.1175557044701138e-01   1.1175988486351802e-01   1.1176037806268416e-01   1.1175729898602299e-01   1.1176130115555771e-01   1.1175942027709201e-01   1.1175853607099882e-01   1.1176132398210277e-01   1.1175992586289968e-01   1.1175979890335909e-01   1.1176225677303912e-01   1.1176219198423973e-01   1.1176118814462044e-01   1.1176270777812571e-01   1.1176361393576635e-01   1.1175464377703735e-01   1.1175960562192694e-01   1.1175360684943847e-01   1.1175464323922728e-01   1.1175938084391671e-01   1.1175557679351131e-01   1.1175803828371735e-01   1.1176061010111960e-01   1.1175715216529862e-01   1.1176289716947187e-01   1.1174485525694093e-01   1.1175043875240397e-01   1.1175818720032787e-01   1.1175944555106100e-01   1.1175135021789527e-01   1.1175308321481614e-01   1.1176249658102180e-01   1.1176379489032078e-01   1.1176190350481532e-01   1.1176273984487536e-01   1.1176340852037039e-01   1.1176392859630803e-01   1.1176146282701069e-01   1.1176426007503748e-01   1.1176172760753755e-01   1.1176047874283206e-01   1.1175468138230667e-01   1.1175625840349893e-01   1.1176405743391350e-01   1.1176169218487571e-01   1.1175834250559136e-01   1.1175738616836414e-01   1.1178486813566302e-01   1.1177404380237888e-01   1.1176965012869741e-01   1.1179115206253276e-01   1.1176577817276762e-01   1.1177368674288725e-01   1.1176370710898398e-01   1.1177255550559247e-01   1.1176914432977519e-01   1.1176289063810102e-01   1.1176482986832079e-01   1.1177397883637955e-01   1.1178833157124096e-01   1.1176814510384886e-01   1.1176883661663314e-01   1.1178727829752079e-01   1.1175927099516139e-01   1.1177073478727187e-01   1.1175700283461323e-01   1.1176100688386316e-01   1.1176458771867863e-01   1.1175433864107692e-01   1.1176515553197860e-01   1.1176935868000364e-01   1.1175133866754770e-01   1.1176448366125276e-01   1.1173764721263155e-01   1.1174791124401381e-01   1.1175775414492577e-01   1.1176506013551687e-01   1.1175036862235933e-01   1.1176263828425420e-01   1.1176147850009799e-01   1.1175568206754918e-01   1.1175708757209232e-01   1.1176732572598247e-01   1.1175480425401241e-01   1.1176907772681294e-01   1.1174736321633723e-01   1.1175509978172815e-01   1.1175681451714430e-01   1.1174199497692278e-01   1.1174109337473438e-01   1.1174493818951917e-01   1.1176543394550902e-01   1.1174181115650601e-01   1.1174341341210517e-01   1.1174290473003182e-01   1.1178521883478176e-01   1.1175443703430356e-01   1.1175869919964732e-01   1.1178245760841046e-01   1.1174091572325204e-01   1.1175469128269871e-01   1.1172495674701288e-01   1.1174588663551584e-01   1.1176309999307446e-01   1.1173171112379311e-01   1.1174165367012262e-01   1.1174282568590949e-01   1.1177875299980559e-01   1.1172005594606277e-01   1.1173167054935285e-01   1.1178053717945405e-01   1.1168323274506758e-01   1.1171644891075470e-01   1.1170632359458967e-01   1.1173750124734148e-01   1.1172720566438490e-01   1.1175480016504151e-01   1.1174450665738582e-01   1.1173750155443832e-01   1.1171072949269827e-01   1.1172837646492674e-01   1.1171549741958436e-01   1.1175461939651855e-01   1.1173182001300526e-01   1.1173988797208043e-01   1.1174861890264216e-01   1.1173847240963865e-01   1.1173263759776322e-01   1.1175784101901494e-01   1.1174853537061873e-01   1.1174602314634817e-01   1.1175142484804590e-01   1.1174685389161554e-01   1.1175251069737301e-01   1.1174858419888285e-01   1.1174916304741948e-01   1.1175524087350189e-01   1.1175156980792804e-01   1.1175070023845060e-01   1.1174573391773331e-01   1.1175288157855774e-01   1.1174976497432647e-01   1.1174462204033057e-01   1.1172023869429001e-01   1.1173601480338768e-01   1.1172480243717249e-01   1.1175982741165109e-01   1.1174029394053926e-01   1.1176235718820984e-01   1.1175249583785404e-01   1.1175096684603286e-01   1.1172815772181700e-01   1.1174113180907405e-01   1.1173111470130222e-01   1.1176166851178557e-01   1.1175392417718860e-01   1.1175025004214487e-01   1.1175334189993436e-01   1.1175448280084160e-01   1.1174196303759970e-01   1.1174815963017976e-01   1.1175474321140490e-01   1.1174558678294688e-01   1.1175279845492732e-01   1.1175739454966109e-01   1.1175514061222937e-01   1.1175180405665507e-01   1.1175463243765076e-01   1.1175265161066790e-01   1.1175440370220059e-01   1.1175480561078266e-01   1.1174856835561177e-01   1.1175310102941562e-01   1.1175746294278120e-01   1.1175365721345067e-01   1.1170165516793598e-01   1.1174126201443597e-01   1.1175304459435423e-01   1.1170215663507720e-01   1.1175737925138746e-01   1.1174889218079395e-01   1.1176206955843371e-01   1.1174838719555172e-01   1.1176059304322390e-01   1.1176162547191333e-01   1.1177409532529882e-01   1.1175482981736844e-01   1.1172524551478992e-01   1.1175851219298784e-01   1.1176220775009615e-01   1.1173801709253905e-01   1.1176747149464442e-01   1.1176620777776720e-01   1.1177094194904057e-01   1.1176547112076188e-01   1.1177548860306828e-01   1.1177332184007974e-01   1.1177180654581892e-01   1.1176665999925814e-01   1.1177826677894338e-01   1.1178022404874492e-01   1.1178136917407555e-01   1.1177839317367663e-01   1.1177035048846083e-01   1.1176863580743958e-01   1.1177528496857869e-01   1.1176495682884861e-01   1.1178275936420891e-01   1.1177290941047729e-01   1.1178933115032960e-01   1.1177447759348723e-01   1.1177779049837275e-01   1.1178220470359776e-01   1.1178010044355356e-01   1.1177616872691971e-01   1.1179535052405322e-01   1.1178289235252313e-01   1.1179558407748462e-01   1.1178590025969551e-01   1.1178279227635350e-01   1.1178143928097570e-01   1.1178549058989466e-01   1.1178208615582241e-01   1.1174838750217443e-01   1.1177012445221061e-01   1.1177391354441851e-01   1.1175559544927924e-01   1.1177963817082583e-01   1.1177887818751935e-01   1.1178082509179083e-01   1.1177411123960818e-01   1.1177757402553802e-01   1.1178080695125181e-01   1.1177953985798821e-01   1.1177603635886887e-01   1.1176295913312813e-01   1.1177610679522403e-01   1.1177641672984155e-01   1.1176103765527030e-01   1.1178256462873366e-01   1.1179416705067384e-01   1.1180016646270272e-01   1.1179009062730527e-01   1.1179852305326182e-01   1.1180293189208321e-01   1.1180038629366126e-01   1.1179787457914592e-01   1.1179733781774494e-01   1.1179721765052671e-01   1.1179817307319741e-01   1.1180140272904751e-01   1.1179528359528000e-01   1.1180008402391040e-01   1.1180313766792585e-01   1.1179952975122621e-01   1.1179615221776275e-01   1.1180191259860385e-01   1.1179777979334475e-01   1.1179912838386342e-01   1.1180253824204406e-01   1.1179985630974228e-01   1.1180344982423224e-01   1.1180238814137944e-01   1.1179819853234603e-01   1.1180329012010348e-01   1.1179843860382287e-01   1.1180039542464017e-01   1.1180112675068156e-01   1.1180372507107444e-01   1.1180173319391776e-01   1.1180187375116207e-01   1.1179781507217655e-01   1.1179421083077819e-01   1.1179721989682910e-01   1.1180153477487162e-01   1.1179154898320112e-01   1.1180067981334176e-01   1.1179264708014007e-01   1.1179557618939029e-01   1.1179577786600468e-01   1.1178768784161310e-01   1.1179592955816105e-01   1.1179959116519642e-01   1.1180197989610784e-01   1.1179578079205353e-01   1.1180105339133603e-01   1.1180249575307641e-01   1.1180228532682451e-01   1.1180286780010405e-01   1.1180396408016599e-01   1.1180353417915340e-01   1.1180199729726975e-01   1.1180406834535585e-01   1.1180185436060876e-01   1.1180313642375517e-01   1.1180388767754582e-01   1.1180043330418826e-01   1.1180327155036926e-01   1.1180356429353154e-01   1.1180324606998115e-01   1.1180251293316749e-01   1.1180368276189666e-01   1.1180124687969049e-01   1.1176526187306028e-01   1.1175900292594881e-01   1.1176379575008501e-01   1.1176095970478930e-01   1.1175867408496397e-01   1.1176149963682484e-01   1.1175635704676341e-01   1.1175824014994407e-01   1.1176155020600563e-01   1.1175685922801745e-01   1.1176018558392298e-01   1.1175921594682381e-01   1.1176090145074319e-01   1.1175577289507695e-01   1.1176023817641360e-01   1.1175912381128283e-01   1.1175562826011858e-01   1.1175782361525331e-01   1.1175329929459239e-01   1.1175466121605845e-01   1.1175623417142766e-01   1.1175244451018404e-01   1.1175594328902161e-01   1.1175817517569547e-01   1.1175202429864219e-01   1.1175669557054452e-01   1.1174613172289585e-01   1.1175063513373645e-01   1.1175433958555396e-01   1.1175861549597052e-01   1.1175155596161347e-01   1.1175335196687078e-01   1.1175903071379761e-01   1.1175461423069097e-01   1.1175770398197628e-01   1.1175611842601452e-01   1.1175479503200278e-01   1.1175725915863420e-01   1.1174959574800439e-01   1.1175316928646460e-01   1.1175908059402410e-01   1.1175153862166226e-01   1.1174945531199632e-01   1.1174673061609029e-01   1.1175713954732282e-01   1.1174801028799120e-01   1.1174597511020441e-01   1.1174474442692589e-01   1.1175737928685357e-01   1.1175006709753527e-01   1.1175605338485523e-01   1.1175463479440757e-01   1.1174922094852277e-01   1.1175617058004170e-01   1.1174190523691020e-01   1.1174749665194414e-01   1.1175623386259592e-01   1.1174401687813108e-01   1.1174349555611304e-01   1.1174205564560913e-01   1.1175397534087517e-01   1.1173799356246465e-01   1.1174062457590303e-01   1.1173978791334052e-01   1.1175325560154346e-01   1.1175679379429418e-01   1.1175790046774586e-01   1.1175573465477272e-01   1.1175743112040422e-01   1.1175821720397119e-01   1.1175843367495439e-01   1.1175721495242791e-01   1.1175732023341492e-01   1.1175761979472590e-01   1.1175736004033962e-01   1.1175757618355435e-01   1.1175597843811666e-01   1.1175843359942360e-01   1.1175854527216238e-01   1.1175665210738504e-01   1.1175769213330118e-01   1.1175734211433172e-01   1.1175806963594236e-01   1.1175825047377862e-01   1.1175704452292812e-01   1.1175880993467099e-01   1.1175763574664327e-01   1.1175760642009545e-01   1.1175848956094916e-01   1.1175711107352292e-01   1.1175840208258367e-01   1.1175949713277417e-01   1.1175921413748764e-01   1.1175888870403144e-01   1.1176004328367940e-01   1.1175945560618410e-01   1.1175707142836226e-01   1.1175760618472866e-01   1.1175638949254682e-01   1.1175672180893605e-01   1.1175696748561524e-01   1.1175612074765763e-01   1.1175636167503124e-01   1.1175783935435375e-01   1.1175657408816285e-01   1.1175775955760113e-01   1.1175149922555239e-01   1.1175426921505743e-01   1.1175647944373365e-01   1.1175745741363668e-01   1.1175387353863828e-01   1.1175461485377851e-01   1.1175721421111408e-01   1.1176041643551922e-01   1.1175916800880939e-01   1.1175790004130882e-01   1.1176092133833665e-01   1.1175987254269507e-01   1.1176147063687786e-01   1.1176184758879582e-01   1.1175796452501871e-01   1.1175969499532913e-01   1.1175560609782201e-01   1.1175679425520979e-01   1.1175814702842535e-01   1.1176157548787109e-01   1.1175905923665561e-01   1.1176046184659387e-01   1.1176701350425454e-01   1.1176895454657482e-01   1.1175758510010322e-01   1.1175781342467403e-01   1.1176461303601498e-01   1.1175015990053240e-01   1.1176114495948049e-01   1.1176665755069434e-01   1.1175466248561759e-01   1.1176202322656749e-01   1.1175302063425790e-01   1.1174767347489765e-01   1.1176200200774097e-01   1.1176600500534570e-01   1.1175280695618840e-01   1.1176283513523642e-01   1.1175881728787514e-01   1.1174507597042507e-01   1.1175541182006932e-01   1.1175826804428635e-01   1.1175033059655703e-01   1.1175873291431973e-01   1.1175303135387100e-01   1.1175191034944104e-01   1.1175634845085103e-01   1.1175144887964517e-01   1.1175671629564939e-01   1.1175801914144332e-01   1.1176088425209880e-01   1.1175298212297859e-01   1.1175973289526314e-01   1.1176495230588994e-01   1.1175258319396632e-01   1.1175680136785664e-01   1.1175271692653849e-01   1.1174427839691253e-01   1.1175352498320178e-01   1.1174360961734384e-01   1.1175189373191187e-01   1.1175339052137530e-01   1.1175584889823764e-01   1.1175785148901934e-01   1.1175184563964688e-01   1.1174740686627167e-01   1.1174967934447878e-01   1.1175546093458388e-01   1.1175180817693577e-01   1.1175311716986118e-01   1.1176407252154395e-01   1.1176402079771028e-01   1.1175361620298589e-01   1.1176477812610355e-01   1.1175874418218638e-01   1.1175337845237276e-01   1.1175785129191271e-01   1.1176232951615402e-01   1.1175405638477738e-01   1.1175807897488524e-01   1.1175473782901582e-01   1.1175640118945344e-01   1.1176576912245756e-01   1.1176339774321159e-01   1.1175543072739391e-01   1.1176315616228037e-01   1.1156834666378179e-01   1.1162836636542858e-01   1.1164031751327197e-01   1.1167428072770939e-01   1.1167734667340291e-01   1.1173557497161053e-01   1.1170586183555592e-01   1.1166554498376975e-01   1.1165752353938130e-01   1.1169337425402717e-01   1.1167774170424773e-01   1.1173224637731284e-01   1.1168046136732433e-01   1.1168361529156792e-01   1.1173684870085275e-01   1.1170564004894198e-01   1.1170905585575548e-01   1.1174072296214475e-01   1.1172861893021019e-01   1.1171759989352513e-01   1.1173912925010360e-01   1.1172277314776492e-01   1.1174454774131767e-01   1.1173317842139886e-01   1.1173272359141569e-01   1.1175099929772919e-01   1.1173571058978697e-01   1.1173274280729090e-01   1.1171375783686217e-01   1.1174982688498937e-01   1.1172587661637493e-01   1.1170268644631988e-01   1.1169129104173935e-01   1.1171915721565345e-01   1.1170139693236886e-01   1.1174452923238434e-01   1.1172844550467467e-01   1.1175134723484240e-01   1.1173883608789910e-01   1.1173702824205875e-01   1.1171155169812107e-01   1.1172835366745923e-01   1.1170927456639050e-01   1.1174050712114202e-01   1.1174517925233403e-01   1.1173488388736495e-01   1.1173541280017833e-01   1.1174065708171138e-01   1.1172082744913847e-01   1.1171865630344614e-01   1.1175655469788320e-01   1.1173339570037454e-01   1.1173647487625504e-01   1.1176463067951908e-01   1.1174273068089884e-01   1.1173286372176669e-01   1.1175372546477154e-01   1.1173696539779809e-01   1.1174529625981927e-01   1.1174997556723358e-01   1.1174438361867792e-01   1.1173834602860012e-01   1.1175964565267206e-01   1.1175650822231367e-01   1.1178099924344928e-01   1.1177593109463259e-01   1.1177706749981496e-01   1.1177543338884526e-01   1.1176963826265679e-01   1.1176950366082891e-01   1.1175883869238956e-01   1.1176654695555120e-01   1.1177060966035923e-01   1.1176223703314545e-01   1.1176183119662814e-01   1.1176197561454022e-01   1.1177097514229813e-01   1.1175742708759336e-01   1.1176499728168575e-01   1.1176594434873580e-01   1.1175215816825587e-01   1.1175185229389319e-01   1.1173280973185304e-01   1.1174816016564329e-01   1.1174527547520788e-01   1.1173222110916223e-01   1.1175077840957413e-01   1.1175722230818819e-01   1.1171253224241866e-01   1.1174571449423031e-01   1.1167993925941001e-01   1.1171626299896266e-01   1.1174721361950885e-01   1.1176030412118478e-01   1.1173371383572699e-01   1.1174706996331311e-01   1.1174930181048948e-01   1.1173737916805937e-01   1.1173030749182936e-01   1.1173571817264494e-01   1.1172152786686483e-01   1.1171881625236911e-01   1.1167241036984701e-01   1.1171215667589515e-01   1.1169883235723105e-01   1.1168238650138099e-01   1.1165633513766461e-01   1.1166217458865965e-01   1.1173563689731962e-01   1.1167149256496298e-01   1.1169021090854298e-01   1.1170673427921335e-01   1.1176123268254896e-01   1.1173612594654812e-01   1.1175465413827014e-01   1.1175489040600166e-01   1.1172219878356046e-01   1.1175519182380253e-01   1.1170359508173888e-01   1.1172737111963321e-01   1.1175152420533005e-01   1.1169174739960287e-01   1.1171629367537865e-01   1.1172208553573643e-01   1.1175479908839056e-01   1.1171389308320588e-01   1.1172739747058709e-01   1.1172630297535711e-01   1.1178235150840032e-01   1.1178400893973726e-01   1.1178935121291848e-01   1.1178198488504630e-01   1.1178455396831313e-01   1.1178482078460276e-01   1.1178671163221029e-01   1.1178345752713964e-01   1.1178874817150784e-01   1.1178716363711530e-01   1.1178938799197718e-01   1.1178607782928049e-01   1.1178581360013755e-01   1.1178730269013346e-01   1.1178911668920750e-01   1.1178799948237422e-01   1.1178920911818518e-01   1.1178727284411973e-01   1.1179135361229096e-01   1.1178893050657367e-01   1.1179141873159981e-01   1.1179249706872256e-01   1.1179260612928990e-01   1.1179014723332928e-01   1.1179462066649494e-01   1.1179356296168946e-01   1.1179755628906453e-01   1.1179491409849555e-01   1.1179020766137690e-01   1.1179137993182012e-01   1.1179283312520244e-01   1.1178983189274500e-01   1.1178917948297479e-01   1.1179115669250705e-01   1.1178887235775153e-01   1.1178812874305918e-01   1.1179321209289744e-01   1.1178835303076330e-01   1.1179581126891978e-01   1.1179334525748674e-01   1.1178707247491748e-01   1.1179405040323909e-01   1.1178713754946744e-01   1.1178966975856990e-01   1.1179183346086699e-01   1.1179705736206819e-01   1.1179369778890713e-01   1.1179597964683072e-01   1.1179035730427037e-01   1.1179237185016086e-01   1.1179393428881070e-01   1.1179217383063023e-01   1.1179519030183233e-01   1.1179545987703332e-01   1.1179672098035513e-01   1.1179333865467785e-01   1.1179476243804258e-01   1.1179777301972964e-01   1.1179766665381634e-01   1.1179817730578592e-01   1.1179471496929436e-01   1.1179902657764254e-01   1.1180007960325189e-01   1.1179229603203253e-01   1.1176854627810878e-01   1.1176611654294259e-01   1.1176760809508424e-01   1.1176297885864023e-01   1.1176331183635879e-01   1.1176031215924989e-01   1.1176087634261209e-01   1.1176211539919804e-01   1.1176737519486397e-01   1.1176251368519856e-01   1.1176704726886691e-01   1.1176062013834824e-01   1.1176283280825557e-01   1.1176218503454879e-01   1.1176108353060060e-01   1.1176213629118877e-01   1.1176150024961419e-01   1.1176065136624487e-01   1.1175943573537681e-01   1.1176026660032647e-01   1.1176175557238548e-01   1.1176077339121097e-01   1.1176146823091837e-01   1.1176195998049401e-01   1.1176143343094173e-01   1.1176489521233028e-01   1.1175883714595532e-01   1.1176218288213866e-01   1.1176108736748687e-01   1.1176081803959700e-01   1.1176107394352625e-01   1.1176188188362378e-01   1.1176711576855837e-01   1.1176038389732085e-01   1.1176654135638774e-01   1.1176018480665656e-01   1.1176055275918964e-01   1.1176334907533844e-01   1.1175567581329465e-01   1.1175974416941151e-01   1.1177002570048536e-01   1.1175479862530130e-01   1.1175335567941609e-01   1.1174966824217576e-01   1.1176509777478084e-01   1.1175749334795888e-01   1.1175323926208175e-01   1.1175367295238139e-01   1.1176225692669282e-01   1.1176201997472318e-01   1.1176065966374604e-01   1.1176199934840483e-01   1.1176250436782927e-01   1.1176387873064979e-01   1.1176032150553214e-01   1.1176328871704988e-01   1.1176479837321630e-01   1.1175970494642350e-01   1.1175429584200518e-01   1.1175469325683733e-01   1.1176550219841336e-01   1.1176067151239148e-01   1.1175349905954621e-01   1.1175686519521269e-01   1.1180146306778613e-01   1.1180312385860887e-01   1.1180179725341505e-01   1.1180095751244044e-01   1.1180287897780372e-01   1.1179987692675333e-01   1.1180187296504132e-01   1.1180156878006307e-01   1.1180037790759420e-01   1.1180282425078683e-01   1.1179847503168935e-01   1.1179830958696788e-01   1.1179892459286758e-01   1.1180044641690420e-01   1.1179775009706566e-01   1.1179682477639935e-01   1.1180216841012951e-01   1.1179599763456116e-01   1.1180058449394707e-01   1.1180144077232500e-01   1.1179287270567986e-01   1.1179948835364167e-01   1.1179256649058632e-01   1.1179565635102083e-01   1.1179813560761304e-01   1.1178850924930411e-01   1.1179564089583990e-01   1.1179659873175124e-01   1.118001555830