<?xml version="1.0"?>
<VTKFile type="UnstructuredGrid"  version="0.1"  >
<UnstructuredGrid>
<Piece  NumberOfPoints="4153" NumberOfCells="8064">
<Points>
<DataArray  type="Float64"  NumberOfComponents="3"  format="ascii">-0.4000267510135876 -0.4683509249414478 0  -0.02489553171903797 -0.5143312028561868 0  -0.07210143565567786 -0.510939335880482 0  -0.1191556791796909 -0.5067080387807095 0  -0.1660928280177858 -0.5019919213546844 0  -0.213053585759912 -0.4969941059317694 0  -0.2599910187702784 -0.49079290266626 0  -0.3068186207182523 -0.4838299294899939 0  -0.3535212760842228 -0.4763146075442318 0  0.02245480734975059 -0.5165714726412085 0  -0.4464458735737278 -0.4607709315166021 0  -0.4927708810513136 -0.4531280976152341 0  -0.5389905030085207 -0.4455719137930071 0  -0.5850853189929591 -0.4383901741327975 0  -0.6310779260035346 -0.4315354774510226 0  -0.6769125101757593 -0.4251494728586384 0  -0.7225731612091773 -0.419366857688568 0  0.7474734135714893 -0.4347561816802683 0  0.06992021521929673 -0.5174527615399058 0  0.1174544316216429 -0.5168129107902869 0  0.1649939479803425 -0.5145911234484638 0  0.2124639036422762 -0.5108607275637316 0  0.2598169984112342 -0.5059245643808169 0  0.3070328610832123 -0.4999773488727846 0  0.3540917066981454 -0.4932282781443356 0  0.4009782052563098 -0.4859773885287926 0  0.4477024327115016 -0.4784135815260454 0  0.4942706575176338 -0.4707402941734457 0  0.540685709239653 -0.4631061673765635 0  0.5869497661348763 -0.4557340985028803 0  0.6330557170774659 -0.448670889954926 0  0.6789929443021226 -0.4421841358510717 0  0.7247588892437955 -0.436425035579813 0  0.7018825343488015 -0.4392822872315416 0  -0.6997418819932454 -0.4223127628868049 0  -0.6080993517677845 -0.4349219343862344 0  -0.5158939492648069 -0.4493413015110118 0  -0.4232499088307879 -0.4646116156595412 0  -0.3301855526932263 -0.4801338317624415 0  -0.2365329704646995 -0.4939955309384377 0  -0.1426346244870663 -0.5043880690736771 0  -0.04851799968359089 -0.5127614617115217 0  0.6560456816133751 -0.4453440025374141 0  0.1412278303129454 -0.5158992560506905 0  0.236156135668609 -0.5085321684676845 0  0.3305825585849351 -0.4966937220871893 0  0.4243600799410056 -0.482217296540138 0  0.5174970769943974 -0.4669127998707596 0  0.6100229106046803 -0.452137257173197 0  0.04617541751256012 -0.5171934938696955 0  -0.7451738244617453 -0.4177616463390372 0  0.5638314518139008 -0.4593865950839373 0  0.4710057469195406 -0.4745811759800871 0  0.3775531694496178 -0.4896465863847054 0  0.2834434756803216 -0.5030646164672614 0  0.1887431832081163 -0.5128952293042963 0  0.09368244852886658 -0.5173295262331471 0  -0.001236698200461067 -0.5156110393783051 0  -0.09564639328073113 -0.5089073385543402 0  -0.1895508414385983 -0.4996166100589632 0  -0.2834198102952649 -0.4873906107306277 0  -0.3768181456726383 -0.4722657430644185 0  -0.4696208414335676 -0.4569482608335264 0  -0.5620462939709095 -0.4419100676294767 0  -0.6540161563457998 -0.428274821091396 0  0.9290397214165945 -0.2430055164103125 0  0.8174567711918808 -0.4173682716053536 0  0.8769520953471831 -0.3755966834361334 0  0.9160575759310043 -0.3145138877333795 0  0.782554792830676 -0.4261316040219911 0  0.8475725473085576 -0.3969903695037856 0  0.895948088482879 -0.3446488889472092 0  0.9222063135415386 -0.2785927917256975 0  0.765090638457368 -0.4308444245200934 0  0.7999509279035204 -0.4215597303795706 0  0.8325256598053308 -0.4072852795802435 0  0.8619396018941023 -0.3857928595584892 0  0.8867835323459097 -0.3602887006210565 0  0.9058161148270192 -0.3295349813220361 0  0.9189693247953495 -0.2964812810980966 0  0.925429573321719 -0.2607646984160327 0  0.9288793973338849 -0.2197801759818802 0  0.9374125026182544 0.2916571758559748 0  0.9363628114491698 0.245301768741502 0  0.9360408386323621 0.198964722145829 0  0.9361064795909552 0.152554327771717 0  0.9363825887326036 0.1059943268609764 0  0.9361473156823943 0.05930161619557662 0  0.9353987983226012 0.01257107045416659 0  0.9341347807193914 -0.03413719794683395 0  0.93234816097303 -0.08072421498496173 0  0.9307333202777073 -0.1271585935997486 0  0.9294649203001821 -0.1734919696390529 0  0.9383576428704017 0.314969351249654 0  0.9367649347730833 0.2684693473081307 0  0.9360387755956414 0.1757727076393729 0  0.9363306274847347 0.08265671381074596 0  0.9348328282740127 -0.0107900807447871 0  0.931510970187058 -0.1039563451849523 0  0.9290574982591943 -0.1966366532588085 0  0.9361430537523484 0.2221378103779896 0  0.93626594092063 0.1293025749740393 0  0.9358354017899144 0.0359373795993897 0  0.9332663088720774 -0.05745798708363965 0  0.9300445249806726 -0.1503352501208719 0  0.7637580466271738 0.512236999527462 0  0.9276242399519173 0.3870474004787325 0  0.8904337413799661 0.4492295837020517 0  0.8325537230984673 0.4927791907944873 0  0.9326840324272192 0.3507877406106061 0  0.9085085305457241 0.4176770944841725 0  0.8619815985958336 0.4715658950831499 0  0.7983019382207361 0.5027006799946619 0  0.935309754040663 0.3328267943118745 0  0.9300047009689919 0.3688330290426143 0  0.9178767492922507 0.4022970391732942 0  0.899845106674408 0.4336285981597387 0  0.8758754490358055 0.4598402728319416 0  0.8472878931597648 0.4822759286493947 0  0.8153871372316547 0.4975620411260446 0  0.781117139075988 0.5079476516016538 0  -0.01906463758849454 0.6501655771471473 0  0.6962367682949927 0.5234963455287833 0  0.6507576811696545 0.5329340134139364 0  0.6049947209676886 0.5431990647545428 0  0.5589658810295186 0.5541494252257902 0  0.5126242689415752 0.5656767133925937 0  0.4659591958558145 0.5774838544943802 0  0.4189516915878801 0.5893629583543992 0  0.3715816905280951 0.6011393239910869 0  0.3238076687776162 0.6124306570619948 0  0.275652285589591 0.6228483753703116 0  0.2271344975793758 0.6320853764385632 0  0.1782735860614877 0.6399031703418657 0  0.1291254787331826 0.6457061507751228 0  0.07979993814254308 0.649348274539989 0  0.03039027484228789 0.6507771371846024 0  0.7414370847525908 0.5150248379317102 0  -0.06844952355339431 0.6468522183133181 0  -0.1176007185362836 0.6412728725196745 0  -0.1664247779290896 0.6337707087330562 0  -0.2147929869375003 0.6245678393543067 0  -0.2627275261432312 0.6150897234747642 0  -0.3103374141576288 0.6053025078786146 0  -0.3576610817625435 0.5953168564160612 0  -0.4047022425432406 0.5852703965231881 0  -0.451517504117865 0.5754683169835537 0  -0.4981275499918316 0.5658549995194347 0  -0.5445381704533785 0.5565116760251339 0  -0.5907469699791537 0.5475354373160404 0  -0.6367383034665871 0.5390518381709706 0  -0.6824995700379438 0.5312635156215744 0  -0.7280252844457028 0.5242833960964804 0  -0.7505491077919435 0.5221587332256437 0  -0.7052722770205775 0.5277788683656505 0  -0.6137702755409949 0.5432162768447019 0  -0.5213578689943322 0.5611441273319985 0  -0.428136922828863 0.5803573269506679 0  -0.3340332331181589 0.6003305316894975 0  -0.2388054522562 0.6198885506492168 0  -0.1420594695510631 0.6377326674534967 0  -0.04377837690966167 0.6488047350853507 0  0.05510112103726771 0.6503450057829159 0  0.1537280584743836 0.6430633542169724 0  0.2514374583356564 0.6276386600958759 0  0.3477427984627821 0.6068802388878045 0  0.4424998384051472 0.5834320290583721 0  0.5358338709999405 0.5598717602940173 0  0.6279115510237455 0.537982756157347 0  0.7188482019886637 0.5192716227154391 0  -0.6596481508574847 0.5350609727342057 0  -0.5676678409307393 0.5519744444238084 0  -0.4748475962734892 0.5706334701259266 0  -0.381219048303529 0.5902615949312844 0  -0.2865701650572232 0.6102281043842056 0  -0.1906927576852082 0.6292792474995665 0  -0.09306078263141868 0.6443230796285505 0  0.005681806081582471 0.6507741358443127 0  0.1044788513563795 0.6478042577885852 0  0.2027521905298465 0.6362076110745347 0  0.2997766894675624 0.6177678608430026 0  0.3953160286925311 0.5952685498967971 0  0.4893332854219827 0.5715581414022882 0  0.5820144230667386 0.5485725622231324 0  0.6735322521410794 0.5281017256809331 0  -0.9288951703503026 0.328493874138311 0  -0.82003547940115 0.5040972804862089 0  -0.8788555489205605 0.461667393297595 0  -0.917077654467091 0.4001805407476149 0  -0.785417863203274 0.5133106427137389 0  -0.849903226381806 0.4834731345287285 0  -0.8973862012737267 0.4304640299795364 0  -0.9226440314622658 0.3641294747990131 0  -0.7680692158505275 0.5182130355256749 0  -0.8026788583026787 0.5085291785417759 0  -0.8349858005199964 0.4939040520218449 0  -0.864036664816788 0.4720191321558975 0  -0.8885023909447415 0.4462531830002648 0  -0.9070346799130854 0.4152676750838741 0  -0.9197029814662704 0.3820746964839772 0  -0.9255410175836776 0.3462633059984059 0  -0.9282855987167925 0.3052599711853228 0  -0.9259739939796477 -0.204416280772205 0  -0.9260952164935362 -0.1582325989661174 0  -0.9268647217640571 -0.1120390532457917 0  -0.9279695851842916 -0.06577030487849314 0  -0.929266895169696 -0.01935912045914258 0  -0.9299894923164764 0.02717318735421385 0  -0.9301574515659026 0.07372633885528769 0  -0.9297809654029557 0.1202440329586671 0  -0.9288655860772993 0.1666318278602752 0  -0.9281733287324964 0.2128764505401355 0  -0.927868927464936 0.2590577104172723 0  -0.9263414396110337 -0.2276089646205455 0  -0.9259244852992833 -0.1813200485121021 0  -0.9273873888967317 -0.08891713213111274 0  -0.9296998090869126 0.003900383264254161 0  -0.9300387539217484 0.09699343922079263 0  -0.928483752703372 0.1897660237013269 0  -0.9279532213859684 0.2821497645471381 0  -0.9264285210000071 -0.1351419468117376 0  -0.9286441826540602 -0.04259297286463303 0  -0.9301398877190299 0.05045073245921901 0  -0.9293451185546138 0.1434661839502452 0  -0.9279633263314697 0.2359705721500562 0  -0.9137362210299926 -0.2990525497282472 0  -0.8746752619289807 -0.3599461672836578 0  -0.8151597027587455 -0.4013600047700453 0  -0.9197679881193563 -0.2631698338468149 0  -0.8937161956326398 -0.3291455110177107 0  -0.8453503908877003 -0.3812782532383078 0  -0.7802646968357114 -0.409845823027258 0  -0.9228759675774106 -0.245354441480155 0  -0.916605492645556 -0.
[...]
<PointData  Vectors="f_44"> 
<DataArray  type="Float64"  Name="f_44"  NumberOfComponents="3" format="ascii">-2.1200351293825126e-01 7.1092318612184555e-02 0.0000000000000000e+00  -2.2198122058582223e-01 2.6961680251378694e-02 0.0000000000000000e+00  -2.2061814408009459e-01 3.6457172315767374e-02 0.0000000000000000e+00  -2.1949377154635683e-01 4.2699670495700733e-02 0.0000000000000000e+00  -2.1907686342366756e-01 4.4772645422901755e-02 0.0000000000000000e+00  -2.1723845020225138e-01 5.2972475351391234e-02 0.0000000000000000e+00  -2.1490621663729020e-01 6.1757752029721592e-02 0.0000000000000000e+00  -2.1304590285980501e-01 6.7898371414951184e-02 0.0000000000000000e+00  -2.1108529379944177e-01 7.3746524738015462e-02 0.0000000000000000e+00  -2.2311289464661119e-01 1.4974499060415977e-02 0.0000000000000000e+00  -2.1161246682647686e-01 7.2255699659872441e-02 0.0000000000000000e+00  -2.1182992774081938e-01 7.1610192960287575e-02 0.0000000000000000e+00  -2.1220657111317587e-01 7.0490807315871332e-02 0.0000000000000000e+00  -2.1359265845688108e-01 6.6169297821373485e-02 0.0000000000000000e+00  -2.1446176914045317e-01 6.3256359731285947e-02 0.0000000000000000e+00  -2.1653961652760964e-01 5.5515272755721927e-02 0.0000000000000000e+00  -2.2011699461036086e-01 3.9182233354647614e-02 0.0000000000000000e+00  -2.1450550068552426e-01 -5.4807981464351237e-02 0.0000000000000000e+00  -2.2361241787273470e-01 1.3270880264968294e-03 0.0000000000000000e+00  -2.2321214904719200e-01 -1.3444845191887459e-02 0.0000000000000000e+00  -2.2182399284146778e-01 -2.8246117569412574e-02 0.0000000000000000e+00  -2.1984322447799398e-01 -4.0888681549884037e-02 0.0000000000000000e+00  -2.1769327340513800e-01 -5.1106544676420486e-02 0.0000000000000000e+00  -2.1557510106976180e-01 -5.9406170912777730e-02 0.0000000000000000e+00  -2.1370721413128180e-01 -6.5802938682581219e-02 0.0000000000000000e+00  -2.1259474820697430e-01 -6.9306701448571470e-02 0.0000000000000000e+00  -2.1192488582572563e-01 -7.1328666827428791e-02 0.0000000000000000e+00  -2.1175825195355971e-01 -7.1821792341679541e-02 0.0000000000000000e+00  -2.1207512716029717e-01 -7.0880180896541259e-02 0.0000000000000000e+00  -2.1281724801206969e-01 -6.8621535362099750e-02 0.0000000000000000e+00  -2.1410464609932164e-01 -6.4470636290638400e-02 0.0000000000000000e+00  -2.1627280442546723e-01 -5.6625592406373000e-02 0.0000000000000000e+00  -2.2089350947483513e-01 -3.7244768778271514e-02 0.0000000000000000e+00  -2.1566152517270207e-01 -5.9629188370920926e-02 0.0000000000000000e+00  -2.1565302284792415e-01 5.9939946831413918e-02 0.0000000000000000e+00  -2.1381820230176432e-01 6.5448267385188150e-02 0.0000000000000000e+00  -2.1193870032018522e-01 7.1288356209767215e-02 0.0000000000000000e+00  -2.1208011226576151e-01 7.0858305019367990e-02 0.0000000000000000e+00  -2.1244044294783374e-01 6.9810322344558084e-02 0.0000000000000000e+00  -2.1585382195537298e-01 5.8419859867314614e-02 0.0000000000000000e+00  -2.1906101465923095e-01 4.4860244017477159e-02 0.0000000000000000e+00  -2.2129548191562426e-01 3.2096178757042022e-02 0.0000000000000000e+00  -2.1469433316499878e-01 -6.2595004788595754e-02 0.0000000000000000e+00  -2.2264335587804798e-01 -2.0854955145290507e-02 0.0000000000000000e+00  -2.1879222625936898e-01 -4.6172220570492424e-02 0.0000000000000000e+00  -2.1455987605882440e-01 -6.2963860486363973e-02 0.0000000000000000e+00  -2.1214904533489617e-01 -7.0661846226412944e-02 0.0000000000000000e+00  -2.1178274352299134e-01 -7.1751496475948362e-02 0.0000000000000000e+00  -2.1329337666495077e-01 -6.7134178750922285e-02 0.0000000000000000e+00  -2.2345842710752067e-01 8.3752113486389342e-03 0.0000000000000000e+00  -2.1670243061467212e-01 4.8931177961203429e-02 0.0000000000000000e+00  -2.1257467757121581e-01 -6.9370411212568220e-02 0.0000000000000000e+00  -2.1175740640741600e-01 -7.1825228365355542e-02 0.0000000000000000e+00  -2.1316361130716041e-01 -6.7539976419697750e-02 0.0000000000000000e+00  -2.1660117797877709e-01 -5.5543873798887387e-02 0.0000000000000000e+00  -2.2084240550701703e-01 -3.5103529295318410e-02 0.0000000000000000e+00  -2.2353668384527689e-01 -5.9963309541676167e-03 0.0000000000000000e+00  -2.2260775067732916e-01 2.1181567305848553e-02 0.0000000000000000e+00  -2.1999262864557578e-01 4.0048776171735259e-02 0.0000000000000000e+00  -2.1880211009016032e-01 4.6149716588190108e-02 0.0000000000000000e+00  -2.1390377660295823e-01 6.5173056289215742e-02 0.0000000000000000e+00  -2.1052403860840152e-01 7.5387349741216553e-02 0.0000000000000000e+00  -2.1177416365826096e-01 7.1774685011435260e-02 0.0000000000000000e+00  -2.1305701961327247e-01 6.7871579333988311e-02 0.0000000000000000e+00  -2.1488152836671220e-01 6.1986929212419106e-02 0.0000000000000000e+00  2.1506770548988477e-01 -3.7141503430515983e-02 0.0000000000000000e+00  -1.4155998606113823e-01 -1.5325135613095411e-01 0.0000000000000000e+00  -2.0143086384213763e-03 -2.0488875767120382e-01 0.0000000000000000e+00  1.4686073217919099e-01 -1.3770772056052835e-01 0.0000000000000000e+00  -1.8871448003664693e-01 -1.1586366158735256e-01 0.0000000000000000e+00  -6.1512720757707570e-02 -2.1012826463979684e-01 0.0000000000000000e+00  1.0100408219623865e-01 -1.9328454321420299e-01 0.0000000000000000e+00  2.0551587211149308e-01 -7.9438905087465830e-02 0.0000000000000000e+00  -1.9607749073933112e-01 -1.1267438447057582e-01 0.0000000000000000e+00  -2.1299195255491962e-01 -9.1122916486636993e-02 0.0000000000000000e+00  -7.4011401120221101e-02 -2.2045458816688601e-01 0.0000000000000000e+00  -8.6832968656297652e-02 -2.1477597680560015e-01 0.0000000000000000e+00  1.2700821951727437e-01 -1.9927697727059787e-01 0.0000000000000000e+00  6.6693657173957269e-02 -2.2696468337821279e-01 0.0000000000000000e+00  2.2819870556275471e-01 -5.7216468296401535e-02 0.0000000000000000e+00  2.0633639265295875e-01 -9.5056552205248238e-02 0.0000000000000000e+00  2.2587913760565553e-01 1.1314047271854873e-02 0.0000000000000000e+00  2.2462820770678862e-01 -2.7072619613383479e-02 0.0000000000000000e+00  2.2364431328321582e-01 -6.6225351977066312e-03 0.0000000000000000e+00  2.2361236156753070e-01 -9.7100904261744245e-04 0.0000000000000000e+00  2.2359342639780405e-01 2.3215811297680974e-03 0.0000000000000000e+00  2.2360406124264201e-01 7.2131941082057840e-04 0.0000000000000000e+00  2.2355684214591773e-01 -4.7249640543418825e-03 0.0000000000000000e+00  2.2340043477506147e-01 -9.6040512894417073e-03 0.0000000000000000e+00  2.2309611518170663e-01 -1.5082629840832116e-02 0.0000000000000000e+00  2.2295909454230961e-01 -1.6991804748888045e-02 0.0000000000000000e+00  2.2316505659135674e-01 -1.4163200110994619e-02 0.0000000000000000e+00  2.2355865562961594e-01 -8.8718360857827465e-03 0.0000000000000000e+00  2.1691549037157867e-01 2.3166887294874889e-02 0.0000000000000000e+00  2.2297943200568446e-01 -6.7550705055970349e-03 0.0000000000000000e+00  2.2360589613972845e-01 6.1066245230823458e-04 0.0000000000000000e+00  2.2359764351274217e-01 -2.3785189163219359e-03 0.0000000000000000e+00  2.2328974736801893e-01 -1.1968778921125672e-02 0.0000000000000000e+00  2.2306780550049890e-01 -1.5511518236107082e-02 0.0000000000000000e+00  2.2292702682844479e-01 -9.0938835632360850e-03 0.0000000000000000e+00  2.2355932226557229e-01 -2.7627753527963272e-03 0.0000000000000000e+00  2.2358665553747545e-01 3.2176964597140276e-03 0.0000000000000000e+00  2.2349404554010327e-01 -7.1597523722960353e-03 0.0000000000000000e+00  2.2291038185481421e-01 -1.7670158334402834e-02 0.0000000000000000e+00  2.2322329098077717e-01 -1.2590686630817405e-02 0.0000000000000000e+00  -2.1087511583798155e-01 7.0485277240553867e-02 0.0000000000000000e+00  1.5503119600983603e-01 1.2835705468392095e-01 0.0000000000000000e+00  1.0227352387686187e-02 2.0512792606870042e-01 0.0000000000000000e+00  -1.3100459489688843e-01 1.6305359847067813e-01 0.0000000000000000e+00  2.1030488878321169e-01 6.5586725850488831e-02 0.0000000000000000e+00  1.1355134389295216e-01 1.8623352833513171e-01 0.0000000000000000e+00  -4.6528565666404731e-02 2.1394065644042981e-01 0.0000000000000000e+00  -1.8015190790636906e-01 1.2916322774712277e-01 0.0000000000000000e+00  2.1209658056165412e-01 8.1428188374887370e-02 0.0000000000000000e+00  2.3126175323077586e-01 4.3266541216742165e-02 0.0000000000000000e+00  8.0165727308160545e-02 2.2261767047573708e-01 0.0000000000000000e+00  1.3859612852247205e-01 1.9118682019278335e-01 0.0000000000000000e+00  -7.0282262639725410e-02 2.2022059817691869e-01 0.0000000000000000e+00  -6.1687072591607869e-02 2.2391455587613746e-01 0.0000000000000000e+00  -2.0562660910645411e-01 1.0618376838846831e-01 0.0000000000000000e+00  -1.8974716620382998e-01 1.2187588755071288e-01 0.0000000000000000e+00  -2.2289788330203197e-01 -1.7907199499911392e-02 0.0000000000000000e+00  -2.0784528246618922e-01 8.2202267615934688e-02 0.0000000000000000e+00  -2.0360530690635709e-01 9.2401884590378805e-02 0.0000000000000000e+00  -2.0106164974081739e-01 9.7850391284105012e-02 0.0000000000000000e+00  -1.9822723260285277e-01 1.0347381896085357e-01 0.0000000000000000e+00  -1.9701561933003828e-01 1.0575829446284661e-01 0.0000000000000000e+00  -1.9655006627094476e-01 1.0662115875044546e-01 0.0000000000000000e+00  -1.9714019845811606e-01 1.0552587872302528e-01 0.0000000000000000e+00  -1.9833529229617416e-01 1.0326490768902739e-01 0.0000000000000000e+00  -2.0165649582218242e-01 9.6626498234715849e-02 0.0000000000000000e+00  -2.0565090788083767e-01 8.7816447302263345e-02 0.0000000000000000e+00  -2.1015289944061166e-01 7.6425169221570610e-02 0.0000000000000000e+00  -2.1501394647240596e-01 6.1431930132564636e-02 0.0000000000000000e+00  -2.1949815200705497e-01 4.2753735338085908e-02 0.0000000000000000e+00  -2.2244310845446993e-01 2.3054646617456275e-02 0.0000000000000000e+00  -2.2359888469266548e-01 3.8538641802448245e-03 0.0000000000000000e+00  -2.1425072561384245e-01 6.3443827076450091e-02 0.0000000000000000e+00  -2.1993820002668038e-01 -4.0370204778955990e-02 0.0000000000000000e+00  -2.1560006434825471e-01 -5.9306194492088855e-02 0.0000000000000000e+00  -2.1042825779998550e-01 -7.5604007281844604e-02 0.0000000000000000e+00  -2.0718403353767592e-01 -8.4102033996608663e-02 0.0000000000000000e+00  -2.0595511557709351e-01 -8.7084647733883330e-02 0.0000000000000000e+00  -2.0494091136530390e-01 -8.9439799436103293e-02 0.0000000000000000e+00  -2.0405545957776955e-01 -9.1439764804682397e-02 0.0000000000000000e+00  -2.0458374783055389e-01 -9.0252096618358077e-02 0.0000000000000000e+00  -2.0499656589226398e-01 -8.9310256885489062e-02 0.0000000000000000e+00  -2.0571908901456973e-01 -8.7633763858231878e-02 0.0000000000000000e+00  -2.0672391770541571e-01 -8.5236656532775179e-02 0.0000000000000000e+00  -2.0799603585574045e-01 -8.2082437996926855e-02 0.0000000000000000e+00  -2.0994684320087559e-01 -7.6924988391955731e-02 0.0000000000000000e+00  -2.1296580203773749e-01 -6.7907935893011986e-02 0.0000000000000000e+00  -2.1814060678017336e-01 -4.9142280458365162e-02 0.0000000000000000e+00  -2.1393370994184918e-01 -5.9563251350316024e-02 0.0000000000000000e+00  -2.1222671254535339e-01 -7.1225228072689009e-02 0.0000000000000000e+00  -2.0884544069968808e-01 -7.9911933543820160e-02 0.0000000000000000e+00  -2.0616971530196374e-01 -8.6569493792389540e-02 0.0000000000000000e+00  -2.0484212725605985e-01 -8.9665232647173437e-02 0.0000000000000000e+00  -2.0456546683906851e-01 -9.0294858137961481e-02 0.0000000000000000e+00  -2.0687983459475637e-01 -8.4853171641271236e-02 0.0000000000000000e+00  -2.1338057164185639e-01 -6.6958221851520353e-02 0.0000000000000000e+00  -2.2159954855393904e-01 -3.0223482748497107e-02 0.0000000000000000e+00  -2.2325179582856672e-01 1.2650432152541019e-02 0.0000000000000000e+00  -2.1748689250904540e-01 5.2051557832205296e-02 0.0000000000000000e+00  -2.0796261531642066e-01 8.2174380282522219e-02 0.0000000000000000e+00  -1.9991065112236661e-01 1.0018303898427700e-01 0.0000000000000000e+00  -1.9671952475789173e-01 1.0630834763171007e-01 0.0000000000000000e+00  -1.9751096047641875e-01 1.0483114844702277e-01 0.0000000000000000e+00  -2.0210365640993300e-01 9.5693952136790758e-02 0.0000000000000000e+00  -2.0712249162168969e-01 8.5046179723896331e-02 0.0000000000000000e+00  -2.1078976134690158e-01 -7.4740089333905746e-02 0.0000000000000000e+00  -2.0733588297152017e-01 -8.3739322677131106e-02 0.0000000000000000e+00  -2.0535928001722362e-01 -8.8474459305481812e-02 0.0000000000000000e+00  -2.0398790277498111e-01 -9.1592186508206122e-02 0.0000000000000000e+00  -2.0548519896863485e-01 -8.8178867364396646e-02 0.0000000000000000e+00  -2.0755305698639109e-01 -8.3248377326857317e-02 0.0000000000000000e+00  -2.1791767740027868e-01 -5.0243828812840480e-02 0.0000000000000000e+00  -2.2358325609183677e-01 -4.7732902829984419e-03 0.0000000000000000e+00  -2.2120391687582605e-01 3.2798422277554952e-02 0.0000000000000000e+00  -2.1232366050198112e-01 7.0174311712506848e-02 0.0000000000000000e+00  -2.0357270184825291e-01 9.2516592594280161e-02 0.0000000000000000e+00  -1.9749385863417332e-01 1.0486441150797614e-01 0.0000000000000000e+00  -1.9665779616646231e-01 1.0642272266536731e-01 0.0000000000000000e+00  -1.9964780775672403e-01 1.0070218699950316e-01 0.0000000000000000e+00  -2.0484282056988673e-01 8.9796542299631230e-02 0.0000000000000000e+00  2.1588800977929393e-01 -3.0136094466156699e-02 0.0000000000000000e+00  -1.3799352162255463e-01 -1.5712773694168516e-01 0.0000000000000000e+00  2.3906541134024722e-03 -2.0510877642794886e-01 0.0000000000000000e+00  1.5034342248054075e-01 -1.3314011331775161e-01 0.0000000000000000e+00  -1.8555604530307354e-01 -1.2115093665419932e-01 0.0000000000000000e+00  -5.4838987197425568e-02 -2.1192743599956737e-01 0.0000000000000000e+00  1.0725252605262241e-01 -1.8979518089146863e-01 0.0000000000000000e+00  2.0817807888346410e-01 -7.1942513567682859e-02 0.0000000000000000e+00  -1.9454162931461835e-01 -1.1448542758748433e-01 0.0000000000000000e+00  -2.1009032529820681e-01 -9.7122252320574115e-02 0.0000000000000000e+00  -7.0670764870245942e-02 -2.2133031019757138e-01 0.0000000000000000e+00  -7.9220400544202652e-02 -2.1728676720383699e-01 0.0000000000000000e+00  1.3297271923696374e-01 -1.9545656039458942e-01 0.0000000000000000e+00  7.1598465487718477e-02 -2.2581444411994389e-01 0.0000000000000000e+00  2.3014913292717473e-01 -4.9830365070227735e-02 0.0000000000000000e+00  2.0926347716692204e-01 -8.8598897577508398e-02 0.0000000000000000e+00  2.2537913034623228e-01 2.1016989262909250e-02 0.0000000000000000e+00  2.2566051469026033e-01 -1.5580769561570253e-02 0.0000000000000000e+00  2.2369917150346669e-01 4.2235483780996676e-03 0.0000000000000000e+00  2.2342053397097281e-01 9.3068966550986561e-03 0.0000000000000000e+00  2.2326915241503731e-01 1.2252866460806837e-02 0.0000000000000000e+00  2.2336984690220807e-01 1.0247094741684422e-02 0.0000000000000000e+00  2.2356641790708320e-01 4.2413792469341606e-03 0.0000000000000000e+00  2.2360456816540969e-01 -9.8791284984458150e-04 0.0000000000000000e+00  2.2350209005098312e-01 -6.7833036736097679e-03 0.0000000000000000e+00  2.2344536707955440e-01 -8.4547870657349714e-03 0.0000000000000000e+00  2.2355748675473258e-01 -5.0698755805285451e-03 0.0000000000000000e+00  2.2374904911742907e-01 5.0679475107453728e-04 0.0000000000000000e+00  2.1562080801515326e-01 3.3494409756808154e-02 0.0000000000000000e+00  2.2305030871518175e-01 4.6008563636896899e-03 0.0000000000000000e+00  2.2335441413587628e-01 1.0619153578570961e-02 0.0000000000000000e+00  2.2350802294210537e-01 6.7926553370220551e-03 0.0000000000000000e+00  2.2358357832344569e-01 -3.4864377864870519e-03 0.0000000000000000e+00  2.2350762893484927e-01 -6.6579066371321768e-03 0.0000000000000000e+00  2.2305410892135752e-01 6.6568874228117988e-04 0.0000000000000000e+00  2.2344087973249610e-01 7.7885123629838054e-03 0.0000000000000000e+00  2.2322579730448863e-01 1.3112041616151407e-02 0.0000000000000000e+00  2.2360325809206327e-01 1.6067494383743537e-03 0.0000000000000000e+00  2.2341157554858126e-01 -9.4232296554164971e-03 0.0000000000000000e+00  2.2355022727886423e-01 -3.2804250149120265e-03 0.0000000000000000e+00  1.4744920434161959e-01 1.3712691992473916e-01 0.0000000000000000e+00  -3.4216434915410538e-03 2.0518329689255907e-01 0.0000000000000000e+00  -1.4365434423178164e-01 1.5168316498389403e-01 0.0000000000000000e+00  2.0624634505267303e-01 7.7306707149574383e-02 0.0000000000000000e+00  1.0088623687407126e-01 1.9333587969014854e-01 0.0000000000000000e+00  -6.2949461932480466e-02 2.0958541795918970e-01 0.0000000000000000e+00  -1.9129995227401150e-01 1.1174102584228367e-01 0.0000000000000000e+00  2.0771566947498704e-01 9.2178759739623070e-02 0.0000000000000000e+00  2.2854093493347771e-01 5.6003420102530718e-02 0.0000000000000000e+00  6.7453045951670301e-02 2.2673955420074365e-01 0.0000000000000000e+00  1.2545968457283443e-01 2.0011982688845636e-01 0.0000000000000000e+00  -8.6421992826304542e-02 2.1471760832675083e-01 0.0000000000000000e+00  -7.8056813923834123e-02 2.1895546045283493e-01 0.0000000000000000e+00  -2.1418017524662142e-01 8.8134747710141709e-02 0.0000000000000000e+00  -2.0049654427861333e-01 1.0358556313759690e-01 0.0000000000000000e+00  -1.1634825817380935e-01 -1.9113860150290929e-01 0.0000000000000000e+00  -1.6783843311953472e-01 -1.4791210095846943e-01 0.0000000000000000e+00  -2.1403892723553394e-01 6.4903814994366732e-02 0.0000000000000000e+00  -7.9884042385109752e-02 2.0905767283848575e-01 0.0000000000000000e+00  -4.5782590131564826e-02 2.1909430565407995e-01 0.0000000000000000e+00  -2.1419490548460454e-01 6.4626732938843745e-02 0.0000000000000000e+00  1.7579256073583147e-01 -1.3842339357903993e-01 0.0000000000000000e+00  1.8924488406199164e-01 -1.1934414492072383e-01 0.0000000000000000e+00  1.8113387754556148e-01 1.3132482281171542e-01 0.0000000000000000e+00  1.9603917054020314e-01 1.0779639187502733e-01 0.0000000000000000e+00  3.0093340615610980e-03 2.2383262384184785e-01 0.0000000000000000e+00  1.7056901426606441e-01 1.4488366249934637e-01 0.0000000000000000e+00  1.6040669953211939e-01 1.5632082722107860e-01 0.0000000000000000e+00  2.1272788703113907e-01 -6.9606186697685951e-02 0.0000000000000000e+00  1.7847541234001194e-01 -1.3534489459893848e-01 0.0000000000000000e+00  2.2189662598886215e-01 -2.8661215818488062e-02 0.0000000000000000e+00  1.0144305863750674e-01 2.0086333215449953e-01 0.0000000000000000e+00  -1.4008493628735541e-02 -2.2382020000139746e-01 0.0000000000000000e+00  -1.6595766675656909e-01 -1.5212076977747002e-01 0.0000000000000000e+00  -1.6014301972208189e-01 1.5800277323044948e-01 0.0000000000000000e+00  1.0982764423558945e-01 -1.9562768987111387e-01 0.0000000000000000e+00  1.1392122323322211e-01 1.9298376366586587e-01 0.0000000000000000e+00  2.2356709712912853e-01 -1.1032499931272532e-02 0.0000000000000000e+00  -3.0792548566256888e-02 2.2171854250904410e-01 0.0000000000000000e+00  1.3821908247519257e-01 1.7598607947414793e-01 0.0000000000000000e+00  2.2334006012298382e-01 1.3240959355526393e-02 0.0000000000000000e+00  1.5146734010631840e-01 -1.6473858776918121e-01 0.0000000000000000e+00  -5.6892517277577492e-02 -2.1648060202456557e-01 0.0000000000000000e+00  -1.9048843253017320e-01 -1.1742505905653693e-01 0.0000000000000000e+00  -1.8267778811694481e-02 -2.2309827770465432e-01 0.0000000000000000e+00  -7.1503460378324737e-02 -2.1205220610894340e-01 0.0000000000000000e+00  -1.1830113988609578e-01 1.9000582271138031e-01 0.0000000000000000e+00  3.5224592404367684e-02 -2.2102812579517883e-01 0.0000000000000000e+00  -2.1491461197244432e-01 -6.1990186726721234e-02 0.0000000000000000e+00  -1.2513525218297655e-01 1.8555940626548609e-01 0.0000000000000000e+00  1.0198838979106009e-01 -1.9920662225638683e-01 0.0000000000000000e+00  1.1528531417008954e-01 1.9188073390644339e-01 0.0000000000000000e+00  2.2375584292457124e-01 5.0557606548550099e-03 0.0000000000000000e+00  -1.1765470093027532e-01 -1.9032142836286212e-01 0.0000000000000000e+00  5.6973687039398722e-02 -2.1639508295108456e