<?xml version="1.0"?>
<VTKFile type="UnstructuredGrid"  version="0.1"  >
<UnstructuredGrid>
<Piece  NumberOfPoints="2549" NumberOfCells="4928">
<Points>
<DataArray  type="Float64"  NumberOfComponents="3"  format="ascii">1.468297489787079 0.01496077114224658 0  1.464253105731025 0.03784641862003293 0  1.441183512789286 0.04897359567602403 0  1.427523165954807 0.0650743963530096 0  1.421289301541751 0.07587941306982532 0  1.422530523009615 0.09767550749872483 0  1.403868721245638 0.1061524130317939 0  1.37525267751485 0.1131853210705933 0  1.37554188095329 0.1484026239395276 0  1.472713002461159 0.1466072006098639 0  1.363375100516938 0.1652883565702735 0  1.354807572469597 0.1906540651103902 0  1.343857888733243 0.2187438324799424 0  1.336325415834685 0.2481209223644187 0  1.330875822502815 0.2779115518110621 0  1.312636966155134 0.3101164871247986 0  1.30694609112237 0.3431052135623053 0  1.29368981133856 0.3577782378725614 0  1.273263338668899 0.4108726852482489 0  1.259281524783114 0.4472396263408825 0  1.24403560845728 0.4934883107794575 0  1.225099689505175 0.5381833784543091 0  1.205045978870653 0.5860885936491428 0  1.180771458390527 0.6377204081702054 0  1.153885603413034 0.6895198376502224 0  1.12455290596597 0.7311516550730167 0  1.093327371825173 0.785127077487644 0  1.059551814908605 0.8400583933597281 0  1.021023392189109 0.8952682903121681 0  0.9789794462861263 0.9512958943576154 0  0.9327316140205126 1.007059881632857 0  0.8818786404925079 1.063366765936392 0  0.8262540484396207 1.116775959929804 0  0.7678148818386928 1.167392742740097 0  0.7030916433046652 1.219715676962088 0  0.6343671619739631 1.267651728853096 0  0.5607181576994942 1.312409240362125 0  0.4828491244550639 1.352897079428768 0  0.4008938842205446 1.388241479279585 0  0.3154243937038244 1.418917119827787 0  0.2264685238156505 1.442075831762689 0  0.1362701512859271 1.458376790373156 0  0.04378556863453881 1.469399157804341 0  -0.04929992323691054 1.471860653432731 0  -0.1422059738170222 1.467278646108774 0  -0.2341787705699503 1.454813754395224 0  -0.3240181467894731 1.435479611600545 0  -0.411569025106317 1.407589520844974 0  -0.4947015121956604 1.376366287734881 0  -0.5752360942491773 1.337982674187462 0  -0.6511568382607751 1.29286569407629 0  -0.7222302411609497 1.244454848977247 0  -0.788204714515077 1.191728885069194 0  -0.8497074192014502 1.136125345595066 0  -0.9044728769294821 1.078818089926978 0  -0.9580103170181659 1.017511297785227 0  -1.000877462197888 0.9646011052506567 0  -1.045630729256965 0.9095285783695484 0  -1.084717060425095 0.8476988651802158 0  -1.118639126822073 0.7893075199885472 0  -1.148091337189864 0.7327736658367172 0  -1.175600881225725 0.6748709463131272 0  -1.203301983643257 0.6281970694190904 0  -1.213276979467561 0.5552814796711423 0  -1.223830832228507 0.5192348782939865 0  -1.26289196585701 0.499709800407694 0  -1.273918333950327 0.4513695604022126 0  -1.286499735857143 0.4132715444495469 0  -1.297192003143069 0.3759124520502474 0  -1.319602157872046 0.3500718895914028 0  -1.323091362166505 0.3012711362697512 0  -1.314859549589267 0.3323778612883208 0  -1.375468665419733 0.2908754718574506 0  -1.364567146792877 0.1975226768349816 0  -1.369125324722577 0.1719152421698675 0  -1.367077712967807 0.1383860155333277 0  -1.376414034038213 0.1191131744105068 0  -1.372287458734874 0.09197130059796156 0  -1.393526620557443 0.1020518469955112 0  -1.365047687317416 0.02744879491466956 0  -1.414017492178633 0.09400115540859744 0  -1.473665365628499 0.117765286342365 0  -1.467223718871872 0.05858902920070282 0  -1.472400471015433 0.03311602644518005 0  -1.492706212885181 0.002638647004635911 0  -1.469733604434051 -0.01866104819030102 0  -1.44908776930226 -0.04575299096229937 0  -1.302190727052458 -0.2003778636938474 0  -1.38097614001441 -0.03491677115074107 0  -1.429250210906106 0.2912423838244802 0  -1.424561502805322 -0.06638564833820602 0  -1.456575493154289 0.001369783998006408 0  -1.410069097653124 -0.123156490040277 0  -1.381027604923299 -0.08933435265100209 0  -1.364678724047367 -0.1012174186739636 0  -1.372511194724248 -0.124016593801107 0  -1.390349299393517 -0.2410019696573162 0  -1.276332637752619 -0.2763539940617609 0  -1.351019845728792 -0.2426098736079593 0  -1.339646824147686 -0.3071424435618644 0  -1.305315832551192 -0.3182588959703725 0  -1.320333165067575 -0.3653104604651627 0  -1.304727760238716 -0.4044040158426059 0  -1.315413214007638 -0.4701916774525193 0  -1.219832758243264 -0.453518956795638 0  -1.197107652274552 -0.4862814379415701 0  -1.267190298537291 -0.586711538655338 0  -1.217292688448622 -0.6311389704255597 0  -1.186773014910683 -0.6917402214114918 0  -1.167931672987392 -0.7570194799947073 0  -1.136309345746096 -0.8191321108726342 0  -1.112988688455432 -0.8995624286521462 0  -1.046325585395159 -0.9379240463844094 0  -1.003640769099068 -0.9972441911504742 0  -0.9651010316892349 -1.083809930666702 0  -0.9065057062026609 -1.144204733986662 0  -0.8443016487974186 -1.210408140143771 0  -0.7779543138535344 -1.27204405105029 0  -0.7055217002387395 -1.329909670463872 0  -0.6258215710765194 -1.383835145297924 0  -0.5435433791188611 -1.432941724352236 0  -0.4572646845716018 -1.471334871513045 0  -0.3638325405210741 -1.507534045367391 0  -0.2692605960762749 -1.535443360916473 0  -0.1705539488900547 -1.554512203692872 0  -0.07063007638883062 -1.564881745701067 0  0.03022375219577436 -1.566226892858403 0  0.1306781897443904 -1.558365922826286 0  0.2297885752736543 -1.541725804745721 0  0.3262816829943129 -1.516463821733321 0  0.4195817898448841 -1.483521575835701 0  0.5087828239387406 -1.443304765538685 0  0.593134558563737 -1.396821025196066 0  0.6725634909366034 -1.344635006280218 0  0.745316940892767 -1.288648198066583 0  0.8149209492986101 -1.227004629176018 0  0.8746417397861876 -1.170015852079793 0  0.9318544051737844 -1.108398380972826 0  0.9850855025792132 -1.042536365639125 0  1.031345074011324 -0.9781468825822266 0  1.072957727949913 -0.9136083263002532 0  1.110648202138278 -0.850774592005908 0  1.14234086452477 -0.7881420779710676 0  1.171599602019107 -0.7278317999112862 0  1.201365147641691 -0.6808838254325338 0  1.223356433923198 -0.6217015912571373 0  1.245636548426951 -0.5652555510352092 0  1.262903083553254 -0.5118749764735746 0  1.278247605527845 -0.4627594093426126 0  1.287043215655433 -0.4102180660905272 0  1.301209495404969 -0.3742682062618786 0  1.318743279904159 -0.3004525576317197 0  1.283458458051409 -0.2816576297470409 0  1.332753357279112 -0.2866289870888075 0  1.351424780543745 -0.2411111361612517 0  1.352534358410432 -0.2083223682934317 0  1.358571509934227 -0.1745465136595796 0  1.364531456777407 -0.1432884929152307 0  1.361654987133635 -0.1143463620117235 0  1.477209642455449 0.06712339096550382 0  1.393961864780999 -0.1058847425338972 0  1.389506265680173 -0.1085523291556838 0  1.400878401326796 -0.0723150631849319 0  1.423599013879826 -0.05887629636422305 0  1.423839569235655 -0.04085227505520133 0  1.434034707991166 -0.02722562316768593 0  1.44097757025133 -0.01376592645289438 0  1.46143876879641 -0.005389960603295278 0  -0.09056833171260831 0.8931652218723458 0  0.682642870512427 -0.5103272967745046 0  -0.8005029302301451 -0.3846850784591158 0  -0.07737498134620142 -0.9510350343789421 0  0.6532661171281575 0.4939924362600232 0  1.083429407982456 0.1085029593457906 0  -0.7917129052854954 0.4093737264237722 0  -1.150572553978571 0.03099409288111783 0  1.09101362051482 -0.06921043831503371 0  -1.030956936308956 -0.172035598066771 0  -0.7288904407191131 0.01722355066846305 0  -0.436599067327715 -0.1386955564334064 0  -1.024097181359893 0.2123729793747525 0  0.3777213878448469 -0.8380380742382316 0  0.07825451455228637 -0.3060475119399572 0  0.3128912884464092 0.7724635146751444 0  0.2179950983743378 0.187333855765688 0  0.5564685056266743 0.01320764677872535 0  -0.4808282056114519 -0.7005281696947477 0  -0.4999206722068047 0.6995991115757988 0  -0.240155308415269 0.3159005963326172 0  0.9083076080984934 -0.2165353803137091 0  0.893737900407563 0.2406944082053583 0  0.3459067834940389 -0.2188750874363448 0  -0.01154662257079979 0.2434756342379599 0  -0.4900616840398423 0.2156133662110938 0  -0.1883686349739452 -0.2793067055266325 0  0.8554636063019531 0.01708456708817636 0  1.242495377119934 0.02192793845433489 0  0.7954998459934266 -0.3440493671804553 0  0.7111481382502527 -0.1116338425530831 0  0.5777910665110773 -0.2125242809273391 0  0.434871167950176 -0.08056355825961106 0  0.5063376740855715 -0.3761258993325026 0  0.8558519662969436 -0.08744486316418471 0  0.7081704568726891 0.01491169800688176 0  -0.8552056094950612 0.1258801994882995 0  -1.068121055629411 0.103263057929123 0  -0.9437260244451207 0.02588499632739337 0  -0.8607373896354136 -0.08626176580903606 0  -1.070070599941958 -0.04923416576185059 0  -1.232791281765027 -0.07964854315654925 0  -1.305810916225317 0.00447266179460266 0  -1.303299276290605 0.060105941920001 0  -1.225726438643542 0.1416885017733277 0  -0.1303515373131388 -0.6168336171591959 0  -0.3003306756020903 -0.5075570947052147 0  -0.2923461444452115 -0.8483503265490949 0  -0.3081493655825003 -0.2018452444091735 0  -0.4492355448998334 -0.4045000605689084 0  -1.222418982202426 -0.1968008227598081 0  -1.208351188218351 0.2467814704431697 0  0.3765441299432707 -0.5085292017536422 0  0.2096590631292605 -0.2494696458619589 0  0.2380287456839561 -0.5670213588947016 0  -0.9083282273321466 0.2952634377697383 0  -0.724213172783623 0.1947116745819812 0  1.26156952385692 -0.08639085845119968 0  1.196020440072123 -0.1803664441824794 0  1.183408502692448 0.2185560529587223 0  1.253033400005608 0.1288919693607284 0  -0.9114849693601863 -0.6513771174102274 0  -1.037922053578054 -0.4424244188031254 0  -1.018483202451429 0.4787981341834029 0  -0.8840190170726374 0.6680154960949487 0  0.9353357210154329 -0.6075589605446818 0  0.7725538061881816 -0.8270347728540951 0  0.739215252343544 0.7894564081716583 0  0.9041269679745955 0.6009625816857909 0  0.04
[...]
<PointData  Vectors="f_48"> 
<DataArray  type="Float64"  Name="f_48"  NumberOfComponents="3" format="ascii">7.2860599810633157e-08 1.6434882894517582e-07 0.0000000000000000e+00  -5.2863894000318402e-07 4.1977836062493641e-07 0.0000000000000000e+00  -1.1328701624709522e-06 -4.9589715047437818e-07 0.0000000000000000e+00  -1.3772481396827415e-06 3.6056007742266156e-07 0.0000000000000000e+00  -1.5041696387801143e-06 2.2130652966866387e-06 0.0000000000000000e+00  -6.6951435622189403e-07 8.2302136741843703e-07 0.0000000000000000e+00  -3.7174252270881110e-07 -4.7118108925200965e-06 0.0000000000000000e+00  -3.9337928613066011e-06 1.6777981954464094e-06 0.0000000000000000e+00  -1.7472268206157816e-06 -5.1230547062129068e-06 0.0000000000000000e+00  -2.9462700315975592e-06 9.3128934366261182e-07 0.0000000000000000e+00  9.0234076759308603e-06 1.0039653255486145e-06 0.0000000000000000e+00  -7.6925781276039851e-06 8.4910801354399002e-06 0.0000000000000000e+00  -5.1925218905085182e-06 5.6972001553124316e-06 0.0000000000000000e+00  3.0392222266441364e-06 5.3192265287528864e-06 0.0000000000000000e+00  -4.2915028142205214e-06 1.4854453774838423e-06 0.0000000000000000e+00  -2.0326475872781514e-06 4.5696304666890711e-06 0.0000000000000000e+00  6.3100740789786482e-07 4.9518416924639028e-06 0.0000000000000000e+00  -1.1493745560695168e-05 -2.3971573102225241e-06 0.0000000000000000e+00  2.3641194795876736e-06 4.4509463443046036e-06 0.0000000000000000e+00  -3.6056152333651580e-06 3.7325861409405994e-06 0.0000000000000000e+00  -7.4685433961450203e-07 4.1494043175083434e-06 0.0000000000000000e+00  -4.0928076865682398e-06 1.4189457849030802e-06 0.0000000000000000e+00  -2.5735146108745622e-06 3.3280534217286015e-06 0.0000000000000000e+00  1.1763814267203410e-07 5.3741447534492654e-06 0.0000000000000000e+00  -6.2063741019415969e-06 -2.6572308786307780e-06 0.0000000000000000e+00  -7.0747263146323302e-06 -4.6723382961651911e-06 0.0000000000000000e+00  1.3756305835448191e-06 9.7832578443654684e-06 0.0000000000000000e+00  -4.3937225725655911e-06 -1.8302922088506435e-07 0.0000000000000000e+00  -2.8445031328685162e-06 2.0926640081846500e-06 0.0000000000000000e+00  -3.4002146455463779e-06 1.6267661681390012e-06 0.0000000000000000e+00  -2.8597484025221657e-06 2.4613858775586519e-06 0.0000000000000000e+00  -3.4290518441690002e-06 2.2240705755738984e-06 0.0000000000000000e+00  -2.8554935279270864e-06 -2.3329155450004804e-06 0.0000000000000000e+00  -3.3252516721134598e-06 2.0056874476397602e-06 0.0000000000000000e+00  -3.8098911114616276e-06 1.9532568987314199e-06 0.0000000000000000e+00  -2.7534680006285776e-06 -3.8849386222794735e-07 0.0000000000000000e+00  -3.5829651442050853e-06 8.2928512201436364e-07 0.0000000000000000e+00  -2.5841061670795821e-06 -9.0789576181258263e-07 0.0000000000000000e+00  -3.1567821811186198e-06 -1.5385005924707278e-08 0.0000000000000000e+00  -3.1500564679737583e-06 -7.2884882921496469e-07 0.0000000000000000e+00  -1.2732967808458390e-07 -2.0712377017530949e-06 0.0000000000000000e+00  -1.5956037520500697e-06 -1.3234938705362105e-06 0.0000000000000000e+00  -9.0172987045338605e-07 -1.7549530647921794e-06 0.0000000000000000e+00  7.4877523615519898e-08 -1.3608623076195461e-06 0.0000000000000000e+00  1.6417192509113515e-07 -1.4356221572006338e-06 0.0000000000000000e+00  5.6031179577807755e-08 -1.0556183340846789e-06 0.0000000000000000e+00  1.0297676448572668e-06 -6.4507847039078989e-07 0.0000000000000000e+00  6.3956533509107523e-07 -2.8462516090174693e-07 0.0000000000000000e+00  7.2002783480165316e-08 -7.7163622519549326e-07 0.0000000000000000e+00  6.7507408875302968e-07 3.9313873416451164e-07 0.0000000000000000e+00  1.1334490548565819e-07 9.5405143045363990e-08 0.0000000000000000e+00  -6.3785948268639195e-08 8.5897841596590145e-08 0.0000000000000000e+00  -2.9773071359598244e-07 9.6937572449930627e-09 0.0000000000000000e+00  -5.1919559903721022e-07 -2.3702039600046777e-07 0.0000000000000000e+00  -5.8861872987891668e-07 -3.9313630932191666e-07 0.0000000000000000e+00  -7.2722107635486817e-07 -9.0501188394008759e-07 0.0000000000000000e+00  -8.6155276279718791e-07 6.5220955159030838e-07 0.0000000000000000e+00  -1.3566943314614698e-06 1.1975788790766745e-07 0.0000000000000000e+00  1.9028612960585747e-08 -2.4333333733576850e-06 0.0000000000000000e+00  -1.5794611550796434e-06 4.5033357136459572e-07 0.0000000000000000e+00  5.0725498653669815e-07 -3.8955950424830765e-06 0.0000000000000000e+00  -2.7705603218344356e-06 4.1226963922056155e-06 0.0000000000000000e+00  -2.0090127176743272e-06 -2.8381992113812055e-06 0.0000000000000000e+00  6.2069332265007505e-06 -2.7825919489377327e-06 0.0000000000000000e+00  -3.1296730259455689e-06 6.6429243988204731e-07 0.0000000000000000e+00  -1.6376863725719985e-06 -1.2100641738186957e-06 0.0000000000000000e+00  3.0759647567781983e-06 -2.3146588454226230e-06 0.0000000000000000e+00  1.5425908380309395e-07 -1.6930570919493114e-06 0.0000000000000000e+00  -1.6935571783358982e-06 -4.9759218259026863e-08 0.0000000000000000e+00  -1.6020353400684881e-06 -1.2190548048599280e-06 0.0000000000000000e+00  3.2573979251341619e-06 -2.2149637458269613e-06 0.0000000000000000e+00  -2.8825038310678355e-07 7.4355439085882047e-07 0.0000000000000000e+00  -8.8769165832385776e-07 -1.4671434216705203e-06 0.0000000000000000e+00  3.1468404469931941e-06 -1.3070509979811042e-06 0.0000000000000000e+00  -6.5568338479369115e-07 5.4919928216703893e-07 0.0000000000000000e+00  -1.1586892540826583e-06 -7.5582087867562829e-06 0.0000000000000000e+00  -3.4942222194887868e-07 3.2888859686207200e-06 0.0000000000000000e+00  2.2902366202666633e-06 -1.9348665301308113e-06 0.0000000000000000e+00  2.4790148035666772e-06 -1.0519366389390732e-06 0.0000000000000000e+00  -1.0700339398349313e-06 -7.6283489716940276e-07 0.0000000000000000e+00  1.3832854826378938e-06 4.1306264700297434e-07 0.0000000000000000e+00  1.0292569031468542e-06 -1.4707182618582109e-07 0.0000000000000000e+00  -7.3708076197640790e-07 -5.8107781480144449e-07 0.0000000000000000e+00  -1.2466935209235510e-06 6.2345036076362707e-07 0.0000000000000000e+00  8.9305032263658652e-07 -1.7500658508145721e-06 0.0000000000000000e+00  7.9020711905189851e-07 1.1299072320828586e-06 0.0000000000000000e+00  5.5082182201325008e-07 -1.3430673771013269e-07 0.0000000000000000e+00  2.3667474427358652e-07 2.2687676135686920e-07 0.0000000000000000e+00  2.6223137677286817e-07 -3.6700565798057926e-07 0.0000000000000000e+00  -5.7104801839064602e-07 9.6686769219512542e-09 0.0000000000000000e+00  1.5847317373243058e-08 -1.8905920428346601e-07 0.0000000000000000e+00  1.1452917722441556e-07 -6.8383880165925470e-08 0.0000000000000000e+00  2.1075286698793494e-07 1.2741861906076189e-07 0.0000000000000000e+00  1.1619692493409088e-07 2.7351457507814190e-07 0.0000000000000000e+00  3.1306482836044107e-07 1.9542463846297236e-07 0.0000000000000000e+00  -5.7172999563444497e-07 1.7465897953182110e-07 0.0000000000000000e+00  5.7856864402568069e-07 4.0676187669312435e-08 0.0000000000000000e+00  7.0170718805654974e-08 -2.2076880511535841e-08 0.0000000000000000e+00  1.9553948520044103e-07 2.9393773837323564e-07 0.0000000000000000e+00  -5.8917493012753914e-07 -4.3934965508150161e-07 0.0000000000000000e+00  -2.1733446388404201e-06 6.5656379417842709e-06 0.0000000000000000e+00  9.9928384407981650e-07 9.5826487254404420e-08 0.0000000000000000e+00  4.2853755571437320e-06 4.6629446216113891e-06 0.0000000000000000e+00  -5.1943391397677331e-06 -1.6714233815178719e-06 0.0000000000000000e+00  -1.6706463641535582e-06 3.0155541793244703e-06 0.0000000000000000e+00  3.9800394749220374e-08 8.2919001987013994e-06 0.0000000000000000e+00  4.3997031094379801e-06 5.5926841898008866e-06 0.0000000000000000e+00  -1.0343388962711583e-05 -1.3668571461145410e-05 0.0000000000000000e+00  4.2170396810213570e-06 4.9506033617324492e-06 0.0000000000000000e+00  -5.3503355394432444e-06 1.0330192246074890e-06 0.0000000000000000e+00  1.0750280480119857e-05 6.9798460917070617e-06 0.0000000000000000e+00  -4.5119543806782789e-06 6.7689227185453191e-06 0.0000000000000000e+00  -1.0331609962136292e-06 -7.5066996274825048e-06 0.0000000000000000e+00  6.2206178753336835e-06 1.1023537853383565e-05 0.0000000000000000e+00  -5.4407220239298865e-06 1.4826211343779120e-06 0.0000000000000000e+00  8.2500310216622256e-07 -9.1145906546141685e-06 0.0000000000000000e+00  -2.9660329656429824e-06 5.5809235706964897e-06 0.0000000000000000e+00  -9.4686974208909529e-07 3.2822131796064778e-08 0.0000000000000000e+00  -1.8605098051029813e-06 8.7581480829984731e-07 0.0000000000000000e+00  -1.7447641750752347e-06 1.5689444942773486e-06 0.0000000000000000e+00  -1.2776700193485454e-06 -2.3137149366137167e-07 0.0000000000000000e+00  -2.1300148224753817e-07 -5.9882995079470156e-07 0.0000000000000000e+00  -1.2686560197957430e-06 1.1134035306479124e-07 0.0000000000000000e+00  -2.1113337976447944e-07 -3.9894064390044325e-07 0.0000000000000000e+00  -1.8770320864927790e-07 -2.1136833735553710e-07 0.0000000000000000e+00  -1.8951522541793408e-08 -1.0907040505324263e-07 0.0000000000000000e+00  7.9633780566444661e-09 5.7570481742387754e-08 0.0000000000000000e+00  -2.9774218207150052e-08 2.1223238508469370e-07 0.0000000000000000e+00  -2.5670557175368097e-07 2.7307329256414139e-07 0.0000000000000000e+00  -4.9900235530639212e-07 2.5434889416951407e-07 0.0000000000000000e+00  -7.0336591060296466e-07 1.7814264514128255e-07 0.0000000000000000e+00  -8.9461625485625911e-07 -3.4773590010644753e-09 0.0000000000000000e+00  -1.0480721021238661e-06 -2.4972706203221085e-07 0.0000000000000000e+00  -1.0555608134360661e-06 -3.9483549172347049e-07 0.0000000000000000e+00  -1.1679018648322349e-06 -1.0217933619657271e-06 0.0000000000000000e+00  -9.6275324326647384e-07 -7.4212069112723213e-07 0.0000000000000000e+00  -8.6573551712114425e-07 -2.6200609161185071e-07 0.0000000000000000e+00  -7.9052911697351333e-07 -1.1898242478466738e-06 0.0000000000000000e+00  -5.9238367252878265e-07 -1.1469686860445411e-06 0.0000000000000000e+00  -4.3506303527833532e-07 -1.2640918021572081e-06 0.0000000000000000e+00  -4.3300396248509953e-07 -7.4294938212734675e-07 0.0000000000000000e+00  -2.9237666457132234e-07 -7.8882185622115167e-07 0.0000000000000000e+00  -5.8713119118237309e-08 -7.6056706731750674e-07 0.0000000000000000e+00  -2.8674723130810327e-07 -3.3716413974309546e-08 0.0000000000000000e+00  1.8691871533681848e-07 -2.9883470519740082e-07 0.0000000000000000e+00  -6.4489234377622653e-07 4.5087135674056938e-07 0.0000000000000000e+00  -1.1948613706400017e-09 3.4160904041479850e-07 0.0000000000000000e+00  5.2946291537877409e-07 6.2676325484513028e-07 0.0000000000000000e+00  -2.4880254177842105e-06 8.6363587845530371e-07 0.0000000000000000e+00  2.2411635572319397e-06 5.6199518551119658e-06 0.0000000000000000e+00  -9.7078351923127383e-06 4.4173530079378367e-07 0.0000000000000000e+00  1.2300474297643264e-05 5.9094736993682920e-06 0.0000000000000000e+00  -3.8246761809523323e-06 -1.2344545205315411e-05 0.0000000000000000e+00  4.2595364167467438e-06 1.4442838782567032e-08 0.0000000000000000e+00  -1.9034596351981173e-06 3.0284861468187779e-06 0.0000000000000000e+00  -4.3772474715447307e-07 3.8005908601821353e-06 0.0000000000000000e+00  2.5170110099981142e-06 7.2177766258769389e-07 0.0000000000000000e+00  -2.1499269821437904e-06 2.3671294640442032e-06 0.0000000000000000e+00  2.9105297209629153e-06 1.3049766323606551e-06 0.0000000000000000e+00  -1.0760967586799712e-06 -6.1139136522252434e-07 0.0000000000000000e+00  1.5157690823104732e-06 9.7913160573589212e-07 0.0000000000000000e+00  -2.4442160656168708e-06 3.1305588754513370e-06 0.0000000000000000e+00  5.7494567549480817e-06 8.5276574326365398e-07 0.0000000000000000e+00  1.0668574217678810e-06 1.1303578027708996e-07 0.0000000000000000e+00  2.4558051297260776e-06 3.6281987759945862e-06 0.0000000000000000e+00  8.1586034855611805e-07 -6.9922128729716380e-08 0.0000000000000000e+00  2.8904242179372766e-06 1.0867176285442224e-06 0.0000000000000000e+00  8.5432488753225728e-07 1.5857638701242939e-07 0.0000000000000000e+00  6.4081535227724783e+02 -3.4794690311731329e+03 0.0000000000000000e+00  3.7198872059682330e+03 7.6344635244928338e+02 0.0000000000000000e+00  -2.5631165145695456e+02 2.1467062331544321e+02 0.0000000000000000e+00  -1.1035054478945601e+02 -5.3318516948706144e+02 0.0000000000000000e+00  -4.7936224051469908e+03 2.9592105047710124e+03 0.0000000000000000e+00  7.5357079932056899e+02 3.9886638566188976e+03 0.0000000000000000e+00  -2.0369456128827781e+02 -2.0389375263220609e+02 0.0000000000000000e+00  1.0740632794253659e+02 -5.7942345184885153e+02 0.0000000000000000e+00  1.9916580936195071e+03 2.8621997419750919e+03 0.0000000000000000e+00  -5.1825332744004555e+01 1.0641184986470375e+02 0.0000000000000000e+00  5.4577356434843878e+01 -3.8515187067807994e+02 0.0000000000000000e+00  2.2768343221281143e+02 -2.0862735695174581e+02 0.0000000000000000e+00  -2.4138096836639880e+02 -9.1564379044011571e+02 0.0000000000000000e+00  1.8011590871849626e+03 -1.4794672960519381e+03 0.0000000000000000e+00  2.3473135050321634e+03 -4.6451936194853779e+03 0.0000000000000000e+00  -3.6075798937676318e+03 -2.4462988972129460e+03 0.0000000000000000e+00  -3.8568648702198375e+03 4.7040005556537881e+03 0.0000000000000000e+00  2.0253905796001886e+03 6.7372633522982023e+03 0.0000000000000000e+00  2.3161002119389747e+02 6.6778205058044975e+01 0.0000000000000000e+00  1.9068116729499236e+03 -3.3291952235526850e+02 0.0000000000000000e+00  3.1414891984213350e+03 5.0942331779446113e+02 0.0000000000000000e+00  2.9927544740073358e+03 2.9360576509686539e+03 0.0000000000000000e+00  -1.3296795395621402e+03 5.4516893178215587e+03 0.0000000000000000e+00  6.8903727981867714e+03 1.7067067067667290e+03 0.0000000000000000e+00  -3.1880976290004928e+03 -3.1936309884048665e+03 0.0000000000000000e+00  4.8669653682440475e+02 8.8877599851592822e+02 0.0000000000000000e+00  -9.9289770947118859e+02 -4.9281504838798526e+02 0.0000000000000000e+00  1.6855177561602407e+03 5.4682914588409067e+03 0.0000000000000000e+00  8.6693368154934876e+02 1.9308941695814019e+03 0.0000000000000000e+00  3.5839246547717380e+03 2.1974739833660519e+03 0.0000000000000000e+00  3.4835096133507027e+03 5.0254953615111026e+03 0.0000000000000000e+00  5.2063161708005146e+03 3.7974554356284771e+03 0.0000000000000000e+00  4.6028356749586683e+03 5.5905574503483713e+03 0.0000000000000000e+00  5.8661635286608889e+03 9.0435351439497163e+02 0.0000000000000000e+00  2.7272653111126333e+03 4.5528276632019479e+03 0.0000000000000000e+00  1.7998043262071637e+03 6.2580546095268828e+03 0.0000000000000000e+00  -7.5158467744721548e+01 -6.5214056624545731e+02 0.0000000000000000e+00  -8.5128785236461202e-01 -8.1181675209953198e+02 0.0000000000000000e+00  6.4124263848007175e+01 -5.5888583814813342e+02 0.0000000000000000e+00  8.5541131764307011e+01 -2.4111908561481138e+02 0.0000000000000000e+00  8.9923891217403110e+01 -3.1276125295545296e+02 0.0000000000000000e+00  6.2148358129348246e+01 -1.7160255446281298e+02 0.0000000000000000e+00  1.1054128581001336e+02 -2.8167136101262781e+02 0.0000000000000000e+00  1.7605785232425060e+02 -3.7657398376895861e+02 0.0000000000000000e+00  3.7436964999423161e+01 -6.9671236178134507e+02 0.0000000000000000e+00  -3.2154162558003674e+02 -6.6718993019805055e+02 0.0000000000000000e+00  3.4205972857812526e+02 1.9042886769319361e+02 0.0000000000000000e+00  2.4500785303608655e+01 2.9197451807307257e+01 0.0000000000000000e+00  -8.2186381884479431e+01 1.2111449789823387e+01 0.0000000000000000e+00  7.1433743803894640e+02 -4.7614433309628375e+01 0.0000000000000000e+00  -3.5063161355533417e+01 4.7734024720344706e+01 0.0000000000000000e+00  -1.7937025268224039e+02 -6.6997627201165710e+02 0.0000000000000000e+00  4.9516192479276779e+03 -1.8811233533606746e+03 0.0000000000000000e+00  6.4362095737788450e+03 -1.8339261601150722e+03 0.0000000000000000e+00  3.0898528943779243e+03 -3.2943662598061051e+03 0.0000000000000000e+00  -3.7072148866871862e+02 -7.1687983156638552e+02 0.0000000000000000e+00  -8.3541164025321720e+01 -2.5366104404934273e+02 0.0000000000000000e+00  9.8387687972417621e+02 1.1652760160194166e+03 0.0000000000000000e+00  1.5638469047418068e+03 8.9689000122792027e+02 0.0000000000000000e+00  -1.8119345065777486e+02 2.5991488367640127e+03 0.0000000000000000e+00  9.2080880384744864e+02 1.6230772261098978e+03 0.0000000000000000e+00  -8.9146373464046576e+02 5.4927625372459192e+02 0.0000000000000000e+00  -5.0665522760689129e+02 7.0249627404633850e+02 0.0000000000000000e+00  -5.3484405690080359e+02 -5.2253126716599343e+02 0.0000000000000000e+00  -3.8404160778651169e+02 -1.8023015956320842e+02 0.0000000000000000e+00  1.0786961824213422e+03 4.8365963165186434e+02 0.0000000000000000e+00  7.7269463575410953e+02 4.0775821146313746e+01 0.0000000000000000e+00  -3.5542457796808362e+03 5.3082813891271246e+02 0.0000000000000000e+00  -3.1673066057447468e+03 2.0868042861222521e+03 0.0000000000000000e+00  1.5065775685043345e+01 -1.8952039008370343e+02 0.0000000000000000e+00  -1.5446919046400248e+02 -2.5427085491056337e+02 0.0000000000000000e+00  7.5216815697929712e+02 -1.3759863039032477e+03 0.0000000000000000e+00  -2.4331045301852726e+02 -2.0492674681387871e+03 0.0000000000000000e+00  3.2403383147607724e+03 -7.1381841563985449e+02 0.0000000000000000e+00  2.3797612883553356e+01 6.9957112856718122e+03 0.0000000000000000e+00  -2.6089645054557468e+03 6.2207462651195920e+03 0.0000000000000000e+00  -5.1525281800401854e+03 3.3381119251245332e+03 0.0000000000000000e+00  4.1290142301549747e+02 -2.8574908815503341e+02 0.0000000000000000e+00  9.9879718750144022e+01 -2.6060700212646111e+02 0.0000000000000000e+00  1.4459809666343497e+02 -2.3349723774859294e+02 0.0000000000000000e+00  -4.9355151433272240e+03 1.4255615007077677e+03 0.0000000000000000e+00  -2.6142560983195176e+03 -2.6734330926475559e+03 0.0000000000000000e+00  5.1988637537608574e+03 1.3723674154819514e+03 0.0000000000000000e+00  -2.6558180103186322e+02 3.6780337846180083e+02 0.0000000000000000e+00  -4.2268872557396139e+02 -6.2344062207775880e+02 0.0000000000000000e+00  -1.8320712773052307e+02 2.6791711719215408e+02 0.0000000000000000e+00  -3.8638380169726537e+02 6.6322861832515146e+03 0.0000000000000000e+00  -3.2266991924988261e+03 4.9787859400248553e+03 0.0000000000000000e+00  2.7641826906961722e+02 5.9614378794334625e+03 0.0000000000000000e+00  -5.4014106538171272e+03 -4.9502735921524840e+02 0.0000000000000000e+00  -5.0441461447596903e+03 7.2331035798390531e+01 0.0000000000000000e+00  3.9132570272430718e+02 -2.5642258098154302e+03 0.0000000000000000e+00  4.9296784454498879e+02 -1.3507869807702302e+03 0.0000000000000000e+00  3.0967518127940034e+03 -6.2271713664032893e+02 0.0000000000000000e+00  2.4488368222426625e+03 -3.4580222500161422e+03 0.0000000000000000e+00  2.1432124852763409e+03 -2.1233266421207190e+03 0.0000000000000000e+00  3.8305246456066370e+03 5.6863394380619839e+03 0.0000000000000000e+00  -9.5923508102140886e+02 -3.0324049521348325e+03 0.0000000000000000e+00  4.0234455563279653e+02 -1.5138580094793093e+02 0.0000000000000000e+00  1.3051696138275096e+02 -1.7367416044822028e+02 0.0000000000000000e+00  -1.5518894062492336e+03 -2.0154028781641032e+03 0.0000000000000000e+00  -2.9233805144468338e+03 -1.0299109857557469e+03 0.0000000000000000e+00  -2.8686081258619511e+03 1.1449426130567583e+03 0.0000000000000000e+00  -3.5894158317123906e+03 -3.4673865744007480e+03 0.0000000000000000e+00  -1.5318127681573426e+03 -3.6514903069023485e+03 0.0000000000000000e+00  -4.4650394425606720e+02 -2.3681188958077794e+02 0.0000000000000000e+00  -7.9649146023445667e+02 6.2635571192282626e+01 0.0000000000000000e+00  6.8861911277107559e+00 -3.1853704389843105e+00 0.0000000000000000e+00  1.8584722146701739e+02 9.1115190920447837e+00 0.0000000000000000e+00  8.6592034807603898e+02 -4.8928002526378071e+02 0.0000000000000000e+00  6.9080528335266467e+02 2.6548256112691377e+02 0.0000000000000000e+00  -1.0163011552018353e+00 1.5137582208902991e+01 0.0000000000000000e+00  3.370