<?xml version="1.0"?>
<VTKFile type="UnstructuredGrid"  version="0.1"  >
<UnstructuredGrid>
<Piece  NumberOfPoints="2549" NumberOfCells="4928">
<Points>
<DataArray  type="Float64"  NumberOfComponents="3"  format="ascii">1.458509079990612 0.03143000708902839 0  1.454634002390291 0.05412674631926453 0  1.429139422520212 0.06444674873262057 0  1.419386833781671 0.07867326097193666 0  1.405171321084276 0.08998205159933798 0  1.396690194592658 0.1048219544234799 0  1.384611071530005 0.1188204624954284 0  1.381322671068553 0.1405617655392706 0  1.35082292302303 0.1465795939249886 0  1.334391371560219 0.130627922975434 0  1.347631780775445 0.1773586755325317 0  1.335898780304777 0.1958083429094395 0  1.330689156191281 0.2260342906431311 0  1.321537246392855 0.2543228694488306 0  1.31154196261118 0.28347047264261 0  1.302290592886836 0.3199328057297859 0  1.276759398058738 0.3381041187196006 0  1.268031464571056 0.3456493105924827 0  1.264968216369901 0.4062711492220431 0  1.249590934779304 0.4426950486020365 0  1.235357542344352 0.4889783881811968 0  1.217892862278083 0.5340541317219829 0  1.198922183808428 0.5820583233791247 0  1.178191852595669 0.6348157403776308 0  1.150057803705668 0.6864165103391837 0  1.122534223057242 0.7285518188398183 0  1.093774572171069 0.7837733761441311 0  1.060535926723662 0.8389291374970447 0  1.023556958614806 0.895194739484734 0  0.9825327352719301 0.9520777254327015 0  0.9372719299018146 1.008916600371027 0  0.887693965835849 1.066574472950712 0  0.8320278959645462 1.120843780287254 0  0.7739502729213144 1.172254322282864 0  0.7101943618831956 1.226241322280441 0  0.6413724487679378 1.275284808657413 0  0.5678056578931652 1.32127344796757 0  0.4897111536469575 1.362873055640055 0  0.407423055670126 1.399376755376966 0  0.3215075259892153 1.431197752990301 0  0.2317154271812897 1.45513109200591 0  0.1407632117086036 1.472111560613651 0  0.04738679384580201 1.48384302414176 0  -0.04669994919874453 1.486842204781222 0  -0.1406973597810524 1.482458971675291 0  -0.2336608493793396 1.470064452625574 0  -0.3246850989525529 1.45048590745971 0  -0.4129272996237381 1.422106141262271 0  -0.4967984983466259 1.390170268844904 0  -0.5784588257830346 1.351420787027134 0  -0.6544660114327662 1.305225727804033 0  -0.7256163814181757 1.255361639780313 0  -0.7915751192935838 1.201670543660755 0  -0.852166290328307 1.144602087432109 0  -0.9075772782386942 1.086723271710902 0  -0.9568545266800083 1.022271667343333 0  -1.000195859266912 0.9705783479116914 0  -1.044963615292188 0.9137906041344261 0  -1.081092873062606 0.8514468005838816 0  -1.113552347719952 0.7927370288667441 0  -1.142554783153988 0.7360392258657494 0  -1.167484090624288 0.6784601444134308 0  -1.19098541049971 0.6294443231282925 0  -1.206064608308794 0.5606480315282398 0  -1.217652208689104 0.5298885313237532 0  -1.243258447665357 0.5015767233538063 0  -1.257739733296543 0.4576019094514965 0  -1.272037818891106 0.4212050016366319 0  -1.283863489219398 0.3839950244964855 0  -1.29806039003866 0.3573485245778533 0  -1.303310670849927 0.3158207280928461 0  -1.334428328696499 0.3347719714512369 0  -1.362342516981824 0.2854913421290649 0  -1.335181237245013 0.2067763558648133 0  -1.341397697897668 0.1832210397098507 0  -1.337409841902482 0.1523689436577526 0  -1.34490713023943 0.1344740778652697 0  -1.337610070809896 0.107512707585905 0  -1.363002021183997 0.1104155198863371 0  -1.311226164668401 0.05972582315131833 0  -1.374501819886564 0.1234014992844837 0  -1.458646991719172 0.1187815731114417 0  -1.419719146950452 0.08693970520524837 0  -1.447601300979239 0.07104331533087717 0  -1.435106130707788 0.0524257813286367 0  -1.451391144408203 0.0336164362594629 0  -1.424169485097266 0.01724709156628797 0  -1.469871315702373 -0.01631483417055984 0  -1.381491402267963 -0.02041215489550277 0  -1.316670001818957 0.04890119985625313 0  -1.377869415505299 -0.008100785958666701 0  -1.353025073037718 -0.00495660182117974 0  -1.364513590652758 -0.03502745766804 0  -1.359379991665484 -0.05488263184259606 0  -1.366162908203795 -0.08830376529279071 0  -1.361130491438786 -0.1124542831874621 0  -1.393714876180318 -0.1951296529311178 0  -1.370080012386073 -0.2557308979923182 0  -1.338043031641747 -0.2334133078194776 0  -1.335364801179797 -0.278986337542144 0  -1.322587564286161 -0.3068793176697089 0  -1.312808890297433 -0.3465703747503822 0  -1.300245253867513 -0.3848225838594567 0  -1.287613547126149 -0.430948141587331 0  -1.263589874327887 -0.4585548595585465 0  -1.255973597303486 -0.4916329175124253 0  -1.244134606525879 -0.5686401191960114 0  -1.222853278826096 -0.6209466514947461 0  -1.200506401519126 -0.6838310935856536 0  -1.173930849478393 -0.7456199789589529 0  -1.143622851218376 -0.8096308062885231 0  -1.108918601606008 -0.8761095587312362 0  -1.067612663575702 -0.9347638660698394 0  -1.028400895954614 -0.9982692167563778 0  -0.9801174562575379 -1.077010757818193 0  -0.9250782584764519 -1.14302492913826 0  -0.8645677476515043 -1.210773242567266 0  -0.7979902389595022 -1.274518862569771 0  -0.7255086559568388 -1.334846149590892 0  -0.6474195550309134 -1.392575871791738 0  -0.5617909472548096 -1.441084486507334 0  -0.4744613444391335 -1.481714781930012 0  -0.3811949215543299 -1.520797833391509 0  -0.2840243997630393 -1.549389941522514 0  -0.1839465457604149 -1.569896736812943 0  -0.08196092493937525 -1.581042995577691 0  0.02081051354811844 -1.583050069647082 0  0.1233315793324731 -1.575506747615856 0  0.224421610176138 -1.558856893933285 0  0.3228627113844813 -1.533322983501322 0  0.4180183124447271 -1.499951229670048 0  0.5088921065507701 -1.458966032914932 0  0.5948339064346106 -1.411568308679015 0  0.6753031862896882 -1.35822294065017 0  0.7500100605396527 -1.301312085315824 0  0.8183253103539289 -1.236701896618273 0  0.8790671038708723 -1.179535983428968 0  0.9390778224779811 -1.117245297590756 0  0.9904080193712268 -1.04911406230183 0  1.036691650267662 -0.983231758016365 0  1.078018752333048 -0.9176277709009131 0  1.114663439723202 -0.8531858162877358 0  1.14702931463714 -0.7902850680199981 0  1.174532981678026 -0.7282415547864213 0  1.200582128221126 -0.6794984933710526 0  1.226689322775215 -0.6215013841062097 0  1.245440548523697 -0.5633888995543188 0  1.262238170036971 -0.5103255129531661 0  1.277526039237693 -0.4607645235789047 0  1.289429150279055 -0.4101211707567171 0  1.302724853123929 -0.370369899659586 0  1.303018371877686 -0.3047997193365862 0  1.309160471994544 -0.2952751694675633 0  1.333156299861354 -0.2755816672170245 0  1.34041816782204 -0.2365848431616109 0  1.348452261848222 -0.2051792838519107 0  1.355529434339298 -0.1745824262720268 0  1.358512489516063 -0.1420640960809702 0  1.368394211706677 -0.1219852484021541 0  1.352058773118997 -0.07220321881063219 0  1.366870356450874 -0.08817998549589984 0  1.395969903378583 -0.08105748755542541 0  1.396745126549801 -0.0576569233004437 0  1.406444390963767 -0.04238323071536429 0  1.412454721006228 -0.02649841893267119 0  1.423292818640227 -0.01415788844562163 0  1.432571354417414 -0.0003038635284195179 0  1.451290826650335 0.01136773923426724 0  -0.09043155183238721 0.9077004220054459 0  0.6799304680592427 -0.5204572137312403 0  -0.7971063568533736 -0.380085239929528 0  -0.08666979974257591 -0.9677706114745268 0  0.6474158390746678 0.5004482037224851 0  1.070999342944522 0.1086980012940074 0  -0.7785298667486494 0.4164878487670988 0  -1.128891320643269 0.04036288037126484 0  1.082023201217733 -0.06879187306819909 0  -1.019431217010676 -0.1638797921098793 0  -0.7149812947686741 0.02222241195676389 0  -0.4278357891337883 -0.1395589934808107 0  -1.005147267856705 0.2203193179128973 0  0.3735228684078599 -0.8553259195040286 0  0.08090092367585551 -0.3275999746274317 0  0.3104124803565005 0.7848612387392599 0  0.2253734733039574 0.1925453924051599 0  0.5539706805082052 0.01040643011364737 0  -0.4873856781637807 -0.7066372129538867 0  -0.4950648435793739 0.7104504606261866 0  -0.2330908867592789 0.3215445141789405 0  0.9026030872262664 -0.2190309809337131 0  0.88335349300351 0.241621204459516 0  0.3470711237328966 -0.233903919823639 0  -0.006375915174958426 0.2500933569918894 0  -0.4779390327350674 0.2205819813575099 0  -0.1854676229938936 -0.2895157405686153 0  0.8470934416253925 0.0159245412418814 0  1.230004545085443 0.02499981043260673 0  0.7916286724650656 -0.3499018197213181 0  0.7060348678168451 -0.116046800006252 0  0.5750242796462777 -0.2216771496521087 0  0.4360191211127212 -0.08883934475560532 0  0.5032958247015789 -0.3901915327376925 0  0.8487433022726827 -0.08964286600063068 0  0.7021587999314954 0.01302633203507406 0  -0.8387498346161325 0.1323489009030652 0  -1.047727657844627 0.1117448223257846 0  -0.9269627315172654 0.03290876801901087 0  -0.8476174081419439 -0.08025550929476309 0  -1.053222563790339 -0.04089078520049627 0  -1.215494496433596 -0.06916055167455232 0  -1.277566514686067 0.01688718912589457 0  -1.272030504768427 0.07444502441993539 0  -1.200170728229168 0.1531617443420477 0  -0.1379786329734147 -0.6324745062392956 0  -0.3038492104277482 -0.5171567894267974 0  -0.3018573604527976 -0.8606863425967479 0  -0.3017749449747782 -0.2069462735899764 0  -0.4481932645381381 -0.4084555282418314 0  -1.211547298026348 -0.1844128998846289 0  -1.187582357374475 0.2570549162726533 0  0.3718707695692198 -0.5270678113354246 0  0.2125673308481739 -0.2671518094637983 0  0.2312393299119476 -0.5877896306335284 0  -0.8920531554093798 0.3022837350687139 0  -0.7094268864381914 0.2007008597448077 0  1.251726248576107 -0.08360542476050967 0  1.189446752429496 -0.1789273858771636 0  1.168259186948081 0.2190347093548435 0  1.237557236396135 0.1319442006160128 0  -0.9150972802007614 -0.6449159113304179 0  -1.037610469555411 -0.4332552431236094 0  -1.004661794196037 0.4851912988186672 0  -0.8758387036598175 0.6750216875990164 0  0.9347923120977876 -0.6118269673854966 0  0.7735377527989727 -0.8360000791068197 0  0.7383994806109537 0.794730053778832 0  0.8991237479986465 0.6032662719370522 0  
[...]
<PointData  Vectors="f_48"> 
<DataArray  type="Float64"  Name="f_48"  NumberOfComponents="3" format="ascii">-1.2928595623818732e-08 7.9745056710019831e-08 0.0000000000000000e+00  1.3414771484704082e-08 8.1763086488684829e-08 0.0000000000000000e+00  -4.2073357676048051e-07 -2.0833568408313548e-07 0.0000000000000000e+00  5.3801237902741913e-08 -3.4705026185705178e-08 0.0000000000000000e+00  -1.6585217345411936e-06 5.4727765200957356e-07 0.0000000000000000e+00  6.8422890573886798e-07 -1.2767721599349532e-06 0.0000000000000000e+00  -5.8499875790930617e-06 3.1606405159025356e-06 0.0000000000000000e+00  -4.3601936396626522e-06 6.1752385179091150e-06 0.0000000000000000e+00  1.4619118857020543e-05 -1.0302706995737515e-07 0.0000000000000000e+00  -1.9165590804366808e-06 -1.7766058215348965e-06 0.0000000000000000e+00  2.8314955443392912e-06 2.7893622775124729e-06 0.0000000000000000e+00  -4.3224169509238285e-06 3.2496620999273870e-06 0.0000000000000000e+00  1.4142862100745024e-06 1.4707504029038071e-06 0.0000000000000000e+00  -2.2677869673636486e-06 1.1032712775467930e-06 0.0000000000000000e+00  1.4012215238625773e-06 1.9399424554553173e-06 0.0000000000000000e+00  -1.1012964588911610e-06 2.9960696955352002e-06 0.0000000000000000e+00  -2.6796250631875696e-06 -5.6321045832720916e-06 0.0000000000000000e+00  -3.1567809749436131e-07 4.1847784200188730e-06 0.0000000000000000e+00  1.3955351185340222e-06 2.3539268793969389e-06 0.0000000000000000e+00  -4.8785741722964540e-06 -1.6019039934290144e-06 0.0000000000000000e+00  1.4921165046889228e-06 3.9175557938440696e-06 0.0000000000000000e+00  -3.4733700656449074e-06 -5.2435417138475370e-07 0.0000000000000000e+00  8.8705047050066196e-07 3.5126356976866001e-06 0.0000000000000000e+00  -3.0258165332369244e-07 3.0776618195779770e-06 0.0000000000000000e+00  -3.7791354491946123e-06 -3.6902065083059734e-06 0.0000000000000000e+00  -2.0602276866912581e-06 1.1265005691839705e-06 0.0000000000000000e+00  4.5092688161399496e-07 4.1228229095942746e-06 0.0000000000000000e+00  -1.8733917534793306e-06 2.0719708440474155e-07 0.0000000000000000e+00  -8.8754903655496686e-07 2.4388738531336465e-06 0.0000000000000000e+00  -1.4951641339793083e-06 8.4495372169232217e-07 0.0000000000000000e+00  -9.9040490742666086e-07 2.4563584905451164e-06 0.0000000000000000e+00  -1.5018688937181424e-06 1.5408530717355522e-06 0.0000000000000000e+00  -1.1233428098905411e-06 -9.1570880284838103e-07 0.0000000000000000e+00  -1.4726146897402529e-06 1.8464755893384497e-06 0.0000000000000000e+00  -1.6096208988536468e-06 1.1563896220725959e-06 0.0000000000000000e+00  -1.0965298829443767e-06 1.6760630838355383e-07 0.0000000000000000e+00  -1.4714370963936729e-06 6.2270169268018194e-07 0.0000000000000000e+00  -9.9521000508468931e-07 -8.9014905407595066e-08 0.0000000000000000e+00  -1.1840800338122768e-06 1.7729044625117115e-07 0.0000000000000000e+00  -9.2193541766172782e-07 -1.7878482743606863e-07 0.0000000000000000e+00  -2.0791055044204894e-07 -4.1083719305463339e-07 0.0000000000000000e+00  -4.2899849470631947e-07 -2.7219333639133047e-07 0.0000000000000000e+00  -2.0096756484659110e-07 -2.8354836112291560e-07 0.0000000000000000e+00  -5.2128065714326629e-09 -1.4558006181558928e-07 0.0000000000000000e+00  -1.9764178740941652e-08 -2.2887202396117065e-08 0.0000000000000000e+00  8.1974929170877791e-08 1.4184224396090574e-07 0.0000000000000000e+00  -1.7950941113518014e-07 2.7728649824540733e-07 0.0000000000000000e+00  -3.8493943623645594e-07 2.1342572608146422e-07 0.0000000000000000e+00  1.3942519415721102e-08 8.0777712551192781e-07 0.0000000000000000e+00  -8.9933960561176817e-07 1.9791037094730865e-07 0.0000000000000000e+00  -1.2086026786160605e-06 -5.2956552151090079e-07 0.0000000000000000e+00  -1.0276868307976520e-06 4.5446404713244432e-07 0.0000000000000000e+00  -1.5735690919418622e-06 -1.4303267191456136e-06 0.0000000000000000e+00  -1.1442235032830992e-06 8.7407833113887125e-07 0.0000000000000000e+00  -1.4898876434301050e-06 -2.4424277805644353e-06 0.0000000000000000e+00  -9.3741333247931402e-07 -3.4840607511896226e-06 0.0000000000000000e+00  -2.2908293226901722e-06 4.9030682125923894e-06 0.0000000000000000e+00  -1.7972528838521092e-06 -1.7853936397699972e-06 0.0000000000000000e+00  7.6027492259616702e-07 -4.2886805174644735e-06 0.0000000000000000e+00  -2.7563168131411056e-06 9.5077174449448307e-07 0.0000000000000000e+00  5.3652193288712409e-07 -4.3243821038560687e-06 0.0000000000000000e+00  -2.9231075312181007e-06 2.0055903705779195e-06 0.0000000000000000e+00  -1.6645958189647174e-06 -2.8437893945085074e-06 0.0000000000000000e+00  6.9323167723316074e-06 -5.2000093424651401e-06 0.0000000000000000e+00  -5.1473969890054659e-06 2.9141885770745939e-06 0.0000000000000000e+00  -1.1981857771816761e-06 -1.3976629966426369e-06 0.0000000000000000e+00  8.1487605654153102e-07 -2.1400684898111772e-06 0.0000000000000000e+00  -1.0565073410241729e-06 -5.6246981506346098e-07 0.0000000000000000e+00  -2.3294708932714364e-06 -1.8227139144355566e-06 0.0000000000000000e+00  -4.5679515517728653e-06 2.2202263309585206e-06 0.0000000000000000e+00  7.8651207027034882e-06 -4.9172730375237245e-06 0.0000000000000000e+00  -9.0604498455580979e-07 2.3983988844233408e-07 0.0000000000000000e+00  -8.5505883803462486e-07 -1.3390910303272701e-06 0.0000000000000000e+00  2.9855623855155941e-06 -1.6902567784163157e-06 0.0000000000000000e+00  -3.2779162832804042e-06 8.8242156366380055e-07 0.0000000000000000e+00  7.6751092937951004e-07 -6.4905161973009925e-06 0.0000000000000000e+00  -4.9794058367404369e-07 3.0015837627159160e-06 0.0000000000000000e+00  1.5143465556750137e-06 -1.3321281231603452e-06 0.0000000000000000e+00  1.1660613948476319e-06 6.6188705122261826e-07 0.0000000000000000e+00  -2.0869657800600892e-07 -6.9377507394219120e-07 0.0000000000000000e+00  7.2580545798353940e-07 2.6964879592422751e-07 0.0000000000000000e+00  -1.0641221174914144e-07 2.5352808753528566e-07 0.0000000000000000e+00  8.9386364306857702e-07 -6.4078079954802215e-08 0.0000000000000000e+00  1.3815217724615311e-07 -1.7381027622727627e-07 0.0000000000000000e+00  3.1818372826692182e-07 1.3156230406708349e-06 0.0000000000000000e+00  1.3544468698221808e-06 7.5552796797156588e-07 0.0000000000000000e+00  2.3444015560973805e-06 -3.0234877340938743e-07 0.0000000000000000e+00  -1.4290466343635495e-06 -7.4227418373168508e-07 0.0000000000000000e+00  2.0351358930910801e-06 -1.3289954556100573e-06 0.0000000000000000e+00  -1.2848766606780749e-06 2.4589393696509735e-06 0.0000000000000000e+00  2.6252030538984832e-06 -3.0276108634026724e-06 0.0000000000000000e+00  4.0231402972965137e-06 3.7979292879079411e-06 0.0000000000000000e+00  -3.4562023627609595e-06 -1.2219560290255600e-05 0.0000000000000000e+00  5.9701503057403920e-06 1.9877261708195801e-05 0.0000000000000000e+00  -7.0494351568259044e-06 -3.1442425265208399e-06 0.0000000000000000e+00  5.2870215001279969e-06 2.6635966842017701e-06 0.0000000000000000e+00  -8.0261609833991920e-07 1.5345131637106717e-06 0.0000000000000000e+00  -2.7173524358503651e-06 -1.3019338543838488e-06 0.0000000000000000e+00  1.5443981067138543e-05 3.4945526968551741e-06 0.0000000000000000e+00  -8.6624484358781842e-06 -2.2979349656266021e-06 0.0000000000000000e+00  -3.6984259317699205e-06 3.3822617977837613e-06 0.0000000000000000e+00  -1.8785319783117647e-06 1.1690474797755393e-06 0.0000000000000000e+00  2.5335395290381958e-06 4.0442906065097982e-06 0.0000000000000000e+00  -2.1693078154028512e-06 1.8894531443714012e-06 0.0000000000000000e+00  -1.0945405122377817e-05 -1.0056529958640132e-06 0.0000000000000000e+00  1.8427212960782091e-05 7.7012852586537645e-06 0.0000000000000000e+00  -3.5391911508497771e-06 5.0720464245591126e-06 0.0000000000000000e+00  -4.7825578723574405e-06 -2.8613276263017365e-06 0.0000000000000000e+00  2.6382169615783490e-06 7.9586254173276854e-06 0.0000000000000000e+00  -4.5263007421154181e-06 -8.4598949731687952e-07 0.0000000000000000e+00  2.9098344963661904e-06 8.1923343873039440e-06 0.0000000000000000e+00  -4.5462633816801040e-06 -6.5247596378823377e-07 0.0000000000000000e+00  -5.7933907155185135e-06 -5.9892400096546539e-06 0.0000000000000000e+00  5.3478841964584870e-06 1.6013538927739082e-05 0.0000000000000000e+00  -3.6639333160841920e-06 3.2556421922851485e-06 0.0000000000000000e+00  -1.4409492391791683e-06 -8.0973485995905865e-07 0.0000000000000000e+00  -2.9654529109688353e-06 6.9752589901379347e-06 0.0000000000000000e+00  -2.2408573919490082e-06 -2.3522303710342631e-07 0.0000000000000000e+00  -3.2607763616238985e-06 5.1651042680367516e-06 0.0000000000000000e+00  -3.5254281397056651e-06 1.6754499196489598e-06 0.0000000000000000e+00  2.3803555786846440e-07 -2.9413466691364929e-06 0.0000000000000000e+00  -2.4941492837202339e-06 6.8598613641278168e-07 0.0000000000000000e+00  -2.2032680587666251e-06 -4.1535328883236571e-07 0.0000000000000000e+00  -1.3735366472063138e-07 -1.0435178299737756e-06 0.0000000000000000e+00  -7.9306375232878408e-07 -8.5531634559825163e-07 0.0000000000000000e+00  5.5928071149713996e-08 -7.4429993850660236e-07 0.0000000000000000e+00  8.7535831650800844e-08 -5.8083791257937160e-07 0.0000000000000000e+00  2.5923826250076501e-07 -3.1102915153693619e-07 0.0000000000000000e+00  2.6292346800749074e-07 -8.9091414281253405e-08 0.0000000000000000e+00  1.5139990236747323e-07 1.0493880280260507e-07 0.0000000000000000e+00  -1.1966979914538812e-07 1.1095979361770347e-07 0.0000000000000000e+00  -3.1463101704381806e-07 1.2284125023733875e-07 0.0000000000000000e+00  -6.6145915582809022e-07 -1.8138369221169775e-07 0.0000000000000000e+00  -5.8468859930153455e-07 -2.2467180847271142e-08 0.0000000000000000e+00  -1.0036865822124270e-06 -7.8867111267830080e-07 0.0000000000000000e+00  -9.1656230263550445e-07 -1.5487939902519062e-06 0.0000000000000000e+00  -6.8303310855340018e-07 1.0625378073353906e-06 0.0000000000000000e+00  -1.0403344278846642e-06 -1.4627915270061116e-06 0.0000000000000000e+00  -2.2281973439644463e-07 -2.5652399842710711e-06 0.0000000000000000e+00  -8.7191810660243080e-07 -1.0746535393933902e-06 0.0000000000000000e+00  -2.1190129375532653e-07 -2.1689606328340600e-06 0.0000000000000000e+00  -8.4472444415963033e-07 -9.3919781435619689e-07 0.0000000000000000e+00  5.5540133503726795e-07 -2.7178121554764914e-06 0.0000000000000000e+00  -8.2701387629601072e-07 -1.1788315076711547e-06 0.0000000000000000e+00  -2.1631026580065457e-06 1.1914258836116528e-06 0.0000000000000000e+00  1.0530124039657968e-07 -1.9132748471748292e-06 0.0000000000000000e+00  7.8362088294044569e-07 -2.0300623260515460e-06 0.0000000000000000e+00  -1.3949773778093031e-06 -2.7504911654352007e-07 0.0000000000000000e+00  8.9285501178101851e-07 -1.9382753076884926e-06 0.0000000000000000e+00  -1.8526872968711289e-06 3.8384767894395896e-07 0.0000000000000000e+00  6.1017637015020418e-07 -1.4661691692129836e-06 0.0000000000000000e+00  6.1347300887940735e-07 -5.2551323054143099e-07 0.0000000000000000e+00  -1.0976005414064504e-07 5.4359492509100605e-07 0.0000000000000000e+00  1.5335550847893189e-07 -1.0475264157338166e-07 0.0000000000000000e+00  -1.9930269014395818e-07 9.8293850104159051e-08 0.0000000000000000e+00  2.0055117254893786e-07 1.0004217059377005e-07 0.0000000000000000e+00  -2.0429203012248426e-07 2.2715590821858644e-07 0.0000000000000000e+00  6.6507981916868910e-07 4.5728689129123855e-07 0.0000000000000000e+00  6.7489431084445627e-07 1.5042746350775498e-06 0.0000000000000000e+00  -3.0446293690814809e-06 -8.4687113063745580e-07 0.0000000000000000e+00  6.1370246867324902e-06 7.4608873692041199e-06 0.0000000000000000e+00  3.6779844168259715e-06 -2.2099513825681474e-06 0.0000000000000000e+00  -1.7574750205453346e-06 4.3995828332517027e-06 0.0000000000000000e+00  1.5473104675843178e-06 -6.1691108360394724e-07 0.0000000000000000e+00  1.5282002182873121e-06 1.2323648034597625e-06 0.0000000000000000e+00  6.7251949094005029e-07 2.3881980608156038e-07 0.0000000000000000e+00  1.1030713033410246e-06 1.9899529620804988e-07 0.0000000000000000e+00  4.7439139880944913e-07 1.1350483051845141e-07 0.0000000000000000e+00  -1.8069422506431678e+02 4.8653572786549745e+02 0.0000000000000000e+00  2.3903623355324421e+03 5.2028675091335390e+02 0.0000000000000000e+00  -1.6671119068032833e+03 1.9243086360339469e+03 0.0000000000000000e+00  -7.7024591602329645e+02 -2.2241887413808222e+03 0.0000000000000000e+00  -3.1291222033277302e+02 9.4349434431283001e+01 0.0000000000000000e+00  -4.3916225496414810e+01 1.4814182152297556e+03 0.0000000000000000e+00  -4.9708267083095814e+02 -4.9531638356829336e+02 0.0000000000000000e+00  4.1387174003315799e+01 6.0554840848857327e+02 0.0000000000000000e+00  2.7455994253078080e+02 8.9111993138773880e+02 0.0000000000000000e+00  -3.0991806136232321e+02 2.0330008741152567e+03 0.0000000000000000e+00  3.7548167277167771e+01 9.8629313449139704e+02 0.0000000000000000e+00  -4.2816779336132083e+02 7.5222671509709039e+02 0.0000000000000000e+00  -1.1313290204826257e+02 -4.1975837064143883e+02 0.0000000000000000e+00  2.1419385772907331e+03 -2.1347716245971401e+03 0.0000000000000000e+00  -8.1999058732609313e+01 -3.5360321619461724e+03 0.0000000000000000e+00  7.4812733594374834e+02 8.8586835206762419e+02 0.0000000000000000e+00  5.1853709465001964e+02 4.7782512855788122e+00 0.0000000000000000e+00  2.9671293980111233e+02 2.2170790408176322e+03 0.0000000000000000e+00  -2.0788157117198903e+03 -2.4241360121014850e+02 0.0000000000000000e+00  -3.5982484951219010e+02 3.8892271452122593e+01 0.0000000000000000e+00  -2.6987537093525226e+01 -7.9508878407442545e+00 0.0000000000000000e+00  6.6240025760653441e+02 1.0230013850669666e+03 0.0000000000000000e+00  -7.1794065499224791e+02 1.5970814490690377e+03 0.0000000000000000e+00  4.4540495101269180e+03 1.4478943372804679e+02 0.0000000000000000e+00  -8.1559060923920038e+02 6.3555287924051277e+02 0.0000000000000000e+00  2.4145239353260769e+02 3.2095781736255515e+02 0.0000000000000000e+00  -1.1157596565287911e+03 3.2766379270974213e+01 0.0000000000000000e+00  1.7431953003022693e+02 1.7984489312545359e+03 0.0000000000000000e+00  2.0276328796194778e+02 7.5825791216696268e+02 0.0000000000000000e+00  1.3993212789587940e+03 1.0948415884826245e+03 0.0000000000000000e+00  1.0758315710147615e+03 2.0998005283713828e+03 0.0000000000000000e+00  2.6918939535045838e+03 2.0456250938148924e+03 0.0000000000000000e+00  2.0443134781212852e+03 2.4844592839160678e+03 0.0000000000000000e+00  4.2112090331252748e+03 3.0108268030301002e+02 0.0000000000000000e+00  5.7064283205595791e+02 1.6108439366412035e+03 0.0000000000000000e+00  2.1356340421595675e+02 2.0610542193127576e+03 0.0000000000000000e+00  7.5747320875170530e+01 3.1784156956450414e+02 0.0000000000000000e+00  2.0529920288712887e+01 1.8233896714977627e+02 0.0000000000000000e+00  5.4589406315213679e+01 9.0926343248343494e+02 0.0000000000000000e+00  -2.1772569135702767e+02 1.6215054748420639e+03 0.0000000000000000e+00  2.4898114559580197e+01 1.3377635756863513e+03 0.0000000000000000e+00  2.7512876762762323e+02 1.0438523199713627e+03 0.0000000000000000e+00  1.4097724920381941e+02 3.6992718572524882e+02 0.0000000000000000e+00  -1.9559263830420218e+01 8.1180335066868452e+01 0.0000000000000000e+00  2.2847441218505779e+01 -2.5620957429651583e+02 0.0000000000000000e+00  -1.6992154681081774e+03 -1.9664303676392922e+03 0.0000000000000000e+00  -1.6310918884260238e+03 -3.5303338414106486e+02 0.0000000000000000e+00  -1.6585991490536674e+03 -1.3226363066169076e+03 0.0000000000000000e+00  -5.6621096274923013e+02 4.3405052029270468e+02 0.0000000000000000e+00  -1.4056859873192054e+03 4.9052835008908079e+02 0.0000000000000000e+00  2.3884562979735449e+02 1.3441483250096978e+03 0.0000000000000000e+00  9.1468342436424983e+00 -5.9703183644233127e+02 0.0000000000000000e+00  4.1839188083676308e+03 -2.4681555455090288e+03 0.0000000000000000e+00  3.4272008579469916e+03 -2.7912463161530382e+03 0.0000000000000000e+00  2.4354206789200589e+03 -4.2377057306110000e+03 0.0000000000000000e+00  -2.9097811436845342e+02 -5.4818139798364825e+02 0.0000000000000000e+00  7.5298372974114500e+01 1.6230953313827959e+02 0.0000000000000000e+00  1.5657433047793018e+02 3.8739668474861918e+02 0.0000000000000000e+00  1.1636766164942303e+02 2.2957055588443490e+02 0.0000000000000000e+00  -2.8036815022767087e+02 1.0669161199662667e+03 0.0000000000000000e+00  1.3407295638519898e+02 8.1481085278212424e+02 0.0000000000000000e+00  -2.0520585361984013e+03 1.3533621854855512e+03 0.0000000000000000e+00  -1.3056554511027214e+03 1.8850267162804435e+03 0.0000000000000000e+00  -6.8980581536800446e+02 -7.9461253971487554e+02 0.0000000000000000e+00  -9.8419652735236764e+02 -5.1742651597817542e+02 0.0000000000000000e+00  1.1470350400069461e+02 6.5114726259443628e+01 0.0000000000000000e+00  4.7527484370604088e+02 3.1464905401773130e+01 0.0000000000000000e+00  -6.5434252722090037e+02 2.7826761781626974e+01 0.0000000000000000e+00  -1.0244128817016722e+03 5.5466738487814303e+02 0.0000000000000000e+00  2.6585634608072532e+01 -1.1009913866810468e+03 0.0000000000000000e+00  -8.2890475342028208e+02 -1.1683674132812630e+03 0.0000000000000000e+00  -1.3468444474018818e+02 2.1557466470127250e+02 0.0000000000000000e+00  4.7929478731077317e+00 8.5938142452934926e+01 0.0000000000000000e+00  2.9522275038179509e+03 -8.4601860742349231e+02 0.0000000000000000e+00  -3.6148382004194139e+02 1.1187701285280118e+03 0.0000000000000000e+00  -4.9207720841175450e+02 5.6557876854990434e+02 0.0000000000000000e+00  7.9592171234489263e+02 -9.6131430817257282e+01 0.0000000000000000e+00  -1.1341268474980498e+03 1.2667559944452273e+03 0.0000000000000000e+00  -1.3788520461643341e+02 1.0071190517691106e+03 0.0000000000000000e+00  -5.9499261835679135e+02 1.6704194063344069e+03 0.0000000000000000e+00  -1.0929951669109994e+02 9.9929564111145567e+02 0.0000000000000000e+00  -1.7406707803066678e+02 -5.5483769080415861e+01 0.0000000000000000e+00  3.2306953890348746e+02 -9.5617795978499862e+02 0.0000000000000000e+00  -5.7055849533689468e+02 1.7590790222143125e+03 0.0000000000000000e+00  -3.5764999745313719e+02 -7.7014019074372516e+02 0.0000000000000000e+00  -9.3637180332052242e+02 2.2389449830719582e+03 0.0000000000000000e+00  -4.5668487385003425e+02 1.6095722503968384e+03 0.0000000000000000e+00  -8.9278264981707071e+02 8.9546880875728300e+02 0.0000000000000000e+00  -2.8142333695625058e+02 1.8028163730554497e+03 0.0000000000000000e+00  1.4896940952207742e+03 1.2451852275547474e+03 0.0000000000000000e+00  7.3709354525002755e+02 2.0825172148621576e+02 0.0000000000000000e+00  -4.0002066806440496e+02 -3.8787229104777471e+03 0.0000000000000000e+00  6.4204584658210592e+02 -2.7249173284560125e+03 0.0000000000000000e+00  3.6475788401074951e+01 -5.5721377702967203e+00 0.0000000000000000e+00  -3.4305862729687072e+02 2.8992373977715908e+02 0.0000000000000000e+00  -2.2969318387065064e+02 1.7607025317961327e+02 0.0000000000000000e+00  1.4390964087921104e+03 1.4414384519417497e+03 0.0000000000000000e+00  -1.6580880690102404e+03 -1.5979482572914233e+03 0.0000000000000000e+00  6.3802261175863839e+02 -2.5512187781340285e+02 0.0000000000000000e+00  4.9755303949883012e+02 -7.2187873769971350e+02 0.0000000000000000e+00  8.2313363089211915e+00 9.7129809893879209e+00 0.0000000000000000e+00  -1.8976158790172829e+02 -9.2607245677474737e+01 0.0000000000000000e+00  3.9067633970358031e+01 -8.2977296803341218e+01 0.0000000000000000e+00  4.4856286018505364e+02 1.9703569587261479e+03 0.0000000000000000e+00  1.5852518801461056e+02 9.4624728375630968e+02 0.0000000000000000e+00  -1.7264382845760854e+03 -7.4082577455865066e+02 0.0000000000000000e+00  -2.2808732655345475e+03 3.5795856625941417e+02 0.0000000000000000e+00  -2.1274035179132925e+03 9.4090542581201146e+02 0.0000000000000000e+00  -9.1496693206537952e+02 -7.4749075530535890e+01 0.0000000000000000e+00  -4.9638844314268908e+02 2.4749820719061469e+02 0.0000000000000000e+00  -5.1660787866632143e+02 -2.0701511124006637e+02 0.0000000000000000e+00  1.5569831018474935e+02 6.1425951347071657e+02 0.0000000000000000e+00  -1.71095045