<?xml version="1.0"?>
<VTKFile type="UnstructuredGrid"  version="0.1"  >
<UnstructuredGrid>
<Piece  NumberOfPoints="2549" NumberOfCells="4928">
<Points>
<DataArray  type="Float64"  NumberOfComponents="3"  format="ascii">1.474981630914291 0.02405032311063162 0  1.471205968766328 0.04716125120725317 0  1.447806848376961 0.05652154755040627 0  1.435838551106787 0.07240231248502565 0  1.431030120853326 0.08360509371169902 0  1.430635256291346 0.1065505633163073 0  1.413064178608191 0.1137743518694476 0  1.399952269780098 0.105677159312654 0  1.388084492365024 0.1506311278509128 0  1.520143161918673 0.6657300107018793 0  1.386970170408843 0.1744621898062563 0  1.380949844552091 0.2155689447050182 0  1.346253318328638 0.232087935654538 0  1.3398012792962 0.2596481418191996 0  1.336670898399347 0.2905203958049665 0  1.318405227027051 0.323077307174958 0  1.310320995245954 0.3574579602385622 0  1.290469232883166 0.3683220566009552 0  1.276657763404878 0.4201186985923497 0  1.26415024450213 0.4604519851427831 0  1.244067118617274 0.5048244786201084 0  1.225754184746963 0.5504608392510247 0  1.202803181468192 0.5979253938673126 0  1.179938430658652 0.6493638181731676 0  1.155215431520763 0.706941332898822 0  1.112643191741634 0.737094214743253 0  1.086341843867472 0.7927530571627035 0  1.054126100311864 0.8506380384662298 0  1.012692623978643 0.9032910333851184 0  0.9696352272009969 0.9591369660177086 0  0.9223286167209074 1.013585639873083 0  0.8699289952534398 1.068563524192283 0  0.8141612455517608 1.121057688111751 0  0.755095579752699 1.170440107597596 0  0.6891089629778099 1.220794032360973 0  0.6203706421053835 1.267481041582101 0  0.5464806954644144 1.310540611796403 0  0.4686071400378147 1.349650093230481 0  0.3870836480970133 1.383493080397644 0  0.3016731375373319 1.412298985908782 0  0.2137947659052372 1.434905070705084 0  0.1244661610996838 1.450081858637479 0  0.03257985742896584 1.459782016542371 0  -0.05914273050746209 1.461516142767185 0  -0.1511300931081999 1.456235919613383 0  -0.2416471523152912 1.44311729960081 0  -0.3305583624577894 1.42380860731955 0  -0.4166039882333269 1.395577154282924 0  -0.4986760218518025 1.364352979877547 0  -0.5781434932805692 1.326408661725199 0  -0.6529595131024389 1.28159760469493 0  -0.7232785748309493 1.233944284705314 0  -0.7885873335229535 1.181882108061397 0  -0.84955715984624 1.127202141408334 0  -0.9042917332375106 1.070852028133237 0  -0.9578700621713163 1.010667921387988 0  -1.000397471185517 0.9578693139862088 0  -1.04574074318324 0.9048733067712449 0  -1.08511381767803 0.8431583506204576 0  -1.119903055724283 0.7856723799519049 0  -1.148624310868515 0.729333505983675 0  -1.17243183173888 0.6689523743188035 0  -1.205453058064194 0.6301136087843291 0  -1.220195923890369 0.5528853386988473 0  -1.221138342407934 0.5124590581117494 0  -1.264890807061046 0.5009039161757273 0  -1.279636758748613 0.4505122080622633 0  -1.289315125113229 0.4120064258538212 0  -1.2967715055841 0.3733561830531184 0  -1.322196432874708 0.3513489454069412 0  -1.331187317933931 0.3017499806740337 0  -1.311374499713946 0.3285504698061915 0  -1.377373860024569 0.2895326584517365 0  -1.372465231140134 0.1944656280525805 0  -1.370088146950372 0.1695019875538484 0  -1.374534263211374 0.1363625712876667 0  -1.388560207558563 0.1193788202495181 0  -1.399131724414073 0.08655217318748419 0  -1.398626402630593 0.111880920891165 0  -1.38894140376316 0.02266445071267978 0  -1.407996296976003 0.09630188044670962 0  -1.437967111322639 0.1585764092347831 0  -1.474081150318513 0.07866741087450084 0  -1.482059215417354 0.0489257848431251 0  -1.504793920802224 0.02117257341306441 0  -1.488589663603192 -0.005378962146709333 0  -1.472726940477753 -0.03871585225299201 0  -1.283545311031765 -0.5229182159461607 0  -1.395054265303971 -0.04279574689034002 0  -1.704992556497257 0.504174990662604 0  -1.441163362851201 -0.0623779853608942 0  -1.45048547300975 0.0135253166746201 0  -1.408693340956015 -0.1298279149619666 0  -1.394766309114029 -0.08756615726743415 0  -1.376023775239855 -0.1007833463792051 0  -1.381439931444656 -0.1226931462927091 0  -1.398348984180104 -0.2418843714068447 0  -1.316935586752197 -0.3426089758069263 0  -1.360928688790509 -0.2390279037560228 0  -1.358108896771147 -0.2963746792716748 0  -1.323125986171187 -0.3230738499211685 0  -1.32936103279098 -0.3607677155296583 0  -1.328360621066997 -0.4005298506028806 0  -1.347186092122838 -0.448250260830768 0  -1.239522669638587 -0.4666942176973805 0  -1.209714903219585 -0.4995603814278589 0  -1.248670225233331 -0.6155044834118953 0  -1.199005020858998 -0.6373481983399246 0  -1.187972786818256 -0.700694090605344 0  -1.163203988875346 -0.7653141374786828 0  -1.140757346371715 -0.8275669239079543 0  -1.098305220242871 -0.9091932095600657 0  -1.033044229727569 -0.9323506515732383 0  -1.007702152942484 -1.005199522765929 0  -0.9557456139821775 -1.088704425307281 0  -0.8983427647949482 -1.142128195278276 0  -0.8367162909583262 -1.210143268841154 0  -0.7703294711686072 -1.269209638128003 0  -0.6980451718453261 -1.326131343789196 0  -0.618688187851253 -1.378436704639123 0  -0.5368643295315707 -1.426587111386098 0  -0.4514232098411966 -1.46391897907051 0  -0.3587589921094443 -1.499299494470058 0  -0.2651125909838996 -1.52642315201448 0  -0.1674432376866282 -1.544851065778143 0  -0.06864616476896779 -1.554972814539625 0  0.03110120263054781 -1.556076945883237 0  0.1304463392021213 -1.548412834953524 0  0.2285000819602 -1.531849311420842 0  0.3240176755752887 -1.506990725263997 0  0.4165061935663587 -1.474792641820152 0  0.5050874165428658 -1.435365786651205 0  0.5890110219187344 -1.389833073808916 0  0.6682830254008735 -1.338779142624047 0  0.7410184925790497 -1.283819816020365 0  0.8115394796838112 -1.223740701047581 0  0.8714252260721563 -1.167423345447893 0  0.9286513868524561 -1.106457061668522 0  0.9829769464757572 -1.041771450734385 0  1.030325414944204 -0.9783864978923454 0  1.073144202923995 -0.9143792159581703 0  1.112736125936219 -0.8528784943793773 0  1.144416483872259 -0.7891858772398392 0  1.170415928590984 -0.72760527867687 0  1.208567465861329 -0.6871209286378201 0  1.231338301779364 -0.6252583179475129 0  1.252741381321232 -0.5691044134414561 0  1.272398331360218 -0.5152990454407912 0  1.281358696684832 -0.464885970850739 0  1.28707780417599 -0.4111929687362504 0  1.315211057743403 -0.383675249547902 0  1.324430094575693 -0.3085303232679483 0  1.289689406777372 -0.3142698389201714 0  1.350452336863799 -0.2756373894785144 0  1.365465657474387 -0.2283554548905844 0  1.363621122212965 -0.1971627709412221 0  1.366874835273866 -0.167570695691577 0  1.376432664245056 -0.1390151177627088 0  1.375262389386029 -0.1056673847582526 0  1.604764399285128 0.824369179880778 0  1.411703935721198 -0.08573721662325241 0  1.404756339887272 -0.09279247043005259 0  1.411764585676816 -0.06173501110220472 0  1.431647719091135 -0.04857156390414111 0  1.430915420773773 -0.02927077833067762 0  1.440572840084303 -0.01790156252813849 0  1.447605033604204 -0.003683283868228615 0  1.467651971714385 0.003966931271547841 0  -0.09650182176816637 0.8822137463077852 0  0.6906996194740168 -0.5053864720608893 0  -0.8072683905825545 -0.3852704083416349 0  -0.07653740980212176 -0.9415501958075452 0  0.6537806484022426 0.4967451171592644 0  1.093576725174979 0.1155417844460428 0  -0.7953288707990617 0.4037719726483488 0  -1.15808427897859 0.02868875923259953 0  1.102989340360645 -0.06468840384439448 0  -1.039778805930055 -0.1757855126658052 0  -0.7344112404404379 0.01422380094604057 0  -0.4392519431177933 -0.1390361560879382 0  -1.02956171053314 0.2093832823526292 0  0.3803933200263361 -0.8300828510295821 0  0.08532632897589182 -0.303118640078738 0  0.3074933336138266 0.7675108625085454 0  0.2210726638520172 0.1837207543136556 0  0.5651641645595707 0.01741735569767079 0  -0.4824057449841226 -0.6950283238523457 0  -0.5029714884096455 0.6889682616753448 0  -0.2387171693609698 0.3042972783078976 0  0.9204286961662717 -0.2128972555299816 0  0.900437226789746 0.2467569702018386 0  0.3550140726689468 -0.2134706696903655 0  -0.008726301988603614 0.2298133601433535 0  -0.4918020377245851 0.208792687406037 0  -0.1882932537874828 -0.2788068746098991 0  0.8658177396051651 0.02205156934375964 0  1.252631393747214 0.0305565872418389 0  0.806080545203847 -0.3399360533835934 0  0.7218246784269736 -0.1068991610975737 0  0.5879627324610224 -0.2071851868152994 0  0.4436792691159465 -0.07614342478949013 0  0.5155462088926686 -0.3699218216299296 0  0.8672218518245874 -0.08298677653654321 0  0.7177798869416444 0.0196038409487988 0  -0.8608581439242418 0.1223048236636341 0  -1.074675070497197 0.100519523399565 0  -0.9505785480554673 0.02265684495155025 0  -0.8679702280972174 -0.08916100688839002 0  -1.07797263225721 -0.05232123383262906 0  -1.241522349910223 -0.0808862507191927 0  -1.315226061602983 0.003830512052934187 0  -1.311728840907796 0.05897634849284126 0  -1.232109255257477 0.139996657972346 0  -0.1306945501616628 -0.6097084286054693 0  -0.3028931877885188 -0.5019721318110192 0  -0.2923136444332456 -0.8403638548065731 0  -0.3091426928048773 -0.2015207526087951 0  -0.4530767751980605 -0.4007499352201796 0  -1.231483525361598 -0.1988888610204474 0  -1.213764131414429 0.2450453521974846 0  0.3839765501540928 -0.5013358446819959 0  0.2181249342522675 -0.244923000659478 0  0.2439273879475345 -0.5594212161289609 0  -0.9129306432720007 0.2913305522733263 0  -0.7285630305479097 0.1901347940302016 0  1.272575415946692 -0.08056046769971957 0  1.209601598951099 -0.1787772470611343 0  1.191798720260432 0.2270341578649802 0  1.267338466978949 0.1398725912960044 0  -0.9133267888682979 -0.6526465479471375 0  -1.04766808194373 -0.4464908622746148 0  -1.022192488612511 0.475266796865638 0  -0.8863948602909705 0.6620471212968233 0  0.9419572915122461 -0.6057907597967809 0  0.7750692945310904 -0.8235645698346755 0  0.7336544586328639 0.7929557327481985 0  0.9027198401481765 0.6075808547576729 0  0.04339930344437255 
[...]
<PointData  Vectors="f_48"> 
<DataArray  type="Float64"  Name="f_48"  NumberOfComponents="3" format="ascii">-1.3071693058746415e-07 4.7725769192766801e-08 0.0000000000000000e+00  2.4989341762345699e-07 -1.7834772505416057e-07 0.0000000000000000e+00  4.7483267553583636e-07 -4.4037955246477399e-08 0.0000000000000000e+00  3.0369570143721678e-07 -2.2884183824392961e-07 0.0000000000000000e+00  3.6549388812704657e-07 -5.5115627962850524e-07 0.0000000000000000e+00  1.1922240150780052e-07 -1.2511528728165299e-07 0.0000000000000000e+00  2.1723307744144989e-06 3.1214543808887532e-07 0.0000000000000000e+00  -2.0581283492682890e-07 -2.6801161851997385e-07 0.0000000000000000e+00  1.1113278266089358e-07 2.7643108898814040e-07 0.0000000000000000e+00  -3.4510870939825442e-08 -1.4277194338629426e-08 0.0000000000000000e+00  9.5278918173993692e-08 2.7646684035672016e-07 0.0000000000000000e+00  2.8030353375375698e-07 1.5108376503985346e-07 0.0000000000000000e+00  -1.1147053080927826e-06 -1.8278885981710516e-07 0.0000000000000000e+00  9.2080780695764505e-07 6.0574719381271601e-07 0.0000000000000000e+00  -5.8082205910438727e-07 2.4241685595249622e-07 0.0000000000000000e+00  -8.1514380928202662e-09 6.6739382551364470e-07 0.0000000000000000e+00  1.1030247555788570e-07 3.9291246763780421e-07 0.0000000000000000e+00  -3.7577994252930643e-06 3.9944757941995316e-07 0.0000000000000000e+00  4.5182520821882929e-06 2.7010593693991577e-06 0.0000000000000000e+00  -1.7573927978865417e-06 8.3270029133693772e-07 0.0000000000000000e+00  -4.8293168873519922e-07 1.0211931455398205e-06 0.0000000000000000e+00  3.1989746149548680e-07 2.0166737141021503e-06 0.0000000000000000e+00  -2.1937912804719568e-06 6.4979142191807383e-07 0.0000000000000000e+00  5.9282959024581917e-06 6.6215720910363919e-06 0.0000000000000000e+00  -2.3761667323731360e-06 8.1554724892193114e-07 0.0000000000000000e+00  -3.6237981190080049e-06 -1.3237838125205768e-06 0.0000000000000000e+00  6.4612529860834478e-06 1.0240310876510007e-05 0.0000000000000000e+00  -3.0973706571999340e-06 -3.0974027445461170e-07 0.0000000000000000e+00  -9.7689316636301175e-07 1.3501296540425505e-07 0.0000000000000000e+00  -1.5454658008889732e-06 3.3052449551364996e-06 0.0000000000000000e+00  -1.6137075983362108e-06 2.2338010744361635e-07 0.0000000000000000e+00  -1.8889801495343003e-06 1.9543226823361111e-06 0.0000000000000000e+00  -1.8089104719163917e-06 2.3135948218554318e-07 0.0000000000000000e+00  -1.8558483890673289e-06 3.3302834093520873e-07 0.0000000000000000e+00  -2.2887096916423571e-06 1.3766116798323458e-06 0.0000000000000000e+00  -2.0851390907458679e-06 3.1485922877696819e-07 0.0000000000000000e+00  -2.0216057159524105e-06 2.1427081878799904e-07 0.0000000000000000e+00  -2.1437101375542697e-06 2.7536834523844217e-10 0.0000000000000000e+00  -1.6583766889608642e-06 -5.0491261953921965e-07 0.0000000000000000e+00  -2.1779493358896259e-06 -2.9138221745359107e-07 0.0000000000000000e+00  -7.3239293539999655e-07 -1.1904512856513453e-06 0.0000000000000000e+00  -6.8333489428916893e-07 -1.0005459923462359e-06 0.0000000000000000e+00  -7.0033671633964484e-07 -1.1891297660991742e-06 0.0000000000000000e+00  -1.3308783644398992e-07 -9.6533840918042902e-07 0.0000000000000000e+00  3.1112616476136871e-07 -9.9603543857086938e-07 0.0000000000000000e+00  -8.8097489843265581e-08 -7.6593779949996961e-07 0.0000000000000000e+00  7.2556383052443501e-07 -5.3248431797131783e-07 0.0000000000000000e+00  6.4819750028312842e-07 -4.0121033281643199e-08 0.0000000000000000e+00  -3.4485282157421991e-08 -7.1011609321946234e-07 0.0000000000000000e+00  6.3409397680359610e-07 3.9870763070430205e-07 0.0000000000000000e+00  1.5254862356351374e-07 1.3697075462318350e-07 0.0000000000000000e+00  6.1359011057399029e-08 1.0170675606717663e-07 0.0000000000000000e+00  -1.2228835018367490e-07 1.0960683057887083e-07 0.0000000000000000e+00  -2.4189975678751398e-07 -4.6673751682096715e-08 0.0000000000000000e+00  -3.1165458918349670e-07 -5.4825234044072221e-08 0.0000000000000000e+00  -3.7827636670870698e-07 -4.1720066863587800e-07 0.0000000000000000e+00  -3.5516352091537895e-07 1.8629101879811610e-07 0.0000000000000000e+00  -6.5668366366351937e-07 8.3861743169355007e-08 0.0000000000000000e+00  -3.2302235531512499e-09 -1.1476930102231069e-06 0.0000000000000000e+00  -8.6949899690414780e-07 2.5537109569824334e-07 0.0000000000000000e+00  9.5297483337281859e-07 -2.0383099116740905e-06 0.0000000000000000e+00  -9.6015963606583992e-07 6.1635836547741307e-07 0.0000000000000000e+00  -2.8067745718976347e-07 -5.2063840804807815e-07 0.0000000000000000e+00  3.0287672953767641e-07 -4.2406372981168460e-07 0.0000000000000000e+00  5.7260586950486640e-07 -3.7462770280220861e-08 0.0000000000000000e+00  6.9341557270446561e-07 -2.3700281961631520e-07 0.0000000000000000e+00  -5.4474323285417785e-07 3.4279886007692136e-07 0.0000000000000000e+00  2.4255696603614046e-08 -2.6464153498735176e-07 0.0000000000000000e+00  6.3388845631089691e-09 3.4886210875087856e-08 0.0000000000000000e+00  4.7886391038070880e-08 -2.4045865561492134e-08 0.0000000000000000e+00  -6.9692532150645773e-08 -2.1156157169765033e-07 0.0000000000000000e+00  6.5276790880678779e-08 1.0497731557458891e-07 0.0000000000000000e+00  -5.6485622918499167e-08 -1.1091534523502078e-07 0.0000000000000000e+00  3.4987589995156571e-07 -4.0855183316766262e-07 0.0000000000000000e+00  1.1984079510029544e-07 -3.6329300656223322e-07 0.0000000000000000e+00  -4.2363101640331778e-07 -3.5281795981362413e-07 0.0000000000000000e+00  -2.0335069683302304e-07 1.5818118163602521e-07 0.0000000000000000e+00  2.2499772638192170e-07 -3.8878203921139537e-08 0.0000000000000000e+00  3.9088341296413871e-08 -3.7452290508154063e-07 0.0000000000000000e+00  7.7073715444311004e-08 -1.2011489533473363e-07 0.0000000000000000e+00  2.7851612087127449e-07 -2.5144364621243271e-07 0.0000000000000000e+00  2.4507323203799293e-08 -2.2562577456205084e-07 0.0000000000000000e+00  -5.2368075088658208e-08 2.1507837180256759e-07 0.0000000000000000e+00  -7.5578183738606026e-08 2.3982907898988165e-07 0.0000000000000000e+00  1.2510526487568933e-07 -5.4378003020406238e-07 0.0000000000000000e+00  6.2707139714045553e-07 2.8279133366832850e-07 0.0000000000000000e+00  3.9471551377747720e-07 -2.5818806785604415e-07 0.0000000000000000e+00  -2.1510381474018403e-07 -9.6208939757173738e-08 0.0000000000000000e+00  2.5034759922696003e-07 -4.7443333029560222e-07 0.0000000000000000e+00  4.6098459671703201e-07 3.9192099996122797e-07 0.0000000000000000e+00  1.7516442143913421e-07 -5.5465084543040015e-07 0.0000000000000000e+00  8.6051162016343924e-08 6.6962150715300533e-08 0.0000000000000000e+00  -1.1815459972584276e-07 -2.7050852143660144e-08 0.0000000000000000e+00  5.4680866645505849e-07 1.0096413368460655e-06 0.0000000000000000e+00  -1.2898194476566685e-06 6.3075673654011652e-07 0.0000000000000000e+00  1.0348053755525045e-06 3.5532128869095950e-07 0.0000000000000000e+00  -2.5842891006547393e-07 2.2479300775017107e-07 0.0000000000000000e+00  2.6012330418397179e-08 -2.1459402523172578e-07 0.0000000000000000e+00  1.6539246142649849e-07 4.1880858650974007e-07 0.0000000000000000e+00  -1.3712054221863867e-07 3.2785851203849058e-07 0.0000000000000000e+00  -1.3037867310115090e-06 7.1260433221671190e-07 0.0000000000000000e+00  1.3041371411297376e-06 5.6567304257048673e-07 0.0000000000000000e+00  5.5496978152470368e-08 4.2574986730167672e-07 0.0000000000000000e+00  6.7561304725538217e-07 2.5184035455703128e-07 0.0000000000000000e+00  -1.4931322012723717e-06 2.0528897185972265e-07 0.0000000000000000e+00  -7.2933451219976371e-07 6.5551347958350744e-07 0.0000000000000000e+00  4.3758767896999056e-07 3.7428022203686355e-06 0.0000000000000000e+00  -3.5474667178300967e-06 -9.3975103942450056e-07 0.0000000000000000e+00  4.3581616644897552e-06 3.2977546527034831e-06 0.0000000000000000e+00  -1.2780959154521947e-06 1.6219386915697329e-06 0.0000000000000000e+00  3.4905640973894541e-06 4.0141676897812732e-06 0.0000000000000000e+00  -1.6355850762475044e-06 7.0737237172038695e-07 0.0000000000000000e+00  -1.6153070439109950e-06 -4.6141335007910502e-07 0.0000000000000000e+00  2.4320447393319568e-06 4.6219890832519612e-06 0.0000000000000000e+00  -1.6199060438281377e-06 -3.8360266717472072e-07 0.0000000000000000e+00  -5.0855285467477489e-07 -7.4351864630358491e-08 0.0000000000000000e+00  -1.2897936012227215e-06 2.9981376809066281e-06 0.0000000000000000e+00  -6.3448260783922842e-07 1.3590927748660594e-08 0.0000000000000000e+00  -1.0815123656485024e-06 6.9871299610645669e-07 0.0000000000000000e+00  -7.5393373053458066e-07 4.3919890118155754e-07 0.0000000000000000e+00  -5.0313228985419908e-07 -6.4969728511551068e-08 0.0000000000000000e+00  -1.4057523922053402e-07 -1.3342103829282810e-07 0.0000000000000000e+00  -1.0029693331008554e-08 -1.0064199888424520e-07 0.0000000000000000e+00  1.5538369614205438e-07 2.3141932702515552e-08 0.0000000000000000e+00  2.3077779895026158e-07 2.0614814371005927e-07 0.0000000000000000e+00  2.7786452703042525e-07 4.2948036939556213e-07 0.0000000000000000e+00  5.1304538981758792e-08 6.0425925160429953e-07 0.0000000000000000e+00  -4.9037562357043913e-08 8.2432801308206348e-07 0.0000000000000000e+00  -7.8095222745912896e-07 6.8959993896279686e-07 0.0000000000000000e+00  -1.1137941089376600e-06 5.8706860669294834e-07 0.0000000000000000e+00  -1.3970021126022787e-06 4.4668806855436826e-07 0.0000000000000000e+00  -1.8156350193360056e-06 -5.9269221571878729e-08 0.0000000000000000e+00  -1.8808683543110183e-06 -2.7311732386527103e-07 0.0000000000000000e+00  -2.1060179466817581e-06 -8.3896525611594451e-07 0.0000000000000000e+00  -2.1710992838063566e-06 -1.8037133804239629e-06 0.0000000000000000e+00  -1.8568030805228583e-06 -6.4965098746139460e-07 0.0000000000000000e+00  -1.8243867107474436e-06 -1.0631667173212509e-06 0.0000000000000000e+00  -1.6514951010613372e-06 -2.5017814680300587e-06 0.0000000000000000e+00  -1.5120601042322217e-06 -1.6769097398850949e-06 0.0000000000000000e+00  -1.0114901264850862e-06 -3.6058964635804942e-06 0.0000000000000000e+00  -8.4956254952380367e-07 -1.6606267516721734e-06 0.0000000000000000e+00  -2.8295180110495747e-06 -8.4513338361295755e-08 0.0000000000000000e+00  6.4982560651336248e-06 -9.3429187958692206e-06 0.0000000000000000e+00  -4.1128664233479763e-06 2.0361805457566487e-06 0.0000000000000000e+00  -2.5295598642842723e-06 -1.6258779133289129e-09 0.0000000000000000e+00  5.0052879450926832e-06 -5.3200859324830581e-06 0.0000000000000000e+00  -1.7604672253865460e-06 -1.8935568084094079e-07 0.0000000000000000e+00  -2.1564018880781254e-08 -2.2530179044590741e-06 0.0000000000000000e+00  4.9575350714698443e-06 -1.8774606963262715e-06 0.0000000000000000e+00  -3.1598233840773980e-06 -3.4170639530583427e-07 0.0000000000000000e+00  5.5119346752800532e-07 -2.9450356810376383e-07 0.0000000000000000e+00  -2.7678589730639900e-07 -1.4914049970971653e-07 0.0000000000000000e+00  1.4377274594639568e-07 -2.3263051240531637e-07 0.0000000000000000e+00  2.4696906276796568e-07 1.1117255149806130e-07 0.0000000000000000e+00  -1.7284433039107515e-07 -7.7461011289885599e-08 0.0000000000000000e+00  1.1718602555677331e-07 -4.1348000259290070e-07 0.0000000000000000e+00  -2.3212934788399737e-07 -5.6224725613198303e-08 0.0000000000000000e+00  4.4407164424483330e-08 -1.7710133209614814e-07 0.0000000000000000e+00  -6.8973485548706792e-09 -7.4078091049316926e-09 0.0000000000000000e+00  -1.6611977429580681e-09 -3.7999883386721971e-09 0.0000000000000000e+00  1.3277506872789457e-10 -2.8895458587628368e-09 0.0000000000000000e+00  -4.3181253977736331e-09 1.9036364969714750e-07 0.0000000000000000e+00  7.0875056441803524e-07 2.9502603593624752e-07 0.0000000000000000e+00  2.1367923645329479e-07 1.1669961182247618e-07 0.0000000000000000e+00  3.6530033717945227e-07 5.6832951128446281e-07 0.0000000000000000e+00  1.6632529414307465e-07 2.6320674813351939e-08 0.0000000000000000e+00  3.9866877870244445e-07 2.3597159950753740e-07 0.0000000000000000e+00  2.1204474714609280e-07 8.8270681932960540e-08 0.0000000000000000e+00  5.3532160537046366e+02 -2.4665655630314109e+03 0.0000000000000000e+00  -4.0942841048746224e+01 -1.8505172746959968e+01 0.0000000000000000e+00  -1.8458870525940583e+02 1.3779722764717923e+02 0.0000000000000000e+00  1.5072323375406364e+02 1.0539748160170984e+03 0.0000000000000000e+00  -1.4245576672594586e+03 5.2546747696955777e+02 0.0000000000000000e+00  -1.2528659783501487e+02 5.0365295333845779e+02 0.0000000000000000e+00  8.3825623992300575e+02 6.4904792495262279e+02 0.0000000000000000e+00  -6.9783364198750144e+00 1.5762345453535184e+02 0.0000000000000000e+00  1.8947569542477453e+01 8.1950310275249663e+01 0.0000000000000000e+00  -2.2139580796806334e+02 4.4929573146440589e+02 0.0000000000000000e+00  -2.1146866845955961e+00 9.5214677758471237e+02 0.0000000000000000e+00  -3.7708541627425353e+02 5.4323110496045274e+02 0.0000000000000000e+00  8.9105239730751066e+01 2.0347320131825870e+02 0.0000000000000000e+00  -2.1193427128940510e+02 1.3839587980308821e+02 0.0000000000000000e+00  2.1944373094636185e+03 -1.8082790433554253e+03 0.0000000000000000e+00  -1.3154902602645163e+03 -1.1239338569711811e+03 0.0000000000000000e+00  -1.9500114341458770e+03 1.2780432696094153e+03 0.0000000000000000e+00  -7.9909216665068472e+00 1.5076618453207577e+03 0.0000000000000000e+00  1.0371030235483208e+03 3.3259891124826788e+02 0.0000000000000000e+00  2.3488042822400275e+03 -5.5808436059587279e+02 0.0000000000000000e+00  3.3906983782380839e+03 -2.1306552224694852e+02 0.0000000000000000e+00  -3.1266115382402415e+01 -5.6859932299558679e+01 0.0000000000000000e+00  -6.0143350663937849e+02 1.0179078801733505e+03 0.0000000000000000e+00  1.9782561266561488e+03 1.3202910491339496e+03 0.0000000000000000e+00  -1.3252165783103925e+02 -2.8037400949857665e+03 0.0000000000000000e+00  1.6004615961191416e+03 1.8015864209391657e+03 0.0000000000000000e+00  -7.9136483629096620e+02 -2.5798554794353055e+02 0.0000000000000000e+00  -9.0851933314362263e+00 7.1325593491116479e+02 0.0000000000000000e+00  -3.8643696396124629e+00 9.9346445348807848e+01 0.0000000000000000e+00  -4.8838850904005717e+01 -5.0234846754089929e+01 0.0000000000000000e+00  2.4798999994688720e+02 7.3463085551172344e+02 0.0000000000000000e+00  7.2457075640431208e+02 9.2556771051403462e+02 0.0000000000000000e+00  7.0400430010177047e+02 1.8560734213985290e+03 0.0000000000000000e+00  1.1237990170597063e+03 4.7552263997202579e+02 0.0000000000000000e+00  9.6427566754810044e+01 3.8963155836169437e+02 0.0000000000000000e+00  -1.2178459398813400e+01 1.0596494331692447e+03 0.0000000000000000e+00  1.7759063601934201e+02 6.9833202617588347e+02 0.0000000000000000e+00  3.0437256448913018e+01 2.0365065250131630e+02 0.0000000000000000e+00  -3.9363005993979772e+00 5.2381264646927150e+02 0.0000000000000000e+00  -1.6874505117769468e+02 6.1986547771409198e+02 0.0000000000000000e+00  -7.6227790511941805e+01 3.7833738346004566e+02 0.0000000000000000e+00  -5.2827257568804193e+01 1.7177668358621540e+02 0.0000000000000000e+00  3.3590295939128332e+00 -1.4608800094014235e+01 0.0000000000000000e+00  3.7472558903641668e+00 -4.6555944553622766e+01 0.0000000000000000e+00  -7.0224261829589381e+00 -3.6654448734123619e+01 0.0000000000000000e+00  3.2376050187391678e+02 7.9609932187552181e+02 0.0000000000000000e+00  9.5534693137203146e+02 4.7322631964874057e+02 0.0000000000000000e+00  8.3959320221598955e+02 9.9769112200631525e+02 0.0000000000000000e+00  -5.0744365160091581e+02 2.6504446538432546e+02 0.0000000000000000e+00  6.9035128215971861e+02 -1.1332585378254338e+02 0.0000000000000000e+00  -1.2721062046832297e+02 2.2531268564609437e+02 0.0000000000000000e+00  -1.7197614658946556e+01 -3.3553709026576414e+01 0.0000000000000000e+00  1.2673759524711502e+03 -1.8670690366396767e+02 0.0000000000000000e+00  2.8996462170531008e+03 3.7662878887059429e+02 0.0000000000000000e+00  9.1224092006721435e+02 -6.6060478109302028e+02 0.0000000000000000e+00  3.1592091581050778e+02 4.4185547123190753e+02 0.0000000000000000e+00  5.7777080952474728e+02 1.1342918663723387e+03 0.0000000000000000e+00  1.1751727091480772e-01 5.1207160376744297e-02 0.0000000000000000e+00  -3.5417430731868571e+01 -5.2330485762133605e+01 0.0000000000000000e+00  -2.1624215271432118e+02 3.4164165157686091e+02 0.0000000000000000e+00  -6.0774435596009646e+01 1.4885503870436418e+02 0.0000000000000000e+00  -2.8733909473488990e+02 1.0459678134780924e+02 0.0000000000000000e+00  -3.2122137494929183e+02 2.4533187277661602e+02 0.0000000000000000e+00  1.1888479014929395e+02 8.6944498142292716e+01 0.0000000000000000e+00  3.1274749438473935e+02 1.1731861113584000e+02 0.0000000000000000e+00  -7.7487267339854100e+02 -4.0802032814275373e+02 0.0000000000000000e+00  -1.0046313465132511e+03 -1.0004095163171185e+02 0.0000000000000000e+00  -1.3834742092183428e+03 4.1004943984407618e+01 0.0000000000000000e+00  -1.1300760868162979e+03 4.8626539995547165e+02 0.0000000000000000e+00  -7.4070082364053363e+01 7.0291187098021260e+02 0.0000000000000000e+00  2.4784112485978304e+02 4.3348014079885041e+02 0.0000000000000000e+00  6.0320595779761049e+02 -1.0807354720064870e+03 0.0000000000000000e+00  -1.1631132480919209e+02 -1.3326561520599598e+03 0.0000000000000000e+00  9.8585218211996288e+00 -2.8189120044969918e+00 0.0000000000000000e+00  -6.2051192852938323e+02 1.9233460450416194e+03 0.0000000000000000e+00  -9.4563293529839530e+02 1.2092699115524067e+03 0.0000000000000000e+00  -1.4690045834722628e+03 5.1788058267723943e+02 0.0000000000000000e+00  -1.8358071376108789e+01 9.9354666680904042e+00 0.0000000000000000e+00  -1.8500635624949530e+02 1.0026323725141635e+03 0.0000000000000000e+00  -2.5196699962063366e+02 4.9401875885856850e+02 0.0000000000000000e+00  -2.9284910855348494e+03 -1.0151137876765031e+02 0.0000000000000000e+00  -3.7870735172404414e+02 -3.8040134983050102e+03 0.0000000000000000e+00  2.1853147848616477e+03 2.8000043967281981e+03 0.0000000000000000e+00  -2.2294168237136228e+02 2.1829226996692876e+02 0.0000000000000000e+00  2.9578534564164642e+01 3.1112662354270405e+01 0.0000000000000000e+00  -3.0653144242498115e+02 4.0904897552322228e+02 0.0000000000000000e+00  -4.3462190330786285e+02 1.2225431652095153e+03 0.0000000000000000e+00  -1.0553593100413091e+03 9.8528894263773464e+02 0.0000000000000000e+00  -2.6093083595062473e+02 9.7574290723198021e+02 0.0000000000000000e+00  -1.6425225324654134e+03 -5.0246262924984904e+02 0.0000000000000000e+00  -1.5145206378644923e+03 -2.1838478001873835e+02 0.0000000000000000e+00  2.3921870505981079e+01 -1.1332369346412590e+02 0.0000000000000000e+00  -2.5914589649919390e+02 5.6202923247063541e+02 0.0000000000000000e+00  3.3606014767489264e+03 -9.8645068641823548e+02 0.0000000000000000e+00  2.0558798713834622e+03 -2.8888620104113616e+03 0.0000000000000000e+00  1.9315479237663787e+03 -1.9582869767507377e+03 0.0000000000000000e+00  5.4038355472858461e+02 2.8073682218594136e+03 0.0000000000000000e+00  -2.1558188098344468e+02 -1.8502636923397461e+03 0.0000000000000000e+00  -9.3329419325881383e+02 3.1597241118975467e+02 0.0000000000000000e+00  -5.3501484073956385e+02 6.7411863115436097e+02 0.0000000000000000e+00  -7.8365112491813818e+02 -1.1375909066830768e+03 0.0000000000000000e+00  -1.2751885839532138e+03 -5.7014699920118233e+02 0.0000000000000000e+00  -5.5975535730644390e+02 2.5885628702328449e+03 0.0000000000000000e+00  -1.3152461928409396e+03 -1.7670103067804198e+03 0.0000000000000000e+00  -6.8732220952601301e+02 -2.0349770916909986e+03 0.0000000000000000e+00  2.5570985164176878e+02 1.4938277975594008e+02 0.0000000000000000e+00  -1.3424397082013574e+01 -2.0568019804920921e+00 0.0000000000000000e+00  4.2121921575500556e+02 -9.7927359383235583e+01 0.0000000000000000e+00  6.4541094886255041e+02 -5.9453216249026104e+00 0.0000000000000000e+00  8.9615637967339080e+02 -5.2594826581075347e+02 0.0000000000000000e+00  1.7434481923074209e+03 4.6405640995912523e+02 0.0000000000000000e+00  3.9858824251464694e+02 1.4810293393462748e+03 0.0000000000000000e+00  1.5137990