<?xml version="1.0"?>
<VTKFile type="UnstructuredGrid"  version="0.1"  >
<UnstructuredGrid>
<Piece  NumberOfPoints="2549" NumberOfCells="4928">
<Points>
<DataArray  type="Float64"  NumberOfComponents="3"  format="ascii">1.474982489104603 0.02405063314213723 0  1.471206875415728 0.04716155967089977 0  1.447807798851305 0.05652176813188693 0  1.435839644055828 0.07240265435785669 0  1.431031282928838 0.08360537907610514 0  1.430636576708461 0.1065508608295325 0  1.413065885605834 0.1137763222755274 0  1.399955424168137 0.105677145539949 0  1.388086582677857 0.1506314829938341 0  1.519408158620386 0.6659331548884887 0  1.386972769686774 0.174463228683128 0  1.380951320142675 0.2155693247245838 0  1.346254487405496 0.2320884163864658 0  1.339803229653517 0.2596487420542134 0  1.336672633308927 0.2905212414967402 0  1.318407044366854 0.3230782794269484 0  1.310323398617604 0.357459245359554 0  1.290470528130737 0.3683231671158645 0  1.276658948506006 0.4201194942148487 0  1.264151879851834 0.4604534946553375 0  1.244067960344448 0.5048257268087991 0  1.225755114070616 0.5504623297236583 0  1.202803289031356 0.5979268716380524 0  1.17993939596172 0.6493653904719785 0  1.155215704956755 0.7069441206387254 0  1.112641762197088 0.737094367393913 0  1.086340999419369 0.7927534663238096 0  1.054126004771384 0.8506395722693834 0  1.012691852031187 0.9032918486058563 0  0.9696343012193929 0.9591379911901616 0  0.9223274950933895 1.013586473793177 0  0.8699275994789274 1.068564196671731 0  0.8141597089574621 1.121058201977666 0  0.7550939146442266 1.170440459760413 0  0.6891071019880075 1.220794116291398 0  0.6203686608392683 1.267480899573751 0  0.5464786707325466 1.310540233099903 0  0.4686050465457164 1.349649463267295 0  0.3870815837108407 1.383492250337286 0  0.3016710748554126 1.412297857579459 0  0.213792788429716 1.434903825638155 0  0.1244643126910856 1.450080453715319 0  0.03257806522587332 1.459780390841769 0  -0.05914433787938279 1.461514398955327 0  -0.151131595480163 1.456234070125329 0  -0.2416484335021998 1.443115336525133 0  -0.330559559195773 1.423806650399298 0  -0.416604947655834 1.395575138026407 0  -0.4986768495261778 1.36435093987406 0  -0.5781442156458529 1.326406733331148 0  -0.652960061655022 1.28159569337513 0  -0.7232790572215736 1.233942484447097 0  -0.7885877290959175 1.181880407284964 0  -0.8495575282985712 1.127200574862856 0  -0.9042921011662827 1.07085058988142 0  -0.9578704793759476 1.010666639745322 0  -1.000397887859353 0.9578680704335296 0  -1.045741210242229 0.9048722603176782 0  -1.085114358883654 0.8431573740477329 0  -1.119903790968245 0.7856715758009627 0  -1.148624953714218 0.7293326724036749 0  -1.172432465345449 0.6689515189094108 0  -1.205454005279488 0.6301131937843529 0  -1.220197337216157 0.5528849670305354 0  -1.221140185497868 0.5124584369249509 0  -1.264892014077601 0.5009023187583621 0  -1.279637729287214 0.4505109268102234 0  -1.289316116416458 0.412005276881459 0  -1.296772541764115 0.3733550337634722 0  -1.322197293441363 0.3513476797476801 0  -1.331188272370332 0.3017488561379134 0  -1.311375470196143 0.3285494641558483 0  -1.377374535012197 0.2895313737782054 0  -1.372466047212541 0.1944643923205176 0  -1.370088992690122 0.1695007110339631 0  -1.374535038747588 0.1363612885082907 0  -1.388560962045343 0.1193775460703809 0  -1.399132746948819 0.08655084489000459 0  -1.398626879354806 0.1118795921986551 0  -1.388946383650048 0.02266273902014647 0  -1.407993680980931 0.09630096734665777 0  -1.437955913860505 0.1585780866235303 0  -1.474079730290372 0.07867126631759494 0  -1.482058862153047 0.04892955732912512 0  -1.50479441432338 0.02117750994499807 0  -1.488591735486798 -0.005374760564841366 0  -1.472730905602875 -0.0387116026160199 0  -1.283752632934689 -0.5229792986539007 0  -1.395058474643212 -0.04279777462423261 0  -1.704686806842516 0.5043443099133794 0  -1.441167842696677 -0.06237640321053951 0  -1.450482413320562 0.01352838919972444 0  -1.408694910361102 -0.1298298729617463 0  -1.394770797612703 -0.087567808500705 0  -1.376027018222902 -0.1007847754971773 0  -1.381442573461755 -0.1226945664576738 0  -1.398350342814101 -0.2418865845765545 0  -1.316937099731301 -0.3426107354823708 0  -1.3609303643572 -0.2390293434742233 0  -1.35811033093225 -0.2963759059198512 0  -1.323126959216191 -0.3230749552561756 0  -1.329361973945022 -0.3607688196842639 0  -1.328361695453701 -0.4005309133106686 0  -1.347186037537874 -0.4482515831408564 0  -1.239524052732361 -0.4666956679211284 0  -1.209716081082979 -0.4995616981622232 0  -1.248667760884269 -0.6155053374690722 0  -1.199003931982994 -0.6373492287736493 0  -1.187972089100835 -0.7006945879775103 0  -1.163204090841686 -0.7653153677739859 0  -1.140756209630241 -0.8275671199080479 0  -1.098304475331609 -0.9091939385513028 0  -1.033043795083095 -0.932350857129483 0  -1.007700449625937 -1.00519937144153 0  -0.9557451446119273 -1.088705023742172 0  -0.8983420450961085 -1.142128216060521 0  -0.8367151363676889 -1.210142902985355 0  -0.7703285968227851 -1.269209193904665 0  -0.6980442056683904 -1.326130637381639 0  -0.6186873173264664 -1.378435755336932 0  -0.5368635291863373 -1.426585979177101 0  -0.4514225637943236 -1.463917680193463 0  -0.3587584977624799 -1.499298072493925 0  -0.2651122659455227 -1.526421605723431 0  -0.1674431051242098 -1.544849432274777 0  -0.06864624049372499 -1.554971167400942 0  0.03110093143319174 -1.556075280210769 0  0.1304458650792628 -1.548411244284549 0  0.2284994266182131 -1.531847754700753 0  0.3240168541450701 -1.506989278082891 0  0.4165052365934087 -1.474791361722182 0  0.5050863625265466 -1.435364673579713 0  0.5890099167954602 -1.389832167893175 0  0.6682818979370145 -1.338778460892537 0  0.7410174229289448 -1.283819359549655 0  0.811538567094679 -1.22374053232946 0  0.8714243638988288 -1.167423309758059 0  0.9286506088605284 -1.1064571879302 0  0.9829763909526036 -1.041771775096333 0  1.030325093412955 -0.9783870338325465 0  1.073144091335186 -0.9143797135630547 0  1.112736651956491 -0.8528794938997022 0  1.144416373101254 -0.7891860323993155 0  1.170414794608177 -0.7276050868633221 0  1.208569360833069 -0.6871234300998669 0  1.231339989181375 -0.6252594771562173 0  1.252742259053112 -0.5691053116162071 0  1.272399865770506 -0.5153002494459281 0  1.28136052830129 -0.4648867456293223 0  1.287078942966613 -0.4111934977860529 0  1.315213742026064 -0.3836762600053316 0  1.324432484108713 -0.308530917593542 0  1.28969244372356 -0.3142719826588591 0  1.350453840462775 -0.2756374330953678 0  1.365466934593204 -0.2283554432535509 0  1.363622608055318 -0.1971628272102116 0  1.366876376147478 -0.1675706906099694 0  1.376434304457278 -0.1390151070455148 0  1.375264093861972 -0.1056672341219016 0  1.604780603933833 0.8243659676633178 0  1.411705569951234 -0.08573689867837087 0  1.40475814247909 -0.09279219958547304 0  1.411766035139004 -0.06173455922849707 0  1.431648931250613 -0.04857114748003925 0  1.430916487706692 -0.02927018149050718 0  1.440573838072629 -0.01790112300127504 0  1.447605837282189 -0.003682697773242069 0  1.467652822263301 0.003967230508487224 0  -0.09650291452130691 0.8822120202023394 0  0.6907007969153077 -0.5053861371337086 0  -0.8072691939969696 -0.3852707370803785 0  -0.07653749991771641 -0.9415486507059739 0  0.6537811638596642 0.4967453549165095 0  1.093578267246567 0.1155423208494837 0  -0.7953299407664377 0.4037707114032212 0  -1.158085614817778 0.02868750895373881 0  1.102990945296709 -0.06468826955786587 0  -1.039780157128256 -0.1757864974153557 0  -0.7344121683420767 0.01422289342747316 0  -0.4392520723573221 -0.1390364748861214 0  -1.029562800301022 0.2093822423553422 0  0.3803935389354859 -0.8300817881949615 0  0.08532820665780932 -0.3031177165709392 0  0.3074927329034314 0.7675100921384894 0  0.2210732465214625 0.1837208631209225 0  0.565165622290038 0.01741780387003148 0  -0.482405967949468 -0.6950274569550176 0  -0.5029724891738294 0.6889664306329734 0  -0.2387177559619495 0.3042957047367921 0  0.920430379100706 -0.2128972361295844 0  0.9004385667557891 0.2467575604133909 0  0.3550156301526046 -0.2134697794194937 0  -0.00872631078421761 0.2298128593100534 0  -0.4918027128873926 0.2087912719646563 0  -0.1882924268033822 -0.2788067194017311 0  0.8658193340941872 0.02205191756298569 0  1.252632857009132 0.03055697747014408 0  0.8060820887574689 -0.339935930960869 0  0.7218263058700906 -0.106898824107564 0  0.5879643089379455 -0.2071846714365703 0  0.4436807426491782 -0.07614278276677165 0  0.5155476192886066 -0.3699211425158689 0  0.8672235070056776 -0.08298655405106367 0  0.7177814369924461 0.01960422540188199 0  -0.8608592293016857 0.1223037799781053 0  -1.074676238676523 0.1005183994887323 0  -0.9505797379378171 0.02265581401128169 0  -0.867971338050698 -0.08916187016742398 0  -1.077974031915823 -0.05232235769848395 0  -1.241524261631967 -0.08088750364472484 0  -1.31522770418022 0.00382902040853815 0  -1.311729838743223 0.05897496132155038 0  -1.232110215624804 0.139995462421258 0  -0.1306945313867023 -0.6097071799793757 0  -0.3028933031305034 -0.5019711827200016 0  -0.2923137608076268 -0.8403625250619841 0  -0.3091423467773843 -0.2015208272726356 0  -0.4530770414779867 -0.4007494418027766 0  -1.23148517710557 -0.1988899424213473 0  -1.213765053700404 0.245044263979679 0  0.3839776726605234 -0.5013349142289675 0  0.2181266108585888 -0.2449219550824091 0  0.2439282742609864 -0.5594201080369782 0  -0.9129317431832421 0.2913294838726985 0  -0.7285640069436338 0.1901336335650258 0  1.272576947633976 -0.08056036044857394 0  1.209603213655056 -0.1787773931224314 0  1.191800270247633 0.2270349324437605 0  1.267340075810898 0.1398732012842745 0  -0.9133271145052034 -0.6526468696715063 0  -1.04766915807249 -0.4464916909713423 0  -1.022193681771345 0.475265844532075 0  -0.8863957964891501 0.6620458611311483 0  0.9419583013490372 -0.6057909655193199 0  0.7750695615001874 -0.8235644284718647 0  0.7336540665130138 0.7929560918553004 0  0.902720176432527 0.607581550280207 0  0.0433990
[...]
<PointData  Vectors="f_48"> 
<DataArray  type="Float64"  Name="f_48"  NumberOfComponents="3" format="ascii">-1.4274816378215426e-07 4.1955631789013857e-08 0.0000000000000000e+00  2.8136932780624776e-07 -2.1009604990402047e-07 0.0000000000000000e+00  5.5460243326885396e-07 -2.9297360591570738e-08 0.0000000000000000e+00  3.6371008468670380e-07 -2.6597483989517335e-07 0.0000000000000000e+00  4.5897154201619074e-07 -6.8659880768046480e-07 0.0000000000000000e+00  1.1029403137132093e-07 -1.2260771545812275e-07 0.0000000000000000e+00  2.7850149597972517e-06 3.3576359950846680e-07 0.0000000000000000e+00  -2.0219525657243547e-07 -4.0092833534059822e-07 0.0000000000000000e+00  8.0811710715098370e-08 2.3153635401193719e-07 0.0000000000000000e+00  -1.8021501561547527e-08 1.7590328671888720e-09 0.0000000000000000e+00  7.1660689954606508e-08 2.4704477865484360e-07 0.0000000000000000e+00  1.6577924396852156e-07 7.8968680705401800e-08 0.0000000000000000e+00  -4.9197499811276534e-07 -1.6853902370863274e-07 0.0000000000000000e+00  5.5578643851405368e-07 4.1810351247870379e-07 0.0000000000000000e+00  -3.7760256429890959e-07 1.7212383078428361e-07 0.0000000000000000e+00  -3.5489964139328685e-08 4.8839473512903850e-07 0.0000000000000000e+00  1.6646865269932108e-07 3.1541504910925130e-07 0.0000000000000000e+00  -3.0506591262563846e-06 2.7922407052281656e-07 0.0000000000000000e+00  3.7436936526284367e-06 2.2959583996654580e-06 0.0000000000000000e+00  -1.4854258445056822e-06 7.3130729797911227e-07 0.0000000000000000e+00  -4.4272017669073624e-07 8.9579794194059548e-07 0.0000000000000000e+00  2.6807031618631128e-07 1.7798833788252538e-06 0.0000000000000000e+00  -1.9304466385239472e-06 5.8505775346054343e-07 0.0000000000000000e+00  5.1329997025409015e-06 5.7987959596421405e-06 0.0000000000000000e+00  -2.0635557306306912e-06 6.9244217419634343e-07 0.0000000000000000e+00  -3.2030172894894478e-06 -1.2256881016398270e-06 0.0000000000000000e+00  5.6959229036935478e-06 9.1198799873432093e-06 0.0000000000000000e+00  -2.7766259642913916e-06 -2.3316765002379868e-07 0.0000000000000000e+00  -9.0263019638152799e-07 1.3671790211270296e-07 0.0000000000000000e+00  -1.4136465341886335e-06 3.0101672365730734e-06 0.0000000000000000e+00  -1.4784676660187498e-06 2.3419137546941896e-07 0.0000000000000000e+00  -1.7317168040569391e-06 1.7927537864629085e-06 0.0000000000000000e+00  -1.6595405578217713e-06 2.3597087753266939e-07 0.0000000000000000e+00  -1.7057841563584455e-06 3.2819360043485116e-07 0.0000000000000000e+00  -2.0980556693683601e-06 1.2628569829229600e-06 0.0000000000000000e+00  -1.9143490352914841e-06 3.0269875106481215e-07 0.0000000000000000e+00  -1.8550000768193518e-06 2.0660847064407589e-07 0.0000000000000000e+00  -1.9599790065402822e-06 7.9497090670341824e-09 0.0000000000000000e+00  -1.5206472273111745e-06 -4.4759362860749148e-07 0.0000000000000000e+00  -1.9741014270235713e-06 -2.6375393700073925e-07 0.0000000000000000e+00  -6.7567111967103210e-07 -1.0629493832703392e-06 0.0000000000000000e+00  -6.2654795828749268e-07 -8.9274026061195725e-07 0.0000000000000000e+00  -6.3419956540003324e-07 -1.0536407534591957e-06 0.0000000000000000e+00  -1.2625263711564895e-07 -8.4778388548431305e-07 0.0000000000000000e+00  2.5127193917806919e-07 -8.6167875310560113e-07 0.0000000000000000e+00  -8.0993202567164283e-08 -6.4908591996850278e-07 0.0000000000000000e+00  5.8906329013061579e-07 -4.3129983160117896e-07 0.0000000000000000e+00  4.9132985009028633e-07 -2.8084072744499674e-08 0.0000000000000000e+00  -4.2953065274923520e-08 -5.2540282484778591e-07 0.0000000000000000e+00  4.0316828891196741e-07 3.1375960348653172e-07 0.0000000000000000e+00  -6.5084751797280262e-10 8.3105201233494786e-08 0.0000000000000000e+00  -1.0987215380565756e-07 5.8937530902660933e-08 0.0000000000000000e+00  -2.6560539328041891e-07 9.8445850319468401e-09 0.0000000000000000e+00  -4.0109963269661440e-07 -1.9839326019185708e-07 0.0000000000000000e+00  -4.3486090735009182e-07 -1.3410278273115394e-07 0.0000000000000000e+00  -4.9192783720220463e-07 -7.4173258818479451e-07 0.0000000000000000e+00  -4.9795803477143204e-07 3.6272225131131353e-07 0.0000000000000000e+00  -8.7949296846098933e-07 1.1738154512814298e-07 0.0000000000000000e+00  1.0483019798006212e-07 -1.5938834599219769e-06 0.0000000000000000e+00  -1.1774748911478045e-06 4.5674211719661874e-07 0.0000000000000000e+00  1.4360604948575486e-06 -2.7789928338633927e-06 0.0000000000000000e+00  -1.2882028406424253e-06 8.6289304663729902e-07 0.0000000000000000e+00  -5.8879723496400333e-07 -5.8556814305450033e-07 0.0000000000000000e+00  1.1406921374060751e-06 -7.8653376602400459e-07 0.0000000000000000e+00  -2.1523771404416438e-07 4.7682715169287048e-08 0.0000000000000000e+00  3.8409463185164532e-07 -2.5777189110173706e-07 0.0000000000000000e+00  -4.8725239782155525e-08 -8.2907706441880898e-08 0.0000000000000000e+00  2.4679592535863793e-07 -4.7366329451259846e-07 0.0000000000000000e+00  -3.1719167477329866e-07 -3.1354915783314352e-08 0.0000000000000000e+00  -4.4518645267510322e-08 -1.1047679727749753e-07 0.0000000000000000e+00  -3.7447171362087073e-08 -4.5735187937138778e-07 0.0000000000000000e+00  5.0254901132403162e-08 1.6926990603344151e-07 0.0000000000000000e+00  -1.4835485149067724e-07 -1.8361160592539958e-07 0.0000000000000000e+00  6.0622443923036887e-07 -4.8801499594443549e-07 0.0000000000000000e+00  1.8531905775746968e-07 -4.4618332473840598e-07 0.0000000000000000e+00  -6.6564862621522665e-07 -6.1301679418372678e-07 0.0000000000000000e+00  -3.8155594741237391e-07 1.9644023834298206e-07 0.0000000000000000e+00  3.9425467564180887e-07 -4.6136691920224669e-08 0.0000000000000000e+00  5.2956566733563338e-08 -4.7707301197977750e-07 0.0000000000000000e+00  8.7492323718916402e-08 -1.0643372575860316e-07 0.0000000000000000e+00  3.1821258989435658e-07 -2.8184862253408586e-07 0.0000000000000000e+00  1.4258127354703491e-08 -2.4312995904918402e-07 0.0000000000000000e+00  -4.2592546081524715e-08 2.1628505407367836e-07 0.0000000000000000e+00  -1.0087607830026691e-07 2.4122692721378584e-07 0.0000000000000000e+00  1.2717830541630041e-07 -5.7971905623471105e-07 0.0000000000000000e+00  6.4880101821213943e-07 3.0616452564002105e-07 0.0000000000000000e+00  3.9880740637050727e-07 -2.6109662276996021e-07 0.0000000000000000e+00  -2.2134773777848504e-07 -9.2693434125966129e-08 0.0000000000000000e+00  2.5510527043614061e-07 -4.9479174626253768e-07 0.0000000000000000e+00  4.7691580142500585e-07 4.2822692633503720e-07 0.0000000000000000e+00  1.8584944208216254e-07 -5.7987202997418267e-07 0.0000000000000000e+00  7.0428492925563567e-08 8.0393335577333271e-08 0.0000000000000000e+00  -7.1213008870277324e-08 -6.7367961267449477e-08 0.0000000000000000e+00  4.0905756937983870e-07 7.0800985318222780e-07 0.0000000000000000e+00  -8.6555270809934203e-07 4.4041884685431051e-07 0.0000000000000000e+00  7.9227887662916310e-07 3.2099503354304623e-07 0.0000000000000000e+00  -1.9989901659080997e-07 1.9314594981290189e-07 0.0000000000000000e+00  4.2486726168144537e-08 -1.7637956467925782e-07 0.0000000000000000e+00  7.9797456488299217e-08 3.3737254967549262e-07 0.0000000000000000e+00  -6.1143780619085308e-08 2.2575764279192048e-07 0.0000000000000000e+00  -9.1528920419871420e-07 5.0741263068416066e-07 0.0000000000000000e+00  9.8340433543206614e-07 5.2799949461858025e-07 0.0000000000000000e+00  -9.7973416713873624e-08 3.5353854049926422e-07 0.0000000000000000e+00  7.0545149587022162e-07 2.7107022092511801e-07 0.0000000000000000e+00  -1.0326464514042165e-06 2.8872255130813788e-07 0.0000000000000000e+00  -5.9292557930786461e-07 4.3332200832480854e-07 0.0000000000000000e+00  3.9395403581998420e-07 3.3189443212763570e-06 0.0000000000000000e+00  -3.0998790396069462e-06 -7.8624425103021609e-07 0.0000000000000000e+00  3.6472853457950381e-06 2.8413374558231024e-06 0.0000000000000000e+00  -1.0809464578117567e-06 1.4051390541716530e-06 0.0000000000000000e+00  2.6311192996181023e-06 3.2129966839000254e-06 0.0000000000000000e+00  -1.1192209718893498e-06 3.7095295674781172e-07 0.0000000000000000e+00  -1.2005203607952715e-06 -4.6144159565552647e-07 0.0000000000000000e+00  1.8341327383998848e-06 3.8620097808648917e-06 0.0000000000000000e+00  -1.3447464793824847e-06 -3.1849569370925853e-07 0.0000000000000000e+00  -4.6274908678075479e-07 3.3065604693973762e-08 0.0000000000000000e+00  -1.0802093361839157e-06 2.3690906752236782e-06 0.0000000000000000e+00  -5.5636320508607148e-07 2.2933289619662746e-08 0.0000000000000000e+00  -8.4661936764560060e-07 5.3321969060448855e-07 0.0000000000000000e+00  -5.4560079716939817e-07 2.1219346534429628e-07 0.0000000000000000e+00  -2.8228492865931334e-07 -7.2962568662117553e-08 0.0000000000000000e+00  -1.2339851813440264e-07 -3.1194313203534214e-08 0.0000000000000000e+00  3.0483588266664565e-07 -1.6413355518125510e-07 0.0000000000000000e+00  2.4120309629045408e-07 1.1760913513227610e-07 0.0000000000000000e+00  3.4289425100154762e-07 2.9302654669819686e-07 0.0000000000000000e+00  3.5490333649819488e-07 5.4695618028447960e-07 0.0000000000000000e+00  7.3259063052716113e-08 7.2255310050407978e-07 0.0000000000000000e+00  -4.4118470693972237e-08 9.5391041448846777e-07 0.0000000000000000e+00  -8.7302173120733524e-07 7.8077947040830637e-07 0.0000000000000000e+00  -1.2308022684188204e-06 6.5632564678852821e-07 0.0000000000000000e+00  -1.5284144464580646e-06 4.9917675929834893e-07 0.0000000000000000e+00  -1.9777504607722389e-06 -5.9909928297181459e-08 0.0000000000000000e+00  -2.0367002052975679e-06 -2.8700817287547855e-07 0.0000000000000000e+00  -2.2755105212873602e-06 -9.0015193012051403e-07 0.0000000000000000e+00  -2.3433263421087388e-06 -1.9509910373386209e-06 0.0000000000000000e+00  -1.9976957546991965e-06 -6.7268329796203176e-07 0.0000000000000000e+00  -1.9667821895419978e-06 -1.1261126402820796e-06 0.0000000000000000e+00  -1.7764844644280234e-06 -2.6910730137178382e-06 0.0000000000000000e+00  -1.6306468544294512e-06 -1.7808268405058584e-06 0.0000000000000000e+00  -1.0872277888719926e-06 -3.8965692988867379e-06 0.0000000000000000e+00  -9.0777695076666534e-07 -1.7811572773782579e-06 0.0000000000000000e+00  -3.1138092442967709e-06 -2.9138474930367097e-08 0.0000000000000000e+00  7.2222647865401760e-06 -1.0288319293350513e-05 0.0000000000000000e+00  -4.5230876994528631e-06 2.2083462017229184e-06 0.0000000000000000e+00  -2.8040013719402190e-06 -2.9516787054915105e-08 0.0000000000000000e+00  5.6741183639816259e-06 -5.9506664965164267e-06 0.0000000000000000e+00  -1.9647856679954505e-06 -1.8484054323896151e-07 0.0000000000000000e+00  -6.6127873804011811e-08 -2.5109729332011730e-06 0.0000000000000000e+00  5.7942326345507162e-06 -2.1083420987340763e-06 0.0000000000000000e+00  -3.8699746323417114e-06 -4.4347615398350178e-07 0.0000000000000000e+00  9.1998109807759555e-07 -3.4735488376066087e-07 0.0000000000000000e+00  -1.1991093104205451e-06 -3.1698235791627736e-07 0.0000000000000000e+00  -1.2782321704320044e-07 -1.0482233069091960e-07 0.0000000000000000e+00  1.9623922798686341e-07 5.1762618714910534e-08 0.0000000000000000e+00  -1.1055411330005122e-07 -1.7693389916156353e-07 0.0000000000000000e+00  2.0945049209180540e-07 -5.8995058889961927e-07 0.0000000000000000e+00  -4.3186219568094612e-07 -1.1392741574858834e-07 0.0000000000000000e+00  9.9308246740084407e-08 -2.8116131773361515e-07 0.0000000000000000e+00  -2.2087865467767459e-08 -2.9864253499928249e-08 0.0000000000000000e+00  3.5421974756602606e-09 5.4339822264332506e-09 0.0000000000000000e+00  -6.8970402755238267e-09 -1.5542174074308867e-08 0.0000000000000000e+00  2.9162063894798585e-08 1.5552375937609074e-07 0.0000000000000000e+00  4.7078912026000410e-07 2.0180057375304102e-07 0.0000000000000000e+00  1.9720116228332731e-07 1.1902453108066394e-07 0.0000000000000000e+00  2.6345831694154635e-07 4.0779666285595633e-07 0.0000000000000000e+00  1.3714597501911467e-07 4.2111424497321209e-08 0.0000000000000000e+00  2.8528488646921561e-07 1.7698936046333984e-07 0.0000000000000000e+00  1.8675727688179518e-07 8.8724109587799565e-08 0.0000000000000000e+00  4.6080810052549509e+02 -2.0401659314774517e+03 0.0000000000000000e+00  -4.6601568708005567e+02 -1.8912833138160482e+02 0.0000000000000000e+00  1.2645724310949662e+02 -9.4659548554010158e+01 0.0000000000000000e+00  1.9921783096973911e+02 1.4813809554881229e+03 0.0000000000000000e+00  -9.9563206250928545e+02 3.5720523675259784e+02 0.0000000000000000e+00  -7.5315460167623669e+01 2.9802980513162430e+02 0.0000000000000000e+00  5.3195646809138123e+02 4.1898169242771610e+02 0.0000000000000000e+00  2.2201109442998609e-01 -2.7345433185893109e+00 0.0000000000000000e+00  -2.6825082953688380e+01 -1.2229301442506519e+02 0.0000000000000000e+00  -1.1609707385570364e+02 2.3251209763060436e+02 0.0000000000000000e+00  -6.5622717197906981e+00 4.3741478671727702e+02 0.0000000000000000e+00  4.0365491557588086e+01 -7.3252070007786671e+01 0.0000000000000000e+00  -8.0857454885894118e+00 -1.9377874945984544e+01 0.0000000000000000e+00  -5.8604048915829071e+02 3.8004409375373598e+02 0.0000000000000000e+00  1.5199272665782307e+03 -1.1881087417258132e+03 0.0000000000000000e+00  -9.4571200181927168e+02 -8.2318751010326673e+02 0.0000000000000000e+00  -1.2179951932084687e+03 7.5391136707890121e+02 0.0000000000000000e+00  -1.6705339809412120e+01 8.2406977758904645e+02 0.0000000000000000e+00  1.4818271643112448e+03 4.9282987827580615e+02 0.0000000000000000e+00  1.9246778903965944e+03 -4.3895037761713411e+02 0.0000000000000000e+00  2.5748568121948188e+03 -1.0382998445014289e+02 0.0000000000000000e+00  -2.0601723970950076e+02 -3.6297478335341316e+02 0.0000000000000000e+00  -4.2691526501410516e+02 7.1200579879446855e+02 0.0000000000000000e+00  1.2768624519031084e+03 8.9024909383285842e+02 0.0000000000000000e+00  -3.4707064586404329e+01 -1.8652498513589865e+03 0.0000000000000000e+00  1.1232878463144339e+03 1.3085308669636950e+03 0.0000000000000000e+00  3.9364943458639445e+01 -9.7466652146753088e+00 0.0000000000000000e+00  -5.9612526313437062e+00 2.9632129692304153e+02 0.0000000000000000e+00  -8.5419964093377015e-02 3.1657051845518343e+00 0.0000000000000000e+00  -3.5242673667395786e+02 -3.4730291543535719e+02 0.0000000000000000e+00  7.2689544088036001e+01 2.1984614773696816e+02 0.0000000000000000e+00  3.2216493324109672e+02 4.2157860179203777e+02 0.0000000000000000e+00  4.0567061113812758e+02 1.1332779851913440e+03 0.0000000000000000e+00  5.2039861055496988e+02 2.2733191118692150e+02 0.0000000000000000e+00  -2.4029503318584950e+00 -1.3496380261619478e+01 0.0000000000000000e+00  -1.1326390199584885e+01 5.0998586253555527e+02 0.0000000000000000e+00  7.6797356302402747e+01 3.1386506650744411e+02 0.0000000000000000e+00  -2.0075082219895557e+00 -1.5613863953343772e+01 0.0000000000000000e+00  -2.9158946948818829e+00 1.9537446325223186e+02 0.0000000000000000e+00  -6.6760236455438829e+01 2.3656564075414926e+02 0.0000000000000000e+00  -3.3127371215055312e+01 1.6035162407956435e+02 0.0000000000000000e+00  -2.4392540503622595e+01 7.8845262197395044e+01 0.0000000000000000e+00  1.7121144502555918e+01 -6.2509762865109678e+01 0.0000000000000000e+00  8.9138336465224643e+00 -9.6026879442093986e+01 0.0000000000000000e+00  -2.5539276604689782e+01 -1.3187272107551161e+02 0.0000000000000000e+00  5.5750044249382449e+02 1.4339107616065849e+03 0.0000000000000000e+00  1.5556620629781894e+03 8.0728301489936712e+02 0.0000000000000000e+00  1.1224252583416819e+03 1.3605252782469047e+03 0.0000000000000000e+00  2.0995893665983451e+02 -1.3308119022626806e+02 0.0000000000000000e+00  1.3380764518187905e+03 -1.9260281172554767e+02 0.0000000000000000e+00  -8.2452077608012075e+01 1.4534469483126841e+02 0.0000000000000000e+00  -5.9549490845860745e+01 -1.1587717021898791e+02 0.0000000000000000e+00  6.0584643829589265e+02 -8.2110647667423748e+01 0.0000000000000000e+00  2.0078162420658839e+03 3.0926496117345062e+02 0.0000000000000000e+00  3.5011265655296552e+02 -2.5067357851184565e+02 0.0000000000000000e+00  1.2777733265227971e+02 1.8120737220652049e+02 0.0000000000000000e+00  3.4328448101402000e+02 6.9370847023900455e+02 0.0000000000000000e+00  -2.4278396820613789e+01 -7.2134013184207049e+01 0.0000000000000000e+00  -9.5392130307787767e+01 -1.4116213608513488e+02 0.0000000000000000e+00  -1.5564041121044548e+02 2.4477584773718397e+02 0.0000000000000000e+00  -3.2906863426368609e+01 8.0246060048794035e+01 0.0000000000000000e+00  -1.0082486193404534e+02 3.5646812590286537e+01 0.0000000000000000e+00  -1.9182268187723113e+02 1.4567841066266982e+02 0.0000000000000000e+00  -2.3420862311068340e+01 -1.8003815891591387e+01 0.0000000000000000e+00  1.1951299411190494e+02 4.5651236292303771e+01 0.0000000000000000e+00  -9.6540418655536939e+02 -5.1320790440863811e+02 0.0000000000000000e+00  -1.2364826173517661e+03 -1.2876291767436120e+02 0.0000000000000000e+00  -1.1494738467471650e+03 2.9055143540031214e+01 0.0000000000000000e+00  -9.3592532403735242e+02 3.9849098563337299e+02 0.0000000000000000e+00  -9.8144186971802640e+01 8.9804945282983749e+02 0.0000000000000000e+00  3.4526259825267772e+02 6.1034142049465152e+02 0.0000000000000000e+00  5.0936629830111315e+02 -9.0465267401950859e+02 0.0000000000000000e+00  -9.4796674811117043e+01 -1.1336565176875852e+03 0.0000000000000000e+00  -4.6252562424655747e+02 3.0249628173472008e+01 0.0000000000000000e+00  -3.9344120866884799e+02 1.1378093074649109e+03 0.0000000000000000e+00  -5.5636581682270037e+02 6.9146077593192297e+02 0.0000000000000000e+00  -8.2010140675367541e+02 2.7484728334680034e+02 0.0000000000000000e+00  4.3659681012024890e+02 -3.6205342166811567e+02 0.0000000000000000e+00  -7.5965582624036145e+01 3.6679713848739226e+02 0.0000000000000000e+00  -2.6416000513304809e+01 4.7625723782505069e+01 0.0000000000000000e+00  -1.9631712009743030e+03 -1.2983859509824720e+02 0.0000000000000000e+00  -1.8344797602213123e+02 -2.6878494103310327e+03 0.0000000000000000e+00  1.5118621344212995e+03 2.0675713693736893e+03 0.0000000000000000e+00  -1.3933401324144774e+02 1.3575021792920717e+02 0.0000000000000000e+00  -6.0802082983107844e+01 -6.4826420422959146e+01 0.0000000000000000e+00  -1.1476575476089526e+02 1.5098081001979472e+02 0.0000000000000000e+00  -2.6008049027607103e+02 7.0744543667379935e+02 0.0000000000000000e+00  -7.5144026109189633e+02 6.9044818573762041e+02 0.0000000000000000e+00  -1.5820588980031664e+02 5.7354745953534473e+02 0.0000000000000000e+00  -9.4043402290103563e+02 -3.0457863617944497e+02 0.0000000000000000e+00  -1.0246836345636386e+03 -1.5796428100925402e+02 0.0000000000000000e+00  -1.7625455284451320e+02 5.4076656198467685e+02 0.0000000000000000e+00  -4.4895224352184499e+02 9.5637170416295385e+02 0.0000000000000000e+00  2.7566983961493424e+03 -7.6555947728096976e+02 0.0000000000000000e+00  1.7076985702565833e+03 -2.3253981799517674e+03 0.0000000000000000e+00  1.6334165445357896e+03 -1.6267180953412835e+03 0.0000000000000000e+00  3.1525971575249440e+02 1.9063436522269174e+03 0.0000000000000000e+00  -8.3143157152505879e+01 -9.6178969805240456e+02 0.0000000000000000e+00  -1.1439280968844528e+03 3.8183046830746059e+02 0.0000000000000000e+00  -6.6425855870997600e+02 8.3027266629673113e+02 0.0000000000000000e+00  -6.5714274336541814e+02 -9.6207791500852795e+02 0.0000000000000000e+00  -1.0617049137691106e+03 -4.8022059468052868e+02 0.0000000000000000e+00  -4.0785201066523871e+02 1.6403154406676210e+03 0.0000000000000000e+00  -8.6214427157559294e+02 -1.1985232494006514e+03 0.0000000000000000e+00  -5.2633254677004095e+02 -1.6051988792350294e+03 0.0000000000000000e+00  4.4786854833274913e+02 2.6616098548482182e+02 0.0000000000000000e+00  2.1863636004108437e+02 5.0227567750164672e+00 0.0000000000000000e+00  8.6454381101638478e+02 -1.8964015097489488e+02 0.0000000000000000e+00  4.3108156866559466e+02 -1.8094192726386524e+00 0.0000000000000000e+00  7.1525328933766968e+02 -4.1568896741612502e+02 0.0000000000000000e+00  1.3241802381319301e+03 3.6541150073467020e+02 0.0000000000000000e+00  2.2439671294145518e+02 8.8846719680832018e+02 0.0000000000000000e+