<?xml version="1.0"?>
<VTKFile type="UnstructuredGrid"  version="0.1"  >
<UnstructuredGrid>
<Piece  NumberOfPoints="2549" NumberOfCells="4928">
<Points>
<DataArray  type="Float64"  NumberOfComponents="3"  format="ascii">1.458509079990612 0.03143000708902839 0  1.454634002390291 0.05412674631926453 0  1.429139422520212 0.06444674873262057 0  1.419386833781671 0.07867326097193666 0  1.405171321084276 0.08998205159933798 0  1.396690194592658 0.1048219544234799 0  1.384611071530005 0.1188204624954284 0  1.381322671068553 0.1405617655392706 0  1.35082292302303 0.1465795939249886 0  1.334391371560219 0.130627922975434 0  1.347631780775445 0.1773586755325317 0  1.335898780304777 0.1958083429094395 0  1.330689156191281 0.2260342906431311 0  1.321537246392855 0.2543228694488306 0  1.31154196261118 0.28347047264261 0  1.302290592886836 0.3199328057297859 0  1.276759398058738 0.3381041187196006 0  1.268031464571056 0.3456493105924827 0  1.264968216369901 0.4062711492220431 0  1.249590934779304 0.4426950486020365 0  1.235357542344352 0.4889783881811968 0  1.217892862278083 0.5340541317219829 0  1.198922183808428 0.5820583233791247 0  1.178191852595669 0.6348157403776308 0  1.150057803705668 0.6864165103391837 0  1.122534223057242 0.7285518188398183 0  1.093774572171069 0.7837733761441311 0  1.060535926723662 0.8389291374970447 0  1.023556958614806 0.895194739484734 0  0.9825327352719301 0.9520777254327015 0  0.9372719299018146 1.008916600371027 0  0.887693965835849 1.066574472950712 0  0.8320278959645462 1.120843780287254 0  0.7739502729213144 1.172254322282864 0  0.7101943618831956 1.226241322280441 0  0.6413724487679378 1.275284808657413 0  0.5678056578931652 1.32127344796757 0  0.4897111536469575 1.362873055640055 0  0.407423055670126 1.399376755376966 0  0.3215075259892153 1.431197752990301 0  0.2317154271812897 1.45513109200591 0  0.1407632117086036 1.472111560613651 0  0.04738679384580201 1.48384302414176 0  -0.04669994919874453 1.486842204781222 0  -0.1406973597810524 1.482458971675291 0  -0.2336608493793396 1.470064452625574 0  -0.3246850989525529 1.45048590745971 0  -0.4129272996237381 1.422106141262271 0  -0.4967984983466259 1.390170268844904 0  -0.5784588257830346 1.351420787027134 0  -0.6544660114327662 1.305225727804033 0  -0.7256163814181757 1.255361639780313 0  -0.7915751192935838 1.201670543660755 0  -0.852166290328307 1.144602087432109 0  -0.9075772782386942 1.086723271710902 0  -0.9568545266800083 1.022271667343333 0  -1.000195859266912 0.9705783479116914 0  -1.044963615292188 0.9137906041344261 0  -1.081092873062606 0.8514468005838816 0  -1.113552347719952 0.7927370288667441 0  -1.142554783153988 0.7360392258657494 0  -1.167484090624288 0.6784601444134308 0  -1.19098541049971 0.6294443231282925 0  -1.206064608308794 0.5606480315282398 0  -1.217652208689104 0.5298885313237532 0  -1.243258447665357 0.5015767233538063 0  -1.257739733296543 0.4576019094514965 0  -1.272037818891106 0.4212050016366319 0  -1.283863489219398 0.3839950244964855 0  -1.29806039003866 0.3573485245778533 0  -1.303310670849927 0.3158207280928461 0  -1.334428328696499 0.3347719714512369 0  -1.362342516981824 0.2854913421290649 0  -1.335181237245013 0.2067763558648133 0  -1.341397697897668 0.1832210397098507 0  -1.337409841902482 0.1523689436577526 0  -1.34490713023943 0.1344740778652697 0  -1.337610070809896 0.107512707585905 0  -1.363002021183997 0.1104155198863371 0  -1.311226164668401 0.05972582315131833 0  -1.374501819886564 0.1234014992844837 0  -1.458646991719172 0.1187815731114417 0  -1.419719146950452 0.08693970520524837 0  -1.447601300979239 0.07104331533087717 0  -1.435106130707788 0.0524257813286367 0  -1.451391144408203 0.0336164362594629 0  -1.424169485097266 0.01724709156628797 0  -1.469871315702373 -0.01631483417055984 0  -1.381491402267963 -0.02041215489550277 0  -1.316670001818957 0.04890119985625313 0  -1.377869415505299 -0.008100785958666701 0  -1.353025073037718 -0.00495660182117974 0  -1.364513590652758 -0.03502745766804 0  -1.359379991665484 -0.05488263184259606 0  -1.366162908203795 -0.08830376529279071 0  -1.361130491438786 -0.1124542831874621 0  -1.393714876180318 -0.1951296529311178 0  -1.370080012386073 -0.2557308979923182 0  -1.338043031641747 -0.2334133078194776 0  -1.335364801179797 -0.278986337542144 0  -1.322587564286161 -0.3068793176697089 0  -1.312808890297433 -0.3465703747503822 0  -1.300245253867513 -0.3848225838594567 0  -1.287613547126149 -0.430948141587331 0  -1.263589874327887 -0.4585548595585465 0  -1.255973597303486 -0.4916329175124253 0  -1.244134606525879 -0.5686401191960114 0  -1.222853278826096 -0.6209466514947461 0  -1.200506401519126 -0.6838310935856536 0  -1.173930849478393 -0.7456199789589529 0  -1.143622851218376 -0.8096308062885231 0  -1.108918601606008 -0.8761095587312362 0  -1.067612663575702 -0.9347638660698394 0  -1.028400895954614 -0.9982692167563778 0  -0.9801174562575379 -1.077010757818193 0  -0.9250782584764519 -1.14302492913826 0  -0.8645677476515043 -1.210773242567266 0  -0.7979902389595022 -1.274518862569771 0  -0.7255086559568388 -1.334846149590892 0  -0.6474195550309134 -1.392575871791738 0  -0.5617909472548096 -1.441084486507334 0  -0.4744613444391335 -1.481714781930012 0  -0.3811949215543299 -1.520797833391509 0  -0.2840243997630393 -1.549389941522514 0  -0.1839465457604149 -1.569896736812943 0  -0.08196092493937525 -1.581042995577691 0  0.02081051354811844 -1.583050069647082 0  0.1233315793324731 -1.575506747615856 0  0.224421610176138 -1.558856893933285 0  0.3228627113844813 -1.533322983501322 0  0.4180183124447271 -1.499951229670048 0  0.5088921065507701 -1.458966032914932 0  0.5948339064346106 -1.411568308679015 0  0.6753031862896882 -1.35822294065017 0  0.7500100605396527 -1.301312085315824 0  0.8183253103539289 -1.236701896618273 0  0.8790671038708723 -1.179535983428968 0  0.9390778224779811 -1.117245297590756 0  0.9904080193712268 -1.04911406230183 0  1.036691650267662 -0.983231758016365 0  1.078018752333048 -0.9176277709009131 0  1.114663439723202 -0.8531858162877358 0  1.14702931463714 -0.7902850680199981 0  1.174532981678026 -0.7282415547864213 0  1.200582128221126 -0.6794984933710526 0  1.226689322775215 -0.6215013841062097 0  1.245440548523697 -0.5633888995543188 0  1.262238170036971 -0.5103255129531661 0  1.277526039237693 -0.4607645235789047 0  1.289429150279055 -0.4101211707567171 0  1.302724853123929 -0.370369899659586 0  1.303018371877686 -0.3047997193365862 0  1.309160471994544 -0.2952751694675633 0  1.333156299861354 -0.2755816672170245 0  1.34041816782204 -0.2365848431616109 0  1.348452261848222 -0.2051792838519107 0  1.355529434339298 -0.1745824262720268 0  1.358512489516063 -0.1420640960809702 0  1.368394211706677 -0.1219852484021541 0  1.352058773118997 -0.07220321881063219 0  1.366870356450874 -0.08817998549589984 0  1.395969903378583 -0.08105748755542541 0  1.396745126549801 -0.0576569233004437 0  1.406444390963767 -0.04238323071536429 0  1.412454721006228 -0.02649841893267119 0  1.423292818640227 -0.01415788844562163 0  1.432571354417414 -0.0003038635284195179 0  1.451290826650335 0.01136773923426724 0  -0.09043155183238721 0.9077004220054459 0  0.6799304680592427 -0.5204572137312403 0  -0.7971063568533736 -0.380085239929528 0  -0.08666979974257591 -0.9677706114745268 0  0.6474158390746678 0.5004482037224851 0  1.070999342944522 0.1086980012940074 0  -0.7785298667486494 0.4164878487670988 0  -1.128891320643269 0.04036288037126484 0  1.082023201217733 -0.06879187306819909 0  -1.019431217010676 -0.1638797921098793 0  -0.7149812947686741 0.02222241195676389 0  -0.4278357891337883 -0.1395589934808107 0  -1.005147267856705 0.2203193179128973 0  0.3735228684078599 -0.8553259195040286 0  0.08090092367585551 -0.3275999746274317 0  0.3104124803565005 0.7848612387392599 0  0.2253734733039574 0.1925453924051599 0  0.5539706805082052 0.01040643011364737 0  -0.4873856781637807 -0.7066372129538867 0  -0.4950648435793739 0.7104504606261866 0  -0.2330908867592789 0.3215445141789405 0  0.9026030872262664 -0.2190309809337131 0  0.88335349300351 0.241621204459516 0  0.3470711237328966 -0.233903919823639 0  -0.006375915174958426 0.2500933569918894 0  -0.4779390327350674 0.2205819813575099 0  -0.1854676229938936 -0.2895157405686153 0  0.8470934416253925 0.0159245412418814 0  1.230004545085443 0.02499981043260673 0  0.7916286724650656 -0.3499018197213181 0  0.7060348678168451 -0.116046800006252 0  0.5750242796462777 -0.2216771496521087 0  0.4360191211127212 -0.08883934475560532 0  0.5032958247015789 -0.3901915327376925 0  0.8487433022726827 -0.08964286600063068 0  0.7021587999314954 0.01302633203507406 0  -0.8387498346161325 0.1323489009030652 0  -1.047727657844627 0.1117448223257846 0  -0.9269627315172654 0.03290876801901087 0  -0.8476174081419439 -0.08025550929476309 0  -1.053222563790339 -0.04089078520049627 0  -1.215494496433596 -0.06916055167455232 0  -1.277566514686067 0.01688718912589457 0  -1.272030504768427 0.07444502441993539 0  -1.200170728229168 0.1531617443420477 0  -0.1379786329734147 -0.6324745062392956 0  -0.3038492104277482 -0.5171567894267974 0  -0.3018573604527976 -0.8606863425967479 0  -0.3017749449747782 -0.2069462735899764 0  -0.4481932645381381 -0.4084555282418314 0  -1.211547298026348 -0.1844128998846289 0  -1.187582357374475 0.2570549162726533 0  0.3718707695692198 -0.5270678113354246 0  0.2125673308481739 -0.2671518094637983 0  0.2312393299119476 -0.5877896306335284 0  -0.8920531554093798 0.3022837350687139 0  -0.7094268864381914 0.2007008597448077 0  1.251726248576107 -0.08360542476050967 0  1.189446752429496 -0.1789273858771636 0  1.168259186948081 0.2190347093548435 0  1.237557236396135 0.1319442006160128 0  -0.9150972802007614 -0.6449159113304179 0  -1.037610469555411 -0.4332552431236094 0  -1.004661794196037 0.4851912988186672 0  -0.8758387036598175 0.6750216875990164 0  0.9347923120977876 -0.6118269673854966 0  0.7735377527989727 -0.8360000791068197 0  0.7383994806109537 0.794730053778832 0  0.8991237479986465 0.6032662719370522 0  
[...]
<PointData  Vectors="f_5054"> 
<DataArray  type="Float64"  Name="f_5054"  NumberOfComponents="3" format="ascii">1.0656905631985725e+00 -9.4272338001160749e-02 0.0000000000000000e+00  7.5018930152279839e-01 6.7948464354273852e-01 0.0000000000000000e+00  5.1377314402549290e-01 8.9616040683516474e-01 0.0000000000000000e+00  7.6831745661894946e-01 6.3881052719512699e-01 0.0000000000000000e+00  7.4301358509779347e-01 6.5857086457611813e-01 0.0000000000000000e+00  7.8413963769599337e-01 6.4602098710086553e-01 0.0000000000000000e+00  9.8114284644100236e-01 1.0115361518313137e-02 0.0000000000000000e+00  6.8282784342918157e-01 1.0787344970611004e+00 0.0000000000000000e+00  1.5820230607890029e-01 -1.0199624982449726e+00 0.0000000000000000e+00  9.3051282214578290e-01 -4.6673723351208224e-01 0.0000000000000000e+00  9.9295730959262640e-01 2.7758334508976541e-02 0.0000000000000000e+00  9.1971281860349507e-01 4.1811299418445991e-01 0.0000000000000000e+00  9.9156662565632381e-01 1.5950372886309389e-01 0.0000000000000000e+00  9.2603279193626276e-01 3.8077308267447074e-01 0.0000000000000000e+00  9.8756246047135920e-01 2.0988517481357541e-01 0.0000000000000000e+00  8.6833932927207502e-01 4.9165165046677767e-01 0.0000000000000000e+00  4.8769824463068101e-01 9.7921957408989746e-01 0.0000000000000000e+00  1.0042312419833670e+00 8.0786479120745727e-02 0.0000000000000000e+00  9.8509711504963826e-01 1.7837646340495217e-01 0.0000000000000000e+00  9.2716996955967834e-01 3.8099877823886485e-01 0.0000000000000000e+00  9.5412896434892114e-01 3.0051586436200761e-01 0.0000000000000000e+00  9.2394326555113371e-01 3.8331867469753966e-01 0.0000000000000000e+00  9.3674847358928359e-01 3.5073392191752006e-01 0.0000000000000000e+00  9.1205903135304067e-01 4.1211767491670698e-01 0.0000000000000000e+00  8.4387852733551882e-01 5.3925701699163930e-01 0.0000000000000000e+00  8.6651950868634098e-01 4.9886075261004631e-01 0.0000000000000000e+00  8.8058375460537408e-01 4.7489665617300125e-01 0.0000000000000000e+00  8.4243846481662432e-01 5.3913720739149618e-01 0.0000000000000000e+00  8.2563125272439830e-01 5.6449493077066260e-01 0.0000000000000000e+00  7.9514118815039481e-01 6.0663015422874800e-01 0.0000000000000000e+00  7.7386634682220146e-01 6.3377064128383320e-01 0.0000000000000000e+00  7.3067012985148616e-01 6.8337276219197174e-01 0.0000000000000000e+00  6.7326051950106947e-01 7.3965116729380265e-01 0.0000000000000000e+00  6.5919317381185449e-01 7.5219580858092683e-01 0.0000000000000000e+00  6.1721348965554446e-01 7.8734489507706173e-01 0.0000000000000000e+00  5.5271988781686932e-01 8.3376965272718329e-01 0.0000000000000000e+00  5.0287014108552974e-01 8.6476899073502722e-01 0.0000000000000000e+00  4.3621032359786288e-01 9.0037426904132467e-01 0.0000000000000000e+00  3.7924953902344422e-01 9.2488237146042374e-01 0.0000000000000000e+00  3.0483425851095863e-01 9.5594526486785947e-01 0.0000000000000000e+00  2.1585595025582391e-01 9.7276260817793625e-01 0.0000000000000000e+00  1.5576324537424333e-01 9.5445225269993961e-01 0.0000000000000000e+00  8.2282923932238808e-02 1.3085691709389358e+00 0.0000000000000000e+00  1.2482328983846741e-03 -4.8961440769704623e-01 0.0000000000000000e+00  9.1820481537297466e-02 -9.7996366410461344e-01 0.0000000000000000e+00  1.6868869532749181e-01 -1.0043598858760654e+00 0.0000000000000000e+00  2.6157381123964091e-01 -9.6160409284759085e-01 0.0000000000000000e+00  3.3447723936751605e-01 -9.4315169206691030e-01 0.0000000000000000e+00  3.8579544994783499e-01 -9.2304954631716218e-01 0.0000000000000000e+00  4.7703096258810213e-01 -8.7957536642414569e-01 0.0000000000000000e+00  5.5039797141553792e-01 -8.3532607200559517e-01 0.0000000000000000e+00  6.0058915073183206e-01 -7.9996815022715650e-01 0.0000000000000000e+00  6.6292520204043126e-01 -7.4906036085171246e-01 0.0000000000000000e+00  6.9843896810991890e-01 -7.1622547126647607e-01 0.0000000000000000e+00  7.6648246469969095e-01 -6.4309388845346771e-01 0.0000000000000000e+00  7.9138541232629300e-01 -6.1145027355919024e-01 0.0000000000000000e+00  7.5840132747295552e-01 -6.5318066683637765e-01 0.0000000000000000e+00  8.3028297631821002e-01 -5.5867349035338754e-01 0.0000000000000000e+00  8.7854076117189861e-01 -4.7862991987487519e-01 0.0000000000000000e+00  8.7631822886509969e-01 -4.8202169760530472e-01 0.0000000000000000e+00  9.1200899050272732e-01 -4.1082089867471316e-01 0.0000000000000000e+00  9.0111227248000703e-01 -4.3514323381363135e-01 0.0000000000000000e+00  9.4762580053845713e-01 -3.2015597492465764e-01 0.0000000000000000e+00  9.9192532066648331e-01 -1.8515131843286670e-01 0.0000000000000000e+00  8.0449452046103220e-01 -6.1422981507713681e-01 0.0000000000000000e+00  8.6513238089320010e-01 -5.0322480965728000e-01 0.0000000000000000e+00  9.5772771885271546e-01 -2.9699482426460649e-01 0.0000000000000000e+00  9.4444763441270263e-01 -3.2770973534416492e-01 0.0000000000000000e+00  9.1652670246833390e-01 -3.9628626001608763e-01 0.0000000000000000e+00  9.6826698623157104e-01 -3.9098553861424334e-01 0.0000000000000000e+00  9.1215351381917631e-01 5.5831637251682609e-01 0.0000000000000000e+00  8.9350858968141600e-01 -4.4729116591750795e-01 0.0000000000000000e+00  1.0104091623293392e+00 -2.4226893001241482e-02 0.0000000000000000e+00  9.5672037001589227e-01 3.3103733703421323e-01 0.0000000000000000e+00  1.0097614676267672e+00 -1.1012003425872850e-01 0.0000000000000000e+00  9.9221417261900269e-01 -4.7323980707884364e-02 0.0000000000000000e+00  1.0779011994557255e+00 -1.4917782671387864e-01 0.0000000000000000e+00  6.8446778163058930e-01 7.4458009269593306e-01 0.0000000000000000e+00  4.9115199570659496e-01 9.0117285765789557e-01 0.0000000000000000e+00  8.1234187446290063e-01 6.1679290330087999e-01 0.0000000000000000e+00  3.0133088946590558e-01 9.6621241878808850e-01 0.0000000000000000e+00  1.6127958339060333e-01 9.9669497484884684e-01 0.0000000000000000e+00  4.9625755924533693e-01 9.5553609409890028e-01 0.0000000000000000e+00  5.7205787776864792e-01 -2.4041003260239260e-01 0.0000000000000000e+00  1.1139184999788116e+00 -1.0549245818303349e-01 0.0000000000000000e+00  3.4303702204405373e-01 -1.1850595115372393e-01 0.0000000000000000e+00  4.9084582190825971e-01 -9.4130008342092708e-01 0.0000000000000000e+00  1.4874078992013429e-01 -1.0032102692639957e+00 0.0000000000000000e+00  3.3230008936098709e-01 -9.5439635016249746e-01 0.0000000000000000e+00  8.1161943822647631e-01 -6.1525910922202842e-01 0.0000000000000000e+00  4.8622016356412040e-01 -8.9880724318755290e-01 0.0000000000000000e+00  6.6429647452781460e-01 -7.7501285796348718e-01 0.0000000000000000e+00  1.0655169729296605e+00 -4.4380865481734146e-03 0.0000000000000000e+00  9.9448917026538330e-01 -5.5112670355198817e-02 0.0000000000000000e+00  1.0131416911267812e+00 3.7892816570149541e-02 0.0000000000000000e+00  9.3932606401773699e-01 -3.7556816529457732e-01 0.0000000000000000e+00  1.0074640111753714e+00 -2.8217861388236676e-02 0.0000000000000000e+00  9.9438322498479992e-01 1.8298991808628298e-01 0.0000000000000000e+00  9.0984620459973597e-01 -5.5117940501837537e-01 0.0000000000000000e+00  9.8592516412556086e-01 3.2412264855507900e-01 0.0000000000000000e+00  9.4197208864550708e-01 3.3407299813702868e-01 0.0000000000000000e+00  9.6266759098823529e-01 2.6866581158757974e-01 0.0000000000000000e+00  9.7382596205445127e-01 2.4158589379597387e-01 0.0000000000000000e+00  8.8002446136515589e-01 4.7801282666094919e-01 0.0000000000000000e+00  8.5332570587540013e-01 5.4049721841607634e-01 0.0000000000000000e+00  1.0075483500984221e+00 9.2582996709229537e-02 0.0000000000000000e+00  9.6393392190282889e-01 2.6732712028110506e-01 0.0000000000000000e+00  9.2769199820588277e-01 3.7475926686314059e-01 0.0000000000000000e+00  9.3763534925755032e-01 3.4858935430588106e-01 0.0000000000000000e+00  9.0647101413776854e-01 4.2253413946473239e-01 0.0000000000000000e+00  9.0346454394232600e-01 4.3016078386106926e-01 0.0000000000000000e+00  8.4911626139277652e-01 5.2920859656650954e-01 0.0000000000000000e+00  8.2273846811067908e-01 5.6872109171520924e-01 0.0000000000000000e+00  8.6874476765918307e-01 4.9798306239809198e-01 0.0000000000000000e+00  8.1381380406481563e-01 5.8234292284873934e-01 0.0000000000000000e+00  7.5056287612727213e-01 6.6131383185041304e-01 0.0000000000000000e+00  7.2523944408406482e-01 6.8906974580257452e-01 0.0000000000000000e+00  6.6146616091986088e-01 7.5041185866471960e-01 0.0000000000000000e+00  6.2304852405920541e-01 7.8276568375018007e-01 0.0000000000000000e+00  5.4827431392823500e-01 8.3730993944894683e-01 0.0000000000000000e+00  4.4709352120132723e-01 8.9509279598913816e-01 0.0000000000000000e+00  4.0932670731263276e-01 9.1218122012840963e-01 0.0000000000000000e+00  3.3992256952754712e-01 9.4255588954200098e-01 0.0000000000000000e+00  2.3836950585736219e-01 9.7214061526076279e-01 0.0000000000000000e+00  1.5603652066144164e-01 9.4164371210568398e-01 0.0000000000000000e+00  6.1186412337668999e-02 1.3650583788526105e+00 0.0000000000000000e+00  1.1756697286600854e-02 -9.7546448366925975e-01 0.0000000000000000e+00  1.2132321363933055e-01 -8.8921522495895522e-01 0.0000000000000000e+00  2.0736356514715490e-01 -1.0120075192965756e+00 0.0000000000000000e+00  2.9159621525510521e-01 -9.5152112509422293e-01 0.0000000000000000e+00  3.7182982852000235e-01 -9.2917317575956693e-01 0.0000000000000000e+00  4.4732296786864867e-01 -8.9505062083371978e-01 0.0000000000000000e+00  5.2098388408992224e-01 -8.5399001581190004e-01 0.0000000000000000e+00  5.7522034098708641e-01 -8.1860319746039267e-01 0.0000000000000000e+00  6.5331519163168339e-01 -7.5790422188677387e-01 0.0000000000000000e+00  6.9423660129491827e-01 -7.2002397941341789e-01 0.0000000000000000e+00  6.8975837389410477e-01 -7.2452756453017242e-01 0.0000000000000000e+00  7.6395280234231921e-01 -6.4643362089670475e-01 0.0000000000000000e+00  8.1430443209240233e-01 -5.8132159930908911e-01 0.0000000000000000e+00  8.2983439916941903e-01 -5.5824316434247689e-01 0.0000000000000000e+00  8.5993543939344452e-01 -5.1094339563123181e-01 0.0000000000000000e+00  8.7672713503978006e-01 -4.8140918821860612e-01 0.0000000000000000e+00  9.0841309891268185e-01 -4.1931120398001498e-01 0.0000000000000000e+00  9.0114706245815979e-01 -4.3326674853385522e-01 0.0000000000000000e+00  8.8701293998500630e-01 -4.6351778305612862e-01 0.0000000000000000e+00  9.3720370040550049e-01 -3.5094048005062445e-01 0.0000000000000000e+00  9.5743267964561807e-01 -2.9001645474431320e-01 0.0000000000000000e+00  9.4920761015850275e-01 -3.1509230368881325e-01 0.0000000000000000e+00  9.7190807173569638e-01 -2.3741285973656404e-01 0.0000000000000000e+00  9.5341226982607452e-01 -3.0653891238668174e-01 0.0000000000000000e+00  9.9246935823654647e-01 -1.2890889096111055e-01 0.0000000000000000e+00  1.0097561742926622e+00 -1.1447309834732763e-02 0.0000000000000000e+00  6.0956762259948594e-01 -8.8166837393110919e-01 0.0000000000000000e+00  8.9403644487432465e-01 -4.4577402936093175e-01 0.0000000000000000e+00  1.0022334287557721e+00 -1.3858834746774731e-01 0.0000000000000000e+00  9.5474438285842189e-01 -2.9866545434578373e-01 0.0000000000000000e+00  1.0020399300339637e+00 -8.3342564172210282e-02 0.0000000000000000e+00  9.5379034585817291e-01 -3.1790592502448023e-01 0.0000000000000000e+00  1.0041381713212929e+00 -1.7217981171895165e-02 0.0000000000000000e+00  9.4433240965395859e-01 5.8247967188886340e-01 0.0000000000000000e+00  5.3676527234233851e-03 4.6009260636856636e-01 0.0000000000000000e+00  6.4107482745305333e-01 -8.9853487496241768e-01 0.0000000000000000e+00  1.1028257326377586e+00 -4.5645027471240473e-03 0.0000000000000000e+00  8.6083256079196624e-01 -5.1873130267692746e-01 0.0000000000000000e+00  8.7079632733695134e-01 -4.8786854350599096e-01 0.0000000000000000e+00  8.0560340277920206e-01 -5.9418874323094883e-01 0.0000000000000000e+00  6.4563023980651502e-01 -7.8598500828039419e-01 0.0000000000000000e+00  7.5303764298792164e-01 -6.9458472963473494e-01 0.0000000000000000e+00  1.7620001582810488e-01 -1.0019277469873809e+00 0.0000000000000000e+00  7.7863023592050418e-01 -6.2785396980393882e-01 0.0000000000000000e+00  9.3708717587841228e-01 3.4958009273022289e-01 0.0000000000000000e+00  1.6550401261746087e-01 1.0164918689209879e+00 0.0000000000000000e+00  8.0637086018730497e-01 5.9193008981437956e-01 0.0000000000000000e+00  9.9992575886141077e-01 1.4875473715989556e-02 0.0000000000000000e+00  9.2336870029406459e-01 -3.8432406945702552e-01 0.0000000000000000e+00  9.9941032186612588e-01 -3.4273464149293879e-02 0.0000000000000000e+00  9.8893125595487785e-01 -1.4855526359344015e-01 0.0000000000000000e+00  9.9718464599538137e-01 7.5754067003809017e-02 0.0000000000000000e+00  9.9995161599200322e-01 -1.8085512918498591e-02 0.0000000000000000e+00  9.6688645939250162e-01 2.5746196222772311e-01 0.0000000000000000e+00  9.9133673909164266e-01 -1.3169011487461321e-01 0.0000000000000000e+00  3.8337454669590698e-01 -9.2400081243358279e-01 0.0000000000000000e+00  9.3431103703261120e-04 2.3529894105343110e-01 0.0000000000000000e+00  3.4276504706499583e-01 9.3948677407850134e-01 0.0000000000000000e+00  6.8942376344765610e-01 7.4050383262835340e-01 0.0000000000000000e+00  9.9827838758526644e-01 -6.8405533868305515e-02 0.0000000000000000e+00  6.6514111236461582e-01 7.4713169333705620e-01 0.0000000000000000e+00  6.6826287362068604e-01 -7.4431667493689690e-01 0.0000000000000000e+00  7.7201494402887005e-01 -6.3767056264224409e-01 0.0000000000000000e+00  9.5916620115846696e-01 -2.8312910941134622e-01 0.0000000000000000e+00  9.7791530047528985e-01 2.0956896547460305e-01 0.0000000000000000e+00  7.1837762048283216e-01 -6.9673203797933791e-01 0.0000000000000000e+00  4.2737742369559684e-01 -9.1821147054998975e-01 0.0000000000000000e+00  9.4932316924053206e-01 -3.1549711471988540e-01 0.0000000000000000e+00  7.1285570242381480e-01 7.0361186306044410e-01 0.0000000000000000e+00  9.9889568223697034e-01 -4.8266344995240407e-02 0.0000000000000000e+00  9.9150813519795911e-01 -1.3015526516300097e-01 0.0000000000000000e+00  8.9906602397144797e-01 -4.3819713301969976e-01 0.0000000000000000e+00  9.7229436407847114e-01 -2.3472271358602417e-01 0.0000000000000000e+00  8.9601469349735896e-01 -4.4507032460979329e-01 0.0000000000000000e+00  9.4153226417253877e-01 -3.3988368041591882e-01 0.0000000000000000e+00  7.3200586585393290e-01 -6.8186137003903835e-01 0.0000000000000000e+00  9.8562854706840908e-01 -1.6929390655923807e-01 0.0000000000000000e+00  9.9881729823373422e-01 -5.1841371907507025e-02 0.0000000000000000e+00  9.9345054026880897e-01 -1.1477140690068423e-01 0.0000000000000000e+00  9.9845385240109175e-01 -5.5819174646246542e-02 0.0000000000000000e+00  9.9957964867248839e-01 -2.9638250131079787e-02 0.0000000000000000e+00  9.9781205982899102e-01 6.7090074362840382e-02 0.0000000000000000e+00  9.9997615320516109e-01 -9.1355049710930680e-03 0.0000000000000000e+00  9.9206114094249520e-01 -1.2765867640058801e-01 0.0000000000000000e+00  9.8455196118977195e-01 -1.7688583386829659e-01 0.0000000000000000e+00  9.9520471753828710e-01 9.9046754477138815e-02 0.0000000000000000e+00  9.9911827778110751e-01 4.6971913866985140e-02 0.0000000000000000e+00  3.4800806703001558e-01 9.3747784899721931e-01 0.0000000000000000e+00  6.2716044032552798e-01 7.7952013815153531e-01 0.0000000000000000e+00  4.3390330920416648e-01 9.0127156339979286e-01 0.0000000000000000e+00  8.9570315607563722e-01 4.4739203845151149e-01 0.0000000000000000e+00  8.1523533442184215e-01 5.7984842662868652e-01 0.0000000000000000e+00  9.9660196799115364e-01 -8.5856574967728735e-02 0.0000000000000000e+00  1.0002335762569479e+00 6.8807648384025064e-03 0.0000000000000000e+00  4.9606163383442520e-01 -8.6861429367288101e-01 0.0000000000000000e+00  4.2914599377471618e-01 -8.9716367660037422e-01 0.0000000000000000e+00  2.5814327139549226e-01 -9.5981794072584437e-01 0.0000000000000000e+00  9.7025365689642074e-01 -2.4242591334594307e-01 0.0000000000000000e+00  9.7801242726002169e-01 -2.0929743113966900e-01 0.0000000000000000e+00  9.8160554377745957e-01 -1.9030303456380310e-01 0.0000000000000000e+00  9.7302604869039000e-01 -2.3088361865318163e-01 0.0000000000000000e+00  9.9204992410815063e-01 1.2720501743292978e-01 0.0000000000000000e+00  9.9703304044040220e-01 -7.9655491708226223e-02 0.0000000000000000e+00  8.8066932591073210e-01 4.7407334534087064e-01 0.0000000000000000e+00  9.5461369737839252e-01 2.9819418637634709e-01 0.0000000000000000e+00  9.3687528140454035e-01 -3.4995768232455055e-01 0.0000000000000000e+00  8.5618896744268547e-01 -5.1696509102559385e-01 0.0000000000000000e+00  8.6026934220264106e-01 -5.1012428321661807e-01 0.0000000000000000e+00  7.2720450143640136e-01 -6.8676826563679338e-01 0.0000000000000000e+00  7.2337709103177750e-01 6.9078756269695973e-01 0.0000000000000000e+00  8.5951947468059153e-01 5.1139283483385012e-01 0.0000000000000000e+00  9.1305968450770705e-04 -5.1407941457690065e-01 0.0000000000000000e+00  3.0427233383056279e-01 9.5477375803640407e-01 0.0000000000000000e+00  2.7782947789052814e-01 -9.6136504056196947e-01 0.0000000000000000e+00  1.0294915304523375e-02 1.0169862465405730e+00 0.0000000000000000e+00  6.0175452854192635e-01 -7.9899954993343536e-01 0.0000000000000000e+00  9.9139786712013489e-01 1.4497344126311032e-01 0.0000000000000000e+00  9.3906168260992573e-01 3.4556803788217477e-01 0.0000000000000000e+00  7.4489108228944134e-01 6.6823037718017131e-01 0.0000000000000000e+00  9.3418907719795030e-01 3.5764163575670027e-01 0.0000000000000000e+00  9.9789990646134341e-01 6.9001368539310173e-02 0.0000000000000000e+00  9.8545652434100273e-01 1.7086080000053488e-01 0.0000000000000000e+00  9.6465979922276887e-03 -5.9478427430201675e-01 0.0000000000000000e+00  5.9179442871808630e-01 7.1992532026735456e-01 0.0000000000000000e+00  1.6597639501355785e-01 -1.2853539521336150e+00 0.0000000000000000e+00  9.8794244709113888e-01 1.5599983614829802e-01 0.0000000000000000e+00  9.7662764546539138e-01 -2.1568935633365627e-01 0.0000000000000000e+00  9.8050426185402850e-01 1.9694929897906763e-01 0.0000000000000000e+00  9.9080012959808506e-01 1.3721371462405574e-01 0.0000000000000000e+00  9.2465029133609888e-01 3.8140491940387583e-01 0.0000000000000000e+00  9.9707734615826782e-01 7.7323455799052379e-02 0.0000000000000000e+00  4.2278647885240372e-01 9.0794883146119598e-01 0.0000000000000000e+00  6.0129203223526717e-01 7.9948326621362187e-01 0.0000000000000000e+00  4.6237532260575587e-02 1.4062136839301320e+00 0.0000000000000000e+00  1.1541960507399303e-01 -9.3798643877786525e-01 0.0000000000000000e+00  6.6904370849473571e-01 -7.4382574078866326e-01 0.0000000000000000e+00  4.1838950294084654e-01 -9.0893073248773493e-01 0.0000000000000000e+00  4.4168673769583972e-01 -8.9750803324814865e-01 0.0000000000000000e+00  9.2592726759405153e-01 -3.9063450006355294e-01 0.0000000000000000e+00  3.8598635374288665e-01 9.1792400717158651e-01 0.0000000000000000e+00  5.5837558854754410e-01 -8.2993885846646587e-01 0.0000000000000000e+00  2.9567672965797320e-01 -9.5691277968438515e-01 0.0000000000000000e+00  2.7975930624511269e-01 9.6186507506779440e-01 0.0000000000000000e+00  5.3539450240129716e-01 8.4495762125669693e-01 0.0000000000000000e+00  9.9390989193480594e-01 1.3680852027620247e-01 0.0000000000000000e+00  1.1561607291921779e-01 9.5552437112995126e-01 0.0000000000000000e+00  8.5633011180604526e-02 9.8978937401030709e-01 0.0000000000000000e+00  5.5082122270541878e-01 8.3500665289765974e-01 0.0000000000000000e+00  7.6025565554147612e-01 6.4999494997497076e-01 0.0000000000000000e+00  8.3825498034135826e-01 5.4574057429011325e-01 0.0000000000000000e+00  7.3589864372881353e-01 -6.7740823459494170e-01 0.0000000000000000e+00  5.2754543900580830e-01 -8.4988771329947765e-01 0.0000000000000000e+00  8.2826165980347999e-01 -5.6074252669014057e-01 0.0000000000000000e+00  9.9271747370603014e-01 -1.2234970610397539e-01 0.0000000000000000e+00  9.2434165521143763e-01 -3.8221898757410239e-01 0.0000000000000000e+00  9.9738421652941045e-01 -8.0519597620352185e-02 0.0000000000000000e+0