<?xml version="1.0"?>
<VTKFile type="UnstructuredGrid"  version="0.1"  >
<UnstructuredGrid>
<Piece  NumberOfPoints="2549" NumberOfCells="4928">
<Points>
<DataArray  type="Float64"  NumberOfComponents="3"  format="ascii">1.458509079990612 0.03143000708902839 0  1.454634002390291 0.05412674631926453 0  1.429139422520212 0.06444674873262057 0  1.419386833781671 0.07867326097193666 0  1.405171321084276 0.08998205159933798 0  1.396690194592658 0.1048219544234799 0  1.384611071530005 0.1188204624954284 0  1.381322671068553 0.1405617655392706 0  1.35082292302303 0.1465795939249886 0  1.334391371560219 0.130627922975434 0  1.347631780775445 0.1773586755325317 0  1.335898780304777 0.1958083429094395 0  1.330689156191281 0.2260342906431311 0  1.321537246392855 0.2543228694488306 0  1.31154196261118 0.28347047264261 0  1.302290592886836 0.3199328057297859 0  1.276759398058738 0.3381041187196006 0  1.268031464571056 0.3456493105924827 0  1.264968216369901 0.4062711492220431 0  1.249590934779304 0.4426950486020365 0  1.235357542344352 0.4889783881811968 0  1.217892862278083 0.5340541317219829 0  1.198922183808428 0.5820583233791247 0  1.178191852595669 0.6348157403776308 0  1.150057803705668 0.6864165103391837 0  1.122534223057242 0.7285518188398183 0  1.093774572171069 0.7837733761441311 0  1.060535926723662 0.8389291374970447 0  1.023556958614806 0.895194739484734 0  0.9825327352719301 0.9520777254327015 0  0.9372719299018146 1.008916600371027 0  0.887693965835849 1.066574472950712 0  0.8320278959645462 1.120843780287254 0  0.7739502729213144 1.172254322282864 0  0.7101943618831956 1.226241322280441 0  0.6413724487679378 1.275284808657413 0  0.5678056578931652 1.32127344796757 0  0.4897111536469575 1.362873055640055 0  0.407423055670126 1.399376755376966 0  0.3215075259892153 1.431197752990301 0  0.2317154271812897 1.45513109200591 0  0.1407632117086036 1.472111560613651 0  0.04738679384580201 1.48384302414176 0  -0.04669994919874453 1.486842204781222 0  -0.1406973597810524 1.482458971675291 0  -0.2336608493793396 1.470064452625574 0  -0.3246850989525529 1.45048590745971 0  -0.4129272996237381 1.422106141262271 0  -0.4967984983466259 1.390170268844904 0  -0.5784588257830346 1.351420787027134 0  -0.6544660114327662 1.305225727804033 0  -0.7256163814181757 1.255361639780313 0  -0.7915751192935838 1.201670543660755 0  -0.852166290328307 1.144602087432109 0  -0.9075772782386942 1.086723271710902 0  -0.9568545266800083 1.022271667343333 0  -1.000195859266912 0.9705783479116914 0  -1.044963615292188 0.9137906041344261 0  -1.081092873062606 0.8514468005838816 0  -1.113552347719952 0.7927370288667441 0  -1.142554783153988 0.7360392258657494 0  -1.167484090624288 0.6784601444134308 0  -1.19098541049971 0.6294443231282925 0  -1.206064608308794 0.5606480315282398 0  -1.217652208689104 0.5298885313237532 0  -1.243258447665357 0.5015767233538063 0  -1.257739733296543 0.4576019094514965 0  -1.272037818891106 0.4212050016366319 0  -1.283863489219398 0.3839950244964855 0  -1.29806039003866 0.3573485245778533 0  -1.303310670849927 0.3158207280928461 0  -1.334428328696499 0.3347719714512369 0  -1.362342516981824 0.2854913421290649 0  -1.335181237245013 0.2067763558648133 0  -1.341397697897668 0.1832210397098507 0  -1.337409841902482 0.1523689436577526 0  -1.34490713023943 0.1344740778652697 0  -1.337610070809896 0.107512707585905 0  -1.363002021183997 0.1104155198863371 0  -1.311226164668401 0.05972582315131833 0  -1.374501819886564 0.1234014992844837 0  -1.458646991719172 0.1187815731114417 0  -1.419719146950452 0.08693970520524837 0  -1.447601300979239 0.07104331533087717 0  -1.435106130707788 0.0524257813286367 0  -1.451391144408203 0.0336164362594629 0  -1.424169485097266 0.01724709156628797 0  -1.469871315702373 -0.01631483417055984 0  -1.381491402267963 -0.02041215489550277 0  -1.316670001818957 0.04890119985625313 0  -1.377869415505299 -0.008100785958666701 0  -1.353025073037718 -0.00495660182117974 0  -1.364513590652758 -0.03502745766804 0  -1.359379991665484 -0.05488263184259606 0  -1.366162908203795 -0.08830376529279071 0  -1.361130491438786 -0.1124542831874621 0  -1.393714876180318 -0.1951296529311178 0  -1.370080012386073 -0.2557308979923182 0  -1.338043031641747 -0.2334133078194776 0  -1.335364801179797 -0.278986337542144 0  -1.322587564286161 -0.3068793176697089 0  -1.312808890297433 -0.3465703747503822 0  -1.300245253867513 -0.3848225838594567 0  -1.287613547126149 -0.430948141587331 0  -1.263589874327887 -0.4585548595585465 0  -1.255973597303486 -0.4916329175124253 0  -1.244134606525879 -0.5686401191960114 0  -1.222853278826096 -0.6209466514947461 0  -1.200506401519126 -0.6838310935856536 0  -1.173930849478393 -0.7456199789589529 0  -1.143622851218376 -0.8096308062885231 0  -1.108918601606008 -0.8761095587312362 0  -1.067612663575702 -0.9347638660698394 0  -1.028400895954614 -0.9982692167563778 0  -0.9801174562575379 -1.077010757818193 0  -0.9250782584764519 -1.14302492913826 0  -0.8645677476515043 -1.210773242567266 0  -0.7979902389595022 -1.274518862569771 0  -0.7255086559568388 -1.334846149590892 0  -0.6474195550309134 -1.392575871791738 0  -0.5617909472548096 -1.441084486507334 0  -0.4744613444391335 -1.481714781930012 0  -0.3811949215543299 -1.520797833391509 0  -0.2840243997630393 -1.549389941522514 0  -0.1839465457604149 -1.569896736812943 0  -0.08196092493937525 -1.581042995577691 0  0.02081051354811844 -1.583050069647082 0  0.1233315793324731 -1.575506747615856 0  0.224421610176138 -1.558856893933285 0  0.3228627113844813 -1.533322983501322 0  0.4180183124447271 -1.499951229670048 0  0.5088921065507701 -1.458966032914932 0  0.5948339064346106 -1.411568308679015 0  0.6753031862896882 -1.35822294065017 0  0.7500100605396527 -1.301312085315824 0  0.8183253103539289 -1.236701896618273 0  0.8790671038708723 -1.179535983428968 0  0.9390778224779811 -1.117245297590756 0  0.9904080193712268 -1.04911406230183 0  1.036691650267662 -0.983231758016365 0  1.078018752333048 -0.9176277709009131 0  1.114663439723202 -0.8531858162877358 0  1.14702931463714 -0.7902850680199981 0  1.174532981678026 -0.7282415547864213 0  1.200582128221126 -0.6794984933710526 0  1.226689322775215 -0.6215013841062097 0  1.245440548523697 -0.5633888995543188 0  1.262238170036971 -0.5103255129531661 0  1.277526039237693 -0.4607645235789047 0  1.289429150279055 -0.4101211707567171 0  1.302724853123929 -0.370369899659586 0  1.303018371877686 -0.3047997193365862 0  1.309160471994544 -0.2952751694675633 0  1.333156299861354 -0.2755816672170245 0  1.34041816782204 -0.2365848431616109 0  1.348452261848222 -0.2051792838519107 0  1.355529434339298 -0.1745824262720268 0  1.358512489516063 -0.1420640960809702 0  1.368394211706677 -0.1219852484021541 0  1.352058773118997 -0.07220321881063219 0  1.366870356450874 -0.08817998549589984 0  1.395969903378583 -0.08105748755542541 0  1.396745126549801 -0.0576569233004437 0  1.406444390963767 -0.04238323071536429 0  1.412454721006228 -0.02649841893267119 0  1.423292818640227 -0.01415788844562163 0  1.432571354417414 -0.0003038635284195179 0  1.451290826650335 0.01136773923426724 0  -0.09043155183238721 0.9077004220054459 0  0.6799304680592427 -0.5204572137312403 0  -0.7971063568533736 -0.380085239929528 0  -0.08666979974257591 -0.9677706114745268 0  0.6474158390746678 0.5004482037224851 0  1.070999342944522 0.1086980012940074 0  -0.7785298667486494 0.4164878487670988 0  -1.128891320643269 0.04036288037126484 0  1.082023201217733 -0.06879187306819909 0  -1.019431217010676 -0.1638797921098793 0  -0.7149812947686741 0.02222241195676389 0  -0.4278357891337883 -0.1395589934808107 0  -1.005147267856705 0.2203193179128973 0  0.3735228684078599 -0.8553259195040286 0  0.08090092367585551 -0.3275999746274317 0  0.3104124803565005 0.7848612387392599 0  0.2253734733039574 0.1925453924051599 0  0.5539706805082052 0.01040643011364737 0  -0.4873856781637807 -0.7066372129538867 0  -0.4950648435793739 0.7104504606261866 0  -0.2330908867592789 0.3215445141789405 0  0.9026030872262664 -0.2190309809337131 0  0.88335349300351 0.241621204459516 0  0.3470711237328966 -0.233903919823639 0  -0.006375915174958426 0.2500933569918894 0  -0.4779390327350674 0.2205819813575099 0  -0.1854676229938936 -0.2895157405686153 0  0.8470934416253925 0.0159245412418814 0  1.230004545085443 0.02499981043260673 0  0.7916286724650656 -0.3499018197213181 0  0.7060348678168451 -0.116046800006252 0  0.5750242796462777 -0.2216771496521087 0  0.4360191211127212 -0.08883934475560532 0  0.5032958247015789 -0.3901915327376925 0  0.8487433022726827 -0.08964286600063068 0  0.7021587999314954 0.01302633203507406 0  -0.8387498346161325 0.1323489009030652 0  -1.047727657844627 0.1117448223257846 0  -0.9269627315172654 0.03290876801901087 0  -0.8476174081419439 -0.08025550929476309 0  -1.053222563790339 -0.04089078520049627 0  -1.215494496433596 -0.06916055167455232 0  -1.277566514686067 0.01688718912589457 0  -1.272030504768427 0.07444502441993539 0  -1.200170728229168 0.1531617443420477 0  -0.1379786329734147 -0.6324745062392956 0  -0.3038492104277482 -0.5171567894267974 0  -0.3018573604527976 -0.8606863425967479 0  -0.3017749449747782 -0.2069462735899764 0  -0.4481932645381381 -0.4084555282418314 0  -1.211547298026348 -0.1844128998846289 0  -1.187582357374475 0.2570549162726533 0  0.3718707695692198 -0.5270678113354246 0  0.2125673308481739 -0.2671518094637983 0  0.2312393299119476 -0.5877896306335284 0  -0.8920531554093798 0.3022837350687139 0  -0.7094268864381914 0.2007008597448077 0  1.251726248576107 -0.08360542476050967 0  1.189446752429496 -0.1789273858771636 0  1.168259186948081 0.2190347093548435 0  1.237557236396135 0.1319442006160128 0  -0.9150972802007614 -0.6449159113304179 0  -1.037610469555411 -0.4332552431236094 0  -1.004661794196037 0.4851912988186672 0  -0.8758387036598175 0.6750216875990164 0  0.9347923120977876 -0.6118269673854966 0  0.7735377527989727 -0.8360000791068197 0  0.7383994806109537 0.794730053778832 0  0.8991237479986465 0.6032662719370522 0  
[...]
<PointData  Vectors="f_5103"> 
<DataArray  type="Float64"  Name="f_5103"  NumberOfComponents="3" format="ascii">5.0191854332997679e-02 -1.8803427042136923e-02 0.0000000000000000e+00  1.5316883697331032e-01 5.9810327212406179e-02 0.0000000000000000e+00  2.3358587152972041e-01 2.3831539001688951e-01 0.0000000000000000e+00  -1.2292029185750088e-01 -1.7398863580560370e-01 0.0000000000000000e+00  -5.3797927237113220e-02 -2.4015612679109377e-01 0.0000000000000000e+00  -6.9363045257093947e-01 -1.0814873671709513e+00 0.0000000000000000e+00  -2.5636907919692957e+00 7.8380373013560167e-01 0.0000000000000000e+00  1.2154013401659531e+01 1.5542507784740794e+01 0.0000000000000000e+00  1.7207767914069443e+01 2.3389625680797913e+01 0.0000000000000000e+00  4.1312545170378856e+00 8.9456179046608386e-01 0.0000000000000000e+00  4.3438130828574479e+00 5.2516527116961242e-01 0.0000000000000000e+00  2.6043181820027854e+00 9.2935197114596280e-01 0.0000000000000000e+00  1.1738852367888295e+00 2.3007570053780194e-01 0.0000000000000000e+00  2.6807546335437171e-01 1.0442487703973954e-01 0.0000000000000000e+00  -1.1254649915457675e-01 1.9516921898370349e-01 0.0000000000000000e+00  2.4585252725989517e+00 1.5349670657825460e+00 0.0000000000000000e+00  2.9143106786508666e+00 3.3315233320052351e+00 0.0000000000000000e+00  -3.1036197870620259e+00 -1.4559994100742282e+00 0.0000000000000000e+00  5.5211874699352981e-01 -6.7025197965959987e-02 0.0000000000000000e+00  8.0274137825256442e-01 2.4991541779735493e-01 0.0000000000000000e+00  4.1215396332393150e-01 1.4266264036352558e-01 0.0000000000000000e+00  7.4045611347859086e-02 2.8764435021200904e-02 0.0000000000000000e+00  1.1987963086495483e-02 4.8353679924048607e-03 0.0000000000000000e+00  2.6033771305325587e-01 8.9104155855759967e-02 0.0000000000000000e+00  -3.5049769564019717e-01 -2.1724042588815187e-01 0.0000000000000000e+00  -1.0240172115117721e-02 2.4376033176432641e-03 0.0000000000000000e+00  2.3263999722023326e-01 1.2785663544623990e-01 0.0000000000000000e+00  3.4562292708578544e-02 1.6287582953116071e-02 0.0000000000000000e+00  9.0021645004756984e-02 5.9523550049500842e-02 0.0000000000000000e+00  5.4555665731808416e-02 3.7986285060524108e-02 0.0000000000000000e+00  8.5127284634813019e-02 6.9143920364488048e-02 0.0000000000000000e+00  1.0943126438518537e-01 9.1326104825014270e-02 0.0000000000000000e+00  1.3463272630272199e-02 1.0970097034626848e-02 0.0000000000000000e+00  3.8660346499655197e-02 4.4244204432754800e-02 0.0000000000000000e+00  8.4264327332765968e-02 1.0073534389779043e-01 0.0000000000000000e+00  4.2253711445205948e-02 5.8383019241606104e-02 0.0000000000000000e+00  4.9437372120796796e-02 7.9290926581607413e-02 0.0000000000000000e+00  3.0473631248953876e-02 5.5578879468033755e-02 0.0000000000000000e+00  2.8245639849872235e-02 6.4252437597137890e-02 0.0000000000000000e+00  2.4159920404291938e-02 6.2505543782217635e-02 0.0000000000000000e+00  7.3456937288186386e-03 2.3306469519657012e-02 0.0000000000000000e+00  5.4204194186380228e-03 2.6482858380036087e-02 0.0000000000000000e+00  3.7428186990909463e-03 2.4704707451021254e-02 0.0000000000000000e+00  7.3973184927301778e-04 1.5828388261357039e-02 0.0000000000000000e+00  -7.2468810651508887e-04 1.3874446715557353e-02 0.0000000000000000e+00  -1.2626023498198712e-03 8.8861270288921445e-03 0.0000000000000000e+00  -5.2759258696357886e-03 1.4101508980532486e-02 0.0000000000000000e+00  -5.5789672273705137e-03 1.5074378174342056e-02 0.0000000000000000e+00  2.2827782732951505e-03 -8.2653908223699422e-03 0.0000000000000000e+00  -2.6885782821011572e-02 3.8608411915592694e-02 0.0000000000000000e+00  -3.9341906436010460e-02 5.7419459632242840e-02 0.0000000000000000e+00  -2.3083382700959915e-02 2.5902397783830029e-02 0.0000000000000000e+00  -7.3174997139517958e-02 7.8545016928435019e-02 0.0000000000000000e+00  -2.0204657333535801e-02 1.8811306558730454e-02 0.0000000000000000e+00  -1.6298485194088691e-01 1.2859939037493812e-01 0.0000000000000000e+00  1.0727662070514055e-01 -8.1456322223534772e-02 0.0000000000000000e+00  7.2409436134562397e-02 -5.7302936364267185e-02 0.0000000000000000e+00  -1.3684214792244923e-01 5.6694372601302737e-02 0.0000000000000000e+00  -6.1732271931708889e-02 3.7563883745345687e-02 0.0000000000000000e+00  -1.2186952480069041e-02 8.9204172810064923e-03 0.0000000000000000e+00  -2.1309968044421240e-01 1.0334148156605792e-01 0.0000000000000000e+00  -2.1072668196530281e-01 1.0746784361452176e-01 0.0000000000000000e+00  5.9407346786005864e-02 -9.9937648766827675e-02 0.0000000000000000e+00  1.4696505612292263e+00 -4.2330400439457921e-01 0.0000000000000000e+00  -2.7793872980899752e+00 2.0884240589085028e+00 0.0000000000000000e+00  -5.2922022454845596e-01 2.9666627574794485e-01 0.0000000000000000e+00  1.7003210693882378e-01 4.6584452375480583e-03 0.0000000000000000e+00  1.0229199571739347e-03 8.8270019210821518e-02 0.0000000000000000e+00  4.4044736230446768e-01 3.4059979142170782e-01 0.0000000000000000e+00  4.3430862754798953e+00 1.4998501376723019e+00 0.0000000000000000e+00  5.9982777813290138e+00 6.9715825772236366e+00 0.0000000000000000e+00  7.2349750703193472e-01 1.9130786592222084e+00 0.0000000000000000e+00  9.4770026485354941e-01 2.4340167534009763e-01 0.0000000000000000e+00  2.5156170855116264e+00 3.5957871613431697e-02 0.0000000000000000e+00  2.1605530603739909e+00 -1.1694869270469371e-01 0.0000000000000000e+00  3.8529252372480056e+00 -1.0375303685105419e+00 0.0000000000000000e+00  2.0014162651448748e+00 1.3303543021478675e-01 0.0000000000000000e+00  2.9197094964395487e+00 -3.5687560244482430e-01 0.0000000000000000e+00  -8.3449485848232130e-01 -1.2786584942681958e+00 0.0000000000000000e+00  -1.4798522588253774e-01 -3.7960388902763220e-01 0.0000000000000000e+00  -5.3137404741948793e-02 -1.5663142267557423e-01 0.0000000000000000e+00  6.6103241242722446e-02 -1.4876567566171761e-01 0.0000000000000000e+00  7.9596033007780154e-01 3.7581152543218345e-02 0.0000000000000000e+00  -9.0862763662740972e-02 2.9070573886900880e-01 0.0000000000000000e+00  2.9617413837140316e-01 6.6433832897812028e-01 0.0000000000000000e+00  -2.0638442357958033e+00 -8.8039628290140270e-01 0.0000000000000000e+00  1.7804938733638040e+00 -3.6597915718015023e-01 0.0000000000000000e+00  3.9229624486362480e-01 1.0505173789854806e-01 0.0000000000000000e+00  -1.5186740838930798e-01 2.7755745575198609e-01 0.0000000000000000e+00  -8.1502679695642344e-01 1.2799528349930755e+00 0.0000000000000000e+00  -1.8803613928093388e+00 3.7160833640432829e+00 0.0000000000000000e+00  7.5961976611745934e+00 1.0510922023428084e+00 0.0000000000000000e+00  9.7943073841153048e+00 4.6858941813531585e-01 0.0000000000000000e+00  4.8607477209528849e+00 3.0007138201721495e-01 0.0000000000000000e+00  3.6760575474904500e+00 -1.1163227522098185e-01 0.0000000000000000e+00  3.8815822569488301e+00 -1.6631821064989857e-01 0.0000000000000000e+00  9.7698427058491843e-01 2.0084532015020470e-01 0.0000000000000000e+00  -6.2444782436828772e-01 1.5749588958402450e+00 0.0000000000000000e+00  1.5900214362157644e+01 -1.5600548099895322e+01 0.0000000000000000e+00  8.6824526037152285e+00 -3.2081704561870694e+00 0.0000000000000000e+00  8.0051018096579374e-01 -6.6806646164674166e-01 0.0000000000000000e+00  7.3448782101167398e-02 -1.4848117893752172e-01 0.0000000000000000e+00  4.0861641568584089e-01 5.2408269259228138e-03 0.0000000000000000e+00  -4.0951740355915883e-01 -2.3667961629093842e-01 0.0000000000000000e+00  -5.3078596690097628e+00 -3.7103953103162644e+00 0.0000000000000000e+00  1.5695310653428849e+00 4.3538139560305039e-01 0.0000000000000000e+00  2.2016642944422884e-01 2.7216871081895933e-01 0.0000000000000000e+00  -3.9510819129680413e-01 -1.5877408445977065e-01 0.0000000000000000e+00  -4.1372765776872561e-01 -1.6623153713371383e-01 0.0000000000000000e+00  -3.5391126490283871e-02 -2.0562145750188165e-02 0.0000000000000000e+00  -2.0381950987786668e-01 -1.0339445447587463e-01 0.0000000000000000e+00  1.7448714250598066e-01 1.4165154129856647e-01 0.0000000000000000e+00  -3.9802113338528616e-01 -2.7649799671110348e-01 0.0000000000000000e+00  2.6206902723178063e-02 4.0658896049463357e-03 0.0000000000000000e+00  -2.4977118443140869e-01 -1.1902980750302231e-01 0.0000000000000000e+00  -8.3703494592430136e-02 -8.1570588244056844e-02 0.0000000000000000e+00  -2.9279478874400555e-01 -2.7261420314213786e-01 0.0000000000000000e+00  -9.3566607364766352e-02 -9.8244059811248063e-02 0.0000000000000000e+00  -1.7193921902658293e-01 -2.2086310802655679e-01 0.0000000000000000e+00  -1.7763094007419003e-01 -2.3050781476942939e-01 0.0000000000000000e+00  1.7246821408766613e-02 4.5219613883004654e-02 0.0000000000000000e+00  -2.4722367299707268e-02 -5.9955782309819100e-02 0.0000000000000000e+00  -5.0897446744787571e-02 -1.1788469041399909e-01 0.0000000000000000e+00  -6.5330782122272283e-03 -2.2225233851967435e-02 0.0000000000000000e+00  -9.4360614946719153e-03 -4.3272823685550299e-02 0.0000000000000000e+00  -1.6653632215433286e-03 -1.3396007262917974e-02 0.0000000000000000e+00  -1.9410276557615106e-04 -1.1714869355826116e-02 0.0000000000000000e+00  1.1175172627115042e-03 -5.3084689579275621e-03 0.0000000000000000e+00  1.7215285785335461e-03 -3.1637300323182171e-03 0.0000000000000000e+00  3.9362775154523173e-03 -6.2967926271109993e-03 0.0000000000000000e+00  9.7225278134776064e-03 -1.7620695976619392e-02 0.0000000000000000e+00  1.6193195378398639e-02 -2.5485872464892870e-02 0.0000000000000000e+00  2.9234154992047571e-02 -4.1574104296709720e-02 0.0000000000000000e+00  3.0325176282298100e-02 -3.6837976744156314e-02 0.0000000000000000e+00  6.7713471311259085e-02 -7.2153672433487970e-02 0.0000000000000000e+00  1.1790856370021993e-02 -1.2032114375287605e-02 0.0000000000000000e+00  7.3196518553966449e-03 -3.2408242333993079e-03 0.0000000000000000e+00  1.2692921601948295e-01 -9.1775244630725450e-02 0.0000000000000000e+00  8.4346943858741807e-02 -5.9800241725954537e-02 0.0000000000000000e+00  6.4967081703435903e-02 -3.9442626774103567e-02 0.0000000000000000e+00  8.9490058733974670e-02 -5.0582937768849971e-02 0.0000000000000000e+00  5.5953577255125196e-02 -2.6096437927250499e-02 0.0000000000000000e+00  1.4158616295006454e-01 -6.6143798111133176e-02 0.0000000000000000e+00  -2.7394744774190957e-02 1.0233996650872153e-02 0.0000000000000000e+00  -1.1676627065820012e-01 6.2078135818186386e-02 0.0000000000000000e+00  1.5897056297405537e-01 -4.6367796209175728e-02 0.0000000000000000e+00  2.6211803313981007e-02 -8.9382360012869328e-03 0.0000000000000000e+00  3.4892815088816621e-02 -1.1012536440004833e-02 0.0000000000000000e+00  1.6950894937382133e-01 -4.9919412747647045e-02 0.0000000000000000e+00  2.8404968340718656e-01 -7.5488881890912990e-02 0.0000000000000000e+00  2.7926156469393493e-01 5.3308782807852265e-03 0.0000000000000000e+00  -7.3393368785506918e-01 1.9864111939250972e-01 0.0000000000000000e+00  5.6722864808144324e-01 -5.3192915549848307e-01 0.0000000000000000e+00  2.4758880190250063e-01 -1.5748032538922901e-01 0.0000000000000000e+00  7.2541941184830136e-02 -2.9373305064197670e-02 0.0000000000000000e+00  -2.6926543032356393e-02 1.1704575836285432e-02 0.0000000000000000e+00  -1.3452444875170733e-01 4.3192327060050606e-02 0.0000000000000000e+00  -3.4316549070425245e-01 2.6745184028366975e-01 0.0000000000000000e+00  1.1287005736014732e+00 5.1283768896158177e-01 0.0000000000000000e+00  2.4080726384305984e+00 2.7118628884648195e+00 0.0000000000000000e+00  1.3797717905248514e+00 2.4538262205865808e+00 0.0000000000000000e+00  5.7944849295614675e+00 -1.7229352095299684e+00 0.0000000000000000e+00  6.5268845464790548e+00 -1.0446279334436586e+00 0.0000000000000000e+00  1.7364000352139550e+00 -5.6846983232256265e-01 0.0000000000000000e+00  6.6910214147901237e-01 -3.8733556209740466e-01 0.0000000000000000e+00  1.6444156527810588e-01 -1.9035184964854232e-01 0.0000000000000000e+00  2.8660700000349343e-01 -3.4546672839311915e-01 0.0000000000000000e+00  1.8619583785278154e-01 -2.4118822300223214e-01 0.0000000000000000e+00  7.1252349962704596e-06 2.0211442831283050e-06 0.0000000000000000e+00  -1.6362907248671172e-05 -1.3579661228130707e-05 0.0000000000000000e+00  -2.2021415633788811e-05 3.9240845434013741e-05 0.0000000000000000e+00  -1.5080207686453265e-05 2.4814798618610814e-06 0.0000000000000000e+00  -4.7653383570742645e-06 6.0942173336789258e-06 0.0000000000000000e+00  4.2013147385625669e-06 -1.4348733912038522e-05 0.0000000000000000e+00  -1.1024605983044202e-05 -2.0939329661602020e-05 0.0000000000000000e+00  -1.6208792583938576e-07 -1.2726102310650579e-06 0.0000000000000000e+00  -1.0854752022408458e-07 9.3443150188283420e-07 0.0000000000000000e+00  -1.7888854089656213e-05 2.5469180620916176e-05 0.0000000000000000e+00  -4.3325706046116818e-07 6.4763620733094079e-06 0.0000000000000000e+00  5.1096456444092687e-07 -7.0170753045802569e-06 0.0000000000000000e+00  -1.0498146928436404e-05 -1.4514304411900022e-05 0.0000000000000000e+00  -6.8263978027592663e-05 -1.4889860156644288e-05 0.0000000000000000e+00  3.3558199141571433e-04 -1.9787787297739540e-04 0.0000000000000000e+00  -7.2387349964935269e-05 1.6217730880779710e-05 0.0000000000000000e+00  -8.5031506177776523e-04 -1.1440221581035417e-04 0.0000000000000000e+00  -7.2206338347569803e-06 -3.8026904915571720e-05 0.0000000000000000e+00  4.2186882775432146e-06 -2.2848390879360999e-06 0.0000000000000000e+00  1.1798516649339831e-05 6.9948817892697974e-06 0.0000000000000000e+00  6.2036356237916119e-05 4.6629996225212151e-05 0.0000000000000000e+00  2.5045024032391842e-06 9.9850030433281696e-06 0.0000000000000000e+00  8.7047179876643178e-06 -2.9708351126281433e-05 0.0000000000000000e+00  -1.5895012503404146e-04 -1.7014696794539705e-04 0.0000000000000000e+00  4.7870720436288575e-04 -3.3407591603138256e-04 0.0000000000000000e+00  3.1148612916929728e-06 1.0470934015237829e-05 0.0000000000000000e+00  1.6387722642977165e-04 -5.2085600674661541e-05 0.0000000000000000e+00  3.2596293900944554e-07 -5.1708938928179164e-06 0.0000000000000000e+00  2.8338193180736468e-06 -3.0328253181167259e-06 0.0000000000000000e+00  7.9173650367948172e-07 -3.7060304470512605e-07 0.0000000000000000e+00  -5.7825728903651720e-06 -1.6449746400516865e-05 0.0000000000000000e+00  -2.7038548979875266e-05 -4.9957555359015417e-05 0.0000000000000000e+00  -1.1471488881335129e-04 -2.6257861089126869e-04 0.0000000000000000e+00  -9.5986642378540984e-05 -7.5672716297094409e-05 0.0000000000000000e+00  -2.9574596739886100e-07 -3.9279568460411394e-07 0.0000000000000000e+00  6.9627949565305336e-07 -1.0930629166108744e-05 0.0000000000000000e+00  -1.0338027267249231e-06 -6.1474431644322757e-06 0.0000000000000000e+00  -3.1789645434089689e-06 -3.3721687841195756e-06 0.0000000000000000e+00  -9.8751837835212074e-08 3.6929781392552996e-06 0.0000000000000000e+00  -3.9238977820609157e-06 1.7097869342546798e-05 0.0000000000000000e+00  -7.7492868571820407e-06 8.0917457718234711e-06 0.0000000000000000e+00  -5.0372328706058661e-05 -1.9735577275899988e-06 0.0000000000000000e+00  -7.2708345464732256e-05 -1.3086996062246676e-04 0.0000000000000000e+00  -7.2925518524686347e-05 1.1968483524575288e-04 0.0000000000000000e+00  -3.4872126339226584e-05 3.3532386351860271e-06 0.0000000000000000e+00  2.9997294808851733e-05 -1.1756514360868541e-05 0.0000000000000000e+00  5.4739953485111008e-05 -4.0418993207658998e-05 0.0000000000000000e+00  1.5224580815934988e-05 -5.4974349381587869e-06 0.0000000000000000e+00  4.3508751633106874e-05 -5.5104376406705324e-05 0.0000000000000000e+00  2.3337568415842820e-05 -2.7919885883698140e-05 0.0000000000000000e+00  -8.5776631261475140e-05 4.4455129507127889e-05 0.0000000000000000e+00  -8.3292563315843151e-05 -3.1424059926138829e-05 0.0000000000000000e+00  -1.5507044638815571e-04 -6.9592199142648830e-05 0.0000000000000000e+00  -3.8561008210949514e-04 -1.6284228653649176e-04 0.0000000000000000e+00  -2.0038362451978557e-04 -3.3691011776034276e-05 0.0000000000000000e+00  -9.8765014557900980e-06 -2.2055959590322301e-05 0.0000000000000000e+00  -1.2275981047912057e-06 -4.9400645216731370e-06 0.0000000000000000e+00  9.4966081889487120e-08 -2.9138056609920905e-07 0.0000000000000000e+00  -1.7690604070936503e-06 7.2378211281473498e-06 0.0000000000000000e+00  -1.7377096580334963e-06 -4.2013805676448956e-05 0.0000000000000000e+00  2.7079206861130685e-05 -3.9796404200341420e-05 0.0000000000000000e+00  -5.5910674099432265e-05 6.6930340585451820e-05 0.0000000000000000e+00  -2.4358247523483507e-05 6.3934192041356804e-05 0.0000000000000000e+00  -1.7592959014544291e-05 -4.4034218306666708e-05 0.0000000000000000e+00  -3.6717105432405544e-05 -4.3503347698257921e-05 0.0000000000000000e+00  4.6897241611059090e-05 3.4974840396526038e-05 0.0000000000000000e+00  6.5963908907468730e-05 2.2386956162850108e-05 0.0000000000000000e+00  4.7374635726567455e-05 -2.8132618504873919e-05 0.0000000000000000e+00  3.5002570991776987e-05 -4.1760260050985201e-05 0.0000000000000000e+00  -7.2735382706198452e-06 4.1824803380693633e-06 0.0000000000000000e+00  -2.7819483018433077e-05 6.4060099952558904e-06 0.0000000000000000e+00  1.5068722269330599e-06 1.9697971863532838e-07 0.0000000000000000e+00  1.4218735580200698e-05 1.1013270128068498e-06 0.0000000000000000e+00  -4.9420645701952082e-05 -2.4267253050310784e-05 0.0000000000000000e+00  -8.3717750217042215e-05 4.7227281421183514e-04 0.0000000000000000e+00  -6.8228905447114026e-06 1.3503681816703651e-05 0.0000000000000000e+00  -7.2530986238736333e-05 7.3696319509933695e-05 0.0000000000000000e+00  -3.0327862646217096e-06 2.9024542388851604e-06 0.0000000000000000e+00  -1.5106003439461431e-06 1.4265118722493574e-05 0.0000000000000000e+00  -5.2057150266341762e-06 1.9689483846249884e-05 0.0000000000000000e+00  -1.6607584917543191e-04 -2.2606839484383585e-05 0.0000000000000000e+00  1.2584987827890229e-03 -3.7526838450921132e-03 0.0000000000000000e+00  -2.4531111878017256e-04 -4.4555903294302363e-04 0.0000000000000000e+00  -2.0598907207805279e-05 8.2011557989191119e-05 0.0000000000000000e+00  -1.7975929250622268e-05 -5.7585687602013222e-05 0.0000000000000000e+00  -1.6887552220986023e-05 3.6913338757641964e-05 0.0000000000000000e+00  3.6132930424760551e-06 -1.1129893803926388e-05 0.0000000000000000e+00  1.3247143039160964e-05 -2.6650675587824301e-05 0.0000000000000000e+00  1.9351064404758123e-06 -1.3425279192583750e-05 0.0000000000000000e+00  -2.2607454017685501e-04 8.8305624307434040e-05 0.0000000000000000e+00  -5.1673406526764771e-05 2.9690480880060620e-05 0.0000000000000000e+00  -1.3086982907652836e-04 1.4428360557886314e-05 0.0000000000000000e+00  -6.0747679370179301e-05 4.1559542483129530e-07 0.0000000000000000e+00  3.8908294246449391e-05 3.3993563811936765e-05 0.0000000000000000e+00  5.2163607095609334e-05 2.6163533203915414e-05 0.0000000000000000e+00  2.6628328399575738e-05 1.3192746250925808e-05 0.0000000000000000e+00  6.1498412068025643e-07 -6.1292766264047643e-04 0.0000000000000000e+00  3.2921966105293007e-05 2.0460907550296306e-04 0.0000000000000000e+00  4.1885815731443490e-05 1.0376210298003414e-05 0.0000000000000000e+00  2.4180041367645680e-05 -3.7671919152279380e-06 0.0000000000000000e+00  2.7180139402587930e-05 1.0548774013112943e-06 0.0000000000000000e+00  3.4244817066435472e-05 -1.0477406622241942e-05 0.0000000000000000e+00  -1.5389328630844188e-03 -5.7501692396410881e-05 0.0000000000000000e+00  -2.0908352947970188e-04 6.1372145793964054e-06 0.0000000000000000e+00  -4.1979661508723638e-05 -2.3317306388443771e-06 0.0000000000000000e+00  -5.7770931491945634e-05 2.9411596109266644e-05 0.0000000000000000e+00  -6.9942311011828002e-05 4.6824479641555346e-05 0.0000000000000000e+00  -1.7241787074364078e-05 1.9467183830543488e-05 0.0000000000000000e+00  -3.7674583566923401e-05 -2.9343319768956621e-05 0.0000000000000000e+00  -2.5971352990067703e-05 -1.3541287047353414e-05 0.0000000000000000e+00  -6.0501475228211460e-06 -7.7102141563739146e-06 0.0000000000000000e+00  -9.8820226372595506e-07 -8.2922812814717960e-07 0.0000000000000000e+00  1.0821056800399559e