<?xml version="1.0"?>
<VTKFile type="UnstructuredGrid"  version="0.1"  >
<UnstructuredGrid>
<Piece  NumberOfPoints="2549" NumberOfCells="4928">
<Points>
<DataArray  type="Float64"  NumberOfComponents="3"  format="ascii">1.473403874342973 0.03191745664817678 0  1.469006687948756 0.05495770150123924 0  1.445257754917852 0.06382438635291013 0  1.433176975206809 0.08001465880635267 0  1.428071943677687 0.09201547643731162 0  1.423677018435114 0.1155900557324889 0  1.404260325650583 0.1201526440008067 0  1.373501643841821 0.1264235397232145 0  1.394839991146794 0.1531777786179525 0  1.195081037750726 0.3974574540729673 0  1.386794118634233 0.1768511041346873 0  1.377784831446575 0.2139851928542062 0  1.339374840211271 0.2316131537938729 0  1.337525494197185 0.2589500464547553 0  1.334336075188132 0.2905974274943028 0  1.31603814768031 0.3232623581666093 0  1.308031960638103 0.3578623092998088 0  1.287480633765328 0.3685819026839668 0  1.273553137803415 0.4198086520738731 0  1.2617725909843 0.4604731344588099 0  1.241599418266295 0.5047456981868843 0  1.223548142259627 0.5503877797958703 0  1.200893949936197 0.5978524773475616 0  1.17800851915137 0.6492612730447883 0  1.15333740019847 0.7063645830526283 0  1.111706633715777 0.7375924118930375 0  1.085070018029611 0.7929028245230915 0  1.052847784564305 0.8503923678847221 0  1.011747024523934 0.9033698785319498 0  0.9689113908451252 0.9591592695758184 0  0.9217741500184924 1.013729967137824 0  0.8695983417627742 1.068826955775921 0  0.8139423426412757 1.121424733166935 0  0.7549743077491766 1.170904636517414 0  0.689140141006038 1.221440319646125 0  0.620485877896419 1.268278170575623 0  0.5466175003987793 1.311488370989656 0  0.4687778601056338 1.350753239107743 0  0.3872101413085511 1.384711547339879 0  0.3017768622481667 1.413695667724688 0  0.2137999895696742 1.436338220216474 0  0.1243533243274027 1.451574177606834 0  0.03239308761883896 1.461370590894293 0  -0.0594887340843286 1.463119933091049 0  -0.1515831794120817 1.457833156687959 0  -0.2422678582263161 1.44470429514585 0  -0.3312694479644944 1.425290006838556 0  -0.4174626059523758 1.396984074435263 0  -0.4996203745598734 1.365654084019001 0  -0.5791702240132 1.327547778869264 0  -0.6540413741234399 1.282575315945345 0  -0.7243643390309434 1.2347105338056 0  -0.7896451488918014 1.182452790392297 0  -0.8505613002916056 1.127550951212062 0  -0.9051515791612651 1.07097783181379 0  -0.9585777794577164 1.01056663505504 0  -1.001012566979806 0.9577055882707065 0  -1.046160009030479 0.9043626934188801 0  -1.08531231461277 0.8425714562807395 0  -1.11974184608835 0.7848570299357887 0  -1.148630379222513 0.7286157458388566 0  -1.172413575341801 0.6682726739537034 0  -1.20475153804626 0.6286595307384739 0  -1.218862938090823 0.5515212816128581 0  -1.219186105233294 0.5114566353316725 0  -1.263491020303941 0.5009488724740078 0  -1.278468169948164 0.4501764747182449 0  -1.28794982040186 0.4115168226468405 0  -1.295154415967271 0.3729292382131529 0  -1.320746108991613 0.3509110016296845 0  -1.329829416317356 0.3015462597095535 0  -1.305472804886359 0.3240231007481312 0  -1.376368963801367 0.2892534742084784 0  -1.370755948246574 0.1943579132106133 0  -1.367898097975714 0.1695139521372042 0  -1.372202220056863 0.1366626250281429 0  -1.386577942218755 0.1201413619378975 0  -1.397910802934263 0.0875454187453875 0  -1.396467893662532 0.1127509351416373 0  -1.386868080858995 0.02385273844348446 0  -1.400761381945614 0.09678494875269729 0  -1.418362913645792 0.1605413461751491 0  -1.467884656268095 0.08663781349090963 0  -1.478080399448071 0.05723442042470098 0  -1.503206007301313 0.03127985526071971 0  -1.488118258089892 0.003794272965299762 0  -1.47446258072624 -0.02870019721199948 0  -1.497662345029968 -0.4891692403856718 0  -1.398318423845134 -0.04245319258660787 0  -1.346269213751971 0.4609466368224464 0  -1.442742520984093 -0.05787040702284777 0  -1.453958561972657 0.01680910372971222 0  -1.418725313399215 -0.1223676902772342 0  -1.392596295237418 -0.08633447620885394 0  -1.376316015217816 -0.100032038757415 0  -1.382588717089693 -0.1231220330521806 0  -1.398763942731964 -0.2405873741078867 0  -1.329418981020955 -0.3473498828161488 0  -1.360674836256266 -0.2392699910462781 0  -1.357804229467688 -0.2969230861694666 0  -1.323732997837772 -0.3238538019629059 0  -1.329627755426275 -0.3617098999840989 0  -1.327918809221292 -0.401268441836485 0  -1.347914961729994 -0.4485120487047395 0  -1.238732780489674 -0.4669021272957138 0  -1.209074428151029 -0.4999561076090758 0  -1.251880476452862 -0.6173641199697175 0  -1.199774438100674 -0.637520922236344 0  -1.189068067803279 -0.7019872477090731 0  -1.162632255987803 -0.765577764501668 0  -1.141904752412034 -0.8290327798488499 0  -1.098075266889441 -0.9096172219074717 0  -1.032800933719831 -0.9334798280918986 0  -1.009117443746535 -1.006820105726102 0  -0.9550148927298613 -1.089255158630591 0  -0.8979662408105921 -1.143111814055399 0  -0.8367884080114687 -1.211618182466339 0  -0.7700030696771953 -1.270665801897421 0  -0.6977051490480399 -1.327766664802051 0  -0.6181715782349524 -1.380229065463734 0  -0.5361659460415386 -1.428463956133347 0  -0.450519848838334 -1.465876623681223 0  -0.3576089942677313 -1.5012639549686 0  -0.2637312502645774 -1.528416209562828 0  -0.165810755162024 -1.546819300319527 0  -0.06675160445414269 -1.556840493651767 0  0.03323483605362352 -1.557850938086321 0  0.1328174179738335 -1.549991587995255 0  0.2310832805713884 -1.533286801283131 0  0.3267903355747492 -1.50820982066927 0  0.4194306010509858 -1.475726122858073 0  0.5081196512667953 -1.436021492779065 0  0.5921026599079267 -1.390175642894573 0  0.6713962982317416 -1.338783947492003 0  0.7440895477027136 -1.283509328114942 0  0.8144159427026221 -1.223012274544587 0  0.8742629713930495 -1.166475983764983 0  0.9314409206133161 -1.105283438746198 0  0.9855417660138684 -1.040289042214992 0  1.032634699293409 -0.9766062892197889 0  1.075282073732782 -0.9125274753470567 0  1.114101168415417 -0.8504408043091276 0  1.146697943737142 -0.7876481214998073 0  1.174277311990216 -0.7263979625625515 0  1.208202572640636 -0.6825970719868978 0  1.231361144090619 -0.6223583528463154 0  1.253944771021994 -0.5663685905756446 0  1.271749408378069 -0.5122196301247161 0  1.284350198640254 -0.4632316692583446 0  1.289474433675746 -0.4086389834452578 0  1.315761008929962 -0.3816604100108008 0  1.31832654570953 -0.3020259379841432 0  1.296530422039256 -0.3174863939830931 0  1.349217508900341 -0.2736102244024213 0  1.366853309503127 -0.2255957387363322 0  1.362419179535173 -0.1943146493591419 0  1.367383483079509 -0.1646594037175514 0  1.377057469105359 -0.1364735920192769 0  1.375430403019848 -0.1020698892182732 0  1.36370135548303 0.8234777832622094 0  1.409580040058276 -0.07854638763085547 0  1.404597082788759 -0.08707299679316728 0  1.411884329931807 -0.05653233205691346 0  1.430684830035288 -0.04305934920237457 0  1.430024718786663 -0.02285823396848187 0  1.439645972817388 -0.01189893700515141 0  1.446368124592104 0.003660877992964281 0  1.466194684424374 0.01154715595970249 0  -0.09679991809546323 0.8836575667098975 0  0.6909864781320396 -0.5049002092994613 0  -0.8067063235062281 -0.3860866491514889 0  -0.07530286222984203 -0.943492788417343 0  0.6519310798936931 0.4973636064238051 0  1.091138609616664 0.1166360043890611 0  -0.7944677078520672 0.4037181402147084 0  -1.157192435568319 0.02818580519278244 0  1.101790729022265 -0.06307224602244793 0  -1.039380405126085 -0.1761973311532238 0  -0.7337457817012178 0.01370030565991909 0  -0.4390560084262223 -0.1400541383095716 0  -1.02835756204416 0.2089065794657474 0  0.3816504402606699 -0.8309404267799447 0  0.08472809162894825 -0.3046532523250076 0  0.3065962585274143 0.7686011879685855 0  0.2197354712734836 0.183866478693496 0  0.5636109673513169 0.01762867580530443 0  -0.4816400485476041 -0.6967344057722177 0  -0.5028224121487707 0.6898772425627239 0  -0.2388709303021873 0.3047575324470902 0  0.919729920099433 -0.2116196188537044 0  0.8980486561535164 0.2474420968129657 0  0.3542213404924784 -0.2142537086256489 0  -0.009885531101609116 0.2299570322916046 0  -0.4914635276796665 0.2088794511356123 0  -0.1883142581432099 -0.2801725812910507 0  0.8640466145209685 0.02286904230692543 0  1.250784626608497 0.03251591414741711 0  0.8058030906784284 -0.3389859997553324 0  0.720573552935493 -0.1063504222791892 0  0.5870824654283278 -0.2070955537385406 0  0.4424855850584974 -0.0763837135000827 0  0.5152248926390098 -0.3701948207035075 0  0.8658936342090517 -0.08204768562987595 0  0.7160983594968815 0.02012775554167801 0  -0.8599636186927423 0.121849490363021 0  -1.073597117031887 0.1000104293767874 0  -0.949772801455517 0.02212671887363805 0  -0.8673347191015369 -0.08973147762062855 0  -1.077407870404139 -0.05281382708097259 0  -1.241535672247243 -0.08124810948646788 0  -1.314339827890701 0.003634430462960261 0  -1.310012585841424 0.0589431638507743 0  -1.230520862444505 0.1397855885364069 0  -0.1298785521501452 -0.6116321134335727 0  -0.3021791647849251 -0.5038208799474174 0  -0.2913336366243651 -0.8423361567848829 0  -0.3091392996331759 -0.2027690659777196 0  -0.4525054570469215 -0.402311479528047 0  -1.23150592433339 -0.1991258116053239 0  -1.212287933156574 0.244769814493746 0  0.3840684387532903 -0.5021784050688528 0  0.2174331402506094 -0.2461996927357294 0  0.244197000105431 -0.5607389244342055 0  -0.91184530186188 0.290967618513461 0  -0.7277933681850615 0.1898817967814485 0  1.2721695715854 -0.07794319486726743 0  1.209234513529359 -0.1762270836997171 0  1.188724847456974 0.2280382136297952 0  1.264241487309786 0.1413911587762696 0  -0.9128737187334359 -0.6534487369861319 0  -1.047048538710231 -0.4469046038891205 0  -1.021008909850462 0.4748298450050991 0  -0.8859358769869852 0.6620382370635396 0  0.9427907296196749 -0.6042085870832451 0  0.776606313218438 -0.8227353987866338 0  0.7324680688333889 0.7934787647362348 0  0.9008819555883799 0.6079890465573312 0  0.045163277157299
[...]
<PointData  Vectors="f_31782"> 
<DataArray  type="Float64"  Name="f_31782"  NumberOfComponents="3" format="ascii">-3.1332177788962923e-01 -7.2209961222598398e-03 0.0000000000000000e+00  -3.8097934165033287e-01 -2.4886121584527535e-01 0.0000000000000000e+00  1.3431892037955442e-01 1.9243605378180664e-01 0.0000000000000000e+00  2.0166944869773171e-01 1.2723700903124741e-01 0.0000000000000000e+00  2.2056012333095851e-01 5.0365409136476219e-02 0.0000000000000000e+00  -1.0710440962699239e+00 -7.9083849067609835e-01 0.0000000000000000e+00  -2.4184556163984454e+00 8.2604026686476140e-01 0.0000000000000000e+00  -2.4433182284211199e+00 3.5763417983901422e+00 0.0000000000000000e+00  4.3775174770438363e-01 7.6538922661478173e-02 0.0000000000000000e+00  1.5704614395776242e-01 1.1255394764041080e-01 0.0000000000000000e+00  4.8042611533532875e-01 2.7042087056386549e-01 0.0000000000000000e+00  -6.0262416669759500e-01 -4.7134864562099243e-01 0.0000000000000000e+00  -3.1118326727872669e+00 -1.9359763114547031e+00 0.0000000000000000e+00  9.9039674925428867e-02 -3.3584658234163914e-02 0.0000000000000000e+00  6.2577667954699678e-01 1.9056040297663462e-01 0.0000000000000000e+00  4.2822585105119793e-01 1.7378217237978169e-01 0.0000000000000000e+00  1.4926078118189484e-01 1.0258117885587013e-01 0.0000000000000000e+00  -5.5726277780671477e-02 -5.6891921102397491e-02 0.0000000000000000e+00  -7.2514024607101574e-02 -1.3453776773082293e-02 0.0000000000000000e+00  5.3429139835305908e-02 2.0921202062319885e-02 0.0000000000000000e+00  -8.4853606212059313e-03 -3.9684198869366517e-03 0.0000000000000000e+00  1.4575883895226715e-02 6.4676389449092380e-03 0.0000000000000000e+00  1.2958814288558098e-02 5.9359934779074702e-03 0.0000000000000000e+00  -2.0597425059679975e-02 -9.2882103690333836e-03 0.0000000000000000e+00  8.5696428273941416e-03 5.5231884403009520e-03 0.0000000000000000e+00  4.0416589791524687e-01 3.1886886247898910e-01 0.0000000000000000e+00  2.2066717028739180e-01 1.2506246896570833e-01 0.0000000000000000e+00  -1.6283446986394653e-02 -1.3033856152090455e-02 0.0000000000000000e+00  1.0176630991391393e-02 8.7791254389467943e-03 0.0000000000000000e+00  4.4466194124098878e-02 3.6107070019963591e-02 0.0000000000000000e+00  1.7667104354384469e-02 1.6207607787436851e-02 0.0000000000000000e+00  3.4744019970460838e-02 3.4718726764209368e-02 0.0000000000000000e+00  1.7195534579827226e-02 1.9241548985535480e-02 0.0000000000000000e+00  1.6261124258787792e-02 2.0381979297889527e-02 0.0000000000000000e+00  3.1156715004247864e-02 4.3233747951395569e-02 0.0000000000000000e+00  2.5289751113002676e-02 3.9904403757507624e-02 0.0000000000000000e+00  2.1649097805570526e-02 3.9987621085626812e-02 0.0000000000000000e+00  2.0818959887626436e-02 4.5137623553959796e-02 0.0000000000000000e+00  1.3819501386533140e-02 3.6839602685832522e-02 0.0000000000000000e+00  1.5188747394456602e-02 5.0840893743677833e-02 0.0000000000000000e+00  4.2775348544769800e-03 1.9237779363221848e-02 0.0000000000000000e+00  2.3631193307651790e-03 1.7984567711182967e-02 0.0000000000000000e+00  1.6742799775103590e-03 2.4623729120369010e-02 0.0000000000000000e+00  -3.2922091783812540e-04 1.3944383950497852e-02 0.0000000000000000e+00  -8.2608639050565111e-04 9.2760205618475887e-03 0.0000000000000000e+00  -2.7086501283979892e-03 1.4448723222523427e-02 0.0000000000000000e+00  -1.7848971465223446e-04 1.1772332176447811e-03 0.0000000000000000e+00  -2.6053409006738274e-03 6.9583683232360156e-03 0.0000000000000000e+00  -6.1745624090222507e-03 1.4531103066129834e-02 0.0000000000000000e+00  -3.9954017863525421e-03 7.3756583425538154e-03 0.0000000000000000e+00  -9.2303274576031775e-03 1.4384610032140791e-02 0.0000000000000000e+00  -1.1525762710277105e-02 1.5546880582675549e-02 0.0000000000000000e+00  -1.5254445003888424e-02 1.7978386229104588e-02 0.0000000000000000e+00  -2.2201442668412813e-02 2.2922922968016995e-02 0.0000000000000000e+00  -1.6596576920961056e-02 1.5458905912534132e-02 0.0000000000000000e+00  -2.6984888563783751e-02 2.2791058673515663e-02 0.0000000000000000e+00  -1.9055642791375935e-02 1.6031835983514826e-02 0.0000000000000000e+00  1.6901296678770182e-02 -1.2869798126999564e-02 0.0000000000000000e+00  -2.6012217449027021e-02 1.6318895537536238e-02 0.0000000000000000e+00  9.7648722289575465e-03 -6.0077997545374762e-03 0.0000000000000000e+00  -2.4833551562129219e-01 1.1804914262166306e-01 0.0000000000000000e+00  -3.5883228202817008e-01 2.0087317497425705e-01 0.0000000000000000e+00  -1.0494139530479744e-01 4.4672478666242882e-02 0.0000000000000000e+00  -1.1267239960731452e-01 2.1793004499626626e-02 0.0000000000000000e+00  3.7011164142161983e-02 -3.3478965198321435e-02 0.0000000000000000e+00  -1.4606403163595297e-01 1.4156667956613034e-01 0.0000000000000000e+00  -2.8747862671126501e-02 1.0341922282657037e-02 0.0000000000000000e+00  8.5372715817828935e-03 -1.0135240413101448e-03 0.0000000000000000e+00  6.1482727885750835e-02 -3.6458105576062501e-02 0.0000000000000000e+00  -3.8407477595911864e-02 6.7464275739359840e-03 0.0000000000000000e+00  -1.6801707240898911e-01 -1.5568407690455049e-01 0.0000000000000000e+00  -7.0643779819939523e-02 -2.6825863057235944e-02 0.0000000000000000e+00  -5.7542592886560419e-02 2.8026420947855266e-02 0.0000000000000000e+00  -3.3810683819053784e-02 3.4579954622448832e-04 0.0000000000000000e+00  -2.9243156829565027e-02 -1.1903927842230534e-03 0.0000000000000000e+00  -1.5109419155494236e-02 -1.7105469212890796e-03 0.0000000000000000e+00  4.3541561643380619e-02 3.9769315509048400e-02 0.0000000000000000e+00  2.1761911950580731e-01 -1.6201334171662102e-02 0.0000000000000000e+00  1.9010766168178669e-01 -1.5144388300264109e-02 0.0000000000000000e+00  1.5541223409665374e-02 -4.8062951353252496e-03 0.0000000000000000e+00  5.4577307097809023e-02 1.0137902622579817e-02 0.0000000000000000e+00  -1.1490910103169668e-03 -3.5969611800260266e-02 0.0000000000000000e+00  -1.0538535849730173e-02 3.5657451511701211e-03 0.0000000000000000e+00  5.1346692620152290e-02 -3.8145225472330825e-02 0.0000000000000000e+00  -3.4747052814563301e-01 3.6819461396646526e-02 0.0000000000000000e+00  -2.1527957931522235e-01 -8.1280970561778132e-02 0.0000000000000000e+00  -2.8369301142254413e-03 -1.3944814232424733e-03 0.0000000000000000e+00  1.4385107730976233e-03 -9.7970714163910086e-04 0.0000000000000000e+00  6.6892190161269190e-03 -8.4713878157290350e-04 0.0000000000000000e+00  -6.5681386317279176e-03 5.5546640544650114e-04 0.0000000000000000e+00  -9.9119896996629944e-02 1.1518840676600780e-02 0.0000000000000000e+00  -1.9186182568278018e-01 -1.4681791194745341e-02 0.0000000000000000e+00  -4.6172941803854961e-01 -1.1275961471894250e-02 0.0000000000000000e+00  8.0189730944467486e-01 -3.6880429296030113e+00 0.0000000000000000e+00  -3.2523986476343525e-01 5.8224376076092754e-01 0.0000000000000000e+00  -2.3727870641602311e-01 6.7294932915265712e-02 0.0000000000000000e+00  4.2503485265732222e-02 1.3866980090825915e-02 0.0000000000000000e+00  8.6954822107949928e-02 3.1847636999083676e-02 0.0000000000000000e+00  2.8446485529241083e-01 6.1650403311602257e-02 0.0000000000000000e+00  -7.8029282109625023e-02 -3.6467954366142842e-02 0.0000000000000000e+00  -5.6215909550058463e-01 -1.9214993925420057e-01 0.0000000000000000e+00  -5.2071242548715080e-01 1.9265888629203882e-02 0.0000000000000000e+00  -1.2441875326697581e-01 1.0574767709236602e-02 0.0000000000000000e+00  -3.1147219023500283e-01 -1.6804825127090295e-01 0.0000000000000000e+00  -5.0914764430399506e-01 -7.0181148824049377e-01 0.0000000000000000e+00  -6.6278522893697056e-01 -1.9256556322893897e-01 0.0000000000000000e+00  -1.2986237062590540e+00 -6.1529579156520453e-01 0.0000000000000000e+00  -5.9232417401368176e-01 -3.8959947608301421e-01 0.0000000000000000e+00  -8.8105439364520455e-01 -2.8474554978817213e-01 0.0000000000000000e+00  -1.7567197395900733e-01 -6.4044057233000912e-02 0.0000000000000000e+00  -5.3573933321869283e-01 -2.5969605989394257e-01 0.0000000000000000e+00  -1.8503504797927908e-01 -1.7267015300976171e-01 0.0000000000000000e+00  -3.0185381658037164e-01 -2.6496137689468025e-01 0.0000000000000000e+00  -6.3410083349343049e-01 -3.3767754853774495e-01 0.0000000000000000e+00  4.7918099513522557e-02 4.7180891164542799e-02 0.0000000000000000e+00  4.5904863856365561e-03 3.4393928640656882e-03 0.0000000000000000e+00  -1.0717838197046424e-01 -1.0844612635906622e-01 0.0000000000000000e+00  -2.2446239945321071e-02 -2.6814735631553677e-02 0.0000000000000000e+00  -3.0599911219309991e-02 -4.2075603463864859e-02 0.0000000000000000e+00  -1.6938041179638496e-02 -2.7218790901960069e-02 0.0000000000000000e+00  -1.0536521838643332e-02 -2.0462604717410522e-02 0.0000000000000000e+00  -5.5572410818360606e-03 -1.3453862496691307e-02 0.0000000000000000e+00  -3.7842763768062860e-04 -9.5547762915273050e-04 0.0000000000000000e+00  -8.3053116380811954e-04 -3.5443151793235774e-03 0.0000000000000000e+00  -4.5904306005931420e-04 -2.9867277804007460e-03 0.0000000000000000e+00  5.5026160092025721e-05 1.1304312627730690e-04 0.0000000000000000e+00  2.8361030097331480e-04 -8.3973426357314696e-03 0.0000000000000000e+00  1.2557587247237437e-03 -9.0934535426075869e-03 0.0000000000000000e+00  7.7773495149716602e-03 -3.5549765137751210e-02 0.0000000000000000e+00  1.4509763677463610e-02 -4.7316282112286119e-02 0.0000000000000000e+00  2.1600914896766937e-02 -5.3975438263305815e-02 0.0000000000000000e+00  3.3606404752659517e-02 -6.7711502382125449e-02 0.0000000000000000e+00  4.1615939631344245e-02 -6.9860406732525873e-02 0.0000000000000000e+00  5.4404440718934952e-02 -7.7383032995381323e-02 0.0000000000000000e+00  6.6973674698168409e-02 -8.3149177682635619e-02 0.0000000000000000e+00  3.6734852982960371e-02 -4.0981418235078643e-02 0.0000000000000000e+00  4.8393155579176728e-02 -4.7892578108795200e-02 0.0000000000000000e+00  8.3146378060685311e-02 -7.3235198457763953e-02 0.0000000000000000e+00  7.6654339104225158e-02 -6.0418782552153910e-02 0.0000000000000000e+00  8.7593919287647093e-02 -6.1485428805553265e-02 0.0000000000000000e+00  5.6057359346118239e-02 -3.7075369914867047e-02 0.0000000000000000e+00  -3.7191332265580891e-02 2.3299247834678974e-02 0.0000000000000000e+00  5.3325784092205208e-01 -2.6924456042214817e-01 0.0000000000000000e+00  9.9611756797554774e-01 -5.8620270527827978e-01 0.0000000000000000e+00  -4.5776362894698802e-01 2.5439740317881848e-01 0.0000000000000000e+00  -1.9462355660617164e-01 7.8712350023492833e-02 0.0000000000000000e+00  6.4217897960806430e-02 -2.3033924287481290e-02 0.0000000000000000e+00  1.0234160378897725e-01 -2.0536590236783673e-02 0.0000000000000000e+00  1.8331014769800067e+00 -3.8113360375461502e-01 0.0000000000000000e+00  2.0975333928104449e+00 -8.9545965965809504e-01 0.0000000000000000e+00  4.8270878927244715e-01 -1.9859211120755219e-01 0.0000000000000000e+00  -3.7215534258334366e+00 1.9346288601678818e+00 0.0000000000000000e+00  5.6930773093445852e-01 -7.1644524502167706e-01 0.0000000000000000e+00  -2.2687042636277226e-02 2.2629183274639999e-02 0.0000000000000000e+00  7.1971295461964924e-01 -1.0265414648049830e-01 0.0000000000000000e+00  -6.0530119941050642e-01 1.0022469272741115e-02 0.0000000000000000e+00  7.7876954075847327e-01 -1.7395970043885789e-01 0.0000000000000000e+00  5.9682769320778351e-01 -8.1126449252844762e-02 0.0000000000000000e+00  4.3456784363960079e-05 -9.7028461552869168e-04 0.0000000000000000e+00  -9.5465591939541820e-04 3.1411585083780884e-05 0.0000000000000000e+00  1.8169920947654847e-03 4.4460200000243531e-03 0.0000000000000000e+00  1.0109884673518495e-01 2.4933504255072700e-01 0.0000000000000000e+00  1.3202657358866732e-01 2.0629874966235343e-01 0.0000000000000000e+00  -1.9515304682100101e-01 -1.3198259858907491e-01 0.0000000000000000e+00  -5.2719673979289716e-01 1.3491085392566163e-01 0.0000000000000000e+00  -2.7418700360524983e-01 2.2913918043599557e-01 0.0000000000000000e+00  -1.3385384419069866e+00 1.3119595886117097e+00 0.0000000000000000e+00  -4.2393517076479070e-01 3.2697239349005358e-01 0.0000000000000000e+00  -8.0086440013371139e-10 9.2645125179280320e-09 0.0000000000000000e+00  5.2524114905787312e-08 -3.2702646127690387e-08 0.0000000000000000e+00  -3.0186321252492647e-07 -1.2310847716003984e-07 0.0000000000000000e+00  -9.2723078499659708e-10 -6.7242362178281050e-09 0.0000000000000000e+00  1.6758686285804236e-08 1.2112596853363327e-08 0.0000000000000000e+00  -2.8975143525077329e-07 -1.9705461391022164e-07 0.0000000000000000e+00  -9.1016873178028686e-08 4.5166354352297708e-08 0.0000000000000000e+00  -1.8086270085935433e-07 -1.8324349630468013e-07 0.0000000000000000e+00  9.4103614540602284e-08 -2.6447748557018669e-08 0.0000000000000000e+00  -1.1651267334410868e-07 -2.2413458276445221e-08 0.0000000000000000e+00  -2.5177956613274129e-13 -1.0807325802774626e-13 0.0000000000000000e+00  -2.5586095028415959e-13 -1.5842371130297031e-13 0.0000000000000000e+00  5.2978702520596405e-09 -5.8528133455683803e-09 0.0000000000000000e+00  2.5485772021683386e-08 -4.2032605803784616e-08 0.0000000000000000e+00  8.9341433555726569e-15 -3.0279512564851385e-14 0.0000000000000000e+00  1.2262220873017549e-08 2.2674299308066695e-08 0.0000000000000000e+00  1.7637060061785066e-14 2.0037357074142287e-14 0.0000000000000000e+00  1.0138760485980546e-13 4.0486778544752416e-15 0.0000000000000000e+00  -4.0794967136481858e-08 -3.8935958260590340e-08 0.0000000000000000e+00  -1.1882635169923517e-08 1.3778320423787574e-08 0.0000000000000000e+00  -6.6848890485063572e-15 1.4356982620616276e-14 0.0000000000000000e+00  5.2712054249772501e-07 -1.4187601320723618e-07 0.0000000000000000e+00  -5.4840885605006507e-09 -1.9525905742172009e-09 0.0000000000000000e+00  5.9665582061158430e-14 -5.8522678685865872e-14 0.0000000000000000e+00  7.4059007407397714e-15 2.8532830015362461e-14 0.0000000000000000e+00  -2.2095824277177117e-14 1.6877283222588069e-14 0.0000000000000000e+00  -1.5918861288933638e-14 -2.6297965985681180e-14 0.0000000000000000e+00  1.5050238014176196e-13 -5.9274035537537869e-14 0.0000000000000000e+00  -1.1848514609661289e-07 8.3062224427121973e-08 0.0000000000000000e+00  -2.3051306142647016e-08 1.0849506621939759e-08 0.0000000000000000e+00  1.1454729113160391e-10 -3.1116742740362512e-11 0.0000000000000000e+00  2.1879911059619531e-10 -1.2041598217607294e-10 0.0000000000000000e+00  9.0303425843028209e-14 -5.6127548657878658e-14 0.0000000000000000e+00  5.6052564480614241e-11 -4.3896221640419051e-11 0.0000000000000000e+00  1.8635585784372215e-10 -5.0281548864523412e-11 0.0000000000000000e+00  5.4295773533569318e-13 -1.5297175609150243e-13 0.0000000000000000e+00  -3.9476015127429522e-11 1.5484493349363024e-11 0.0000000000000000e+00  -2.1829723659019752e-08 4.3719163280226549e-09 0.0000000000000000e+00  9.6194238697251282e-12 -1.8001135544013005e-10 0.0000000000000000e+00  -1.5459942816528539e-10 -4.3661599798407587e-11 0.0000000000000000e+00  -4.3318254309623961e-09 -1.5787024003281659e-08 0.0000000000000000e+00  5.1463489242448025e-07 -4.2079990343398883e-05 0.0000000000000000e+00  -5.2935954609570401e-05 -8.7776500463937497e-07 0.0000000000000000e+00  2.0364258622062517e-05 -4.0568763668712912e-06 0.0000000000000000e+00  -5.0378216422300463e-06 2.1361511979625050e-06 0.0000000000000000e+00  -3.8667221821416374e-12 -9.8671995048079820e-12 0.0000000000000000e+00  -2.3980920731294840e-11 -2.9965014009041832e-11 0.0000000000000000e+00  -8.4616555652055253e-09 -1.4814709155738377e-08 0.0000000000000000e+00  -6.2470637264412522e-14 -5.4659354192827822e-14 0.0000000000000000e+00  -1.0000064947051057e-10 -5.8190058049153272e-11 0.0000000000000000e+00  -3.3755838525863914e-06 -2.4952470906423066e-06 0.0000000000000000e+00  -9.3404513033036205e-06 -3.6727873649131160e-06 0.0000000000000000e+00  3.9167630419549355e-11 -4.9843560927153874e-11 0.0000000000000000e+00  3.6055801231662812e-14 -5.8984087701938084e-14 0.0000000000000000e+00  1.8350201520241791e-11 -4.2031971888217265e-11 0.0000000000000000e+00  -1.9696250434509436e-08 1.0245732328278806e-08 0.0000000000000000e+00  -8.5142278941019612e-11 4.0397859521867288e-11 0.0000000000000000e+00  2.8006470404695373e-05 -4.1055331919069365e-06 0.0000000000000000e+00  1.5098317538301891e-04 -3.3656091432153723e-05 0.0000000000000000e+00  8.3618493244595922e-05 1.1298743830473816e-05 0.0000000000000000e+00  -3.4336621025990728e-05 -2.6791394194813555e-05 0.0000000000000000e+00  -1.9480295191331355e-04 -9.5459645789062236e-05 0.0000000000000000e+00  -3.9944730151021804e-04 -1.8724403733598674e-04 0.0000000000000000e+00  -4.9640088162686643e-05 2.2470088959012584e-05 0.0000000000000000e+00  -1.2844323721584582e-05 6.7906073415212354e-06 0.0000000000000000e+00  1.5524089507784416e-04 -8.1717159196884452e-05 0.0000000000000000e+00  3.5904472846802952e-05 -2.8081605383224657e-05 0.0000000000000000e+00  1.0752607116152242e-05 9.6018602467373662e-06 0.0000000000000000e+00  5.9331944947624826e-05 3.7160842545026142e-05 0.0000000000000000e+00  6.4363081161907248e-07 -7.6243704086257545e-06 0.0000000000000000e+00  -2.0028556442763021e-06 -5.3655456418877401e-06 0.0000000000000000e+00  -1.2593589193719552e-06 4.5355370240330018e-06 0.0000000000000000e+00  7.2152898414638084e-07 1.0687353561055236e-05 0.0000000000000000e+00  3.3670118849051203e-08 -3.3006143649209468e-08 0.0000000000000000e+00  3.1424132846378194e-14 2.3075543637724230e-14 0.0000000000000000e+00  7.2486624485145788e-11 4.9411409051772123e-11 0.0000000000000000e+00  1.6353481481786886e-11 1.4753409061023819e-11 0.0000000000000000e+00  -2.4761420200436381e-10 -1.2744421801010716e-10 0.0000000000000000e+00  -4.5192600544274946e-13 -1.9746872386423605e-13 0.0000000000000000e+00  -4.0827940930614583e-10 -1.9382334708975068e-10 0.0000000000000000e+00  1.8858894434927061e-14 3.5139882775408604e-14 0.0000000000000000e+00  1.0739357197973840e-17 2.0253045683417079e-17 0.0000000000000000e+00  3.8381942677643676e-17 -1.9672807743653265e-17 0.0000000000000000e+00  -9.5264110102529959e-05 -2.2708386336140156e-05 0.0000000000000000e+00  -2.3130010778046750e-05 1.1981854722597848e-05 0.0000000000000000e+00  -1.2894592818530074e-07 -6.9659397314206554e-08 0.0000000000000000e+00  1.0362941307970822e-11 7.1916488309701931e-12 0.0000000000000000e+00  2.4396418302992903e-08 1.7351768624206231e-08 0.0000000000000000e+00  -2.2994110984199123e-11 -1.1724741643482388e-11 0.0000000000000000e+00  1.6207830594664177e-11 2.3450368561797297e-11 0.0000000000000000e+00  1.1864119884400942e-08 1.3325139849219085e-08 0.0000000000000000e+00  1.3306062685046434e-12 -1.1790871449082619e-11 0.0000000000000000e+00  5.2888340682235866e-09 -1.9508068564265044e-08 0.0000000000000000e+00  -9.6976118150708371e-12 1.4630835939566314e-11 0.0000000000000000e+00  -2.3238912433198784e-12 8.8722760983298719e-12 0.0000000000000000e+00  -4.1159809326181891e-09 8.9684090977030280e-09 0.0000000000000000e+00  1.4148463197972085e-16 -9.4198565252119878e-17 0.0000000000000000e+00  -1.6882687625280704e-15 -1.2734612679791147e-14 0.0000000000000000e+00  2.6179872462917861e-05 -3.3089223024886070e-05 0.0000000000000000e+00  1.0840496753596131e-05 -2.5793993736332139e-05 0.0000000000000000e+00  6.7757120768241279e-06 1.7507382034179465e-05 0.0000000000000000e+00  1.0965731431307375e-05 1.5598376537758241e-05 0.0000000000000000e+00  -6.0470478293346069e-18 -4.7884998951102880e-18 0.0000000000000000e+00  1.0840781092547667e-11 2.7784690156849112e-11 0.0000000000000000e+00  4.0121737260295604e-09 1.6162186204189563e-08 0.0000000000000000e+00  -1.4880824669382126e-05 -1.9367114566888463e-05 0.0000000000000000e+00  -3.0208472118450433e-05 -1.7252781146229484e-05 0.0000000000000000e+00  -1.5464770615406811e-07 -1.0130258778090855e-07 0.0000000000000000e+00  -9.8068661369715020e-06 9.1483108610329695e-06 0.0000000000000000e+00  -5.6924129837997076e-06 8.6963311890201149e-06 0.0000000000000000e+00  -1.1625994651932274e-08 9.1481598196626803e-09 0.0000000000000000e+00  -1.1592846102465145e-13 5.7695756248063348e-14 0.00000000000000