<?xml version="1.0"?>
<VTKFile type="UnstructuredGrid"  version="0.1"  >
<UnstructuredGrid>
<Piece  NumberOfPoints="2549" NumberOfCells="4928">
<Points>
<DataArray  type="Float64"  NumberOfComponents="3"  format="ascii">1.474982489104603 0.02405063314213723 0  1.471206875415728 0.04716155967089977 0  1.447807798851305 0.05652176813188693 0  1.435839644055828 0.07240265435785669 0  1.431031282928838 0.08360537907610514 0  1.430636576708461 0.1065508608295325 0  1.413065885605834 0.1137763222755274 0  1.399955424168137 0.105677145539949 0  1.388086582677857 0.1506314829938341 0  1.519408158620386 0.6659331548884887 0  1.386972769686774 0.174463228683128 0  1.380951320142675 0.2155693247245838 0  1.346254487405496 0.2320884163864658 0  1.339803229653517 0.2596487420542134 0  1.336672633308927 0.2905212414967402 0  1.318407044366854 0.3230782794269484 0  1.310323398617604 0.357459245359554 0  1.290470528130737 0.3683231671158645 0  1.276658948506006 0.4201194942148487 0  1.264151879851834 0.4604534946553375 0  1.244067960344448 0.5048257268087991 0  1.225755114070616 0.5504623297236583 0  1.202803289031356 0.5979268716380524 0  1.17993939596172 0.6493653904719785 0  1.155215704956755 0.7069441206387254 0  1.112641762197088 0.737094367393913 0  1.086340999419369 0.7927534663238096 0  1.054126004771384 0.8506395722693834 0  1.012691852031187 0.9032918486058563 0  0.9696343012193929 0.9591379911901616 0  0.9223274950933895 1.013586473793177 0  0.8699275994789274 1.068564196671731 0  0.8141597089574621 1.121058201977666 0  0.7550939146442266 1.170440459760413 0  0.6891071019880075 1.220794116291398 0  0.6203686608392683 1.267480899573751 0  0.5464786707325466 1.310540233099903 0  0.4686050465457164 1.349649463267295 0  0.3870815837108407 1.383492250337286 0  0.3016710748554126 1.412297857579459 0  0.213792788429716 1.434903825638155 0  0.1244643126910856 1.450080453715319 0  0.03257806522587332 1.459780390841769 0  -0.05914433787938279 1.461514398955327 0  -0.151131595480163 1.456234070125329 0  -0.2416484335021998 1.443115336525133 0  -0.330559559195773 1.423806650399298 0  -0.416604947655834 1.395575138026407 0  -0.4986768495261778 1.36435093987406 0  -0.5781442156458529 1.326406733331148 0  -0.652960061655022 1.28159569337513 0  -0.7232790572215736 1.233942484447097 0  -0.7885877290959175 1.181880407284964 0  -0.8495575282985712 1.127200574862856 0  -0.9042921011662827 1.07085058988142 0  -0.9578704793759476 1.010666639745322 0  -1.000397887859353 0.9578680704335296 0  -1.045741210242229 0.9048722603176782 0  -1.085114358883654 0.8431573740477329 0  -1.119903790968245 0.7856715758009627 0  -1.148624953714218 0.7293326724036749 0  -1.172432465345449 0.6689515189094108 0  -1.205454005279488 0.6301131937843529 0  -1.220197337216157 0.5528849670305354 0  -1.221140185497868 0.5124584369249509 0  -1.264892014077601 0.5009023187583621 0  -1.279637729287214 0.4505109268102234 0  -1.289316116416458 0.412005276881459 0  -1.296772541764115 0.3733550337634722 0  -1.322197293441363 0.3513476797476801 0  -1.331188272370332 0.3017488561379134 0  -1.311375470196143 0.3285494641558483 0  -1.377374535012197 0.2895313737782054 0  -1.372466047212541 0.1944643923205176 0  -1.370088992690122 0.1695007110339631 0  -1.374535038747588 0.1363612885082907 0  -1.388560962045343 0.1193775460703809 0  -1.399132746948819 0.08655084489000459 0  -1.398626879354806 0.1118795921986551 0  -1.388946383650048 0.02266273902014647 0  -1.407993680980931 0.09630096734665777 0  -1.437955913860505 0.1585780866235303 0  -1.474079730290372 0.07867126631759494 0  -1.482058862153047 0.04892955732912512 0  -1.50479441432338 0.02117750994499807 0  -1.488591735486798 -0.005374760564841366 0  -1.472730905602875 -0.0387116026160199 0  -1.283752632934689 -0.5229792986539007 0  -1.395058474643212 -0.04279777462423261 0  -1.704686806842516 0.5043443099133794 0  -1.441167842696677 -0.06237640321053951 0  -1.450482413320562 0.01352838919972444 0  -1.408694910361102 -0.1298298729617463 0  -1.394770797612703 -0.087567808500705 0  -1.376027018222902 -0.1007847754971773 0  -1.381442573461755 -0.1226945664576738 0  -1.398350342814101 -0.2418865845765545 0  -1.316937099731301 -0.3426107354823708 0  -1.3609303643572 -0.2390293434742233 0  -1.35811033093225 -0.2963759059198512 0  -1.323126959216191 -0.3230749552561756 0  -1.329361973945022 -0.3607688196842639 0  -1.328361695453701 -0.4005309133106686 0  -1.347186037537874 -0.4482515831408564 0  -1.239524052732361 -0.4666956679211284 0  -1.209716081082979 -0.4995616981622232 0  -1.248667760884269 -0.6155053374690722 0  -1.199003931982994 -0.6373492287736493 0  -1.187972089100835 -0.7006945879775103 0  -1.163204090841686 -0.7653153677739859 0  -1.140756209630241 -0.8275671199080479 0  -1.098304475331609 -0.9091939385513028 0  -1.033043795083095 -0.932350857129483 0  -1.007700449625937 -1.00519937144153 0  -0.9557451446119273 -1.088705023742172 0  -0.8983420450961085 -1.142128216060521 0  -0.8367151363676889 -1.210142902985355 0  -0.7703285968227851 -1.269209193904665 0  -0.6980442056683904 -1.326130637381639 0  -0.6186873173264664 -1.378435755336932 0  -0.5368635291863373 -1.426585979177101 0  -0.4514225637943236 -1.463917680193463 0  -0.3587584977624799 -1.499298072493925 0  -0.2651122659455227 -1.526421605723431 0  -0.1674431051242098 -1.544849432274777 0  -0.06864624049372499 -1.554971167400942 0  0.03110093143319174 -1.556075280210769 0  0.1304458650792628 -1.548411244284549 0  0.2284994266182131 -1.531847754700753 0  0.3240168541450701 -1.506989278082891 0  0.4165052365934087 -1.474791361722182 0  0.5050863625265466 -1.435364673579713 0  0.5890099167954602 -1.389832167893175 0  0.6682818979370145 -1.338778460892537 0  0.7410174229289448 -1.283819359549655 0  0.811538567094679 -1.22374053232946 0  0.8714243638988288 -1.167423309758059 0  0.9286506088605284 -1.1064571879302 0  0.9829763909526036 -1.041771775096333 0  1.030325093412955 -0.9783870338325465 0  1.073144091335186 -0.9143797135630547 0  1.112736651956491 -0.8528794938997022 0  1.144416373101254 -0.7891860323993155 0  1.170414794608177 -0.7276050868633221 0  1.208569360833069 -0.6871234300998669 0  1.231339989181375 -0.6252594771562173 0  1.252742259053112 -0.5691053116162071 0  1.272399865770506 -0.5153002494459281 0  1.28136052830129 -0.4648867456293223 0  1.287078942966613 -0.4111934977860529 0  1.315213742026064 -0.3836762600053316 0  1.324432484108713 -0.308530917593542 0  1.28969244372356 -0.3142719826588591 0  1.350453840462775 -0.2756374330953678 0  1.365466934593204 -0.2283554432535509 0  1.363622608055318 -0.1971628272102116 0  1.366876376147478 -0.1675706906099694 0  1.376434304457278 -0.1390151070455148 0  1.375264093861972 -0.1056672341219016 0  1.604780603933833 0.8243659676633178 0  1.411705569951234 -0.08573689867837087 0  1.40475814247909 -0.09279219958547304 0  1.411766035139004 -0.06173455922849707 0  1.431648931250613 -0.04857114748003925 0  1.430916487706692 -0.02927018149050718 0  1.440573838072629 -0.01790112300127504 0  1.447605837282189 -0.003682697773242069 0  1.467652822263301 0.003967230508487224 0  -0.09650291452130691 0.8822120202023394 0  0.6907007969153077 -0.5053861371337086 0  -0.8072691939969696 -0.3852707370803785 0  -0.07653749991771641 -0.9415486507059739 0  0.6537811638596642 0.4967453549165095 0  1.093578267246567 0.1155423208494837 0  -0.7953299407664377 0.4037707114032212 0  -1.158085614817778 0.02868750895373881 0  1.102990945296709 -0.06468826955786587 0  -1.039780157128256 -0.1757864974153557 0  -0.7344121683420767 0.01422289342747316 0  -0.4392520723573221 -0.1390364748861214 0  -1.029562800301022 0.2093822423553422 0  0.3803935389354859 -0.8300817881949615 0  0.08532820665780932 -0.3031177165709392 0  0.3074927329034314 0.7675100921384894 0  0.2210732465214625 0.1837208631209225 0  0.565165622290038 0.01741780387003148 0  -0.482405967949468 -0.6950274569550176 0  -0.5029724891738294 0.6889664306329734 0  -0.2387177559619495 0.3042957047367921 0  0.920430379100706 -0.2128972361295844 0  0.9004385667557891 0.2467575604133909 0  0.3550156301526046 -0.2134697794194937 0  -0.00872631078421761 0.2298128593100534 0  -0.4918027128873926 0.2087912719646563 0  -0.1882924268033822 -0.2788067194017311 0  0.8658193340941872 0.02205191756298569 0  1.252632857009132 0.03055697747014408 0  0.8060820887574689 -0.339935930960869 0  0.7218263058700906 -0.106898824107564 0  0.5879643089379455 -0.2071846714365703 0  0.4436807426491782 -0.07614278276677165 0  0.5155476192886066 -0.3699211425158689 0  0.8672235070056776 -0.08298655405106367 0  0.7177814369924461 0.01960422540188199 0  -0.8608592293016857 0.1223037799781053 0  -1.074676238676523 0.1005183994887323 0  -0.9505797379378171 0.02265581401128169 0  -0.867971338050698 -0.08916187016742398 0  -1.077974031915823 -0.05232235769848395 0  -1.241524261631967 -0.08088750364472484 0  -1.31522770418022 0.00382902040853815 0  -1.311729838743223 0.05897496132155038 0  -1.232110215624804 0.139995462421258 0  -0.1306945313867023 -0.6097071799793757 0  -0.3028933031305034 -0.5019711827200016 0  -0.2923137608076268 -0.8403625250619841 0  -0.3091423467773843 -0.2015208272726356 0  -0.4530770414779867 -0.4007494418027766 0  -1.23148517710557 -0.1988899424213473 0  -1.213765053700404 0.245044263979679 0  0.3839776726605234 -0.5013349142289675 0  0.2181266108585888 -0.2449219550824091 0  0.2439282742609864 -0.5594201080369782 0  -0.9129317431832421 0.2913294838726985 0  -0.7285640069436338 0.1901336335650258 0  1.272576947633976 -0.08056036044857394 0  1.209603213655056 -0.1787773931224314 0  1.191800270247633 0.2270349324437605 0  1.267340075810898 0.1398732012842745 0  -0.9133271145052034 -0.6526468696715063 0  -1.04766915807249 -0.4464916909713423 0  -1.022193681771345 0.475265844532075 0  -0.8863957964891501 0.6620458611311483 0  0.9419583013490372 -0.6057909655193199 0  0.7750695615001874 -0.8235644284718647 0  0.7336540665130138 0.7929560918553004 0  0.902720176432527 0.607581550280207 0  0.0433990
[...]
<PointData  Vectors="f_43955"> 
<DataArray  type="Float64"  Name="f_43955"  NumberOfComponents="3" format="ascii">-1.7569209626738261e-01 -7.7395242782781655e-03 0.0000000000000000e+00  -1.0321352011943852e-01 -8.4440544935178913e-02 0.0000000000000000e+00  2.1245170512346001e-01 3.2809623773656837e-01 0.0000000000000000e+00  1.8007139673384222e-02 1.0667308686589079e-01 0.0000000000000000e+00  7.6776783928526091e-02 -3.4139918031496491e-01 0.0000000000000000e+00  4.4530531032183140e-01 -1.5799636426061805e+00 0.0000000000000000e+00  4.9893232122313358e-01 -9.0377001048907335e+00 0.0000000000000000e+00  1.5109470822092277e-01 -5.5441847242968811e-01 0.0000000000000000e+00  -3.1488565094208647e-04 -1.2267431508274650e-02 0.0000000000000000e+00  -2.6594361961481253e-02 5.0181983729073332e-03 0.0000000000000000e+00  -4.2897412937639948e-02 2.3667599160971473e-03 0.0000000000000000e+00  1.3326265408292726e-01 7.4062743546800536e-02 0.0000000000000000e+00  3.1696710832032010e-01 3.2313493771188123e-01 0.0000000000000000e+00  -2.6410677121990239e-01 -5.2118964297907640e-02 0.0000000000000000e+00  -1.7195945187004455e-01 -7.1309699354228775e-02 0.0000000000000000e+00  -1.3304432273106043e-01 -3.6871384383600027e-02 0.0000000000000000e+00  3.3832536573198768e-01 2.4691012383395061e-01 0.0000000000000000e+00  6.7507837331575549e-01 4.9422755817390313e-01 0.0000000000000000e+00  2.9318449545471176e-01 -1.0128552775141909e-03 0.0000000000000000e+00  -7.4565987586128840e-02 -1.0928458668744934e-01 0.0000000000000000e+00  1.1332684912310938e-02 -7.1502226432005565e-03 0.0000000000000000e+00  7.8432460754946365e-02 4.7850764270589326e-02 0.0000000000000000e+00  6.5764876653379337e-02 8.0614318171915347e-02 0.0000000000000000e+00  -1.9143492095457115e-01 1.0700781758857839e-02 0.0000000000000000e+00  1.8435528402382892e-01 -4.0637806972502868e-02 0.0000000000000000e+00  8.0765063103773882e-01 8.6815415924071726e-01 0.0000000000000000e+00  7.0625086269422721e-01 3.1555618641043814e-01 0.0000000000000000e+00  -1.3466648979248517e-02 -1.2648085313212812e-01 0.0000000000000000e+00  3.7604250174409055e-02 1.4631496532981521e-02 0.0000000000000000e+00  1.0564603254788218e-01 8.0005374068089219e-02 0.0000000000000000e+00  3.6118693194720268e-02 3.1521917053618648e-02 0.0000000000000000e+00  7.0095569612306327e-02 6.6536174669223694e-02 0.0000000000000000e+00  3.5841835086003172e-02 3.6041057399176853e-02 0.0000000000000000e+00  3.3207359364428854e-02 3.9634971614354926e-02 0.0000000000000000e+00  6.1057774304942886e-02 8.2165116354292148e-02 0.0000000000000000e+00  5.2209360934623326e-02 7.6469444526197555e-02 0.0000000000000000e+00  4.3617313136171357e-02 7.6390246615077706e-02 0.0000000000000000e+00  4.3358558302715199e-02 8.6972952584347674e-02 0.0000000000000000e+00  2.8836126869998927e-02 7.0774210428970502e-02 0.0000000000000000e+00  3.1342587143185323e-02 9.5319727757877032e-02 0.0000000000000000e+00  1.1926076254072078e-02 3.7194306318491584e-02 0.0000000000000000e+00  4.9657764575983783e-03 3.2069884148894980e-02 0.0000000000000000e+00  5.5977241669091472e-03 4.4262309106874578e-02 0.0000000000000000e+00  1.2318858914651297e-04 2.4015968057612899e-02 0.0000000000000000e+00  7.2554061003199453e-04 1.1242003032277527e-02 0.0000000000000000e+00  -4.8177716693035460e-03 2.2981641178139004e-02 0.0000000000000000e+00  4.1956615807378769e-03 -7.0449551430985351e-03 0.0000000000000000e+00  -3.1090882379028787e-03 3.1930003707223435e-03 0.0000000000000000e+00  -1.1785375873338094e-02 2.8182914001554919e-02 0.0000000000000000e+00  5.6594006559870713e-03 -1.1864764150453568e-02 0.0000000000000000e+00  -7.8781340028608107e-03 8.3207646683421312e-03 0.0000000000000000e+00  -1.0361403026897970e-02 1.1224807302457809e-02 0.0000000000000000e+00  -1.6051093430642364e-02 1.5628257703812071e-02 0.0000000000000000e+00  -2.3128806687480984e-02 2.0908283348087510e-02 0.0000000000000000e+00  -2.0339795680154097e-02 1.6987346872834562e-02 0.0000000000000000e+00  -3.1224622702449030e-02 2.5403294356672487e-02 0.0000000000000000e+00  -2.2089324226125251e-02 1.8223407067702979e-02 0.0000000000000000e+00  1.5975125766880920e-02 -2.2241077197112703e-02 0.0000000000000000e+00  -3.0158248272239847e-02 1.5743573097377905e-02 0.0000000000000000e+00  -1.2163098896254620e-04 -1.1390901685214380e-02 0.0000000000000000e+00  -3.3324534934672156e-01 1.5689573826189593e-01 0.0000000000000000e+00  -4.8015001049525385e-01 2.9338239866011340e-01 0.0000000000000000e+00  -1.4389883656456709e-01 -7.8414337158784070e-03 0.0000000000000000e+00  -2.4191298501149330e-01 5.9595123208913778e-03 0.0000000000000000e+00  -1.3496707725905824e-01 1.6479126624697563e-01 0.0000000000000000e+00  -2.4583207508442709e-01 1.9300559398410416e-01 0.0000000000000000e+00  -7.4455897656693415e-02 2.4592576468501517e-02 0.0000000000000000e+00  -8.7018541553947115e-02 7.3389878895445196e-03 0.0000000000000000e+00  -1.1276456274980365e-01 7.2647433573349532e-02 0.0000000000000000e+00  1.1202896761953015e-02 4.2501893132073962e-02 0.0000000000000000e+00  4.8396114665013878e-01 -3.1538538306055346e-02 0.0000000000000000e+00  7.0374721764994153e-02 -3.8968539613417363e-03 0.0000000000000000e+00  -5.8064135071956839e-02 1.8506252607021677e-02 0.0000000000000000e+00  -3.0220145565567669e-02 2.8876312648865705e-02 0.0000000000000000e+00  8.3321924255871038e-02 -2.2697201258658487e-02 0.0000000000000000e+00  -5.0687338445338244e-02 1.8490708483757737e-02 0.0000000000000000e+00  1.8945842721807643e-01 -1.5736295359403793e-01 0.0000000000000000e+00  -9.2849789131505503e-02 -2.2039934094796439e-02 0.0000000000000000e+00  -5.4067520168321248e-01 -2.9342463930935619e-02 0.0000000000000000e+00  4.6147937878648584e-02 1.5804792639257711e-03 0.0000000000000000e+00  2.1721335878485612e-02 1.7390484606312793e-02 0.0000000000000000e+00  -1.3874627891946739e-01 1.3423760586642932e-02 0.0000000000000000e+00  -4.8385659526758606e-02 3.0376890203509614e-04 0.0000000000000000e+00  -2.9496563111863899e-01 1.7301919828065429e-01 0.0000000000000000e+00  -3.9810446362516783e-01 1.1532915637965638e-01 0.0000000000000000e+00  8.3395075259995264e-03 1.2413210972119294e-01 0.0000000000000000e+00  -1.9065304016241333e-02 -2.0184077378919410e-03 0.0000000000000000e+00  -2.0760245302006188e-03 -6.6439091567147923e-04 0.0000000000000000e+00  1.1720229537015348e-03 1.3532311857206792e-03 0.0000000000000000e+00  2.7463796203909156e-04 -3.7854210246779520e-05 0.0000000000000000e+00  1.0359188933212535e-01 3.6720175779770416e-02 0.0000000000000000e+00  3.4922461279286686e-02 -8.3039215319309356e-03 0.0000000000000000e+00  5.7177334927294661e-02 -7.4732426105745389e-02 0.0000000000000000e+00  4.8073876369304158e-01 -8.5345857315914642e-01 0.0000000000000000e+00  -6.4225412997047215e-01 2.5290929260838823e-02 0.0000000000000000e+00  -8.4462085606590090e-02 5.8197816980509284e-02 0.0000000000000000e+00  1.0248106175789791e-02 2.8258778998119259e-02 0.0000000000000000e+00  7.0884979694751715e-02 3.0344223908627926e-02 0.0000000000000000e+00  2.0913065583241913e-01 3.7703569840542302e-02 0.0000000000000000e+00  -1.0256991075950263e-01 -5.8353183890099428e-02 0.0000000000000000e+00  -3.8016014223091255e-01 -2.9990003416704662e-02 0.0000000000000000e+00  -3.9885322393784073e-01 1.1416522744769370e-01 0.0000000000000000e+00  -2.8385522728360391e-01 5.0056713961171596e-02 0.0000000000000000e+00  -5.0625009385804920e-01 -6.2043249310541074e-02 0.0000000000000000e+00  -6.5862058620914032e-01 -8.5025763505719720e-02 0.0000000000000000e+00  -7.5420543564330633e-01 -2.6820250461083300e-01 0.0000000000000000e+00  -1.4415718132814379e+00 -9.4486828988981286e-01 0.0000000000000000e+00  -1.2083014688516418e+00 -6.1004230876728982e-01 0.0000000000000000e+00  -1.0262268274979909e+00 -1.7428386631198653e-01 0.0000000000000000e+00  -2.7229472859396336e-01 -3.4339780221711143e-02 0.0000000000000000e+00  -5.0300790644356486e-01 -2.8102990681231266e-01 0.0000000000000000e+00  -3.3819201718812952e-01 -1.9596760486962342e-01 0.0000000000000000e+00  -3.2849597720270896e-01 -3.6253927742599040e-01 0.0000000000000000e+00  -6.8782287211204163e-01 -2.8039387131307436e-01 0.0000000000000000e+00  -7.5951875884658071e-02 5.4668183414401883e-02 0.0000000000000000e+00  -4.2372512904716102e-02 -2.1729405860904306e-02 0.0000000000000000e+00  -1.5114748615530543e-01 -1.4369563757936218e-01 0.0000000000000000e+00  -4.0774330572409985e-02 -4.3316567226760160e-02 0.0000000000000000e+00  -4.4774397991478490e-02 -5.6004470611193416e-02 0.0000000000000000e+00  -2.5802780613075775e-02 -3.6407915393000048e-02 0.0000000000000000e+00  -1.6381872119158099e-02 -2.5623923195676263e-02 0.0000000000000000e+00  -8.4084779878065979e-03 -1.5903156065659795e-02 0.0000000000000000e+00  -4.7229682837794667e-04 3.5321350768285778e-03 0.0000000000000000e+00  -6.5560627120305392e-04 -6.1820095957691831e-04 0.0000000000000000e+00  3.4124962574871739e-05 1.8915192360885653e-03 0.0000000000000000e+00  1.2914323127202489e-03 5.5955132435409035e-03 0.0000000000000000e+00  1.4005313836363310e-03 -5.1733889591452599e-03 0.0000000000000000e+00  3.9168214457953720e-03 -7.1567392738845085e-03 0.0000000000000000e+00  1.3190985126144307e-02 -4.5907184823731552e-02 0.0000000000000000e+00  2.1724366876379127e-02 -6.0862458402984355e-02 0.0000000000000000e+00  3.2470908849186922e-02 -7.1111824653044345e-02 0.0000000000000000e+00  4.8931846577387653e-02 -9.0560090718310393e-02 0.0000000000000000e+00  5.8732233885375594e-02 -9.1479510192257418e-02 0.0000000000000000e+00  7.8469358459293689e-02 -1.0451062054677829e-01 0.0000000000000000e+00  8.6524705951800826e-02 -1.0455759533780168e-01 0.0000000000000000e+00  5.1784785497933597e-02 -5.4673299287367701e-02 0.0000000000000000e+00  7.2285142204506214e-02 -6.6093377084539426e-02 0.0000000000000000e+00  1.1018141220756875e-01 -9.2111786884534710e-02 0.0000000000000000e+00  9.4658899748012448e-02 -7.0965417874427117e-02 0.0000000000000000e+00  1.3203180722390048e-01 -8.7780361914458330e-02 0.0000000000000000e+00  5.8608031332424849e-02 -3.0926510076167105e-02 0.0000000000000000e+00  9.5532016959937582e-03 5.9326138224999811e-02 0.0000000000000000e+00  8.0435136468463697e-01 -3.6672011955896888e-01 0.0000000000000000e+00  1.2484380421608812e+00 -9.2596807209681908e-01 0.0000000000000000e+00  -3.5954993310484218e-01 3.5160003661991157e-01 0.0000000000000000e+00  -2.3368902821380161e-01 5.7392841516407701e-02 0.0000000000000000e+00  8.1545627179514898e-02 -2.7567268939490443e-02 0.0000000000000000e+00  3.5737444705834570e-01 1.3471914967953216e-02 0.0000000000000000e+00  6.9811977304827377e-01 -3.2638877709094745e-02 0.0000000000000000e+00  1.6018841944238176e+00 -8.6217590136299327e-01 0.0000000000000000e+00  3.6848167127603765e-01 -2.5656566437304579e-01 0.0000000000000000e+00  -7.1507886150559208e-01 8.4998479621998357e-02 0.0000000000000000e+00  -1.6683455907849240e-01 -3.0953368204022180e-02 0.0000000000000000e+00  -4.6045678075467542e-02 -1.5499348216496825e-02 0.0000000000000000e+00  5.8919339476927327e-03 2.7239150427869527e-03 0.0000000000000000e+00  -5.8399700628109737e-02 -6.0383625873591277e-03 0.0000000000000000e+00  1.6305325834603876e-01 -2.3101634273088218e-02 0.0000000000000000e+00  1.0272169607112794e-01 -1.4363021581114764e-02 0.0000000000000000e+00  8.1078348515289847e-04 -1.3548363764314699e-04 0.0000000000000000e+00  1.7193735860508128e-04 -5.4342168312690068e-05 0.0000000000000000e+00  -6.6064089617239583e-04 -1.9997796218823514e-05 0.0000000000000000e+00  -4.4062750823978697e-01 1.9881755432654025e-02 0.0000000000000000e+00  -5.1177198442297948e-02 -6.9162091005078377e-02 0.0000000000000000e+00  3.5750199609709064e-02 9.9272712126788051e-02 0.0000000000000000e+00  1.3338202753558007e-01 -6.0649207219433544e-02 0.0000000000000000e+00  5.4129786240074140e-02 -1.1053300607381181e-01 0.0000000000000000e+00  3.4130795533607639e-01 -4.3648411525276043e-01 0.0000000000000000e+00  -4.8341357612252701e-02 2.6090010830594305e-02 0.0000000000000000e+00  5.1387834658121428e-05 6.4583488905447893e-06 0.0000000000000000e+00  7.7748355610484353e-06 9.1954320753926926e-06 0.0000000000000000e+00  -1.3876695278826511e-06 4.3524607758700773e-06 0.0000000000000000e+00  5.7297760813372064e-05 -1.3466599586505509e-06 0.0000000000000000e+00  3.5943179385755522e-06 -4.9040234290269231e-06 0.0000000000000000e+00  -3.7010592698633404e-07 -4.3065422639634304e-06 0.0000000000000000e+00  -1.8169350456990219e-06 -5.0233742174472681e-06 0.0000000000000000e+00  -6.0097622283718977e-07 -3.2884771674479913e-06 0.0000000000000000e+00  -6.8636798912348696e-07 6.7640009635839472e-06 0.0000000000000000e+00  2.3836278625047910e-07 9.5816434091310141e-06 0.0000000000000000e+00  3.0289103690326596e-07 1.7355907989260194e-06 0.0000000000000000e+00  2.0427972493119453e-05 -7.6393699533824487e-05 0.0000000000000000e+00  -8.3529357062948062e-07 -1.2201907701308284e-05 0.0000000000000000e+00  -6.0129309748514320e-06 -1.1480017410392889e-06 0.0000000000000000e+00  -4.5532841137910191e-04 -1.1243233382832787e-04 0.0000000000000000e+00  -2.0316879264717343e-05 7.9458055887807549e-06 0.0000000000000000e+00  -6.0334403881662891e-05 7.8856172470372380e-05 0.0000000000000000e+00  1.1470356152832456e-07 2.1435301194316586e-06 0.0000000000000000e+00  5.8433354947130635e-05 -3.4642363042159375e-05 0.0000000000000000e+00  3.9391317130169689e-05 2.3629014599475437e-05 0.0000000000000000e+00  7.8610979355736381e-05 1.1948391785764450e-04 0.0000000000000000e+00  -4.0379883161353132e-07 1.9143195205042858e-05 0.0000000000000000e+00  1.6756249826631547e-06 -1.5991659960683389e-05 0.0000000000000000e+00  -5.7672918349938886e-06 -2.9852034800489406e-05 0.0000000000000000e+00  -1.6670304285662384e-03 7.2442154385964834e-04 0.0000000000000000e+00  8.8196845966411879e-06 3.6746632467496158e-05 0.0000000000000000e+00  5.7115490335898239e-05 -1.8655764678071932e-04 0.0000000000000000e+00  5.9643223269251460e-08 1.1079588121215987e-06 0.0000000000000000e+00  -8.0734952817027307e-08 1.8608288005042560e-06 0.0000000000000000e+00  5.3556947257157764e-06 1.9120293615894568e-05 0.0000000000000000e+00  -2.7734782524066665e-07 1.4266284981897654e-05 0.0000000000000000e+00  -8.2522944907000701e-07 1.7150916992297725e-06 0.0000000000000000e+00  -7.8764947802098897e-06 -9.3947322626569896e-06 0.0000000000000000e+00  -1.2388063209399389e-05 -2.8788185568174524e-05 0.0000000000000000e+00  1.6031268538809200e-07 7.3952680792686425e-06 0.0000000000000000e+00  1.2394287247027722e-07 2.4105053445549717e-06 0.0000000000000000e+00  -6.0603466858269575e-07 -6.5631440625034136e-06 0.0000000000000000e+00  -8.7323592426913777e-07 -9.1901901428070324e-06 0.0000000000000000e+00  -3.7390497427789327e-08 -3.7013019355377977e-07 0.0000000000000000e+00  -2.3096268797432067e-07 6.6617912261734296e-06 0.0000000000000000e+00  4.3177504194746843e-07 5.1742208552199053e-06 0.0000000000000000e+00  7.7109329037971399e-07 2.9968796478923124e-06 0.0000000000000000e+00  -1.0320365569393617e-05 -6.2618176042704041e-06 0.0000000000000000e+00  -1.0310685091017112e-05 -1.9889159782294070e-05 0.0000000000000000e+00  -1.3648206132628438e-06 -1.3602812868858949e-05 0.0000000000000000e+00  1.5782408420202321e-04 -2.2684828268224136e-05 0.0000000000000000e+00  1.3899753298970383e-04 -8.5149641978984127e-05 0.0000000000000000e+00  8.4754632279840323e-05 -2.1203217233676421e-05 0.0000000000000000e+00  7.4604446688711552e-06 -1.1216143738886994e-04 0.0000000000000000e+00  5.1177227198032802e-05 -6.3614488603627587e-05 0.0000000000000000e+00  -8.4539646236505475e-07 1.1477710186599253e-05 0.0000000000000000e+00  3.0864708314831939e-07 -1.6793695713430316e-05 0.0000000000000000e+00  -4.2640318087142141e-05 -3.5353311165565874e-05 0.0000000000000000e+00  -1.0029101546841563e-04 -1.2648860530248480e-04 0.0000000000000000e+00  -4.5082850092988596e-05 -1.0354659450121317e-05 0.0000000000000000e+00  -1.8818115314308458e-06 -1.2308001644499317e-05 0.0000000000000000e+00  -4.2831339716621326e-08 -5.5814600916777958e-07 0.0000000000000000e+00  -9.7393696952596073e-07 4.7550977592652971e-06 0.0000000000000000e+00  1.4990241573899086e-06 2.3580052838245458e-07 0.0000000000000000e+00  -2.3412709964853975e-06 -4.5918290435460299e-06 0.0000000000000000e+00  4.8758223203696380e-06 1.2433069952324509e-06 0.0000000000000000e+00  -1.8736489511982556e-05 2.0256445922832040e-05 0.0000000000000000e+00  -2.0766158727104647e-06 1.2000533482762169e-05 0.0000000000000000e+00  -2.5367707443795781e-07 -1.1866174529811127e-05 0.0000000000000000e+00  -1.9087981720593363e-05 -1.9349376662619932e-05 0.0000000000000000e+00  2.7007596321168599e-05 3.5122103678006386e-05 0.0000000000000000e+00  5.2551973503170375e-05 3.3309402623002127e-05 0.0000000000000000e+00  3.1550718882941119e-05 -2.4662297528858906e-05 0.0000000000000000e+00  1.3927652716538080e-05 -2.8058002958738355e-05 0.0000000000000000e+00  2.7016979545424957e-05 5.3149860559326763e-07 0.0000000000000000e+00  1.2394557980425458e-05 1.9747524186480760e-07 0.0000000000000000e+00  1.9808959762412879e-05 1.6600552178880633e-06 0.0000000000000000e+00  2.7993618150198191e-05 1.6403480696620867e-06 0.0000000000000000e+00  -5.4909733280876190e-07 -1.4707270322136318e-06 0.0000000000000000e+00  1.8270766065139193e-06 4.2117055226995303e-05 0.0000000000000000e+00  -9.9559002752879735e-07 5.6098028102701848e-06 0.0000000000000000e+00  -2.4876637241784809e-05 3.4867457966999559e-05 0.0000000000000000e+00  7.0003506977624907e-06 -1.7161427726420289e-05 0.0000000000000000e+00  2.6636750475164523e-06 -2.2836930182566913e-05 0.0000000000000000e+00  -6.3097432667707051e-07 1.9443588857141769e-06 0.0000000000000000e+00  5.9510341584329083e-04 -4.9864267145111963e-04 0.0000000000000000e+00  -1.6274215990530003e-02 1.2617168784224584e-02 0.0000000000000000e+00  -6.0427023364271966e-06 -5.6845056106583666e-04 0.0000000000000000e+00  2.3503079996482835e-06 1.0720008545626455e-05 0.0000000000000000e+00  2.1832305653613488e-06 -1.2621159938353380e-05 0.0000000000000000e+00  -1.3079436907848816e-06 1.1620905866899318e-05 0.0000000000000000e+00  7.0778395512973723e-07 -7.8505990665619764e-06 0.0000000000000000e+00  5.1151614255077072e-06 -1.6005254973827618e-05 0.0000000000000000e+00  2.8576873598641864e-07 -4.5917215158013430e-06 0.0000000000000000e+00  -7.4846239520845941e-05 5.7658748549144276e-05 0.0000000000000000e+00  -1.2264226809306650e-05 1.0110222122524150e-05 0.0000000000000000e+00  2.2456253308820334e-05 1.5997677917546768e-06 0.0000000000000000e+00  1.0134923431155484e-05 1.0809325306024100e-06 0.0000000000000000e+00  8.8413589683925383e-05 6.3938645448505593e-05 0.0000000000000000e+00  1.2773320845475697e-04 4.3386103448697248e-05 0.0000000000000000e+00  6.4758725211625567e-05 2.5008283134150675e-05 0.0000000000000000e+00  -1.6285950195327637e-05 -1.1849044543909648e-04 0.0000000000000000e+00  1.9662144416950924e-04 -9.4805921031882758e-05 0.0000000000000000e+00  5.5962378753707038e-05 2.1986764749158757e-05 0.0000000000000000e+00  4.7462870194929793e-05 1.0772178258412813e-05 0.0000000000000000e+00  3.1415455896032226e-05 -7.3418917194039137e-06 0.0000000000000000e+00  3.6690938518522639e-05 -1.5400148515567318e-05 0.0000000000000000e+00  1.5907624715199610e-05 -1.5972547110285791e-03 0.0000000000000000e+00  -5.6048180479446901e-05 1.6936866132512949e-05 0.0000000000000000e+00  8.8464875826083246e-06 -1.4341789501901765e-06 0.0000000000000000e+00  -1.8966434866318066e-05 4.0641883096304422e-07 0.0000000000000000e+00  -1.9968038802815015e-05 1.1789987243242050e-05 0.0000000000000000e+00  1.6575027946105075e-05 -2.0226071650980524e-05 0.0000000000000000e+00  -1.7998941958040810e-05 -1.2719855823661902e-05 0.0000000000000000e+00  -7.5580674300647848e-06 -3.9183286473773096e-07 0.0000000000000000e+00  8.3291607081815522e-06 1.0847237972439294e-05 0.0000000000000000e+00  4.6483699521165150e-06 1.7231970302343733e-05 0.0000000000000000e+00  4.99529371312