<?xml version="1.0"?>
<VTKFile type="UnstructuredGrid"  version="0.1"  >
<UnstructuredGrid>
<Piece  NumberOfPoints="2549" NumberOfCells="4928">
<Points>
<DataArray  type="Float64"  NumberOfComponents="3"  format="ascii">1.460941467495963 0.03831316970967211 0  1.457169618488705 0.06091568836892545 0  1.431562239840151 0.07031010260254886 0  1.423964372232626 0.08523904755582841 0  1.408345648983794 0.09652667195112241 0  1.405620854869513 0.1132215366765333 0  1.39035931992003 0.1293284663386549 0  1.358720287209377 0.1297923703262035 0  1.354197555817504 0.15944908143079 0  1.373632470352012 0.1192501427789774 0  1.349417141667123 0.1800980548280519 0  1.337697858260847 0.2007405010456254 0  1.329821278942256 0.2280739066845452 0  1.32283022794365 0.2587335410501311 0  1.31512320267425 0.2880938403651318 0  1.300858026027212 0.3248688858288601 0  1.273438073130684 0.3380888220981433 0  1.273624789957775 0.350417661237264 0  1.260712699901895 0.4111260267912772 0  1.247339020650666 0.4475532704323899 0  1.233695142304986 0.4942212940458464 0  1.216077385420861 0.5392136438609973 0  1.197183729812823 0.587387319132826 0  1.174152991590894 0.6393037369474379 0  1.148064996664122 0.6915104856449372 0  1.118937008207303 0.7330745257775144 0  1.088735430320324 0.7871387725202238 0  1.056133690496139 0.8425403889858707 0  1.018343308112652 0.8981634896074984 0  0.9770589462856364 0.9546589368805851 0  0.93145791520427 1.010932136695252 0  0.881210861735664 1.067848263636997 0  0.8258031709252854 1.121715265179125 0  0.7676305019128644 1.172737474625938 0  0.7032807535549703 1.225728387227406 0  0.6346726767051342 1.274257333170972 0  0.5610360369943463 1.319569450384981 0  0.4830711510792439 1.36058811865241 0  0.4009458569884553 1.396440773208516 0  0.315182486131732 1.427580789370444 0  0.2258087058113093 1.451094142932826 0  0.1351959991651031 1.467610455428663 0  0.04218822695081362 1.478829699330178 0  -0.05141849336435635 1.481434727825265 0  -0.1449351684845039 1.476752880641786 0  -0.2373990490887039 1.464108359598347 0  -0.3278834386230677 1.444421838861116 0  -0.4156876856386729 1.415996413740241 0  -0.4991246667689155 1.384104681628729 0  -0.5802222135520673 1.345354944536993 0  -0.6559449404972647 1.299322418742389 0  -0.7268965545638444 1.249850125118723 0  -0.7925298849048381 1.196341597938235 0  -0.8533763057918942 1.139669005176842 0  -0.9077119833265183 1.081681670886509 0  -0.9591975416321549 1.018881835229319 0  -1.001777070117744 0.9662565731468069 0  -1.045806482024655 0.909979490054205 0  -1.083531763424076 0.8480277935290329 0  -1.115739173268953 0.7891479892867127 0  -1.145107296711886 0.7327624598242954 0  -1.169220028526347 0.6741056716453019 0  -1.19300785838819 0.6269428086594455 0  -1.215566071339098 0.5573792186307597 0  -1.214863265767684 0.5218615882853375 0  -1.248128168858413 0.499930881287125 0  -1.263628475601843 0.4540048507238609 0  -1.275126761607261 0.4160571165069842 0  -1.286935990968747 0.3801830425969066 0  -1.309077505003529 0.3543867878592638 0  -1.310470145990059 0.3065735379116507 0  -1.312437271024043 0.3393393495580813 0  -1.365139453232264 0.2937974707719344 0  -1.347818005108411 0.2030073313076923 0  -1.350242477571468 0.1785861348201931 0  -1.350463655663538 0.147036389369046 0  -1.361254098841815 0.1288797206065342 0  -1.352326766488096 0.1017003163821286 0  -1.375563791018819 0.1109509071588921 0  -1.328311978346914 0.05142353515034968 0  -1.389708246777249 0.1136045768569201 0  -1.466315861116258 0.1244363613383942 0  -1.436903519538206 0.07749337530797409 0  -1.462324591424552 0.05665366340189647 0  -1.449084062934462 0.03877629668443575 0  -1.457813159579782 0.0247251018224206 0  -1.439973257918732 -0.003322010450013176 0  -1.451922110333817 -0.09992049691870832 0  -1.376659352806487 -0.02435768048202697 0  -1.298385959738595 0.01694004179520254 0  -1.389865682239076 -0.02680226192754812 0  -1.363993544782764 -0.01295759871893071 0  -1.394335686715148 -0.03665118002793698 0  -1.378670417501136 -0.06030869125241987 0  -1.369734620438847 -0.09768670251982439 0  -1.374372428909132 -0.1213675233667397 0  -1.391354937400819 -0.2288295196843153 0  -1.30931768571194 -0.2903323824189949 0  -1.337600182542045 -0.2329320887758003 0  -1.349933105429636 -0.2885661331301768 0  -1.320986257633831 -0.3144971279410848 0  -1.311354425262263 -0.3518936825717733 0  -1.303461691642266 -0.392230036598387 0  -1.291512124732619 -0.4431535526055732 0  -1.249805317971498 -0.4585992552692804 0  -1.260802799111995 -0.495869308382894 0  -1.241072367989155 -0.5768202680141113 0  -1.217644174969161 -0.6251396895907346 0  -1.19732539339474 -0.6900614479429779 0  -1.170070239780117 -0.751311055316925 0  -1.139251816031412 -0.8149662962486114 0  -1.105045164578503 -0.882883567460043 0  -1.05948312030798 -0.9377472509121622 0  -1.024192569080246 -1.003466804844824 0  -0.97053670510342 -1.080464460067727 0  -0.9168972200984068 -1.144815048551603 0  -0.8552755716982019 -1.212254734029764 0  -0.7890025613457655 -1.275259177947194 0  -0.7162839862872012 -1.334578890665322 0  -0.6372605687833248 -1.390867228963772 0  -0.5529023734880579 -1.439337776656653 0  -0.4657314647437706 -1.479246629434076 0  -0.3721861482658949 -1.517038894084178 0  -0.2758496019737136 -1.545199206797231 0  -0.1760845684358767 -1.565037998328772 0  -0.07472133560018061 -1.575700094239682 0  0.02748828545371325 -1.577264256407436 0  0.1293730536526832 -1.569392577265646 0  0.2298467158332561 -1.552529497837957 0  0.3276686289982697 -1.526870965853336 0  0.4222324825605521 -1.493431372351827 0  0.512558384652408 -1.452491664702386 0  0.5979965678933299 -1.405207074688601 0  0.6781020393555041 -1.352037554880926 0  0.7522168446792695 -1.295269688793002 0  0.8209095172526009 -1.231418091612006 0  0.881316174212342 -1.174113361687863 0  0.940484698983845 -1.111899556412377 0  0.9924436411146487 -1.044362452733548 0  1.038704382445203 -0.9787334145736987 0  1.080115731524544 -0.9133419717904886 0  1.117144727671723 -0.8492099039156875 0  1.149248642315341 -0.7862926921018768 0  1.177866498196153 -0.7247937684468694 0  1.204310666004072 -0.6759913920013949 0  1.229437071131924 -0.6178561803396491 0  1.249647943995228 -0.5601220121633933 0  1.266556095284102 -0.5068811003542276 0  1.282208433365169 -0.4574209906903707 0  1.294031918511127 -0.4064375626538653 0  1.307246413620426 -0.3672815280728099 0  1.312054043778957 -0.3008710942184838 0  1.315999596847581 -0.2901631288374693 0  1.339845044378477 -0.2700535309645511 0  1.347005469785408 -0.231008609359106 0  1.35509723227112 -0.1992488334146128 0  1.362482783857274 -0.1684951576004302 0  1.366312070727785 -0.1350178604435862 0  1.374139279015516 -0.1155609433681725 0  1.33253287529736 -0.06809326313032812 0  1.368970065273248 -0.07963399127110998 0  1.390802004423433 -0.07982202674169118 0  1.396061125608852 -0.05351308778134126 0  1.410165630202011 -0.03888630541138498 0  1.416166764488001 -0.02087646764536358 0  1.426120924056346 -0.008214198181185099 0  1.435701421026756 0.006128244032314331 0  1.453669216899178 0.01863368480046313 0  -0.09292004842797308 0.9020066431642946 0  0.6840221912856375 -0.5149741955782465 0  -0.7984305038897324 -0.3826306950747094 0  -0.08152704028599618 -0.9624926729259828 0  0.6461614790866125 0.5002338975580012 0  1.073769246455312 0.1129674027104585 0  -0.7832678578388749 0.4123979593047112 0  -1.138115126175899 0.0355614439574626 0  1.08637539865907 -0.06457179963633862 0  -1.024508109531159 -0.1677928260423459 0  -0.7202562589822398 0.01929594852438907 0  -0.4309020321934403 -0.1402402336558077 0  -1.012155836388777 0.2158561160865381 0  0.3777883274530934 -0.8487848664825145 0  0.08178416891727879 -0.322534268163059 0  0.308076545242245 0.7810829446713343 0  0.221572392576295 0.1884351913810026 0  0.5547667062293046 0.0127585437552855 0  -0.4843542789621552 -0.7054686188791904 0  -0.4977672911050967 0.7052582353961647 0  -0.2356922574759476 0.3177862168951847 0  0.9070332591972607 -0.2148594147169981 0  0.8844154731116119 0.2445397115229596 0  0.3487520585194236 -0.229230820737427 0  -0.008248087206671001 0.2452956138437143 0  -0.4822098873288705 0.217437139026816 0  -0.1864795744010891 -0.2876385097705734 0  0.8498714392639672 0.01935816475433372 0  1.233845107155031 0.03037334977412507 0  0.7958712781630246 -0.3451788598667408 0  0.7089561536900336 -0.1122346934531812 0  0.5778898157776714 -0.2170799488146794 0  0.4365740316384927 -0.08563520258094097 0  0.5069585811914561 -0.3844457440351778 0  0.8522706676998185 -0.08585519356291951 0  0.704145548853543 0.01597703785941681 0  -0.8450014961268832 0.1286437850864659 0  -1.055817079615831 0.1071992515557087 0  -0.9337166174414425 0.02908624901866813 0  -0.852935788123425 -0.08348381092453154 0  -1.060617187140258 -0.04507821236434334 0  -1.224714223159815 -0.07415538795757901 0  -1.289652405922134 0.01083462484986378 0  -1.283715904808159 0.06878526420357989 0  -1.209956847590958 0.1478725292399325 0  -0.1345002193858787 -0.6281262831403086 0  -0.302355652933506 -0.5148572674114361 0  -0.297249270618447 -0.8572503733454654 0  -0.3039678152836419 -0.2063501884467542 0  -0.4485209710883712 -0.4079631107672435 0  -1.216383248951158 -0.1895700303257727 0  -1.194974605167056 0.2519789358665769 0  0.3760633860163191 -0.5205467294535711 0  0.2137164743540492 -0.2626285495078818 0  0.2357507024847883 -0.5811526679208291 0  -0.8978867814370144 0.2981690553507632 0  -0.7148474973607812 0.1971964322762067 0  1.256608313947165 -0.07843727357092727 0  1.195273258798348 -0.1744516406254158 0  1.170234324900477 0.2235935048696676 0  1.240961272695177 0.1369562427045229 0  -0.9129680427165462 -0.6484083286346763 0  -1.038005025752216 -0.4377069743745311 0  -1.009274997830913 0.4811520342209378 0  -0.8790633826445687 0.6708411311934519 0  0.9386462790248272 -0.60722426410513 0  0.776715445523911 -0.8307230974031249 0  0.7347850671640734 0.7952087133592309 0  0.8969338883305351 0.6055828867151353 0  0.04031
[...]
<PointData  Vectors="f_12126"> 
<DataArray  type="Float64"  Name="f_12126"  NumberOfComponents="3" format="ascii">-3.4509819037226674e-01 1.2919511510698121e-02 0.0000000000000000e+00  -1.8113836387572710e-01 -9.4041547567748379e-02 0.0000000000000000e+00  4.4270161303925815e-01 4.8613869590035796e-01 0.0000000000000000e+00  -2.8050836312445319e-02 2.1575078946563391e-02 0.0000000000000000e+00  -1.5379556943246242e+00 -8.9038317382964494e-01 0.0000000000000000e+00  -6.6388399786705563e-02 -1.7837806247918978e-01 0.0000000000000000e+00  2.8350258928354172e-01 3.8267443869555384e-01 0.0000000000000000e+00  1.5010443668781012e-01 2.8202312249886557e-01 0.0000000000000000e+00  -5.4096950946959066e-01 -3.0480607204799776e-01 0.0000000000000000e+00  -1.8180152247239034e+00 -8.1924765363986474e-01 0.0000000000000000e+00  -2.5209656598204022e-01 -1.1303720437929020e-01 0.0000000000000000e+00  -5.0419260792694376e-01 -2.0779125917082616e-01 0.0000000000000000e+00  -1.6735937081452715e-02 -5.7449405426936093e-03 0.0000000000000000e+00  -2.1693960743338760e-02 -7.5770133174746608e-03 0.0000000000000000e+00  -3.1330170075025232e-01 -1.0758099157386904e-01 0.0000000000000000e+00  -2.9747675300633608e-01 -2.0736384879260075e-01 0.0000000000000000e+00  -4.5299896228854903e+00 -2.6338449076540589e+00 0.0000000000000000e+00  -1.0450035105749163e+00 -1.5534631228789181e-01 0.0000000000000000e+00  -1.0968141134849352e-01 -2.3544960574082317e-02 0.0000000000000000e+00  -1.9936317027913125e-02 -6.6194261153507466e-03 0.0000000000000000e+00  -2.6706715225810765e-02 -9.1303815662503868e-03 0.0000000000000000e+00  -1.0451011246783966e-02 -4.0998905762737918e-03 0.0000000000000000e+00  -6.8210744577263949e-03 -2.8261363802525663e-03 0.0000000000000000e+00  1.3801055728249675e-04 -6.9350785124876020e-05 0.0000000000000000e+00  6.4244285973297415e-03 3.9527116798970374e-03 0.0000000000000000e+00  -4.1894558295184183e-03 -2.6935029018853142e-03 0.0000000000000000e+00  3.3380281534308772e-03 1.9819965162918641e-03 0.0000000000000000e+00  1.1745201854873445e-02 7.4648514199214151e-03 0.0000000000000000e+00  9.2182684911139741e-03 6.4978723283842009e-03 0.0000000000000000e+00  1.2044089447939154e-02 9.2834203938921365e-03 0.0000000000000000e+00  1.2899485101061120e-02 1.0954375872734137e-02 0.0000000000000000e+00  1.4659878160458370e-02 1.3935804169929769e-02 0.0000000000000000e+00  8.1488440568019006e-03 8.8287761360398807e-03 0.0000000000000000e+00  7.3645661521999873e-03 8.6779008588135174e-03 0.0000000000000000e+00  9.9334758045862594e-03 1.3028749198439623e-02 0.0000000000000000e+00  7.5725512530401707e-03 1.1463758157621091e-02 0.0000000000000000e+00  5.8230130332113054e-03 1.0200162317601250e-02 0.0000000000000000e+00  4.3116911306250727e-03 8.9766805391434459e-03 0.0000000000000000e+00  2.9548866221987542e-03 7.3325036750755967e-03 0.0000000000000000e+00  1.3782175199946519e-03 4.3827419153459092e-03 0.0000000000000000e+00  1.3085350731520395e-03 5.9986360866078310e-03 0.0000000000000000e+00  3.8667850321747214e-04 2.2150399252173427e-03 0.0000000000000000e+00  -1.8786493398734561e-05 1.4719402217166470e-06 0.0000000000000000e+00  1.3833608114561584e-06 2.3747005359813548e-03 0.0000000000000000e+00  -2.0945290937416172e-04 1.8562422779306003e-03 0.0000000000000000e+00  2.0488842704068596e-04 -7.1199335258693909e-04 0.0000000000000000e+00  -2.7654868187916275e-03 9.6420006447883264e-03 0.0000000000000000e+00  -3.0331905505574727e-03 9.0124018162085779e-03 0.0000000000000000e+00  4.6325279800834840e-03 -1.0756483600718496e-02 0.0000000000000000e+00  -1.8547595474828329e-02 3.3631934247174200e-02 0.0000000000000000e+00  -2.0892655475275627e-02 3.2486529533138415e-02 0.0000000000000000e+00  -1.7570794720541728e-02 2.3080068464573247e-02 0.0000000000000000e+00  -3.1330337759791070e-02 3.6025879867305002e-02 0.0000000000000000e+00  -2.6534340406645415e-02 2.6550204831279400e-02 0.0000000000000000e+00  -5.4392567560595198e-02 4.7960158486684792e-02 0.0000000000000000e+00  -5.6181298582911867e-03 4.7140556267410393e-03 0.0000000000000000e+00  1.3924685443020373e-03 -6.3162119987170628e-04 0.0000000000000000e+00  -5.5812940916766642e-03 2.9499844453600506e-03 0.0000000000000000e+00  -7.4189897002067781e-02 4.3496082643779320e-02 0.0000000000000000e+00  -1.5677318051653556e-02 8.2468290688660871e-03 0.0000000000000000e+00  -1.2406201001366297e-01 5.8141530586819104e-02 0.0000000000000000e+00  2.6466622221046641e-02 -1.1819750008472558e-02 0.0000000000000000e+00  5.1218418288106804e-02 -3.4874631957892650e-02 0.0000000000000000e+00  -1.6252364163610935e+00 3.0831645850977513e-01 0.0000000000000000e+00  -9.6710294464858804e-01 4.5489221576105443e-01 0.0000000000000000e+00  4.9924757344476350e-02 -4.5498634024291877e-02 0.0000000000000000e+00  -3.5998422115521699e-02 7.4092505349791938e-03 0.0000000000000000e+00  1.1857690943692628e-02 -2.4337135107244273e-03 0.0000000000000000e+00  -1.0510221240565841e-01 5.5435340774504738e-02 0.0000000000000000e+00  8.8037131084438211e-02 -3.5133537823627915e-02 0.0000000000000000e+00  7.1438767258080446e-02 -4.9159128871910637e-02 0.0000000000000000e+00  2.5793409205440411e-02 4.2936653532329026e-02 0.0000000000000000e+00  -2.1544792206040869e-02 1.1292542171823156e-02 0.0000000000000000e+00  1.0443265843759091e-01 2.6956727443680321e-04 0.0000000000000000e+00  1.8439148768018815e-01 6.3054722944010759e-03 0.0000000000000000e+00  3.0189567864739378e-02 1.5551080390890984e-01 0.0000000000000000e+00  4.9022829125582555e-02 -3.5061948690631390e-03 0.0000000000000000e+00  2.3796670605985762e-01 2.5488715392649691e-01 0.0000000000000000e+00  7.6486224809816733e-02 7.9653024933434333e-02 0.0000000000000000e+00  4.1346939284999336e-02 -2.5318348120484925e-02 0.0000000000000000e+00  3.7226007961543808e-02 5.4351127413024844e-03 0.0000000000000000e+00  1.2329961788390227e-01 -7.8938954136760553e-02 0.0000000000000000e+00  1.1794586218751051e+00 -2.6155178989198041e-01 0.0000000000000000e+00  -2.4774301449521272e+00 3.1903389325142734e-01 0.0000000000000000e+00  9.0339768785290318e+00 2.6525076933015623e-01 0.0000000000000000e+00  -2.0694704761112095e-01 3.3053138690313554e-03 0.0000000000000000e+00  -2.7357419007423878e-01 -7.5552201762993168e-02 0.0000000000000000e+00  -3.5261815719251258e-02 -4.3599882980953575e-02 0.0000000000000000e+00  1.7024247824091124e-02 -3.5166769546518921e-02 0.0000000000000000e+00  2.8208573381826755e-02 4.1880442038483824e-02 0.0000000000000000e+00  -5.1666371521617638e-01 1.0475368055578334e+00 0.0000000000000000e+00  -1.3403631347489100e+00 8.6946925982249001e-01 0.0000000000000000e+00  -9.0843032245169848e+00 2.5012986707871021e+00 0.0000000000000000e+00  -1.5242995175183072e+00 -5.5795380443203357e-01 0.0000000000000000e+00  1.1088602849697180e+00 1.0868062926897286e-02 0.0000000000000000e+00  5.3869993034214629e-02 -1.7589485457733069e-02 0.0000000000000000e+00  -2.6089087671124650e-01 -9.1773624196644352e-02 0.0000000000000000e+00  9.3320729231814836e-02 6.6529479005479883e-02 0.0000000000000000e+00  2.3176813831061307e+00 3.3736823873801114e-01 0.0000000000000000e+00  -1.1804367726378511e+00 -4.2063303410448355e-01 0.0000000000000000e+00  -2.6236368985331482e+00 -1.4320678829551372e+00 0.0000000000000000e+00  1.7323132235684185e-01 1.2016827734167242e-02 0.0000000000000000e+00  -1.4439945650312430e-01 -1.1831458242171310e-03 0.0000000000000000e+00  7.1512234391073881e-01 6.6354305460159235e-01 0.0000000000000000e+00  -6.6153887823314026e+00 -2.6547549147846747e+00 0.0000000000000000e+00  -8.8667005973260729e+00 -2.8080802643251945e-01 0.0000000000000000e+00  7.1565191832563912e-01 3.5406608994021493e-01 0.0000000000000000e+00  -7.9985310236522084e-02 -3.1959503946703757e-02 0.0000000000000000e+00  -7.9444500228815040e-01 -3.0588088998023372e-01 0.0000000000000000e+00  4.5375280616748878e-02 2.4059085282413090e-02 0.0000000000000000e+00  5.4804699763329678e-04 3.6024241281292944e-03 0.0000000000000000e+00  9.5750922429734031e-01 6.1926305069024412e-01 0.0000000000000000e+00  -5.0144385391394009e-01 -3.3387999770737503e-01 0.0000000000000000e+00  -1.0603584046140599e+00 -6.6738090154783591e-01 0.0000000000000000e+00  4.3901154110486514e-02 3.8380097720105047e-02 0.0000000000000000e+00  -1.0939397504143018e-01 -9.6791962016712266e-02 0.0000000000000000e+00  -1.3526528069281246e-01 -1.3270756777097409e-01 0.0000000000000000e+00  -8.8396999842132062e-02 -1.0006965753056658e-01 0.0000000000000000e+00  -9.0724957577936582e-02 -1.2011892557026976e-01 0.0000000000000000e+00  -1.0435163744085876e-01 -1.6146152486073800e-01 0.0000000000000000e+00  8.7878024563307847e-03 1.8335120929536722e-02 0.0000000000000000e+00  -1.3813837014722158e-02 -3.3906722133371245e-02 0.0000000000000000e+00  -2.9897055468966701e-02 -8.4945022996741407e-02 0.0000000000000000e+00  -3.4537487581226076e-03 -1.4295020139461101e-02 0.0000000000000000e+00  -4.0575371613825973e-03 -2.5972653152017116e-02 0.0000000000000000e+00  -6.3528617364597779e-04 -1.0306374720698419e-02 0.0000000000000000e+00  2.3694417077846995e-04 -8.8856608522732642e-03 0.0000000000000000e+00  8.8627773802186604e-04 -7.1327796790894302e-03 0.0000000000000000e+00  1.8694725700123761e-03 -8.6541697270362053e-03 0.0000000000000000e+00  4.0730152497041750e-03 -1.3047891295580467e-02 0.0000000000000000e+00  9.8135545415419991e-03 -2.4211428028807803e-02 0.0000000000000000e+00  1.5622176659449160e-02 -3.0979170910958774e-02 0.0000000000000000e+00  2.9218498377612905e-02 -4.7942718039507122e-02 0.0000000000000000e+00  2.9014011374659438e-02 -4.0716138479781436e-02 0.0000000000000000e+00  6.6372442547646862e-02 -7.8694190309322953e-02 0.0000000000000000e+00  2.0189064331072280e-02 -2.1919967202985381e-02 0.0000000000000000e+00  6.0587324648842950e-03 -6.0218029465270873e-03 0.0000000000000000e+00  1.1708645161793928e-01 -9.9222263451041695e-02 0.0000000000000000e+00  9.4661895656049405e-02 -7.0839754966429330e-02 0.0000000000000000e+00  7.3205047363503070e-02 -4.8839178750369930e-02 0.0000000000000000e+00  8.2166891362172506e-02 -4.9939246631768887e-02 0.0000000000000000e+00  5.7094298459912825e-02 -3.0879949391985011e-02 0.0000000000000000e+00  1.3839160475277143e-01 -6.8294399886142623e-02 0.0000000000000000e+00  7.4278391900864854e-02 -3.7348500512583323e-02 0.0000000000000000e+00  -1.9067540816609524e-01 9.1739768173643696e-02 0.0000000000000000e+00  1.3800055121378493e-01 -5.3381818489097912e-02 0.0000000000000000e+00  8.7923287926909094e-02 -2.9792561668034484e-02 0.0000000000000000e+00  7.0011690448263178e-02 -2.2126609728238732e-02 0.0000000000000000e+00  2.9408361673456446e-01 -8.1706584081978104e-02 0.0000000000000000e+00  3.8248769467165322e-01 -1.0773164983128040e-01 0.0000000000000000e+00  -2.1339706415901183e-01 4.7497729035475202e-02 0.0000000000000000e+00  -3.1712047103493282e+00 6.9477210753661101e-01 0.0000000000000000e+00  7.0260166646089077e+00 -4.7431633107871072e+00 0.0000000000000000e+00  2.1825115543770068e+00 -1.2060395652808886e+00 0.0000000000000000e+00  -2.4417675997226079e-01 2.5389647966861318e-02 0.0000000000000000e+00  2.4762759569633505e-01 -5.8620421764502995e-02 0.0000000000000000e+00  7.5208494133607662e-01 -1.4258709534908984e-01 0.0000000000000000e+00  1.9468668933733133e+00 -4.1795097861308567e-01 0.0000000000000000e+00  2.2020937556326112e+00 5.7049309815377280e-01 0.0000000000000000e+00  2.7830015418410337e-01 2.9004558651852991e-01 0.0000000000000000e+00  1.5537063553097330e-01 -4.9476697192375102e-01 0.0000000000000000e+00  1.7256083642771016e+00 1.2387994109337142e+00 0.0000000000000000e+00  4.3149243561745843e-01 6.5621513148663480e-01 0.0000000000000000e+00  -1.1410001075485152e-01 1.0708566113505291e-02 0.0000000000000000e+00  -9.3948021755137515e-02 2.1037261868274801e-02 0.0000000000000000e+00  3.9480150275277001e-02 -1.8095196865388762e-02 0.0000000000000000e+00  -5.6809637931309706e-02 4.2575353010421639e-02 0.0000000000000000e+00  -4.7960644215500570e-01 3.1790799051169999e-01 0.0000000000000000e+00  -3.7659604124681690e-10 3.6868755532859884e-09 0.0000000000000000e+00  4.7309368155142523e-08 -2.9230044169027878e-08 0.0000000000000000e+00  -2.7259053072923073e-07 -6.5814549406392196e-08 0.0000000000000000e+00  -3.3056030661780828e-09 -1.7176298857186265e-08 0.0000000000000000e+00  6.1331667602586092e-09 4.4749615799048925e-09 0.0000000000000000e+00  -6.7249618911878733e-08 -2.8426594080559878e-08 0.0000000000000000e+00  -5.1149264070585606e-08 1.9214579393007626e-08 0.0000000000000000e+00  -6.4010155538916741e-08 3.7966036779859744e-07 0.0000000000000000e+00  3.1301874608586583e-07 -5.3743665061690783e-08 0.0000000000000000e+00  -4.5434407370550765e-07 -2.2326501204219807e-07 0.0000000000000000e+00  -1.7149113528005322e-12 -8.8929969548126474e-14 0.0000000000000000e+00  -1.7410086306971323e-13 -1.0897496030664313e-13 0.0000000000000000e+00  -1.4205020518947785e-08 6.1048379912375306e-09 0.0000000000000000e+00  1.8214361158800635e-08 -2.8846269713216941e-08 0.0000000000000000e+00  4.6670563126755168e-15 -1.8568225635605471e-14 0.0000000000000000e+00  4.4621837986457899e-09 7.6598948902481974e-09 0.0000000000000000e+00  9.5896829983073636e-15 1.0144167911268820e-14 0.0000000000000000e+00  2.0094509310883587e-14 -6.6644083440478812e-15 0.0000000000000000e+00  -7.4580377894997566e-08 -7.0765483742222312e-08 0.0000000000000000e+00  -1.7860609364183190e-08 2.0315234129562397e-08 0.0000000000000000e+00  -8.1971924412475454e-15 1.5013963899137150e-14 0.0000000000000000e+00  7.5979322790738673e-08 -2.7319957343264759e-08 0.0000000000000000e+00  -2.8764076286240497e-08 -9.2779162076700225e-09 0.0000000000000000e+00  5.7307178706905314e-14 -5.2187255670639949e-14 0.0000000000000000e+00  2.0029512072256927e-15 7.4515986493074307e-15 0.0000000000000000e+00  -2.3002877716400796e-14 1.6296393013891752e-14 0.0000000000000000e+00  -4.1599240749518751e-14 -6.5495233005255043e-14 0.0000000000000000e+00  1.3697059532581470e-14 -6.3463938733068623e-13 0.0000000000000000e+00  -4.2644352515218267e-08 1.2576376767944950e-08 0.0000000000000000e+00  -5.3930879161258767e-09 4.0130018236687317e-09 0.0000000000000000e+00  5.8592962986491235e-11 -2.0462861749958388e-11 0.0000000000000000e+00  5.9963871477389801e-11 -3.1188062504099857e-11 0.0000000000000000e+00  6.9974591517114660e-14 -4.3942086660753715e-14 0.0000000000000000e+00  6.1868287567792491e-11 -4.6690155912841816e-11 0.0000000000000000e+00  -1.7849828199562265e-10 -1.3318960957275979e-11 0.0000000000000000e+00  2.1105129752937007e-14 -5.1944319096299478e-14 0.0000000000000000e+00  -4.4301886450923360e-11 8.3540507805647949e-12 0.0000000000000000e+00  4.9076610824087878e-09 5.4952076559249679e-09 0.0000000000000000e+00  -9.4418882934988557e-11 3.0983157618093277e-11 0.0000000000000000e+00  -4.0093849619736330e-10 -6.3289643007134927e-11 0.0000000000000000e+00  -1.1723008740804598e-07 -3.8000677674547727e-08 0.0000000000000000e+00  -6.4759866480805639e-05 1.9514706479425813e-05 0.0000000000000000e+00  -2.4439450395696182e-04 2.1210622512627493e-04 0.0000000000000000e+00  3.2111959196901344e-04 -2.4504067183710538e-05 0.0000000000000000e+00  3.3643841303742210e-05 8.2713779242764030e-06 0.0000000000000000e+00  -1.3845911956210165e-11 -3.6338414762487698e-11 0.0000000000000000e+00  -6.6075809065450211e-11 -8.2975600272660185e-11 0.0000000000000000e+00  -2.0117021294034740e-08 -3.2410613129702586e-08 0.0000000000000000e+00  -1.2125588313414901e-13 -1.1152107673652831e-13 0.0000000000000000e+00  -1.6729378049108708e-10 -1.1287604600334922e-10 0.0000000000000000e+00  -4.9850142201049044e-05 -4.5759530608996452e-05 0.0000000000000000e+00  7.2986954084941374e-06 -4.0149591149294774e-06 0.0000000000000000e+00  3.4666840222341334e-11 -4.1833594269471965e-11 0.0000000000000000e+00  2.6160886498278545e-14 -4.0442509639839090e-14 0.0000000000000000e+00  1.1163824119415174e-11 -2.4476242058803324e-11 0.0000000000000000e+00  -2.1251583814843807e-07 5.7477878745730799e-08 0.0000000000000000e+00  -2.0301569768347461e-10 4.1523965184070205e-11 0.0000000000000000e+00  4.0803953606122033e-04 1.2405393103771041e-04 0.0000000000000000e+00  1.2115898387104259e-04 -8.8098091190672441e-05 0.0000000000000000e+00  -1.1586795017356432e-04 -5.0508100653604143e-05 0.0000000000000000e+00  -7.5033918594905069e-05 -3.3290760010048569e-05 0.0000000000000000e+00  9.2566383711239328e-06 1.7271461874942892e-05 0.0000000000000000e+00  -3.6299042820027541e-04 7.0791163294844054e-06 0.0000000000000000e+00  -7.7363262253264960e-05 1.6322741223991298e-05 0.0000000000000000e+00  -2.1265308411235553e-05 1.1416542028456410e-05 0.0000000000000000e+00  4.3089938705399700e-05 -2.1916891558564075e-05 0.0000000000000000e+00  3.9616619114356287e-05 -2.9384648030432648e-05 0.0000000000000000e+00  6.3966925532242279e-06 5.4908921451280756e-06 0.0000000000000000e+00  1.1590435416586491e-06 7.6325640273930612e-07 0.0000000000000000e+00  1.0599727845229112e-07 -8.9151095569007271e-06 0.0000000000000000e+00  -9.7039262123953342e-06 -2.8208401074098129e-05 0.0000000000000000e+00  -1.3567258274777150e-06 5.0405357353635863e-06 0.0000000000000000e+00  2.1052976510829439e-07 2.2931369744121601e-06 0.0000000000000000e+00  3.0717153678302861e-08 -2.7950987651484134e-08 0.0000000000000000e+00  9.4732391689076519e-15 7.0400184766963001e-15 0.0000000000000000e+00  2.2490522473789430e-12 1.5787765574834249e-12 0.0000000000000000e+00  8.8970907351138740e-12 7.7582697857997182e-12 0.0000000000000000e+00  2.6022321400301465e-11 4.1334519278386180e-11 0.0000000000000000e+00  -4.5893539301999355e-13 -6.7544241111495778e-14 0.0000000000000000e+00  -9.9734280091583665e-10 -2.9601704662725411e-11 0.0000000000000000e+00  6.7051167375758093e-15 1.1381496934870239e-14 0.0000000000000000e+00  3.0239536483939825e-18 1.9362950823916894e-18 0.0000000000000000e+00  2.0144152658562494e-17 -1.5987849307249329e-17 0.0000000000000000e+00  -1.8002557495691470e-04 -2.8813984250405421e-05 0.0000000000000000e+00  -3.6810682147674293e-05 1.1006771587829327e-05 0.0000000000000000e+00  -1.2410856901238691e-06 -1.6953141756541719e-07 0.0000000000000000e+00  -8.4925944475200200e-12 -2.8684220264599608e-12 0.0000000000000000e+00  1.4666564556812837e-09 9.2261797731934158e-10 0.0000000000000000e+00  -1.7457512544065033e-10 -5.1584292686118233e-11 0.0000000000000000e+00  7.3269018551340036e-12 9.7332130775464537e-12 0.0000000000000000e+00  6.5750567618560261e-09 6.9425517601560929e-09 0.0000000000000000e+00  5.2765735850154088e-14 -1.4303432050488126e-11 0.0000000000000000e+00  2.7375087734540689e-09 -1.1308007477147448e-08 0.0000000000000000e+00  -1.5826848490242114e-11 2.3201673046850603e-11 0.0000000000000000e+00  -2.3593515352319500e-12 7.5515386811871603e-12 0.0000000000000000e+00  -4.2564859791901984e-09 7.9792668018345415e-09 0.0000000000000000e+00  1.2742056701932763e-16 -9.4896838812105701e-17 0.0000000000000000e+00  -6.9305055744347116e-15 -3.1423515403493138e-14 0.0000000000000000e+00  2.5542693078203909e-05 -3.0995641217547352e-05 0.0000000000000000e+00  6.4254452825780094e-06 -1.4692612842002515e-05 0.0000000000000000e+00  1.9903979902574249e-06 4.8151343153801720e-06 0.0000000000000000e+00  4.9097463133835631e-06 6.4976062279593835e-06 0.0000000000000000e+00  -2.1543656830204033e-17 -5.0457101797315452e-17 0.0000000000000000e+00  3.2130569486857396e-12 7.5562049592613881e-12 0.0000000000000000e+00  1.1428300232196760e-09 4.4535303918794287e-09 0.0000000000000000e+00  -3.9783107752247773e-05 -5.0553325838920944e-05 0.0000000000000000e+00  -6.1858741575986602e-05 -4.0978613174792658e-05 0.0000000000000000e+00  -1.3715658800013209e-07 -8.9404273361630124e-08 0.0000000000000000e+00  -1.8566078493210614e-05 1.6854415135294699e-05 0.0000000000000000e+00  -9.4865700562307578e-06 1.3952174588105230e-05 0.0000000000000000e+00  -1.0653935138367328e-08 7.6430286079313868e-09 0.0000000000000000e+00  -8.5789376737291823e-14 2.6917226211845016e-14 0.0000000000000000e+00  -