<?xml version="1.0"?>
<VTKFile type="UnstructuredGrid"  version="0.1"  >
<UnstructuredGrid>
<Piece  NumberOfPoints="2549" NumberOfCells="4928">
<Points>
<DataArray  type="Float64"  NumberOfComponents="3"  format="ascii">1.468297489787079 0.01496077114224658 0  1.464253105731025 0.03784641862003293 0  1.441183512789286 0.04897359567602403 0  1.427523165954807 0.0650743963530096 0  1.421289301541751 0.07587941306982532 0  1.422530523009615 0.09767550749872483 0  1.403868721245638 0.1061524130317939 0  1.37525267751485 0.1131853210705933 0  1.37554188095329 0.1484026239395276 0  1.472713002461159 0.1466072006098639 0  1.363375100516938 0.1652883565702735 0  1.354807572469597 0.1906540651103902 0  1.343857888733243 0.2187438324799424 0  1.336325415834685 0.2481209223644187 0  1.330875822502815 0.2779115518110621 0  1.312636966155134 0.3101164871247986 0  1.30694609112237 0.3431052135623053 0  1.29368981133856 0.3577782378725614 0  1.273263338668899 0.4108726852482489 0  1.259281524783114 0.4472396263408825 0  1.24403560845728 0.4934883107794575 0  1.225099689505175 0.5381833784543091 0  1.205045978870653 0.5860885936491428 0  1.180771458390527 0.6377204081702054 0  1.153885603413034 0.6895198376502224 0  1.12455290596597 0.7311516550730167 0  1.093327371825173 0.785127077487644 0  1.059551814908605 0.8400583933597281 0  1.021023392189109 0.8952682903121681 0  0.9789794462861263 0.9512958943576154 0  0.9327316140205126 1.007059881632857 0  0.8818786404925079 1.063366765936392 0  0.8262540484396207 1.116775959929804 0  0.7678148818386928 1.167392742740097 0  0.7030916433046652 1.219715676962088 0  0.6343671619739631 1.267651728853096 0  0.5607181576994942 1.312409240362125 0  0.4828491244550639 1.352897079428768 0  0.4008938842205446 1.388241479279585 0  0.3154243937038244 1.418917119827787 0  0.2264685238156505 1.442075831762689 0  0.1362701512859271 1.458376790373156 0  0.04378556863453881 1.469399157804341 0  -0.04929992323691054 1.471860653432731 0  -0.1422059738170222 1.467278646108774 0  -0.2341787705699503 1.454813754395224 0  -0.3240181467894731 1.435479611600545 0  -0.411569025106317 1.407589520844974 0  -0.4947015121956604 1.376366287734881 0  -0.5752360942491773 1.337982674187462 0  -0.6511568382607751 1.29286569407629 0  -0.7222302411609497 1.244454848977247 0  -0.788204714515077 1.191728885069194 0  -0.8497074192014502 1.136125345595066 0  -0.9044728769294821 1.078818089926978 0  -0.9580103170181659 1.017511297785227 0  -1.000877462197888 0.9646011052506567 0  -1.045630729256965 0.9095285783695484 0  -1.084717060425095 0.8476988651802158 0  -1.118639126822073 0.7893075199885472 0  -1.148091337189864 0.7327736658367172 0  -1.175600881225725 0.6748709463131272 0  -1.203301983643257 0.6281970694190904 0  -1.213276979467561 0.5552814796711423 0  -1.223830832228507 0.5192348782939865 0  -1.26289196585701 0.499709800407694 0  -1.273918333950327 0.4513695604022126 0  -1.286499735857143 0.4132715444495469 0  -1.297192003143069 0.3759124520502474 0  -1.319602157872046 0.3500718895914028 0  -1.323091362166505 0.3012711362697512 0  -1.314859549589267 0.3323778612883208 0  -1.375468665419733 0.2908754718574506 0  -1.364567146792877 0.1975226768349816 0  -1.369125324722577 0.1719152421698675 0  -1.367077712967807 0.1383860155333277 0  -1.376414034038213 0.1191131744105068 0  -1.372287458734874 0.09197130059796156 0  -1.393526620557443 0.1020518469955112 0  -1.365047687317416 0.02744879491466956 0  -1.414017492178633 0.09400115540859744 0  -1.473665365628499 0.117765286342365 0  -1.467223718871872 0.05858902920070282 0  -1.472400471015433 0.03311602644518005 0  -1.492706212885181 0.002638647004635911 0  -1.469733604434051 -0.01866104819030102 0  -1.44908776930226 -0.04575299096229937 0  -1.302190727052458 -0.2003778636938474 0  -1.38097614001441 -0.03491677115074107 0  -1.429250210906106 0.2912423838244802 0  -1.424561502805322 -0.06638564833820602 0  -1.456575493154289 0.001369783998006408 0  -1.410069097653124 -0.123156490040277 0  -1.381027604923299 -0.08933435265100209 0  -1.364678724047367 -0.1012174186739636 0  -1.372511194724248 -0.124016593801107 0  -1.390349299393517 -0.2410019696573162 0  -1.276332637752619 -0.2763539940617609 0  -1.351019845728792 -0.2426098736079593 0  -1.339646824147686 -0.3071424435618644 0  -1.305315832551192 -0.3182588959703725 0  -1.320333165067575 -0.3653104604651627 0  -1.304727760238716 -0.4044040158426059 0  -1.315413214007638 -0.4701916774525193 0  -1.219832758243264 -0.453518956795638 0  -1.197107652274552 -0.4862814379415701 0  -1.267190298537291 -0.586711538655338 0  -1.217292688448622 -0.6311389704255597 0  -1.186773014910683 -0.6917402214114918 0  -1.167931672987392 -0.7570194799947073 0  -1.136309345746096 -0.8191321108726342 0  -1.112988688455432 -0.8995624286521462 0  -1.046325585395159 -0.9379240463844094 0  -1.003640769099068 -0.9972441911504742 0  -0.9651010316892349 -1.083809930666702 0  -0.9065057062026609 -1.144204733986662 0  -0.8443016487974186 -1.210408140143771 0  -0.7779543138535344 -1.27204405105029 0  -0.7055217002387395 -1.329909670463872 0  -0.6258215710765194 -1.383835145297924 0  -0.5435433791188611 -1.432941724352236 0  -0.4572646845716018 -1.471334871513045 0  -0.3638325405210741 -1.507534045367391 0  -0.2692605960762749 -1.535443360916473 0  -0.1705539488900547 -1.554512203692872 0  -0.07063007638883062 -1.564881745701067 0  0.03022375219577436 -1.566226892858403 0  0.1306781897443904 -1.558365922826286 0  0.2297885752736543 -1.541725804745721 0  0.3262816829943129 -1.516463821733321 0  0.4195817898448841 -1.483521575835701 0  0.5087828239387406 -1.443304765538685 0  0.593134558563737 -1.396821025196066 0  0.6725634909366034 -1.344635006280218 0  0.745316940892767 -1.288648198066583 0  0.8149209492986101 -1.227004629176018 0  0.8746417397861876 -1.170015852079793 0  0.9318544051737844 -1.108398380972826 0  0.9850855025792132 -1.042536365639125 0  1.031345074011324 -0.9781468825822266 0  1.072957727949913 -0.9136083263002532 0  1.110648202138278 -0.850774592005908 0  1.14234086452477 -0.7881420779710676 0  1.171599602019107 -0.7278317999112862 0  1.201365147641691 -0.6808838254325338 0  1.223356433923198 -0.6217015912571373 0  1.245636548426951 -0.5652555510352092 0  1.262903083553254 -0.5118749764735746 0  1.278247605527845 -0.4627594093426126 0  1.287043215655433 -0.4102180660905272 0  1.301209495404969 -0.3742682062618786 0  1.318743279904159 -0.3004525576317197 0  1.283458458051409 -0.2816576297470409 0  1.332753357279112 -0.2866289870888075 0  1.351424780543745 -0.2411111361612517 0  1.352534358410432 -0.2083223682934317 0  1.358571509934227 -0.1745465136595796 0  1.364531456777407 -0.1432884929152307 0  1.361654987133635 -0.1143463620117235 0  1.477209642455449 0.06712339096550382 0  1.393961864780999 -0.1058847425338972 0  1.389506265680173 -0.1085523291556838 0  1.400878401326796 -0.0723150631849319 0  1.423599013879826 -0.05887629636422305 0  1.423839569235655 -0.04085227505520133 0  1.434034707991166 -0.02722562316768593 0  1.44097757025133 -0.01376592645289438 0  1.46143876879641 -0.005389960603295278 0  -0.09056833171260831 0.8931652218723458 0  0.682642870512427 -0.5103272967745046 0  -0.8005029302301451 -0.3846850784591158 0  -0.07737498134620142 -0.9510350343789421 0  0.6532661171281575 0.4939924362600232 0  1.083429407982456 0.1085029593457906 0  -0.7917129052854954 0.4093737264237722 0  -1.150572553978571 0.03099409288111783 0  1.09101362051482 -0.06921043831503371 0  -1.030956936308956 -0.172035598066771 0  -0.7288904407191131 0.01722355066846305 0  -0.436599067327715 -0.1386955564334064 0  -1.024097181359893 0.2123729793747525 0  0.3777213878448469 -0.8380380742382316 0  0.07825451455228637 -0.3060475119399572 0  0.3128912884464092 0.7724635146751444 0  0.2179950983743378 0.187333855765688 0  0.5564685056266743 0.01320764677872535 0  -0.4808282056114519 -0.7005281696947477 0  -0.4999206722068047 0.6995991115757988 0  -0.240155308415269 0.3159005963326172 0  0.9083076080984934 -0.2165353803137091 0  0.893737900407563 0.2406944082053583 0  0.3459067834940389 -0.2188750874363448 0  -0.01154662257079979 0.2434756342379599 0  -0.4900616840398423 0.2156133662110938 0  -0.1883686349739452 -0.2793067055266325 0  0.8554636063019531 0.01708456708817636 0  1.242495377119934 0.02192793845433489 0  0.7954998459934266 -0.3440493671804553 0  0.7111481382502527 -0.1116338425530831 0  0.5777910665110773 -0.2125242809273391 0  0.434871167950176 -0.08056355825961106 0  0.5063376740855715 -0.3761258993325026 0  0.8558519662969436 -0.08744486316418471 0  0.7081704568726891 0.01491169800688176 0  -0.8552056094950612 0.1258801994882995 0  -1.068121055629411 0.103263057929123 0  -0.9437260244451207 0.02588499632739337 0  -0.8607373896354136 -0.08626176580903606 0  -1.070070599941958 -0.04923416576185059 0  -1.232791281765027 -0.07964854315654925 0  -1.305810916225317 0.00447266179460266 0  -1.303299276290605 0.060105941920001 0  -1.225726438643542 0.1416885017733277 0  -0.1303515373131388 -0.6168336171591959 0  -0.3003306756020903 -0.5075570947052147 0  -0.2923461444452115 -0.8483503265490949 0  -0.3081493655825003 -0.2018452444091735 0  -0.4492355448998334 -0.4045000605689084 0  -1.222418982202426 -0.1968008227598081 0  -1.208351188218351 0.2467814704431697 0  0.3765441299432707 -0.5085292017536422 0  0.2096590631292605 -0.2494696458619589 0  0.2380287456839561 -0.5670213588947016 0  -0.9083282273321466 0.2952634377697383 0  -0.724213172783623 0.1947116745819812 0  1.26156952385692 -0.08639085845119968 0  1.196020440072123 -0.1803664441824794 0  1.183408502692448 0.2185560529587223 0  1.253033400005608 0.1288919693607284 0  -0.9114849693601863 -0.6513771174102274 0  -1.037922053578054 -0.4424244188031254 0  -1.018483202451429 0.4787981341834029 0  -0.8840190170726374 0.6680154960949487 0  0.9353357210154329 -0.6075589605446818 0  0.7725538061881816 -0.8270347728540951 0  0.739215252343544 0.7894564081716583 0  0.9041269679745955 0.6009625816857909 0  0.04
[...]
<PointData  Vectors="f_17596"> 
<DataArray  type="Float64"  Name="f_17596"  NumberOfComponents="3" format="ascii">1.0287426372079991e-01 1.0139147118788732e-02 0.0000000000000000e+00  1.6307884520777174e-01 9.8346136538386517e-02 0.0000000000000000e+00  2.0575331193194779e-01 2.3440391984238990e-01 0.0000000000000000e+00  2.9429889437725210e-01 1.8750877425428397e-01 0.0000000000000000e+00  1.6772690363642426e-01 7.6561682672108250e-02 0.0000000000000000e+00  7.4607292889039312e-01 3.7939656124251042e-01 0.0000000000000000e+00  1.0882388215900691e+00 -3.9407092307188274e-01 0.0000000000000000e+00  4.3240293073971753e-01 1.2964395097859274e-01 0.0000000000000000e+00  -1.6334748499724356e+00 1.2998452557001969e+00 0.0000000000000000e+00  -1.5781874757168782e-01 4.7223324861413382e-02 0.0000000000000000e+00  3.0118859361193207e-01 1.6796201114489115e-01 0.0000000000000000e+00  -6.4826246020542455e-01 -2.5478894848694406e-01 0.0000000000000000e+00  1.2864134476391900e+00 4.1559642691365972e-01 0.0000000000000000e+00  -3.6507903400417269e-01 -9.6763410172415701e-02 0.0000000000000000e+00  -8.3032496359868369e-01 -2.8994280809720629e-01 0.0000000000000000e+00  -2.4813923741465385e-01 -8.3840226623430950e-02 0.0000000000000000e+00  2.8974809090436100e+00 1.4441391338644505e+00 0.0000000000000000e+00  3.1524066420267816e+00 1.8365935120289194e+00 0.0000000000000000e+00  5.4985305641975379e-01 2.2962789631692104e-01 0.0000000000000000e+00  2.5433316866097910e-02 1.0895808616322309e-02 0.0000000000000000e+00  2.1922451512277324e-01 8.3429632385047942e-02 0.0000000000000000e+00  3.3933945568993276e-02 1.3858815030659007e-02 0.0000000000000000e+00  6.3462715615762444e-02 2.8016379127402655e-02 0.0000000000000000e+00  6.6090714747651491e-02 3.1880748359406352e-02 0.0000000000000000e+00  -4.9193828908762371e-01 -2.9663649387129287e-01 0.0000000000000000e+00  4.8272661372494058e-01 3.0696684317538481e-01 0.0000000000000000e+00  1.8588839513543121e-01 1.1286867759076151e-01 0.0000000000000000e+00  -3.0333604483345922e-02 -2.0653204398501511e-02 0.0000000000000000e+00  3.6449266402421368e-02 2.7014581541119950e-02 0.0000000000000000e+00  3.7528169104253793e-02 2.9347434704103205e-02 0.0000000000000000e+00  5.6576781991069060e-02 4.9728583531055179e-02 0.0000000000000000e+00  7.6138212608059933e-02 7.3139913726921676e-02 0.0000000000000000e+00  -1.2637112814871230e-02 -1.3788991336230629e-02 0.0000000000000000e+00  3.9631721240479360e-02 4.8182912364580659e-02 0.0000000000000000e+00  8.1520873620659698e-02 1.0835144846903434e-01 0.0000000000000000e+00  3.6177768582719094e-02 5.5737106153071418e-02 0.0000000000000000e+00  5.3914602675020115e-02 9.5916455641604711e-02 0.0000000000000000e+00  3.0552476844223755e-02 6.3887013413884530e-02 0.0000000000000000e+00  3.5284404644055689e-02 9.0892194173230620e-02 0.0000000000000000e+00  3.5254197503747663e-02 1.1222187098115879e-01 0.0000000000000000e+00  1.6015721498356082e-03 6.6615459021780836e-03 0.0000000000000000e+00  5.9566464176234518e-03 4.1879667046435004e-02 0.0000000000000000e+00  3.6362921820637883e-03 4.4875360984116680e-02 0.0000000000000000e+00  -4.0416066458315232e-04 1.7363097168721579e-02 0.0000000000000000e+00  -1.5184077808481776e-03 1.8890376844221356e-02 0.0000000000000000e+00  -4.2341918218502545e-03 2.3306609998622878e-02 0.0000000000000000e+00  3.1141115701865669e-03 -1.0586105028351443e-02 0.0000000000000000e+00  -3.3257290074996428e-03 8.5954147591547937e-03 0.0000000000000000e+00  -1.2250459741686402e-02 2.9218368793170184e-02 0.0000000000000000e+00  5.2477114437618983e-03 -9.6918559288404916e-03 0.0000000000000000e+00  -7.0643323291810119e-03 1.0814727499362792e-02 0.0000000000000000e+00  -9.2529798601171630e-03 1.2547792482968945e-02 0.0000000000000000e+00  -1.5065482194391480e-02 1.7673965896313537e-02 0.0000000000000000e+00  -2.1766874756805270e-02 2.2323597018543358e-02 0.0000000000000000e+00  -2.2577503707249501e-02 2.0744918694387989e-02 0.0000000000000000e+00  -2.3149674769738400e-02 1.9461237349577692e-02 0.0000000000000000e+00  -1.8061507895349261e-02 1.5069355385850651e-02 0.0000000000000000e+00  1.1524949570362793e-02 -8.7864777547452862e-03 0.0000000000000000e+00  -4.5613775942801152e-02 2.7855324134896681e-02 0.0000000000000000e+00  -1.1721760557610993e-02 6.8643836921280571e-03 0.0000000000000000e+00  -7.9963793976176215e-02 4.0934300339255873e-02 0.0000000000000000e+00  -3.9354651363020793e-01 2.0803608369533932e-01 0.0000000000000000e+00  3.7850352278591733e-03 -3.8511682344316983e-03 0.0000000000000000e+00  9.7977118093011262e-01 -2.3432282070161442e-01 0.0000000000000000e+00  -7.9045799193919186e-01 6.5948519054072841e-01 0.0000000000000000e+00  -3.9012997978959307e-01 2.9014614580037429e-01 0.0000000000000000e+00  4.3088558105652264e-01 -1.2146139907273064e-01 0.0000000000000000e+00  -1.0209532835328861e-01 3.6362971658292623e-02 0.0000000000000000e+00  -4.4044011424464791e-01 2.2591554055863702e-01 0.0000000000000000e+00  2.5574698566194332e-01 -1.0359118972822108e-01 0.0000000000000000e+00  1.8704634531163056e-01 1.5276940492760374e-01 0.0000000000000000e+00  5.7533580441118622e-02 7.2116450934568185e-02 0.0000000000000000e+00  -1.1874804397039428e-01 7.5710992236795074e-02 0.0000000000000000e+00  8.9115257858506758e-01 -7.0720540002957286e-02 0.0000000000000000e+00  -4.3576303142488426e-01 4.1619623716502158e-02 0.0000000000000000e+00  3.7515694676074252e-01 8.9900883410967206e-02 0.0000000000000000e+00  5.0421144785439065e-01 6.8774099341232309e-01 0.0000000000000000e+00  2.5490482490566406e+00 2.1464767455775382e+00 0.0000000000000000e+00  -1.1429460016598669e+00 -9.1705242933969400e-01 0.0000000000000000e+00  -3.8743983321127433e-02 -1.0988717996550716e-01 0.0000000000000000e+00  3.3118456138559169e-02 7.0917974124279956e-02 0.0000000000000000e+00  -3.8906211206030980e-02 4.3472245051225083e-03 0.0000000000000000e+00  -3.3881428539250258e-01 4.3657696821268133e-02 0.0000000000000000e+00  -8.0298799543991739e-01 2.5479914392061181e-01 0.0000000000000000e+00  -5.6467648269606840e-01 -4.3502674070956378e-02 0.0000000000000000e+00  1.7484097174786584e-01 1.7026328158373263e-01 0.0000000000000000e+00  -2.4634463273974193e-02 -2.2573110270649496e-02 0.0000000000000000e+00  -3.4584178879969597e-04 -1.1437562730760168e-03 0.0000000000000000e+00  2.9421157408621042e-03 1.2755911787832965e-03 0.0000000000000000e+00  3.6499463775276075e-03 6.7199571457383044e-04 0.0000000000000000e+00  2.7886973169218950e-02 3.4152977350188824e-03 0.0000000000000000e+00  -6.7141736624503345e-02 -2.0728216796297990e-02 0.0000000000000000e+00  -6.8861123078280115e-02 3.6340292580109828e-03 0.0000000000000000e+00  3.0079174138748978e-02 -1.5966853515107438e-01 0.0000000000000000e+00  1.5561749177162888e-02 5.6597518367924288e-02 0.0000000000000000e+00  1.6419450603060839e-02 -2.9189929241412818e-03 0.0000000000000000e+00  -6.7788536813904718e-02 -3.5766153713170330e-02 0.0000000000000000e+00  2.3194696326850907e-03 1.0848613268926407e-02 0.0000000000000000e+00  -8.6761008055344906e-03 -3.0658456783881792e-03 0.0000000000000000e+00  4.2656372208829774e-01 3.3731844663149979e-01 0.0000000000000000e+00  2.4336814575659331e+00 1.1631696393410589e+00 0.0000000000000000e+00  -2.0569035234950303e-01 5.0827727167929430e-02 0.0000000000000000e+00  2.2903469809284713e+00 4.3182184390535233e-01 0.0000000000000000e+00  8.5209201276816549e-01 6.3621767696042431e-01 0.0000000000000000e+00  1.0838710632237079e+00 2.1444508620816363e+00 0.0000000000000000e+00  -9.4614851764237617e-01 -7.2086683897056789e-02 0.0000000000000000e+00  -2.3941993321408575e+00 -4.8266912713452098e-01 0.0000000000000000e+00  -3.3671470076408632e+00 -2.2074831779490336e+00 0.0000000000000000e+00  4.3861458145571802e-01 1.5988224085263461e-01 0.0000000000000000e+00  3.2076041836284180e-01 1.2757370827177428e-01 0.0000000000000000e+00  1.3024875931330238e+00 5.0710323946423219e-01 0.0000000000000000e+00  -1.5797374889967872e+00 -1.2247755708890831e+00 0.0000000000000000e+00  -1.4024878416949782e+00 -1.4592522085739146e+00 0.0000000000000000e+00  1.2451916800383360e+00 7.3564238528221293e-01 0.0000000000000000e+00  1.3428841919585988e-01 9.9275519665518216e-02 0.0000000000000000e+00  -1.1975893947865346e-01 -1.2445315865755538e-01 0.0000000000000000e+00  -1.1517390405830488e-01 -1.1451791144846352e-01 0.0000000000000000e+00  -4.4231977135203097e-02 -5.2961092092268819e-02 0.0000000000000000e+00  -4.5771937292583068e-02 -6.1336436324224100e-02 0.0000000000000000e+00  -4.3700019184717324e-02 -6.9615796627163454e-02 0.0000000000000000e+00  -2.5548182840434499e-02 -4.7697779693790562e-02 0.0000000000000000e+00  -6.8480764773785341e-03 -1.7235935069820345e-02 0.0000000000000000e+00  -1.6155931536551132e-02 -4.7238218015506830e-02 0.0000000000000000e+00  -4.3782928414416401e-03 -1.7614748549149628e-02 0.0000000000000000e+00  -2.5660577658366654e-03 -1.7361082344608540e-02 0.0000000000000000e+00  -7.2188137201292628e-04 -1.1756380741531286e-02 0.0000000000000000e+00  3.5183697290447130e-04 -1.0875956735062394e-02 0.0000000000000000e+00  1.3220620909737304e-03 -1.0556379284569001e-02 0.0000000000000000e+00  3.6723311859138902e-03 -1.6939555651959315e-02 0.0000000000000000e+00  7.0925403633895576e-03 -2.2992691327225669e-02 0.0000000000000000e+00  1.1189180348513397e-02 -2.7788041817065273e-02 0.0000000000000000e+00  1.6418515846393440e-02 -3.2790733361298667e-02 0.0000000000000000e+00  2.2531568796016890e-02 -3.7343378258487527e-02 0.0000000000000000e+00  2.6386529205474279e-02 -3.7095204518777208e-02 0.0000000000000000e+00  3.6104517800351142e-02 -4.3853194831043087e-02 0.0000000000000000e+00  1.9442588245951523e-02 -2.1314232104134086e-02 0.0000000000000000e+00  1.8204934700198280e-02 -1.7871042001824558e-02 0.0000000000000000e+00  4.1851966277080759e-02 -3.6133934681117322e-02 0.0000000000000000e+00  3.6209339083467351e-02 -2.7775586595046527e-02 0.0000000000000000e+00  3.3863668601910160e-02 -2.3139699099975455e-02 0.0000000000000000e+00  1.5880739350917761e-02 -9.9271122149922481e-03 0.0000000000000000e+00  2.5430607910971147e-02 -1.4058722616541248e-02 0.0000000000000000e+00  5.9608692394749179e-03 -3.1462072388725956e-03 0.0000000000000000e+00  -1.3747888854463905e-03 1.0904463013035428e-03 0.0000000000000000e+00  4.9653504107665419e-02 -2.4559925794595445e-02 0.0000000000000000e+00  1.5975441520440649e-02 -6.2904005456326682e-03 0.0000000000000000e+00  -3.9380615679118901e-02 1.4218768345687180e-02 0.0000000000000000e+00  -1.1743569575526138e-02 1.1865003288727455e-03 0.0000000000000000e+00  -4.2819867572136000e-01 1.0377557693977051e-01 0.0000000000000000e+00  4.7862186336192325e-01 -1.2026638187847034e-01 0.0000000000000000e+00  3.5208319429846485e-01 2.2293267590811586e-01 0.0000000000000000e+00  7.4051660534881583e+00 2.4593733801269906e+00 0.0000000000000000e+00  2.6142807203968919e+00 2.7719080883233616e-01 0.0000000000000000e+00  -5.1616665440374232e-01 7.5806784639719116e-01 0.0000000000000000e+00  -9.5274326325869196e-01 3.2101855663181106e-01 0.0000000000000000e+00  3.7333357758115621e-01 -3.2748446648891011e-02 0.0000000000000000e+00  -6.5583456188893191e-02 5.5862319610566185e-03 0.0000000000000000e+00  -5.3325471893796494e-01 5.0473063736768908e-02 0.0000000000000000e+00  -4.2098667443329163e-01 1.1190732458704829e-01 0.0000000000000000e+00  -2.4737425715557304e-01 1.2253198629089626e-01 0.0000000000000000e+00  -5.7450850226829997e-02 3.7177446716699251e-02 0.0000000000000000e+00  -8.1766749873559830e-01 -1.0294961498777155e+00 0.0000000000000000e+00  -1.8206536526375541e-01 -2.2532525155022665e-01 0.0000000000000000e+00  3.6036543684149130e-01 1.8015174865522993e-01 0.0000000000000000e+00  8.5080702146075704e-01 -1.6397259259342908e-01 0.0000000000000000e+00  2.8271865515161176e-01 -2.5642083019798145e-01 0.0000000000000000e+00  1.5343693443537225e+00 -1.5868464949233470e+00 0.0000000000000000e+00  3.8077385778491640e-01 -3.3081029116191513e-01 0.0000000000000000e+00  -1.1255799590372906e-09 1.5278562407625239e-08 0.0000000000000000e+00  1.2188559041440499e-08 -8.0323966406478020e-09 0.0000000000000000e+00  -2.3424431546912535e-07 -1.5020401132080804e-07 0.0000000000000000e+00  -2.4549235879395875e-09 -1.3505509134319385e-08 0.0000000000000000e+00  2.4093232965530309e-08 1.7415730325892097e-08 0.0000000000000000e+00  2.4526029143099446e-07 8.5463809686185691e-08 0.0000000000000000e+00  -3.9524622859958521e-08 2.4634114126565543e-08 0.0000000000000000e+00  -6.9609925116698964e-08 6.7220734815105554e-08 0.0000000000000000e+00  1.5247632298667586e-08 2.4072352978392063e-08 0.0000000000000000e+00  2.3907917559369531e-07 1.3701002528305717e-07 0.0000000000000000e+00  1.0262812602542968e-14 1.3027039832570244e-13 0.0000000000000000e+00  -3.0890947947378135e-13 -3.9046623386025682e-13 0.0000000000000000e+00  -5.9373940103541844e-08 3.9124400526326311e-08 0.0000000000000000e+00  1.3878781186042837e-08 -2.2687385648003644e-08 0.0000000000000000e+00  4.8763543216058452e-15 -1.9316894288113678e-14 0.0000000000000000e+00  2.5282334844007063e-08 4.5274487198066848e-08 0.0000000000000000e+00  3.1421352381595625e-14 3.4863997275844933e-14 0.0000000000000000e+00  5.7726414477066997e-15 -3.6862280903104565e-15 0.0000000000000000e+00  -2.3565125454624132e-08 -3.5648683986368079e-08 0.0000000000000000e+00  -1.3476643752867751e-08 1.5460260348052949e-08 0.0000000000000000e+00  -7.5984619137025262e-15 1.7639803348071945e-14 0.0000000000000000e+00  -2.6663486333207735e-08 6.2958812072143154e-08 0.0000000000000000e+00  1.2420245424995251e-07 5.5151158814288056e-08 0.0000000000000000e+00  2.8402290262695716e-14 -2.7895049450582939e-14 0.0000000000000000e+00  1.4920094382271162e-14 5.2721542863104728e-14 0.0000000000000000e+00  -2.7119029389899554e-14 2.1274870636778025e-14 0.0000000000000000e+00  -2.7604192361386309e-14 -4.8655801367867792e-14 0.0000000000000000e+00  1.7711888508728262e-12 8.1565258002934237e-13 0.0000000000000000e+00  1.6583485351243320e-07 -4.8451157590295450e-08 0.0000000000000000e+00  8.0963543268598869e-09 -3.4133939923456383e-09 0.0000000000000000e+00  -5.9869915521012724e-12 1.4969499401897630e-11 0.0000000000000000e+00  6.0692944441937329e-12 -3.4423048932139827e-12 0.0000000000000000e+00  1.9096793105892708e-14 -1.2869330296121402e-14 0.0000000000000000e+00  2.3635351521340417e-11 -1.8737971590365411e-11 0.0000000000000000e+00  9.6492843822033971e-10 2.4220724616903747e-10 0.0000000000000000e+00  3.1947365158704409e-13 1.6693083369553598e-13 0.0000000000000000e+00  4.5500008375900774e-11 3.0863833422820698e-11 0.0000000000000000e+00  2.1533234350297252e-08 2.4529762375452111e-08 0.0000000000000000e+00  4.8343086890538522e-12 -5.8151257637542296e-12 0.0000000000000000e+00  4.7497084331726369e-10 1.9850067939844121e-10 0.0000000000000000e+00  -1.2256176509359991e-08 -4.2592834284699193e-09 0.0000000000000000e+00  -4.6876752125390758e-06 2.7624737174561595e-06 0.0000000000000000e+00  -2.9246997391709978e-05 -7.5904414017648258e-06 0.0000000000000000e+00  -3.0153446722422096e-04 -1.2672535088051345e-04 0.0000000000000000e+00  -4.9622021171292557e-05 -1.4999869189680113e-05 0.0000000000000000e+00  -8.9809949383863795e-12 -2.4161365881615385e-11 0.0000000000000000e+00  -3.2954966100995571e-11 -4.6563103650861985e-11 0.0000000000000000e+00  -1.5414606959854013e-08 -2.8020041680306084e-08 0.0000000000000000e+00  -3.6189532285979841e-14 -5.9963883095667667e-14 0.0000000000000000e+00  6.2399829984063672e-11 -7.8984910585254594e-12 0.0000000000000000e+00  5.3905799634467155e-05 2.8308898710064701e-05 0.0000000000000000e+00  1.9728269644456494e-05 8.2765077706867119e-06 0.0000000000000000e+00  2.0991978890055468e-11 -2.6421096484032587e-11 0.0000000000000000e+00  1.9440407357980336e-14 -3.1601197642279011e-14 0.0000000000000000e+00  1.0062729314180222e-11 -2.3244380856407211e-11 0.0000000000000000e+00  -4.9328322918066685e-08 7.9596834087717966e-08 0.0000000000000000e+00  2.2885506091635493e-11 2.6833247049628452e-11 0.0000000000000000e+00  -3.3419127870671564e-05 2.2004811353070698e-05 0.0000000000000000e+00  -1.1854613267477870e-04 9.0760744851213740e-05 0.0000000000000000e+00  -8.0238368696762519e-05 -1.9234549205322410e-05 0.0000000000000000e+00  -1.0820385890404823e-04 4.1054765056415094e-05 0.0000000000000000e+00  1.9494596222655218e-04 2.6825170980409828e-05 0.0000000000000000e+00  -8.2739989471634836e-04 -2.3522661463760692e-04 0.0000000000000000e+00  1.1990240183345687e-06 1.5813560987579862e-05 0.0000000000000000e+00  -1.3553296800694399e-05 8.2425792526341263e-06 0.0000000000000000e+00  2.4524323937276925e-06 -1.4005357359163504e-06 0.0000000000000000e+00  1.5398662355199721e-05 -1.1964203115214709e-05 0.0000000000000000e+00  2.2391430325469289e-05 1.9319797155629300e-05 0.0000000000000000e+00  5.6053475537784030e-05 3.4739998164538221e-05 0.0000000000000000e+00  2.3882926129872792e-07 -8.3450302345997263e-06 0.0000000000000000e+00  -6.0158752880017318e-06 -1.7270642841488271e-05 0.0000000000000000e+00  -1.1678082708963070e-06 4.2590012601627601e-06 0.0000000000000000e+00  1.4801121882112030e-06 1.9517363457189343e-05 0.0000000000000000e+00  1.6028024820097323e-08 -1.5582320386657054e-08 0.0000000000000000e+00  4.1598862163802869e-14 3.0374798073912419e-14 0.0000000000000000e+00  7.4395288970306850e-11 4.6981165191364541e-11 0.0000000000000000e+00  3.1054394204408009e-11 2.7533447492025214e-11 0.0000000000000000e+00  -5.4710881152916223e-12 -1.2166501840858603e-10 0.0000000000000000e+00  -5.1535161678143762e-13 -3.1943990325655968e-13 0.0000000000000000e+00  -9.0266945071482992e-10 -3.4274314424068335e-10 0.0000000000000000e+00  3.8566957468569600e-14 6.9445701152903288e-14 0.0000000000000000e+00  2.0292241826742703e-17 4.3805396972554219e-17 0.0000000000000000e+00  4.8305850656057698e-17 2.8126173192043889e-17 0.0000000000000000e+00  5.1805947918061594e-04 1.5537643095456504e-04 0.0000000000000000e+00  5.6200666943070240e-05 -1.7526298720363506e-07 0.0000000000000000e+00  8.4126074676158713e-08 9.7430221944370983e-08 0.0000000000000000e+00  4.6370619039938005e-11 1.9826344297049528e-11 0.0000000000000000e+00  -4.5801982406480368e-08 -2.7147908647083024e-08 0.0000000000000000e+00  4.8380840032703621e-10 2.5810999662593509e-10 0.0000000000000000e+00  3.6009637674798529e-11 5.0322782413427982e-11 0.0000000000000000e+00  1.8738949814562125e-08 2.0458046901277455e-08 0.0000000000000000e+00  3.5259455978739762e-13 -1.3040442811791763e-11 0.0000000000000000e+00  2.9700419203696013e-09 -1.2184736241484094e-08 0.0000000000000000e+00  -9.6156028356811800e-12 1.4467490992904258e-11 0.0000000000000000e+00  -2.5966485934004726e-12 1.1072580110695767e-11 0.0000000000000000e+00  -5.0285039290565940e-09 1.1674041978065373e-08 0.0000000000000000e+00  9.4806505855309896e-17 -1.6335122833959399e-17 0.0000000000000000e+00  -4.8710406076932589e-15 -2.4588585665174970e-14 0.0000000000000000e+00  1.4431434788642621e-05 -1.7962239088298742e-05 0.0000000000000000e+00  5.9823913939672652e-06 -1.4188102782188997e-05 0.0000000000000000e+00  1.5086567591402841e-05 3.7131635120510777e-05 0.0000000000000000e+00  2.6758778046568460e-05 3.6989366915240820e-05 0.0000000000000000e+00  -1.2553148160125670e-17 -1.6442165437844803e-17 0.0000000000000000e+00  2.2909994721607339e-11 5.6685571391604585e-11 0.0000000000000000e+00  7.8457198425298630e-09 2.8656841927314692e-08 0.0000000000000000e+00  -1.8691909417199476e-05 -2.6623615855329521e-05 0.0000000000000000e+00  2.4131441103043489e-05 -7.7318974611922431e-06 0.0000000000000000e+00  -3.0755970301328891e-07 -3.4424973652061707e-07 0.0000000000000000e+00  -1.2726869052487686e-05 1.1735218316943652e-05 0.0000000000000000e+00  -5.7513655269431104e-06 8.8628323254209833e-06 0.0000000000000000e+00  -1.4621291356105147e-08 1.1533089524703107e-08 0.0000000000000000e+00  -6.2602295904599122e-14 4.1358707926577048e-14 0.0000000000000000e+00  -2.4600231633879459e-11 1.5283989990369528e-11 