<?xml version="1.0"?>
<VTKFile type="UnstructuredGrid"  version="0.1"  >
<UnstructuredGrid>
<Piece  NumberOfPoints="2549" NumberOfCells="4928">
<Points>
<DataArray  type="Float64"  NumberOfComponents="3"  format="ascii">1.469509422236225 0.03658247415014142 0  1.46476058846628 0.05958444889717767 0  1.440818885571982 0.06843907413009091 0  1.428236264544932 0.08442380365105315 0  1.42269084798983 0.09658860815437686 0  1.417259845644172 0.1200790516664915 0  1.396987486484949 0.1232240286629454 0  1.364823015334191 0.1283417136660448 0  1.387501266882384 0.1524914670987509 0  1.489094944403104 0.2590397421152796 0  1.381343664051549 0.1770506144212911 0  1.374569649996452 0.2168838259735445 0  1.336692734295188 0.2338117938819845 0  1.33326780587929 0.261374204300077 0  1.329670894277211 0.2924834652454297 0  1.311000671324189 0.3247436364965856 0  1.301088287254289 0.3584224723830703 0  1.283110441831894 0.3694437076673306 0  1.269553725241268 0.421457093223654 0  1.256507314327559 0.4604081102121392 0  1.237950720683841 0.5051470322380014 0  1.21983262877803 0.5502447575429538 0  1.198483283928663 0.5977891239348295 0  1.173959937372815 0.6487471155982254 0  1.149133450872763 0.7028654510593693 0  1.113679636320879 0.7402412132103315 0  1.084466690394793 0.7945483752080644 0  1.050706336747219 0.8499501806977484 0  1.011012431934421 0.9039999099748489 0  0.9684366963819979 0.9595977581055951 0  0.9216381833678404 1.014482982038297 0  0.8698954682762496 1.069886905108749 0  0.8143140232154196 1.122671067461951 0  0.7554770457127291 1.172404602580119 0  0.6899266271899214 1.223412288196618 0  0.6213065245482837 1.270546024771168 0  0.547381054038516 1.314128418599398 0  0.4695108841814646 1.353714285872151 0  0.3877150539561184 1.387937503537115 0  0.3021526104109888 1.417334506004769 0  0.2138119510715229 1.439978705376672 0  0.1240049679796556 1.455348193159419 0  0.03178966950345007 1.465339040322584 0  -0.06055448303284922 1.46709449647101 0  -0.1529805993014574 1.461775075587012 0  -0.2441309699959121 1.448607409595823 0  -0.3334404611826804 1.428930192689724 0  -0.4200516712619464 1.40045732619424 0  -0.5025025143128553 1.368841226385771 0  -0.5823695117217863 1.330397868566996 0  -0.6574496850950993 1.285032459887557 0  -0.7279129157714981 1.236651377860605 0  -0.7932293925584066 1.183941633421435 0  -0.8541850382141248 1.128500905160132 0  -0.9085236522985168 1.071379852234247 0  -0.9617332160702218 1.010386590332181 0  -1.004143955942568 0.9574355743684378 0  -1.04870675117652 0.9029596919295511 0  -1.087609049516355 0.8412000790174009 0  -1.121236298915616 0.7830053622033464 0  -1.151354938590552 0.7272755822484737 0  -1.175590104384535 0.6672979239915736 0  -1.204216567197676 0.624363781619957 0  -1.221175357956933 0.5499434656070149 0  -1.222445277913429 0.5108958113537672 0  -1.263165423006335 0.4964501078731434 0  -1.278245499945347 0.4469471198340993 0  -1.2876880946002 0.4081386795350132 0  -1.296476246515788 0.370312720725234 0  -1.320672215801729 0.3470986839235823 0  -1.326766396057248 0.2975851561004784 0  -1.31066184968006 0.3252153062246722 0  -1.375389150154601 0.2868082184767556 0  -1.36880102467504 0.1917590975523301 0  -1.366954433783131 0.1668048215254932 0  -1.3697254260691 0.1337203872852354 0  -1.382307490380384 0.1159281062944408 0  -1.385403260509242 0.08399753047526061 0  -1.393491936980998 0.1069389363472146 0  -1.368848206097367 0.02540688532580148 0  -1.399442929556194 0.09441010265635295 0  -1.433485198972678 0.1545936401237092 0  -1.464853710208696 0.07984875887261456 0  -1.474687521974885 0.05200714870611207 0  -1.500527882627179 0.02626229664232891 0  -1.483958676508981 -0.0005951502893009261 0  -1.469988810148827 -0.03105332195560721 0  -1.53448430111917 -0.3416417245818217 0  -1.396018679762368 -0.04624146295199751 0  -1.35781751720243 0.2986657484420379 0  -1.437806809614033 -0.06370830373195656 0  -1.456970728188192 0.009054030104989645 0  -1.417981239476579 -0.1243536001159386 0  -1.388962100955489 -0.09035849353781152 0  -1.372606994826513 -0.1034115501292448 0  -1.379631817802243 -0.1263552467296407 0  -1.397044650291782 -0.2430484296360875 0  -1.311585995788862 -0.3410804670387992 0  -1.35892901525052 -0.2431467437971806 0  -1.355921716683502 -0.3014983650422222 0  -1.319322768928619 -0.3270940866616272 0  -1.324213801973076 -0.3660039534080736 0  -1.320648196270546 -0.4051784643861717 0  -1.354619873770799 -0.4472480858698762 0  -1.234008145589838 -0.4677175503656478 0  -1.204224405080919 -0.5004453116918207 0  -1.25081901424775 -0.6207038060596634 0  -1.196503181810557 -0.6379551471468969 0  -1.187063522966873 -0.7035583653905148 0  -1.159991768845837 -0.766968143651878 0  -1.14041751408336 -0.8309941482822178 0  -1.092773391662215 -0.9093883461635143 0  -1.029759792431031 -0.9353447381412662 0  -1.008544342567798 -1.009277794705826 0  -0.9531743119313125 -1.091753632144638 0  -0.89598524877824 -1.145893219322088 0  -0.8351060227644659 -1.214875722759343 0  -0.7681186969675388 -1.274203557271368 0  -0.6955985237098603 -1.331547683526649 0  -0.6158632610840157 -1.384257720782448 0  -0.5334241859525575 -1.432611353120867 0  -0.4475298175768828 -1.470165941859844 0  -0.3541079124866768 -1.505474867194597 0  -0.2598322379385696 -1.532670902005509 0  -0.1614688595530139 -1.550964172196187 0  -0.06193612833382328 -1.560739671081545 0  0.03847368044756166 -1.561511768636377 0  0.1384570366543194 -1.553209293847127 0  0.2370843166640842 -1.536174742188447 0  0.3330961011262252 -1.510627487213269 0  0.425950127387762 -1.477516750390125 0  0.5147563220148887 -1.437205231315908 0  0.5987670245602106 -1.390703355154785 0  0.6779600031625773 -1.338589442127465 0  0.7505161674222989 -1.282689534355988 0  0.820240529093624 -1.221301929120788 0  0.8798836746490118 -1.164316589386567 0  0.9369449897955349 -1.102728815614148 0  0.9904248846092257 -1.037087773000624 0  1.036918217933567 -0.9728559056701767 0  1.078936682898301 -0.9084593209990933 0  1.116850528731233 -0.8457042433319326 0  1.149199591097838 -0.7832233266796067 0  1.178938364753042 -0.7228716969558364 0  1.208560747534778 -0.6757170887520934 0  1.231080224100259 -0.6168204769315636 0  1.2544126274136 -0.5605632261536735 0  1.271197819618179 -0.5070759687906715 0  1.291562173581627 -0.4595610807107235 0  1.290205699803167 -0.403307194075472 0  1.312079484720105 -0.3757100629071966 0  1.3009897144081 -0.2976005976230073 0  1.284566364871137 -0.302992793592589 0  1.34456264315282 -0.2692322736044041 0  1.365216186382576 -0.2221062176770777 0  1.356629352659514 -0.1910150918200624 0  1.363633236821911 -0.161579018469267 0  1.373588378378071 -0.1341562506366564 0  1.372020367014668 -0.0997233818566363 0  1.261200291574526 0.2186358411506277 0  1.399107183153586 -0.06990458943847115 0  1.398164917758873 -0.07988077604475714 0  1.406715306085947 -0.05217405385380013 0  1.425776325453917 -0.03915778016892579 0  1.42574348595032 -0.01908596749018533 0  1.435532419531967 -0.008002573507959694 0  1.442701169412009 0.00757946864681752 0  1.462382783049275 0.01613953666551662 0  -0.097784879154392 0.8875560272295741 0  0.6902714361713617 -0.5039851177386766 0  -0.8035790888648253 -0.3886879569351321 0  -0.07195512656227673 -0.9473039374976303 0  0.6491594140494797 0.4987806823212745 0  1.086629453560446 0.1185599925342224 0  -0.7945249998091527 0.4032442810159038 0  -1.154775564995192 0.02545394600207765 0  1.097484498978689 -0.06031852366354333 0  -1.036678088746627 -0.1785134025884349 0  -0.7322636271255598 0.01200473737470067 0  -0.4380275192313923 -0.1418996747291502 0  -1.026994661798154 0.2068058371015827 0  0.383992856498839 -0.8324167134225143 0  0.08316761800787047 -0.3054773450091575 0  0.3054239657339887 0.7716242544781663 0  0.2173561805007723 0.1860048634863429 0  0.5600254242654894 0.01824161399738225 0  -0.4784381176308815 -0.7005404494470258 0  -0.5040667006941291 0.6922764307827723 0  -0.2411908367550784 0.3079787895339406 0  0.9163679209553253 -0.2093788972027479 0  0.8939225696660666 0.248601651822778 0  0.3515780189632713 -0.2148956134215176 0  -0.01251520617872909 0.2349264877262857 0  -0.4920165055567077 0.2094310261015445 0  -0.1874486758203391 -0.2813753950152954 0  0.8599050055121634 0.02440789013672491 0  1.245978089490113 0.03510764485441055 0  0.8035486874131116 -0.3373254959782321 0  0.7169992490208444 -0.1052779298159502 0  0.5841488917946498 -0.2067549591635435 0  0.4392970132503253 -0.07632019321414549 0  0.5134034228623412 -0.3704392774632355 0  0.8620022193326679 -0.08030112142971015 0  0.7122079698118761 0.02116524170926529 0  -0.8585825370329823 0.1201570707117722 0  -1.071634054336108 0.09760496954521902 0  -0.9477718306553462 0.01999669723719654 0  -0.8650785107814765 -0.0918666682763532 0  -1.074973349145876 -0.05531414132219937 0  -1.238782799049515 -0.08442893303321189 0  -1.311218073588146 0.0003060054782954144 0  -1.306987612484829 0.05580457939359434 0  -1.228404880699027 0.1369293642304311 0  -0.1272286685507353 -0.614853434656029 0  -0.2993042973025611 -0.5071935011686727 0  -0.2880743563248686 -0.8463886542461445 0  -0.3083630394117907 -0.2044004616365499 0  -0.4498175702033274 -0.4055677826550736 0  -1.22906898763823 -0.2022265686673405 0  -1.210740093266332 0.2419641992321032 0  0.3834396539170787 -0.5033167221411778 0  0.2151064931591142 -0.2470934283125649 0  0.2443620772024856 -0.562599342361806 0  -0.911133227139457 0.2895208016898246 0  -0.7271330350794243 0.1889426707242349 0  1.26784734000677 -0.07478533488546145 0  1.205072884984264 -0.1724292159240446 0  1.184317792898496 0.2296560799241837 0  1.259332624255213 0.1437489452937997 0  -0.9097665426778238 -0.6559627520621091 0  -1.043276458904435 -0.4488758162495056 0  -1.021086205786504 0.4732108262110936 0  -0.887055261561111 0.661658004533169 0  0.9431076167420533 -0.6012730141998855 0  0.7790244235515006 -0.8210754862193166 0  0.731085718551669 0.7948388204603488 0  0.8982695366696982 0.6088949971398224 0  0.049483960
[...]
<PointData  Vectors="f_22706"> 
<DataArray  type="Float64"  Name="f_22706"  NumberOfComponents="3" format="ascii">-1.4597188866066221e-01 -4.2624641015114846e-03 0.0000000000000000e+00  -1.6019481220181545e-01 -1.0377148518008289e-01 0.0000000000000000e+00  1.5203301961605581e-01 2.0432800035178231e-01 0.0000000000000000e+00  1.0316698560730707e-01 7.2557866638203183e-02 0.0000000000000000e+00  1.0235515029368945e-01 4.0797431231323893e-02 0.0000000000000000e+00  -4.6734937744500597e-02 -3.9416566582309374e-02 0.0000000000000000e+00  -2.9957985802622616e-01 8.6062803038247107e-02 0.0000000000000000e+00  -9.6941306762943213e-02 3.4485864359483859e-01 0.0000000000000000e+00  9.1231491389875390e-03 -5.3531640448529084e-03 0.0000000000000000e+00  -6.5560049890386787e-02 6.1745573652412400e-02 0.0000000000000000e+00  -2.3690496900276592e-01 1.1742016957019205e-01 0.0000000000000000e+00  1.5150225602543510e-02 3.3748543476208502e-02 0.0000000000000000e+00  1.8881571083562093e-01 1.3146911113760637e-01 0.0000000000000000e+00  -7.9235633888461096e-02 -1.2524632748205861e-02 0.0000000000000000e+00  -1.1104539105694404e-01 -3.6658016022742893e-02 0.0000000000000000e+00  -9.6453186826943510e-02 -4.4781884063134610e-02 0.0000000000000000e+00  5.3143900799016409e-02 3.7876383956500344e-02 0.0000000000000000e+00  4.5125899705007622e-01 3.1916363052850599e-01 0.0000000000000000e+00  2.8491903082118980e-01 9.3083946001130749e-02 0.0000000000000000e+00  -6.5150203675505572e-02 -2.6769680286596483e-02 0.0000000000000000e+00  4.8691255385218853e-03 2.4386246650050071e-03 0.0000000000000000e+00  2.3015016380820322e-02 9.9517105180005547e-03 0.0000000000000000e+00  -1.0712285955657659e-02 -5.2701609014775197e-03 0.0000000000000000e+00  -1.6023760007922722e-01 -7.8035530658184360e-02 0.0000000000000000e+00  -3.2660852163330706e-01 -2.1739773719822358e-01 0.0000000000000000e+00  7.4824940332997703e-01 5.2936124289290543e-01 0.0000000000000000e+00  3.5896677965721091e-01 2.1507370890500524e-01 0.0000000000000000e+00  -6.4522458066184868e-02 -4.5011893050594352e-02 0.0000000000000000e+00  2.0104593912073296e-02 1.5960505329029515e-02 0.0000000000000000e+00  4.0300866963679301e-02 3.2382489320153092e-02 0.0000000000000000e+00  3.0199440871785631e-02 2.7261200767484482e-02 0.0000000000000000e+00  4.8535574982449793e-02 4.7997397290671248e-02 0.0000000000000000e+00  1.4777550304621847e-02 1.6383445131292383e-02 0.0000000000000000e+00  2.1696370896054775e-02 2.7010107653659902e-02 0.0000000000000000e+00  4.5497032457798646e-02 6.2419382424872882e-02 0.0000000000000000e+00  2.9868067597716194e-02 4.6751743530016307e-02 0.0000000000000000e+00  2.8947018182339811e-02 5.3074207722589847e-02 0.0000000000000000e+00  2.4850465993389848e-02 5.3422112753559042e-02 0.0000000000000000e+00  1.7969939686824404e-02 4.7683011873515889e-02 0.0000000000000000e+00  1.9675436130174691e-02 6.5252440645708579e-02 0.0000000000000000e+00  4.0091645238194799e-03 1.7961726678428942e-02 0.0000000000000000e+00  3.0944720604963766e-03 2.3255799127941488e-02 0.0000000000000000e+00  2.0110889219636780e-03 2.9102258048777890e-02 0.0000000000000000e+00  -3.7621610393342406e-04 1.5792000298179582e-02 0.0000000000000000e+00  -1.2581607320955230e-03 1.3486797232604958e-02 0.0000000000000000e+00  -3.1449964180928929e-03 1.6926144018757170e-02 0.0000000000000000e+00  -1.4309000445909431e-03 5.5553615263094708e-03 0.0000000000000000e+00  -4.4187988640020954e-03 1.2193523025584819e-02 0.0000000000000000e+00  -5.6673795090954986e-03 1.3199322247960001e-02 0.0000000000000000e+00  -1.2077915976633640e-02 2.2121583674869088e-02 0.0000000000000000e+00  -1.6262361916891236e-02 2.5342358627942773e-02 0.0000000000000000e+00  -1.9952037881111644e-02 2.6613103367000963e-02 0.0000000000000000e+00  -2.5255553409285515e-02 2.9584606480428072e-02 0.0000000000000000e+00  -3.8063563232477851e-02 3.8798854457355286e-02 0.0000000000000000e+00  -3.0045524905930519e-02 2.7649325994788372e-02 0.0000000000000000e+00  -3.8355337500389997e-02 3.2085753935376146e-02 0.0000000000000000e+00  -2.3575782680430118e-02 1.9786981867335313e-02 0.0000000000000000e+00  4.9515028751927544e-02 -3.6460769854309009e-02 0.0000000000000000e+00  -7.8840602996983325e-02 4.8041166033740673e-02 0.0000000000000000e+00  -1.8704968316130353e-02 9.6806423664392224e-03 0.0000000000000000e+00  -4.4226819300428888e-01 2.1356654953766022e-01 0.0000000000000000e+00  -3.9639303426608002e-01 2.0562609863917611e-01 0.0000000000000000e+00  1.2842993530152794e-01 -6.9219767817657943e-02 0.0000000000000000e+00  -1.1958766097009570e+00 2.2784363113889763e-01 0.0000000000000000e+00  -1.4605225159265991e+00 9.4498514886107132e-01 0.0000000000000000e+00  -2.5259589229134827e-01 1.9637671471378876e-01 0.0000000000000000e+00  -1.6735075899080010e-01 6.0289853696235886e-02 0.0000000000000000e+00  -1.2138542430943501e-01 3.7151176235669166e-02 0.0000000000000000e+00  -6.3650332913150820e-01 3.3902829543089058e-01 0.0000000000000000e+00  -4.7943544119395221e-02 3.9281420031553924e-02 0.0000000000000000e+00  2.7204448454279123e-01 3.6858383308193626e-01 0.0000000000000000e+00  8.9382047017470392e-02 6.9217509974037056e-02 0.0000000000000000e+00  -1.1025398422414304e-01 5.9061862243859883e-02 0.0000000000000000e+00  7.3094156210219238e-02 3.4000534726927730e-03 0.0000000000000000e+00  1.5688918552072790e-02 -4.2136367247177899e-03 0.0000000000000000e+00  6.6516908804396091e-02 1.4458099844539954e-02 0.0000000000000000e+00  2.4373984855795952e-01 1.9385601807533182e-01 0.0000000000000000e+00  1.2799848749101062e+00 2.6484665368704757e-01 0.0000000000000000e+00  -4.9679918327361766e-01 -1.2500911766100387e-01 0.0000000000000000e+00  -4.1595227965280906e-03 -2.6891819505082973e-02 0.0000000000000000e+00  1.5612221855232953e-02 1.5237513011775965e-02 0.0000000000000000e+00  -6.9354862733627112e-03 1.4470184556606334e-02 0.0000000000000000e+00  -4.5071666357918974e-03 1.2082217867036551e-03 0.0000000000000000e+00  -3.9540949582866879e-02 1.2740226016422449e-02 0.0000000000000000e+00  -3.7156008800494850e-01 3.5127158888506607e-02 0.0000000000000000e+00  -1.9640905563243777e-01 -7.5062314819106996e-02 0.0000000000000000e+00  -7.3175631479479508e-03 -2.2616039984316065e-03 0.0000000000000000e+00  -8.0573968360736351e-04 -1.2497068631266294e-03 0.0000000000000000e+00  1.6924104200661885e-02 -4.8421661360473689e-03 0.0000000000000000e+00  -5.3039731214060927e-03 1.6404154885350853e-03 0.0000000000000000e+00  -9.2129962205551794e-02 6.8047081656306772e-03 0.0000000000000000e+00  -6.3089625138661051e-02 -3.4901364031764809e-03 0.0000000000000000e+00  -2.3300283029402688e-01 1.7028093378098588e-02 0.0000000000000000e+00  1.7226373651414001e-01 -9.7125511890512517e-01 0.0000000000000000e+00  -3.3776382760221373e-02 1.1413915726993101e-01 0.0000000000000000e+00  -3.2608398309812117e-02 1.7265410545317186e-02 0.0000000000000000e+00  1.4862417527889599e-02 4.3457249623083836e-03 0.0000000000000000e+00  4.6162222139605254e-02 2.5557585616820765e-02 0.0000000000000000e+00  4.8479721200555183e-03 6.5766595227685788e-03 0.0000000000000000e+00  1.9889833241391336e-01 9.5168938803525685e-02 0.0000000000000000e+00  1.2736832883039080e+00 4.7687728856962636e-01 0.0000000000000000e+00  1.8705302683278062e+00 -4.2453617349529855e-02 0.0000000000000000e+00  3.9794831609009260e+00 -9.0269699570001138e-01 0.0000000000000000e+00  -5.7152082424706187e-02 -1.5858470671242980e-01 0.0000000000000000e+00  9.3161347716861098e-01 1.2871044360555264e+00 0.0000000000000000e+00  1.1886832047829032e-01 3.1212888955836973e-02 0.0000000000000000e+00  -2.6635867645674333e-01 -1.3104692996547113e-01 0.0000000000000000e+00  9.9358652930939914e-02 8.3805703116547392e-02 0.0000000000000000e+00  -7.0099263984696292e-02 -1.8304570135980316e-02 0.0000000000000000e+00  1.5502628563253282e-02 6.2032083299973229e-03 0.0000000000000000e+00  9.5749026859451303e-02 6.6539934044445248e-02 0.0000000000000000e+00  4.5314349327047920e-01 4.7624205747518233e-01 0.0000000000000000e+00  1.4505839121942263e-02 1.9008194576550352e-02 0.0000000000000000e+00  -2.5490712866003890e-01 -1.3004853733356553e-01 0.0000000000000000e+00  -3.1533974792243603e-02 -2.3503885513058726e-02 0.0000000000000000e+00  -1.9565426523374661e-03 -1.9163392297250148e-03 0.0000000000000000e+00  -2.3633997220306447e-02 -2.3749711151341040e-02 0.0000000000000000e+00  -1.2701993951723894e-02 -1.5037998530639566e-02 0.0000000000000000e+00  -6.9163614188869635e-03 -9.6280665696155954e-03 0.0000000000000000e+00  -2.5779544128491792e-03 -3.6973049057829181e-03 0.0000000000000000e+00  2.6471811372436160e-03 4.6309026845679337e-03 0.0000000000000000e+00  -3.6716805580838592e-03 -8.5140255877495848e-03 0.0000000000000000e+00  7.7859999874323313e-03 2.3631257313696603e-02 0.0000000000000000e+00  1.8387928300065519e-03 7.4658245949945998e-03 0.0000000000000000e+00  7.7056681390512275e-04 5.6738183498916692e-03 0.0000000000000000e+00  5.1277536912162241e-04 8.4976983465355049e-03 0.0000000000000000e+00  1.9871242605631656e-04 -4.4054558020100807e-03 0.0000000000000000e+00  9.2275088636163238e-04 -6.3429309914077763e-03 0.0000000000000000e+00  7.6295719262340416e-03 -3.4125489721798734e-02 0.0000000000000000e+00  1.6188527129902069e-02 -5.1904338702830510e-02 0.0000000000000000e+00  2.3674089574472455e-02 -5.8316807581374419e-02 0.0000000000000000e+00  3.5340773358569735e-02 -7.0220556308314683e-02 0.0000000000000000e+00  4.6737302487358925e-02 -7.7287393071446636e-02 0.0000000000000000e+00  5.5098350909386251e-02 -7.7323777077646066e-02 0.0000000000000000e+00  7.8576395722889616e-02 -9.5687770896909816e-02 0.0000000000000000e+00  3.9875284926153894e-02 -4.3896736750077318e-02 0.0000000000000000e+00  3.7035263198886788e-02 -3.6192395025506828e-02 0.0000000000000000e+00  9.2638997552531285e-02 -8.0255575855104760e-02 0.0000000000000000e+00  8.6997576488464179e-02 -6.7179931347800412e-02 0.0000000000000000e+00  9.0210884815835057e-02 -6.2141064005138871e-02 0.0000000000000000e+00  5.5152905427411747e-02 -3.5043773017598506e-02 0.0000000000000000e+00  3.1878394886282947e-02 -1.7617129869780285e-02 0.0000000000000000e+00  1.4287037721547549e-01 -7.4491007657650321e-02 0.0000000000000000e+00  5.7865583553472844e-01 -3.1847076062484420e-01 0.0000000000000000e+00  6.4175103636466835e-02 -3.0430219464736868e-02 0.0000000000000000e+00  5.5722249666878155e-03 -4.4791907283934680e-03 0.0000000000000000e+00  3.2870559768839180e-01 -1.1951632500270822e-01 0.0000000000000000e+00  1.0886633923410127e+00 -3.7203442223194516e-01 0.0000000000000000e+00  2.8765922300969522e+00 -6.2878233263859951e-01 0.0000000000000000e+00  1.3168781233411093e+00 -4.0611945120075926e-01 0.0000000000000000e+00  -1.5020120556212500e+00 6.4113192803773131e-02 0.0000000000000000e+00  -4.9209016171701245e+00 -5.0462833306070420e+00 0.0000000000000000e+00  -7.0438572133001487e-01 -1.3438364781513287e-01 0.0000000000000000e+00  -1.1160145206632514e-01 8.2825946826990501e-02 0.0000000000000000e+00  8.9087221126236804e-01 -1.0693854746799694e-01 0.0000000000000000e+00  -6.3172681636569172e-01 -7.4584836024548865e-03 0.0000000000000000e+00  5.8313536680832645e-01 -1.5414612296206781e-01 0.0000000000000000e+00  4.7982220183241570e-01 -6.9399439428106252e-02 0.0000000000000000e+00  4.1986648412541273e-02 8.5251459036885871e-03 0.0000000000000000e+00  1.1482811674409878e-02 5.2241885505190360e-03 0.0000000000000000e+00  4.3146808939836063e-03 1.7601149379387507e-02 0.0000000000000000e+00  6.8720438350834273e-02 2.0416944036087384e-01 0.0000000000000000e+00  9.2206378163484148e-02 1.3498863267681874e-01 0.0000000000000000e+00  -3.1658038538200449e-02 -3.2222615119373389e-02 0.0000000000000000e+00  -1.6546332412453388e-02 -4.9926437426996064e-03 0.0000000000000000e+00  -4.1937195438013275e-02 3.6229285350065296e-02 0.0000000000000000e+00  -1.0012753796702577e-01 9.2138399053413020e-02 0.0000000000000000e+00  -1.3924194896017883e-01 9.3373475646455650e-02 0.0000000000000000e+00  -1.1006624498494626e-09 1.2195826174667931e-08 0.0000000000000000e+00  4.3669728010667016e-08 -2.7666918302087130e-08 0.0000000000000000e+00  -9.6565166916702017e-09 6.4578846195512470e-09 0.0000000000000000e+00  1.1199292142564541e-10 -1.3217072144130892e-09 0.0000000000000000e+00  2.2073163516980528e-08 1.5838113847533218e-08 0.0000000000000000e+00  1.2422411684179788e-08 2.0801359467221713e-08 0.0000000000000000e+00  -1.5271129441958680e-07 7.2728488238485168e-08 0.0000000000000000e+00  -1.0937474253342853e-07 -2.5286847511518417e-08 0.0000000000000000e+00  7.1553104625090171e-08 -2.4908320353610017e-08 0.0000000000000000e+00  3.9689212037478001e-07 1.4081903819719652e-08 0.0000000000000000e+00  -6.7774943892114099e-14 6.3542586359152708e-14 0.0000000000000000e+00  4.0952590336888659e-14 6.3169050195080750e-14 0.0000000000000000e+00  -1.1417475672292707e-07 6.4021414027309382e-08 0.0000000000000000e+00  2.7224194357071446e-08 -4.4285210205175927e-08 0.0000000000000000e+00  9.3620777270101151e-15 -2.9356089152602231e-14 0.0000000000000000e+00  1.6061030138400667e-08 2.9368614214762364e-08 0.0000000000000000e+00  2.3211817481804914e-14 2.6102192048981835e-14 0.0000000000000000e+00  1.7500914775752610e-13 -5.6734456201226717e-14 0.0000000000000000e+00  -1.4018851724529959e-08 -1.2559243375573831e-08 0.0000000000000000e+00  -1.9012407868564004e-08 2.1828257068416129e-08 0.0000000000000000e+00  -1.0331418849220175e-14 2.1406315135416196e-14 0.0000000000000000e+00  8.3422579983595660e-07 -2.4970379245424779e-07 0.0000000000000000e+00  9.4932535449257928e-09 4.4162620586907909e-09 0.0000000000000000e+00  6.0629480664107332e-14 -5.8765153742298592e-14 0.0000000000000000e+00  9.3721376914509886e-15 3.5625852136526842e-14 0.0000000000000000e+00  -3.3933392508117112e-14 2.4707522203462204e-14 0.0000000000000000e+00  -5.1106449118120778e-15 -7.5682485111414337e-15 0.0000000000000000e+00  -1.4871083391346897e-13 -1.1575505005050944e-13 0.0000000000000000e+00  4.6032582895077826e-09 2.3228568953598752e-08 0.0000000000000000e+00  7.8913806372202674e-08 -3.7575880888636724e-08 0.0000000000000000e+00  3.4320075490225177e-10 -1.1664446640794328e-10 0.0000000000000000e+00  1.1970650461418682e-10 -6.4160179382842136e-11 0.0000000000000000e+00  7.4268862923156243e-14 -4.6705483518334579e-14 0.0000000000000000e+00  5.7627252453867949e-11 -4.4856172442532698e-11 0.0000000000000000e+00  -2.1778242262888232e-10 -1.7325355567080730e-10 0.0000000000000000e+00  8.2478314380159483e-13 -2.8550329972054738e-13 0.0000000000000000e+00  -1.2480099191738844e-10 7.7224723508377345e-11 0.0000000000000000e+00  -2.9675617197316094e-08 2.6018861557139920e-08 0.0000000000000000e+00  1.2355465527054349e-11 -4.4690383541942705e-11 0.0000000000000000e+00  8.5886090252823665e-10 -1.3600131220162062e-10 0.0000000000000000e+00  5.5305238486054831e-09 -2.4752397585985186e-09 0.0000000000000000e+00  -1.4917455661842480e-06 -1.5315105592843129e-05 0.0000000000000000e+00  -4.4869755591014459e-05 7.6771670442547488e-06 0.0000000000000000e+00  -1.0930284048009247e-04 -1.6002160427468473e-05 0.0000000000000000e+00  1.3077306619868419e-05 1.2532548577679493e-06 0.0000000000000000e+00  -3.1124596631121877e-13 -8.7126405250596318e-15 0.0000000000000000e+00  -9.2825679055152268e-12 -1.1036675311085304e-11 0.0000000000000000e+00  -2.5237783041835983e-09 -3.9143092226818132e-09 0.0000000000000000e+00  -2.2631373806450957e-14 -1.8482184497116523e-14 0.0000000000000000e+00  -4.0581674840404543e-11 -2.0642957903282473e-11 0.0000000000000000e+00  4.7935296536595410e-05 9.3511952139198895e-06 0.0000000000000000e+00  -5.6295407831140965e-06 2.3487973625534616e-05 0.0000000000000000e+00  4.2415986365435111e-11 -5.3249229956583304e-11 0.0000000000000000e+00  3.8393938316612516e-14 -6.1855599369460927e-14 0.0000000000000000e+00  1.9567141734655718e-11 -4.3926418098314917e-11 0.0000000000000000e+00  -2.4832263264822617e-07 1.1209056476204288e-07 0.0000000000000000e+00  -2.0053606867804136e-10 7.0303546652595314e-11 0.0000000000000000e+00  4.3153698637261925e-05 -1.1195357682129502e-06 0.0000000000000000e+00  1.5123968111379355e-04 -3.3012139311341537e-05 0.0000000000000000e+00  -2.2702379314023002e-05 -5.8568280755739621e-06 0.0000000000000000e+00  -1.2375415570372308e-05 1.3089669912622279e-05 0.0000000000000000e+00  3.2572811334712920e-05 3.1626559060891526e-05 0.0000000000000000e+00  -6.1551614590226266e-05 -3.2704997928077735e-05 0.0000000000000000e+00  -6.4150136712913940e-05 2.6166935194400598e-05 0.0000000000000000e+00  -2.8566135784534699e-05 1.5127997106999023e-05 0.0000000000000000e+00  5.9471993580420061e-05 -3.1567240916654015e-05 0.0000000000000000e+00  3.7260135876314444e-05 -2.8792294561567766e-05 0.0000000000000000e+00  1.5059804958899467e-05 1.3349950955155425e-05 0.0000000000000000e+00  1.0069562694350603e-04 6.3249559043206723e-05 0.0000000000000000e+00  7.0446789739833440e-07 -5.2701243400847968e-06 0.0000000000000000e+00  5.2726164718266617e-07 2.1118557564358167e-06 0.0000000000000000e+00  -1.9161543285420612e-06 6.9817353595127519e-06 0.0000000000000000e+00  8.9218792623551597e-07 1.3273694124279705e-05 0.0000000000000000e+00  3.3411971648669235e-08 -3.2285924206349367e-08 0.0000000000000000e+00  4.2692760947242119e-14 3.0785192665994426e-14 0.0000000000000000e+00  1.2043844198182394e-10 7.9809827373195100e-11 0.0000000000000000e+00  2.1919203423457200e-11 1.9671628631531884e-11 0.0000000000000000e+00  6.2742019865987407e-11 6.7750201421457703e-11 0.0000000000000000e+00  5.6037805030266822e-15 2.0922800966213556e-14 0.0000000000000000e+00  -2.2692690228210391e-11 -2.6325234862206748e-11 0.0000000000000000e+00  2.4669243055677207e-14 4.5404653405949560e-14 0.0000000000000000e+00  1.3601421529450956e-17 2.7685502525336131e-17 0.0000000000000000e+00  4.5697871322415591e-17 -1.2535475094229548e-17 0.0000000000000000e+00  9.4175844393574321e-04 -1.7592568433416562e-04 0.0000000000000000e+00  -8.2383422629222513e-05 4.0371037342914192e-05 0.0000000000000000e+00  1.4557139792779437e-07 -3.9857596032850349e-08 0.0000000000000000e+00  -1.1798451736399571e-11 -5.6446481654834914e-12 0.0000000000000000e+00  -2.5613094719086254e-08 -1.2792738209811935e-08 0.0000000000000000e+00  8.0909780043538843e-11 4.2672198936855141e-11 0.0000000000000000e+00  2.2248287324927893e-11 3.1780773078757862e-11 0.0000000000000000e+00  1.5085399871517904e-08 1.6789306574095387e-08 0.0000000000000000e+00  1.5974928695227591e-12 -8.2661854603822292e-12 0.0000000000000000e+00  5.4812087041283608e-09 -1.9036070775507902e-08 0.0000000000000000e+00  -1.5932043197024176e-11 2.3824105881331067e-11 0.0000000000000000e+00  -3.5072964640061543e-12 1.2883647099500349e-11 0.0000000000000000e+00  -6.0930818295984322e-09 1.2872294885000657e-08 0.0000000000000000e+00  1.5249484097856056e-16 -9.0204992739448613e-17 0.0000000000000000e+00  4.2751854059135549e-16 -3.0976588566510336e-15 0.0000000000000000e+00  2.9227615801865246e-05 -3.6445714656828955e-05 0.0000000000000000e+00  1.1599035177074793e-05 -2.7104333782035607e-05 0.0000000000000000e+00  8.8639830591181855e-06 2.2607675495370209e-05 0.0000000000000000e+00  1.5558741076251881e-05 2.1902597695473238e-05 0.0000000000000000e+00  2.6969958393536644e-19 1.4604905976945680e-17 0.0000000000000000e+00  1.4059731490842109e-11 3.5695107093149180e-11 0.0000000000000000e+00  5.0388994308954149e-09 1.9941085485543631e-08 0.0000000000000000e+00  -5.1826475425687708e-06 -6.3426430040882809e-06 0.0000000000000000e+00  -2.5544621440119885e-05 -1.6335114461894775e-05 0.0000000000000000e+00  3.0184139141203690e-08 4.0324108446056688e-08 0.0000000000000000e+00  -1.5860926789938336e-05 1.4654781489851022e-05 0.0000000000000000e+00  -9.2727275081784169e-06 1.3995484071274873e-05 0.0000000000000000e+00  -1.6952074847796212e-08 1.2907406320781037e-08 0.0000000000000000e+00  -2.0317326767675221e-13 9.3432219956340490e-14 0.0000000000000000e+00  -4.5847997593489885e-11 2.3365044428225947