<?xml version="1.0"?>
<VTKFile type="UnstructuredGrid"  version="0.1"  >
<UnstructuredGrid>
<Piece  NumberOfPoints="2549" NumberOfCells="4928">
<Points>
<DataArray  type="Float64"  NumberOfComponents="3"  format="ascii">1.472048563464113 0.03275017633872893 0  1.467566951039106 0.05577278130275784 0  1.443784240974115 0.06476106259206252 0  1.431463593663947 0.08087416782349582 0  1.426198377913818 0.09292960300610419 0  1.421565923199456 0.1164090519565248 0  1.401875667178485 0.1208519682201372 0  1.370467013386172 0.1255141313763416 0  1.39234255929955 0.1534031918676487 0  1.412635445351124 0.3596556003412359 0  1.383747337550984 0.1761595477206727 0  1.376270013932423 0.214890342196215 0  1.338326814123688 0.2321336723850538 0  1.335554769552484 0.2595773469887553 0  1.332181328987288 0.2909090332488011 0  1.313709665086112 0.3233839312107532 0  1.304781977590613 0.3575233962144381 0  1.285673359889233 0.3684745641249056 0  1.271796218130758 0.4201579111092752 0  1.259408104120724 0.4599193898584925 0  1.240123298612477 0.5044976688459996 0  1.221981173481383 0.5498431348810151 0  1.200098836203384 0.5973740028290567 0  1.176204886092784 0.6485487975455383 0  1.151570812798027 0.7039865246002168 0  1.113168992627849 0.7386885078703646 0  1.085226185108959 0.7935365921105321 0  1.052026435640158 0.8497801703319522 0  1.01172542664914 0.9034079016693686 0  0.9690087058988437 0.9590663466282198 0  0.9220523624623943 1.013817537707025 0  0.870103690030525 1.069079892384587 0  0.814504445328932 1.121794498558198 0  0.7556115290572852 1.17142100019283 0  0.6899263942970583 1.222212139671678 0  0.6213064869799699 1.26922456562419 0  0.5474169573982498 1.312643556784535 0  0.4695736887891641 1.352098163775894 0  0.3879005685234481 1.386212725956736 0  0.3024076324012029 1.415432668243453 0  0.214259342263567 1.438106703489198 0  0.1246330686098655 1.453438008862296 0  0.0325499406745538 1.463363980848159 0  -0.05956403007772101 1.465146794504337 0  -0.1518236120235212 1.459874995207235 0  -0.2427486629570773 1.446759855071284 0  -0.3319046140425284 1.4272437790671 0  -0.4183217171707582 1.398888039506273 0  -0.5006353483171708 1.367448442715258 0  -0.5803501845269865 1.329195075100426 0  -0.6553474376415778 1.284059718006167 0  -0.7257550124347382 1.235966616016604 0  -0.7910764196913381 1.183508215448355 0  -0.8520298345387414 1.128364503818537 0  -0.9065223342903649 1.071541379755385 0  -0.9598713223108103 1.010868409095616 0  -1.002319429056727 0.9579808109955789 0  -1.047201566849959 0.9040926345731261 0  -1.086244338912424 0.8423319076695879 0  -1.120286091148635 0.784365417097217 0  -1.149782730883576 0.728416387757076 0  -1.174065787123357 0.6683566042384437 0  -1.204549665552641 0.6269624483722112 0  -1.219518104997136 0.5511020020301158 0  -1.220695235740454 0.5115774578191942 0  -1.26353987281759 0.4994531804495767 0  -1.278433686426327 0.4491307901406759 0  -1.288043523566963 0.4104438314126233 0  -1.295840917460638 0.3721463570303502 0  -1.320911389945501 0.3498329451576956 0  -1.328806669767714 0.3002138207683918 0  -1.309539739593945 0.3260513453527564 0  -1.376239655426981 0.2886936535066679 0  -1.370584195063741 0.1935930840362559 0  -1.368204397304642 0.16869998786463 0  -1.372188631634007 0.1356277117250669 0  -1.385839559098686 0.1185376183598244 0  -1.395410342329506 0.08594473979117018 0  -1.396519414160039 0.1109842757440357 0  -1.379227723547378 0.02439888301117088 0  -1.406262215784344 0.09474723015399333 0  -1.43889738943289 0.1533709006931681 0  -1.471187178817731 0.07634510510782175 0  -1.479458759699163 0.04708710543972715 0  -1.502893805324544 0.01914657045982246 0  -1.485342258484032 -0.007019484526100126 0  -1.468609172862622 -0.03960022434060941 0  -1.291110810552025 -0.4231579402372234 0  -1.392210805012454 -0.04208130011551527 0  -1.590436428168992 0.3328860051021528 0  -1.436943379857057 -0.06385108469407853 0  -1.455550770325037 0.009223343532330038 0  -1.413709304869855 -0.1253557243563313 0  -1.388929034046302 -0.08846538783423856 0  -1.372487581542555 -0.1013292254467671 0  -1.379384728171935 -0.1238484958854315 0  -1.397384488370476 -0.2405238976625657 0  -1.326420325400511 -0.347135292785445 0  -1.359107983561819 -0.2401960117429024 0  -1.356320612485829 -0.2982156903794564 0  -1.321639024374408 -0.3248368987348378 0  -1.32792161544938 -0.3627486737429889 0  -1.326671536351501 -0.4028937085691069 0  -1.346987794553424 -0.4508101259531877 0  -1.236216903085796 -0.4669463784084237 0  -1.206691422306663 -0.5000037601839519 0  -1.251837051551724 -0.6186775107156276 0  -1.198437630161285 -0.6373543139441621 0  -1.188401324741859 -0.7024708868701359 0  -1.161516075942626 -0.765856182322853 0  -1.141576469790448 -0.8297435329537474 0  -1.095989692601954 -0.909313028696322 0  -1.03163340499167 -0.9341435595335594 0  -1.009102168930642 -1.007625756118455 0  -0.9543379645157463 -1.090052136183365 0  -0.8973178134585452 -1.144093905180333 0  -0.8364060813011103 -1.212929592044339 0  -0.7694987930491671 -1.272106377987055 0  -0.6971463341161241 -1.329365854326679 0  -0.6175310915611423 -1.381984308753766 0  -0.5353513734704117 -1.430314625082521 0  -0.4495885594062994 -1.467824765889774 0  -0.3564550457061787 -1.503217053098179 0  -0.2623967049903533 -1.530425904500531 0  -0.1642689574655215 -1.548811966355138 0  -0.06498695306823686 -1.558750762509726 0  0.03520060734210145 -1.55967964052731 0  0.1349789227575746 -1.551640006875229 0  0.2334197975090026 -1.534805173627042 0  0.3292766981382794 -1.50952577935704 0  0.4220248656474026 -1.476767252726506 0  0.5107766997406393 -1.436795064840766 0  0.5947738398503946 -1.390651325079373 0  0.674031502645675 -1.338935185541676 0  0.7466432449817074 -1.283365715748327 0  0.8167021018717864 -1.222468830418192 0  0.8764539452251321 -1.165732734161735 0  0.9335460513102054 -1.104347686496132 0  0.9873555383783253 -1.039061395294927 0  1.034143975911855 -0.975125530668661 0  1.076493095017545 -0.9109116663328488 0  1.114760303573021 -0.8484856102967431 0  1.147558778190581 -0.7860437538238385 0  1.175930056303225 -0.7250715666999867 0  1.207475230060769 -0.6795462357603103 0  1.230568025931615 -0.620105040236804 0  1.253624494715595 -0.5640939453881674 0  1.27001865257943 -0.5099056261342053 0  1.285772800078312 -0.4619386748189881 0  1.289382442111213 -0.4067504887160147 0  1.313867079652327 -0.3792889146552035 0  1.313151112259878 -0.2989127898257987 0  1.295373677005409 -0.3166320106398443 0  1.346239503191152 -0.2722882553246493 0  1.36489928153398 -0.2239702526552328 0  1.359296528241839 -0.1927211566489522 0  1.364643835959046 -0.1632008313087556 0  1.374234160680262 -0.1349551375003251 0  1.372242731991422 -0.100658604265603 0  1.829427426308471 0.4325632722641041 0  1.407613811969032 -0.07946615866502649 0  1.401687134940594 -0.08696231106658289 0  1.40980377397698 -0.05606643729712521 0  1.429005175483785 -0.04256605500220149 0  1.428563424524426 -0.02256200897748329 0  1.438271362815609 -0.011286841162113 0  1.445142602955162 0.004116511587690629 0  1.464924674504674 0.01237122444884892 0  -0.09701111525364763 0.8856829364647099 0  0.6902146121855957 -0.504697919750144 0  -0.8051667605273101 -0.3870271159743044 0  -0.07405388527982484 -0.9453199069281413 0  0.6507990765967899 0.4978618396763803 0  1.089089402300209 0.1171601017132022 0  -0.7944935583970618 0.4038601140133679 0  -1.156008016615982 0.02762010228837999 0  1.099551865296733 -0.06209198559421431 0  -1.037750775225488 -0.1768412054558573 0  -0.7329879309207967 0.01328803582565106 0  -0.4385671726593721 -0.140687469988111 0  -1.027876149326172 0.2083917347970107 0  0.3823440651469591 -0.8318006906148572 0  0.08378613820971739 -0.3049730095520121 0  0.3062960604120147 0.7700415204728775 0  0.2186371069301473 0.1849475690001499 0  0.5618191145404089 0.01777742862782286 0  -0.4802862597621635 -0.6983865150244088 0  -0.503268790888546 0.6913147356770269 0  -0.2399358465417775 0.306575239795051 0  0.9178161690582858 -0.2108400391746577 0  0.8961855595257304 0.2476885337991966 0  0.3527501268389224 -0.2146251622857934 0  -0.01110113726675679 0.2325641862106422 0  -0.4917009237214912 0.2094632852840267 0  -0.1879905695031222 -0.2805733388842447 0  0.8619975979593797 0.02333279728952086 0  1.248701754315201 0.03330431579287897 0  0.8043454986094405 -0.3384499643869419 0  0.7186833649253067 -0.1060518908510914 0  0.5854408986791108 -0.2071001478839773 0  0.4408282086747304 -0.07644663045142909 0  0.5140311572567966 -0.3704668562817253 0  0.8638611970355132 -0.08148170411280495 0  0.7141603458645729 0.02041251168513782 0  -0.8593087956446972 0.1215018328562598 0  -1.072772616382758 0.09946276050287575 0  -0.9487461806527462 0.0216400235673669 0  -0.8661241969569038 -0.09030774557152006 0  -1.075967142862125 -0.0533875694098293 0  -1.239346547394051 -0.08203933305375583 0  -1.312714667227227 0.002931258497138071 0  -1.309368654989152 0.05813332945178848 0  -1.230085519849227 0.1389566996229968 0  -0.1288423089054997 -0.6131020250163337 0  -0.3009425509617115 -0.5052925809151702 0  -0.2900473587446388 -0.8441895032721077 0  -0.3088106366341611 -0.2033466832152651 0  -0.4512844202698856 -0.4036681515370171 0  -1.229577879533568 -0.2001346531308423 0  -1.211980087085512 0.2438743071900235 0  0.3834168846585685 -0.502840697821924 0  0.216119564531865 -0.2466215060134331 0  0.243939039297225 -0.5616949264130094 0  -0.9115804045957655 0.2906956910832802 0  -0.7274721039751686 0.1898252520321916 0  1.269763187932095 -0.07670201655931912 0  1.206773900841353 -0.1748108374941421 0  1.186808973659838 0.2282968295197223 0  1.26222213720625 0.1419072763557319 0  -0.9114954407155195 -0.6543622559876768 0  -1.045165974352322 -0.4475099461430778 0  -1.021074091649555 0.4744407817438452 0  -0.8863817058096051 0.6622161880010056 0  0.9423902787518045 -0.6031389071754135 0  0.7772574379375556 -0.8222216911112192 0  0.7320948026572031 0.7939192765570269 0  0.8998849813481054 0.608135160369761 0  0.04677
[...]
<PointData  Vectors="f_27475"> 
<DataArray  type="Float64"  Name="f_27475"  NumberOfComponents="3" format="ascii">-1.3711783096519078e-01 -2.3715636301497887e-02 0.0000000000000000e+00  -7.1934205070901674e-02 -7.5002559352142006e-02 0.0000000000000000e+00  2.1018080201257730e-01 3.0035006767532985e-01 0.0000000000000000e+00  9.1487154566775350e-02 9.0728559959318639e-02 0.0000000000000000e+00  1.0643715461562595e-01 -1.0035562524831391e-02 0.0000000000000000e+00  1.3215397071069959e-01 -9.2043230132665160e-02 0.0000000000000000e+00  -7.1733777542381347e-02 -2.2496108056582803e-01 0.0000000000000000e+00  -3.6415665846654643e-01 -5.7911474860403211e-01 0.0000000000000000e+00  -5.9266088441819791e-02 9.2935830675912306e-03 0.0000000000000000e+00  -7.2905091129867622e-02 8.2082590220003571e-03 0.0000000000000000e+00  -2.2774090147471734e-01 -1.1391802217071722e-03 0.0000000000000000e+00  4.6069119368809412e-02 -7.3669541936850477e-02 0.0000000000000000e+00  5.9809109017828777e-01 3.4004563419009709e-01 0.0000000000000000e+00  -1.1361675667062390e-01 -2.3598528981288536e-01 0.0000000000000000e+00  -3.1038271999584693e-01 -1.9662031653892792e-01 0.0000000000000000e+00  -2.6724317885426269e-01 -1.0096189625116461e-01 0.0000000000000000e+00  3.0602788501288786e-01 2.4287370715228079e-01 0.0000000000000000e+00  8.7706515725588174e-01 6.2915242224468748e-01 0.0000000000000000e+00  4.0681290681777516e-01 -7.9294527354154109e-03 0.0000000000000000e+00  -7.1363583083856943e-02 -1.3135187576250634e-01 0.0000000000000000e+00  2.9223533257843246e-02 -4.2859389186949651e-03 0.0000000000000000e+00  7.7674315693271948e-02 4.2245628056047937e-02 0.0000000000000000e+00  1.9654966337404753e-02 4.2073751170831238e-02 0.0000000000000000e+00  -3.1876387408084922e-01 -9.6394690809914946e-02 0.0000000000000000e+00  -2.7123259988736131e-01 -3.6006715065811878e-01 0.0000000000000000e+00  1.2350759831735256e+00 1.0730639004982072e+00 0.0000000000000000e+00  8.0402176670227288e-01 4.2956960278783107e-01 0.0000000000000000e+00  -7.8278812493491723e-02 -1.2592874944625101e-01 0.0000000000000000e+00  2.8138217808905859e-02 1.3912204960363500e-02 0.0000000000000000e+00  8.0468840354714744e-02 5.9354852707425777e-02 0.0000000000000000e+00  4.5723077715210780e-02 3.9472049300510008e-02 0.0000000000000000e+00  7.6919688312309525e-02 7.1732550089720321e-02 0.0000000000000000e+00  3.0401558610102859e-02 2.9395975908438291e-02 0.0000000000000000e+00  3.5193847288238309e-02 4.2205980375177636e-02 0.0000000000000000e+00  7.0276879651182428e-02 9.3432424113128840e-02 0.0000000000000000e+00  5.2376181879800553e-02 7.5610711771886621e-02 0.0000000000000000e+00  4.6945120364189644e-02 8.1901023214959470e-02 0.0000000000000000e+00  4.3690177865834137e-02 8.6194555757103261e-02 0.0000000000000000e+00  3.0282817555622898e-02 7.4844595582382073e-02 0.0000000000000000e+00  3.3441816752560853e-02 9.9454688438859254e-02 0.0000000000000000e+00  1.0397565716423959e-02 3.1303528532913773e-02 0.0000000000000000e+00  5.4011785052781990e-03 3.4732995966851400e-02 0.0000000000000000e+00  5.6542490514309100e-03 4.4159878338141965e-02 0.0000000000000000e+00  1.3166468989528020e-04 2.3460042952501835e-02 0.0000000000000000e+00  -2.9173257152704591e-04 1.7262873276798558e-02 0.0000000000000000e+00  -4.5518308533251525e-03 2.3417094128621297e-02 0.0000000000000000e+00  8.9394146297959876e-05 2.9487132164821854e-03 0.0000000000000000e+00  -5.9245037595339889e-03 1.2617083684798837e-02 0.0000000000000000e+00  -9.4134764248557795e-03 2.0510843276282893e-02 0.0000000000000000e+00  -1.3313074582846534e-02 2.0177522641082982e-02 0.0000000000000000e+00  -2.0827367705061283e-02 2.9034999779232792e-02 0.0000000000000000e+00  -2.6695325677607375e-02 3.1490486195819692e-02 0.0000000000000000e+00  -3.4110199850290221e-02 3.6711679189816833e-02 0.0000000000000000e+00  -5.1277240742669074e-02 4.8299177876155203e-02 0.0000000000000000e+00  -3.9413896603358305e-02 3.4886079570606056e-02 0.0000000000000000e+00  -5.9359779552835869e-02 4.8842276132778202e-02 0.0000000000000000e+00  -3.6062072356720543e-02 3.0300305045102820e-02 0.0000000000000000e+00  5.6227019038420950e-02 -6.0123018946859549e-02 0.0000000000000000e+00  -8.2490020715571474e-02 4.8288556930940495e-02 0.0000000000000000e+00  -1.8520814170876598e-02 -1.0453486237395168e-04 0.0000000000000000e+00  -6.7200408787737820e-01 3.1549289197771541e-01 0.0000000000000000e+00  -8.6278670140428648e-01 4.4363235796045120e-01 0.0000000000000000e+00  -7.5100353687539811e-02 -3.4002384288337273e-01 0.0000000000000000e+00  -1.2351645843771715e+00 -2.7055985231122714e-01 0.0000000000000000e+00  -1.9862555525233976e+00 7.2240964620077419e-01 0.0000000000000000e+00  -5.1540406003974126e-01 2.7006148650098621e-01 0.0000000000000000e+00  -1.3111661823324142e-01 2.5526809412401397e-01 0.0000000000000000e+00  -2.9217721238120375e-01 4.4113527866115720e-02 0.0000000000000000e+00  -6.8548730480529230e-01 4.3772985311827373e-01 0.0000000000000000e+00  3.4508468936925517e-02 1.9288639789623174e-01 0.0000000000000000e+00  1.7471347505011099e+00 8.5798853663374794e-02 0.0000000000000000e+00  1.6601630600089107e-01 1.1466707585923890e-01 0.0000000000000000e+00  -9.2024257112545291e-02 6.1711344645916918e-02 0.0000000000000000e+00  9.5887704854544561e-03 1.1323492995696098e-01 0.0000000000000000e+00  1.7839316224272270e-01 -9.8374873414693559e-02 0.0000000000000000e+00  5.9972052628470399e-02 -2.3225542502281919e-02 0.0000000000000000e+00  6.7619547172400185e-01 -4.9826365899043407e-01 0.0000000000000000e+00  -6.6102432208346357e-02 -7.8717248842269508e-02 0.0000000000000000e+00  -1.0718702115328289e+00 -1.3576022903327575e-01 0.0000000000000000e+00  5.5435793528202493e-02 1.4397296277796125e-02 0.0000000000000000e+00  -2.7869058748459692e-03 2.5736371068535192e-02 0.0000000000000000e+00  -2.5528406151631172e-01 3.5726152827381404e-02 0.0000000000000000e+00  -8.4688054023595277e-02 5.2683114562778613e-03 0.0000000000000000e+00  -4.2091534840533656e-01 2.7599492262742814e-01 0.0000000000000000e+00  -4.9431742805602263e-01 2.0938860029429160e-01 0.0000000000000000e+00  2.7550453349214726e-02 2.0130804291470475e-01 0.0000000000000000e+00  -2.3809994996964141e-02 -2.5466988820967216e-03 0.0000000000000000e+00  -3.2308014937033037e-03 -1.5505726498642178e-03 0.0000000000000000e+00  -1.4432019758325545e-04 7.3490397783104624e-04 0.0000000000000000e+00  -5.0055217536950436e-03 -2.5027673212778606e-03 0.0000000000000000e+00  1.2491831860657442e-01 4.1418980639201353e-02 0.0000000000000000e+00  3.9418161669509573e-02 1.7458959294308348e-02 0.0000000000000000e+00  7.0802362808912556e-02 3.5410828621076543e-02 0.0000000000000000e+00  2.6155650912110969e-02 -2.8648324817769827e-02 0.0000000000000000e+00  6.0287952055192018e-01 2.0520732505254374e-01 0.0000000000000000e+00  -4.9412268211037266e-03 2.2331130044668062e-02 0.0000000000000000e+00  1.9416511105659610e-02 1.0165968507211312e-02 0.0000000000000000e+00  8.1106886494732286e-02 2.9584274143088073e-02 0.0000000000000000e+00  2.0483973718844867e-01 4.1487017465935527e-02 0.0000000000000000e+00  4.9292327950556651e-02 -3.2040845409234461e-03 0.0000000000000000e+00  3.3833319739625767e-01 2.6330254554209679e-02 0.0000000000000000e+00  8.6315744981930245e-02 -7.7156850758067774e-02 0.0000000000000000e+00  -3.4995990001149396e-01 7.0232944666936498e-02 0.0000000000000000e+00  -2.0110220174022328e-01 1.0011856478994549e-01 0.0000000000000000e+00  9.6926284951838304e-01 9.4255454140427064e-01 0.0000000000000000e+00  -8.8240757062170355e-02 -9.5628207579022947e-02 0.0000000000000000e+00  -7.0264630376962611e-01 -4.9560926187635379e-01 0.0000000000000000e+00  -2.4559311435122205e-01 1.2596488167051903e-01 0.0000000000000000e+00  -4.2913006378748242e-01 -9.2258018677879999e-03 0.0000000000000000e+00  -7.4154124263356672e-02 3.7529015599657760e-02 0.0000000000000000e+00  -8.8661490427473996e-02 7.4556002949485917e-02 0.0000000000000000e+00  3.5884231329442384e-01 4.6900759075478876e-01 0.0000000000000000e+00  -1.5202440558671756e-01 -1.4166088661307832e-01 0.0000000000000000e+00  -4.6440513919418852e-01 -1.7977226661226475e-01 0.0000000000000000e+00  -3.1059030773205303e-02 3.1962917707623287e-02 0.0000000000000000e+00  1.1956798365751224e-03 1.0104726489924309e-02 0.0000000000000000e+00  -6.9886598642116243e-02 -6.3856394838263900e-02 0.0000000000000000e+00  -2.5647298083013217e-02 -2.4663407878128100e-02 0.0000000000000000e+00  -2.2318611345397064e-02 -2.6220205789958272e-02 0.0000000000000000e+00  -1.1988598907553247e-02 -1.3326248166828434e-02 0.0000000000000000e+00  -3.1734734627745847e-03 -4.2781348696871923e-03 0.0000000000000000e+00  -6.2403560582114303e-03 -9.9133256649978543e-03 0.0000000000000000e+00  6.3169072170355511e-03 2.3170721651237364e-02 0.0000000000000000e+00  1.7170054893500023e-03 7.1562589714068842e-03 0.0000000000000000e+00  9.7041419620005475e-04 6.9122050509260154e-03 0.0000000000000000e+00  1.6616061635370486e-03 9.2948310357152276e-03 0.0000000000000000e+00  1.7932921256675076e-03 -5.3439198879072433e-03 0.0000000000000000e+00  4.1619517528721185e-03 -9.4183335506459222e-03 0.0000000000000000e+00  1.3824694075870550e-02 -4.6773073766990400e-02 0.0000000000000000e+00  2.4460440314926373e-02 -6.7937382691396361e-02 0.0000000000000000e+00  3.5604759242620257e-02 -7.7776485504088888e-02 0.0000000000000000e+00  5.2444075209182935e-02 -9.5908556499649245e-02 0.0000000000000000e+00  6.5569803052135819e-02 -1.0122705805749495e-01 0.0000000000000000e+00  8.1931372076898434e-02 -1.0780866408881054e-01 0.0000000000000000e+00  1.0099056017488460e-01 -1.1975799324710636e-01 0.0000000000000000e+00  5.7461964792146034e-02 -6.0922146998002691e-02 0.0000000000000000e+00  6.7350403871736533e-02 -6.0185502518434263e-02 0.0000000000000000e+00  1.2135872446184696e-01 -9.9494453404190594e-02 0.0000000000000000e+00  1.1750135418685718e-01 -8.6882751309128564e-02 0.0000000000000000e+00  1.1971296294484766e-01 -7.9423227516294506e-02 0.0000000000000000e+00  8.3397634292516981e-02 -5.0740968670464071e-02 0.0000000000000000e+00  3.3181242990148130e-02 -3.7960339219510935e-03 0.0000000000000000e+00  4.6642064862777349e-01 -2.3743882456808033e-01 0.0000000000000000e+00  8.4993965397428550e-01 -5.0334805871468080e-01 0.0000000000000000e+00  -1.7368696016221449e-01 1.3854239353591413e-01 0.0000000000000000e+00  -9.4981595133801389e-02 3.0373097289723101e-02 0.0000000000000000e+00  2.2756037407220023e-01 -6.7891572933388322e-02 0.0000000000000000e+00  3.7212059710748008e-01 -2.6037148344722399e-02 0.0000000000000000e+00  2.5493943037628588e+00 -4.2673803507402797e-01 0.0000000000000000e+00  2.2640770120328479e+00 -9.1505114400247489e-01 0.0000000000000000e+00  2.1463525337103076e-01 -3.1996199527732355e-01 0.0000000000000000e+00  -2.6356735268039797e+00 3.8280278671565242e-02 0.0000000000000000e+00  -9.7716541735387824e-02 -3.2362709710091375e-01 0.0000000000000000e+00  -1.4259007754017522e-01 4.4779517988419816e-02 0.0000000000000000e+00  2.7195113658995707e-01 -2.3578354404481909e-02 0.0000000000000000e+00  -2.7171290870465936e-01 -4.3543799774392551e-02 0.0000000000000000e+00  2.1201673315421660e-01 -7.4645098595391363e-03 0.0000000000000000e+00  1.9216410552242794e-01 -3.0040517885054324e-02 0.0000000000000000e+00  -1.7795137346471722e-02 1.0220716027723044e-02 0.0000000000000000e+00  -5.1468377223350421e-03 3.6860302289267264e-03 0.0000000000000000e+00  1.6091246615408231e-02 -1.4783266795825202e-02 0.0000000000000000e+00  -1.0904445182264868e+00 1.2669920699867918e-02 0.0000000000000000e+00  -3.2851621692527355e-01 4.6459495744062558e-02 0.0000000000000000e+00  -9.4530733064902311e-02 2.1282323197681113e-01 0.0000000000000000e+00  2.2033001316541762e-01 -1.3204496767036100e-01 0.0000000000000000e+00  1.0616922317306515e-01 -2.1614252525587868e-01 0.0000000000000000e+00  5.4252952052370385e-01 -6.6984799352048641e-01 0.0000000000000000e+00  3.9531138047797294e-02 -6.7001945418481881e-02 0.0000000000000000e+00  5.0974706818450168e-05 5.7295689424225106e-06 0.0000000000000000e+00  5.4786331049686823e-06 4.8858300224003846e-06 0.0000000000000000e+00  4.3866186235645059e-06 -7.5232230415466330e-06 0.0000000000000000e+00  5.2072928874618565e-05 -2.0189780035777879e-06 0.0000000000000000e+00  1.1286066967954358e-05 -1.8332164814561091e-05 0.0000000000000000e+00  -4.9378365814580492e-07 -5.5549928620856798e-06 0.0000000000000000e+00  -5.6674877620741643e-06 -1.9196020101852722e-05 0.0000000000000000e+00  -2.6263144578621457e-07 -3.1618918099303357e-06 0.0000000000000000e+00  -7.8674030734494593e-07 6.2450595020175052e-06 0.0000000000000000e+00  -7.5989454910952109e-07 7.7823548960808672e-06 0.0000000000000000e+00  1.7218623981338614e-06 -1.6112756194098412e-05 0.0000000000000000e+00  4.4248427065786523e-05 -1.0562507661088894e-04 0.0000000000000000e+00  2.9927925661684578e-07 -1.5826928388133491e-05 0.0000000000000000e+00  -1.4365933075672298e-05 -4.8440728144403730e-06 0.0000000000000000e+00  -1.0149288191837476e-04 6.7604758044078326e-06 0.0000000000000000e+00  -6.7680596229908421e-06 2.8453856588404025e-06 0.0000000000000000e+00  2.9783467939900339e-07 1.4705414319745398e-05 0.0000000000000000e+00  -1.2156836768156484e-06 -1.8125251276025988e-05 0.0000000000000000e+00  6.7456659862516027e-05 -3.6045236285220026e-05 0.0000000000000000e+00  2.8993999619619879e-05 1.8527903171196083e-05 0.0000000000000000e+00  -4.1682427300151966e-05 1.0093062323963763e-04 0.0000000000000000e+00  3.3198697936290687e-06 2.0133202922802278e-05 0.0000000000000000e+00  1.3722694407823718e-06 -2.0557603309561644e-05 0.0000000000000000e+00  -4.7463955043785364e-05 -6.8110524475238897e-05 0.0000000000000000e+00  -4.1990152377820666e-04 2.0948926536779489e-04 0.0000000000000000e+00  3.8097866590432617e-06 1.7781124504545411e-05 0.0000000000000000e+00  2.1689412865482033e-04 -1.5965591406946506e-04 0.0000000000000000e+00  1.0400945878023972e-07 -5.8842624940471825e-07 0.0000000000000000e+00  -3.2035333931426762e-07 -9.2408940331610673e-07 0.0000000000000000e+00  8.7996559429561827e-06 1.7550084380900372e-05 0.0000000000000000e+00  -1.2507994476842435e-06 7.1141797320876520e-06 0.0000000000000000e+00  -7.3605687904870244e-06 -1.5856418232174498e-05 0.0000000000000000e+00  -1.5114202002688995e-05 -4.2963056884973757e-05 0.0000000000000000e+00  -3.2858162525831663e-05 -4.3250898512505671e-05 0.0000000000000000e+00  7.0430848544693645e-07 5.7799657456387123e-06 0.0000000000000000e+00  1.8541504468004707e-07 -3.5098470558610301e-06 0.0000000000000000e+00  -8.8571544821053170e-08 -1.5412663696081032e-05 0.0000000000000000e+00  -2.9232201861804582e-07 -1.0954426888219459e-05 0.0000000000000000e+00  3.0079288719365277e-07 -5.8261234890643906e-06 0.0000000000000000e+00  3.5765405378436867e-07 -9.7198625419920741e-07 0.0000000000000000e+00  -1.0626146332327077e-07 4.0558014255286737e-06 0.0000000000000000e+00  -2.1205692044096838e-06 4.6216622869964054e-06 0.0000000000000000e+00  -5.0649478669521618e-06 -7.7200023221886863e-07 0.0000000000000000e+00  -8.7471419176706349e-06 -4.1050063124582623e-06 0.0000000000000000e+00  -9.0052931137848166e-07 -1.5423156242042312e-05 0.0000000000000000e+00  1.4708784044737631e-04 -2.3877446749736219e-05 0.0000000000000000e+00  1.4821453163754294e-04 -7.7799778649376711e-05 0.0000000000000000e+00  8.6247748423785866e-05 -1.9516370466142159e-05 0.0000000000000000e+00  9.5599102304226970e-05 -1.4632858836115611e-04 0.0000000000000000e+00  8.3111188269061715e-05 -7.9846882428078261e-05 0.0000000000000000e+00  -3.6505001000418434e-06 1.2734985257128369e-05 0.0000000000000000e+00  2.5046335074422734e-06 -2.3232214316930810e-05 0.0000000000000000e+00  -6.9973652697193550e-05 -4.8559584097296267e-05 0.0000000000000000e+00  -1.9806467261556369e-04 -1.9368349837408446e-04 0.0000000000000000e+00  -6.5956305142888459e-05 -2.0867378252791490e-05 0.0000000000000000e+00  -1.5219440260175116e-06 -2.2558976832805524e-05 0.0000000000000000e+00  -2.2269036999198233e-06 -1.6953817871015499e-05 0.0000000000000000e+00  5.8723295759161533e-06 -1.9894770977608961e-06 0.0000000000000000e+00  -4.3790281632082427e-06 6.9125317711014615e-06 0.0000000000000000e+00  -3.4001363622912652e-06 -5.8683508791309181e-06 0.0000000000000000e+00  5.1375079769855911e-06 3.8570741144683133e-07 0.0000000000000000e+00  -1.7710128935010582e-05 1.4459433904534351e-05 0.0000000000000000e+00  -6.1864847875373687e-06 3.8385376472612924e-06 0.0000000000000000e+00  3.2811050583414730e-06 -2.0884836886020043e-05 0.0000000000000000e+00  -2.2440834487780572e-05 -2.8185371734781461e-05 0.0000000000000000e+00  4.0167584469066525e-05 4.2715140611591456e-05 0.0000000000000000e+00  5.8374835675173016e-05 3.3986459689038702e-05 0.0000000000000000e+00  3.7878512202243881e-05 -3.2611279134726919e-05 0.0000000000000000e+00  1.7633474658346968e-05 -3.5285539715865050e-05 0.0000000000000000e+00  2.7167060850939690e-05 1.0725047861859065e-08 0.0000000000000000e+00  1.1121266848098472e-05 5.8316106998085727e-07 0.0000000000000000e+00  1.8721478293672584e-05 2.2963775313774773e-06 0.0000000000000000e+00  2.7774710409286806e-05 1.2218470906361550e-06 0.0000000000000000e+00  -8.8956329419484211e-06 -7.0244001620820652e-06 0.0000000000000000e+00  -1.2453486217020487e-06 2.5132713894841628e-06 0.0000000000000000e+00  4.4464291633133356e-06 -1.6088929830310281e-05 0.0000000000000000e+00  -3.2928172633041726e-06 7.8306985999083750e-06 0.0000000000000000e+00  2.5679465539696605e-05 -4.6442226224895371e-05 0.0000000000000000e+00  1.2300637878356812e-05 -4.7946775536877845e-05 0.0000000000000000e+00  5.0432874159577455e-06 -1.5024954857265465e-05 0.0000000000000000e+00  9.7969961632534070e-05 1.7292632120173828e-05 0.0000000000000000e+00  6.3435080948042203e-04 -6.3904132230067547e-03 0.0000000000000000e+00  9.9538402248624722e-04 -2.6921333119156884e-03 0.0000000000000000e+00  -2.9124734460584691e-06 6.7697920362679134e-06 0.0000000000000000e+00  4.0821671303572349e-06 -1.4434592631209031e-05 0.0000000000000000e+00  -9.2451086583735149e-07 3.9764842800717095e-06 0.0000000000000000e+00  9.6644922798004817e-07 -1.7153714177458508e-05 0.0000000000000000e+00  7.1743727607362569e-06 -2.6387890910664371e-05 0.0000000000000000e+00  2.5519953884405597e-08 -7.5170617447468371e-06 0.0000000000000000e+00  -4.1589108045165640e-05 3.6564765778771589e-05 0.0000000000000000e+00  3.3522850837872564e-07 1.1664788065459205e-07 0.0000000000000000e+00  -2.3295224574278769e-06 8.1240705860133582e-07 0.0000000000000000e+00  1.7731921163570820e-06 -3.3956457485747064e-08 0.0000000000000000e+00  7.7836644619653519e-05 6.9848811221840827e-05 0.0000000000000000e+00  1.1557964057717682e-04 3.8380754997831393e-05 0.0000000000000000e+00  5.7263552296928972e-05 2.3638405360995800e-05 0.0000000000000000e+00  -4.1389311803041048e-05 -1.8557486484587182e-04 0.0000000000000000e+00  8.1355344053362158e-05 -9.3607306111610127e-06 0.0000000000000000e+00  5.6684025919100987e-05 2.0382332793423484e-05 0.0000000000000000e+00  4.5364531593659393e-05 9.3535245221378310e-06 0.0000000000000000e+00  3.8275603995770223e-05 -9.4205964463619127e-06 0.0000000000000000e+00  4.3093647247422009e-05 -1.9743585086037654e-05 0.0000000000000000e+00  -6.3740327718716291e-04 -7.0296484770756109e-04 0.0000000000000000e+00  -2.9411525935608019e-05 1.1415605171939360e-05 0.0000000000000000e+00  1.5686428920789852e-05 -2.4573211748934030e-06 0.0000000000000000e+00  -1.7651086762723211e-05 -2.7396150634747900e-06 0.0000000000000000e+00  -2.0326457473770273e-05 1.0504887655881639e-05 0.0000000000000000e+00  2.8468551195475546e-05 -2.8679407174589687e-05 0.0000000000000000e+00  -2.4081580523585707e-05 -1.8064521408006515e-05 0.0000000000000000e+00  -1.4576922809382610e-05 -4.8040340618469337e-06 0.0000000000000000e+00  -1.0292584965011274e-06 -1.3492309121505559e-06 0.0000000000000000e+00  1.9176366961128335e-06 -4.3322133484206479e-06 0.0000000000000000e+00  -3.5560416792