<?xml version="1.0"?>
<VTKFile type="UnstructuredGrid"  version="0.1"  >
<UnstructuredGrid>
<Piece  NumberOfPoints="2549" NumberOfCells="4928">
<Points>
<DataArray  type="Float64"  NumberOfComponents="3"  format="ascii">1.469509422236225 0.03658247415014142 0  1.46476058846628 0.05958444889717767 0  1.440818885571982 0.06843907413009091 0  1.428236264544932 0.08442380365105315 0  1.42269084798983 0.09658860815437686 0  1.417259845644172 0.1200790516664915 0  1.396987486484949 0.1232240286629454 0  1.364823015334191 0.1283417136660448 0  1.387501266882384 0.1524914670987509 0  1.489094944403104 0.2590397421152796 0  1.381343664051549 0.1770506144212911 0  1.374569649996452 0.2168838259735445 0  1.336692734295188 0.2338117938819845 0  1.33326780587929 0.261374204300077 0  1.329670894277211 0.2924834652454297 0  1.311000671324189 0.3247436364965856 0  1.301088287254289 0.3584224723830703 0  1.283110441831894 0.3694437076673306 0  1.269553725241268 0.421457093223654 0  1.256507314327559 0.4604081102121392 0  1.237950720683841 0.5051470322380014 0  1.21983262877803 0.5502447575429538 0  1.198483283928663 0.5977891239348295 0  1.173959937372815 0.6487471155982254 0  1.149133450872763 0.7028654510593693 0  1.113679636320879 0.7402412132103315 0  1.084466690394793 0.7945483752080644 0  1.050706336747219 0.8499501806977484 0  1.011012431934421 0.9039999099748489 0  0.9684366963819979 0.9595977581055951 0  0.9216381833678404 1.014482982038297 0  0.8698954682762496 1.069886905108749 0  0.8143140232154196 1.122671067461951 0  0.7554770457127291 1.172404602580119 0  0.6899266271899214 1.223412288196618 0  0.6213065245482837 1.270546024771168 0  0.547381054038516 1.314128418599398 0  0.4695108841814646 1.353714285872151 0  0.3877150539561184 1.387937503537115 0  0.3021526104109888 1.417334506004769 0  0.2138119510715229 1.439978705376672 0  0.1240049679796556 1.455348193159419 0  0.03178966950345007 1.465339040322584 0  -0.06055448303284922 1.46709449647101 0  -0.1529805993014574 1.461775075587012 0  -0.2441309699959121 1.448607409595823 0  -0.3334404611826804 1.428930192689724 0  -0.4200516712619464 1.40045732619424 0  -0.5025025143128553 1.368841226385771 0  -0.5823695117217863 1.330397868566996 0  -0.6574496850950993 1.285032459887557 0  -0.7279129157714981 1.236651377860605 0  -0.7932293925584066 1.183941633421435 0  -0.8541850382141248 1.128500905160132 0  -0.9085236522985168 1.071379852234247 0  -0.9617332160702218 1.010386590332181 0  -1.004143955942568 0.9574355743684378 0  -1.04870675117652 0.9029596919295511 0  -1.087609049516355 0.8412000790174009 0  -1.121236298915616 0.7830053622033464 0  -1.151354938590552 0.7272755822484737 0  -1.175590104384535 0.6672979239915736 0  -1.204216567197676 0.624363781619957 0  -1.221175357956933 0.5499434656070149 0  -1.222445277913429 0.5108958113537672 0  -1.263165423006335 0.4964501078731434 0  -1.278245499945347 0.4469471198340993 0  -1.2876880946002 0.4081386795350132 0  -1.296476246515788 0.370312720725234 0  -1.320672215801729 0.3470986839235823 0  -1.326766396057248 0.2975851561004784 0  -1.31066184968006 0.3252153062246722 0  -1.375389150154601 0.2868082184767556 0  -1.36880102467504 0.1917590975523301 0  -1.366954433783131 0.1668048215254932 0  -1.3697254260691 0.1337203872852354 0  -1.382307490380384 0.1159281062944408 0  -1.385403260509242 0.08399753047526061 0  -1.393491936980998 0.1069389363472146 0  -1.368848206097367 0.02540688532580148 0  -1.399442929556194 0.09441010265635295 0  -1.433485198972678 0.1545936401237092 0  -1.464853710208696 0.07984875887261456 0  -1.474687521974885 0.05200714870611207 0  -1.500527882627179 0.02626229664232891 0  -1.483958676508981 -0.0005951502893009261 0  -1.469988810148827 -0.03105332195560721 0  -1.53448430111917 -0.3416417245818217 0  -1.396018679762368 -0.04624146295199751 0  -1.35781751720243 0.2986657484420379 0  -1.437806809614033 -0.06370830373195656 0  -1.456970728188192 0.009054030104989645 0  -1.417981239476579 -0.1243536001159386 0  -1.388962100955489 -0.09035849353781152 0  -1.372606994826513 -0.1034115501292448 0  -1.379631817802243 -0.1263552467296407 0  -1.397044650291782 -0.2430484296360875 0  -1.311585995788862 -0.3410804670387992 0  -1.35892901525052 -0.2431467437971806 0  -1.355921716683502 -0.3014983650422222 0  -1.319322768928619 -0.3270940866616272 0  -1.324213801973076 -0.3660039534080736 0  -1.320648196270546 -0.4051784643861717 0  -1.354619873770799 -0.4472480858698762 0  -1.234008145589838 -0.4677175503656478 0  -1.204224405080919 -0.5004453116918207 0  -1.25081901424775 -0.6207038060596634 0  -1.196503181810557 -0.6379551471468969 0  -1.187063522966873 -0.7035583653905148 0  -1.159991768845837 -0.766968143651878 0  -1.14041751408336 -0.8309941482822178 0  -1.092773391662215 -0.9093883461635143 0  -1.029759792431031 -0.9353447381412662 0  -1.008544342567798 -1.009277794705826 0  -0.9531743119313125 -1.091753632144638 0  -0.89598524877824 -1.145893219322088 0  -0.8351060227644659 -1.214875722759343 0  -0.7681186969675388 -1.274203557271368 0  -0.6955985237098603 -1.331547683526649 0  -0.6158632610840157 -1.384257720782448 0  -0.5334241859525575 -1.432611353120867 0  -0.4475298175768828 -1.470165941859844 0  -0.3541079124866768 -1.505474867194597 0  -0.2598322379385696 -1.532670902005509 0  -0.1614688595530139 -1.550964172196187 0  -0.06193612833382328 -1.560739671081545 0  0.03847368044756166 -1.561511768636377 0  0.1384570366543194 -1.553209293847127 0  0.2370843166640842 -1.536174742188447 0  0.3330961011262252 -1.510627487213269 0  0.425950127387762 -1.477516750390125 0  0.5147563220148887 -1.437205231315908 0  0.5987670245602106 -1.390703355154785 0  0.6779600031625773 -1.338589442127465 0  0.7505161674222989 -1.282689534355988 0  0.820240529093624 -1.221301929120788 0  0.8798836746490118 -1.164316589386567 0  0.9369449897955349 -1.102728815614148 0  0.9904248846092257 -1.037087773000624 0  1.036918217933567 -0.9728559056701767 0  1.078936682898301 -0.9084593209990933 0  1.116850528731233 -0.8457042433319326 0  1.149199591097838 -0.7832233266796067 0  1.178938364753042 -0.7228716969558364 0  1.208560747534778 -0.6757170887520934 0  1.231080224100259 -0.6168204769315636 0  1.2544126274136 -0.5605632261536735 0  1.271197819618179 -0.5070759687906715 0  1.291562173581627 -0.4595610807107235 0  1.290205699803167 -0.403307194075472 0  1.312079484720105 -0.3757100629071966 0  1.3009897144081 -0.2976005976230073 0  1.284566364871137 -0.302992793592589 0  1.34456264315282 -0.2692322736044041 0  1.365216186382576 -0.2221062176770777 0  1.356629352659514 -0.1910150918200624 0  1.363633236821911 -0.161579018469267 0  1.373588378378071 -0.1341562506366564 0  1.372020367014668 -0.0997233818566363 0  1.261200291574526 0.2186358411506277 0  1.399107183153586 -0.06990458943847115 0  1.398164917758873 -0.07988077604475714 0  1.406715306085947 -0.05217405385380013 0  1.425776325453917 -0.03915778016892579 0  1.42574348595032 -0.01908596749018533 0  1.435532419531967 -0.008002573507959694 0  1.442701169412009 0.00757946864681752 0  1.462382783049275 0.01613953666551662 0  -0.097784879154392 0.8875560272295741 0  0.6902714361713617 -0.5039851177386766 0  -0.8035790888648253 -0.3886879569351321 0  -0.07195512656227673 -0.9473039374976303 0  0.6491594140494797 0.4987806823212745 0  1.086629453560446 0.1185599925342224 0  -0.7945249998091527 0.4032442810159038 0  -1.154775564995192 0.02545394600207765 0  1.097484498978689 -0.06031852366354333 0  -1.036678088746627 -0.1785134025884349 0  -0.7322636271255598 0.01200473737470067 0  -0.4380275192313923 -0.1418996747291502 0  -1.026994661798154 0.2068058371015827 0  0.383992856498839 -0.8324167134225143 0  0.08316761800787047 -0.3054773450091575 0  0.3054239657339887 0.7716242544781663 0  0.2173561805007723 0.1860048634863429 0  0.5600254242654894 0.01824161399738225 0  -0.4784381176308815 -0.7005404494470258 0  -0.5040667006941291 0.6922764307827723 0  -0.2411908367550784 0.3079787895339406 0  0.9163679209553253 -0.2093788972027479 0  0.8939225696660666 0.248601651822778 0  0.3515780189632713 -0.2148956134215176 0  -0.01251520617872909 0.2349264877262857 0  -0.4920165055567077 0.2094310261015445 0  -0.1874486758203391 -0.2813753950152954 0  0.8599050055121634 0.02440789013672491 0  1.245978089490113 0.03510764485441055 0  0.8035486874131116 -0.3373254959782321 0  0.7169992490208444 -0.1052779298159502 0  0.5841488917946498 -0.2067549591635435 0  0.4392970132503253 -0.07632019321414549 0  0.5134034228623412 -0.3704392774632355 0  0.8620022193326679 -0.08030112142971015 0  0.7122079698118761 0.02116524170926529 0  -0.8585825370329823 0.1201570707117722 0  -1.071634054336108 0.09760496954521902 0  -0.9477718306553462 0.01999669723719654 0  -0.8650785107814765 -0.0918666682763532 0  -1.074973349145876 -0.05531414132219937 0  -1.238782799049515 -0.08442893303321189 0  -1.311218073588146 0.0003060054782954144 0  -1.306987612484829 0.05580457939359434 0  -1.228404880699027 0.1369293642304311 0  -0.1272286685507353 -0.614853434656029 0  -0.2993042973025611 -0.5071935011686727 0  -0.2880743563248686 -0.8463886542461445 0  -0.3083630394117907 -0.2044004616365499 0  -0.4498175702033274 -0.4055677826550736 0  -1.22906898763823 -0.2022265686673405 0  -1.210740093266332 0.2419641992321032 0  0.3834396539170787 -0.5033167221411778 0  0.2151064931591142 -0.2470934283125649 0  0.2443620772024856 -0.562599342361806 0  -0.911133227139457 0.2895208016898246 0  -0.7271330350794243 0.1889426707242349 0  1.26784734000677 -0.07478533488546145 0  1.205072884984264 -0.1724292159240446 0  1.184317792898496 0.2296560799241837 0  1.259332624255213 0.1437489452937997 0  -0.9097665426778238 -0.6559627520621091 0  -1.043276458904435 -0.4488758162495056 0  -1.021086205786504 0.4732108262110936 0  -0.887055261561111 0.661658004533169 0  0.9431076167420533 -0.6012730141998855 0  0.7790244235515006 -0.8210754862193166 0  0.731085718551669 0.7948388204603488 0  0.8982695366696982 0.6088949971398224 0  0.049483960
[...]
<PointData  Vectors="f_45"> 
<DataArray  type="Float64"  Name="f_45"  NumberOfComponents="3" format="ascii">3.0428156440348414e-01 -2.1768311802935494e-02 0.0000000000000000e+00  -2.4737610492402987e-02 1.3567320584994336e-01 0.0000000000000000e+00  -1.2760345910622745e-01 1.7994293775484063e-01 0.0000000000000000e+00  1.2483920549249755e-01 2.1805140707764847e-01 0.0000000000000000e+00  2.4427819512766011e-01 1.2506546237912644e-01 0.0000000000000000e+00  1.8031958962958013e-02 6.5493057621451328e-02 0.0000000000000000e+00  -2.9645096647230862e-01 1.1738561071584552e-01 0.0000000000000000e+00  -8.5369305973580278e-02 -8.7684587282681539e-02 0.0000000000000000e+00  4.5232133166320861e-02 -2.3244349499478273e-01 0.0000000000000000e+00  -5.0214891473624818e-02 -2.3148514437726014e-01 0.0000000000000000e+00  1.6287423031459622e-02 -1.5599765128039642e-01 0.0000000000000000e+00  6.0269865234787626e-02 1.8840493443196576e-01 0.0000000000000000e+00  -8.4662820812092338e-02 1.2388073026940939e-01 0.0000000000000000e+00  3.1426239771605047e-01 1.1440884973921994e-02 0.0000000000000000e+00  1.1910159976882539e-01 1.4564090890397074e-01 0.0000000000000000e+00  1.8056643007199383e-01 1.6463208374286206e-01 0.0000000000000000e+00  4.7688712705136214e-02 1.4745476689688453e-01 0.0000000000000000e+00  7.9639059958401565e-02 1.4283173226057319e-01 0.0000000000000000e+00  2.2560914701061860e-01 1.0638864105205155e-01 0.0000000000000000e+00  1.5573977923860116e-01 1.5440882871696907e-01 0.0000000000000000e+00  1.6104937734469232e-01 1.5651304556885839e-01 0.0000000000000000e+00  1.5833082612668031e-01 1.5840880704733851e-01 0.0000000000000000e+00  1.3523613455207320e-01 1.7593199788396205e-01 0.0000000000000000e+00  1.6361990764702128e-01 1.6416607044420711e-01 0.0000000000000000e+00  6.8584446096551371e-02 1.9911152805362853e-01 0.0000000000000000e+00  5.6294029619356464e-02 2.0934009701459888e-01 0.0000000000000000e+00  1.3534455295165596e-01 1.8457331736629742e-01 0.0000000000000000e+00  7.7465981446611654e-02 2.0920556277039967e-01 0.0000000000000000e+00  6.2506135854676820e-02 2.1508126230690186e-01 0.0000000000000000e+00  4.8215909625801086e-02 2.1814024763049047e-01 0.0000000000000000e+00  2.5076560959127959e-02 2.2247809453376180e-01 0.0000000000000000e+00  2.9240684014713234e-03 2.2362571337248344e-01 0.0000000000000000e+00  -2.5755104684600103e-02 2.2220700566135593e-01 0.0000000000000000e+00  -4.6292201759456246e-02 2.1891756397185977e-01 0.0000000000000000e+00  -6.6093371088054007e-02 2.1372937857959140e-01 0.0000000000000000e+00  -9.4935755721447496e-02 2.0254470686413514e-01 0.0000000000000000e+00  -1.2014580648057062e-01 1.8896045962153904e-01 0.0000000000000000e+00  -1.4475426563625299e-01 1.7042563218878273e-01 0.0000000000000000e+00  -1.6730046387587991e-01 1.4884245439364843e-01 0.0000000000000000e+00  -1.8632793543547771e-01 1.2401105722294431e-01 0.0000000000000000e+00  -2.0474749890628591e-01 8.9973596546750245e-02 0.0000000000000000e+00  -2.1542257848644089e-01 6.1883289985868423e-02 0.0000000000000000e+00  -2.2151291486956479e-01 2.9072149043966065e-02 0.0000000000000000e+00  -2.2410262452737553e-01 -8.9052568417153696e-03 0.0000000000000000e+00  -2.1880191012179198e-01 -4.4950213792510109e-02 0.0000000000000000e+00  -2.1049943676432176e-01 -7.7992900275535446e-02 0.0000000000000000e+00  -1.9132728105565736e-01 -1.1476609661886399e-01 0.0000000000000000e+00  -1.7291452321343617e-01 -1.4281612317446796e-01 0.0000000000000000e+00  -1.5591119238598683e-01 -1.6044139141102687e-01 0.0000000000000000e+00  -1.2067278992510548e-01 -1.8829592647437149e-01 0.0000000000000000e+00  -9.2068833748261331e-02 -2.0439991806485114e-01 0.0000000000000000e+00  -6.4210791856341903e-02 -2.1391308721134827e-01 0.0000000000000000e+00  -3.4119839152180462e-02 -2.2156732446966768e-01 0.0000000000000000e+00  -4.5952730095762569e-03 -2.2329379078661032e-01 0.0000000000000000e+00  2.1639162345049943e-02 -2.2304228445676882e-01 0.0000000000000000e+00  4.2664492564155214e-02 -2.1912296604966988e-01 0.0000000000000000e+00  4.2143390423309092e-02 -2.2035311817593009e-01 0.0000000000000000e+00  6.7514503470706713e-02 -2.1179227993122246e-01 0.0000000000000000e+00  1.1204539707371751e-01 -1.9454086547103597e-01 0.0000000000000000e+00  1.0883300356327764e-01 -1.9663207614234512e-01 0.0000000000000000e+00  1.5546746212387022e-01 -1.6089361643567207e-01 0.0000000000000000e+00  1.2043290058691856e-01 -1.8610653094395277e-01 0.0000000000000000e+00  1.2510301963083409e-01 -1.6294561193819571e-01 0.0000000000000000e+00  2.7818860972853859e-01 -3.7256226582487020e-02 0.0000000000000000e+00  -3.7195482103605786e-02 -7.2974143089802518e-02 0.0000000000000000e+00  -2.5446128187401773e-02 -1.5055765997761852e-01 0.0000000000000000e+00  2.4645979677100319e-01 -1.1351032521524476e-01 0.0000000000000000e+00  2.1876533777208104e-01 -7.6532264548765536e-02 0.0000000000000000e+00  7.3908630904080341e-02 -1.8548199742654201e-01 0.0000000000000000e+00  9.7179209020992058e-02 -1.2352941442902635e-01 0.0000000000000000e+00  2.5745896593566991e-01 -7.5378043273965745e-02 0.0000000000000000e+00  -1.2393867230551169e-01 -2.5882291026049431e-01 0.0000000000000000e+00  6.2831232434573156e-02 -6.7173805758853608e-02 0.0000000000000000e+00  2.8344750506522448e-01 7.2370573878223987e-02 0.0000000000000000e+00  2.2866591401942774e-01 1.1040639604974752e-02 0.0000000000000000e+00  1.4590881855399618e-01 -1.3043643456569043e-01 0.0000000000000000e+00  1.4654543286222374e-01 -1.6097757843139068e-01 0.0000000000000000e+00  2.1889008502936680e-01 7.0764207819878300e-02 0.0000000000000000e+00  1.8228974192018449e-01 1.3490841519626165e-01 0.0000000000000000e+00  1.7651057784086763e-01 1.2464905617397139e-01 0.0000000000000000e+00  1.2355860745723739e-01 2.3357718832167559e-01 0.0000000000000000e+00  1.2772469019648319e-01 4.4302932091608693e-03 0.0000000000000000e+00  1.8597259282470155e-01 -2.0397452445438882e-01 0.0000000000000000e+00  6.8359755114814832e-02 -2.1985259312999095e-01 0.0000000000000000e+00  2.2142476749061089e-02 -5.1107731890378170e-02 0.0000000000000000e+00  1.2359785838601355e-01 2.9862633273627320e-01 0.0000000000000000e+00  2.2021953542399952e-01 -3.8583668484383618e-02 0.0000000000000000e+00  1.6156782062333963e-01 -1.5960391606981997e-01 0.0000000000000000e+00  1.7601673916594573e-01 -1.0818833447587407e-01 0.0000000000000000e+00  2.2312396929255168e-01 -6.1675982343901183e-02 0.0000000000000000e+00  1.9243963764417751e-01 -7.9793396595871938e-02 0.0000000000000000e+00  2.0129539163005811e-01 1.8854613316580426e-01 0.0000000000000000e+00  1.5656690897455880e-01 2.0964901395441491e-03 0.0000000000000000e+00  -4.9838298756976589e-02 -1.4269864186270967e-01 0.0000000000000000e+00  5.4283649203817314e-02 1.2953256172092045e-01 0.0000000000000000e+00  2.6630933173889082e-01 -1.6568026629161250e-01 0.0000000000000000e+00  1.0265959968767377e-01 1.0018815651415008e-01 0.0000000000000000e+00  4.0383753905737722e-02 2.5502984334613676e-01 0.0000000000000000e+00  2.2600914333561545e-01 8.0581031450292093e-02 0.0000000000000000e+00  7.4274390798988593e-02 1.1170238445441832e-01 0.0000000000000000e+00  4.2397674931500410e-03 9.9222036818811449e-02 0.0000000000000000e+00  2.8511642965847711e-01 -8.5232210327230946e-05 0.0000000000000000e+00  1.6481159643143029e-01 -1.4298220038096787e-01 0.0000000000000000e+00  -1.5557094413254402e-01 -7.3616336565217405e-02 0.0000000000000000e+00  -1.9499451818933899e-01 2.0697305756540180e-01 0.0000000000000000e+00  2.1058269601090746e-01 -7.5106683063549937e-02 0.0000000000000000e+00  1.8565637591287688e-02 -9.2085843104644016e-02 0.0000000000000000e+00  -2.3807372429369485e-02 1.3516969790190225e-01 0.0000000000000000e+00  2.4510499759761020e-01 9.8347031030812937e-02 0.0000000000000000e+00  1.4411428741162383e-01 1.5058197953376717e-01 0.0000000000000000e+00  1.9648904183120081e-01 1.6145198771686897e-01 0.0000000000000000e+00  -7.0140005746646791e-02 2.0074760151185994e-01 0.0000000000000000e+00  4.2764621806510965e-03 1.1473100437014618e-01 0.0000000000000000e+00  1.9284101072448326e-01 1.6368897244573252e-01 0.0000000000000000e+00  6.7519186801813982e-03 2.2659182140978243e-01 0.0000000000000000e+00  9.8836866486628743e-03 2.2167932653633232e-01 0.0000000000000000e+00  9.4942214239161909e-03 2.2214172211417441e-01 0.0000000000000000e+00  -4.3987329449654972e-02 2.2126609134138542e-01 0.0000000000000000e+00  -6.9191380487046747e-02 2.1140484073889243e-01 0.0000000000000000e+00  -9.7643889881466175e-02 2.0276894057379152e-01 0.0000000000000000e+00  -1.3045423826774932e-01 1.8020912896338181e-01 0.0000000000000000e+00  -1.6284733502726906e-01 1.5477891411304504e-01 0.0000000000000000e+00  -1.7683217623720776e-01 1.3665750973969898e-01 0.0000000000000000e+00  -2.0046083127160924e-01 9.9858746606188500e-02 0.0000000000000000e+00  -2.1523583827157033e-01 6.1970877032520209e-02 0.0000000000000000e+00  -2.2256458334585197e-01 2.3945403236682438e-02 0.0000000000000000e+00  -2.2325893951618778e-01 -1.7010184052259899e-02 0.0000000000000000e+00  -2.1677473052830448e-01 -5.6216431176252302e-02 0.0000000000000000e+00  -2.0324357326760512e-01 -9.3735124453552476e-02 0.0000000000000000e+00  -1.8438414009592458e-01 -1.2710188303720024e-01 0.0000000000000000e+00  -1.6087875142077590e-01 -1.5557330112207157e-01 0.0000000000000000e+00  -1.3331857835358593e-01 -1.7985978179517695e-01 0.0000000000000000e+00  -1.0383782831971752e-01 -1.9824563440411427e-01 0.0000000000000000e+00  -7.3085667669545495e-02 -2.1160469674270732e-01 0.0000000000000000e+00  -4.0841737801605646e-02 -2.1987243961274261e-01 0.0000000000000000e+00  -1.9370267920415914e-02 -2.2299791552210360e-01 0.0000000000000000e+00  2.1206971312730297e-03 -2.2362099933254143e-01 0.0000000000000000e+00  3.1708184486252088e-02 -2.2151470548319344e-01 0.0000000000000000e+00  5.7833085969187036e-02 -2.1615347772256985e-01 0.0000000000000000e+00  8.1271377105401083e-02 -2.0831566580168001e-01 0.0000000000000000e+00  9.6487185125911673e-02 -2.0197450776781006e-01 0.0000000000000000e+00  1.1483221358834998e-01 -1.9168867763261815e-01 0.0000000000000000e+00  1.4286239266071463e-01 -1.7322862574295719e-01 0.0000000000000000e+00  1.0901608547862145e-01 -1.9556772065751790e-01 0.0000000000000000e+00  1.3091071674328986e-01 -1.7402168230593237e-01 0.0000000000000000e+00  1.6752759428441069e-01 -1.5313248583718753e-01 0.0000000000000000e+00  1.7377708478561180e-01 -1.3461761337732214e-01 0.0000000000000000e+00  1.5825718085973697e-01 -1.7098057676225167e-01 0.0000000000000000e+00  2.1144061285870167e-01 -4.2647217761432467e-02 0.0000000000000000e+00  1.3827806566513443e-01 -9.3217226080025986e-02 0.0000000000000000e+00  1.6750268660253070e-01 -4.8945109354201516e-02 0.0000000000000000e+00  1.6641772577532080e-01 7.8393974858509616e-02 0.0000000000000000e+00  -2.1601381539360945e-01 -1.9442930911481726e-01 0.0000000000000000e+00  1.4897252548063089e-02 -2.0642204716904822e-01 0.0000000000000000e+00  2.0817434417061681e-01 -3.5075916941140137e-02 0.0000000000000000e+00  1.9671903163440979e-01 6.8789125016641500e-02 0.0000000000000000e+00  1.7791376128007452e-01 -1.8196364524897715e-01 0.0000000000000000e+00  2.0688273462735846e-01 -7.3649858995000386e-02 0.0000000000000000e+00  1.8903751282462009e-01 1.2272228779547706e-01 0.0000000000000000e+00  1.5624170462419801e-01 1.5977137380623568e-01 0.0000000000000000e+00  1.3446670529997390e-01 1.7534190839982489e-01 0.0000000000000000e+00  2.6749972149029305e-01 -1.0808042963982181e-01 0.0000000000000000e+00  1.5527107495186465e-02 -1.9117048047827531e-01 0.0000000000000000e+00  4.5897976347505455e-02 -1.0128109979893372e-01 0.0000000000000000e+00  1.7484673750360652e-01 -6.0968069823413996e-02 0.0000000000000000e+00  1.0677579413118075e-01 -2.3777629323860119e-01 0.0000000000000000e+00  -4.0488325444945669e-02 -1.4521841006246994e-01 0.0000000000000000e+00  -4.8247517690440576e-02 -1.8523853336238044e-01 0.0000000000000000e+00  -2.1792416572111167e-01 -5.1324707729178722e-02 0.0000000000000000e+00  8.6769134086029112e-02 -2.0630695901070320e-01 0.0000000000000000e+00  1.1785746604527020e-01 1.9018474226204438e-01 0.0000000000000000e+00  -2.2197430712994651e-01 2.9068875530053766e-02 0.0000000000000000e+00  8.6139255313431085e-02 2.0658856892568353e-01 0.0000000000000000e+00  2.1561159862524037e-01 5.9342261547612171e-02 0.0000000000000000e+00  1.5455086091525239e-01 -1.6183289769495257e-01 0.0000000000000000e+00  2.2362225613585668e-01 1.0822924165432497e-03 0.0000000000000000e+00  2.2323496348733995e-01 -1.3160718576215676e-02 0.0000000000000000e+00  1.9744727709984117e-01 1.0511291674302388e-01 0.0000000000000000e+00  2.2126632612114097e-01 3.3266878656994271e-02 0.0000000000000000e+00  1.4314002274553583e-01 1.7247714766984032e-01 0.0000000000000000e+00  2.1013228438521517e-01 -7.6644290952456853e-02 0.0000000000000000e+00  -1.2529564013118602e-01 -1.8549322993462503e-01 0.0000000000000000e+00  -1.8457343595320588e-01 -1.2838578643957074e-01 0.0000000000000000e+00  -1.4146342949683044e-01 1.7352705215587516e-01 0.0000000000000000e+00  1.4668499204909588e-01 1.7048236320450139e-01 0.0000000000000000e+00  2.2360030078111368e-01 -1.1841748994008717e-02 0.0000000000000000e+00  -8.2809702731144616e-02 2.0795937639427159e-01 0.0000000000000000e+00  -3.5172031995644948e-02 -2.2110895518984461e-01 0.0000000000000000e+00  4.4673403132199904e-02 -2.2135838551863862e-01 0.0000000000000000e+00  2.0596305617286645e-01 -8.7236719317611122e-02 0.0000000000000000e+00  1.9392754274032845e-01 1.1147956533530230e-01 0.0000000000000000e+00  9.5606454099251892e-02 -2.0271135700252715e-01 0.0000000000000000e+00  -1.8163746409205614e-01 1.3688680877821327e-01 0.0000000000000000e+00  1.9731204242121381e-01 -1.0614914742093685e-01 0.0000000000000000e+00  -1.1143702330834594e-01 1.9508118746520040e-01 0.0000000000000000e+00  2.2337383850804043e-01 1.0880821761439601e-02 0.0000000000000000e+00  2.2241203404057899e-01 2.3121092048167109e-02 0.0000000000000000e+00  1.6614087444492218e-01 -1.4987745188766621e-01 0.0000000000000000e+00  2.1284430731291107e-01 -6.8995379982109001e-02 0.0000000000000000e+00  1.7158867272264347e-01 -1.4387003535662080e-01 0.0000000000000000e+00  1.9977095689407998e-01 -1.0157767301544214e-01 0.0000000000000000e+00  7.7883726109610488e-02 -2.0994846300567255e-01 0.0000000000000000e+00  2.2021531686416385e-01 -3.9015136794199608e-02 0.0000000000000000e+00  2.2369388905263432e-01 7.5972146787471498e-04 0.0000000000000000e+00  2.2125951201915048e-01 -3.2913057256726601e-02 0.0000000000000000e+00  2.2205237488949714e-01 -2.6714982711995308e-02 0.0000000000000000e+00  2.2306789741167107e-01 1.6070514958952849e-02 0.0000000000000000e+00  2.0950032249537762e-01 7.8424130476826920e-02 0.0000000000000000e+00  2.1936218264277607e-01 4.3625381538107161e-02 0.0000000000000000e+00  2.2200886080095406e-01 2.6228310184559372e-02 0.0000000000000000e+00  2.2328481528214839e-01 -9.8699091528589075e-03 0.0000000000000000e+00  2.2383840053065285e-01 2.0774670542649154e-03 0.0000000000000000e+00  2.1996355289971795e-01 -4.0225722904529589e-02 0.0000000000000000e+00  -2.0977340752580645e-01 7.8335580893721446e-02 0.0000000000000000e+00  -1.2198363258225475e-01 1.8781925351568265e-01 0.0000000000000000e+00  -1.7632627910190626e-01 1.3789943334566493e-01 0.0000000000000000e+00  4.1346011890125954e-02 2.2071568274411443e-01 0.0000000000000000e+00  -1.2997669683978937e-03 2.2393562181081947e-01 0.0000000000000000e+00  2.0023720380118801e-01 9.9581908173083628e-02 0.0000000000000000e+00  2.0427689956325878e-01 -9.0865980415619940e-02 0.0000000000000000e+00  -4.5611153148402070e-02 -2.1919306172906541e-01 0.0000000000000000e+00  -2.2820666904976930e-02 -2.2311111792866811e-01 0.0000000000000000e+00  -1.4180096380685689e-01 -1.7329789736299378e-01 0.0000000000000000e+00  1.9298813328187442e-01 -1.1315696413999153e-01 0.0000000000000000e+00  2.1181924678042710e-01 -7.2284748537716034e-02 0.0000000000000000e+00  2.2356090093215208e-01 -6.9017449188994735e-03 0.0000000000000000e+00  2.1773334558616633e-01 -5.0687180239534918e-02 0.0000000000000000e+00  1.9435883612196631e-01 1.1074995201075867e-01 0.0000000000000000e+00  2.1685176294595010e-01 5.5708600909577681e-02 0.0000000000000000e+00  7.0139655625015299e-02 2.1241151195851302e-01 0.0000000000000000e+00  1.2539024772062232e-01 1.8521910680284095e-01 0.0000000000000000e+00  1.4608121389126075e-01 -1.6934587163244713e-01 0.0000000000000000e+00  9.1210096151680423e-02 -2.0427662073883854e-01 0.0000000000000000e+00  1.2242196157588232e-01 -1.8726815636807970e-01 0.0000000000000000e+00  2.9675854839034770e-02 -2.2180670670331798e-01 0.0000000000000000e+00  1.4020931015247394e-02 2.2332698538536683e-01 0.0000000000000000e+00  9.8535698242989397e-02 2.0083517228717543e-01 0.0000000000000000e+00  -2.2241649678137448e-01 -2.5860736710244941e-02 0.0000000000000000e+00  -1.9602965300943007e-01 1.0818185112901722e-01 0.0000000000000000e+00  -1.9388998869450308e-01 -1.1195778078578458e-01 0.0000000000000000e+00  -2.2307849565185475e-01 1.8975420296871593e-02 0.0000000000000000e+00  -1.8293859683922109e-02 -2.2307552324700322e-01 0.0000000000000000e+00  2.2000489205537904e-01 4.4003168242594710e-02 0.0000000000000000e+00  1.8404491138825926e-01 1.2764615253018441e-01 0.0000000000000000e+00  8.8693740293871504e-02 2.0580368058926501e-01 0.0000000000000000e+00  1.1396722042148841e-01 1.9271495791221191e-01 0.0000000000000000e+00  2.0640593958170853e-01 8.6803576538203475e-02 0.0000000000000000e+00  1.8404664380464972e-01 1.2730184981694229e-01 0.0000000000000000e+00  2.8345818674736813e-02 2.2532176008295818e-01 0.0000000000000000e+00  -1.7561288261164176e-01 1.4186515708310027e-01 0.0000000000000000e+00  9.2825820171979989e-02 -2.0904134541950264e-01 0.0000000000000000e+00  1.4537397760048112e-01 1.7020995664770230e-01 0.0000000000000000e+00  1.7316457644497740e-01 -1.4172556523777088e-01 0.0000000000000000e+00  1.6873221092536886e-01 1.4687577155703133e-01 0.0000000000000000e+00  2.1260143179425298e-01 6.9786582646319359e-02 0.0000000000000000e+00  1.5794691379681491e-01 1.5850080688241291e-01 0.0000000000000000e+00  2.1559774287722169e-01 5.9476427405053212e-02 0.0000000000000000e+00  -5.0980104174820649e-02 2.1819129009015628e-01 0.0000000000000000e+00  -2.3462845462977232e-02 2.2264401357603064e-01 0.0000000000000000e+00  -2.1666595245433801e-01 -5.6606386614193066e-02 0.0000000000000000e+00  -2.0381063342254413e-01 -9.2632116170486070e-02 0.0000000000000000e+00  -3.6715184842898312e-02 -2.2109671938770392e-01 0.0000000000000000e+00  -1.7466803008034715e-01 -1.4038805083977568e-01 0.0000000000000000e+00  -1.5204358156112754e-01 -1.6438434952271086e-01 0.0000000000000000e+00  2.0712395201581268e-01 -8.8045729445821577e-02 0.0000000000000000e+00  -2.1956424367380339e-01 4.6299455635063845e-02 0.0000000000000000e+00  -6.8369954605367475e-02 -2.1313402790644648e-01 0.0000000000000000e+00  -1.7386673255672958e-01 -1.4106364152526060e-01 0.0000000000000000e+00  -1.8330511835931387e-01 1.2851508072065790e-01 0.0000000000000000e+00  -8.7206875239726103e-02 2.0614439014796659e-01 0.0000000000000000e+00  6.6109318504302281e-02 2.1577631494875102e-01 0.0000000000000000e+00  -1.7300208109145310e-01 1.4228716426685453e-01 0.0000000000000000e+00  -2.1178631264571809e-01 7.2537477105529283e-02 0.0000000000000000e+00  -1.1774871880876228e-01 1.9040336927620630e-01 0.0000000000000000e+00  -1.2007718350987380e-02 2.2347219729977211e-01 0.0000000000000000e+00  2.9381792334574226e-02 2.2186242233578951e-01 0.0000000000000000e+00  8.1533666359142280e-03 -2.2363744389391194e-01 0.0000000000000000e+00  -1.0769969604218529e-01 -1.9625755415478408e-01 0.0000000000000000e+00  7.8818811432523894e-02 -2.0949346339878713e-01 0.0000000000000000e+00  2.2344637317464203e-01 -1.3857531034363870e-02 0.0000000000000000e+00  1.6757847019953467e-01 -1.4849697394017211e-01 0.00000