<?xml version="1.0"?>
<VTKFile type="UnstructuredGrid"  version="0.1"  >
<UnstructuredGrid>
<Piece  NumberOfPoints="2549" NumberOfCells="4928">
<Points>
<DataArray  type="Float64"  NumberOfComponents="3"  format="ascii">1.458509079990612 0.03143000708902839 0  1.454634002390291 0.05412674631926453 0  1.429139422520212 0.06444674873262057 0  1.419386833781671 0.07867326097193666 0  1.405171321084276 0.08998205159933798 0  1.396690194592658 0.1048219544234799 0  1.384611071530005 0.1188204624954284 0  1.381322671068553 0.1405617655392706 0  1.35082292302303 0.1465795939249886 0  1.334391371560219 0.130627922975434 0  1.347631780775445 0.1773586755325317 0  1.335898780304777 0.1958083429094395 0  1.330689156191281 0.2260342906431311 0  1.321537246392855 0.2543228694488306 0  1.31154196261118 0.28347047264261 0  1.302290592886836 0.3199328057297859 0  1.276759398058738 0.3381041187196006 0  1.268031464571056 0.3456493105924827 0  1.264968216369901 0.4062711492220431 0  1.249590934779304 0.4426950486020365 0  1.235357542344352 0.4889783881811968 0  1.217892862278083 0.5340541317219829 0  1.198922183808428 0.5820583233791247 0  1.178191852595669 0.6348157403776308 0  1.150057803705668 0.6864165103391837 0  1.122534223057242 0.7285518188398183 0  1.093774572171069 0.7837733761441311 0  1.060535926723662 0.8389291374970447 0  1.023556958614806 0.895194739484734 0  0.9825327352719301 0.9520777254327015 0  0.9372719299018146 1.008916600371027 0  0.887693965835849 1.066574472950712 0  0.8320278959645462 1.120843780287254 0  0.7739502729213144 1.172254322282864 0  0.7101943618831956 1.226241322280441 0  0.6413724487679378 1.275284808657413 0  0.5678056578931652 1.32127344796757 0  0.4897111536469575 1.362873055640055 0  0.407423055670126 1.399376755376966 0  0.3215075259892153 1.431197752990301 0  0.2317154271812897 1.45513109200591 0  0.1407632117086036 1.472111560613651 0  0.04738679384580201 1.48384302414176 0  -0.04669994919874453 1.486842204781222 0  -0.1406973597810524 1.482458971675291 0  -0.2336608493793396 1.470064452625574 0  -0.3246850989525529 1.45048590745971 0  -0.4129272996237381 1.422106141262271 0  -0.4967984983466259 1.390170268844904 0  -0.5784588257830346 1.351420787027134 0  -0.6544660114327662 1.305225727804033 0  -0.7256163814181757 1.255361639780313 0  -0.7915751192935838 1.201670543660755 0  -0.852166290328307 1.144602087432109 0  -0.9075772782386942 1.086723271710902 0  -0.9568545266800083 1.022271667343333 0  -1.000195859266912 0.9705783479116914 0  -1.044963615292188 0.9137906041344261 0  -1.081092873062606 0.8514468005838816 0  -1.113552347719952 0.7927370288667441 0  -1.142554783153988 0.7360392258657494 0  -1.167484090624288 0.6784601444134308 0  -1.19098541049971 0.6294443231282925 0  -1.206064608308794 0.5606480315282398 0  -1.217652208689104 0.5298885313237532 0  -1.243258447665357 0.5015767233538063 0  -1.257739733296543 0.4576019094514965 0  -1.272037818891106 0.4212050016366319 0  -1.283863489219398 0.3839950244964855 0  -1.29806039003866 0.3573485245778533 0  -1.303310670849927 0.3158207280928461 0  -1.334428328696499 0.3347719714512369 0  -1.362342516981824 0.2854913421290649 0  -1.335181237245013 0.2067763558648133 0  -1.341397697897668 0.1832210397098507 0  -1.337409841902482 0.1523689436577526 0  -1.34490713023943 0.1344740778652697 0  -1.337610070809896 0.107512707585905 0  -1.363002021183997 0.1104155198863371 0  -1.311226164668401 0.05972582315131833 0  -1.374501819886564 0.1234014992844837 0  -1.458646991719172 0.1187815731114417 0  -1.419719146950452 0.08693970520524837 0  -1.447601300979239 0.07104331533087717 0  -1.435106130707788 0.0524257813286367 0  -1.451391144408203 0.0336164362594629 0  -1.424169485097266 0.01724709156628797 0  -1.469871315702373 -0.01631483417055984 0  -1.381491402267963 -0.02041215489550277 0  -1.316670001818957 0.04890119985625313 0  -1.377869415505299 -0.008100785958666701 0  -1.353025073037718 -0.00495660182117974 0  -1.364513590652758 -0.03502745766804 0  -1.359379991665484 -0.05488263184259606 0  -1.366162908203795 -0.08830376529279071 0  -1.361130491438786 -0.1124542831874621 0  -1.393714876180318 -0.1951296529311178 0  -1.370080012386073 -0.2557308979923182 0  -1.338043031641747 -0.2334133078194776 0  -1.335364801179797 -0.278986337542144 0  -1.322587564286161 -0.3068793176697089 0  -1.312808890297433 -0.3465703747503822 0  -1.300245253867513 -0.3848225838594567 0  -1.287613547126149 -0.430948141587331 0  -1.263589874327887 -0.4585548595585465 0  -1.255973597303486 -0.4916329175124253 0  -1.244134606525879 -0.5686401191960114 0  -1.222853278826096 -0.6209466514947461 0  -1.200506401519126 -0.6838310935856536 0  -1.173930849478393 -0.7456199789589529 0  -1.143622851218376 -0.8096308062885231 0  -1.108918601606008 -0.8761095587312362 0  -1.067612663575702 -0.9347638660698394 0  -1.028400895954614 -0.9982692167563778 0  -0.9801174562575379 -1.077010757818193 0  -0.9250782584764519 -1.14302492913826 0  -0.8645677476515043 -1.210773242567266 0  -0.7979902389595022 -1.274518862569771 0  -0.7255086559568388 -1.334846149590892 0  -0.6474195550309134 -1.392575871791738 0  -0.5617909472548096 -1.441084486507334 0  -0.4744613444391335 -1.481714781930012 0  -0.3811949215543299 -1.520797833391509 0  -0.2840243997630393 -1.549389941522514 0  -0.1839465457604149 -1.569896736812943 0  -0.08196092493937525 -1.581042995577691 0  0.02081051354811844 -1.583050069647082 0  0.1233315793324731 -1.575506747615856 0  0.224421610176138 -1.558856893933285 0  0.3228627113844813 -1.533322983501322 0  0.4180183124447271 -1.499951229670048 0  0.5088921065507701 -1.458966032914932 0  0.5948339064346106 -1.411568308679015 0  0.6753031862896882 -1.35822294065017 0  0.7500100605396527 -1.301312085315824 0  0.8183253103539289 -1.236701896618273 0  0.8790671038708723 -1.179535983428968 0  0.9390778224779811 -1.117245297590756 0  0.9904080193712268 -1.04911406230183 0  1.036691650267662 -0.983231758016365 0  1.078018752333048 -0.9176277709009131 0  1.114663439723202 -0.8531858162877358 0  1.14702931463714 -0.7902850680199981 0  1.174532981678026 -0.7282415547864213 0  1.200582128221126 -0.6794984933710526 0  1.226689322775215 -0.6215013841062097 0  1.245440548523697 -0.5633888995543188 0  1.262238170036971 -0.5103255129531661 0  1.277526039237693 -0.4607645235789047 0  1.289429150279055 -0.4101211707567171 0  1.302724853123929 -0.370369899659586 0  1.303018371877686 -0.3047997193365862 0  1.309160471994544 -0.2952751694675633 0  1.333156299861354 -0.2755816672170245 0  1.34041816782204 -0.2365848431616109 0  1.348452261848222 -0.2051792838519107 0  1.355529434339298 -0.1745824262720268 0  1.358512489516063 -0.1420640960809702 0  1.368394211706677 -0.1219852484021541 0  1.352058773118997 -0.07220321881063219 0  1.366870356450874 -0.08817998549589984 0  1.395969903378583 -0.08105748755542541 0  1.396745126549801 -0.0576569233004437 0  1.406444390963767 -0.04238323071536429 0  1.412454721006228 -0.02649841893267119 0  1.423292818640227 -0.01415788844562163 0  1.432571354417414 -0.0003038635284195179 0  1.451290826650335 0.01136773923426724 0  -0.09043155183238721 0.9077004220054459 0  0.6799304680592427 -0.5204572137312403 0  -0.7971063568533736 -0.380085239929528 0  -0.08666979974257591 -0.9677706114745268 0  0.6474158390746678 0.5004482037224851 0  1.070999342944522 0.1086980012940074 0  -0.7785298667486494 0.4164878487670988 0  -1.128891320643269 0.04036288037126484 0  1.082023201217733 -0.06879187306819909 0  -1.019431217010676 -0.1638797921098793 0  -0.7149812947686741 0.02222241195676389 0  -0.4278357891337883 -0.1395589934808107 0  -1.005147267856705 0.2203193179128973 0  0.3735228684078599 -0.8553259195040286 0  0.08090092367585551 -0.3275999746274317 0  0.3104124803565005 0.7848612387392599 0  0.2253734733039574 0.1925453924051599 0  0.5539706805082052 0.01040643011364737 0  -0.4873856781637807 -0.7066372129538867 0  -0.4950648435793739 0.7104504606261866 0  -0.2330908867592789 0.3215445141789405 0  0.9026030872262664 -0.2190309809337131 0  0.88335349300351 0.241621204459516 0  0.3470711237328966 -0.233903919823639 0  -0.006375915174958426 0.2500933569918894 0  -0.4779390327350674 0.2205819813575099 0  -0.1854676229938936 -0.2895157405686153 0  0.8470934416253925 0.0159245412418814 0  1.230004545085443 0.02499981043260673 0  0.7916286724650656 -0.3499018197213181 0  0.7060348678168451 -0.116046800006252 0  0.5750242796462777 -0.2216771496521087 0  0.4360191211127212 -0.08883934475560532 0  0.5032958247015789 -0.3901915327376925 0  0.8487433022726827 -0.08964286600063068 0  0.7021587999314954 0.01302633203507406 0  -0.8387498346161325 0.1323489009030652 0  -1.047727657844627 0.1117448223257846 0  -0.9269627315172654 0.03290876801901087 0  -0.8476174081419439 -0.08025550929476309 0  -1.053222563790339 -0.04089078520049627 0  -1.215494496433596 -0.06916055167455232 0  -1.277566514686067 0.01688718912589457 0  -1.272030504768427 0.07444502441993539 0  -1.200170728229168 0.1531617443420477 0  -0.1379786329734147 -0.6324745062392956 0  -0.3038492104277482 -0.5171567894267974 0  -0.3018573604527976 -0.8606863425967479 0  -0.3017749449747782 -0.2069462735899764 0  -0.4481932645381381 -0.4084555282418314 0  -1.211547298026348 -0.1844128998846289 0  -1.187582357374475 0.2570549162726533 0  0.3718707695692198 -0.5270678113354246 0  0.2125673308481739 -0.2671518094637983 0  0.2312393299119476 -0.5877896306335284 0  -0.8920531554093798 0.3022837350687139 0  -0.7094268864381914 0.2007008597448077 0  1.251726248576107 -0.08360542476050967 0  1.189446752429496 -0.1789273858771636 0  1.168259186948081 0.2190347093548435 0  1.237557236396135 0.1319442006160128 0  -0.9150972802007614 -0.6449159113304179 0  -1.037610469555411 -0.4332552431236094 0  -1.004661794196037 0.4851912988186672 0  -0.8758387036598175 0.6750216875990164 0  0.9347923120977876 -0.6118269673854966 0  0.7735377527989727 -0.8360000791068197 0  0.7383994806109537 0.794730053778832 0  0.8991237479986465 0.6032662719370522 0  
[...]
<PointData  Vectors="f_45"> 
<DataArray  type="Float64"  Name="f_45"  NumberOfComponents="3" format="ascii">2.9834885231505004e-01 -3.2416657239810985e-02 0.0000000000000000e+00  -2.7580052934728608e-02 1.3657761573031388e-01 0.0000000000000000e+00  -1.0059292046614431e-01 1.7826412742586725e-01 0.0000000000000000e+00  3.9383638819854690e-02 2.2693503491431058e-01 0.0000000000000000e+00  2.0816427379759115e-02 1.9365290311807984e-01 0.0000000000000000e+00  5.2471792362895613e-02 2.3254817630154898e-01 0.0000000000000000e+00  1.9178769068511903e-01 1.2382736711396822e-01 0.0000000000000000e+00  -2.6833129835535183e-02 1.0493767193862420e-01 0.0000000000000000e+00  -2.1132288451896597e-01 -5.0788975366156189e-02 0.0000000000000000e+00  1.7054524824720210e-01 -2.2762503931436778e-01 0.0000000000000000e+00  1.5947166564162010e-01 2.5810654314948937e-02 0.0000000000000000e+00  1.4686758087947957e-01 1.6518915216138783e-01 0.0000000000000000e+00  2.1809667157878074e-01 7.3349912122350217e-02 0.0000000000000000e+00  1.5811276977369779e-01 1.5614274551170942e-01 0.0000000000000000e+00  2.2247764550828508e-01 1.0641083770708695e-01 0.0000000000000000e+00  8.4582473275581452e-02 1.4197404632225846e-01 0.0000000000000000e+00  -1.5115859222191544e-01 2.6519307048822416e-01 0.0000000000000000e+00  1.9994600301276089e-01 2.8697771215135576e-02 0.0000000000000000e+00  2.0179757235462720e-01 7.5074482754571001e-02 0.0000000000000000e+00  1.6231912103237647e-01 1.5981802795011374e-01 0.0000000000000000e+00  1.8244250285740782e-01 1.2753873793942078e-01 0.0000000000000000e+00  1.5856100082118108e-01 1.5887722870006302e-01 0.0000000000000000e+00  1.6885602411010894e-01 1.4708210921520934e-01 0.0000000000000000e+00  1.4758406317244149e-01 1.6755140009726760e-01 0.0000000000000000e+00  9.4595945109378729e-02 2.0416270062624245e-01 0.0000000000000000e+00  1.1144169690619536e-01 1.9193391594780682e-01 0.0000000000000000e+00  1.2294581336820913e-01 1.8699537860648760e-01 0.0000000000000000e+00  9.3822704396523945e-02 2.0338853672915114e-01 0.0000000000000000e+00  8.1149412693941811e-02 2.0837217519016701e-01 0.0000000000000000e+00  5.9058421762360987e-02 2.1559360680781162e-01 0.0000000000000000e+00  4.4152447261469510e-02 2.1966573600714573e-01 0.0000000000000000e+00  1.4933171736492534e-02 2.2282739140633917e-01 0.0000000000000000e+00  -2.0989796836120126e-02 2.2292055723327642e-01 0.0000000000000000e+00  -2.9389035802164495e-02 2.2196269983957240e-01 0.0000000000000000e+00  -5.3284983323335047e-02 2.1681098762084741e-01 0.0000000000000000e+00  -8.7282286960904842e-02 2.0644846528444782e-01 0.0000000000000000e+00  -1.1062887859107774e-01 1.9439682062260824e-01 0.0000000000000000e+00  -1.3860670312829274e-01 1.7555468768596266e-01 0.0000000000000000e+00  -1.5966370261053683e-01 1.5719718641805158e-01 0.0000000000000000e+00  -1.8206496082713225e-01 1.2979697224577377e-01 0.0000000000000000e+00  -2.0308979238925354e-01 9.4181953582858427e-02 0.0000000000000000e+00  -2.1300638173006936e-01 6.9469630722754402e-02 0.0000000000000000e+00  -2.2054733427608852e-01 3.5771750351565858e-02 0.0000000000000000e+00  -2.2423621649212344e-01 -3.8997918435029811e-03 0.0000000000000000e+00  -2.1987580036434004e-01 -3.9870222993632846e-02 0.0000000000000000e+00  -2.1157092485905896e-01 -7.4727707414379313e-02 0.0000000000000000e+00  -1.9275520729977000e-01 -1.1268737543105417e-01 0.0000000000000000e+00  -1.7402414151428047e-01 -1.4127080674463399e-01 0.0000000000000000e+00  -1.5727543836663407e-01 -1.5930369683319712e-01 0.0000000000000000e+00  -1.2196202421238519e-01 -1.8741347502621347e-01 0.0000000000000000e+00  -8.8413259072641581e-02 -2.0589552131982605e-01 0.0000000000000000e+00  -6.2453152933262555e-02 -2.1492863157053593e-01 0.0000000000000000e+00  -2.7147594354114055e-02 -2.2169656655732939e-01 0.0000000000000000e+00  -5.6380756122326910e-03 -2.2473553186648895e-01 0.0000000000000000e+00  3.8712549982139272e-02 -2.1910412306737126e-01 0.0000000000000000e+00  5.6404683861535673e-02 -2.1629613393937186e-01 0.0000000000000000e+00  3.3488126053819303e-02 -2.2272247869945863e-01 0.0000000000000000e+00  8.3676495490199995e-02 -2.0571759706997861e-01 0.0000000000000000e+00  1.2177263236795910e-01 -1.8878998622078474e-01 0.0000000000000000e+00  1.1994649133951391e-01 -1.8917109492555748e-01 0.0000000000000000e+00  1.4747498629981590e-01 -1.6664107103164888e-01 0.0000000000000000e+00  1.4141981996815689e-01 -1.7771769770704132e-01 0.0000000000000000e+00  1.7034858232362121e-01 -1.2962042207276006e-01 0.0000000000000000e+00  2.2071447934776353e-01 -8.7780290703705272e-02 0.0000000000000000e+00  5.7387317444866338e-02 -2.1435173307343816e-01 0.0000000000000000e+00  9.7548174553020478e-02 -1.7513386851782134e-01 0.0000000000000000e+00  1.9165565112819735e-01 -1.3310848660224364e-01 0.0000000000000000e+00  1.7764493275923723e-01 -1.3974167459735709e-01 0.0000000000000000e+00  1.3687673451350532e-01 -1.5184977686558662e-01 0.0000000000000000e+00  2.2501902036491783e-01 -1.8042650672484373e-01 0.0000000000000000e+00  4.6231610758174876e-02 1.6211885013426780e-01 0.0000000000000000e+00  -1.8606060037224009e-02 -8.5246788657862282e-02 0.0000000000000000e+00  1.7830578470112418e-01 -1.6055669333214041e-02 0.0000000000000000e+00  1.7616687592425259e-01 1.3428733160447279e-01 0.0000000000000000e+00  2.2235796713774647e-01 -4.8708629304201598e-02 0.0000000000000000e+00  1.7475268697666327e-01 -2.0113958524165972e-02 0.0000000000000000e+00  2.4429764931307238e-01 -2.1853928633917431e-02 0.0000000000000000e+00  -4.3310619594641726e-02 9.4223174552600653e-02 0.0000000000000000e+00  -1.0615531268791389e-01 1.5064258311677736e-01 0.0000000000000000e+00  5.7746859026917861e-02 2.8328225461773571e-01 0.0000000000000000e+00  -1.3028192577169506e-01 6.6679101134679203e-02 0.0000000000000000e+00  -1.8567533653338031e-01 6.3946248693380628e-02 0.0000000000000000e+00  -3.8394329930633075e-02 8.0515670470063208e-02 0.0000000000000000e+00  -6.2052951509047015e-02 -6.0550555138409082e-02 0.0000000000000000e+00  1.2175547523564774e-01 -2.6315540245432843e-02 0.0000000000000000e+00  -8.1977581966977284e-02 5.0198479006603944e-02 0.0000000000000000e+00  -4.2311574579833783e-02 -8.5916941153380139e-02 0.0000000000000000e+00  -1.9901437335006270e-01 -6.8165024774226299e-02 0.0000000000000000e+00  -1.1638159953038257e-01 -6.9377814558599080e-02 0.0000000000000000e+00  5.7468014198321600e-02 -2.7978931969118115e-01 0.0000000000000000e+00  -1.0995336663433382e-01 -1.5535044286849573e-01 0.0000000000000000e+00  -4.6183419848465822e-02 -1.1904761923292942e-01 0.0000000000000000e+00  2.4428969144949161e-01 -3.3118226516617257e-02 0.0000000000000000e+00  1.8849112879477956e-01 -1.9868080877695329e-02 0.0000000000000000e+00  2.2000356403894591e-01 1.7563499225992589e-02 0.0000000000000000e+00  1.6011627550148927e-01 -1.4980671754282276e-01 0.0000000000000000e+00  1.9095671277141568e-01 -5.3889060039566125e-03 0.0000000000000000e+00  4.1295577136297869e-02 5.9064158096883389e-02 0.0000000000000000e+00  5.1695263550291450e-02 -1.7856459838622810e-01 0.0000000000000000e+00  2.4024362112198849e-01 1.5245247175510337e-01 0.0000000000000000e+00  1.5705478939358880e-01 1.3200475521042107e-01 0.0000000000000000e+00  1.9270067944584812e-01 1.1630636978494314e-01 0.0000000000000000e+00  2.0716063015559086e-01 1.1132946893978088e-01 0.0000000000000000e+00  1.0663020701594179e-01 1.6860950618287912e-01 0.0000000000000000e+00  8.4308636792753147e-02 1.8764818373869779e-01 0.0000000000000000e+00  2.3780164259456676e-01 4.7964794380843986e-02 0.0000000000000000e+00  1.8312985884364524e-01 1.0983274383352633e-01 0.0000000000000000e+00  1.6338268360238165e-01 1.5742633821430999e-01 0.0000000000000000e+00  1.6856170766742321e-01 1.4539312194908033e-01 0.0000000000000000e+00  1.4398263423376967e-01 1.7146983562454504e-01 0.0000000000000000e+00  1.4176630826650324e-01 1.7466845589814220e-01 0.0000000000000000e+00  9.7707215953333509e-02 1.9926345941551743e-01 0.0000000000000000e+00  7.9038984853378791e-02 2.0922554607800808e-01 0.0000000000000000e+00  1.1383016322031418e-01 1.9463571784650341e-01 0.0000000000000000e+00  7.1540624309330253e-02 2.0961719977086440e-01 0.0000000000000000e+00  2.8392219935430608e-02 2.2346091175389587e-01 0.0000000000000000e+00  1.1418457642355490e-02 2.2280323586105352e-01 0.0000000000000000e+00  -2.8087364777500522e-02 2.2211121494486299e-01 0.0000000000000000e+00  -5.0324606665167568e-02 2.1854469206400781e-01 0.0000000000000000e+00  -8.9272841580354714e-02 2.0470901924143173e-01 0.0000000000000000e+00  -1.3456792323619096e-01 1.7916359201365514e-01 0.0000000000000000e+00  -1.4911092440810675e-01 1.6742039234945938e-01 0.0000000000000000e+00  -1.7152563649324659e-01 1.4255898412301951e-01 0.0000000000000000e+00  -1.9915571487739830e-01 1.0385170438966557e-01 0.0000000000000000e+00  -2.1257557243941136e-01 6.9076061936056241e-02 0.0000000000000000e+00  -2.2231615830214987e-01 2.8487448665182932e-02 0.0000000000000000e+00  -2.2345683893628882e-01 -1.1970211061576537e-02 0.0000000000000000e+00  -2.1776147731773257e-01 -5.2600593921390271e-02 0.0000000000000000e+00  -2.0449574849182964e-01 -9.0883824177420400e-02 0.0000000000000000e+00  -1.8595200087202207e-01 -1.2491930056401321e-01 0.0000000000000000e+00  -1.6190396116672484e-01 -1.5436418610718666e-01 0.0000000000000000e+00  -1.3451633459648241e-01 -1.7926159868056518e-01 0.0000000000000000e+00  -1.0219719544228427e-01 -1.9860683188086264e-01 0.0000000000000000e+00  -7.6141710548765562e-02 -2.1139111292801488e-01 0.0000000000000000e+00  -3.2785938935907345e-02 -2.2033618969921784e-01 0.0000000000000000e+00  -8.1833511959343228e-03 -2.2378272415215916e-01 0.0000000000000000e+00  -1.0998904152986436e-02 -2.2413824025327023e-01 0.0000000000000000e+00  3.6903069180212654e-02 -2.1969424081596908e-01 0.0000000000000000e+00  7.2889242925189321e-02 -2.1233251620466939e-01 0.0000000000000000e+00  8.4186839262676866e-02 -2.0687297979774388e-01 0.0000000000000000e+00  1.0697889996096793e-01 -1.9649724728749215e-01 0.0000000000000000e+00  1.2016894346320750e-01 -1.8893509535929900e-01 0.0000000000000000e+00  1.4509347279548246e-01 -1.7019700194136300e-01 0.0000000000000000e+00  1.3902788638992417e-01 -1.7387083468889139e-01 0.0000000000000000e+00  1.2826622570751262e-01 -1.8433899750464247e-01 0.0000000000000000e+00  1.6843000714481121e-01 -1.4667611372720041e-01 0.0000000000000000e+00  1.8623941300898345e-01 -1.2423870022538802e-01 0.0000000000000000e+00  1.7986925391416178e-01 -1.3418110964820726e-01 0.0000000000000000e+00  1.9735179975368392e-01 -1.0247282530965278e-01 0.0000000000000000e+00  1.8562290684226568e-01 -1.3253148811592991e-01 0.0000000000000000e+00  2.0428442199123312e-01 -5.3252937739005121e-02 0.0000000000000000e+00  2.2491734401034238e-01 -4.6901094441368588e-03 0.0000000000000000e+00  -7.6600321834103355e-02 -2.7405673722206791e-01 0.0000000000000000e+00  9.7210330192016747e-02 -1.3109283104794098e-01 0.0000000000000000e+00  2.3683294197190541e-01 -7.4510582086975669e-02 0.0000000000000000e+00  1.8202327799994639e-01 -1.2581729764808472e-01 0.0000000000000000e+00  2.2577088654237051e-01 -3.8791907395146402e-02 0.0000000000000000e+00  1.7838567199316038e-01 -1.3213956741666177e-01 0.0000000000000000e+00  1.6493141905238770e-01 -3.1133771272702387e-03 0.0000000000000000e+00  1.6824324835145324e-01 2.3574116344962001e-01 0.0000000000000000e+00  -1.9203299345269778e-01 2.6865199249762252e-02 0.0000000000000000e+00  -1.7101006223384087e-02 -8.7627029587817457e-02 0.0000000000000000e+00  2.3171620840193793e-01 -7.5706223182199398e-02 0.0000000000000000e+00  1.1042939905899989e-01 -2.0385538763379407e-01 0.0000000000000000e+00  1.0370460567266802e-01 -1.6815965700362387e-01 0.0000000000000000e+00  7.0456806682266823e-02 -2.2950020077031968e-01 0.0000000000000000e+00  -4.1184467265076741e-02 -1.9878428809398405e-01 0.0000000000000000e+00  -1.0855181849149022e-02 -1.9967028137580417e-01 0.0000000000000000e+00  -2.0999201691336175e-01 -7.7611988906394189e-02 0.0000000000000000e+00  4.7438417684866035e-02 -2.1871725536968939e-01 0.0000000000000000e+00  1.6908087646668907e-01 1.4654507150982490e-01 0.0000000000000000e+00  -2.1158686760181239e-01 7.3168731285379707e-02 0.0000000000000000e+00  6.7085857184115055e-02 2.1357834440471449e-01 0.0000000000000000e+00  2.2352998276333433e-01 6.6524612752407687e-03 0.0000000000000000e+00  1.5766516931813787e-01 -1.5874776171767011e-01 0.0000000000000000e+00  2.2308249050659001e-01 -1.5318978186392477e-02 0.0000000000000000e+00  2.1375530983580096e-01 -6.5702447340086359e-02 0.0000000000000000e+00  2.2108392138757296e-01 3.3785769871785248e-02 0.0000000000000000e+00  2.2355432079578660e-01 -8.0891542416746884e-03 0.0000000000000000e+00  1.9441858938667309e-01 1.1143952587384150e-01 0.0000000000000000e+00  2.1588382345788640e-01 -5.8386937047105923e-02 0.0000000000000000e+00  -1.5808280155949783e-01 -1.5848274305095794e-01 0.0000000000000000e+00  -2.2496968591608452e-01 3.0804089559718396e-03 0.0000000000000000e+00  -1.7132186768233654e-01 1.4414060718163083e-01 0.0000000000000000e+00  -1.1543625437988697e-02 2.2448693829311239e-01 0.0000000000000000e+00  2.2203915493164347e-01 -3.0572805452527878e-02 0.0000000000000000e+00  -2.5906748426269523e-02 2.2236714374328026e-01 0.0000000000000000e+00  -2.4034866267382601e-02 -2.2256078993745748e-01 0.0000000000000000e+00  4.2442868587624666e-02 -2.2069598671185917e-01 0.0000000000000000e+00  1.8781638504598774e-01 -1.2146352598389686e-01 0.0000000000000000e+00  2.0405436478059033e-01 9.1668014457040939e-02 0.0000000000000000e+00  6.8583566941132984e-03 -2.2409362070671437e-01 0.0000000000000000e+00  -1.4578663684234977e-01 -1.7422416827748274e-01 0.0000000000000000e+00  1.7936933054986190e-01 -1.3402510358924125e-01 0.0000000000000000e+00  2.9249335682068485e-03 2.2498047329212861e-01 0.0000000000000000e+00  2.2260329022399461e-01 -2.1562593420729484e-02 0.0000000000000000e+00  2.1603736088885758e-01 -5.7713381926011331e-02 0.0000000000000000e+00  1.3784954713124856e-01 -1.7623917528096589e-01 0.0000000000000000e+00  1.9914111981330010e-01 -1.0209912359254886e-01 0.0000000000000000e+00  1.3533733385861740e-01 -1.7849104776233804e-01 0.0000000000000000e+00  1.7269891006693169e-01 -1.4335633944223028e-01 0.0000000000000000e+00  1.5863303618469212e-02 -2.2336465314826123e-01 0.0000000000000000e+00  2.1083299879163869e-01 -7.4628095909976641e-02 0.0000000000000000e+00  2.2252785067200045e-01 -2.3162082778961483e-02 0.0000000000000000e+00  2.1776068972580728e-01 -5.0995457255225710e-02 0.0000000000000000e+00  2.2222344323494780e-01 -2.4924419446636488e-02 0.0000000000000000e+00  2.2322678062773113e-01 -1.3249320462525707e-02 0.0000000000000000e+00  2.2164492448589132e-01 2.9940858227001498e-02 0.0000000000000000e+00  2.2358346420696174e-01 -4.0858955275459670e-03 0.0000000000000000e+00  2.1649522431417212e-01 -5.6655291984295003e-02 0.0000000000000000e+00  2.1013461089348023e-01 -7.8067132742611525e-02 0.0000000000000000e+00  2.1964677880013436e-01 4.4276886799989756e-02 0.0000000000000000e+00  2.2275993930441290e-01 2.0987411381240755e-02 0.0000000000000000e+00  -1.6977713844467715e-01 1.4608821010338655e-01 0.0000000000000000e+00  -4.7965597027898245e-02 2.1882727409165145e-01 0.0000000000000000e+00  -1.3963004057665598e-01 1.7499666184355911e-01 0.0000000000000000e+00  1.3493899495409611e-01 1.7961894173091927e-01 0.0000000000000000e+00  7.3483033656033328e-02 2.1156142047811274e-01 0.0000000000000000e+00  2.2077983825772587e-01 -3.8525378403645873e-02 0.0000000000000000e+00  2.2400480718858995e-01 3.2884136541792251e-03 0.0000000000000000e+00  -1.1375449893102298e-01 -1.9280157722641988e-01 0.0000000000000000e+00  -1.4174366856607770e-01 -1.7368693052568132e-01 0.0000000000000000e+00  -1.9405474316099888e-01 -1.1163101311597676e-01 0.0000000000000000e+00  1.9738499088626535e-01 -1.0520432433167644e-01 0.0000000000000000e+00  2.0414072984749151e-01 -9.1566811946098198e-02 0.0000000000000000e+00  2.0735093194000845e-01 -8.3515875970938389e-02 0.0000000000000000e+00  1.9978940183422242e-01 -1.0046122598808867e-01 0.0000000000000000e+00  2.1648934211339266e-01 5.6436739678013471e-02 0.0000000000000000e+00  2.2108426476933654e-01 -3.5763868720375118e-02 0.0000000000000000e+00  1.2320596036391730e-01 1.8676710293173668e-01 0.0000000000000000e+00  1.8391180039126231e-01 1.2732245766228115e-01 0.0000000000000000e+00  1.6890200753246157e-01 -1.4664448382598477e-01 0.0000000000000000e+00  1.0418617372734047e-01 -1.9800016995878369e-01 0.0000000000000000e+00  1.0732202902966385e-01 -1.9630679323883513e-01 0.0000000000000000e+00  1.2789975395523031e-02 -2.2344456634081214e-01 0.0000000000000000e+00  1.0309667944132923e-02 2.2356692106105758e-01 0.0000000000000000e+00  1.0674406553971186e-01 1.9662383691950097e-01 0.0000000000000000e+00  -2.2387531880432240e-01 -5.0238889131155109e-03 0.0000000000000000e+00  -1.8247267130153014e-01 1.2976700114620915e-01 0.0000000000000000e+00  -1.8934024467998131e-01 -1.1950182848740898e-01 0.0000000000000000e+00  -2.2366858428447209e-01 1.0040554569641322e-02 0.0000000000000000e+00  -6.1808567021503759e-02 -2.1511740876012020e-01 0.0000000000000000e+00  2.1585884156211818e-01 6.4514722392373353e-02 0.0000000000000000e+00  1.7067087196327954e-01 1.4528619455837777e-01 0.0000000000000000e+00  2.4240551547713898e-02 2.2289443923152166e-01 0.0000000000000000e+00  1.6663428556889959e-01 1.4949917339867888e-01 0.0000000000000000e+00  2.2171227150780901e-01 3.0807027798534420e-02 0.0000000000000000e+00  2.1067923751026621e-01 7.5320233237775744e-02 0.0000000000000000e+00  -2.2558929186941520e-01 -1.9029145179300370e-02 0.0000000000000000e+00  -6.9025496005681780e-02 2.1224639489447508e-01 0.0000000000000000e+00  -2.1253714013210218e-01 -7.5819289430774456e-02 0.0000000000000000e+00  2.1286259716231609e-01 6.8947349923922888e-02 0.0000000000000000e+00  2.0291946449733092e-01 -9.4231081809632786e-02 0.0000000000000000e+00  2.0632826785239153e-01 8.6373223024315687e-02 0.0000000000000000e+00  2.1538992369381868e-01 6.0823216181943057e-02 0.0000000000000000e+00  1.5871158612461891e-01 1.5777774647311166e-01 0.0000000000000000e+00  2.2098255869077818e-01 3.4481856888131282e-02 0.0000000000000000e+00  -1.4402077612110334e-01 1.7165201681669140e-01 0.0000000000000000e+00  -6.2117977007156974e-02 2.1512448148075933e-01 0.0000000000000000e+00  -2.2277302768433743e-01 2.2687632797645012e-02 0.0000000000000000e+00  -2.1788898963491218e-01 -5.1408486065808633e-02 0.0000000000000000e+00  -2.3643229408073656e-02 -2.2273410186272261e-01 0.0000000000000000e+00  -1.4566440971618264e-01 -1.7019168133878662e-01 0.0000000000000000e+00  -1.3659541813660578e-01 -1.7739826639450071e-01 0.0000000000000000e+00  1.5861349504728270e-01 -1.6403645033310960e-01 0.0000000000000000e+00  -1.5788812314547415e-01 1.5981884037060765e-01 0.0000000000000000e+00  -8.4348476131135761e-02 -2.0735748403039941e-01 0.0000000000000000e+00  -1.8479649709928794e-01 -1.2645070919726623e-01 0.0000000000000000e+00  -1.8886796042436682e-01 1.2023374882396030e-01 0.0000000000000000e+00  -9.5601171325043338e-02 2.0242502057087403e-01 0.0000000000000000e+00  2.1998252386395306e-01 6.1498438234590447e-02 0.0000000000000000e+00  -2.1837931977705111e-01 4.9753545843807929e-02 0.0000000000000000e+00  -2.2078408103984884e-01 3.6978557640894999e-02 0.0000000000000000e+00  -8.8117702184163232e-02 2.0581508523857972e-01 0.0000000000000000e+00  3.4784577546868971e-02 2.2109044614473169e-01 0.0000000000000000e+00  9.0566023464308879e-02 2.0467988146867513e-01 0.0000000000000000e+00  1.8491809774830024e-02 -2.2302226679107684e-01 0.0000000000000000e+00  -9.9338061768849739e-02 -2.0062308023243722e-01 0.0000000000000000e+00  8.3122317163276685e-02 -2.0778764934695423e-01 0.0000000000000000e+00  2.1709908785321527e-01 -5.4337721200652681e-02 0.0000000000000000e+00  1.5845375491819694e-01 -1.58070924518474