<?xml version="1.0"?>
<VTKFile type="UnstructuredGrid"  version="0.1"  >
<UnstructuredGrid>
<Piece  NumberOfPoints="2549" NumberOfCells="4928">
<Points>
<DataArray  type="Float64"  NumberOfComponents="3"  format="ascii">1.473403874342973 0.03191745664817678 0  1.469006687948756 0.05495770150123924 0  1.445257754917852 0.06382438635291013 0  1.433176975206809 0.08001465880635267 0  1.428071943677687 0.09201547643731162 0  1.423677018435114 0.1155900557324889 0  1.404260325650583 0.1201526440008067 0  1.373501643841821 0.1264235397232145 0  1.394839991146794 0.1531777786179525 0  1.195081037750726 0.3974574540729673 0  1.386794118634233 0.1768511041346873 0  1.377784831446575 0.2139851928542062 0  1.339374840211271 0.2316131537938729 0  1.337525494197185 0.2589500464547553 0  1.334336075188132 0.2905974274943028 0  1.31603814768031 0.3232623581666093 0  1.308031960638103 0.3578623092998088 0  1.287480633765328 0.3685819026839668 0  1.273553137803415 0.4198086520738731 0  1.2617725909843 0.4604731344588099 0  1.241599418266295 0.5047456981868843 0  1.223548142259627 0.5503877797958703 0  1.200893949936197 0.5978524773475616 0  1.17800851915137 0.6492612730447883 0  1.15333740019847 0.7063645830526283 0  1.111706633715777 0.7375924118930375 0  1.085070018029611 0.7929028245230915 0  1.052847784564305 0.8503923678847221 0  1.011747024523934 0.9033698785319498 0  0.9689113908451252 0.9591592695758184 0  0.9217741500184924 1.013729967137824 0  0.8695983417627742 1.068826955775921 0  0.8139423426412757 1.121424733166935 0  0.7549743077491766 1.170904636517414 0  0.689140141006038 1.221440319646125 0  0.620485877896419 1.268278170575623 0  0.5466175003987793 1.311488370989656 0  0.4687778601056338 1.350753239107743 0  0.3872101413085511 1.384711547339879 0  0.3017768622481667 1.413695667724688 0  0.2137999895696742 1.436338220216474 0  0.1243533243274027 1.451574177606834 0  0.03239308761883896 1.461370590894293 0  -0.0594887340843286 1.463119933091049 0  -0.1515831794120817 1.457833156687959 0  -0.2422678582263161 1.44470429514585 0  -0.3312694479644944 1.425290006838556 0  -0.4174626059523758 1.396984074435263 0  -0.4996203745598734 1.365654084019001 0  -0.5791702240132 1.327547778869264 0  -0.6540413741234399 1.282575315945345 0  -0.7243643390309434 1.2347105338056 0  -0.7896451488918014 1.182452790392297 0  -0.8505613002916056 1.127550951212062 0  -0.9051515791612651 1.07097783181379 0  -0.9585777794577164 1.01056663505504 0  -1.001012566979806 0.9577055882707065 0  -1.046160009030479 0.9043626934188801 0  -1.08531231461277 0.8425714562807395 0  -1.11974184608835 0.7848570299357887 0  -1.148630379222513 0.7286157458388566 0  -1.172413575341801 0.6682726739537034 0  -1.20475153804626 0.6286595307384739 0  -1.218862938090823 0.5515212816128581 0  -1.219186105233294 0.5114566353316725 0  -1.263491020303941 0.5009488724740078 0  -1.278468169948164 0.4501764747182449 0  -1.28794982040186 0.4115168226468405 0  -1.295154415967271 0.3729292382131529 0  -1.320746108991613 0.3509110016296845 0  -1.329829416317356 0.3015462597095535 0  -1.305472804886359 0.3240231007481312 0  -1.376368963801367 0.2892534742084784 0  -1.370755948246574 0.1943579132106133 0  -1.367898097975714 0.1695139521372042 0  -1.372202220056863 0.1366626250281429 0  -1.386577942218755 0.1201413619378975 0  -1.397910802934263 0.0875454187453875 0  -1.396467893662532 0.1127509351416373 0  -1.386868080858995 0.02385273844348446 0  -1.400761381945614 0.09678494875269729 0  -1.418362913645792 0.1605413461751491 0  -1.467884656268095 0.08663781349090963 0  -1.478080399448071 0.05723442042470098 0  -1.503206007301313 0.03127985526071971 0  -1.488118258089892 0.003794272965299762 0  -1.47446258072624 -0.02870019721199948 0  -1.497662345029968 -0.4891692403856718 0  -1.398318423845134 -0.04245319258660787 0  -1.346269213751971 0.4609466368224464 0  -1.442742520984093 -0.05787040702284777 0  -1.453958561972657 0.01680910372971222 0  -1.418725313399215 -0.1223676902772342 0  -1.392596295237418 -0.08633447620885394 0  -1.376316015217816 -0.100032038757415 0  -1.382588717089693 -0.1231220330521806 0  -1.398763942731964 -0.2405873741078867 0  -1.329418981020955 -0.3473498828161488 0  -1.360674836256266 -0.2392699910462781 0  -1.357804229467688 -0.2969230861694666 0  -1.323732997837772 -0.3238538019629059 0  -1.329627755426275 -0.3617098999840989 0  -1.327918809221292 -0.401268441836485 0  -1.347914961729994 -0.4485120487047395 0  -1.238732780489674 -0.4669021272957138 0  -1.209074428151029 -0.4999561076090758 0  -1.251880476452862 -0.6173641199697175 0  -1.199774438100674 -0.637520922236344 0  -1.189068067803279 -0.7019872477090731 0  -1.162632255987803 -0.765577764501668 0  -1.141904752412034 -0.8290327798488499 0  -1.098075266889441 -0.9096172219074717 0  -1.032800933719831 -0.9334798280918986 0  -1.009117443746535 -1.006820105726102 0  -0.9550148927298613 -1.089255158630591 0  -0.8979662408105921 -1.143111814055399 0  -0.8367884080114687 -1.211618182466339 0  -0.7700030696771953 -1.270665801897421 0  -0.6977051490480399 -1.327766664802051 0  -0.6181715782349524 -1.380229065463734 0  -0.5361659460415386 -1.428463956133347 0  -0.450519848838334 -1.465876623681223 0  -0.3576089942677313 -1.5012639549686 0  -0.2637312502645774 -1.528416209562828 0  -0.165810755162024 -1.546819300319527 0  -0.06675160445414269 -1.556840493651767 0  0.03323483605362352 -1.557850938086321 0  0.1328174179738335 -1.549991587995255 0  0.2310832805713884 -1.533286801283131 0  0.3267903355747492 -1.50820982066927 0  0.4194306010509858 -1.475726122858073 0  0.5081196512667953 -1.436021492779065 0  0.5921026599079267 -1.390175642894573 0  0.6713962982317416 -1.338783947492003 0  0.7440895477027136 -1.283509328114942 0  0.8144159427026221 -1.223012274544587 0  0.8742629713930495 -1.166475983764983 0  0.9314409206133161 -1.105283438746198 0  0.9855417660138684 -1.040289042214992 0  1.032634699293409 -0.9766062892197889 0  1.075282073732782 -0.9125274753470567 0  1.114101168415417 -0.8504408043091276 0  1.146697943737142 -0.7876481214998073 0  1.174277311990216 -0.7263979625625515 0  1.208202572640636 -0.6825970719868978 0  1.231361144090619 -0.6223583528463154 0  1.253944771021994 -0.5663685905756446 0  1.271749408378069 -0.5122196301247161 0  1.284350198640254 -0.4632316692583446 0  1.289474433675746 -0.4086389834452578 0  1.315761008929962 -0.3816604100108008 0  1.31832654570953 -0.3020259379841432 0  1.296530422039256 -0.3174863939830931 0  1.349217508900341 -0.2736102244024213 0  1.366853309503127 -0.2255957387363322 0  1.362419179535173 -0.1943146493591419 0  1.367383483079509 -0.1646594037175514 0  1.377057469105359 -0.1364735920192769 0  1.375430403019848 -0.1020698892182732 0  1.36370135548303 0.8234777832622094 0  1.409580040058276 -0.07854638763085547 0  1.404597082788759 -0.08707299679316728 0  1.411884329931807 -0.05653233205691346 0  1.430684830035288 -0.04305934920237457 0  1.430024718786663 -0.02285823396848187 0  1.439645972817388 -0.01189893700515141 0  1.446368124592104 0.003660877992964281 0  1.466194684424374 0.01154715595970249 0  -0.09679991809546323 0.8836575667098975 0  0.6909864781320396 -0.5049002092994613 0  -0.8067063235062281 -0.3860866491514889 0  -0.07530286222984203 -0.943492788417343 0  0.6519310798936931 0.4973636064238051 0  1.091138609616664 0.1166360043890611 0  -0.7944677078520672 0.4037181402147084 0  -1.157192435568319 0.02818580519278244 0  1.101790729022265 -0.06307224602244793 0  -1.039380405126085 -0.1761973311532238 0  -0.7337457817012178 0.01370030565991909 0  -0.4390560084262223 -0.1400541383095716 0  -1.02835756204416 0.2089065794657474 0  0.3816504402606699 -0.8309404267799447 0  0.08472809162894825 -0.3046532523250076 0  0.3065962585274143 0.7686011879685855 0  0.2197354712734836 0.183866478693496 0  0.5636109673513169 0.01762867580530443 0  -0.4816400485476041 -0.6967344057722177 0  -0.5028224121487707 0.6898772425627239 0  -0.2388709303021873 0.3047575324470902 0  0.919729920099433 -0.2116196188537044 0  0.8980486561535164 0.2474420968129657 0  0.3542213404924784 -0.2142537086256489 0  -0.009885531101609116 0.2299570322916046 0  -0.4914635276796665 0.2088794511356123 0  -0.1883142581432099 -0.2801725812910507 0  0.8640466145209685 0.02286904230692543 0  1.250784626608497 0.03251591414741711 0  0.8058030906784284 -0.3389859997553324 0  0.720573552935493 -0.1063504222791892 0  0.5870824654283278 -0.2070955537385406 0  0.4424855850584974 -0.0763837135000827 0  0.5152248926390098 -0.3701948207035075 0  0.8658936342090517 -0.08204768562987595 0  0.7160983594968815 0.02012775554167801 0  -0.8599636186927423 0.121849490363021 0  -1.073597117031887 0.1000104293767874 0  -0.949772801455517 0.02212671887363805 0  -0.8673347191015369 -0.08973147762062855 0  -1.077407870404139 -0.05281382708097259 0  -1.241535672247243 -0.08124810948646788 0  -1.314339827890701 0.003634430462960261 0  -1.310012585841424 0.0589431638507743 0  -1.230520862444505 0.1397855885364069 0  -0.1298785521501452 -0.6116321134335727 0  -0.3021791647849251 -0.5038208799474174 0  -0.2913336366243651 -0.8423361567848829 0  -0.3091392996331759 -0.2027690659777196 0  -0.4525054570469215 -0.402311479528047 0  -1.23150592433339 -0.1991258116053239 0  -1.212287933156574 0.244769814493746 0  0.3840684387532903 -0.5021784050688528 0  0.2174331402506094 -0.2461996927357294 0  0.244197000105431 -0.5607389244342055 0  -0.91184530186188 0.290967618513461 0  -0.7277933681850615 0.1898817967814485 0  1.2721695715854 -0.07794319486726743 0  1.209234513529359 -0.1762270836997171 0  1.188724847456974 0.2280382136297952 0  1.264241487309786 0.1413911587762696 0  -0.9128737187334359 -0.6534487369861319 0  -1.047048538710231 -0.4469046038891205 0  -1.021008909850462 0.4748298450050991 0  -0.8859358769869852 0.6620382370635396 0  0.9427907296196749 -0.6042085870832451 0  0.776606313218438 -0.8227353987866338 0  0.7324680688333889 0.7934787647362348 0  0.9008819555883799 0.6079890465573312 0  0.045163277157299
[...]
<PointData  Vectors="f_45"> 
<DataArray  type="Float64"  Name="f_45"  NumberOfComponents="3" format="ascii">3.0698556854320336e-01 -2.8405651683389016e-02 0.0000000000000000e+00  -2.3657677333752028e-02 1.3358674988013428e-01 0.0000000000000000e+00  -1.2256697325870658e-01 1.8011428545255148e-01 0.0000000000000000e+00  1.3758282762014382e-01 2.1482382643993053e-01 0.0000000000000000e+00  2.4953675828884050e-01 1.0519737100974105e-01 0.0000000000000000e+00  3.3463828313944247e-02 6.2892019933853599e-02 0.0000000000000000e+00  -2.9567639774193966e-01 1.8588848075632824e-01 0.0000000000000000e+00  -5.3075902066179362e-02 -1.9551725533462377e-01 0.0000000000000000e+00  5.7712340161019782e-02 1.6608834972132705e-01 0.0000000000000000e+00  2.7172016293047534e-02 2.3954326219838953e-01 0.0000000000000000e+00  6.2016988954914497e-02 1.9845005267381768e-01 0.0000000000000000e+00  3.1254950593350012e-02 1.2330383121140452e-01 0.0000000000000000e+00  -7.3407891313121434e-02 1.3754360638492669e-01 0.0000000000000000e+00  3.1510792232821094e-01 -1.4734612788130253e-02 0.0000000000000000e+00  1.2006116303313964e-01 1.4805118909435611e-01 0.0000000000000000e+00  1.9699469996975877e-01 1.5062014806907073e-01 0.0000000000000000e+00  3.6094693177852674e-02 1.2284140215949053e-01 0.0000000000000000e+00  5.4842757625707714e-02 1.4872571216064823e-01 0.0000000000000000e+00  2.3752729466227632e-01 9.8896320227815721e-02 0.0000000000000000e+00  1.5279617365516351e-01 1.5218483444090969e-01 0.0000000000000000e+00  1.5528979327524794e-01 1.6297055737507266e-01 0.0000000000000000e+00  1.5575231393411121e-01 1.6075497119852289e-01 0.0000000000000000e+00  1.3144256298129886e-01 1.7610260780681372e-01 0.0000000000000000e+00  1.8908116388763543e-01 1.5428149222461862e-01 0.0000000000000000e+00  2.6719656691070157e-02 1.9239335297226756e-01 0.0000000000000000e+00  1.8515830887981938e-02 1.9874706257365241e-01 0.0000000000000000e+00  1.6802090335993625e-01 1.7286554811067678e-01 0.0000000000000000e+00  7.3381106083199948e-02 2.0785029090019827e-01 0.0000000000000000e+00  5.4667017896568214e-02 2.1800132921865750e-01 0.0000000000000000e+00  4.8641839243437388e-02 2.1770948373935489e-01 0.0000000000000000e+00  2.1004557281710145e-02 2.2305236371333284e-01 0.0000000000000000e+00  1.0399733411935713e-03 2.2360533341101260e-01 0.0000000000000000e+00  -2.6650658830395847e-02 2.2210701382155515e-01 0.0000000000000000e+00  -4.8872581015083211e-02 2.1833585117351106e-01 0.0000000000000000e+00  -6.8302369707723853e-02 2.1307115805058136e-01 0.0000000000000000e+00  -9.6019747674449291e-02 2.0199749252928986e-01 0.0000000000000000e+00  -1.2155078382731078e-01 1.8804442836869542e-01 0.0000000000000000e+00  -1.4542749450522774e-01 1.6992188349958862e-01 0.0000000000000000e+00  -1.6823778530349487e-01 1.4764991898203889e-01 0.0000000000000000e+00  -1.8678609093183679e-01 1.2348289908064534e-01 0.0000000000000000e+00  -2.0449527670619091e-01 9.0355143101878158e-02 0.0000000000000000e+00  -2.1568647257669021e-01 6.1051762837589528e-02 0.0000000000000000e+00  -2.2157020697499274e-01 2.8661357789616104e-02 0.0000000000000000e+00  -2.2411333906146225e-01 -8.6979253266644876e-03 0.0000000000000000e+00  -2.1872225875476031e-01 -4.5154412227641876e-02 0.0000000000000000e+00  -2.1072109353335708e-01 -7.7548505429169051e-02 0.0000000000000000e+00  -1.9157027202214810e-01 -1.1420586363219253e-01 0.0000000000000000e+00  -1.7315858309529600e-01 -1.4258865652150560e-01 0.0000000000000000e+00  -1.5657185408161847e-01 -1.5975750808304004e-01 0.0000000000000000e+00  -1.2141819575724067e-01 -1.8782664666873206e-01 0.0000000000000000e+00  -9.3485119481980197e-02 -2.0374923552968568e-01 0.0000000000000000e+00  -6.5977898414028291e-02 -2.1336632155055024e-01 0.0000000000000000e+00  -3.5864093149430461e-02 -2.2128892356102547e-01 0.0000000000000000e+00  -7.0771645579882922e-03 -2.2321256591637900e-01 0.0000000000000000e+00  1.7774426633154962e-02 -2.2344507292632851e-01 0.0000000000000000e+00  4.2030909526059722e-02 -2.1918157715161088e-01 0.0000000000000000e+00  3.7406546257897237e-02 -2.2132212022360134e-01 0.0000000000000000e+00  6.3419307828253016e-02 -2.1228137925663748e-01 0.0000000000000000e+00  1.0865559306115403e-01 -1.9701508154952713e-01 0.0000000000000000e+00  1.0763569047804920e-01 -1.9653934813805748e-01 0.0000000000000000e+00  1.6989439993658878e-01 -1.5240192605307823e-01 0.0000000000000000e+00  9.5384178651528734e-02 -1.9570716753923964e-01 0.0000000000000000e+00  1.0811160578297398e-01 -1.5658360427799087e-01 0.0000000000000000e+00  2.9551985220409288e-01 -2.1070880573953052e-02 0.0000000000000000e+00  -6.0788988143381309e-02 -4.4545624857329796e-02 0.0000000000000000e+00  -4.0661329708313862e-02 -1.2474806340801828e-01 0.0000000000000000e+00  2.5141634575157945e-01 -1.2078891941085498e-01 0.0000000000000000e+00  2.2651072861714602e-01 -6.5820851445194992e-02 0.0000000000000000e+00  6.1323588606574837e-02 -1.6917782357467256e-01 0.0000000000000000e+00  9.8681145501882700e-02 -1.3644409547275604e-01 0.0000000000000000e+00  1.8817892384994897e-01 -1.1469892503914436e-01 0.0000000000000000e+00  -2.0015951315852948e-01 -2.4683899920211494e-01 0.0000000000000000e+00  5.6101118346130879e-02 -6.2032281838091598e-02 0.0000000000000000e+00  2.8585879705905398e-01 7.0652907467486301e-02 0.0000000000000000e+00  2.2726191221994643e-01 1.0276765544694188e-02 0.0000000000000000e+00  1.2792513712341133e-01 -1.4724143544470938e-01 0.0000000000000000e+00  8.6593642101102458e-02 -2.0137497317881234e-01 0.0000000000000000e+00  2.2069875627120839e-01 -8.5996023950049683e-02 0.0000000000000000e+00  2.2250125115546840e-01 3.6954992363090119e-02 0.0000000000000000e+00  2.1056126461184066e-01 5.1096840222581104e-02 0.0000000000000000e+00  2.1684558032665285e-01 1.4932414851536735e-01 0.0000000000000000e+00  1.1920051521379765e-01 -7.0235694591859035e-02 0.0000000000000000e+00  1.0631071083394188e-01 -2.3066290022999641e-01 0.0000000000000000e+00  9.4818023012109398e-02 -2.0800171960179920e-01 0.0000000000000000e+00  3.1028281971764927e-02 -5.5128224425560708e-02 0.0000000000000000e+00  1.4244209382063175e-01 2.7040909319628509e-01 0.0000000000000000e+00  2.2391691466615249e-01 9.7581713054032335e-03 0.0000000000000000e+00  2.1035184995213385e-01 -7.2471696324709400e-02 0.0000000000000000e+00  2.0986465157364254e-01 -7.1092195041340830e-02 0.0000000000000000e+00  2.1656662070181029e-01 -5.8046572898740031e-02 0.0000000000000000e+00  2.0592042118331547e-01 -7.7158453389685175e-02 0.0000000000000000e+00  2.1242835716918518e-01 1.5029352062565338e-01 0.0000000000000000e+00  1.7065566780541058e-01 4.7269615397194514e-03 0.0000000000000000e+00  -1.5829493905487844e-02 -1.3278399271727692e-01 0.0000000000000000e+00  6.2259796061662417e-02 1.3830811430256676e-01 0.0000000000000000e+00  2.5541810350092403e-01 -1.5622636446512053e-01 0.0000000000000000e+00  1.3613047736533687e-01 9.7792282570538236e-02 0.0000000000000000e+00  1.1055313092822470e-01 2.1175549917814895e-01 0.0000000000000000e+00  2.5056563903508855e-01 3.8147059731413156e-02 0.0000000000000000e+00  7.9816130165682675e-02 1.2677290819798284e-01 0.0000000000000000e+00  2.7444557979515134e-02 1.0000496472872904e-01 0.0000000000000000e+00  2.5586029732514770e-01 -3.4545772112959061e-02 0.0000000000000000e+00  2.5325779476314769e-01 -1.0032655051970732e-01 0.0000000000000000e+00  -1.1212234721829938e-01 -5.4747608591524041e-02 0.0000000000000000e+00  -2.0663202605277833e-01 2.0332151398381901e-01 0.0000000000000000e+00  2.1538296951590216e-01 -6.9219323517182033e-02 0.0000000000000000e+00  2.8728951439225867e-02 -7.9385098499155982e-02 0.0000000000000000e+00  -1.5545954580995936e-02 1.5442246206265520e-01 0.0000000000000000e+00  2.4372142532000479e-01 9.7771807549187073e-02 0.0000000000000000e+00  1.4027020990344805e-01 1.5368353922913458e-01 0.0000000000000000e+00  2.0817081965480710e-01 1.6127394697530295e-01 0.0000000000000000e+00  -6.2822158600861919e-02 1.8218872782092121e-01 0.0000000000000000e+00  -1.4781766214994899e-02 1.1773459056726665e-01 0.0000000000000000e+00  1.9469894453697237e-01 1.7038611821176641e-01 0.0000000000000000e+00  9.9986448904469706e-03 2.2294433950019782e-01 0.0000000000000000e+00  7.0403057311496098e-03 2.2276621846898184e-01 0.0000000000000000e+00  7.9704527258881858e-03 2.2207049201413240e-01 0.0000000000000000e+00  -4.3942051551905899e-02 2.2125695252367195e-01 0.0000000000000000e+00  -6.9741317761753699e-02 2.1119675461430126e-01 0.0000000000000000e+00  -9.7493575304781449e-02 2.0289392726869229e-01 0.0000000000000000e+00  -1.3030014656869268e-01 1.8019208975753062e-01 0.0000000000000000e+00  -1.6252709389019476e-01 1.5520492515430404e-01 0.0000000000000000e+00  -1.7624770882687579e-01 1.3730915582174028e-01 0.0000000000000000e+00  -2.0033868165453045e-01 1.0019049948778136e-01 0.0000000000000000e+00  -2.1488263902435226e-01 6.3169759896597955e-02 0.0000000000000000e+00  -2.2240506109211611e-01 2.5037381020929266e-02 0.0000000000000000e+00  -2.2342002420352047e-01 -1.5501949426049095e-02 0.0000000000000000e+00  -2.1711493259075446e-01 -5.4683956244838766e-02 0.0000000000000000e+00  -2.0378394055216745e-01 -9.2617776722269840e-02 0.0000000000000000e+00  -1.8557959619453424e-01 -1.2532685770990448e-01 0.0000000000000000e+00  -1.6252823933847982e-01 -1.5384313676125991e-01 0.0000000000000000e+00  -1.3519144295130137e-01 -1.7843558624812580e-01 0.0000000000000000e+00  -1.0654505804434720e-01 -1.9685116682726470e-01 0.0000000000000000e+00  -7.5570420876250669e-02 -2.1063717385695363e-01 0.0000000000000000e+00  -4.4994992794450947e-02 -2.1914267295362047e-01 0.0000000000000000e+00  -2.3771444460842613e-02 -2.2253511391594522e-01 0.0000000000000000e+00  7.3245919304605177e-04 -2.2362443909158339e-01 0.0000000000000000e+00  2.8425545031349548e-02 -2.2198246364956628e-01 0.0000000000000000e+00  5.2833218774485748e-02 -2.1739686169765976e-01 0.0000000000000000e+00  7.7620758240243309e-02 -2.0970561548061847e-01 0.0000000000000000e+00  9.1835270616248313e-02 -2.0412070960712020e-01 0.0000000000000000e+00  1.0763496174020561e-01 -1.9575971382284085e-01 0.0000000000000000e+00  1.5692425265510246e-01 -1.6481128307374890e-01 0.0000000000000000e+00  9.3460055001010511e-02 -1.9712900983195622e-01 0.0000000000000000e+00  1.0307059305627525e-01 -1.8638398710535192e-01 0.0000000000000000e+00  1.7873569876109038e-01 -1.4494556692258737e-01 0.0000000000000000e+00  1.6572232002417969e-01 -1.4678234584289190e-01 0.0000000000000000e+00  1.7978060489518277e-01 -1.3305143417769508e-01 0.0000000000000000e+00  2.4449540930536082e-01 -4.0921946584808154e-02 0.0000000000000000e+00  9.5197398902597277e-02 -1.4334314826771255e-01 0.0000000000000000e+00  1.5342139296520671e-01 -8.8722712327100689e-02 0.0000000000000000e+00  1.8075786558898913e-01 -3.1105762498669559e-02 0.0000000000000000e+00  -1.2262355191881923e-01 -2.4961612325033916e-01 0.0000000000000000e+00  6.2551959458052545e-02 -2.0056618079802602e-01 0.0000000000000000e+00  2.2016854838061195e-01 -4.5131322736062691e-02 0.0000000000000000e+00  2.1773062114886657e-01 4.4562901380420634e-02 0.0000000000000000e+00  1.8698056604370947e-01 -1.5792788684444709e-01 0.0000000000000000e+00  1.9840803653308481e-01 -4.2797244494177045e-02 0.0000000000000000e+00  2.2397111794547261e-01 3.1762690840029546e-03 0.0000000000000000e+00  2.2346185047694955e-01 1.4358552086691949e-02 0.0000000000000000e+00  2.2013786122298515e-01 2.4081245566118719e-02 0.0000000000000000e+00  2.2014980410474902e-01 -1.2583766763626850e-01 0.0000000000000000e+00  5.4084798119870270e-02 -1.6345193167056010e-01 0.0000000000000000e+00  4.3068286716420143e-02 -1.0489598523688483e-01 0.0000000000000000e+00  1.7607128309074810e-01 -4.6221159277285914e-02 0.0000000000000000e+00  1.1471603256560060e-01 -2.3853240692550390e-01 0.0000000000000000e+00  -4.3789089823971478e-02 -1.3346373461791458e-01 0.0000000000000000e+00  -5.6276944082227144e-02 -1.8031751937975765e-01 0.0000000000000000e+00  -2.1737580428089748e-01 -5.3488083702198166e-02 0.0000000000000000e+00  8.9874177248028791e-02 -2.0499380583880439e-01 0.0000000000000000e+00  1.3992049304760193e-01 1.7462577804106039e-01 0.0000000000000000e+00  -2.2100204578745375e-01 3.5801363342543406e-02 0.0000000000000000e+00  6.4607096658657978e-02 2.1427611753061632e-01 0.0000000000000000e+00  1.9965894089809519e-01 1.0081060598435369e-01 0.0000000000000000e+00  1.3454471638995008e-01 -1.7877405945185332e-01 0.0000000000000000e+00  2.2191911970950359e-01 -2.7608662180788002e-02 0.0000000000000000e+00  2.2362445816932164e-01 3.0385758471124895e-03 0.0000000000000000e+00  2.0899726741824681e-01 7.9720982854441222e-02 0.0000000000000000e+00  2.2369268537843826e-01 -5.0263929881529026e-03 0.0000000000000000e+00  1.8199290897732182e-01 1.3097763351271294e-01 0.0000000000000000e+00  1.9766441735642190e-01 -1.0467807812132500e-01 0.0000000000000000e+00  -1.2568963339094835e-01 -1.8524236769297167e-01 0.0000000000000000e+00  -1.7565366138232461e-01 -1.4059968457162120e-01 0.0000000000000000e+00  -1.5251391075899282e-01 1.6386325213226052e-01 0.0000000000000000e+00  1.0307206378377234e-01 1.9989529563789640e-01 0.0000000000000000e+00  2.2345481528727959e-01 1.4709239801709833e-02 0.0000000000000000e+00  -6.5647523876457975e-02 2.1402735828924271e-01 0.0000000000000000e+00  -4.8381152991020443e-02 -2.1855496246131134e-01 0.0000000000000000e+00  -1.7476431300949323e-03 -2.2498568086101473e-01 0.0000000000000000e+00  2.0764327434010352e-01 -8.3240094000611164e-02 0.0000000000000000e+00  1.7809626744860174e-01 1.3534450793752129e-01 0.0000000000000000e+00  1.1769218735444061e-01 -1.9084124890952700e-01 0.0000000000000000e+00  -2.2544105504335002e-01 -1.5472933202942114e-02 0.0000000000000000e+00  1.7099297630998964e-01 -1.4467561064346007e-01 0.0000000000000000e+00  -6.8219537583622730e-02 2.1466124899936384e-01 0.0000000000000000e+00  2.2119264608232014e-01 3.3038584629131333e-02 0.0000000000000000e+00  2.0767318524617601e-01 8.2999916035923105e-02 0.0000000000000000e+00  1.6874266892676090e-01 -1.4698471089625684e-01 0.0000000000000000e+00  2.1763464510217240e-01 -5.2065017346738435e-02 0.0000000000000000e+00  1.8235538892465483e-01 -1.3004736729567395e-01 0.0000000000000000e+00  2.1099963874435773e-01 -7.5696238633209983e-02 0.0000000000000000e+00  8.9699927786756381e-02 -2.0524166767373817e-01 0.0000000000000000e+00  2.2242025766836102e-01 -2.3493467321723818e-02 0.0000000000000000e+00  2.2246234966517381e-01 2.3551972387194500e-02 0.0000000000000000e+00  2.1394537777696118e-01 -6.5299425776602846e-02 0.0000000000000000e+00  2.1623279388588565e-01 -5.7151900231510441e-02 0.0000000000000000e+00  2.2310504348288809e-01 -1.5535239876854628e-02 0.0000000000000000e+00  2.1874780993167600e-01 4.6810146408582588e-02 0.0000000000000000e+00  2.2309072676500519e-01 1.5978052317161495e-02 0.0000000000000000e+00  2.2333636092120482e-01 9.6334890482816255e-03 0.0000000000000000e+00  2.2140928580858305e-01 -3.1002129631218581e-02 0.0000000000000000e+00  2.2046078731078281e-01 -3.8271482239706008e-02 0.0000000000000000e+00  2.1065074509808246e-01 -7.4990707169200518e-02 0.0000000000000000e+00  -2.0405099138029123e-01 9.2365909693917003e-02 0.0000000000000000e+00  -9.7511684064105583e-02 2.0171966251782789e-01 0.0000000000000000e+00  -1.6881335581729107e-01 1.4703286826094666e-01 0.0000000000000000e+00  1.0098946690081834e-01 2.0097018179780435e-01 0.0000000000000000e+00  3.4738948896657490e-02 2.2130620707794454e-01 0.0000000000000000e+00  2.0874982145802704e-01 8.0105370864944819e-02 0.0000000000000000e+00  1.8587010646926400e-01 -1.2462569786777171e-01 0.0000000000000000e+00  -3.7365592793345018e-02 -2.2079739364900974e-01 0.0000000000000000e+00  3.6624973529084826e-03 -2.2442153491446415e-01 0.0000000000000000e+00  -1.3860777471410546e-01 -1.7593249366451877e-01 0.0000000000000000e+00  1.7672702956568784e-01 -1.3714979702538546e-01 0.0000000000000000e+00  1.9764670146722060e-01 -1.0496553782992050e-01 0.0000000000000000e+00  2.2347569179975915e-01 -9.9475430552131514e-03 0.0000000000000000e+00  2.1333421994189042e-01 -6.7287805153198099e-02 0.0000000000000000e+00  1.5780638632430061e-01 1.5857459023614542e-01 0.0000000000000000e+00  1.4862921563205614e-01 1.6778461566574882e-01 0.0000000000000000e+00  8.1360478614689397e-02 2.0837381385183507e-01 0.0000000000000000e+00  1.4267265151664624e-01 1.7219031186783448e-01 0.0000000000000000e+00  1.2880125954303914e-01 -1.8274396277853119e-01 0.0000000000000000e+00  7.8077089633562871e-02 -2.0962552583846583e-01 0.0000000000000000e+00  1.1674010294699326e-01 -1.9083904197470011e-01 0.0000000000000000e+00  2.7168849473988042e-02 -2.2212151407885969e-01 0.0000000000000000e+00  1.1330773090781907e-03 2.2374745189905595e-01 0.0000000000000000e+00  8.1081555340074343e-02 2.0846003988902773e-01 0.0000000000000000e+00  -2.2275794977256408e-01 -2.2756262505175821e-02 0.0000000000000000e+00  -1.9403494200160429e-01 1.1172194539420123e-01 0.0000000000000000e+00  -1.9435353249641768e-01 -1.1112197734526270e-01 0.0000000000000000e+00  -2.2324430528930919e-01 1.6759753067541121e-02 0.0000000000000000e+00  -1.5973758271328378e-02 -2.2326854606282545e-01 0.0000000000000000e+00  2.0998794957870426e-01 7.9096472727495704e-02 0.0000000000000000e+00  1.6586120602822091e-01 1.5050727206762438e-01 0.0000000000000000e+00  5.8859406317531018e-02 2.1619228669869017e-01 0.0000000000000000e+00  1.4519088785650724e-01 1.7048625921676050e-01 0.0000000000000000e+00  2.2007979241506664e-01 4.1293751410441511e-02 0.0000000000000000e+00  2.0225126185130177e-01 9.5813787602281764e-02 0.0000000000000000e+00  -7.6502585094144107e-02 2.1266377605557410e-01 0.0000000000000000e+00  -1.9012639153296848e-01 1.1379059528822090e-01 0.0000000000000000e+00  1.5804415203331035e-01 -1.7125934312361082e-01 0.0000000000000000e+00  1.6723563298101884e-01 1.4846993263158245e-01 0.0000000000000000e+00  1.5462370285037969e-01 -1.6169599967423168e-01 0.0000000000000000e+00  1.8610926628402810e-01 1.2414440159947389e-01 0.0000000000000000e+00  2.0309243695639326e-01 9.3945370918835050e-02 0.0000000000000000e+00  1.3895733300345633e-01 1.7537132448428167e-01 0.0000000000000000e+00  2.0712981122400351e-01 8.4382055037910936e-02 0.0000000000000000e+00  -8.2438143721709600e-02 2.0827747617423556e-01 0.0000000000000000e+00  -4.3279983712166147e-02 2.1962683783517237e-01 0.0000000000000000e+00  -2.1786811102782175e-01 -5.2000515284248532e-02 0.0000000000000000e+00  -2.0520678220419300e-01 -8.9531330763520295e-02 0.0000000000000000e+00  -5.6282943800067410e-02 -2.1681865241328449e-01 0.0000000000000000e+00  -1.7678357065251873e-01 -1.3755905328584089e-01 0.0000000000000000e+00  -1.5574857294569788e-01 -1.6082408659400096e-01 0.0000000000000000e+00  2.2030380142818159e-01 -4.6442289211082378e-02 0.0000000000000000e+00  -2.1730526518356894e-01 5.6551800250654288e-02 0.0000000000000000e+00  -7.0457576276655956e-02 -2.1245341661354905e-01 0.0000000000000000e+00  -1.7550142739727387e-01 -1.3902761252340190e-01 0.0000000000000000e+00  -1.8622633515375725e-01 1.2422653580707997e-01 0.0000000000000000e+00  -9.5186392453563209e-02 2.0257282514933619e-01 0.0000000000000000e+00  1.9993192808623991e-01 1.1998198698589288e-01 0.0000000000000000e+00  -1.8909134631044949e-01 1.1991793281195240e-01 0.0000000000000000e+00  -2.1444998165415341e-01 6.4151150792541911e-02 0.0000000000000000e+00  -1.1278646655319537e-01 1.9337965121422737e-01 0.0000000000000000e+00  -2.9761291717869910e-03 2.2376874301845284e-01 0.0000000000000000e+00  5.3044089128967978e-02 2.1745167530404549e-01 0.0000000000000000e+00  -1.0804326343793404e-03 -2.2376705519471191e-01 0.0000000000000000e+00  -1.1167746996994507e-01 -1.9400262132259025e-01 0.0000000000000000e+00  5.8558976680663219e-02 -2.1599351966030622e-01 0.0000000000000000e+00  2.1631376180107084e-01 -5.7622521930866553e-02 0.0000000000000000e+00  1.4349062109689581e-01 -1.7182185599631028e-01 0.0