<?xml version="1.0"?>
<VTKFile type="UnstructuredGrid"  version="0.1"  >
<UnstructuredGrid>
<Piece  NumberOfPoints="2549" NumberOfCells="4928">
<Points>
<DataArray  type="Float64"  NumberOfComponents="3"  format="ascii">1.460941467495963 0.03831316970967211 0  1.457169618488705 0.06091568836892545 0  1.431562239840151 0.07031010260254886 0  1.423964372232626 0.08523904755582841 0  1.408345648983794 0.09652667195112241 0  1.405620854869513 0.1132215366765333 0  1.39035931992003 0.1293284663386549 0  1.358720287209377 0.1297923703262035 0  1.354197555817504 0.15944908143079 0  1.373632470352012 0.1192501427789774 0  1.349417141667123 0.1800980548280519 0  1.337697858260847 0.2007405010456254 0  1.329821278942256 0.2280739066845452 0  1.32283022794365 0.2587335410501311 0  1.31512320267425 0.2880938403651318 0  1.300858026027212 0.3248688858288601 0  1.273438073130684 0.3380888220981433 0  1.273624789957775 0.350417661237264 0  1.260712699901895 0.4111260267912772 0  1.247339020650666 0.4475532704323899 0  1.233695142304986 0.4942212940458464 0  1.216077385420861 0.5392136438609973 0  1.197183729812823 0.587387319132826 0  1.174152991590894 0.6393037369474379 0  1.148064996664122 0.6915104856449372 0  1.118937008207303 0.7330745257775144 0  1.088735430320324 0.7871387725202238 0  1.056133690496139 0.8425403889858707 0  1.018343308112652 0.8981634896074984 0  0.9770589462856364 0.9546589368805851 0  0.93145791520427 1.010932136695252 0  0.881210861735664 1.067848263636997 0  0.8258031709252854 1.121715265179125 0  0.7676305019128644 1.172737474625938 0  0.7032807535549703 1.225728387227406 0  0.6346726767051342 1.274257333170972 0  0.5610360369943463 1.319569450384981 0  0.4830711510792439 1.36058811865241 0  0.4009458569884553 1.396440773208516 0  0.315182486131732 1.427580789370444 0  0.2258087058113093 1.451094142932826 0  0.1351959991651031 1.467610455428663 0  0.04218822695081362 1.478829699330178 0  -0.05141849336435635 1.481434727825265 0  -0.1449351684845039 1.476752880641786 0  -0.2373990490887039 1.464108359598347 0  -0.3278834386230677 1.444421838861116 0  -0.4156876856386729 1.415996413740241 0  -0.4991246667689155 1.384104681628729 0  -0.5802222135520673 1.345354944536993 0  -0.6559449404972647 1.299322418742389 0  -0.7268965545638444 1.249850125118723 0  -0.7925298849048381 1.196341597938235 0  -0.8533763057918942 1.139669005176842 0  -0.9077119833265183 1.081681670886509 0  -0.9591975416321549 1.018881835229319 0  -1.001777070117744 0.9662565731468069 0  -1.045806482024655 0.909979490054205 0  -1.083531763424076 0.8480277935290329 0  -1.115739173268953 0.7891479892867127 0  -1.145107296711886 0.7327624598242954 0  -1.169220028526347 0.6741056716453019 0  -1.19300785838819 0.6269428086594455 0  -1.215566071339098 0.5573792186307597 0  -1.214863265767684 0.5218615882853375 0  -1.248128168858413 0.499930881287125 0  -1.263628475601843 0.4540048507238609 0  -1.275126761607261 0.4160571165069842 0  -1.286935990968747 0.3801830425969066 0  -1.309077505003529 0.3543867878592638 0  -1.310470145990059 0.3065735379116507 0  -1.312437271024043 0.3393393495580813 0  -1.365139453232264 0.2937974707719344 0  -1.347818005108411 0.2030073313076923 0  -1.350242477571468 0.1785861348201931 0  -1.350463655663538 0.147036389369046 0  -1.361254098841815 0.1288797206065342 0  -1.352326766488096 0.1017003163821286 0  -1.375563791018819 0.1109509071588921 0  -1.328311978346914 0.05142353515034968 0  -1.389708246777249 0.1136045768569201 0  -1.466315861116258 0.1244363613383942 0  -1.436903519538206 0.07749337530797409 0  -1.462324591424552 0.05665366340189647 0  -1.449084062934462 0.03877629668443575 0  -1.457813159579782 0.0247251018224206 0  -1.439973257918732 -0.003322010450013176 0  -1.451922110333817 -0.09992049691870832 0  -1.376659352806487 -0.02435768048202697 0  -1.298385959738595 0.01694004179520254 0  -1.389865682239076 -0.02680226192754812 0  -1.363993544782764 -0.01295759871893071 0  -1.394335686715148 -0.03665118002793698 0  -1.378670417501136 -0.06030869125241987 0  -1.369734620438847 -0.09768670251982439 0  -1.374372428909132 -0.1213675233667397 0  -1.391354937400819 -0.2288295196843153 0  -1.30931768571194 -0.2903323824189949 0  -1.337600182542045 -0.2329320887758003 0  -1.349933105429636 -0.2885661331301768 0  -1.320986257633831 -0.3144971279410848 0  -1.311354425262263 -0.3518936825717733 0  -1.303461691642266 -0.392230036598387 0  -1.291512124732619 -0.4431535526055732 0  -1.249805317971498 -0.4585992552692804 0  -1.260802799111995 -0.495869308382894 0  -1.241072367989155 -0.5768202680141113 0  -1.217644174969161 -0.6251396895907346 0  -1.19732539339474 -0.6900614479429779 0  -1.170070239780117 -0.751311055316925 0  -1.139251816031412 -0.8149662962486114 0  -1.105045164578503 -0.882883567460043 0  -1.05948312030798 -0.9377472509121622 0  -1.024192569080246 -1.003466804844824 0  -0.97053670510342 -1.080464460067727 0  -0.9168972200984068 -1.144815048551603 0  -0.8552755716982019 -1.212254734029764 0  -0.7890025613457655 -1.275259177947194 0  -0.7162839862872012 -1.334578890665322 0  -0.6372605687833248 -1.390867228963772 0  -0.5529023734880579 -1.439337776656653 0  -0.4657314647437706 -1.479246629434076 0  -0.3721861482658949 -1.517038894084178 0  -0.2758496019737136 -1.545199206797231 0  -0.1760845684358767 -1.565037998328772 0  -0.07472133560018061 -1.575700094239682 0  0.02748828545371325 -1.577264256407436 0  0.1293730536526832 -1.569392577265646 0  0.2298467158332561 -1.552529497837957 0  0.3276686289982697 -1.526870965853336 0  0.4222324825605521 -1.493431372351827 0  0.512558384652408 -1.452491664702386 0  0.5979965678933299 -1.405207074688601 0  0.6781020393555041 -1.352037554880926 0  0.7522168446792695 -1.295269688793002 0  0.8209095172526009 -1.231418091612006 0  0.881316174212342 -1.174113361687863 0  0.940484698983845 -1.111899556412377 0  0.9924436411146487 -1.044362452733548 0  1.038704382445203 -0.9787334145736987 0  1.080115731524544 -0.9133419717904886 0  1.117144727671723 -0.8492099039156875 0  1.149248642315341 -0.7862926921018768 0  1.177866498196153 -0.7247937684468694 0  1.204310666004072 -0.6759913920013949 0  1.229437071131924 -0.6178561803396491 0  1.249647943995228 -0.5601220121633933 0  1.266556095284102 -0.5068811003542276 0  1.282208433365169 -0.4574209906903707 0  1.294031918511127 -0.4064375626538653 0  1.307246413620426 -0.3672815280728099 0  1.312054043778957 -0.3008710942184838 0  1.315999596847581 -0.2901631288374693 0  1.339845044378477 -0.2700535309645511 0  1.347005469785408 -0.231008609359106 0  1.35509723227112 -0.1992488334146128 0  1.362482783857274 -0.1684951576004302 0  1.366312070727785 -0.1350178604435862 0  1.374139279015516 -0.1155609433681725 0  1.33253287529736 -0.06809326313032812 0  1.368970065273248 -0.07963399127110998 0  1.390802004423433 -0.07982202674169118 0  1.396061125608852 -0.05351308778134126 0  1.410165630202011 -0.03888630541138498 0  1.416166764488001 -0.02087646764536358 0  1.426120924056346 -0.008214198181185099 0  1.435701421026756 0.006128244032314331 0  1.453669216899178 0.01863368480046313 0  -0.09292004842797308 0.9020066431642946 0  0.6840221912856375 -0.5149741955782465 0  -0.7984305038897324 -0.3826306950747094 0  -0.08152704028599618 -0.9624926729259828 0  0.6461614790866125 0.5002338975580012 0  1.073769246455312 0.1129674027104585 0  -0.7832678578388749 0.4123979593047112 0  -1.138115126175899 0.0355614439574626 0  1.08637539865907 -0.06457179963633862 0  -1.024508109531159 -0.1677928260423459 0  -0.7202562589822398 0.01929594852438907 0  -0.4309020321934403 -0.1402402336558077 0  -1.012155836388777 0.2158561160865381 0  0.3777883274530934 -0.8487848664825145 0  0.08178416891727879 -0.322534268163059 0  0.308076545242245 0.7810829446713343 0  0.221572392576295 0.1884351913810026 0  0.5547667062293046 0.0127585437552855 0  -0.4843542789621552 -0.7054686188791904 0  -0.4977672911050967 0.7052582353961647 0  -0.2356922574759476 0.3177862168951847 0  0.9070332591972607 -0.2148594147169981 0  0.8844154731116119 0.2445397115229596 0  0.3487520585194236 -0.229230820737427 0  -0.008248087206671001 0.2452956138437143 0  -0.4822098873288705 0.217437139026816 0  -0.1864795744010891 -0.2876385097705734 0  0.8498714392639672 0.01935816475433372 0  1.233845107155031 0.03037334977412507 0  0.7958712781630246 -0.3451788598667408 0  0.7089561536900336 -0.1122346934531812 0  0.5778898157776714 -0.2170799488146794 0  0.4365740316384927 -0.08563520258094097 0  0.5069585811914561 -0.3844457440351778 0  0.8522706676998185 -0.08585519356291951 0  0.704145548853543 0.01597703785941681 0  -0.8450014961268832 0.1286437850864659 0  -1.055817079615831 0.1071992515557087 0  -0.9337166174414425 0.02908624901866813 0  -0.852935788123425 -0.08348381092453154 0  -1.060617187140258 -0.04507821236434334 0  -1.224714223159815 -0.07415538795757901 0  -1.289652405922134 0.01083462484986378 0  -1.283715904808159 0.06878526420357989 0  -1.209956847590958 0.1478725292399325 0  -0.1345002193858787 -0.6281262831403086 0  -0.302355652933506 -0.5148572674114361 0  -0.297249270618447 -0.8572503733454654 0  -0.3039678152836419 -0.2063501884467542 0  -0.4485209710883712 -0.4079631107672435 0  -1.216383248951158 -0.1895700303257727 0  -1.194974605167056 0.2519789358665769 0  0.3760633860163191 -0.5205467294535711 0  0.2137164743540492 -0.2626285495078818 0  0.2357507024847883 -0.5811526679208291 0  -0.8978867814370144 0.2981690553507632 0  -0.7148474973607812 0.1971964322762067 0  1.256608313947165 -0.07843727357092727 0  1.195273258798348 -0.1744516406254158 0  1.170234324900477 0.2235935048696676 0  1.240961272695177 0.1369562427045229 0  -0.9129680427165462 -0.6484083286346763 0  -1.038005025752216 -0.4377069743745311 0  -1.009274997830913 0.4811520342209378 0  -0.8790633826445687 0.6708411311934519 0  0.9386462790248272 -0.60722426410513 0  0.776715445523911 -0.8307230974031249 0  0.7347850671640734 0.7952087133592309 0  0.8969338883305351 0.6055828867151353 0  0.04031
[...]
<PointData  Vectors="f_45"> 
<DataArray  type="Float64"  Name="f_45"  NumberOfComponents="3" format="ascii">2.9838959719260283e-01 -3.2784006791861747e-02 0.0000000000000000e+00  -4.0742648882857238e-02 1.3367503056971211e-01 0.0000000000000000e+00  -7.9382761954964104e-02 1.5239713609911440e-01 0.0000000000000000e+00  4.5272464044421624e-02 2.2995874016031448e-01 0.0000000000000000e+00  3.2433601645599580e-02 1.1618723115129824e-01 0.0000000000000000e+00  2.0585678542858230e-01 1.7982290707410858e-01 0.0000000000000000e+00  -2.2931565887527230e-01 1.1005026585340448e-01 0.0000000000000000e+00  -9.3084457290532868e-03 -1.1152398687062587e-02 0.0000000000000000e+00  2.1320190085618784e-01 1.5045233628330984e-01 0.0000000000000000e+00  1.4021638903087444e-01 1.6451280215127803e-01 0.0000000000000000e+00  1.5445789905894927e-01 1.6344948068407267e-01 0.0000000000000000e+00  1.4042470016270642e-01 1.6501833225369658e-01 0.0000000000000000e+00  2.1073870974509198e-01 9.5813102772009592e-02 0.0000000000000000e+00  1.8850678669824719e-01 9.9473914063170604e-02 0.0000000000000000e+00  2.2468159098657628e-01 1.2642736915056396e-01 0.0000000000000000e+00  4.7855621239920858e-03 1.8191963671783543e-01 0.0000000000000000e+00  -8.9020733352503711e-02 1.1188661656415218e-01 0.0000000000000000e+00  2.4488743036400953e-01 5.0068823099278341e-02 0.0000000000000000e+00  1.7657105824900743e-01 1.2670966025606684e-01 0.0000000000000000e+00  1.8187407001679540e-01 1.3187959232956911e-01 0.0000000000000000e+00  1.7839655321283540e-01 1.3238375834342336e-01 0.0000000000000000e+00  1.6233666756308754e-01 1.5522692539651495e-01 0.0000000000000000e+00  1.5737771553670973e-01 1.5741792458854906e-01 0.0000000000000000e+00  1.4900297107282087e-01 1.6969229113749032e-01 0.0000000000000000e+00  9.9705387271469312e-02 1.9756880539335447e-01 0.0000000000000000e+00  9.1999260696781021e-02 2.0279406352659451e-01 0.0000000000000000e+00  1.2283873881716476e-01 1.8807747999259533e-01 0.0000000000000000e+00  9.3583914024800069e-02 2.0282794926128778e-01 0.0000000000000000e+00  7.4975660198440097e-02 2.1100939213894029e-01 0.0000000000000000e+00  5.7269142527794532e-02 2.1594658624383778e-01 0.0000000000000000e+00  3.8266339076173959e-02 2.2070865920207647e-01 0.0000000000000000e+00  1.1619725816638365e-02 2.2317072113438063e-01 0.0000000000000000e+00  -2.0865202841916765e-02 2.2283119108385160e-01 0.0000000000000000e+00  -3.4566085579365115e-02 2.2114789472574947e-01 0.0000000000000000e+00  -5.7199368505800818e-02 2.1603667350070963e-01 0.0000000000000000e+00  -8.8881579243314787e-02 2.0555281972831049e-01 0.0000000000000000e+00  -1.1334525058925768e-01 1.9295253955502240e-01 0.0000000000000000e+00  -1.4028054030879444e-01 1.7416359200584164e-01 0.0000000000000000e+00  -1.6178688494547536e-01 1.5498284362456000e-01 0.0000000000000000e+00  -1.8331263645859633e-01 1.2811185503327599e-01 0.0000000000000000e+00  -2.0365345762692383e-01 9.2846059365762235e-02 0.0000000000000000e+00  -2.1369906427539048e-01 6.7363564407320109e-02 0.0000000000000000e+00  -2.2086480668248321e-01 3.3745689268095701e-02 0.0000000000000000e+00  -2.2420057941791149e-01 -5.5108110909448732e-03 0.0000000000000000e+00  -2.1958111368506655e-01 -4.1393095287462940e-02 0.0000000000000000e+00  -2.1114583686257823e-01 -7.5949145820926031e-02 0.0000000000000000e+00  -1.9224341990023611e-01 -1.1351538513576317e-01 0.0000000000000000e+00  -1.7366060321670038e-01 -1.4174843626300271e-01 0.0000000000000000e+00  -1.5659221187588335e-01 -1.5993723360789383e-01 0.0000000000000000e+00  -1.2113457563179797e-01 -1.8793321427575935e-01 0.0000000000000000e+00  -8.9436765787331063e-02 -2.0555418842675810e-01 0.0000000000000000e+00  -6.2055111204862116e-02 -2.1473674695790140e-01 0.0000000000000000e+00  -2.9795379897013974e-02 -2.2190093392507870e-01 0.0000000000000000e+00  -1.7378338567930146e-03 -2.2383050643159833e-01 0.0000000000000000e+00  3.2063972339958280e-02 -2.2129108302265751e-01 0.0000000000000000e+00  4.8990000194628888e-02 -2.1814347194935726e-01 0.0000000000000000e+00  4.3814156066342425e-02 -2.2002483204027223e-01 0.0000000000000000e+00  7.6993428443714429e-02 -2.0902905934109045e-01 0.0000000000000000e+00  1.1806159035765423e-01 -1.9076301845132188e-01 0.0000000000000000e+00  1.2007197696284332e-01 -1.8921033253659320e-01 0.0000000000000000e+00  1.4821595945678948e-01 -1.6669389180553867e-01 0.0000000000000000e+00  1.4838575334924517e-01 -1.6554872911448201e-01 0.0000000000000000e+00  1.4024307189127724e-01 -1.7714853192213420e-01 0.0000000000000000e+00  2.4090279883288224e-01 -5.3539729961256610e-02 0.0000000000000000e+00  2.6091451209113544e-02 -9.1680759209471122e-02 0.0000000000000000e+00  1.9784227846035365e-02 -1.9829274890032894e-01 0.0000000000000000e+00  2.2278108873726921e-01 -1.1535965850373836e-01 0.0000000000000000e+00  1.9590121876572830e-01 -1.1410599627286126e-01 0.0000000000000000e+00  8.8443047715599910e-02 -2.0045736966813565e-01 0.0000000000000000e+00  1.1018714730848699e-01 -1.3266811578349832e-01 0.0000000000000000e+00  3.0210588878741734e-01 8.6088571242593268e-02 0.0000000000000000e+00  -3.3712287882006337e-03 -2.0639082484004775e-01 0.0000000000000000e+00  8.4143705267843719e-02 -5.9170334602711573e-02 0.0000000000000000e+00  2.5783379020326980e-01 1.0984713062219367e-01 0.0000000000000000e+00  2.3203230201365416e-01 -2.5991570533950504e-02 0.0000000000000000e+00  1.5677419799366227e-01 -1.0502370343897252e-01 0.0000000000000000e+00  1.9408180986218232e-01 -4.0632705306388857e-02 0.0000000000000000e+00  -1.3584539926115616e-02 1.8154309957119810e-01 0.0000000000000000e+00  -3.3167896274326467e-02 1.8409137715305030e-01 0.0000000000000000e+00  8.4506688582623293e-02 2.5595179137971841e-01 0.0000000000000000e+00  -1.4624688510279296e-01 1.2174666829094763e-01 0.0000000000000000e+00  -1.0749941712726409e-01 1.3598377663883215e-01 0.0000000000000000e+00  1.1196213026705951e-01 4.1538857741058768e-02 0.0000000000000000e+00  -5.8591481094403840e-02 -9.2760363920068659e-02 0.0000000000000000e+00  1.2605476924822520e-01 6.8002224758134250e-02 0.0000000000000000e+00  4.7876239297451134e-02 6.7428693076655583e-02 0.0000000000000000e+00  2.2614408971460084e-01 7.2478712419199259e-02 0.0000000000000000e+00  1.2461807533785572e-01 -1.7345737318356272e-01 0.0000000000000000e+00  -8.6650233744273983e-02 -2.2261264389535032e-01 0.0000000000000000e+00  -1.4348869529819935e-01 -1.7132019428623324e-01 0.0000000000000000e+00  -1.3857659205858328e-01 -1.6943645366198412e-01 0.0000000000000000e+00  -9.6767499770938917e-02 -2.6053453658044623e-01 0.0000000000000000e+00  3.9472642682008104e-04 -2.8834636163848040e-02 0.0000000000000000e+00  1.7066760013396487e-01 2.2398924284890792e-01 0.0000000000000000e+00  1.9798961795608416e-01 1.9395698632230659e-03 0.0000000000000000e+00  2.7567467585009953e-01 -1.3663476990578888e-01 0.0000000000000000e+00  5.8373465501628946e-02 7.0467066455025540e-02 0.0000000000000000e+00  -4.4108553546612972e-02 2.7892311215113891e-01 0.0000000000000000e+00  2.4340105126133865e-01 -9.2848748694344095e-04 0.0000000000000000e+00  8.3037664203001377e-02 4.5575101357335623e-03 0.0000000000000000e+00  5.1477438082401294e-02 2.2999214823373629e-01 0.0000000000000000e+00  2.2324739269912036e-01 6.7598331601201780e-02 0.0000000000000000e+00  2.5883328669307554e-01 7.8998107157170594e-02 0.0000000000000000e+00  -1.0820057620919360e-02 1.6180894814429120e-01 0.0000000000000000e+00  -5.9729768086957194e-02 -9.2549437497330082e-03 0.0000000000000000e+00  2.4935720652149640e-01 -9.5893908438833136e-03 0.0000000000000000e+00  1.5487985141189808e-01 1.7126234849651564e-01 0.0000000000000000e+00  1.6227891743239148e-01 1.4650804150589858e-01 0.0000000000000000e+00  1.7605838430270931e-01 1.3868757589808892e-01 0.0000000000000000e+00  1.3422538294182482e-01 1.7890264088300267e-01 0.0000000000000000e+00  1.5193072532899177e-01 1.7014815225455415e-01 0.0000000000000000e+00  7.5006610265792376e-02 2.0521776464079447e-01 0.0000000000000000e+00  7.7065735980072797e-02 2.0462678003663481e-01 0.0000000000000000e+00  1.1513556406805213e-01 1.9290446366881228e-01 0.0000000000000000e+00  5.2241031209108300e-02 2.1868404112245760e-01 0.0000000000000000e+00  3.0496821072539090e-02 2.2142290487955466e-01 0.0000000000000000e+00  6.3005141849867552e-03 2.2371716999328878e-01 0.0000000000000000e+00  -2.9257228689411819e-02 2.2177193312859922e-01 0.0000000000000000e+00  -5.8398085238194425e-02 2.1623474840382637e-01 0.0000000000000000e+00  -9.1511704606661054e-02 2.0432433452168108e-01 0.0000000000000000e+00  -1.3267429806855568e-01 1.7997452652183513e-01 0.0000000000000000e+00  -1.5367183349164765e-01 1.6334938994369275e-01 0.0000000000000000e+00  -1.7362961190183493e-01 1.4033933046524139e-01 0.0000000000000000e+00  -1.9948981271403621e-01 1.0268177828362435e-01 0.0000000000000000e+00  -2.1350147356135760e-01 6.6675361860871113e-02 0.0000000000000000e+00  -2.2244171287091399e-01 2.6797999945693259e-02 0.0000000000000000e+00  -2.2338301954692144e-01 -1.3818060550341042e-02 0.0000000000000000e+00  -2.1739228053675072e-01 -5.4032773831090689e-02 0.0000000000000000e+00  -2.0398480361743968e-01 -9.2040745989362627e-02 0.0000000000000000e+00  -1.8525291577031436e-01 -1.2592635051368922e-01 0.0000000000000000e+00  -1.6124251312143248e-01 -1.5508815271885323e-01 0.0000000000000000e+00  -1.3381304679930900e-01 -1.7971448799290909e-01 0.0000000000000000e+00  -1.0212963623493314e-01 -1.9876962425380207e-01 0.0000000000000000e+00  -7.4708006424088522e-02 -2.1164945426984089e-01 0.0000000000000000e+00  -3.4569985605517543e-02 -2.2034381760239419e-01 0.0000000000000000e+00  -1.0556903941226273e-02 -2.2368915272514792e-01 0.0000000000000000e+00  -6.6172539240095763e-03 -2.2398760129875162e-01 0.0000000000000000e+00  3.5682541720970878e-02 -2.2027989836382325e-01 0.0000000000000000e+00  6.9270494426745086e-02 -2.1331044405892313e-01 0.0000000000000000e+00  8.4562677843114026e-02 -2.0675896782622602e-01 0.0000000000000000e+00  1.0425707424379101e-01 -1.9805912747850557e-01 0.0000000000000000e+00  1.2028014706017513e-01 -1.8856210780240842e-01 0.0000000000000000e+00  1.4321220616097149e-01 -1.7210045323190151e-01 0.0000000000000000e+00  1.3201305382828896e-01 -1.7981935533685045e-01 0.0000000000000000e+00  1.3255403288016004e-01 -1.7967409564520620e-01 0.0000000000000000e+00  1.6753053073447019e-01 -1.4923946071338159e-01 0.0000000000000000e+00  1.8104333496098843e-01 -1.3072460008554440e-01 0.0000000000000000e+00  1.8005555161087333e-01 -1.3402701181809318e-01 0.0000000000000000e+00  1.9584500761421511e-01 -1.0523670043227372e-01 0.0000000000000000e+00  1.8780146635707826e-01 -1.2585155620290886e-01 0.0000000000000000e+00  1.9716821981858085e-01 -7.6665657009716698e-02 0.0000000000000000e+00  2.3938832409802596e-01 -2.2297557865627725e-02 0.0000000000000000e+00  -3.9046097373038206e-02 -2.4688348402543442e-01 0.0000000000000000e+00  9.2613074040702917e-02 -1.3786883286338580e-01 0.0000000000000000e+00  2.3811210656956586e-01 -7.1192679944702436e-02 0.0000000000000000e+00  1.8346331968126880e-01 -1.2746897100276727e-01 0.0000000000000000e+00  2.1415718084581103e-01 -4.4360984192086950e-02 0.0000000000000000e+00  2.1193055345209566e-01 -1.4577041460628462e-01 0.0000000000000000e+00  8.4944416592149075e-02 1.2330189794729796e-01 0.0000000000000000e+00  -4.8055614932166986e-02 2.3058354994011945e-01 0.0000000000000000e+00  -2.8878006552773600e-01 5.8082186623971112e-02 0.0000000000000000e+00  4.1838835287209906e-02 -3.5552531773231331e-02 0.0000000000000000e+00  1.5668928411740862e-01 -1.6678193661545868e-01 0.0000000000000000e+00  5.9650978728079188e-02 -1.8994816892676666e-01 0.0000000000000000e+00  1.4812084513826473e-01 -1.5488595007598194e-01 0.0000000000000000e+00  7.5289461627519233e-02 -2.2735415756597990e-01 0.0000000000000000e+00  -2.4733663348837320e-02 -2.0444404858348927e-01 0.0000000000000000e+00  -1.4877424010870761e-03 -2.0712283010125643e-01 0.0000000000000000e+00  -2.0776697905038949e-01 -8.3342175305382266e-02 0.0000000000000000e+00  7.4278227412684167e-02 -2.1119211932155890e-01 0.0000000000000000e+00  1.7285379817539234e-01 1.4208123530530464e-01 0.0000000000000000e+00  -2.0836779037920333e-01 8.1954135060327893e-02 0.0000000000000000e+00  2.7190629415365410e-02 2.2215169620549927e-01 0.0000000000000000e+00  1.9491105178664084e-01 1.0965360831868667e-01 0.0000000000000000e+00  1.4261555282562055e-01 -1.7236723877008389e-01 0.0000000000000000e+00  2.1875135262371279e-01 -4.6421520806380297e-02 0.0000000000000000e+00  2.2102193792438893e-01 3.4106711011978062e-02 0.0000000000000000e+00  2.1941598815192329e-01 4.3388605341425995e-02 0.0000000000000000e+00  2.2170324530585170e-01 -2.9877046691589436e-02 0.0000000000000000e+00  2.1111835509668664e-01 7.5131437799262651e-02 0.0000000000000000e+00  2.0300150491658003e-01 -9.3826372565443475e-02 0.0000000000000000e+00  -1.5606775119433211e-01 -1.6051557041362102e-01 0.0000000000000000e+00  -2.2041334875933916e-01 5.1657299687085559e-02 0.0000000000000000e+00  -1.8309269304572598e-01 1.2882718217076305e-01 0.0000000000000000e+00  -8.4584170626065339e-02 2.0898617213009360e-01 0.0000000000000000e+00  2.2031961204605671e-01 4.1256082521393025e-02 0.0000000000000000e+00  -9.7279940482883978e-03 2.2367744825568667e-01 0.0000000000000000e+00  -2.9500810325111947e-02 -2.2187405210344746e-01 0.0000000000000000e+00  3.0753430527351671e-02 -2.2238831533190234e-01 0.0000000000000000e+00  2.1280106120494036e-01 -6.9029258141063546e-02 0.0000000000000000e+00  1.6754098916158255e-01 1.4818210970234025e-01 0.0000000000000000e+00  6.5891354122548623e-02 -2.1467741143357083e-01 0.0000000000000000e+00  -1.1354088102260113e-01 -1.9763751004325369e-01 0.0000000000000000e+00  1.6488788368085336e-01 -1.5142659419454746e-01 0.0000000000000000e+00  7.7061000835574558e-02 2.1184256924224021e-01 0.0000000000000000e+00  2.1761377753723271e-01 5.1604162071573707e-02 0.0000000000000000e+00  1.9343102586583186e-01 1.1221607481673447e-01 0.0000000000000000e+00  1.6912090349461906e-01 -1.4660455062195252e-01 0.0000000000000000e+00  2.1973947723746776e-01 -4.2594023218391328e-02 0.0000000000000000e+00  1.7597212350012678e-01 -1.3881489831503530e-01 0.0000000000000000e+00  2.1173272513388053e-01 -7.5053741270990668e-02 0.0000000000000000e+00  5.3708751792701459e-02 -2.1755372364649550e-01 0.0000000000000000e+00  2.2354488971473482e-01 -7.2710236574298082e-03 0.0000000000000000e+00  2.1924738792753348e-01 4.4584741783482734e-02 0.0000000000000000e+00  2.1105284499328897e-01 -7.4025876230335325e-02 0.0000000000000000e+00  2.1572374835576777e-01 -5.8901898806775384e-02 0.0000000000000000e+00  2.2121767860272284e-01 -3.2748752141585992e-02 0.0000000000000000e+00  2.2302358072714126e-01 1.7029819135680597e-02 0.0000000000000000e+00  2.2330010645268702e-01 -1.2314983230699400e-02 0.0000000000000000e+00  2.1957771665777140e-01 -4.2828549894796938e-02 0.0000000000000000e+00  1.7040792433835508e-01 -1.4842190790244419e-01 0.0000000000000000e+00  2.1771469077401553e-01 -5.7387288710479635e-02 0.0000000000000000e+00  2.1898375862952715e-01 -4.5464335924160042e-02 0.0000000000000000e+00  -1.4897033360433082e-01 1.6742196290765243e-01 0.0000000000000000e+00  -1.1775976403172007e-02 2.2382328408778729e-01 0.0000000000000000e+00  -1.2838195996465721e-01 1.8344373956278293e-01 0.0000000000000000e+00  1.7543414001909327e-01 1.4039340526890834e-01 0.0000000000000000e+00  1.0338111677204528e-01 1.9872050283565265e-01 0.0000000000000000e+00  2.2097844001386266e-01 3.3888192230592695e-02 0.0000000000000000e+00  2.1010811251809972e-01 -7.6206477316753965e-02 0.0000000000000000e+00  -9.9068923024470665e-02 -2.0085672650118219e-01 0.0000000000000000e+00  -1.1524461542821712e-01 -1.9303009399534410e-01 0.0000000000000000e+00  -1.9476538085745310e-01 -1.1056020342934099e-01 0.0000000000000000e+00  1.8264121807313483e-01 -1.2910560755551090e-01 0.0000000000000000e+00  1.9374697502583449e-01 -1.1188540580156367e-01 0.0000000000000000e+00  2.0876489511747112e-01 8.0906465542351994e-02 0.0000000000000000e+00  2.2276005726322737e-01 -2.1205950951240487e-02 0.0000000000000000e+00  1.6580336577683094e-01 1.5013329069209658e-01 0.0000000000000000e+00  1.7054107932222831e-01 1.4467560072735461e-01 0.0000000000000000e+00  1.2139993729621296e-01 1.8792480639032186e-01 0.0000000000000000e+00  1.7361930238294132e-01 1.4100460978174981e-01 0.0000000000000000e+00  1.5162723442168688e-01 -1.6442465809328285e-01 0.0000000000000000e+00  9.3698530135684077e-02 -2.0314552216158838e-01 0.0000000000000000e+00  1.2129941946098301e-01 -1.8801321688476896e-01 0.0000000000000000e+00  2.1010826817276399e-02 -2.2283082763580045e-01 0.0000000000000000e+00  -8.9306108828013254e-03 2.2361947635669269e-01 0.0000000000000000e+00  8.0723437566211087e-02 2.0863123759589766e-01 0.0000000000000000e+00  -2.2391543742836514e-01 -3.2642966578099999e-03 0.0000000000000000e+00  -1.8088004000140237e-01 1.3198580821321532e-01 0.0000000000000000e+00  -1.8829891116582301e-01 -1.2111428662801302e-01 0.0000000000000000e+00  -2.2382535424416455e-01 5.2035982330769998e-03 0.0000000000000000e+00  -4.7932448659819986e-02 -2.1868078894732693e-01 0.0000000000000000e+00  1.7382345593479362e-01 1.4296658114089114e-01 0.0000000000000000e+00  1.2334050348567684e-01 1.8703281522312737e-01 0.0000000000000000e+00  -2.7433317863680331e-02 2.2239758013447389e-01 0.0000000000000000e+00  1.8190994840074542e-01 1.3051155847737092e-01 0.0000000000000000e+00  2.2382047375184702e-01 2.7304102785342581e-03 0.0000000000000000e+00  2.1589191117624695e-01 5.8807138103004926e-02 0.0000000000000000e+00  -2.1058688822501812e-01 -8.8138000572558536e-02 0.0000000000000000e+00  1.3021930591898939e-01 1.8859916293584972e-01 0.0000000000000000e+00  -1.8093031332584078e-01 -1.5073486690071786e-01 0.0000000000000000e+00  1.9570042782354527e-01 1.0855769989048147e-01 0.0000000000000000e+00  1.7954747028325901e-01 -1.3343670930048002e-01 0.0000000000000000e+00  2.0557229664258139e-01 8.8199655065819768e-02 0.0000000000000000e+00  1.8811804229676829e-01 1.2121862650269444e-01 0.0000000000000000e+00  1.1683072642701783e-01 1.9080972966042373e-01 0.0000000000000000e+00  1.9852784833126177e-01 1.0299571932957353e-01 0.0000000000000000e+00  -1.7062753986694287e-01 1.4516072522190926e-01 0.0000000000000000e+00  -9.0217601841957484e-02 2.0489478698443739e-01 0.0000000000000000e+00  -2.2018577343313778e-01 4.1244616035703112e-02 0.0000000000000000e+00  -2.1892403708663180e-01 -4.6935817397357631e-02 0.0000000000000000e+00  -2.9120142732041318e-02 -2.2203361383261844e-01 0.0000000000000000e+00  -1.4253290454115169e-01 -1.7277041594035147e-01 0.0000000000000000e+00  -1.3595619125672800e-01 -1.7785879921317588e-01 0.0000000000000000e+00  2.2767981258577363e-01 -1.6026619274654628e-02 0.0000000000000000e+00  -9.0781461305904865e-02 2.0679545981787634e-01 0.0000000000000000e+00  -8.1633710039570900e-02 -2.0845327395423202e-01 0.0000000000000000e+00  -1.8496360902770398e-01 -1.2622475393326296e-01 0.0000000000000000e+00  -1.9307353640313149e-01 1.1334800262715437e-01 0.0000000000000000e+00  -1.0711418237228848e-01 1.9657346159436326e-01 0.0000000000000000e+00  2.2565373011837975e-01 -2.1601941442304370e-02 0.0000000000000000e+00  -2.2253378088600331e-01 2.5318820305389789e-02 0.0000000000000000e+00  -2.2243946259026071e-01 2.5055861927072383e-02 0.0000000000000000e+00  -8.4788949392368668e-02 2.0720489039491566e-01 0.0000000000000000e+00  3.7278387293932500e-02 2.2067832811696655e-01 0.0000000000000000e+00  1.0289482988392799e-01 1.9876979658981475e-01 0.0000000000000000e+00  1.2717431758795566e-02 -2.2341158527086677e-01 0.0000000000000000e+00  -1.0041382010431468e-01 -2.0006899671868963e-01 0.0000000000000000e+00  7.1221601983708485e-02 -2.1213176981003409e-01 0.0000000000000000e+00  2.0967913254930828e-01 -7.8194050386549863e-02 0.0000000000000000e+00  1.4436129382478449e-01 -1.7100558596845133e-01 