<?xml version="1.0"?>
<VTKFile type="UnstructuredGrid"  version="0.1"  >
<UnstructuredGrid>
<Piece  NumberOfPoints="2549" NumberOfCells="4928">
<Points>
<DataArray  type="Float64"  NumberOfComponents="3"  format="ascii">1.474982489929837 0.02405063287832745 0  1.47120687628869 0.0471615594034779 0  1.447807799772099 0.05652176779452414 0  1.435839645074158 0.07240265414594754 0  1.431031284005287 0.08360537881002 0  1.430636577865288 0.1065508606072167 0  1.413065887206935 0.1137763240410725 0  1.399955427486386 0.1056771447394037 0  1.388086584508167 0.1506314825662887 0  1.519407452882165 0.6659333481436714 0  1.386972772270527 0.1744632288998534 0  1.380951321654805 0.2155693244172767 0  1.346254488860528 0.2320884162733434 0  1.33980323160602 0.2596487421516592 0  1.336672635071368 0.2905212417499488 0  1.318407046202527 0.3230782798075839 0  1.31032340093855 0.3574592459965628 0  1.290470529595585 0.3683231676398135 0  1.276658949893485 0.4201194945564679 0  1.264151881546161 0.4604534955624751 0  1.244067961398385 0.5048257275199538 0  1.225755115176608 0.5504623306397499 0  1.202803289450459 0.5979268725519922 0  1.179939397071925 0.6493653914673847 0  1.155215705527726 0.7069441226646255 0  1.112641761326473 0.737094367218334 0  1.086340999053392 0.7927534664068565 0  1.054126004997214 0.850639573290038 0  1.012691851693546 0.9032918490257755 0  0.9696343007392544 0.9591379917895199 0  0.9223274944454781 1.013586474232237 0  0.8699275985957583 1.068564196975694 0  0.8141597079568894 1.121058202149662 0  0.7550939135387779 1.170440459800496 0  0.689107100718742 1.220794116106148 0  0.6203686594729825 1.267480899198876 0  0.5464786693381076 1.31054023252905 0  0.4686050451024433 1.349649462488778 0  0.387081582304006 1.383492249396754 0  0.3016710734624115 1.412297856394605 0  0.2137927871236858 1.434903824366137 0  0.1244643115083589 1.450080452323067 0  0.03257806410539991 1.459780389278134 0  -0.0591443388294872 1.461514397309662 0  -0.1511315963267569 1.456234068412387 0  -0.2416484341517649 1.443115334739708 0  -0.3305595597593337 1.423806648646821 0  -0.4166049480172588 1.395575136255117 0  -0.4986768497715018 1.364350938116831 0  -0.5781442157913588 1.326406731689609 0  -0.6529600616655808 1.281595691790024 0  -0.7232790571794402 1.233942482993689 0  -0.7885877289977751 1.181880405950653 0  -0.8495575281875662 1.12720057367791 0  -0.9042921010892638 1.070850588843774 0  -0.9578704793607287 1.01066663887257 0  -1.000397887854495 0.957868069594671 0  -1.045741210332605 0.904872259729453 0  -1.08511435906919 0.8431573735058201 0  -1.11990379139188 0.7856715754494277 0  -1.148624953956566 0.7293326719536498 0  -1.172432465477169 0.6689515183892922 0  -1.205454006000642 0.6301131939420712 0  -1.220197338206343 0.5528849670094159 0  -1.22114018668913 0.512458436622903 0  -1.264892014958112 0.500902317893773 0  -1.279637730015886 0.450510926147646 0  -1.289316117141014 0.4120052763242139 0  -1.296772542464995 0.3733550331670971 0  -1.322197294088284 0.3513476791031175 0  -1.331188273254522 0.3017488556431598 0  -1.311375470421036 0.3285494633260911 0  -1.377374535546926 0.2895313730574796 0  -1.372466047890589 0.194464391656718 0  -1.370088993338191 0.1695007103413676 0  -1.374535039401699 0.1363612878452537 0  -1.38856096280483 0.1193775455066306 0  -1.399132748119163 0.0865508442922974 0  -1.398626879769214 0.1118795916195497 0  -1.388946388565747 0.0226627379521499 0  -1.407993678279466 0.09630096701264394 0  -1.437955902265878 0.1585780889324278 0  -1.474079728814586 0.07867127083848933 0  -1.482058861765713 0.04892956174224749 0  -1.504794414797934 0.0211775155084239 0  -1.488591737521023 -0.005374755740810426 0  -1.472730909491707 -0.03871159774692466 0  -1.283752831809897 -0.5229793564523986 0  -1.395058478774423 -0.0427977759574267 0  -1.70468651523201 0.5043444718414742 0  -1.441167847085639 -0.06237640097021678 0  -1.450482410778098 0.01352839271469814 0  -1.408694912534688 -0.1298298738605075 0  -1.394770801493335 -0.08756780923851147 0  -1.376027021330045 -0.1007847762467121 0  -1.3814425760472 -0.1226945673063484 0  -1.398350344171038 -0.2418865860680878 0  -1.316937102876488 -0.3426107374936196 0  -1.360930365965898 -0.2390293442835785 0  -1.358110332355279 -0.2963759065332592 0  -1.323126960390161 -0.3230749558263935 0  -1.329361975014203 -0.3607688202501779 0  -1.328361696534785 -0.4005309137476482 0  -1.347186037706042 -0.4482515836464464 0  -1.239524054264446 -0.4666956688764101 0  -1.209716082453498 -0.4995616990157271 0  -1.248667759092458 -0.6155053378551122 0  -1.199003931407302 -0.6373492293883816 0  -1.187972088810474 -0.7006945881288722 0  -1.163204091183704 -0.7653153684881415 0  -1.140756208939612 -0.8275671197709811 0  -1.098304475221677 -0.9091939389473793 0  -1.033043795103897 -0.9323508570336472 0  -1.007700448648058 -1.005199371142578 0  -0.9557451445075447 -1.088705023910012 0  -0.8983420448329829 -1.142128215777708 0  -0.8367151357709391 -1.210142902376929 0  -0.7703285964398324 -1.26920919320092 0  -0.6980442052501853 -1.326130636462943 0  -0.6186873169993421 -1.378435754217934 0  -0.536863528965783 -1.426585977917382 0  -0.4514225637073315 -1.463917678798141 0  -0.3587584978491223 -1.499298071027248 0  -0.2651122661963335 -1.52642160416168 0  -0.1674431055634628 -1.544849430669178 0  -0.06864624113689718 -1.554971165817043 0  0.03110093060522257 -1.556075278643242 0  0.1304458640591418 -1.548411242827459 0  0.2284994254308234 -1.531847753304447 0  0.3240168528064702 -1.506989276824259 0  0.4165052351356082 -1.474791360659087 0  0.5050863609891543 -1.435364672707387 0  0.5890099152250035 -1.389832167250798 0  0.6682818963616846 -1.338778460494722 0  0.7410174214285515 -1.283819359393971 0  0.811538565771181 -1.223740532481414 0  0.8714243626404955 -1.16742331005745 0  0.9286506077013992 -1.10645718840411 0  0.9829763900328106 -1.041771775781266 0  1.03032509274233 -0.978387034741958 0  1.073144090879964 -0.914379714432785 0  1.112736652185333 -0.8528794953063198 0  1.14441637263007 -0.7891860329057886 0  1.170414793062879 -0.7276050870298505 0  1.208569362480543 -0.6871234331217657 0  1.231339990643607 -0.6252594787624453 0  1.252742259618272 -0.5691053129426014 0  1.272399867068616 -0.5153002511091423 0  1.281360529825318 -0.4648867468038355 0  1.287078943721941 -0.4111934987667084 0  1.315213744427025 -0.3836762612983402 0  1.324432486912656 -0.3085309192027089 0  1.289692445574472 -0.3142719837415936 0  1.350453841924327 -0.2756374334925124 0  1.365466935689134 -0.228355443779917 0  1.363622609480725 -0.1971628278102211 0  1.366876377552106 -0.1675706911393895 0  1.376434305965966 -0.139015107525867 0  1.375264095442976 -0.1056672345261707 0  1.60478061599025 0.8243659648004251 0  1.411705571576124 -0.08573689911891576 0  1.40475814416615 -0.09279219997391887 0  1.411766036506868 -0.06173455939417512 0  1.43164893244624 -0.04857114764184536 0  1.43091648875956 -0.02927018152844954 0  1.440573839058132 -0.01790112313126744 0  1.447605838078641 -0.003682697803324908 0  1.467652823106703 0.00396723023459669 0  -0.09650291514209139 0.8822120185933263 0  0.6907007978103382 -0.5053861371305669 0  -0.8072691949276964 -0.3852707370600957 0  -0.07653750040367077 -0.9415486492101073 0  0.6537811646126163 0.496745354842235 0  1.093578268778759 0.1155423209099811 0  -0.7953299415734725 0.4037707105289575 0  -1.158085616080695 0.02868750822107524 0  1.102990946803699 -0.06468826988805158 0  -1.039780158480865 -0.1757864979374927 0  -0.7344121692040483 0.01422289289826308 0  -0.4392520725557387 -0.1390364749242625 0  -1.02956280123396 0.2093822417677572 0  0.3803935387856446 -0.8300817873545048 0  0.08532820817939327 -0.3031177157829263 0  0.3074927327169226 0.7675100912582361 0  0.2210732472630778 0.1837208630185078 0  0.5651656237064049 0.01741780397417254 0  -0.4824059684738907 -0.695027455926101 0  -0.5029724897899024 0.6889664291030599 0  -0.2387177562682116 0.304295703410876 0  0.9204303806110851 -0.2128972365083754 0  0.9004385681667619 0.2467575605860244 0  0.3550156315007583 -0.213469778825486 0  -0.00872631050876563 0.2298128588286955 0  -0.4918027133849787 0.2087912708868348 0  -0.1882924262432498 -0.2788067191047769 0  0.8658193356363552 0.02205191750676884 0  1.252632858410286 0.03055697731497661 0  0.806082090075813 -0.3399359312065054 0  0.7218263073777373 -0.1068988241409072 0  0.5879643103373819 -0.2071846712644116 0  0.443680744019379 -0.07614278244892535 0  0.5155476204395317 -0.3699211421499835 0  0.8672235085527324 -0.08298655422706841 0  0.7177814384943011 0.01960422541341144 0  -0.8608592302638859 0.1223037793446384 0  -1.074676239740708 0.1005183988438078 0  -0.9505797390522177 0.02265581341821751 0  -0.8679713391385068 -0.08916187062265007 0  -1.0779740332685 -0.05232235833767615 0  -1.241524263497569 -0.08088750434369797 0  -1.315227705762171 0.003829019516214959 0  -1.311729839683029 0.05897496052820735 0  -1.232110216474506 0.1399954617726863 0  -0.1306945317072934 -0.6097071787296872 0  -0.3028933035242418 -0.5019711816578792 0  -0.2923137612867061 -0.8403625236776825 0  -0.30914234658697 -0.2015208271250423 0  -0.4530770419466849 -0.4007494410999702 0  -1.231485178741274 -0.1988899429614784 0  -1.213765054473409 0.24504426342733 0  0.3839776734611327 -0.5013349135574858 0  0.2181266122673101 -0.2449219542781507 0  0.2439282747931137 -0.5594201071257865 0  -0.9129317440764325 0.2913294832176734 0  -0.7285640077600445 0.1901336327856913 0  1.272576949065427 -0.08056036087101134 0  1.209603215136012 -0.1787773937535179 0  1.19180027185474 0.2270349326979319 0  1.267340077395886 0.1398732013431363 0  -0.9133271150734015 -0.6526468696340555 0  -1.047669159273303 -0.4464916913684026 0  -1.022193682659981 0.475265844005947 0  -0.886395797082045 0.6620458602722912 0  0.9419583020654136 -0.6057909660965134 0  0.7750695614312746 -0.8235644286525456 0  0.7336540664983997 0.7929560918962166 0  0.9027201770407131 0.6075815505811587 0  0.04339908144311044 -1.25178
[...]
<PointData  Vectors="f_44"> 
<DataArray  type="Float64"  Name="f_44"  NumberOfComponents="3" format="ascii">3.0656704744281466e-01 -4.0488671693981300e-02 0.0000000000000000e+00  -1.5426285679160866e-02 1.3374109567737222e-01 0.0000000000000000e+00  -1.2017221357062835e-01 1.8262124162532484e-01 0.0000000000000000e+00  1.3373652012953935e-01 2.3356711789809284e-01 0.0000000000000000e+00  2.5588175243336864e-01 1.1131303822205932e-02 0.0000000000000000e+00  6.1237181507844851e-02 1.2322415654710941e-01 0.0000000000000000e+00  -2.4643394523729897e-01 -5.7809015094318288e-02 0.0000000000000000e+00  1.3699764035761050e-01 8.8141174307917222e-02 0.0000000000000000e+00  2.0075240371005290e-01 -8.3239857403018341e-02 0.0000000000000000e+00  1.9142174994644595e-01 -1.1877460016681242e-01 0.0000000000000000e+00  2.0279994121404235e-01 -9.9782972703074596e-02 0.0000000000000000e+00  2.8440027498050420e-02 1.6270646909766243e-01 0.0000000000000000e+00  -6.5775069717205162e-02 1.5938607604310048e-01 0.0000000000000000e+00  2.9850850098572540e-01 3.2239635807550071e-02 0.0000000000000000e+00  1.2389519521379486e-01 1.3756495147563888e-01 0.0000000000000000e+00  1.9399184910076067e-01 1.5381462048564759e-01 0.0000000000000000e+00  4.1056795319336051e-02 1.2585656274360288e-01 0.0000000000000000e+00  6.2557809781928597e-02 1.4690276552807985e-01 0.0000000000000000e+00  2.3381247933021884e-01 1.0154927683344171e-01 0.0000000000000000e+00  1.5097830299286666e-01 1.5612411845089555e-01 0.0000000000000000e+00  1.5579373109885397e-01 1.6204734649344646e-01 0.0000000000000000e+00  1.5348059613039544e-01 1.6316546263049886e-01 0.0000000000000000e+00  1.3011256240355931e-01 1.7646420724154821e-01 0.0000000000000000e+00  1.9192998210211984e-01 1.5413526393680366e-01 0.0000000000000000e+00  2.0169194983300998e-02 1.9001745747639659e-01 0.0000000000000000e+00  1.2861531581726078e-02 1.9536860256615787e-01 0.0000000000000000e+00  1.7259256130988479e-01 1.7159883629064018e-01 0.0000000000000000e+00  7.1448807463436667e-02 2.0801192554038603e-01 0.0000000000000000e+00  5.2461206089891597e-02 2.1865338103009757e-01 0.0000000000000000e+00  4.7986891454253423e-02 2.1781300195256639e-01 0.0000000000000000e+00  1.9422846019841133e-02 2.2321978690390179e-01 0.0000000000000000e+00  -1.3216922860684064e-04 2.2359986588596420e-01 0.0000000000000000e+00  -2.7347139522712401e-02 2.2202605161951655e-01 0.0000000000000000e+00  -4.9938671879308207e-02 2.1808843410396586e-01 0.0000000000000000e+00  -6.9439530983509079e-02 2.1270776640850467e-01 0.0000000000000000e+00  -9.6690997476029605e-02 2.0167772972892312e-01 0.0000000000000000e+00  -1.2223351063427441e-01 1.8758276835613150e-01 0.0000000000000000e+00  -1.4586530666652753e-01 1.6958071831199054e-01 0.0000000000000000e+00  -1.6866591146616705e-01 1.4710969941201923e-01 0.0000000000000000e+00  -1.8707068069736021e-01 1.2310051742175802e-01 0.0000000000000000e+00  -2.0446196568290634e-01 9.0379086795001867e-02 0.0000000000000000e+00  -2.1579958084541048e-01 6.0662854851243661e-02 0.0000000000000000e+00  -2.2161001770003771e-01 2.8393580524792423e-02 0.0000000000000000e+00  -2.2411407410242876e-01 -8.6514478630174869e-03 0.0000000000000000e+00  -2.1868666078102042e-01 -4.5256141077018759e-02 0.0000000000000000e+00  -2.1080864266663618e-01 -7.7364992100259683e-02 0.0000000000000000e+00  -1.9170850561978695e-01 -1.1391884058269838e-01 0.0000000000000000e+00  -1.7325841308788351e-01 -1.4248407460618551e-01 0.0000000000000000e+00  -1.5693912749951433e-01 -1.5939787151694221e-01 0.0000000000000000e+00  -1.2185882655810049e-01 -1.8752922721222437e-01 0.0000000000000000e+00  -9.4155710833508668e-02 -2.0344602744382898e-01 0.0000000000000000e+00  -6.6873451578408002e-02 -2.1307807828891989e-01 0.0000000000000000e+00  -3.6808586894890936e-02 -2.2113520553964214e-01 0.0000000000000000e+00  -8.3397842250249373e-03 -2.2316274195188973e-01 0.0000000000000000e+00  1.6100600619737351e-02 -2.2358859238660686e-01 0.0000000000000000e+00  4.1193017931266805e-02 -2.1932692568758766e-01 0.0000000000000000e+00  3.5737004592598778e-02 -2.2160650579611085e-01 0.0000000000000000e+00  6.1687663887533502e-02 -2.1261429565031412e-01 0.0000000000000000e+00  1.0661140140711504e-01 -1.9826746585051436e-01 0.0000000000000000e+00  1.0644461619316953e-01 -1.9686497971502112e-01 0.0000000000000000e+00  1.7232688472118260e-01 -1.5157187282319112e-01 0.0000000000000000e+00  9.0089799391693981e-02 -1.9643672960299796e-01 0.0000000000000000e+00  1.0316103168897199e-01 -1.5892144604293415e-01 0.0000000000000000e+00  2.9508710519069586e-01 -2.5115656836297778e-02 0.0000000000000000e+00  -5.5585281574255414e-02 -5.4863880727360717e-02 0.0000000000000000e+00  -3.7708802018434850e-02 -1.2897812257694552e-01 0.0000000000000000e+00  2.5057141139997341e-01 -1.1956338205153705e-01 0.0000000000000000e+00  2.2426529767559311e-01 -6.9493284447085343e-02 0.0000000000000000e+00  6.5208443143477887e-02 -1.6969564652692792e-01 0.0000000000000000e+00  8.7133949698518565e-02 -1.3797610988772621e-01 0.0000000000000000e+00  2.2996374338058559e-01 -1.0510510714702485e-01 0.0000000000000000e+00  -1.4060431862188949e-01 -2.6064431410367433e-01 0.0000000000000000e+00  6.5643610172243974e-02 -7.2950672749231255e-02 0.0000000000000000e+00  2.8304026454443276e-01 6.9048363337597604e-02 0.0000000000000000e+00  2.2755722367386214e-01 3.4683589767390819e-03 0.0000000000000000e+00  1.3244354113145465e-01 -1.4578811678203984e-01 0.0000000000000000e+00  9.6694196266644425e-02 -1.9820517892160205e-01 0.0000000000000000e+00  2.2424948830555649e-01 -6.9485564467721986e-02 0.0000000000000000e+00  2.2117987932420741e-01 3.8273871998386090e-02 0.0000000000000000e+00  2.1388659246995168e-01 5.7778273620246796e-02 0.0000000000000000e+00  1.6629394558546709e-01 1.9797197913517081e-01 0.0000000000000000e+00  1.3031346800776189e-01 -1.3166813867357368e-02 0.0000000000000000e+00  1.7600600224947782e-01 -1.9945248632802470e-01 0.0000000000000000e+00  1.1718103070854077e-01 -1.9751677444672994e-01 0.0000000000000000e+00  4.3876825738583716e-02 -4.0606436499520344e-02 0.0000000000000000e+00  1.3492112403282960e-01 2.4067325482124383e-01 0.0000000000000000e+00  1.4750095695243598e-01 1.7043657267278939e-01 0.0000000000000000e+00  1.9803145144445261e-01 1.0915428757374317e-01 0.0000000000000000e+00  1.5356052067917764e-01 1.4602644288339925e-01 0.0000000000000000e+00  1.1451945416343481e-01 1.9985216777111806e-01 0.0000000000000000e+00  1.6583733920011254e-01 1.4275207630828796e-01 0.0000000000000000e+00  2.0575848168018276e-01 1.0213827411512165e-01 0.0000000000000000e+00  1.9191008993677131e-01 6.1512796328262183e-02 0.0000000000000000e+00  7.5670119438886213e-02 -6.7776764436055334e-02 0.0000000000000000e+00  4.0337613462293892e-03 1.3745082844305778e-01 0.0000000000000000e+00  2.7148971465198091e-01 -1.5580053015106693e-01 0.0000000000000000e+00  1.1010507110015040e-01 9.9097142060043414e-02 0.0000000000000000e+00  6.2352545622601986e-02 2.4489187564575182e-01 0.0000000000000000e+00  2.3273711044760684e-01 7.0095190465879295e-02 0.0000000000000000e+00  8.0514053682323436e-02 1.1704327814253576e-01 0.0000000000000000e+00  1.9219367777276525e-02 1.0197192803063858e-01 0.0000000000000000e+00  2.5575968691828066e-01 -4.4382789487473658e-02 0.0000000000000000e+00  2.5868767125840852e-01 -9.7684178814272743e-02 0.0000000000000000e+00  -1.0719825128579213e-01 -5.0562289276391011e-02 0.0000000000000000e+00  -2.0877000601480208e-01 2.0269960671998380e-01 0.0000000000000000e+00  2.1739187621063044e-01 -6.1610170408399591e-02 0.0000000000000000e+00  4.1671771082857537e-02 -6.8436904540007032e-02 0.0000000000000000e+00  -9.1254216266277357e-03 1.6571997840753047e-01 0.0000000000000000e+00  2.4728177816980917e-01 9.0627218712745788e-02 0.0000000000000000e+00  1.3995473270038819e-01 1.5542680849313209e-01 0.0000000000000000e+00  2.0701878840887786e-01 1.6629618293390278e-01 0.0000000000000000e+00  -5.5851746697262672e-02 1.7353120504712527e-01 0.0000000000000000e+00  -2.3931149699675188e-02 1.2338917214846798e-01 0.0000000000000000e+00  1.9939418130887640e-01 1.7183546056013296e-01 0.0000000000000000e+00  1.6130172010660838e-02 2.1834733724348818e-01 0.0000000000000000e+00  8.2946234790110939e-04 2.2393770982657629e-01 0.0000000000000000e+00  7.9773779004375222e-03 2.2214742996875395e-01 0.0000000000000000e+00  -4.3196135152930609e-02 2.2128976649624280e-01 0.0000000000000000e+00  -7.0527322914556878e-02 2.1102553014017991e-01 0.0000000000000000e+00  -9.7349963788130364e-02 2.0292112649182073e-01 0.0000000000000000e+00  -1.3029263972544303e-01 1.8019733409191455e-01 0.0000000000000000e+00  -1.6236984996048634e-01 1.5537386870253139e-01 0.0000000000000000e+00  -1.7605356815440110e-01 1.3754246891737987e-01 0.0000000000000000e+00  -2.0026632924026022e-01 1.0034009224220861e-01 0.0000000000000000e+00  -2.1474688875533640e-01 6.3658336287708783e-02 0.0000000000000000e+00  -2.2232851062373490e-01 2.5497060536702428e-02 0.0000000000000000e+00  -2.2349099730671329e-01 -1.4868385145301390e-02 0.0000000000000000e+00  -2.1724796683471098e-01 -5.4042378396649188e-02 0.0000000000000000e+00  -2.0400863616126508e-01 -9.2158015649241962e-02 0.0000000000000000e+00  -1.8609387883405901e-01 -1.2455025448566336e-01 0.0000000000000000e+00  -1.6320255710285675e-01 -1.5312136115519606e-01 0.0000000000000000e+00  -1.3600765900514397e-01 -1.7781307075674435e-01 0.0000000000000000e+00  -1.0767062049247869e-01 -1.9624672686977079e-01 0.0000000000000000e+00  -7.6685691484662463e-02 -2.1020560538434863e-01 0.0000000000000000e+00  -4.6854743579606929e-02 -2.1878130792489073e-01 0.0000000000000000e+00  -2.5501827307164299e-02 -2.2232033727878853e-01 0.0000000000000000e+00  -8.1384533305798211e-07 -2.2364862132969657e-01 0.0000000000000000e+00  2.7016481837738970e-02 -2.2212094408588476e-01 0.0000000000000000e+00  5.0370939114181619e-02 -2.1806082978508015e-01 0.0000000000000000e+00  7.6906852505443740e-02 -2.0979668388834460e-01 0.0000000000000000e+00  8.7955986409766998e-02 -2.0620537652413806e-01 0.0000000000000000e+00  1.0517587921036162e-01 -1.9594465018216137e-01 0.0000000000000000e+00  1.7320527426745408e-01 -1.5597071715296368e-01 0.0000000000000000e+00  7.1600395509512957e-02 -1.9760524422881059e-01 0.0000000000000000e+00  7.8460893123315806e-02 -1.8978410601474649e-01 0.0000000000000000e+00  1.9445461698664809e-01 -1.3337084887179143e-01 0.0000000000000000e+00  1.5931765391443592e-01 -1.5602772845743865e-01 0.0000000000000000e+00  1.8114075465019555e-01 -1.2150141311026214e-01 0.0000000000000000e+00  2.5763772161221127e-01 -2.5542870674110572e-02 0.0000000000000000e+00  7.7263708191520633e-02 -1.4574576792382818e-01 0.0000000000000000e+00  1.6483383390689191e-01 -1.3802239228332328e-01 0.0000000000000000e+00  1.0199411968559503e-01 -1.5468811592208477e-02 0.0000000000000000e+00  -2.3257794197863207e-01 -1.7024374499454697e-01 0.0000000000000000e+00  4.7582058751220291e-02 -1.9845715752601589e-01 0.0000000000000000e+00  2.3919725270584447e-01 -4.8585244534936213e-02 0.0000000000000000e+00  2.2262752582259301e-01 3.1181213172677594e-02 0.0000000000000000e+00  1.9032495537214680e-01 -1.3960754381296883e-01 0.0000000000000000e+00  2.0593654203814121e-01 -2.3493038065551197e-02 0.0000000000000000e+00  1.9724710974321749e-01 -1.0202730733866477e-01 0.0000000000000000e+00  2.0170266605716930e-01 -9.8468729903172958e-02 0.0000000000000000e+00  2.0258051256660564e-01 -8.8940484461051614e-02 0.0000000000000000e+00  1.8539184715311638e-01 -1.1856639170716851e-01 0.0000000000000000e+00  5.9936357921702543e-02 -1.5812169193196884e-01 0.0000000000000000e+00  1.9459356814900963e-02 -1.0537288014895158e-01 0.0000000000000000e+00  1.8450838893112048e-01 -4.5431590019601370e-02 0.0000000000000000e+00  1.0256881050279940e-01 -2.5120700367381155e-01 0.0000000000000000e+00  -6.2380185590263391e-02 -1.3805774717335093e-01 0.0000000000000000e+00  -5.8130310794323625e-02 -1.7507268360347097e-01 0.0000000000000000e+00  -2.1831961480211076e-01 -4.9511195121134902e-02 0.0000000000000000e+00  8.3343047004310861e-02 -2.0770759151116588e-01 0.0000000000000000e+00  1.3312945556028616e-01 1.7984423797518570e-01 0.0000000000000000e+00  -2.2186712555238988e-01 3.0003244461728102e-02 0.0000000000000000e+00  7.5470486775798734e-02 2.1071532913948912e-01 0.0000000000000000e+00  2.1680598412995736e-01 5.4887991883899735e-02 0.0000000000000000e+00  1.3841698607940184e-01 -1.7580882131255551e-01 0.0000000000000000e+00  2.2336282734475554e-01 1.1085674878260199e-02 0.0000000000000000e+00  2.1834982637645520e-01 -4.8421440382458013e-02 0.0000000000000000e+00  2.0009192125081715e-01 9.9974625612836029e-02 0.0000000000000000e+00  2.2373287340361742e-01 2.8807121384630623e-03 0.0000000000000000e+00  1.8360407632541315e-01 1.2877345057644551e-01 0.0000000000000000e+00  2.0553869514696452e-01 -8.8235548076118789e-02 0.0000000000000000e+00  -1.2230228423084739e-01 -1.8749017714280669e-01 0.0000000000000000e+00  -1.3785384421485122e-01 -1.7751986345467305e-01 0.0000000000000000e+00  -1.4719407989580896e-01 1.6866882690915580e-01 0.0000000000000000e+00  1.1919880708164461e-01 1.9061707205430714e-01 0.0000000000000000e+00  2.2386956961235788e-01 4.7669528483694013e-03 0.0000000000000000e+00  -7.0907364015339078e-02 2.1234406236151129e-01 0.0000000000000000e+00  -4.9852155148019307e-02 -2.1823048649574434e-01 0.0000000000000000e+00  -9.8543800508007085e-03 -2.2472239780918471e-01 0.0000000000000000e+00  1.9423652070039515e-01 -1.1098761825851945e-01 0.0000000000000000e+00  1.9176783025365984e-01 1.1517791590349995e-01 0.0000000000000000e+00  1.2853623175581227e-01 -1.8368821251557113e-01 0.0000000000000000e+00  -2.2692032263336892e-01 4.5096556866638755e-03 0.0000000000000000e+00  1.6961975819865885e-01 -1.4628528305540875e-01 0.0000000000000000e+00  -6.9482802396112958e-02 2.1472237730680610e-01 0.0000000000000000e+00  2.2359396728765257e-01 4.8649071903645435e-03 0.0000000000000000e+00  2.2343744383798717e-01 9.2330432166980499e-03 0.0000000000000000e+00  1.5641379740805300e-01 -1.6001667808213677e-01 0.0000000000000000e+00  2.1300590891276000e-01 -6.8591220722865665e-02 0.0000000000000000e+00  1.7869311575262345e-01 -1.3501814947057336e-01 0.0000000000000000e+00  2.1104941536935845e-01 -7.5425955725585747e-02 0.0000000000000000e+00  9.1027431771679643e-02 -2.0464755553769132e-01 0.0000000000000000e+00  2.1766556453652466e-01 -5.1445901175160465e-02 0.0000000000000000e+00  2.2364049624071514e-01 5.3281505169838284e-03 0.0000000000000000e+00  2.1727101692578579e-01 -5.3214110192696458e-02 0.0000000000000000e+00  2.2143123554105901e-01 -3.1508618231600873e-02 0.0000000000000000e+00  2.2361904703779914e-01 3.4149270943295710e-03 0.0000000000000000e+00  2.1532808459684305e-01 6.0618318129653459e-02 0.0000000000000000e+00  2.1898976744696605e-01 4.5494316747100645e-02 0.0000000000000000e+00  2.1342267804275103e-01 6.6582709814749980e-02 0.0000000000000000e+00  2.1568812835856632e-01 5.9815059384407898e-02 0.0000000000000000e+00  2.2306004943798433e-01 2.0717158543585162e-02 0.0000000000000000e+00  2.1953064343290241e-01 -4.2651862466266142e-02 0.0000000000000000e+00  -2.0864302239534060e-01 8.1506773361241569e-02 0.0000000000000000e+00  -1.0361989220413369e-01 1.9868419982004520e-01 0.0000000000000000e+00  -1.7270287792960426e-01 1.4244739120513378e-01 0.0000000000000000e+00  1.0631382243870555e-01 1.9839624968176572e-01 0.0000000000000000e+00  3.1060590708998973e-02 2.2187327422011255e-01 0.0000000000000000e+00  1.9450518309420886e-01 1.1017281376505636e-01 0.0000000000000000e+00  1.9909886600541071e-01 -1.0188024353774972e-01 0.0000000000000000e+00  -2.8244715458343585e-02 -2.2215702661183664e-01 0.0000000000000000e+00  3.4962150690352786e-02 -2.2176631269417965e-01 0.0000000000000000e+00  -1.2690047550051040e-01 -1.8459661691688106e-01 0.0000000000000000e+00  1.8300278158658148e-01 -1.2867184767906242e-01 0.0000000000000000e+00  2.0047683306920641e-01 -9.9464465943752911e-02 0.0000000000000000e+00  2.1206685114775650e-01 -7.1125593425773320e-02 0.0000000000000000e+00  1.8597143072690192e-01 -1.2445103395162622e-01 0.0000000000000000e+00  1.8915846462302954e-01 1.1946954831615852e-01 0.0000000000000000e+00  2.0726845957320977e-01 8.4606312225318989e-02 0.0000000000000000e+00  7.6300368837826330e-02 2.1026888359811943e-01 0.0000000000000000e+00  1.3502623097387695e-01 1.7823523818004305e-01 0.0000000000000000e+00  1.3359020008741199e-01 -1.7929168334498433e-01 0.0000000000000000e+00  7.9135521923145408e-02 -2.0923579090253452e-01 0.0000000000000000e+00  1.0493770391337831e-01 -1.9753300152054995e-01 0.0000000000000000e+00  2.3187490337474866e-02 -2.2255299408264426e-01 0.0000000000000000e+00  5.6157722752947174e-03 2.2368458462069127e-01 0.0000000000000000e+00  8.7715917945222446e-02 2.0577742373041460e-01 0.0000000000000000e+00  -2.2255850270053512e-01 -2.4620588852754085e-02 0.0000000000000000e+00  -1.9520688574034881e-01 1.0966250294449378e-01 0.0000000000000000e+00  -1.9515888669719220e-01 -1.0970304961687770e-01 0.0000000000000000e+00  -2.2309643284162178e-01 1.8632180445634909e-02 0.0000000000000000e+00  -1.5434523242511339e-02 -2.2329085141885005e-01 0.0000000000000000e+00  2.1210158494920997e-01 7.2992552689723211e-02 0.0000000000000000e+00  1.7444105239479513e-01 1.4046002709212083e-01 0.0000000000000000e+00  7.1249257157974394e-02 2.1243243909792731e-01 0.0000000000000000e+00  1.4171784359013120e-01 1.7339063443122696e-01 0.0000000000000000e+00  2.1972714877189661e-01 4.3160017665432544e-02 0.0000000000000000e+00  1.9850500729681766e-01 1.0335429506121710e-01 0.0000000000000000e+00  -1.2698519744529390e-02 2.2808150708095645e-01 0.0000000000000000e+00  -2.6486431229029073e-01 1.7939800913586077e-02 0.0000000000000000e+00  1.8396110672770860e-01 -1.3540283219571428e-01 0.0000000000000000e+00  1.5678303979322405e-01 1.5935737708741310e-01 0.0000000000000000e+00  1.6357563032293720e-01 -1.5269359483116243e-01 0.0000000000000000e+00  1.7813928062024928e-01 1.3531942278663209e-01 0.0000000000000000e+00  2.0993111849105139e-01 7.7455595570887159e-02 0.0000000000000000e+00  1.5127020151233769e-01 1.6489440923464796e-01 0.0000000000000000e+00  2.1555572151174063e-01 5.9646689706025269e-02 0.0000000000000000e+00  -6.9300465487008162e-02 2.1302593591709254e-01 0.0000000000000000e+00  -3.4252519203511918e-02 2.2122658087003411e-01 0.0000000000000000e+00  -2.1397984528708880e-01 -6.6313529716780409e-02 0.0000000000000000e+00  -2.0287941422983535e-01 -9.4694454767140210e-02 0.0000000000000000e+00  -5.9987626830248150e-02 -2.1582491061751577e-01 0.0000000000000000e+00  -1.8043093581797684e-01 -1.3274540321798414e-01 0.0000000000000000e+00  -1.5792257495472362e-01 -1.5869510829646594e-01 0.0000000000000000e+00  2.2177409647628654e-01 -3.7067024466057960e-02 0.0000000000000000e+00  -2.2348775484637229e-01 2.0927875921985646e-02 0.0000000000000000e+00  -7.0772522916822456e-02 -2.1233851814425378e-01 0.0000000000000000e+00  -1.7473060992607908e-01 -1.3998770273403172e-01 0.0000000000000000e+00  -1.8490086844132958e-01 1.2619090199315752e-01 0.0000000000000000e+00  -9.2270330392019762e-02 2.0391882549875981e-01 0.0000000000000000e+00  2.2395592866416053e-01 5.4475466521428019e-02 0.0000000000000000e+00  -1.8208596433393529e-01 1.3036999619194239e-01 0.0000000000000000e+00  -2.1278946659430698e-01 6.9478235196142435e-02 0.0000000000000000e+00  -1.1546662186000500e-01 1.9179172746088977e-01 0.0000000000000000e+00  -7.1697976066845085e-03 2.2366102653301498e-01 0.0000000000000000e+00  4.7404106154935378e-02 2.1874592976060542e-01 0.0000000000000000e+00  -1.6636748558329253e-03 -2.2376737494949328e-01 0.0000000000000000e+00  -1.1288010273052601e-01 -1.9330758364234715e-01 0.0000000000000000e+00  5.9395635810116962e-02 -2.1577505848851417e-01 0.0000000000000000e+00  2.1688527424488205e-01 -5.5455858438471665e-02 0.0000000000000000e+00  1.4499754625849420e-01 -1.7056185046753156e-01 0.00000