<?xml version="1.0"?>
<VTKFile type="UnstructuredGrid"  version="0.1"  >
<UnstructuredGrid>
<Piece  NumberOfPoints="2549" NumberOfCells="4928">
<Points>
<DataArray  type="Float64"  NumberOfComponents="3"  format="ascii">1.458509079990612 0.03143000708902839 0  1.454634002390291 0.05412674631926453 0  1.429139422520212 0.06444674873262057 0  1.419386833781671 0.07867326097193666 0  1.405171321084276 0.08998205159933798 0  1.396690194592658 0.1048219544234799 0  1.384611071530005 0.1188204624954284 0  1.381322671068553 0.1405617655392706 0  1.35082292302303 0.1465795939249886 0  1.334391371560219 0.130627922975434 0  1.347631780775445 0.1773586755325317 0  1.335898780304777 0.1958083429094395 0  1.330689156191281 0.2260342906431311 0  1.321537246392855 0.2543228694488306 0  1.31154196261118 0.28347047264261 0  1.302290592886836 0.3199328057297859 0  1.276759398058738 0.3381041187196006 0  1.268031464571056 0.3456493105924827 0  1.264968216369901 0.4062711492220431 0  1.249590934779304 0.4426950486020365 0  1.235357542344352 0.4889783881811968 0  1.217892862278083 0.5340541317219829 0  1.198922183808428 0.5820583233791247 0  1.178191852595669 0.6348157403776308 0  1.150057803705668 0.6864165103391837 0  1.122534223057242 0.7285518188398183 0  1.093774572171069 0.7837733761441311 0  1.060535926723662 0.8389291374970447 0  1.023556958614806 0.895194739484734 0  0.9825327352719301 0.9520777254327015 0  0.9372719299018146 1.008916600371027 0  0.887693965835849 1.066574472950712 0  0.8320278959645462 1.120843780287254 0  0.7739502729213144 1.172254322282864 0  0.7101943618831956 1.226241322280441 0  0.6413724487679378 1.275284808657413 0  0.5678056578931652 1.32127344796757 0  0.4897111536469575 1.362873055640055 0  0.407423055670126 1.399376755376966 0  0.3215075259892153 1.431197752990301 0  0.2317154271812897 1.45513109200591 0  0.1407632117086036 1.472111560613651 0  0.04738679384580201 1.48384302414176 0  -0.04669994919874453 1.486842204781222 0  -0.1406973597810524 1.482458971675291 0  -0.2336608493793396 1.470064452625574 0  -0.3246850989525529 1.45048590745971 0  -0.4129272996237381 1.422106141262271 0  -0.4967984983466259 1.390170268844904 0  -0.5784588257830346 1.351420787027134 0  -0.6544660114327662 1.305225727804033 0  -0.7256163814181757 1.255361639780313 0  -0.7915751192935838 1.201670543660755 0  -0.852166290328307 1.144602087432109 0  -0.9075772782386942 1.086723271710902 0  -0.9568545266800083 1.022271667343333 0  -1.000195859266912 0.9705783479116914 0  -1.044963615292188 0.9137906041344261 0  -1.081092873062606 0.8514468005838816 0  -1.113552347719952 0.7927370288667441 0  -1.142554783153988 0.7360392258657494 0  -1.167484090624288 0.6784601444134308 0  -1.19098541049971 0.6294443231282925 0  -1.206064608308794 0.5606480315282398 0  -1.217652208689104 0.5298885313237532 0  -1.243258447665357 0.5015767233538063 0  -1.257739733296543 0.4576019094514965 0  -1.272037818891106 0.4212050016366319 0  -1.283863489219398 0.3839950244964855 0  -1.29806039003866 0.3573485245778533 0  -1.303310670849927 0.3158207280928461 0  -1.334428328696499 0.3347719714512369 0  -1.362342516981824 0.2854913421290649 0  -1.335181237245013 0.2067763558648133 0  -1.341397697897668 0.1832210397098507 0  -1.337409841902482 0.1523689436577526 0  -1.34490713023943 0.1344740778652697 0  -1.337610070809896 0.107512707585905 0  -1.363002021183997 0.1104155198863371 0  -1.311226164668401 0.05972582315131833 0  -1.374501819886564 0.1234014992844837 0  -1.458646991719172 0.1187815731114417 0  -1.419719146950452 0.08693970520524837 0  -1.447601300979239 0.07104331533087717 0  -1.435106130707788 0.0524257813286367 0  -1.451391144408203 0.0336164362594629 0  -1.424169485097266 0.01724709156628797 0  -1.469871315702373 -0.01631483417055984 0  -1.381491402267963 -0.02041215489550277 0  -1.316670001818957 0.04890119985625313 0  -1.377869415505299 -0.008100785958666701 0  -1.353025073037718 -0.00495660182117974 0  -1.364513590652758 -0.03502745766804 0  -1.359379991665484 -0.05488263184259606 0  -1.366162908203795 -0.08830376529279071 0  -1.361130491438786 -0.1124542831874621 0  -1.393714876180318 -0.1951296529311178 0  -1.370080012386073 -0.2557308979923182 0  -1.338043031641747 -0.2334133078194776 0  -1.335364801179797 -0.278986337542144 0  -1.322587564286161 -0.3068793176697089 0  -1.312808890297433 -0.3465703747503822 0  -1.300245253867513 -0.3848225838594567 0  -1.287613547126149 -0.430948141587331 0  -1.263589874327887 -0.4585548595585465 0  -1.255973597303486 -0.4916329175124253 0  -1.244134606525879 -0.5686401191960114 0  -1.222853278826096 -0.6209466514947461 0  -1.200506401519126 -0.6838310935856536 0  -1.173930849478393 -0.7456199789589529 0  -1.143622851218376 -0.8096308062885231 0  -1.108918601606008 -0.8761095587312362 0  -1.067612663575702 -0.9347638660698394 0  -1.028400895954614 -0.9982692167563778 0  -0.9801174562575379 -1.077010757818193 0  -0.9250782584764519 -1.14302492913826 0  -0.8645677476515043 -1.210773242567266 0  -0.7979902389595022 -1.274518862569771 0  -0.7255086559568388 -1.334846149590892 0  -0.6474195550309134 -1.392575871791738 0  -0.5617909472548096 -1.441084486507334 0  -0.4744613444391335 -1.481714781930012 0  -0.3811949215543299 -1.520797833391509 0  -0.2840243997630393 -1.549389941522514 0  -0.1839465457604149 -1.569896736812943 0  -0.08196092493937525 -1.581042995577691 0  0.02081051354811844 -1.583050069647082 0  0.1233315793324731 -1.575506747615856 0  0.224421610176138 -1.558856893933285 0  0.3228627113844813 -1.533322983501322 0  0.4180183124447271 -1.499951229670048 0  0.5088921065507701 -1.458966032914932 0  0.5948339064346106 -1.411568308679015 0  0.6753031862896882 -1.35822294065017 0  0.7500100605396527 -1.301312085315824 0  0.8183253103539289 -1.236701896618273 0  0.8790671038708723 -1.179535983428968 0  0.9390778224779811 -1.117245297590756 0  0.9904080193712268 -1.04911406230183 0  1.036691650267662 -0.983231758016365 0  1.078018752333048 -0.9176277709009131 0  1.114663439723202 -0.8531858162877358 0  1.14702931463714 -0.7902850680199981 0  1.174532981678026 -0.7282415547864213 0  1.200582128221126 -0.6794984933710526 0  1.226689322775215 -0.6215013841062097 0  1.245440548523697 -0.5633888995543188 0  1.262238170036971 -0.5103255129531661 0  1.277526039237693 -0.4607645235789047 0  1.289429150279055 -0.4101211707567171 0  1.302724853123929 -0.370369899659586 0  1.303018371877686 -0.3047997193365862 0  1.309160471994544 -0.2952751694675633 0  1.333156299861354 -0.2755816672170245 0  1.34041816782204 -0.2365848431616109 0  1.348452261848222 -0.2051792838519107 0  1.355529434339298 -0.1745824262720268 0  1.358512489516063 -0.1420640960809702 0  1.368394211706677 -0.1219852484021541 0  1.352058773118997 -0.07220321881063219 0  1.366870356450874 -0.08817998549589984 0  1.395969903378583 -0.08105748755542541 0  1.396745126549801 -0.0576569233004437 0  1.406444390963767 -0.04238323071536429 0  1.412454721006228 -0.02649841893267119 0  1.423292818640227 -0.01415788844562163 0  1.432571354417414 -0.0003038635284195179 0  1.451290826650335 0.01136773923426724 0  -0.09043155183238721 0.9077004220054459 0  0.6799304680592427 -0.5204572137312403 0  -0.7971063568533736 -0.380085239929528 0  -0.08666979974257591 -0.9677706114745268 0  0.6474158390746678 0.5004482037224851 0  1.070999342944522 0.1086980012940074 0  -0.7785298667486494 0.4164878487670988 0  -1.128891320643269 0.04036288037126484 0  1.082023201217733 -0.06879187306819909 0  -1.019431217010676 -0.1638797921098793 0  -0.7149812947686741 0.02222241195676389 0  -0.4278357891337883 -0.1395589934808107 0  -1.005147267856705 0.2203193179128973 0  0.3735228684078599 -0.8553259195040286 0  0.08090092367585551 -0.3275999746274317 0  0.3104124803565005 0.7848612387392599 0  0.2253734733039574 0.1925453924051599 0  0.5539706805082052 0.01040643011364737 0  -0.4873856781637807 -0.7066372129538867 0  -0.4950648435793739 0.7104504606261866 0  -0.2330908867592789 0.3215445141789405 0  0.9026030872262664 -0.2190309809337131 0  0.88335349300351 0.241621204459516 0  0.3470711237328966 -0.233903919823639 0  -0.006375915174958426 0.2500933569918894 0  -0.4779390327350674 0.2205819813575099 0  -0.1854676229938936 -0.2895157405686153 0  0.8470934416253925 0.0159245412418814 0  1.230004545085443 0.02499981043260673 0  0.7916286724650656 -0.3499018197213181 0  0.7060348678168451 -0.116046800006252 0  0.5750242796462777 -0.2216771496521087 0  0.4360191211127212 -0.08883934475560532 0  0.5032958247015789 -0.3901915327376925 0  0.8487433022726827 -0.08964286600063068 0  0.7021587999314954 0.01302633203507406 0  -0.8387498346161325 0.1323489009030652 0  -1.047727657844627 0.1117448223257846 0  -0.9269627315172654 0.03290876801901087 0  -0.8476174081419439 -0.08025550929476309 0  -1.053222563790339 -0.04089078520049627 0  -1.215494496433596 -0.06916055167455232 0  -1.277566514686067 0.01688718912589457 0  -1.272030504768427 0.07444502441993539 0  -1.200170728229168 0.1531617443420477 0  -0.1379786329734147 -0.6324745062392956 0  -0.3038492104277482 -0.5171567894267974 0  -0.3018573604527976 -0.8606863425967479 0  -0.3017749449747782 -0.2069462735899764 0  -0.4481932645381381 -0.4084555282418314 0  -1.211547298026348 -0.1844128998846289 0  -1.187582357374475 0.2570549162726533 0  0.3718707695692198 -0.5270678113354246 0  0.2125673308481739 -0.2671518094637983 0  0.2312393299119476 -0.5877896306335284 0  -0.8920531554093798 0.3022837350687139 0  -0.7094268864381914 0.2007008597448077 0  1.251726248576107 -0.08360542476050967 0  1.189446752429496 -0.1789273858771636 0  1.168259186948081 0.2190347093548435 0  1.237557236396135 0.1319442006160128 0  -0.9150972802007614 -0.6449159113304179 0  -1.037610469555411 -0.4332552431236094 0  -1.004661794196037 0.4851912988186672 0  -0.8758387036598175 0.6750216875990164 0  0.9347923120977876 -0.6118269673854966 0  0.7735377527989727 -0.8360000791068197 0  0.7383994806109537 0.794730053778832 0  0.8991237479986465 0.6032662719370522 0  
[...]
<PointData  Vectors="PointNormal"> 
<DataArray  type="Float64"  Name="PointNormal"  NumberOfComponents="3" format="ascii">9.9611864236946290e-01 -8.8020738033818907e-02 0.0000000000000000e+00  7.7905826016890589e-01 6.2695153501893386e-01 0.0000000000000000e+00  6.2664604423687131e-01 7.7930400694612179e-01 0.0000000000000000e+00  7.3177977336700717e-01 6.8154116771544448e-01 0.0000000000000000e+00  7.5901450789045977e-01 6.5107371073619857e-01 0.0000000000000000e+00  8.1644616144571547e-01 5.7742156650107612e-01 0.0000000000000000e+00  9.0853977615881953e-01 4.1779836660437292e-01 0.0000000000000000e+00  6.9113063426893573e-01 -7.2272985712160709e-01 0.0000000000000000e+00  2.8392738749693436e-01 -9.5884578459164416e-01 0.0000000000000000e+00  8.5865491015471485e-01 -5.1255413886456769e-01 0.0000000000000000e+00  9.8948171680980279e-01 1.4465798318490836e-01 0.0000000000000000e+00  9.3284866670341182e-01 3.6026846244108968e-01 0.0000000000000000e+00  9.7091195406211150e-01 2.3943679220055572e-01 0.0000000000000000e+00  9.4872369447990756e-01 3.1610655091660922e-01 0.0000000000000000e+00  9.5841045682051906e-01 2.8539340612054065e-01 0.0000000000000000e+00  8.2513177133068505e-01 5.6494031537914347e-01 0.0000000000000000e+00  6.1760986259505901e-01 7.8648462008186293e-01 0.0000000000000000e+00  8.9860380834789488e-01 4.3876097778022605e-01 0.0000000000000000e+00  9.7479818700575727e-01 2.2308853536273113e-01 0.0000000000000000e+00  9.3974520356760549e-01 3.4187563875140264e-01 0.0000000000000000e+00  9.4474013942634394e-01 3.2782017777539596e-01 0.0000000000000000e+00  9.3123946881237418e-01 3.6440780963921066e-01 0.0000000000000000e+00  9.3036950315221778e-01 3.6662322294734057e-01 0.0000000000000000e+00  9.0611580722792817e-01 4.2302971986809640e-01 0.0000000000000000e+00  8.5827247197473733e-01 5.1319427495868819e-01 0.0000000000000000e+00  8.6311343684523378e-01 5.0501009409437414e-01 0.0000000000000000e+00  8.7213229247461488e-01 4.8927013440733613e-01 0.0000000000000000e+00  8.4624753563540045e-01 5.3278992898797528e-01 0.0000000000000000e+00  8.2356692470658788e-01 5.6721911156918303e-01 0.0000000000000000e+00  7.9690120685568366e-01 6.0410964775606346e-01 0.0000000000000000e+00  7.7039426221269525e-01 6.3756778521954582e-01 0.0000000000000000e+00  7.2885515888198971e-01 6.8466791758567858e-01 0.0000000000000000e+00  6.8064070160543699e-01 7.3261738671564336e-01 0.0000000000000000e+00  6.5455953238748921e-01 7.5601046193863708e-01 0.0000000000000000e+00  6.1381241614792492e-01 7.8945190973399182e-01 0.0000000000000000e+00  5.5546040342365244e-01 8.3154298760102185e-01 0.0000000000000000e+00  5.0040888006145789e-01 8.6578920803832926e-01 0.0000000000000000e+00  4.3810402790500141e-01 8.9892427975520472e-01 0.0000000000000000e+00  3.7659511837754533e-01 9.2637795570393544e-01 0.0000000000000000e+00  3.0277015127845869e-01 9.5306360516747224e-01 0.0000000000000000e+00  2.2069669208166831e-01 9.7534248861833617e-01 0.0000000000000000e+00  1.5415933754926323e-01 9.8804600026839451e-01 0.0000000000000000e+00  7.8343328611617274e-02 9.9692643803946346e-01 0.0000000000000000e+00  -7.3657820659707007e-03 9.9997287225932119e-01 0.0000000000000000e+00  -8.9451637136845508e-02 9.9599116693549961e-01 0.0000000000000000e+00  -1.7135450981031344e-01 9.8520943558599106e-01 0.0000000000000000e+00  -2.5854352975849587e-01 9.6599960829185516e-01 0.0000000000000000e+00  -3.3112294819961907e-01 9.4358761817628378e-01 0.0000000000000000e+00  -3.9258402046213675e-01 9.1971614473041874e-01 0.0000000000000000e+00  -4.7466715733456732e-01 8.8016537636282943e-01 0.0000000000000000e+00  -5.4693417847789472e-01 8.3717561145360087e-01 0.0000000000000000e+00  -6.0299741057483724e-01 7.9774314339895214e-01 0.0000000000000000e+00  -6.5889318144642994e-01 7.5223651562749994e-01 0.0000000000000000e+00  -7.0421908080815510e-01 7.0998273656879651e-01 0.0000000000000000e+00  -7.5954236028754052e-01 6.5045784100803339e-01 0.0000000000000000e+00  -7.8055206941187016e-01 6.2509076695856503e-01 0.0000000000000000e+00  -7.7589510016911534e-01 6.3086194490835990e-01 0.0000000000000000e+00  -8.2736036070484131e-01 5.6167146405559432e-01 0.0000000000000000e+00  -8.7022530393757180e-01 4.9265395602467327e-01 0.0000000000000000e+00  -8.8283165167807620e-01 4.6968955150754632e-01 0.0000000000000000e+00  -9.0444947178947288e-01 4.2658076958501479e-01 0.0000000000000000e+00  -9.0986494680217700e-01 4.1490454152813488e-01 0.0000000000000000e+00  -9.4557829330869980e-01 3.2539466993699556e-01 0.0000000000000000e+00  -9.5880699902287669e-01 2.8405833665771069e-01 0.0000000000000000e+00  -8.5368921257228392e-01 5.2078280341973071e-01 0.0000000000000000e+00  -8.6447442754248360e-01 5.0267679887288941e-01 0.0000000000000000e+00  -9.4066199620870672e-01 3.3934497033056377e-01 0.0000000000000000e+00  -9.4241547664243375e-01 3.3444441897692723e-01 0.0000000000000000e+00  -9.2159635604269163e-01 3.8814965738595270e-01 0.0000000000000000e+00  -9.5304895732793871e-01 3.0281625606319229e-01 0.0000000000000000e+00  -4.3406970620495294e-01 9.0087928722728761e-01 0.0000000000000000e+00  -2.5147085652081069e-01 9.6786487089918172e-01 0.0000000000000000e+00  -9.9581193023535608e-01 9.1425377226098545e-02 0.0000000000000000e+00  -9.9931113546668771e-01 -3.7111380091280260e-02 0.0000000000000000e+00  -9.9790504698360971e-01 6.4695573300185480e-02 0.0000000000000000e+00  -1.3369931184087944e-01 -9.9102194426424062e-01 0.0000000000000000e+00  -6.6166573382635777e-02 -9.9780859114701959e-01 0.0000000000000000e+00  -6.5194979594633429e-01 -7.5826213380699237e-01 0.0000000000000000e+00  -4.2983693771089732e-01 -9.0290653280354449e-01 0.0000000000000000e+00  7.0973544691276313e-01 -7.0446830687798889e-01 0.0000000000000000e+00  3.5867679640935229e-01 9.3346181267233641e-01 0.0000000000000000e+00  -9.5067945528854103e-01 3.1017506877936318e-01 0.0000000000000000e+00  -9.9649758700432867e-01 8.3621522914560556e-02 0.0000000000000000e+00  -9.7349160544412627e-01 2.2872274510817128e-01 0.0000000000000000e+00  -9.9812506486701102e-01 6.1207474087933783e-02 0.0000000000000000e+00  -9.8755939409936966e-01 -1.5724644074218608e-01 0.0000000000000000e+00  -9.9894172527862646e-01 -4.5993798466330248e-02 0.0000000000000000e+00  -9.5722362408398254e-01 -2.8934915499362757e-01 0.0000000000000000e+00  3.7673905312600675e-01 -9.2631942970539050e-01 0.0000000000000000e+00  7.0782061193871360e-01 7.0639222908714450e-01 0.0000000000000000e+00  -4.2403328434743420e-01 9.0564660534091768e-01 0.0000000000000000e+00  -6.1774620956860904e-01 7.8637753055616766e-01 0.0000000000000000e+00  -9.9843453223261713e-01 5.5932860157828113e-02 0.0000000000000000e+00  -9.9965182827878363e-01 -2.6386023172984944e-02 0.0000000000000000e+00  -9.9999661463709544e-01 -2.6020596358323038e-03 0.0000000000000000e+00  -9.9638994617436283e-01 8.4894494301162859e-02 0.0000000000000000e+00  -9.9999840731763412e-01 1.7847583015979237e-03 0.0000000000000000e+00  -9.5673216693998653e-01 2.9097003409684213e-01 0.0000000000000000e+00  -8.9965347348227576e-01 4.3660465830230927e-01 0.0000000000000000e+00  -9.7034872126122229e-01 -2.4170924505841881e-01 0.0000000000000000e+00  -9.4422728236833642e-01 -3.2929445672726693e-01 0.0000000000000000e+00  -9.6120714745919011e-01 -2.7582751797702648e-01 0.0000000000000000e+00  -9.5757741836802723e-01 -2.8817614028858124e-01 0.0000000000000000e+00  -8.8152856730179385e-01 -4.7213068638973993e-01 0.0000000000000000e+00  -8.9101995317631633e-01 -4.5396414290302167e-01 0.0000000000000000e+00  -9.8211249959775759e-01 -1.8829508260664832e-01 0.0000000000000000e+00  -9.6391096022709588e-01 -2.6622483121241342e-01 0.0000000000000000e+00  -9.3450695176791632e-01 -3.5594487929655244e-01 0.0000000000000000e+00  -9.3094098260073288e-01 -3.6516966866702094e-01 0.0000000000000000e+00  -9.1136955513295059e-01 -4.1158903529706387e-01 0.0000000000000000e+00  -8.9531222914194075e-01 -4.4543912305598965e-01 0.0000000000000000e+00  -8.5391259980070822e-01 -5.2041644084482541e-01 0.0000000000000000e+00  -8.3461843054307883e-01 -5.5082853538810772e-01 0.0000000000000000e+00  -8.5168269518782003e-01 -5.2405780856467632e-01 0.0000000000000000e+00  -8.1241052693424343e-01 -5.8308587337237450e-01 0.0000000000000000e+00  -7.5705349042539194e-01 -6.5335290053288264e-01 0.0000000000000000e+00  -7.1924897614719885e-01 -6.9475240935977045e-01 0.0000000000000000e+00  -6.6605215773017556e-01 -7.4590517036884607e-01 0.0000000000000000e+00  -6.1735033367050995e-01 -7.8668835349006527e-01 0.0000000000000000e+00  -5.4468542912495299e-01 -8.3864043743368699e-01 0.0000000000000000e+00  -4.5773324128492754e-01 -8.8908957918918063e-01 0.0000000000000000e+00  -4.0423428234183345e-01 -9.1465547884412901e-01 0.0000000000000000e+00  -3.3489528642889782e-01 -9.4225535133938421e-01 0.0000000000000000e+00  -2.4172237984663958e-01 -9.7034544935361911e-01 0.0000000000000000e+00  -1.5485980913009478e-01 -9.8793645520154316e-01 0.0000000000000000e+00  -6.4149618785610985e-02 -9.9794029200632073e-01 0.0000000000000000e+00  2.6956186682566035e-02 -9.9963661597579279e-01 0.0000000000000000e+00  1.1806577154701549e-01 -9.9300577721834427e-01 0.0000000000000000e+00  2.0700600935158517e-01 -9.7833967112262776e-01 0.0000000000000000e+00  2.9126335825238409e-01 -9.5664290941789942e-01 0.0000000000000000e+00  3.7138480845538774e-01 -9.2847903802323672e-01 0.0000000000000000e+00  4.4739320644191072e-01 -8.9433736298425215e-01 0.0000000000000000e+00  5.1816645700650210e-01 -8.5527979213432181e-01 0.0000000000000000e+00  5.7957469353769253e-01 -8.1491912151494506e-01 0.0000000000000000e+00  6.4747594925722052e-01 -7.6208588435520908e-01 0.0000000000000000e+00  6.8623913936001568e-01 -7.2737599878633963e-01 0.0000000000000000e+00  7.0296579148894522e-01 -7.1122366102114520e-01 0.0000000000000000e+00  7.6082270533168073e-01 -6.4895979155243699e-01 0.0000000000000000e+00  8.0858980092015320e-01 -5.8837278476141885e-01 0.0000000000000000e+00  8.3244959852405143e-01 -5.5410077234844701e-01 0.0000000000000000e+00  8.5791533871517123e-01 -5.1379107777114330e-01 0.0000000000000000e+00  8.7942904409751732e-01 -4.7602999527101969e-01 0.0000000000000000e+00  9.0207432548260125e-01 -4.3158071238774098e-01 0.0000000000000000e+00  8.9868550173769080e-01 -4.3859362622645903e-01 0.0000000000000000e+00  8.9742955153821113e-01 -4.4115779492821533e-01 0.0000000000000000e+00  9.3321052576629793e-01 -3.5933009141872568e-01 0.0000000000000000e+00  9.5253144464761741e-01 -3.0444021902094837e-01 0.0000000000000000e+00  9.5447805974950151e-01 -2.9828113158030450e-01 0.0000000000000000e+00  9.6508552050385366e-01 -2.6193498833452139e-01 0.0000000000000000e+00  9.6193166969916610e-01 -2.7329007085837248e-01 0.0000000000000000e+00  9.8664312840784663e-01 -1.6289670704338177e-01 0.0000000000000000e+00  9.5863799225532775e-01 -2.8462817816350178e-01 0.0000000000000000e+00  7.4640090539708537e-01 -6.6549657281041752e-01 0.0000000000000000e+00  8.6086321579018388e-01 -5.0883644100966596e-01 0.0000000000000000e+00  9.7648800140716518e-01 -2.1557175860450753e-01 0.0000000000000000e+00  9.7160443097090810e-01 -2.3661113608133047e-01 0.0000000000000000e+00  9.8732388960300965e-01 -1.5871842054148588e-01 0.0000000000000000e+00  9.6258481752815739e-01 -2.7098056953273214e-01 0.0000000000000000e+00  9.9754133989556681e-01 -7.0080490861275629e-02 0.0000000000000000e+00  8.6163193662797455e-01 5.0753364990188177e-01 0.0000000000000000e+00  2.8747604252104203e-01 9.5778782878904867e-01 0.0000000000000000e+00  6.3029596448885983e-01 7.7635494276075689e-01 0.0000000000000000e+00  2.9499292404972421e-01 9.5549943734185083e-01 0.0000000000000000e+00  4.4730585089613289e-01 8.9438105735423890e-01 0.0000000000000000e+00  8.5709353747686656e-01 -5.1516081762435217e-01 0.0000000000000000e+00  7.9280623845543519e-01 -6.0947376339440862e-01 0.0000000000000000e+00  6.9548609693654284e-01 -7.1853955282084070e-01 0.0000000000000000e+00  7.7799766694724237e-01 -6.2826716468764132e-01 0.0000000000000000e+00  0.0000000000000000e+00 0.0000000000000000e+00 0.0000000000000000e+00  0.0000000000000000e+00 0.0000000000000000e+00 0.0000000000000000e+00  0.0000000000000000e+00 0.0000000000000000e+00 0.0000000000000000e+00  0.0000000000000000e+00 0.0000000000000000e+00 0.0000000000000000e+00  0.0000000000000000e+00 0.0000000000000000e+00 0.0000000000000000e+00  0.0000000000000000e+00 0.0000000000000000e+00 0.0000000000000000e+00  0.0000000000000000e+00 0.0000000000000000e+00 0.0000000000000000e+00  0.0000000000000000e+00 0.0000000000000000e+00 0.0000000000000000e+00  0.0000000000000000e+00 0.0000000000000000e+00 0.0000000000000000e+00  0.0000000000000000e+00 0.0000000000000000e+00 0.0000000000000000e+00  0.0000000000000000e+00 0.0000000000000000e+00 0.0000000000000000e+00  0.0000000000000000e+00 0.0000000000000000e+00 0.0000000000000000e+00  0.0000000000000000e+00 0.0000000000000000e+00 0.0000000000000000e+00  0.0000000000000000e+00 0.0000000000000000e+00 0.0000000000000000e+00  0.0000000000000000e+00 0.0000000000000000e+00 0.0000000000000000e+00  0.0000000000000000e+00 0.0000000000000000e+00 0.0000000000000000e+00  0.0000000000000000e+00 0.0000000000000000e+00 0.0000000000000000e+00  0.0000000000000000e+00 0.0000000000000000e+00 0.0000000000000000e+00  0.0000000000000000e+00 0.0000000000000000e+00 0.0000000000000000e+00  0.0000000000000000e+00 0.0000000000000000e+00 0.0000000000000000e+00  0.0000000000000000e+00 0.0000000000000000e+00 0.0000000000000000e+00  0.0000000000000000e+00 0.0000000000000000e+00 0.0000000000000000e+00  0.0000000000000000e+00 0.0000000000000000e+00 0.0000000000000000e+00  0.0000000000000000e+00 0.0000000000000000e+00 0.0000000000000000e+00  0.0000000000000000e+00 0.0000000000000000e+00 0.0000000000000000e+00  0.0000000000000000e+00 0.0000000000000000e+00 0.0000000000000000e+00  0.0000000000000000e+00 0.0000000000000000e+00 0.0000000000000000e+00  0.0000000000000000e+00 0.0000000000000000e+00 0.0000000000000000e+00  0.0000000000000000e+00 0.0000000000000000e+00 0.0000000000000000e+00  0.0000000000000000e+00 0.0000000000000000e+00 0.0000000000000000e+00  0.0000000000000000e+00 0.0000000000000000e+00 0.0000000000000000e+00  0.0000000000000000e+00 0.0000000000000000e+00 0.0000000000000000e+00  0.0000000000000000e+00 0.0000000000000000e+00 0.0000000000000000e+00  0.0000000000000000e+00 0.0000000000000000e+00 0.0000000000000000e+00  0.0000000000000000e+00 0.0000000000000000e+00 0.0000000000000000e+00  0.0000000000000000e+00 0.0000000000000000e+00 0.0000000000000000e+00  0.0000000000000000e+00 0.0000000000000000e+00 0.0000000000000000e+00  0.0000000000000000e+00 0.0000000000000000e+00 0.0000000000000000e+00  0.0000000000000000e+00 0.0000000000000000e+00 0.0000000000000000e+00  0.0000000000000000e+00 0.0000000000000000e+00 0.0000000000000000e+00  0.0000000000000000e+00 0.0000000000000000e+00 0.0000000000000000e+00  0.0000000000000000e+00 0.0000000000000000e+00 0.0000000000000000e+00  0.0000000000000000e+00 0.0000000000000000e+00 0.0000000000000000e+00  0.0000000000000000e+00 0.0000000000000000e+00 0.0000000000000000e+00  0.0000000000000000e+00 0.0000000000000000e+00 0.0000000000000000e+00  0.0000000000000000e+00 0.0000000000000000e+00 0.0000000000000000e+00  0.0000000000000000e+00 0.0000000000000000e+00 0.0000000000000000e+00  0.0000000000000000e+00 0.0000000000000000e+00 0.0000000000000000e+00  0.0000000000000000e+00 0.0000000000000000e+00 0.0000000000000000e+00  0.0000000000000000e+00 0.0000000000000000e+00 0.0000000000000000e+00  0.0000000000000000e+00 0.0000000000000000e+00 0.0000000000000000e+00  0.0000000000000000e+00 0.0000000000000000e+00 0.0000000000000000e+00  0.0000000000000000e+00 0.0000000000000000e+00 0.0000000000000000e+00  0.0000000000000000e+00 0.0000000000000000e+00 0.0000000000000000e+00  0.0000000000000000e+00 0.0000000000000000e+00 0.0000000000000000e+00  0.0000000000000000e+00 0.0000000000000000e+00 0.0000000000000000e+00  0.0000000000000000e+00 0.0000000000000000e+00 0.0000000000000000e+00  0.0000000000000000e+00 0.0000000000000000e+00 0.0000000000000000e+00  0.0000000000000000e+00 0.0000000000000000e+00 0.0000000000000000e+00  0.0000000000000000e+00 0.0000000000000000e+00 0.0000000000000000e+00  0.0000000000000000e+00 0.0000000000000000e+00 0.0000000000000000e+00  0.0000000000000000e+00 0.0000000000000000e+00 0.0000000000000000e+00  0.0000000000000000e+00 0.0000000000000000e+00 0.0000000000000000e+00  0.0000000000000000e+00 0.0000000000000000e+00 0.0000000000000000e+00  0.0000000000000000e+00 0.0000000000000000e+00 0.0000000000000000e+00  0.0000000000000000e+00 0.0000000000000000e+00 0.0000000000000000e+00  0.0000000000000000e+00 0.0000000000000000e+00 0.0000000000000000e+00  0.0000000000000000e+00 0.0000000000000000e+00 0.0000000000000000e+00  0.0000000000000000e+00 0.0000000000000000e+00 0.0000000000000000e+00  0.0000000000000000e+00 0.0000000000000000e+00 0.0000000000000000e+00  0.0000000000000000e+00 0.0000000000000000e+00 0.0000000000000000e+00  0.0000000000000000e+00 0.0000000000000000e+00 0.0000000000000000e+00  0.0000000000000000e+00 0.0000000000000000e+00 0.0000000000000000e+00  0.0000000000000000e+00 0.0000000000000000e+00 0.0000000000000000e+00  0.0000000000000000e+00 0.0000000000000000e+00 0.0000000000000000e+00  0.0000000000000000e+00 0.0000000000000000e+00 0.0000000000000000e+00  0.0000000000000000e+00 0.0000000000000000e+00 0.0000000000000000e+00  0.0000000000000000e+00 0.0000000000000000e+00 0.0000000000000000e+00  0.0000000000000000e+00 0.0000000000000000e+00 0.0000000000000000e+00  0.0000000000000000e+00 0.0000000000000000e+00 0.0000000000000000e+00  0.0000000000000000e+00 0.0000000000000000e+00 0.0000000000000000e+00  0.0000000000000000e+00 0.0000000000000000e+00 0.0000000000000000e+00  0.0000000000000000e+00 0.0000000000000000e+00 0.0000000000000000e+00  0.0000000000000000e+00 0.0000000000000000e+00 0.0000000000000000e+00  0.0000000000000000e+00 0.0000000000000000e+00 0.0000000000000000e+00  0.0000000000000000e+00 0.0000000000000000e+00 0.0000000000000000e+00  0.0000000000000000e+00 0.0000000000000000e+00 0.0000000000000000e+00  0.0000000000000000e+00 0.0000000000000000e+00 0.0000000000000000e+00  0.0000000000000000e+00 0.0000000000000000e+00 0.0000000000000000e+00  0.0000000000000000e+00 0.0000000000000000e+00 0.0000000000000000e+00  0.0000000000000000e+00 0.0000000000000000e+00 0.0000000000000000e+00  0.0000000000000000e+00 0.0000000000000000e+00 0.0000000000000000e+00  0.0000000000000000e+00 0.0000000000000000e+00 0.0000000000000000e+00  0.0000000000000000e+00 0.0000000000000000e+00 0.0000000000000000e+00  0.0000000000000000e+00 0.0000000000000000e+00 0.0000000000000000e+00  0.0000000000000000e+00 0.0000000000000000e+00 0.0000000000000000e+00  0.0000000000000000e+00 0.0000000000000000e+00 0.0000000000000000e+00  0.0000000000000000e+00 0.0000000000000000e+00 0.0000000000000000e+00  0.0000000000000000e+00 0.0000000000000000e+00 0.0000000000000000e+00  0.0000000000000000e+00 0.0000000000000000e+00 0.0000000000000000e+00  0.0000000000000000e+00 0.0000000000000000e+00 0.0000000000000000e+00  0.0000000000000000e+00 0.0000000000000000e+00 0.0000000000000000e+00  0.0000000000000000e+00 0.0000000000000000e+00 0.0000000000000000e+00  0.0000000000000000e+00 0.0000000000000000e+00 0.0000000000000000e+00  0.0000000000000000e+00 0.0000000000000000e+00 0.0000000000000000e+00  0.0000000000000000e+00 0.0000000000000000e+00 0.0000000000000000e+00  0.0000000000000000e+00 0.0000000000000000e+00 0.0000000000000000e+00  0.0000000000000000e+00 0.0000000000000000e+00 0.0000000000000000e+00  0.0000000000000000e+00 0.0000000000000000e+00 0.0000000000000000e+00  0.0000000000000000e+00 0.0000000000000000e+00 0.0000000000000000e+00  0.0000000000000000e+00 0.0000000000000000e+00 0.0000000000000000e+00  0.0000000000000000e+00 0.0000000000000000e+00 0.0000000000000000e+00  0.0000000000000000e+00 0.0000000000000000e+00 0.0000000000000000e+00  0.0000000000000000e+00 0.0000000000000000e+00 0.0