<?xml version="1.0"?>
<VTKFile type="UnstructuredGrid"  version="0.1"  >
<UnstructuredGrid>
<Piece  NumberOfPoints="2549" NumberOfCells="4928">
<Points>
<DataArray  type="Float64"  NumberOfComponents="3"  format="ascii">1.460941467495963 0.03831316970967211 0  1.457169618488705 0.06091568836892545 0  1.431562239840151 0.07031010260254886 0  1.423964372232626 0.08523904755582841 0  1.408345648983794 0.09652667195112241 0  1.405620854869513 0.1132215366765333 0  1.39035931992003 0.1293284663386549 0  1.358720287209377 0.1297923703262035 0  1.354197555817504 0.15944908143079 0  1.373632470352012 0.1192501427789774 0  1.349417141667123 0.1800980548280519 0  1.337697858260847 0.2007405010456254 0  1.329821278942256 0.2280739066845452 0  1.32283022794365 0.2587335410501311 0  1.31512320267425 0.2880938403651318 0  1.300858026027212 0.3248688858288601 0  1.273438073130684 0.3380888220981433 0  1.273624789957775 0.350417661237264 0  1.260712699901895 0.4111260267912772 0  1.247339020650666 0.4475532704323899 0  1.233695142304986 0.4942212940458464 0  1.216077385420861 0.5392136438609973 0  1.197183729812823 0.587387319132826 0  1.174152991590894 0.6393037369474379 0  1.148064996664122 0.6915104856449372 0  1.118937008207303 0.7330745257775144 0  1.088735430320324 0.7871387725202238 0  1.056133690496139 0.8425403889858707 0  1.018343308112652 0.8981634896074984 0  0.9770589462856364 0.9546589368805851 0  0.93145791520427 1.010932136695252 0  0.881210861735664 1.067848263636997 0  0.8258031709252854 1.121715265179125 0  0.7676305019128644 1.172737474625938 0  0.7032807535549703 1.225728387227406 0  0.6346726767051342 1.274257333170972 0  0.5610360369943463 1.319569450384981 0  0.4830711510792439 1.36058811865241 0  0.4009458569884553 1.396440773208516 0  0.315182486131732 1.427580789370444 0  0.2258087058113093 1.451094142932826 0  0.1351959991651031 1.467610455428663 0  0.04218822695081362 1.478829699330178 0  -0.05141849336435635 1.481434727825265 0  -0.1449351684845039 1.476752880641786 0  -0.2373990490887039 1.464108359598347 0  -0.3278834386230677 1.444421838861116 0  -0.4156876856386729 1.415996413740241 0  -0.4991246667689155 1.384104681628729 0  -0.5802222135520673 1.345354944536993 0  -0.6559449404972647 1.299322418742389 0  -0.7268965545638444 1.249850125118723 0  -0.7925298849048381 1.196341597938235 0  -0.8533763057918942 1.139669005176842 0  -0.9077119833265183 1.081681670886509 0  -0.9591975416321549 1.018881835229319 0  -1.001777070117744 0.9662565731468069 0  -1.045806482024655 0.909979490054205 0  -1.083531763424076 0.8480277935290329 0  -1.115739173268953 0.7891479892867127 0  -1.145107296711886 0.7327624598242954 0  -1.169220028526347 0.6741056716453019 0  -1.19300785838819 0.6269428086594455 0  -1.215566071339098 0.5573792186307597 0  -1.214863265767684 0.5218615882853375 0  -1.248128168858413 0.499930881287125 0  -1.263628475601843 0.4540048507238609 0  -1.275126761607261 0.4160571165069842 0  -1.286935990968747 0.3801830425969066 0  -1.309077505003529 0.3543867878592638 0  -1.310470145990059 0.3065735379116507 0  -1.312437271024043 0.3393393495580813 0  -1.365139453232264 0.2937974707719344 0  -1.347818005108411 0.2030073313076923 0  -1.350242477571468 0.1785861348201931 0  -1.350463655663538 0.147036389369046 0  -1.361254098841815 0.1288797206065342 0  -1.352326766488096 0.1017003163821286 0  -1.375563791018819 0.1109509071588921 0  -1.328311978346914 0.05142353515034968 0  -1.389708246777249 0.1136045768569201 0  -1.466315861116258 0.1244363613383942 0  -1.436903519538206 0.07749337530797409 0  -1.462324591424552 0.05665366340189647 0  -1.449084062934462 0.03877629668443575 0  -1.457813159579782 0.0247251018224206 0  -1.439973257918732 -0.003322010450013176 0  -1.451922110333817 -0.09992049691870832 0  -1.376659352806487 -0.02435768048202697 0  -1.298385959738595 0.01694004179520254 0  -1.389865682239076 -0.02680226192754812 0  -1.363993544782764 -0.01295759871893071 0  -1.394335686715148 -0.03665118002793698 0  -1.378670417501136 -0.06030869125241987 0  -1.369734620438847 -0.09768670251982439 0  -1.374372428909132 -0.1213675233667397 0  -1.391354937400819 -0.2288295196843153 0  -1.30931768571194 -0.2903323824189949 0  -1.337600182542045 -0.2329320887758003 0  -1.349933105429636 -0.2885661331301768 0  -1.320986257633831 -0.3144971279410848 0  -1.311354425262263 -0.3518936825717733 0  -1.303461691642266 -0.392230036598387 0  -1.291512124732619 -0.4431535526055732 0  -1.249805317971498 -0.4585992552692804 0  -1.260802799111995 -0.495869308382894 0  -1.241072367989155 -0.5768202680141113 0  -1.217644174969161 -0.6251396895907346 0  -1.19732539339474 -0.6900614479429779 0  -1.170070239780117 -0.751311055316925 0  -1.139251816031412 -0.8149662962486114 0  -1.105045164578503 -0.882883567460043 0  -1.05948312030798 -0.9377472509121622 0  -1.024192569080246 -1.003466804844824 0  -0.97053670510342 -1.080464460067727 0  -0.9168972200984068 -1.144815048551603 0  -0.8552755716982019 -1.212254734029764 0  -0.7890025613457655 -1.275259177947194 0  -0.7162839862872012 -1.334578890665322 0  -0.6372605687833248 -1.390867228963772 0  -0.5529023734880579 -1.439337776656653 0  -0.4657314647437706 -1.479246629434076 0  -0.3721861482658949 -1.517038894084178 0  -0.2758496019737136 -1.545199206797231 0  -0.1760845684358767 -1.565037998328772 0  -0.07472133560018061 -1.575700094239682 0  0.02748828545371325 -1.577264256407436 0  0.1293730536526832 -1.569392577265646 0  0.2298467158332561 -1.552529497837957 0  0.3276686289982697 -1.526870965853336 0  0.4222324825605521 -1.493431372351827 0  0.512558384652408 -1.452491664702386 0  0.5979965678933299 -1.405207074688601 0  0.6781020393555041 -1.352037554880926 0  0.7522168446792695 -1.295269688793002 0  0.8209095172526009 -1.231418091612006 0  0.881316174212342 -1.174113361687863 0  0.940484698983845 -1.111899556412377 0  0.9924436411146487 -1.044362452733548 0  1.038704382445203 -0.9787334145736987 0  1.080115731524544 -0.9133419717904886 0  1.117144727671723 -0.8492099039156875 0  1.149248642315341 -0.7862926921018768 0  1.177866498196153 -0.7247937684468694 0  1.204310666004072 -0.6759913920013949 0  1.229437071131924 -0.6178561803396491 0  1.249647943995228 -0.5601220121633933 0  1.266556095284102 -0.5068811003542276 0  1.282208433365169 -0.4574209906903707 0  1.294031918511127 -0.4064375626538653 0  1.307246413620426 -0.3672815280728099 0  1.312054043778957 -0.3008710942184838 0  1.315999596847581 -0.2901631288374693 0  1.339845044378477 -0.2700535309645511 0  1.347005469785408 -0.231008609359106 0  1.35509723227112 -0.1992488334146128 0  1.362482783857274 -0.1684951576004302 0  1.366312070727785 -0.1350178604435862 0  1.374139279015516 -0.1155609433681725 0  1.33253287529736 -0.06809326313032812 0  1.368970065273248 -0.07963399127110998 0  1.390802004423433 -0.07982202674169118 0  1.396061125608852 -0.05351308778134126 0  1.410165630202011 -0.03888630541138498 0  1.416166764488001 -0.02087646764536358 0  1.426120924056346 -0.008214198181185099 0  1.435701421026756 0.006128244032314331 0  1.453669216899178 0.01863368480046313 0  -0.09292004842797308 0.9020066431642946 0  0.6840221912856375 -0.5149741955782465 0  -0.7984305038897324 -0.3826306950747094 0  -0.08152704028599618 -0.9624926729259828 0  0.6461614790866125 0.5002338975580012 0  1.073769246455312 0.1129674027104585 0  -0.7832678578388749 0.4123979593047112 0  -1.138115126175899 0.0355614439574626 0  1.08637539865907 -0.06457179963633862 0  -1.024508109531159 -0.1677928260423459 0  -0.7202562589822398 0.01929594852438907 0  -0.4309020321934403 -0.1402402336558077 0  -1.012155836388777 0.2158561160865381 0  0.3777883274530934 -0.8487848664825145 0  0.08178416891727879 -0.322534268163059 0  0.308076545242245 0.7810829446713343 0  0.221572392576295 0.1884351913810026 0  0.5547667062293046 0.0127585437552855 0  -0.4843542789621552 -0.7054686188791904 0  -0.4977672911050967 0.7052582353961647 0  -0.2356922574759476 0.3177862168951847 0  0.9070332591972607 -0.2148594147169981 0  0.8844154731116119 0.2445397115229596 0  0.3487520585194236 -0.229230820737427 0  -0.008248087206671001 0.2452956138437143 0  -0.4822098873288705 0.217437139026816 0  -0.1864795744010891 -0.2876385097705734 0  0.8498714392639672 0.01935816475433372 0  1.233845107155031 0.03037334977412507 0  0.7958712781630246 -0.3451788598667408 0  0.7089561536900336 -0.1122346934531812 0  0.5778898157776714 -0.2170799488146794 0  0.4365740316384927 -0.08563520258094097 0  0.5069585811914561 -0.3844457440351778 0  0.8522706676998185 -0.08585519356291951 0  0.704145548853543 0.01597703785941681 0  -0.8450014961268832 0.1286437850864659 0  -1.055817079615831 0.1071992515557087 0  -0.9337166174414425 0.02908624901866813 0  -0.852935788123425 -0.08348381092453154 0  -1.060617187140258 -0.04507821236434334 0  -1.224714223159815 -0.07415538795757901 0  -1.289652405922134 0.01083462484986378 0  -1.283715904808159 0.06878526420357989 0  -1.209956847590958 0.1478725292399325 0  -0.1345002193858787 -0.6281262831403086 0  -0.302355652933506 -0.5148572674114361 0  -0.297249270618447 -0.8572503733454654 0  -0.3039678152836419 -0.2063501884467542 0  -0.4485209710883712 -0.4079631107672435 0  -1.216383248951158 -0.1895700303257727 0  -1.194974605167056 0.2519789358665769 0  0.3760633860163191 -0.5205467294535711 0  0.2137164743540492 -0.2626285495078818 0  0.2357507024847883 -0.5811526679208291 0  -0.8978867814370144 0.2981690553507632 0  -0.7148474973607812 0.1971964322762067 0  1.256608313947165 -0.07843727357092727 0  1.195273258798348 -0.1744516406254158 0  1.170234324900477 0.2235935048696676 0  1.240961272695177 0.1369562427045229 0  -0.9129680427165462 -0.6484083286346763 0  -1.038005025752216 -0.4377069743745311 0  -1.009274997830913 0.4811520342209378 0  -0.8790633826445687 0.6708411311934519 0  0.9386462790248272 -0.60722426410513 0  0.776715445523911 -0.8307230974031249 0  0.7347850671640734 0.7952087133592309 0  0.8969338883305351 0.6055828867151353 0  0.04031
[...]
<PointData  Vectors="PointNormal"> 
<DataArray  type="Float64"  Name="PointNormal"  NumberOfComponents="3" format="ascii">9.9555625723552021e-01 -9.4168671431653972e-02 0.0000000000000000e+00  7.6980174989013328e-01 6.3828306092680287e-01 0.0000000000000000e+00  6.6375062525861928e-01 7.4795394742510179e-01 0.0000000000000000e+00  7.5973919994317751e-01 6.5022792009394714e-01 0.0000000000000000e+00  8.5074679041198253e-01 5.2557577817447998e-01 0.0000000000000000e+00  4.4405529572215557e-01 -8.9599938300263848e-01 0.0000000000000000e+00  -4.0181838272591897e-01 -9.1571938240026729e-01 0.0000000000000000e+00  -6.5717185705888082e-01 -7.5374077128000838e-01 0.0000000000000000e+00  -2.9631867204785783e-01 9.5508912913706323e-01 0.0000000000000000e+00  9.1530053821841417e-01 4.0277155403166348e-01 0.0000000000000000e+00  9.0150957152817413e-01 4.3275916217116406e-01 0.0000000000000000e+00  9.2166015411590929e-01 3.8799814473143845e-01 0.0000000000000000e+00  9.6832161651573256e-01 2.4970632148257399e-01 0.0000000000000000e+00  9.7123150989312901e-01 2.3813725914000297e-01 0.0000000000000000e+00  9.5129982677687908e-01 3.0826715617185019e-01 0.0000000000000000e+00  7.3455097483636211e-01 6.7855350958266369e-01 0.0000000000000000e+00  8.5084639623573977e-01 5.2541451256379890e-01 0.0000000000000000e+00  9.9527863092104141e-01 9.7058986353337415e-02 0.0000000000000000e+00  9.6085838994388617e-01 2.7703998713984024e-01 0.0000000000000000e+00  9.4981731615123521e-01 3.1280515651003038e-01 0.0000000000000000e+00  9.4642190581032337e-01 3.2293277350302402e-01 0.0000000000000000e+00  9.3105905166566760e-01 3.6486852743341369e-01 0.0000000000000000e+00  9.2274778818001146e-01 3.8540435831590797e-01 0.0000000000000000e+00  9.0455120794403199e-01 4.2636499880617845e-01 0.0000000000000000e+00  8.5907500761143341e-01 5.1184971553905900e-01 0.0000000000000000e+00  8.4706879783131361e-01 5.3148325631257021e-01 0.0000000000000000e+00  8.6748794383964045e-01 4.9745820657907819e-01 0.0000000000000000e+00  8.4494734226771306e-01 5.3484950106990670e-01 0.0000000000000000e+00  8.1739685796649453e-01 5.7607497479625203e-01 0.0000000000000000e+00  7.9241059692206484e-01 6.0998807028139235e-01 0.0000000000000000e+00  7.6346631992592473e-01 6.4584764328653044e-01 0.0000000000000000e+00  7.2389085343319293e-01 6.8991451087490796e-01 0.0000000000000000e+00  6.7845238279396758e-01 7.3464437946613836e-01 0.0000000000000000e+00  6.4761662844733847e-01 7.6196633951802750e-01 0.0000000000000000e+00  6.0698757250772883e-01 7.9471132294763147e-01 0.0000000000000000e+00  5.5105682714019966e-01 8.3446771852611290e-01 0.0000000000000000e+00  4.9512197132353486e-01 8.6882347661230752e-01 0.0000000000000000e+00  4.3313851993125185e-01 9.0132736702696681e-01 0.0000000000000000e+00  3.7087956912580494e-01 9.2868097062718857e-01 0.0000000000000000e+00  2.9817042827827483e-01 9.5451264826630255e-01 0.0000000000000000e+00  2.1703626630229716e-01 9.7616354117000204e-01 0.0000000000000000e+00  1.4960687776001666e-01 9.8874555985192647e-01 0.0000000000000000e+00  7.3867285954703821e-02 9.9726808034032954e-01 0.0000000000000000e+00  -1.1099880384092896e-02 9.9993839443010624e-01 0.0000000000000000e+00  -9.2831373411180140e-02 9.9568184482323163e-01 0.0000000000000000e+00  -1.7417581172486457e-01 9.8471457113723293e-01 0.0000000000000000e+00  -2.6061487798726823e-01 9.6544284417653703e-01 0.0000000000000000e+00  -3.3262842975316198e-01 9.4305796625655303e-01 0.0000000000000000e+00  -3.9440194856066396e-01 9.1893802999525021e-01 0.0000000000000000e+00  -4.7589308466878588e-01 8.7950313925785839e-01 0.0000000000000000e+00  -5.4597494152061299e-01 8.3780150586613489e-01 0.0000000000000000e+00  -6.0234437642871042e-01 7.9823633855187781e-01 0.0000000000000000e+00  -6.5707971590150283e-01 7.5382109744341874e-01 0.0000000000000000e+00  -7.0604447566317041e-01 7.0816749317200289e-01 0.0000000000000000e+00  -7.5193139494533046e-01 6.5924136497611374e-01 0.0000000000000000e+00  -7.7537047662302316e-01 6.3150663019590381e-01 0.0000000000000000e+00  -7.8252607965188270e-01 6.2261780786021170e-01 0.0000000000000000e+00  -8.2225485607786175e-01 5.6911945288873655e-01 0.0000000000000000e+00  -8.6594701003775665e-01 5.0013575737660410e-01 0.0000000000000000e+00  -8.8216259399623076e-01 4.7094496255278223e-01 0.0000000000000000e+00  -9.0682639049298153e-01 4.2150432679329725e-01 0.0000000000000000e+00  -9.0955566413105515e-01 4.1558211444564735e-01 0.0000000000000000e+00  -9.2477122425565084e-01 3.8052356403868715e-01 0.0000000000000000e+00  -9.8922977965142711e-01 1.4637090916841661e-01 0.0000000000000000e+00  -8.8510725051065553e-01 4.6538710241418130e-01 0.0000000000000000e+00  -7.9200208000074324e-01 6.1051839061120527e-01 0.0000000000000000e+00  -9.5237765173589894e-01 3.0492098726393818e-01 0.0000000000000000e+00  -9.5351262529383685e-01 3.0135307100684289e-01 0.0000000000000000e+00  -8.7095216608621706e-01 4.9136780968000598e-01 0.0000000000000000e+00  -9.3261191339960103e-01 3.6088089307295684e-01 0.0000000000000000e+00  -1.5422131171377399e-02 9.9988107186311548e-01 0.0000000000000000e+00  3.8858388962050017e-01 9.2141334954916021e-01 0.0000000000000000e+00  -9.4447073720103525e-01 3.2859553644401945e-01 0.0000000000000000e+00  -9.9899738902900226e-01 -4.4768479014105529e-02 0.0000000000000000e+00  -9.9859679591798212e-01 5.2956955939140134e-02 0.0000000000000000e+00  -2.6828539856381023e-01 -9.6333947542777343e-01 0.0000000000000000e+00  -1.0921046727332027e-01 -9.9401864863690714e-01 0.0000000000000000e+00  -7.2851505715974929e-01 -6.8502978876215825e-01 0.0000000000000000e+00  -5.9668302385711047e-01 -8.0247702088018380e-01 0.0000000000000000e+00  -6.6313032532906391e-01 7.4850395565352223e-01 0.0000000000000000e+00  4.4941042168719619e-01 8.9332540145175343e-01 0.0000000000000000e+00  -8.3877279293824569e-01 5.4448158997947282e-01 0.0000000000000000e+00  -9.8687494178833846e-01 1.6148637487498288e-01 0.0000000000000000e+00  -9.9240622305973436e-01 1.2300361146044754e-01 0.0000000000000000e+00  -9.9916799210398854e-01 -4.0783863903314017e-02 0.0000000000000000e+00  -9.9998586983126614e-01 -5.3160265053886126e-03 0.0000000000000000e+00  -9.7551970080302386e-01 -2.1991205820777288e-01 0.0000000000000000e+00  -4.3788053052254750e-01 -8.9903317012738304e-01 0.0000000000000000e+00  5.9433517170949202e-01 -8.0421744800088035e-01 0.0000000000000000e+00  8.9348129518151509e-01 4.4910040654709094e-01 0.0000000000000000e+00  -4.5171477517316350e-01 8.9216240779930778e-01 0.0000000000000000e+00  -5.4564602061359135e-01 8.3801576368738562e-01 0.0000000000000000e+00  -9.8699196953346169e-01 1.6076956203354623e-01 0.0000000000000000e+00  -9.1721175736592353e-01 -3.9840004034853493e-01 0.0000000000000000e+00  -9.9978718280286449e-01 -2.0629811029474417e-02 0.0000000000000000e+00  -9.8471476547663350e-01 1.7417471301052453e-01 0.0000000000000000e+00  -9.2665670578777215e-01 -3.7590869851408643e-01 0.0000000000000000e+00  -7.6955626772723340e-01 -6.3857900905191878e-01 0.0000000000000000e+00  -9.9282908153443095e-01 -1.1954252322708536e-01 0.0000000000000000e+00  -9.5200553200477422e-01 -3.0608081781174523e-01 0.0000000000000000e+00  -8.5450995383497907e-01 -5.1943501883964471e-01 0.0000000000000000e+00  -9.7531437948265454e-01 -2.2082088029523975e-01 0.0000000000000000e+00  -9.7764164293165445e-01 -2.1027795416042883e-01 0.0000000000000000e+00  -7.4962423874732165e-01 -6.6186365717003881e-01 0.0000000000000000e+00  -8.9400434510518900e-01 -4.4805828965999717e-01 0.0000000000000000e+00  -9.9971367868044958e-01 2.3928239784879998e-02 0.0000000000000000e+00  -9.4098497645156598e-01 -3.3844833297335930e-01 0.0000000000000000e+00  -9.2962973544587324e-01 -3.6849498636322842e-01 0.0000000000000000e+00  -9.3554555487845203e-01 -3.5320605140225059e-01 0.0000000000000000e+00  -9.0696280121809580e-01 -4.2121072779147606e-01 0.0000000000000000e+00  -8.9661806827999457e-01 -4.4280474210858567e-01 0.0000000000000000e+00  -8.3657105314076319e-01 -5.4785844252594518e-01 0.0000000000000000e+00  -8.2931334193679263e-01 -5.5878384093102462e-01 0.0000000000000000e+00  -8.5215665827965259e-01 -5.2328675671151414e-01 0.0000000000000000e+00  -7.9503085330116829e-01 -6.0656899220057092e-01 0.0000000000000000e+00  -7.5338094285043811e-01 -6.5758433295645424e-01 0.0000000000000000e+00  -7.1406228107199587e-01 -7.0008217999764699e-01 0.0000000000000000e+00  -6.6103234133572197e-01 -7.5035741064389683e-01 0.0000000000000000e+00  -6.0645947805416700e-01 -7.9511439521509553e-01 0.0000000000000000e+00  -5.3982220181293628e-01 -8.4177906271766678e-01 0.0000000000000000e+00  -4.5772046133568167e-01 -8.8909615862101810e-01 0.0000000000000000e+00  -3.9553015301918187e-01 -9.1845299174896400e-01 0.0000000000000000e+00  -3.2798429239637900e-01 -9.4468317648894673e-01 0.0000000000000000e+00  -2.3803437427156451e-01 -9.7125673056362638e-01 0.0000000000000000e+00  -1.4998002495852955e-01 -9.8868902700163452e-01 0.0000000000000000e+00  -6.0015867045251123e-02 -9.9819742320986127e-01 0.0000000000000000e+00  3.0897656648837674e-02 -9.9952255342919127e-01 0.0000000000000000e+00  1.2139655422884831e-01 -9.9260408855764959e-01 0.0000000000000000e+00  2.0983174397796769e-01 -9.7773751038771373e-01 0.0000000000000000e+00  2.9380735049822049e-01 -9.5586465610630034e-01 0.0000000000000000e+00  3.7344695298320824e-01 -9.2765153657370580e-01 0.0000000000000000e+00  4.4888139660862458e-01 -8.9359134495511461e-01 0.0000000000000000e+00  5.1903964510380418e-01 -8.5475016631207323e-01 0.0000000000000000e+00  5.8087420465484763e-01 -8.1399334049278205e-01 0.0000000000000000e+00  6.4518020523696706e-01 -7.6403043314411578e-01 0.0000000000000000e+00  6.8453908466414726e-01 -7.2897615980714459e-01 0.0000000000000000e+00  7.0666017277603665e-01 -7.0755310769732482e-01 0.0000000000000000e+00  7.5963838899255287e-01 -6.5034569112803298e-01 0.0000000000000000e+00  8.0514321112108445e-01 -5.9308044107492608e-01 0.0000000000000000e+00  8.3134959442236733e-01 -5.5574981048468686e-01 0.0000000000000000e+00  8.5560383675919560e-01 -5.1763121478804164e-01 0.0000000000000000e+00  8.7867215297133716e-01 -4.7742564614054300e-01 0.0000000000000000e+00  8.9884130877752788e-01 -4.3827423108722763e-01 0.0000000000000000e+00  8.9334787619835720e-01 -4.4936574423501041e-01 0.0000000000000000e+00  8.9945903288470019e-01 -4.3700508940070681e-01 0.0000000000000000e+00  9.3147610368476774e-01 -3.6380251272392816e-01 0.0000000000000000e+00  9.4856644480267438e-01 -3.1657811009988529e-01 0.0000000000000000e+00  9.5324498285478965e-01 -3.0219861459340253e-01 0.0000000000000000e+00  9.6451764219124669e-01 -2.6401840447559338e-01 0.0000000000000000e+00  9.6196754250116179e-01 -2.7316377353938359e-01 0.0000000000000000e+00  9.8028973726841351e-01 -1.9756525758904278e-01 0.0000000000000000e+00  9.7747514568073424e-01 -2.1105056165864006e-01 0.0000000000000000e+00  8.1872478640983715e-01 -5.7418614065315654e-01 0.0000000000000000e+00  8.6493249744055622e-01 -5.0188820953599034e-01 0.0000000000000000e+00  9.7688599285178646e-01 -2.1376098093426557e-01 0.0000000000000000e+00  9.7072133291934959e-01 -2.4020843826826971e-01 0.0000000000000000e+00  9.8476324125039671e-01 -1.7390042749232384e-01 0.0000000000000000e+00  9.6936066470672921e-01 -2.4564181590138148e-01 0.0000000000000000e+00  9.8581925066944498e-01 1.6781062245738265e-01 0.0000000000000000e+00  5.4711982189206743e-01 8.3705429960833033e-01 0.0000000000000000e+00  1.5702047651119122e-01 9.8759534727346621e-01 0.0000000000000000e+00  7.7603439122349249e-01 6.3069059263507588e-01 0.0000000000000000e+00  4.6378271324955883e-01 8.8594897984640042e-01 0.0000000000000000e+00  5.1793294067483175e-01 8.5542122311988567e-01 0.0000000000000000e+00  8.8047456963975734e-01 -4.7409337921730565e-01 0.0000000000000000e+00  8.0945745164580374e-01 -5.8717853671186027e-01 0.0000000000000000e+00  7.1383362888089064e-01 -7.0031532203625180e-01 0.0000000000000000e+00  7.9099181160221943e-01 -6.1182673525945153e-01 0.0000000000000000e+00  0.0000000000000000e+00 0.0000000000000000e+00 0.0000000000000000e+00  0.0000000000000000e+00 0.0000000000000000e+00 0.0000000000000000e+00  0.0000000000000000e+00 0.0000000000000000e+00 0.0000000000000000e+00  0.0000000000000000e+00 0.0000000000000000e+00 0.0000000000000000e+00  0.0000000000000000e+00 0.0000000000000000e+00 0.0000000000000000e+00  0.0000000000000000e+00 0.0000000000000000e+00 0.0000000000000000e+00  0.0000000000000000e+00 0.0000000000000000e+00 0.0000000000000000e+00  0.0000000000000000e+00 0.0000000000000000e+00 0.0000000000000000e+00  0.0000000000000000e+00 0.0000000000000000e+00 0.0000000000000000e+00  0.0000000000000000e+00 0.0000000000000000e+00 0.0000000000000000e+00  0.0000000000000000e+00 0.0000000000000000e+00 0.0000000000000000e+00  0.0000000000000000e+00 0.0000000000000000e+00 0.0000000000000000e+00  0.0000000000000000e+00 0.0000000000000000e+00 0.0000000000000000e+00  0.0000000000000000e+00 0.0000000000000000e+00 0.0000000000000000e+00  0.0000000000000000e+00 0.0000000000000000e+00 0.0000000000000000e+00  0.0000000000000000e+00 0.0000000000000000e+00 0.0000000000000000e+00  0.0000000000000000e+00 0.0000000000000000e+00 0.0000000000000000e+00  0.0000000000000000e+00 0.0000000000000000e+00 0.0000000000000000e+00  0.0000000000000000e+00 0.0000000000000000e+00 0.0000000000000000e+00  0.0000000000000000e+00 0.0000000000000000e+00 0.0000000000000000e+00  0.0000000000000000e+00 0.0000000000000000e+00 0.0000000000000000e+00  0.0000000000000000e+00 0.0000000000000000e+00 0.0000000000000000e+00  0.0000000000000000e+00 0.0000000000000000e+00 0.0000000000000000e+00  0.0000000000000000e+00 0.0000000000000000e+00 0.0000000000000000e+00  0.0000000000000000e+00 0.0000000000000000e+00 0.0000000000000000e+00  0.0000000000000000e+00 0.0000000000000000e+00 0.0000000000000000e+00  0.0000000000000000e+00 0.0000000000000000e+00 0.0000000000000000e+00  0.0000000000000000e+00 0.0000000000000000e+00 0.0000000000000000e+00  0.0000000000000000e+00 0.0000000000000000e+00 0.0000000000000000e+00  0.0000000000000000e+00 0.0000000000000000e+00 0.0000000000000000e+00  0.0000000000000000e+00 0.0000000000000000e+00 0.0000000000000000e+00  0.0000000000000000e+00 0.0000000000000000e+00 0.0000000000000000e+00  0.0000000000000000e+00 0.0000000000000000e+00 0.0000000000000000e+00  0.0000000000000000e+00 0.0000000000000000e+00 0.0000000000000000e+00  0.0000000000000000e+00 0.0000000000000000e+00 0.0000000000000000e+00  0.0000000000000000e+00 0.0000000000000000e+00 0.0000000000000000e+00  0.0000000000000000e+00 0.0000000000000000e+00 0.0000000000000000e+00  0.0000000000000000e+00 0.0000000000000000e+00 0.0000000000000000e+00  0.0000000000000000e+00 0.0000000000000000e+00 0.0000000000000000e+00  0.0000000000000000e+00 0.0000000000000000e+00 0.0000000000000000e+00  0.0000000000000000e+00 0.0000000000000000e+00 0.0000000000000000e+00  0.0000000000000000e+00 0.0000000000000000e+00 0.0000000000000000e+00  0.0000000000000000e+00 0.0000000000000000e+00 0.0000000000000000e+00  0.0000000000000000e+00 0.0000000000000000e+00 0.0000000000000000e+00  0.0000000000000000e+00 0.0000000000000000e+00 0.0000000000000000e+00  0.0000000000000000e+00 0.0000000000000000e+00 0.0000000000000000e+00  0.0000000000000000e+00 0.0000000000000000e+00 0.0000000000000000e+00  0.0000000000000000e+00 0.0000000000000000e+00 0.0000000000000000e+00  0.0000000000000000e+00 0.0000000000000000e+00 0.0000000000000000e+00  0.0000000000000000e+00 0.0000000000000000e+00 0.0000000000000000e+00  0.0000000000000000e+00 0.0000000000000000e+00 0.0000000000000000e+00  0.0000000000000000e+00 0.0000000000000000e+00 0.0000000000000000e+00  0.0000000000000000e+00 0.0000000000000000e+00 0.0000000000000000e+00  0.0000000000000000e+00 0.0000000000000000e+00 0.0000000000000000e+00  0.0000000000000000e+00 0.0000000000000000e+00 0.0000000000000000e+00  0.0000000000000000e+00 0.0000000000000000e+00 0.0000000000000000e+00  0.0000000000000000e+00 0.0000000000000000e+00 0.0000000000000000e+00  0.0000000000000000e+00 0.0000000000000000e+00 0.0000000000000000e+00  0.0000000000000000e+00 0.0000000000000000e+00 0.0000000000000000e+00  0.0000000000000000e+00 0.0000000000000000e+00 0.0000000000000000e+00  0.0000000000000000e+00 0.0000000000000000e+00 0.0000000000000000e+00  0.0000000000000000e+00 0.0000000000000000e+00 0.0000000000000000e+00  0.0000000000000000e+00 0.0000000000000000e+00 0.0000000000000000e+00  0.0000000000000000e+00 0.0000000000000000e+00 0.0000000000000000e+00  0.0000000000000000e+00 0.0000000000000000e+00 0.0000000000000000e+00  0.0000000000000000e+00 0.0000000000000000e+00 0.0000000000000000e+00  0.0000000000000000e+00 0.0000000000000000e+00 0.0000000000000000e+00  0.0000000000000000e+00 0.0000000000000000e+00 0.0000000000000000e+00  0.0000000000000000e+00 0.0000000000000000e+00 0.0000000000000000e+00  0.0000000000000000e+00 0.0000000000000000e+00 0.0000000000000000e+00  0.0000000000000000e+00 0.0000000000000000e+00 0.0000000000000000e+00  0.0000000000000000e+00 0.0000000000000000e+00 0.0000000000000000e+00  0.0000000000000000e+00 0.0000000000000000e+00 0.0000000000000000e+00  0.0000000000000000e+00 0.0000000000000000e+00 0.0000000000000000e+00  0.0000000000000000e+00 0.0000000000000000e+00 0.0000000000000000e+00  0.0000000000000000e+00 0.0000000000000000e+00 0.0000000000000000e+00  0.0000000000000000e+00 0.0000000000000000e+00 0.0000000000000000e+00  0.0000000000000000e+00 0.0000000000000000e+00 0.0000000000000000e+00  0.0000000000000000e+00 0.0000000000000000e+00 0.0000000000000000e+00  0.0000000000000000e+00 0.0000000000000000e+00 0.0000000000000000e+00  0.0000000000000000e+00 0.0000000000000000e+00 0.0000000000000000e+00  0.0000000000000000e+00 0.0000000000000000e+00 0.0000000000000000e+00  0.0000000000000000e+00 0.0000000000000000e+00 0.0000000000000000e+00  0.0000000000000000e+00 0.0000000000000000e+00 0.0000000000000000e+00  0.0000000000000000e+00 0.0000000000000000e+00 0.0000000000000000e+00  0.0000000000000000e+00 0.0000000000000000e+00 0.0000000000000000e+00  0.0000000000000000e+00 0.0000000000000000e+00 0.0000000000000000e+00  0.0000000000000000e+00 0.0000000000000000e+00 0.0000000000000000e+00  0.0000000000000000e+00 0.0000000000000000e+00 0.0000000000000000e+00  0.0000000000000000e+00 0.0000000000000000e+00 0.0000000000000000e+00  0.0000000000000000e+00 0.0000000000000000e+00 0.0000000000000000e+00  0.0000000000000000e+00 0.0000000000000000e+00 0.0000000000000000e+00  0.0000000000000000e+00 0.0000000000000000e+00 0.0000000000000000e+00  0.0000000000000000e+00 0.0000000000000000e+00 0.0000000000000000e+00  0.0000000000000000e+00 0.0000000000000000e+00 0.0000000000000000e+00  0.0000000000000000e+00 0.0000000000000000e+00 0.0000000000000000e+00  0.0000000000000000e+00 0.0000000000000000e+00 0.0000000000000000e+00  0.0000000000000000e+00 0.0000000000000000e+00 0.0000000000000000e+00  0.0000000000000000e+00 0.0000000000000000e+00 0.0000000000000000e+00  0.0000000000000000e+00 0.0000000000000000e+00 0.0000000000000000e+00  0.0000000000000000e+00 0.0000000000000000e+00 0.0000000000000000e+00  0.0000000000000000e+00 0.0000000000000000e+00 0.0000000000000000e+00  0.0000000000000000e+00 0.0000000000000000e+00 0.0000000000000000e+00  0.0000000000000000e+00 0.0000000000000000e+00 0.0000000000000000e+00  0.0000000000000000e+00 0.0000000000000000e+00 0.0000000000000000e+00  0.0000000000000000e+00 0.0000000000000000e+00 0.0000000000000000e+00  0.0000000000000000e+00 0.0000000000000000e+00 0.0000000000000000e+00  0.0000000000000000e+00 0.0000000000000000e+00 0.0000000000000000e+00  0.0000000000000000e+00 0.0000000000000000e+00 0.0000000000000000e+00  0.0000000000000000e+00 0.0000000000000000e+00 0.0000000000000000e+00  0.0000000000000000e+00 0.0000000000000000e+00 0.0000000000000000e+00  0.0000000000000000e+00 0.0000000000000000e+00 0.0000000000000000e+00  0.0000000000000000e+00 0.0000000000000000e+00 0.0000000000000000e+00  0.0000000000000000e+00 0.0000000000000000e+00