<?xml version="1.0"?>
<VTKFile type="UnstructuredGrid"  version="0.1"  >
<UnstructuredGrid>
<Piece  NumberOfPoints="2549" NumberOfCells="4928">
<Points>
<DataArray  type="Float64"  NumberOfComponents="3"  format="ascii">1.460941467495963 0.03831316970967211 0  1.457169618488705 0.06091568836892545 0  1.431562239840151 0.07031010260254886 0  1.423964372232626 0.08523904755582841 0  1.408345648983794 0.09652667195112241 0  1.405620854869513 0.1132215366765333 0  1.39035931992003 0.1293284663386549 0  1.358720287209377 0.1297923703262035 0  1.354197555817504 0.15944908143079 0  1.373632470352012 0.1192501427789774 0  1.349417141667123 0.1800980548280519 0  1.337697858260847 0.2007405010456254 0  1.329821278942256 0.2280739066845452 0  1.32283022794365 0.2587335410501311 0  1.31512320267425 0.2880938403651318 0  1.300858026027212 0.3248688858288601 0  1.273438073130684 0.3380888220981433 0  1.273624789957775 0.350417661237264 0  1.260712699901895 0.4111260267912772 0  1.247339020650666 0.4475532704323899 0  1.233695142304986 0.4942212940458464 0  1.216077385420861 0.5392136438609973 0  1.197183729812823 0.587387319132826 0  1.174152991590894 0.6393037369474379 0  1.148064996664122 0.6915104856449372 0  1.118937008207303 0.7330745257775144 0  1.088735430320324 0.7871387725202238 0  1.056133690496139 0.8425403889858707 0  1.018343308112652 0.8981634896074984 0  0.9770589462856364 0.9546589368805851 0  0.93145791520427 1.010932136695252 0  0.881210861735664 1.067848263636997 0  0.8258031709252854 1.121715265179125 0  0.7676305019128644 1.172737474625938 0  0.7032807535549703 1.225728387227406 0  0.6346726767051342 1.274257333170972 0  0.5610360369943463 1.319569450384981 0  0.4830711510792439 1.36058811865241 0  0.4009458569884553 1.396440773208516 0  0.315182486131732 1.427580789370444 0  0.2258087058113093 1.451094142932826 0  0.1351959991651031 1.467610455428663 0  0.04218822695081362 1.478829699330178 0  -0.05141849336435635 1.481434727825265 0  -0.1449351684845039 1.476752880641786 0  -0.2373990490887039 1.464108359598347 0  -0.3278834386230677 1.444421838861116 0  -0.4156876856386729 1.415996413740241 0  -0.4991246667689155 1.384104681628729 0  -0.5802222135520673 1.345354944536993 0  -0.6559449404972647 1.299322418742389 0  -0.7268965545638444 1.249850125118723 0  -0.7925298849048381 1.196341597938235 0  -0.8533763057918942 1.139669005176842 0  -0.9077119833265183 1.081681670886509 0  -0.9591975416321549 1.018881835229319 0  -1.001777070117744 0.9662565731468069 0  -1.045806482024655 0.909979490054205 0  -1.083531763424076 0.8480277935290329 0  -1.115739173268953 0.7891479892867127 0  -1.145107296711886 0.7327624598242954 0  -1.169220028526347 0.6741056716453019 0  -1.19300785838819 0.6269428086594455 0  -1.215566071339098 0.5573792186307597 0  -1.214863265767684 0.5218615882853375 0  -1.248128168858413 0.499930881287125 0  -1.263628475601843 0.4540048507238609 0  -1.275126761607261 0.4160571165069842 0  -1.286935990968747 0.3801830425969066 0  -1.309077505003529 0.3543867878592638 0  -1.310470145990059 0.3065735379116507 0  -1.312437271024043 0.3393393495580813 0  -1.365139453232264 0.2937974707719344 0  -1.347818005108411 0.2030073313076923 0  -1.350242477571468 0.1785861348201931 0  -1.350463655663538 0.147036389369046 0  -1.361254098841815 0.1288797206065342 0  -1.352326766488096 0.1017003163821286 0  -1.375563791018819 0.1109509071588921 0  -1.328311978346914 0.05142353515034968 0  -1.389708246777249 0.1136045768569201 0  -1.466315861116258 0.1244363613383942 0  -1.436903519538206 0.07749337530797409 0  -1.462324591424552 0.05665366340189647 0  -1.449084062934462 0.03877629668443575 0  -1.457813159579782 0.0247251018224206 0  -1.439973257918732 -0.003322010450013176 0  -1.451922110333817 -0.09992049691870832 0  -1.376659352806487 -0.02435768048202697 0  -1.298385959738595 0.01694004179520254 0  -1.389865682239076 -0.02680226192754812 0  -1.363993544782764 -0.01295759871893071 0  -1.394335686715148 -0.03665118002793698 0  -1.378670417501136 -0.06030869125241987 0  -1.369734620438847 -0.09768670251982439 0  -1.374372428909132 -0.1213675233667397 0  -1.391354937400819 -0.2288295196843153 0  -1.30931768571194 -0.2903323824189949 0  -1.337600182542045 -0.2329320887758003 0  -1.349933105429636 -0.2885661331301768 0  -1.320986257633831 -0.3144971279410848 0  -1.311354425262263 -0.3518936825717733 0  -1.303461691642266 -0.392230036598387 0  -1.291512124732619 -0.4431535526055732 0  -1.249805317971498 -0.4585992552692804 0  -1.260802799111995 -0.495869308382894 0  -1.241072367989155 -0.5768202680141113 0  -1.217644174969161 -0.6251396895907346 0  -1.19732539339474 -0.6900614479429779 0  -1.170070239780117 -0.751311055316925 0  -1.139251816031412 -0.8149662962486114 0  -1.105045164578503 -0.882883567460043 0  -1.05948312030798 -0.9377472509121622 0  -1.024192569080246 -1.003466804844824 0  -0.97053670510342 -1.080464460067727 0  -0.9168972200984068 -1.144815048551603 0  -0.8552755716982019 -1.212254734029764 0  -0.7890025613457655 -1.275259177947194 0  -0.7162839862872012 -1.334578890665322 0  -0.6372605687833248 -1.390867228963772 0  -0.5529023734880579 -1.439337776656653 0  -0.4657314647437706 -1.479246629434076 0  -0.3721861482658949 -1.517038894084178 0  -0.2758496019737136 -1.545199206797231 0  -0.1760845684358767 -1.565037998328772 0  -0.07472133560018061 -1.575700094239682 0  0.02748828545371325 -1.577264256407436 0  0.1293730536526832 -1.569392577265646 0  0.2298467158332561 -1.552529497837957 0  0.3276686289982697 -1.526870965853336 0  0.4222324825605521 -1.493431372351827 0  0.512558384652408 -1.452491664702386 0  0.5979965678933299 -1.405207074688601 0  0.6781020393555041 -1.352037554880926 0  0.7522168446792695 -1.295269688793002 0  0.8209095172526009 -1.231418091612006 0  0.881316174212342 -1.174113361687863 0  0.940484698983845 -1.111899556412377 0  0.9924436411146487 -1.044362452733548 0  1.038704382445203 -0.9787334145736987 0  1.080115731524544 -0.9133419717904886 0  1.117144727671723 -0.8492099039156875 0  1.149248642315341 -0.7862926921018768 0  1.177866498196153 -0.7247937684468694 0  1.204310666004072 -0.6759913920013949 0  1.229437071131924 -0.6178561803396491 0  1.249647943995228 -0.5601220121633933 0  1.266556095284102 -0.5068811003542276 0  1.282208433365169 -0.4574209906903707 0  1.294031918511127 -0.4064375626538653 0  1.307246413620426 -0.3672815280728099 0  1.312054043778957 -0.3008710942184838 0  1.315999596847581 -0.2901631288374693 0  1.339845044378477 -0.2700535309645511 0  1.347005469785408 -0.231008609359106 0  1.35509723227112 -0.1992488334146128 0  1.362482783857274 -0.1684951576004302 0  1.366312070727785 -0.1350178604435862 0  1.374139279015516 -0.1155609433681725 0  1.33253287529736 -0.06809326313032812 0  1.368970065273248 -0.07963399127110998 0  1.390802004423433 -0.07982202674169118 0  1.396061125608852 -0.05351308778134126 0  1.410165630202011 -0.03888630541138498 0  1.416166764488001 -0.02087646764536358 0  1.426120924056346 -0.008214198181185099 0  1.435701421026756 0.006128244032314331 0  1.453669216899178 0.01863368480046313 0  -0.09292004842797308 0.9020066431642946 0  0.6840221912856375 -0.5149741955782465 0  -0.7984305038897324 -0.3826306950747094 0  -0.08152704028599618 -0.9624926729259828 0  0.6461614790866125 0.5002338975580012 0  1.073769246455312 0.1129674027104585 0  -0.7832678578388749 0.4123979593047112 0  -1.138115126175899 0.0355614439574626 0  1.08637539865907 -0.06457179963633862 0  -1.024508109531159 -0.1677928260423459 0  -0.7202562589822398 0.01929594852438907 0  -0.4309020321934403 -0.1402402336558077 0  -1.012155836388777 0.2158561160865381 0  0.3777883274530934 -0.8487848664825145 0  0.08178416891727879 -0.322534268163059 0  0.308076545242245 0.7810829446713343 0  0.221572392576295 0.1884351913810026 0  0.5547667062293046 0.0127585437552855 0  -0.4843542789621552 -0.7054686188791904 0  -0.4977672911050967 0.7052582353961647 0  -0.2356922574759476 0.3177862168951847 0  0.9070332591972607 -0.2148594147169981 0  0.8844154731116119 0.2445397115229596 0  0.3487520585194236 -0.229230820737427 0  -0.008248087206671001 0.2452956138437143 0  -0.4822098873288705 0.217437139026816 0  -0.1864795744010891 -0.2876385097705734 0  0.8498714392639672 0.01935816475433372 0  1.233845107155031 0.03037334977412507 0  0.7958712781630246 -0.3451788598667408 0  0.7089561536900336 -0.1122346934531812 0  0.5778898157776714 -0.2170799488146794 0  0.4365740316384927 -0.08563520258094097 0  0.5069585811914561 -0.3844457440351778 0  0.8522706676998185 -0.08585519356291951 0  0.704145548853543 0.01597703785941681 0  -0.8450014961268832 0.1286437850864659 0  -1.055817079615831 0.1071992515557087 0  -0.9337166174414425 0.02908624901866813 0  -0.852935788123425 -0.08348381092453154 0  -1.060617187140258 -0.04507821236434334 0  -1.224714223159815 -0.07415538795757901 0  -1.289652405922134 0.01083462484986378 0  -1.283715904808159 0.06878526420357989 0  -1.209956847590958 0.1478725292399325 0  -0.1345002193858787 -0.6281262831403086 0  -0.302355652933506 -0.5148572674114361 0  -0.297249270618447 -0.8572503733454654 0  -0.3039678152836419 -0.2063501884467542 0  -0.4485209710883712 -0.4079631107672435 0  -1.216383248951158 -0.1895700303257727 0  -1.194974605167056 0.2519789358665769 0  0.3760633860163191 -0.5205467294535711 0  0.2137164743540492 -0.2626285495078818 0  0.2357507024847883 -0.5811526679208291 0  -0.8978867814370144 0.2981690553507632 0  -0.7148474973607812 0.1971964322762067 0  1.256608313947165 -0.07843727357092727 0  1.195273258798348 -0.1744516406254158 0  1.170234324900477 0.2235935048696676 0  1.240961272695177 0.1369562427045229 0  -0.9129680427165462 -0.6484083286346763 0  -1.038005025752216 -0.4377069743745311 0  -1.009274997830913 0.4811520342209378 0  -0.8790633826445687 0.6708411311934519 0  0.9386462790248272 -0.60722426410513 0  0.776715445523911 -0.8307230974031249 0  0.7347850671640734 0.7952087133592309 0  0.8969338883305351 0.6055828867151353 0  0.04031
[...]
<PointData  Vectors="f_12186"> 
<DataArray  type="Float64"  Name="f_12186"  NumberOfComponents="3" format="ascii">1.2341357487886936e-02 -3.9178823488378867e-02 0.0000000000000000e+00  1.1884119549764288e-02 -3.8703812153943543e-02 0.0000000000000000e+00  1.6141817446259706e-02 -3.5796718539180317e-02 0.0000000000000000e+00  5.9706650976469183e-03 -3.3830670879435101e-02 0.0000000000000000e+00  2.1715845479379960e-02 -3.4640352205943963e-02 0.0000000000000000e+00  2.8369715487481802e-02 -2.6081908945839529e-02 0.0000000000000000e+00  2.2665014407042012e-02 -3.8882965235671987e-02 0.0000000000000000e+00  2.7736748315122642e-02 -2.7862005248401146e-02 0.0000000000000000e+00  3.5809835317731291e-02 -1.8532880336572671e-02 0.0000000000000000e+00  1.6622954885900795e-01 4.5897526835327537e-02 0.0000000000000000e+00  2.3417569054244872e-02 -2.4846550656557193e-02 0.0000000000000000e+00  2.8705337097846628e-02 -1.6922231435560299e-02 0.0000000000000000e+00  2.3549523437111163e-02 -1.5653267022665004e-02 0.0000000000000000e+00  2.2641168220848638e-02 -1.7805019601583358e-02 0.0000000000000000e+00  2.6428510542970796e-02 -1.7083045444595459e-02 0.0000000000000000e+00  1.9761782277721286e-02 -2.4750417957616098e-02 0.0000000000000000e+00  5.6217125557839073e-02 8.4161083134803045e-03 0.0000000000000000e+00  3.3663519775006298e-02 1.2348998409493739e-02 0.0000000000000000e+00  2.1056477753199212e-02 -4.2503657891585287e-04 0.0000000000000000e+00  2.0036197141096161e-02 -5.2620746703436246e-04 0.0000000000000000e+00  1.7348423417772183e-02 -1.2297418584590861e-03 0.0000000000000000e+00  1.5136914444023085e-02 -1.7284985265336337e-03 0.0000000000000000e+00  1.3190665068901583e-02 -2.1788997964458669e-03 0.0000000000000000e+00  1.1103944708627012e-02 -2.6563848894646473e-03 0.0000000000000000e+00  9.7653576677562449e-03 -3.3397531387297044e-03 0.0000000000000000e+00  9.4219129731077673e-03 -3.2260417149430161e-03 0.0000000000000000e+00  7.7039994486204607e-03 -3.3750642087717656e-03 0.0000000000000000e+00  5.7346611582822817e-03 -4.1640976730850342e-03 0.0000000000000000e+00  4.4964349448877589e-03 -4.8573383940803509e-03 0.0000000000000000e+00  3.2220643336220052e-03 -5.6422490825047108e-03 0.0000000000000000e+00  2.1369120159047163e-03 -6.4965659588882667e-03 0.0000000000000000e+00  1.1203468443780722e-03 -7.5187054926564353e-03 0.0000000000000000e+00  7.5644694475459002e-04 -8.2867791057803369e-03 0.0000000000000000e+00  3.0933818416879852e-04 -8.9669721310849260e-03 0.0000000000000000e+00  -3.1727435171830632e-04 -1.0087653886665554e-02 0.0000000000000000e+00  -5.1256866360386232e-04 -1.1082365045154530e-02 0.0000000000000000e+00  -5.3331295916624868e-04 -1.2012839015882574e-02 0.0000000000000000e+00  -3.7249886316179754e-04 -1.2903422631952082e-02 0.0000000000000000e+00  -8.7195835335515312e-05 -1.3756132529316289e-02 0.0000000000000000e+00  4.0585355890300191e-04 -1.4535225526977556e-02 0.0000000000000000e+00  1.1069909179521279e-03 -1.5130215445660556e-02 0.0000000000000000e+00  1.8021282147922322e-03 -1.5491519310788635e-02 0.0000000000000000e+00  2.6798946453661229e-03 -1.5821823217593674e-02 0.0000000000000000e+00  3.5543708639305819e-03 -1.6062631408360641e-02 0.0000000000000000e+00  4.5788288442389722e-03 -1.5895127919501550e-02 0.0000000000000000e+00  5.4027308289289495e-03 -1.5593759912751371e-02 0.0000000000000000e+00  6.4848835995252275e-03 -1.5002567827169463e-02 0.0000000000000000e+00  6.9099657382009549e-03 -1.4104425799277289e-02 0.0000000000000000e+00  7.4208219676889699e-03 -1.2982870585016681e-02 0.0000000000000000e+00  8.3653200546353577e-03 -1.2368617206448093e-02 0.0000000000000000e+00  8.0331025451669657e-03 -1.0832586437567097e-02 0.0000000000000000e+00  7.8287747884059553e-03 -9.0517713205188234e-03 0.0000000000000000e+00  7.2564317865826686e-03 -7.7388480149869765e-03 0.0000000000000000e+00  6.1553702807382350e-03 -5.9452742233933207e-03 0.0000000000000000e+00  5.4343187670058100e-03 -4.8042916291551017e-03 0.0000000000000000e+00  1.9918323789409769e-03 -2.2993802735603950e-03 0.0000000000000000e+00  1.5092916386735182e-03 -2.7774142474777147e-03 0.0000000000000000e+00  2.9486421461216760e-04 -7.5650427304073137e-04 0.0000000000000000e+00  -1.9885983810245447e-03 -5.5185019566285224e-04 0.0000000000000000e+00  -4.8653147150652986e-03 2.6764810433082837e-04 0.0000000000000000e+00  -5.0063891651775357e-03 1.8800569089916114e-05 0.0000000000000000e+00  -1.0705294400163818e-02 1.2839178401432517e-03 0.0000000000000000e+00  -1.7270676293532676e-02 2.1043003684884892e-03 0.0000000000000000e+00  3.8404588772615470e-03 -3.5194219637115737e-03 0.0000000000000000e+00  -1.5045079950758693e-02 -4.4068880894252965e-03 0.0000000000000000e+00  -2.4769541122560780e-02 -3.7091216676834489e-04 0.0000000000000000e+00  -1.7263517612191644e-02 -4.4212834949002890e-03 0.0000000000000000e+00  -1.9080684555270219e-02 -4.6734144091189912e-03 0.0000000000000000e+00  -1.7206733154723649e-02 -7.1648620048858956e-03 0.0000000000000000e+00  -1.7657437450012262e-02 -7.2391980257929135e-03 0.0000000000000000e+00  -2.1174886997491944e-02 -8.8959537664902878e-03 0.0000000000000000e+00  -4.0639090700930755e-03 -1.1679439238323760e-02 0.0000000000000000e+00  -1.7329542397899030e-02 -4.9023006940061269e-03 0.0000000000000000e+00  -2.8100396785488344e-02 -9.2017232774034199e-03 0.0000000000000000e+00  -3.1680160534913127e-02 -1.1191900690732380e-02 0.0000000000000000e+00  -2.7873762803010776e-02 -1.4512919032259328e-02 0.0000000000000000e+00  -2.5434150733596707e-02 -1.6385545510473037e-02 0.0000000000000000e+00  -3.3488484533373233e-02 -1.6322579927837942e-02 0.0000000000000000e+00  -3.0136627114067126e-02 -1.4930145455803578e-02 0.0000000000000000e+00  -6.1632292431126307e-02 -4.0222939547789625e-02 0.0000000000000000e+00  -4.0784146089601382e-02 -3.2889083597754255e-02 0.0000000000000000e+00  -1.2330422469485371e-02 -1.1192206616058138e-02 0.0000000000000000e+00  -5.0868853338397454e-02 -3.1716229798044941e-02 0.0000000000000000e+00  -1.6904520828619606e-02 -3.9489601935241411e-02 0.0000000000000000e+00  -7.3185823210761128e-02 -6.0628915441033264e-02 0.0000000000000000e+00  -1.9999187813615926e-02 -7.2789881017183353e-02 0.0000000000000000e+00  -1.5291612621590943e-02 -7.1187372514641620e-02 0.0000000000000000e+00  2.5120757592901499e-01 -1.6853949411777308e-01 0.0000000000000000e+00  -7.2423671413368827e-03 -1.7715214491260095e-02 0.0000000000000000e+00  -2.1955378085155847e-01 4.6020296415310696e-01 0.0000000000000000e+00  -5.8209927593714766e-02 -6.6409902382307234e-02 0.0000000000000000e+00  -1.5532673455299179e-01 2.4037359455672085e-02 0.0000000000000000e+00  -2.6396283372318950e-02 -1.4513182712239914e-01 0.0000000000000000e+00  -3.9547042534110290e-03 -4.8696979082687594e-02 0.0000000000000000e+00  8.4823865833481456e-03 -5.9235587552681950e-03 0.0000000000000000e+00  3.1226327946379693e-03 -4.4444026876593020e-03 0.0000000000000000e+00  1.6871806066314338e-03 -2.0421982244623042e-02 0.0000000000000000e+00  5.5339727438388941e-02 2.3451844080119980e-02 0.0000000000000000e+00  -2.2514458793130115e-02 -1.6236628653065424e-02 0.0000000000000000e+00  1.7257516290403809e-02 -3.1165877259547763e-02 0.0000000000000000e+00  2.6290610642325095e-02 -6.3111994769254427e-03 0.0000000000000000e+00  -1.5063825712151493e-02 -2.2509618074141879e-02 0.0000000000000000e+00  -2.1241106313453400e-03 -2.0424547935977890e-02 0.0000000000000000e+00  -4.0099373740228317e-02 -4.5362446079218341e-02 0.0000000000000000e+00  5.0285610863348269e-02 8.5233264836769799e-03 0.0000000000000000e+00  1.0686272366435115e-01 1.6085777337410706e-02 0.0000000000000000e+00  -4.3818616227907149e-02 -1.6594798406231823e-02 0.0000000000000000e+00  5.8969652761706908e-04 -1.0065123041052011e-02 0.0000000000000000e+00  1.7703953314076662e-02 -2.8165145096328112e-03 0.0000000000000000e+00  3.5879197011964678e-03 -9.5771473838884846e-03 0.0000000000000000e+00  4.9366459550334836e-03 -6.9890771763189089e-03 0.0000000000000000e+00  -1.3327021588439791e-02 -2.7982485685393216e-02 0.0000000000000000e+00  2.2074680525993047e-02 -2.9661358257134933e-04 0.0000000000000000e+00  3.4480198747302279e-02 1.0439813403466619e-02 0.0000000000000000e+00  9.1195466975242216e-03 -5.6127682860653959e-03 0.0000000000000000e+00  1.7434067319592954e-02 1.0239379283960273e-03 0.0000000000000000e+00  1.8411187487378650e-02 3.0980704489586364e-03 0.0000000000000000e+00  1.8535883459861919e-02 5.3940878416778382e-03 0.0000000000000000e+00  1.8056119768882981e-02 7.8336515871278451e-03 0.0000000000000000e+00  1.9191453535058009e-02 1.1797878659200499e-02 0.0000000000000000e+00  1.5701787007479980e-02 1.0730795105850566e-02 0.0000000000000000e+00  1.4204899977299274e-02 1.3273727158086104e-02 0.0000000000000000e+00  1.4015028151413271e-02 1.5946489996886328e-02 0.0000000000000000e+00  1.1054517516660183e-02 1.6367593360417987e-02 0.0000000000000000e+00  9.2788398734077095e-03 1.7659353017813306e-02 0.0000000000000000e+00  6.8639939500808374e-03 1.8150177019562855e-02 0.0000000000000000e+00  4.5893516392375502e-03 1.8517623233264141e-02 0.0000000000000000e+00  2.1896550119967634e-03 1.8499656328649607e-02 0.0000000000000000e+00  -9.7543672679931489e-05 1.8125589260615409e-02 0.0000000000000000e+00  -2.3269092688718573e-03 1.7460290484461068e-02 0.0000000000000000e+00  -4.4471244240388563e-03 1.6625879666708351e-02 0.0000000000000000e+00  -6.3343397614311703e-03 1.5413059163961932e-02 0.0000000000000000e+00  -8.1570980716595270e-03 1.4069456372295395e-02 0.0000000000000000e+00  -9.2921423150354992e-03 1.2419415682457758e-02 0.0000000000000000e+00  -1.1576117620537067e-02 1.1109018015912979e-02 0.0000000000000000e+00  -1.0047149809477945e-02 7.4045612596448261e-03 0.0000000000000000e+00  -1.1197842804542705e-02 6.8744803756660405e-03 0.0000000000000000e+00  -1.4479230339485076e-02 5.8739976603251953e-03 0.0000000000000000e+00  -1.2344907956692412e-02 3.0636657617942589e-03 0.0000000000000000e+00  -1.2346870720582062e-02 9.8403739118366304e-04 0.0000000000000000e+00  -1.2009137210035610e-02 -4.4686871428960745e-04 0.0000000000000000e+00  -1.0899361212412011e-02 -2.6251110062256028e-03 0.0000000000000000e+00  -1.1589328007242194e-02 -3.1027546194762451e-03 0.0000000000000000e+00  -1.0514107081187373e-02 -5.0969710093318127e-03 0.0000000000000000e+00  -4.9417597797633325e-03 -8.2081412439837156e-03 0.0000000000000000e+00  -1.0201616386843785e-02 -6.4515289571458346e-03 0.0000000000000000e+00  -6.7300049910417152e-03 -8.6126490496851171e-03 0.0000000000000000e+00  -6.1287366858955861e-03 -8.3783338331525469e-03 0.0000000000000000e+00  -6.6451664165598570e-03 -8.9563802827090765e-03 0.0000000000000000e+00  -1.1725097736979192e-02 -6.3426322745619903e-03 0.0000000000000000e+00  -1.0128268087506127e-02 -1.1721700910049501e-02 0.0000000000000000e+00  1.1222675934751512e-02 7.0218787200432503e-04 0.0000000000000000e+00  -5.4594971446936140e-02 1.4269859542792052e-02 0.0000000000000000e+00  -1.1897876627044784e-02 -2.7809000769517221e-02 0.0000000000000000e+00  7.4143731163742801e-03 -1.6949227430538654e-02 0.0000000000000000e+00  -4.2997888341507352e-03 -1.5222865454547822e-02 0.0000000000000000e+00  -6.5620287442121356e-03 -1.0152490769725782e-02 0.0000000000000000e+00  -2.9873744858103612e-03 -1.3875818743339392e-02 0.0000000000000000e+00  -2.0945166150936331e-02 2.0377293766717696e-03 0.0000000000000000e+00  2.4272733727929544e-01 2.2685590125630573e-01 0.0000000000000000e+00  4.1929281857022944e-02 -4.4041452409805462e-02 0.0000000000000000e+00  -2.1738888775232859e-03 -4.8201448934487565e-02 0.0000000000000000e+00  8.0820475251491344e-03 -3.1544480257272751e-02 0.0000000000000000e+00  2.2537477957358672e-02 -3.3537639605381003e-02 0.0000000000000000e+00  1.2872830257721438e-02 -3.3513843568924839e-02 0.0000000000000000e+00  1.3277126245179216e-02 -3.1895878346632142e-02 0.0000000000000000e+00  8.8519095188902969e-03 -3.3376879537117134e-02 0.0000000000000000e+00  1.3035145040306192e-02 -4.0304988804626206e-02 0.0000000000000000e+00  3.9455259304485169e-03 -1.4833443476202260e-02 0.0000000000000000e+00  -2.3141162545438922e-03 7.7962024960519872e-03 0.0000000000000000e+00  -3.4769544357193130e-03 -3.4466833786996856e-03 0.0000000000000000e+00  6.9659989677667523e-03 1.9222727675362827e-02 0.0000000000000000e+00  1.1919604702481788e-02 -1.0471434435181661e-02 0.0000000000000000e+00  1.6207061653579841e-02 -7.4900930648800282e-03 0.0000000000000000e+00  -1.4168438514220139e-02 -5.0738208277814655e-03 0.0000000000000000e+00  -2.0900095704983392e-02 -7.6627435555668656e-03 0.0000000000000000e+00  7.7816449929837108e-03 -7.7823443058422110e-03 0.0000000000000000e+00  -1.0819335979769378e-02 -7.1181902692537226e-03 0.0000000000000000e+00  -1.4485753198277882e-02 -3.4769066466807819e-03 0.0000000000000000e+00  -9.5580389007316018e-03 2.5915383410506348e-03 0.0000000000000000e+00  -2.0034252391093910e-02 -5.8437336971157326e-03 0.0000000000000000e+00  -1.1230602665057209e-04 1.8030125478945943e-02 0.0000000000000000e+00  -5.9217773686820619e-03 2.7660187029432303e-02 0.0000000000000000e+00  8.0777986720794066e-03 -1.4461003884295668e-02 0.0000000000000000e+00  -6.0017037521783540e-03 -1.8477345506627114e-03 0.0000000000000000e+00  2.8551456078340547e-03 7.5346984305033721e-04 0.0000000000000000e+00  5.9157694236592218e-03 8.2886983104419748e-03 0.0000000000000000e+00  -3.6127739873672423e-03 -9.4944342705023509e-03 0.0000000000000000e+00  -7.4877569627998051e-03 -3.1635463472235478e-03 0.0000000000000000e+00  2.1380026775343667e-03 -2.8118036824589195e-03 0.0000000000000000e+00  1.5640437638846649e-02 -6.4513484344912789e-03 0.0000000000000000e+00  -4.7735793680285061e-03 1.7374037443064896e-02 0.0000000000000000e+00  -5.5340240287627355e-03 -3.0534190961336249e-03 0.0000000000000000e+00  -1.3173128940806265e-02 -3.0597830464299956e-03 0.0000000000000000e+00  -3.1693177267891515e-03 1.3978447947031314e-02 0.0000000000000000e+00  9.3820994304367501e-03 -3.8144639142217952e-03 0.0000000000000000e+00  1.4512744765949536e-02 -1.4169048992096488e-02 0.0000000000000000e+00  -6.2315977386947173e-04 1.8949742768231874e-03 0.0000000000000000e+00  3.6775398435459827e-03 1.0080605334740688e-03 0.0000000000000000e+00  -1.6567377754923444e-04 7.6431424170171807e-03 0.0000000000000000e+00  -2.8569311917445929e-03 8.5088072254125343e-03 0.0000000000000000e+00  -1.0417092631360924e-03 1.3958383166323689e-02 0.0000000000000000e+00  6.0084220124465388e-03 -2.6670230269059932e-03 0.0000000000000000e+00  6.7526751217346255e-03 -1.7873436819388600e-03 0.0000000000000000e+00  -1.7119661406640858e-02 -4.6365272514927386e-03 0.0000000000000000e+00  -2.0642646323863964e-02 -6.6038370691050598e-03 0.0000000000000000e+00  -1.6792998333262171e-02 -5.3708107872097914e-03 0.0000000000000000e+00  -1.3088915371255939e-02 -4.6606349135587402e-03 0.0000000000000000e+00  -1.5860194851128450e-02 -6.9725327835912882e-03 0.0000000000000000e+00  -1.3551055686430757e-02 -9.2159851294646745e-03 0.0000000000000000e+00  -2.7109481759473190e-02 -1.0673602836213571e-02 0.0000000000000000e+00  -3.2855445336924541e-02 -1.4561486468521637e-02 0.0000000000000000e+00  -2.6456983532086226e-02 -1.0375076455716141e-02 0.0000000000000000e+00  6.9603335249685035e-03 1.8945949638097932e-02 0.0000000000000000e+00  3.3973482084265149e-03 1.2247657432958147e-02 0.0000000000000000e+00  8.2260806883624731e-03 1.4931800751281610e-02 0.0000000000000000e+00  -7.0154772578813326e-03 7.5580419186404317e-03 0.0000000000000000e+00  -1.1988559182844213e-03 5.8100341196309930e-03 0.0000000000000000e+00  -1.0126280047490428e-02 -1.2131256651697729e-02 0.0000000000000000e+00  -2.2442182319351599e-02 -8.7199000061033149e-03 0.0000000000000000e+00  8.0655447031566284e-04 2.0162065800768809e-02 0.0000000000000000e+00  -6.8072064519105581e-03 2.2076976879083748e-02 0.0000000000000000e+00  3.8219222809768600e-03 2.3708402389408960e-02 0.0000000000000000e+00  -1.7517839313494543e-02 -4.8748173770251811e-03 0.0000000000000000e+00  -1.5712995955490652e-02 -4.1687316543683635e-03 0.0000000000000000e+00  8.3235290277294469e-03 -1.3343901151066439e-02 0.0000000000000000e+00  1.2535621621268659e-03 -9.9233936874424267e-03 0.0000000000000000e+00  2.2102602643829027e-02 -8.4514418799542090e-03 0.0000000000000000e+00  2.0253668746660416e-02 -1.3529605577188259e-02 0.0000000000000000e+00  2.4881842043495686e-03 -4.9808010545796593e-03 0.0000000000000000e+00  1.3920420879085744e-04 -7.9145584146523076e-03 0.0000000000000000e+00  -1.5448803789059608e-02 -3.9491889372129767e-03 0.0000000000000000e+00  -8.3141749216744300e-03 -4.7406290384770225e-03 0.0000000000000000e+00  -5.5541946804138582e-03 -5.6152744607922437e-04 0.0000000000000000e+00  -6.9820722049628459e-03 6.1879817637174820e-03 0.0000000000000000e+00  7.4326173675976163e-03 -9.6507666629825888e-03 0.0000000000000000e+00  1.2067985089360349e-02 -7.7515855463197924e-03 0.0000000000000000e+00  4.0082101147805296e-03 1.8801077594175177e-02 0.0000000000000000e+00  1.0069206110146738e-02 1.5834409602396408e-02 0.0000000000000000e+00  4.4933203066613078e-03 -1.4888177947355341e-02 0.0000000000000000e+00  3.5050838570026646e-03 -1.5894013665711207e-02 0.0000000000000000e+00  -1.9262602092630912e-03 1.3873162554699522e-02 0.0000000000000000e+00  -2.3482808677776769e-03 -1.1239184023824767e-04 0.0000000000000000e+00  7.8192887051803592e-03 -6.7494307291496303e-03 0.0000000000000000e+00  8.5730045650401175e-03 -1.0786787575999299e-02 0.0000000000000000e+00  -6.1155188487201032e-03 4.0387805627894302e-04 0.0000000000000000e+00  -1.2469396637799571e-02 -1.2867445615124197e-03 0.0000000000000000e+00  -1.0351193787063296e-02 -2.8917698853756484e-03 0.0000000000000000e+00  -1.2117735154244464e-02 -1.0328321697989360e-03 0.0000000000000000e+00  -1.4227618231927826e-03 1.2136866579731525e-02 0.0000000000000000e+00  -2.1194341840130436e-02 1.7924928980695337e-02 0.0000000000000000e+00  -5.1407660870934025e-03 -9.4997175185165678e-03 0.0000000000000000e+00  -1.9058938011222576e-02 -5.0530711930687165e-03 0.0000000000000000e+00  -7.3571232361917581e-03 -5.5124184607941015e-03 0.0000000000000000e+00  9.4938958305154763e-03 -4.5556824938195193e-03 0.0000000000000000e+00  1.3838678596185178e-02 -8.0741920161473794e-03 0.0000000000000000e+00  1.2206792115902303e-02 -4.9426629578220201e-03 0.0000000000000000e+00  9.0855243664120858e-03 -1.2757882913976594e-02 0.0000000000000000e+00  1.0088798515350673e-02 -1.2914617516131257e-02 0.0000000000000000e+00  6.9724680968879784e-03 2.3174502650204081e-02 0.0000000000000000e+00  3.5026754027839731e-03 2.0354123000960116e-02 0.0000000000000000e+00  -5.0387954381230964e-03 -8.1853738556604029e-03 0.0000000000000000e+00  6.6696486794519101e-04 -1.0676974131990459e-02 0.0000000000000000e+00  1.0117633168942265e-03 -1.2712780956452502e-02 0.0000000000000000e+00  -1.4045005501942430e-02 1.2826224345077530e-02 0.0000000000000000e+00  -9.6925311476036313e-05 2.4205798836145383e-02 0.0000000000000000e+00  -6.1907316739583359e-03 1.1856087249807861e-02 0.0000000000000000e+00  -2.0142763348056621e-03 1.7221000765380547e-02 0.0000000000000000e+00  3.0196944551038950e-03 -1.4653372583798376e-02 0.0000000000000000e+00  4.3463730301283266e-03 -1.2018258514917798e-02 0.0000000000000000e+00  -1.1649265666444463e-02 1.3281345971431482e-02 0.0000000000000000e+00  8.7173813492669693e-03 -1.2650255339674893e-02 0.0000000000000000e+00  6.0649868319124474e-03 -1.5117043042370795e-02 0.0000000000000000e+00  1.1751551211858429e-02 9.9349122683297705e-03 0.0000000000000000e+00  8.5203222634777451e-03 2.0181131332170309e-03 0.0000000000000000e+00  1.0287934283478161e-03 1.3820742615375822e-03 0.0000000000000000e+00  -1.8465294576695793e-03 -7.2249825538446503e-03 0.0000000000000000e+00  3.2154868638761655e-03 -1.1660074734375511e-02 0.0000000000000000e+00  -9.2760406623698215e-03 -6.6520480262052973e-03 0.0000000000000000e+00  -1.4367763928211083e-02