<?xml version="1.0"?>
<VTKFile type="UnstructuredGrid"  version="0.1"  >
<UnstructuredGrid>
<Piece  NumberOfPoints="2549" NumberOfCells="4928">
<Points>
<DataArray  type="Float64"  NumberOfComponents="3"  format="ascii">1.469509422236225 0.03658247415014142 0  1.46476058846628 0.05958444889717767 0  1.440818885571982 0.06843907413009091 0  1.428236264544932 0.08442380365105315 0  1.42269084798983 0.09658860815437686 0  1.417259845644172 0.1200790516664915 0  1.396987486484949 0.1232240286629454 0  1.364823015334191 0.1283417136660448 0  1.387501266882384 0.1524914670987509 0  1.489094944403104 0.2590397421152796 0  1.381343664051549 0.1770506144212911 0  1.374569649996452 0.2168838259735445 0  1.336692734295188 0.2338117938819845 0  1.33326780587929 0.261374204300077 0  1.329670894277211 0.2924834652454297 0  1.311000671324189 0.3247436364965856 0  1.301088287254289 0.3584224723830703 0  1.283110441831894 0.3694437076673306 0  1.269553725241268 0.421457093223654 0  1.256507314327559 0.4604081102121392 0  1.237950720683841 0.5051470322380014 0  1.21983262877803 0.5502447575429538 0  1.198483283928663 0.5977891239348295 0  1.173959937372815 0.6487471155982254 0  1.149133450872763 0.7028654510593693 0  1.113679636320879 0.7402412132103315 0  1.084466690394793 0.7945483752080644 0  1.050706336747219 0.8499501806977484 0  1.011012431934421 0.9039999099748489 0  0.9684366963819979 0.9595977581055951 0  0.9216381833678404 1.014482982038297 0  0.8698954682762496 1.069886905108749 0  0.8143140232154196 1.122671067461951 0  0.7554770457127291 1.172404602580119 0  0.6899266271899214 1.223412288196618 0  0.6213065245482837 1.270546024771168 0  0.547381054038516 1.314128418599398 0  0.4695108841814646 1.353714285872151 0  0.3877150539561184 1.387937503537115 0  0.3021526104109888 1.417334506004769 0  0.2138119510715229 1.439978705376672 0  0.1240049679796556 1.455348193159419 0  0.03178966950345007 1.465339040322584 0  -0.06055448303284922 1.46709449647101 0  -0.1529805993014574 1.461775075587012 0  -0.2441309699959121 1.448607409595823 0  -0.3334404611826804 1.428930192689724 0  -0.4200516712619464 1.40045732619424 0  -0.5025025143128553 1.368841226385771 0  -0.5823695117217863 1.330397868566996 0  -0.6574496850950993 1.285032459887557 0  -0.7279129157714981 1.236651377860605 0  -0.7932293925584066 1.183941633421435 0  -0.8541850382141248 1.128500905160132 0  -0.9085236522985168 1.071379852234247 0  -0.9617332160702218 1.010386590332181 0  -1.004143955942568 0.9574355743684378 0  -1.04870675117652 0.9029596919295511 0  -1.087609049516355 0.8412000790174009 0  -1.121236298915616 0.7830053622033464 0  -1.151354938590552 0.7272755822484737 0  -1.175590104384535 0.6672979239915736 0  -1.204216567197676 0.624363781619957 0  -1.221175357956933 0.5499434656070149 0  -1.222445277913429 0.5108958113537672 0  -1.263165423006335 0.4964501078731434 0  -1.278245499945347 0.4469471198340993 0  -1.2876880946002 0.4081386795350132 0  -1.296476246515788 0.370312720725234 0  -1.320672215801729 0.3470986839235823 0  -1.326766396057248 0.2975851561004784 0  -1.31066184968006 0.3252153062246722 0  -1.375389150154601 0.2868082184767556 0  -1.36880102467504 0.1917590975523301 0  -1.366954433783131 0.1668048215254932 0  -1.3697254260691 0.1337203872852354 0  -1.382307490380384 0.1159281062944408 0  -1.385403260509242 0.08399753047526061 0  -1.393491936980998 0.1069389363472146 0  -1.368848206097367 0.02540688532580148 0  -1.399442929556194 0.09441010265635295 0  -1.433485198972678 0.1545936401237092 0  -1.464853710208696 0.07984875887261456 0  -1.474687521974885 0.05200714870611207 0  -1.500527882627179 0.02626229664232891 0  -1.483958676508981 -0.0005951502893009261 0  -1.469988810148827 -0.03105332195560721 0  -1.53448430111917 -0.3416417245818217 0  -1.396018679762368 -0.04624146295199751 0  -1.35781751720243 0.2986657484420379 0  -1.437806809614033 -0.06370830373195656 0  -1.456970728188192 0.009054030104989645 0  -1.417981239476579 -0.1243536001159386 0  -1.388962100955489 -0.09035849353781152 0  -1.372606994826513 -0.1034115501292448 0  -1.379631817802243 -0.1263552467296407 0  -1.397044650291782 -0.2430484296360875 0  -1.311585995788862 -0.3410804670387992 0  -1.35892901525052 -0.2431467437971806 0  -1.355921716683502 -0.3014983650422222 0  -1.319322768928619 -0.3270940866616272 0  -1.324213801973076 -0.3660039534080736 0  -1.320648196270546 -0.4051784643861717 0  -1.354619873770799 -0.4472480858698762 0  -1.234008145589838 -0.4677175503656478 0  -1.204224405080919 -0.5004453116918207 0  -1.25081901424775 -0.6207038060596634 0  -1.196503181810557 -0.6379551471468969 0  -1.187063522966873 -0.7035583653905148 0  -1.159991768845837 -0.766968143651878 0  -1.14041751408336 -0.8309941482822178 0  -1.092773391662215 -0.9093883461635143 0  -1.029759792431031 -0.9353447381412662 0  -1.008544342567798 -1.009277794705826 0  -0.9531743119313125 -1.091753632144638 0  -0.89598524877824 -1.145893219322088 0  -0.8351060227644659 -1.214875722759343 0  -0.7681186969675388 -1.274203557271368 0  -0.6955985237098603 -1.331547683526649 0  -0.6158632610840157 -1.384257720782448 0  -0.5334241859525575 -1.432611353120867 0  -0.4475298175768828 -1.470165941859844 0  -0.3541079124866768 -1.505474867194597 0  -0.2598322379385696 -1.532670902005509 0  -0.1614688595530139 -1.550964172196187 0  -0.06193612833382328 -1.560739671081545 0  0.03847368044756166 -1.561511768636377 0  0.1384570366543194 -1.553209293847127 0  0.2370843166640842 -1.536174742188447 0  0.3330961011262252 -1.510627487213269 0  0.425950127387762 -1.477516750390125 0  0.5147563220148887 -1.437205231315908 0  0.5987670245602106 -1.390703355154785 0  0.6779600031625773 -1.338589442127465 0  0.7505161674222989 -1.282689534355988 0  0.820240529093624 -1.221301929120788 0  0.8798836746490118 -1.164316589386567 0  0.9369449897955349 -1.102728815614148 0  0.9904248846092257 -1.037087773000624 0  1.036918217933567 -0.9728559056701767 0  1.078936682898301 -0.9084593209990933 0  1.116850528731233 -0.8457042433319326 0  1.149199591097838 -0.7832233266796067 0  1.178938364753042 -0.7228716969558364 0  1.208560747534778 -0.6757170887520934 0  1.231080224100259 -0.6168204769315636 0  1.2544126274136 -0.5605632261536735 0  1.271197819618179 -0.5070759687906715 0  1.291562173581627 -0.4595610807107235 0  1.290205699803167 -0.403307194075472 0  1.312079484720105 -0.3757100629071966 0  1.3009897144081 -0.2976005976230073 0  1.284566364871137 -0.302992793592589 0  1.34456264315282 -0.2692322736044041 0  1.365216186382576 -0.2221062176770777 0  1.356629352659514 -0.1910150918200624 0  1.363633236821911 -0.161579018469267 0  1.373588378378071 -0.1341562506366564 0  1.372020367014668 -0.0997233818566363 0  1.261200291574526 0.2186358411506277 0  1.399107183153586 -0.06990458943847115 0  1.398164917758873 -0.07988077604475714 0  1.406715306085947 -0.05217405385380013 0  1.425776325453917 -0.03915778016892579 0  1.42574348595032 -0.01908596749018533 0  1.435532419531967 -0.008002573507959694 0  1.442701169412009 0.00757946864681752 0  1.462382783049275 0.01613953666551662 0  -0.097784879154392 0.8875560272295741 0  0.6902714361713617 -0.5039851177386766 0  -0.8035790888648253 -0.3886879569351321 0  -0.07195512656227673 -0.9473039374976303 0  0.6491594140494797 0.4987806823212745 0  1.086629453560446 0.1185599925342224 0  -0.7945249998091527 0.4032442810159038 0  -1.154775564995192 0.02545394600207765 0  1.097484498978689 -0.06031852366354333 0  -1.036678088746627 -0.1785134025884349 0  -0.7322636271255598 0.01200473737470067 0  -0.4380275192313923 -0.1418996747291502 0  -1.026994661798154 0.2068058371015827 0  0.383992856498839 -0.8324167134225143 0  0.08316761800787047 -0.3054773450091575 0  0.3054239657339887 0.7716242544781663 0  0.2173561805007723 0.1860048634863429 0  0.5600254242654894 0.01824161399738225 0  -0.4784381176308815 -0.7005404494470258 0  -0.5040667006941291 0.6922764307827723 0  -0.2411908367550784 0.3079787895339406 0  0.9163679209553253 -0.2093788972027479 0  0.8939225696660666 0.248601651822778 0  0.3515780189632713 -0.2148956134215176 0  -0.01251520617872909 0.2349264877262857 0  -0.4920165055567077 0.2094310261015445 0  -0.1874486758203391 -0.2813753950152954 0  0.8599050055121634 0.02440789013672491 0  1.245978089490113 0.03510764485441055 0  0.8035486874131116 -0.3373254959782321 0  0.7169992490208444 -0.1052779298159502 0  0.5841488917946498 -0.2067549591635435 0  0.4392970132503253 -0.07632019321414549 0  0.5134034228623412 -0.3704392774632355 0  0.8620022193326679 -0.08030112142971015 0  0.7122079698118761 0.02116524170926529 0  -0.8585825370329823 0.1201570707117722 0  -1.071634054336108 0.09760496954521902 0  -0.9477718306553462 0.01999669723719654 0  -0.8650785107814765 -0.0918666682763532 0  -1.074973349145876 -0.05531414132219937 0  -1.238782799049515 -0.08442893303321189 0  -1.311218073588146 0.0003060054782954144 0  -1.306987612484829 0.05580457939359434 0  -1.228404880699027 0.1369293642304311 0  -0.1272286685507353 -0.614853434656029 0  -0.2993042973025611 -0.5071935011686727 0  -0.2880743563248686 -0.8463886542461445 0  -0.3083630394117907 -0.2044004616365499 0  -0.4498175702033274 -0.4055677826550736 0  -1.22906898763823 -0.2022265686673405 0  -1.210740093266332 0.2419641992321032 0  0.3834396539170787 -0.5033167221411778 0  0.2151064931591142 -0.2470934283125649 0  0.2443620772024856 -0.562599342361806 0  -0.911133227139457 0.2895208016898246 0  -0.7271330350794243 0.1889426707242349 0  1.26784734000677 -0.07478533488546145 0  1.205072884984264 -0.1724292159240446 0  1.184317792898496 0.2296560799241837 0  1.259332624255213 0.1437489452937997 0  -0.9097665426778238 -0.6559627520621091 0  -1.043276458904435 -0.4488758162495056 0  -1.021086205786504 0.4732108262110936 0  -0.887055261561111 0.661658004533169 0  0.9431076167420533 -0.6012730141998855 0  0.7790244235515006 -0.8210754862193166 0  0.731085718551669 0.7948388204603488 0  0.8982695366696982 0.6088949971398224 0  0.049483960
[...]
<PointData  Vectors="f_22766"> 
<DataArray  type="Float64"  Name="f_22766"  NumberOfComponents="3" format="ascii">1.7867617949621700e-02 -2.6967398430390734e-02 0.0000000000000000e+00  1.9748020995696634e-02 -2.6822226184202120e-02 0.0000000000000000e+00  2.0866833568856540e-02 -2.5881705300201691e-02 0.0000000000000000e+00  2.2710309715311315e-02 -2.4978341547325214e-02 0.0000000000000000e+00  2.4682047591663328e-02 -2.5747959722355586e-02 0.0000000000000000e+00  3.0301326989695659e-02 -2.5825327072274900e-02 0.0000000000000000e+00  3.4397513671763094e-02 -1.6691891447392380e-02 0.0000000000000000e+00  3.9716105505910961e-02 -1.9897341478541598e-02 0.0000000000000000e+00  3.4067566759282249e-02 6.4156927023009723e-03 0.0000000000000000e+00  -5.3803589287411047e-01 7.0802115877184346e-01 0.0000000000000000e+00  1.6914348556838758e-02 -6.2703244701051318e-03 0.0000000000000000e+00  1.1965247481925470e-02 -1.4027894994922107e-02 0.0000000000000000e+00  1.1498814541760797e-02 -1.1808730231655020e-02 0.0000000000000000e+00  1.6093076166258154e-02 -1.2644259246416231e-02 0.0000000000000000e+00  1.7665613788813945e-02 -1.1079080239589209e-02 0.0000000000000000e+00  1.9062848901164289e-02 -9.5680753415757006e-03 0.0000000000000000e+00  2.5992035034824966e-02 -6.3266860906717997e-03 0.0000000000000000e+00  1.8034932512522642e-02 -6.8197414008341626e-03 0.0000000000000000e+00  1.5780140846076821e-02 -9.1421813846922391e-03 0.0000000000000000e+00  2.0412493486839253e-02 -3.4390637540187390e-03 0.0000000000000000e+00  1.5288158046628671e-02 -4.5694886410114080e-03 0.0000000000000000e+00  1.5119039258454708e-02 -2.8261682353912976e-03 0.0000000000000000e+00  1.1368438472547655e-02 -2.9211550894872170e-03 0.0000000000000000e+00  1.5797422216746869e-02 -1.3955392315350720e-03 0.0000000000000000e+00  1.7151409778723321e-02 7.8888537200246609e-03 0.0000000000000000e+00  -3.5933355400731173e-03 -1.0926192485143330e-02 0.0000000000000000e+00  5.3444689245443116e-03 -7.1197905953538625e-03 0.0000000000000000e+00  9.2893701286489820e-03 -1.1963415938262445e-03 0.0000000000000000e+00  5.0172542680071161e-03 -4.1658880999401121e-03 0.0000000000000000e+00  4.0251591358110616e-03 -3.7394758304497978e-03 0.0000000000000000e+00  2.9145262748396404e-03 -4.6826481911759520e-03 0.0000000000000000e+00  1.4652303358829769e-03 -5.6788471934686871e-03 0.0000000000000000e+00  1.3399764991525239e-03 -6.1683052942331220e-03 0.0000000000000000e+00  9.4634240692288447e-04 -6.9214864763631158e-03 0.0000000000000000e+00  -1.6388378307518460e-06 -8.4452944526683046e-03 0.0000000000000000e+00  -2.6436350620345862e-07 -9.2989420654923279e-03 0.0000000000000000e+00  2.5264743362300138e-04 -1.0448786118923050e-02 0.0000000000000000e+00  4.4194813723862173e-04 -1.1372448235141181e-02 0.0000000000000000e+00  1.3054427129655297e-03 -1.2137043231707605e-02 0.0000000000000000e+00  1.7945577189060434e-03 -1.3382993489347086e-02 0.0000000000000000e+00  3.1482356340295243e-03 -1.3173042191975647e-02 0.0000000000000000e+00  4.4198652565072870e-03 -1.3441727013639458e-02 0.0000000000000000e+00  5.3499327545051501e-03 -1.3898245489144244e-02 0.0000000000000000e+00  6.9696930619427590e-03 -1.3705734142713319e-02 0.0000000000000000e+00  8.1415741777903471e-03 -1.3370627016156038e-02 0.0000000000000000e+00  9.7271210390749881e-03 -1.3001009169157765e-02 0.0000000000000000e+00  1.0807563450136089e-02 -1.1867080878820917e-02 0.0000000000000000e+00  1.2173469688193054e-02 -1.1042873348696790e-02 0.0000000000000000e+00  1.3139012628755140e-02 -9.8008437805155099e-03 0.0000000000000000e+00  1.4209751878186783e-02 -8.4639065747632008e-03 0.0000000000000000e+00  1.4793251325499955e-02 -6.8450624602411593e-03 0.0000000000000000e+00  1.5184894786458564e-02 -4.8185831023118521e-03 0.0000000000000000e+00  1.5150199690419820e-02 -3.0499078469712212e-03 0.0000000000000000e+00  1.5165897608381832e-02 -9.5983911121978412e-04 0.0000000000000000e+00  1.4083023493379601e-02 1.1366488812646677e-03 0.0000000000000000e+00  1.3101912564201490e-02 3.3904981304196118e-03 0.0000000000000000e+00  1.2838966567502828e-02 3.8367616731580729e-03 0.0000000000000000e+00  1.0591793081596038e-02 7.9723751053692050e-03 0.0000000000000000e+00  9.6032971364563187e-03 7.9645360878693294e-03 0.0000000000000000e+00  6.6864927270332232e-03 9.5705354894359707e-03 0.0000000000000000e+00  1.1063428192636567e-02 8.0277050991305644e-03 0.0000000000000000e+00  1.0726429139740448e-02 7.4497999457949137e-03 0.0000000000000000e+00  -2.3439712926562888e-03 1.8286491589237140e-02 0.0000000000000000e+00  1.1661880956564558e-02 8.1524753177697230e-03 0.0000000000000000e+00  1.2314826997018977e-02 4.7966605745238308e-03 0.0000000000000000e+00  -2.6349562975616853e-03 2.1132244587799769e-02 0.0000000000000000e+00  -1.3242446337758432e-03 1.5366213717184779e-02 0.0000000000000000e+00  -2.5011090035499429e-03 1.6221064276620418e-02 0.0000000000000000e+00  4.4707307750477768e-03 1.2903068406959487e-02 0.0000000000000000e+00  -1.6830384137064790e-03 1.9240652929822310e-02 0.0000000000000000e+00  -1.4357149878421424e-02 1.8497583154526608e-02 0.0000000000000000e+00  7.8961477589031270e-03 5.8831023526672854e-03 0.0000000000000000e+00  -5.9848987933843953e-03 1.3267569528350443e-02 0.0000000000000000e+00  -1.2547946090768985e-02 1.2905532571266642e-02 0.0000000000000000e+00  -8.7958363276655037e-03 1.3336047529284046e-02 0.0000000000000000e+00  -1.7333268225399122e-02 1.3421602557030860e-02 0.0000000000000000e+00  -2.4854724005612901e-02 1.8362808695750306e-02 0.0000000000000000e+00  -7.0418578057513656e-02 1.3702267421160440e-02 0.0000000000000000e+00  -2.1303976711563054e-02 2.8466545312673175e-02 0.0000000000000000e+00  -7.3039360812741830e-02 -7.0931857008733690e-03 0.0000000000000000e+00  -4.7986460806296677e-02 2.3723238636711632e-03 0.0000000000000000e+00  -3.8084904593544099e-02 -8.6042638183688944e-03 0.0000000000000000e+00  -4.4567823230650623e-02 -2.4654771546181484e-02 0.0000000000000000e+00  -3.3574600683048954e-02 -3.4621726595527882e-02 0.0000000000000000e+00  -1.6648700903499347e-02 -5.0072471537510196e-02 0.0000000000000000e+00  -9.7360926051167813e-03 -4.5207233242113121e-02 0.0000000000000000e+00  9.7083343250912429e-03 -6.0143478744168609e-02 0.0000000000000000e+00  1.7125886897344580e+00 -5.7361937257862516e-01 0.0000000000000000e+00  2.6795536413731124e-02 2.9274543437784312e-02 0.0000000000000000e+00  -1.6369100636692797e+00 2.4080364866096307e-01 0.0000000000000000e+00  6.0758467684026776e-03 -1.0047316997002142e-03 0.0000000000000000e+00  9.9920651615413268e-03 1.1914373254359671e-03 0.0000000000000000e+00  3.0061067348430601e-02 -7.0518224306428349e-03 0.0000000000000000e+00  2.3268768733314765e-04 1.3321547095600220e-02 0.0000000000000000e+00  8.4029628302307105e-04 1.4653057287611257e-02 0.0000000000000000e+00  1.7387386984073962e-03 1.7639690887329643e-02 0.0000000000000000e+00  -2.3913978821403104e-03 1.7764814461308783e-02 0.0000000000000000e+00  -1.0438731454892651e-01 -4.2607048400605238e-02 0.0000000000000000e+00  -1.2593775313699618e-03 2.0763930906433276e-02 0.0000000000000000e+00  -2.8069796667497438e-03 2.3099769356266120e-02 0.0000000000000000e+00  -1.6299198691489727e-02 1.5883547978115496e-02 0.0000000000000000e+00  -2.6091417797249512e-02 2.2906994197909956e-02 0.0000000000000000e+00  -4.2385487725184620e-02 1.6077539759946212e-02 0.0000000000000000e+00  5.3705982999115824e-02 -2.5065628737312894e-02 0.0000000000000000e+00  -1.5542749118352225e-02 5.4266402174889981e-03 0.0000000000000000e+00  -1.7360090404031612e-02 3.1071425098485564e-03 0.0000000000000000e+00  -7.1638006606706706e-03 1.4258785869284607e-02 0.0000000000000000e+00  -1.3612470111724487e-02 4.2279877936694989e-03 0.0000000000000000e+00  -9.4139430864398615e-03 7.6524497799239826e-03 0.0000000000000000e+00  -1.0726357614214333e-02 7.8247322297613497e-03 0.0000000000000000e+00  -8.1554257665309056e-03 8.8004230113803150e-03 0.0000000000000000e+00  -2.2632705802684713e-02 5.2999955809575621e-04 0.0000000000000000e+00  -1.3184376296766777e-02 8.4525430157400602e-03 0.0000000000000000e+00  -3.9253540622564941e-03 1.1625188072632372e-02 0.0000000000000000e+00  -8.1884771025698966e-03 1.1973213401817765e-02 0.0000000000000000e+00  -9.3770903088587453e-03 1.2661547653638337e-02 0.0000000000000000e+00  -9.1483486581113421e-03 1.3694677442041052e-02 0.0000000000000000e+00  -9.7115628108699337e-03 1.4757587255253606e-02 0.0000000000000000e+00  -1.0891747451390843e-02 1.5353258081204232e-02 0.0000000000000000e+00  -1.1736313617662929e-02 1.5997714945678271e-02 0.0000000000000000e+00  -1.3561376542627041e-02 1.6161786777604367e-02 0.0000000000000000e+00  -1.4487107712207705e-02 1.6474561291278434e-02 0.0000000000000000e+00  -1.6516481707402844e-02 1.5887954255158182e-02 0.0000000000000000e+00  -1.8045832591901564e-02 1.5797765510727303e-02 0.0000000000000000e+00  -1.9703937367765545e-02 1.5144802224649340e-02 0.0000000000000000e+00  -2.1468270526683896e-02 1.3995699848313994e-02 0.0000000000000000e+00  -2.3032204403292254e-02 1.2892455420764868e-02 0.0000000000000000e+00  -2.4475050702081464e-02 1.1042875346677732e-02 0.0000000000000000e+00  -2.5786761095808696e-02 9.6374819731293825e-03 0.0000000000000000e+00  -2.6876659177016839e-02 7.7525798293494042e-03 0.0000000000000000e+00  -2.7621573923772135e-02 5.2741209353000000e-03 0.0000000000000000e+00  -2.8004102174038977e-02 2.8862899759552604e-03 0.0000000000000000e+00  -2.8099539329920115e-02 3.6612910662435591e-04 0.0000000000000000e+00  -2.7644364787572009e-02 -2.4329529865731738e-03 0.0000000000000000e+00  -2.7253268844191388e-02 -4.7582035415203120e-03 0.0000000000000000e+00  -2.4899467996477010e-02 -8.2113378877571499e-03 0.0000000000000000e+00  -2.4134575242760300e-02 -9.9652329402305940e-03 0.0000000000000000e+00  -2.3917903274976723e-02 -1.1391791095099300e-02 0.0000000000000000e+00  -2.1598603971490750e-02 -1.3888132233119960e-02 0.0000000000000000e+00  -1.9521992711273244e-02 -1.5971066089757683e-02 0.0000000000000000e+00  -1.7195221045654907e-02 -1.7256846142633023e-02 0.0000000000000000e+00  -1.4708651943195443e-02 -1.9572130041095055e-02 0.0000000000000000e+00  -1.1546194371413909e-02 -1.9846991618418963e-02 0.0000000000000000e+00  -2.1169088771265738e-02 -1.5480207125029857e-02 0.0000000000000000e+00  -7.6386501428907620e-03 -2.6945226623988308e-02 0.0000000000000000e+00  -3.6042741897643268e-03 -2.3113059496180848e-02 0.0000000000000000e+00  -5.5459908203964910e-03 -2.4845227857525954e-02 0.0000000000000000e+00  -8.2976503692470116e-03 -1.9911943371757737e-02 0.0000000000000000e+00  -4.0739094300374076e-02 -1.6730831156279064e-02 0.0000000000000000e+00  -5.7931609917439000e-03 -2.4230031968866757e-02 0.0000000000000000e+00  1.2579081047877933e-02 -2.5183930310528610e-02 0.0000000000000000e+00  8.5578229427456978e-02 -9.2337317430149571e-03 0.0000000000000000e+00  7.6049698282470088e-02 -9.5977457518193893e-02 0.0000000000000000e+00  1.1799853505917963e-02 -2.1504559588355603e-02 0.0000000000000000e+00  -2.2300196219511418e-03 -1.3116980051600981e-02 0.0000000000000000e+00  1.8768579622956933e-02 -1.2005363949465315e-02 0.0000000000000000e+00  7.1114592147238738e-03 -1.1412493280602412e-02 0.0000000000000000e+00  4.5442889617356465e-03 -5.6216665336400211e-03 0.0000000000000000e+00  1.5647544163292400e-03 -6.5810426445797304e-03 0.0000000000000000e+00  3.9985429878899978e+00 1.5053804672609057e+00 0.0000000000000000e+00  5.9860078692845604e-02 -6.7283561884049742e-02 0.0000000000000000e+00  2.4785399979869255e-02 -4.9831872633602434e-02 0.0000000000000000e+00  2.1733160692503674e-02 -2.7390213476471716e-02 0.0000000000000000e+00  2.2721012173983497e-02 -2.3983601982994821e-02 0.0000000000000000e+00  1.9843553611799101e-02 -2.4460467417061715e-02 0.0000000000000000e+00  1.9273599924375519e-02 -2.3110979036609077e-02 0.0000000000000000e+00  1.7180061242489608e-02 -2.4368393939193593e-02 0.0000000000000000e+00  1.7886970955232687e-02 -2.6517139835625519e-02 0.0000000000000000e+00  5.4448793985392959e-03 -1.3180704485427448e-02 0.0000000000000000e+00  -3.9986325175222939e-04 -5.0158982394270949e-03 0.0000000000000000e+00  -1.1172246105551830e-02 1.1687129269227457e-02 0.0000000000000000e+00  -1.4768701528578522e-02 1.3961373958503536e-02 0.0000000000000000e+00  1.1538099432936886e-02 -6.4657803018086605e-03 0.0000000000000000e+00  1.7310350355851444e-02 -9.8508559061025198e-03 0.0000000000000000e+00  2.2124926840043287e-04 4.3335394654712509e-03 0.0000000000000000e+00  -8.6726072814709981e-03 1.5242969755964798e-02 0.0000000000000000e+00  1.4547797155592759e-02 -1.2479628890821225e-02 0.0000000000000000e+00  -7.5483600413789502e-03 1.1767041223697480e-02 0.0000000000000000e+00  -5.0968348473938727e-03 9.0304100398520288e-03 0.0000000000000000e+00  -3.7974734018114860e-03 8.5301325313141291e-03 0.0000000000000000e+00  -6.2029170354912112e-03 1.1159762922152167e-02 0.0000000000000000e+00  -1.1602337684278052e-02 4.3348751359634863e-03 0.0000000000000000e+00  4.3524489852483630e-03 3.5489452763595637e-03 0.0000000000000000e+00  6.1368207296716194e-03 -1.1137500431945018e-02 0.0000000000000000e+00  9.0137184219103231e-03 -7.4400485219371969e-03 0.0000000000000000e+00  1.2621973208977094e-02 -3.2664141521538711e-03 0.0000000000000000e+00  -1.3005144084014937e-02 1.5156966036059509e-02 0.0000000000000000e+00  5.6147910985919636e-03 -6.7673276873106529e-03 0.0000000000000000e+00  8.8312085265237466e-03 -9.8766032516546722e-03 0.0000000000000000e+00  1.0191140026301209e-02 -1.0281872562856847e-02 0.0000000000000000e+00  1.5924375451132580e-02 -6.4254968605414447e-03 0.0000000000000000e+00  8.2479759250318006e-03 1.9031306782331268e-03 0.0000000000000000e+00  9.9506253516166605e-03 -1.6623219102482583e-02 0.0000000000000000e+00  2.2207097429469895e-03 2.2700381594693660e-04 0.0000000000000000e+00  -3.8132377935256308e-03 5.6439682702032800e-03 0.0000000000000000e+00  1.4725310258627120e-02 -7.5652933532138139e-03 0.0000000000000000e+00  1.9166087330232975e-02 -1.2689800139906225e-02 0.0000000000000000e+00  5.6070603232366220e-03 -7.9127429788365001e-03 0.0000000000000000e+00  1.1850912124664053e-02 -5.4462666085328248e-03 0.0000000000000000e+00  9.0916901928412234e-03 -2.4290496761225238e-03 0.0000000000000000e+00  1.0774829910597044e-02 -8.8972296049401886e-04 0.0000000000000000e+00  4.4172881014950876e-03 -1.9406868230299070e-04 0.0000000000000000e+00  1.3081392640351153e-02 -8.3076120807278556e-03 0.0000000000000000e+00  1.3738625099081761e-02 -5.2968666502672315e-03 0.0000000000000000e+00  -5.1105906454591305e-03 9.4629223325252126e-03 0.0000000000000000e+00  -8.0119181391108442e-03 1.3073041663492399e-02 0.0000000000000000e+00  -6.8563785706549623e-03 1.1563881012817726e-02 0.0000000000000000e+00  -7.3583622968765331e-03 1.0969943300915552e-02 0.0000000000000000e+00  -6.9932015784093362e-03 1.3557044604144232e-02 0.0000000000000000e+00  -3.9670263037250809e-03 1.6815314964129514e-02 0.0000000000000000e+00  -1.0531341492638071e-02 1.8473575808457900e-02 0.0000000000000000e+00  -1.6755097086285250e-02 1.6387121709878327e-02 0.0000000000000000e+00  -1.1826446641539635e-02 1.4266104560177644e-02 0.0000000000000000e+00  -1.1354984531916960e-02 1.2324449688601361e-02 0.0000000000000000e+00  -1.1528185263888002e-02 1.3376537102085825e-02 0.0000000000000000e+00  -1.3883770253871970e-02 1.5475149230005153e-02 0.0000000000000000e+00  -3.1496854435616633e-03 7.4153064147333570e-03 0.0000000000000000e+00  -1.0322039708062541e-02 1.3367465617844401e-02 0.0000000000000000e+00  -3.5810083597138521e-03 1.4720546922911904e-02 0.0000000000000000e+00  -8.7256807843717095e-03 1.3441189824261530e-02 0.0000000000000000e+00  -1.6022441272201847e-04 3.3497233543922579e-03 0.0000000000000000e+00  7.1288560262814573e-03 3.3208579539340285e-03 0.0000000000000000e+00  -2.9768646132733619e-03 6.3642614531059108e-03 0.0000000000000000e+00  -3.1467316024988670e-03 8.2675491165130430e-03 0.0000000000000000e+00  -2.3859852383234796e-03 6.2106138275596044e-03 0.0000000000000000e+00  1.3481581254049428e-02 -1.3487448237770748e-02 0.0000000000000000e+00  1.1969834968965696e-02 -1.6759171899419320e-02 0.0000000000000000e+00  1.7530126169514583e-02 -9.5648743984932585e-03 0.0000000000000000e+00  2.0333139764961282e-02 -1.2959593036284795e-02 0.0000000000000000e+00  -1.2166038372387548e-02 1.1262489881907953e-02 0.0000000000000000e+00  -1.3296282917215524e-02 9.6114564099137271e-03 0.0000000000000000e+00  8.5245660388972186e-05 8.6550426234105037e-03 0.0000000000000000e+00  4.7397272367119270e-03 3.9278669652393463e-03 0.0000000000000000e+00  -5.0478173524740357e-03 -1.3130054545782805e-02 0.0000000000000000e+00  -1.2434055863330244e-02 -8.0656998813483354e-03 0.0000000000000000e+00  7.1007981276068853e-03 -6.4707149692996065e-03 0.0000000000000000e+00  1.1367681330799954e-02 -5.3468759289237748e-03 0.0000000000000000e+00  -1.9043559663429993e-02 1.2576867770726226e-02 0.0000000000000000e+00  -1.5114301742371498e-02 1.5684487746861431e-02 0.0000000000000000e+00  8.6179648174390926e-03 -1.2076412089191343e-02 0.0000000000000000e+00  5.4720165215965547e-03 -1.3486163867518183e-02 0.0000000000000000e+00  -6.0220143898362197e-03 -6.9653710617306600e-04 0.0000000000000000e+00  1.1163591270336386e-02 -3.3037579288477509e-03 0.0000000000000000e+00  1.3026046734328972e-02 -5.0441343300927617e-03 0.0000000000000000e+00  1.0940410233177947e-02 -7.0623583492620727e-03 0.0000000000000000e+00  -8.8481390155752508e-03 1.2094234251259580e-02 0.0000000000000000e+00  -4.0050381984386525e-03 8.2836054661425719e-03 0.0000000000000000e+00  -7.7442431436614053e-03 1.0874912363734744e-02 0.0000000000000000e+00  8.2403728065722753e-03 -1.3291182593977085e-02 0.0000000000000000e+00  1.9745533569114685e-02 -9.3158120519835387e-03 0.0000000000000000e+00  5.8005064724002426e-03 -1.1613054787773131e-02 0.0000000000000000e+00  -9.9050256225690844e-03 1.0515249931412890e-02 0.0000000000000000e+00  -3.6583911285593845e-03 1.1344096179061977e-02 0.0000000000000000e+00  -9.6405693757971363e-03 1.0851995768458116e-02 0.0000000000000000e+00  1.4441273495250604e-02 -5.2391811745800118e-03 0.0000000000000000e+00  1.4232818229682080e-02 -5.7253173952334022e-03 0.0000000000000000e+00  1.5508398637123756e-02 -6.7723114952757254e-03 0.0000000000000000e+00  8.8501765771028928e-03 -9.6776533900660450e-03 0.0000000000000000e+00  8.5692166859684567e-03 -8.5831253460819015e-03 0.0000000000000000e+00  -8.0518008100415855e-03 9.7318346931914365e-03 0.0000000000000000e+00  -1.4284901819246182e-02 9.9485536426502392e-03 0.0000000000000000e+00  4.8749217251505168e-03 -9.4061916944626379e-03 0.0000000000000000e+00  4.6935956492903143e-03 -1.2354762887455734e-02 0.0000000000000000e+00  5.9542682458516042e-03 -1.1229004701843938e-02 0.0000000000000000e+00  8.9736631261829146e-03 -2.3442965010450467e-03 0.0000000000000000e+00  -3.0719472615751585e-04 2.7811149430375251e-03 0.0000000000000000e+00  -1.7946373733575421e-02 -1.9602157519425694e-03 0.0000000000000000e+00  -2.0667366941474419e-02 6.4960760601622944e-03 0.0000000000000000e+00  3.5827265884967614e-03 -1.2212220502788673e-02 0.0000000000000000e+00  4.1431344794260506e-03 -9.1246352489891529e-03 0.0000000000000000e+00  1.1234036266957155e-02 -1.1226666808326929e-02 0.0000000000000000e+00  7.1434009680681207e-03 -1.1460367884790872e-02 0.0000000000000000e+00  5.1662821024954560e-03 -1.2890595347845757e-02 0.0000000000000000e+00  -1.2398161932719916e-02 1.5509607625480077e-02 0.0000000000000000e+00  -1.1789926581796744e-02 1.3420157090776806e-02 0.0000000000000000e+00  -1.2060768850246106e-02 1.3593604514045222e-02 0.0000000000000000e+00  8.3587368777312942e-03 -1.5660007072509018e-03 0.0000000000000000e+00  9.9771624180888478e-03 -8.0293085179326141e-03 0.0000000000000000e+00  3.4829138819082927e-03 -1.1462053958259330e-03 0.0000000000000000e+00  -1.9212134432657938e-03 5.7247204536015001e-03 0.0000000000000000e+00  