<?xml version="1.0"?>
<VTKFile type="UnstructuredGrid"  version="0.1"  >
<UnstructuredGrid>
<Piece  NumberOfPoints="2549" NumberOfCells="4928">
<Points>
<DataArray  type="Float64"  NumberOfComponents="3"  format="ascii">1.472048563464113 0.03275017633872893 0  1.467566951039106 0.05577278130275784 0  1.443784240974115 0.06476106259206252 0  1.431463593663947 0.08087416782349582 0  1.426198377913818 0.09292960300610419 0  1.421565923199456 0.1164090519565248 0  1.401875667178485 0.1208519682201372 0  1.370467013386172 0.1255141313763416 0  1.39234255929955 0.1534031918676487 0  1.412635445351124 0.3596556003412359 0  1.383747337550984 0.1761595477206727 0  1.376270013932423 0.214890342196215 0  1.338326814123688 0.2321336723850538 0  1.335554769552484 0.2595773469887553 0  1.332181328987288 0.2909090332488011 0  1.313709665086112 0.3233839312107532 0  1.304781977590613 0.3575233962144381 0  1.285673359889233 0.3684745641249056 0  1.271796218130758 0.4201579111092752 0  1.259408104120724 0.4599193898584925 0  1.240123298612477 0.5044976688459996 0  1.221981173481383 0.5498431348810151 0  1.200098836203384 0.5973740028290567 0  1.176204886092784 0.6485487975455383 0  1.151570812798027 0.7039865246002168 0  1.113168992627849 0.7386885078703646 0  1.085226185108959 0.7935365921105321 0  1.052026435640158 0.8497801703319522 0  1.01172542664914 0.9034079016693686 0  0.9690087058988437 0.9590663466282198 0  0.9220523624623943 1.013817537707025 0  0.870103690030525 1.069079892384587 0  0.814504445328932 1.121794498558198 0  0.7556115290572852 1.17142100019283 0  0.6899263942970583 1.222212139671678 0  0.6213064869799699 1.26922456562419 0  0.5474169573982498 1.312643556784535 0  0.4695736887891641 1.352098163775894 0  0.3879005685234481 1.386212725956736 0  0.3024076324012029 1.415432668243453 0  0.214259342263567 1.438106703489198 0  0.1246330686098655 1.453438008862296 0  0.0325499406745538 1.463363980848159 0  -0.05956403007772101 1.465146794504337 0  -0.1518236120235212 1.459874995207235 0  -0.2427486629570773 1.446759855071284 0  -0.3319046140425284 1.4272437790671 0  -0.4183217171707582 1.398888039506273 0  -0.5006353483171708 1.367448442715258 0  -0.5803501845269865 1.329195075100426 0  -0.6553474376415778 1.284059718006167 0  -0.7257550124347382 1.235966616016604 0  -0.7910764196913381 1.183508215448355 0  -0.8520298345387414 1.128364503818537 0  -0.9065223342903649 1.071541379755385 0  -0.9598713223108103 1.010868409095616 0  -1.002319429056727 0.9579808109955789 0  -1.047201566849959 0.9040926345731261 0  -1.086244338912424 0.8423319076695879 0  -1.120286091148635 0.784365417097217 0  -1.149782730883576 0.728416387757076 0  -1.174065787123357 0.6683566042384437 0  -1.204549665552641 0.6269624483722112 0  -1.219518104997136 0.5511020020301158 0  -1.220695235740454 0.5115774578191942 0  -1.26353987281759 0.4994531804495767 0  -1.278433686426327 0.4491307901406759 0  -1.288043523566963 0.4104438314126233 0  -1.295840917460638 0.3721463570303502 0  -1.320911389945501 0.3498329451576956 0  -1.328806669767714 0.3002138207683918 0  -1.309539739593945 0.3260513453527564 0  -1.376239655426981 0.2886936535066679 0  -1.370584195063741 0.1935930840362559 0  -1.368204397304642 0.16869998786463 0  -1.372188631634007 0.1356277117250669 0  -1.385839559098686 0.1185376183598244 0  -1.395410342329506 0.08594473979117018 0  -1.396519414160039 0.1109842757440357 0  -1.379227723547378 0.02439888301117088 0  -1.406262215784344 0.09474723015399333 0  -1.43889738943289 0.1533709006931681 0  -1.471187178817731 0.07634510510782175 0  -1.479458759699163 0.04708710543972715 0  -1.502893805324544 0.01914657045982246 0  -1.485342258484032 -0.007019484526100126 0  -1.468609172862622 -0.03960022434060941 0  -1.291110810552025 -0.4231579402372234 0  -1.392210805012454 -0.04208130011551527 0  -1.590436428168992 0.3328860051021528 0  -1.436943379857057 -0.06385108469407853 0  -1.455550770325037 0.009223343532330038 0  -1.413709304869855 -0.1253557243563313 0  -1.388929034046302 -0.08846538783423856 0  -1.372487581542555 -0.1013292254467671 0  -1.379384728171935 -0.1238484958854315 0  -1.397384488370476 -0.2405238976625657 0  -1.326420325400511 -0.347135292785445 0  -1.359107983561819 -0.2401960117429024 0  -1.356320612485829 -0.2982156903794564 0  -1.321639024374408 -0.3248368987348378 0  -1.32792161544938 -0.3627486737429889 0  -1.326671536351501 -0.4028937085691069 0  -1.346987794553424 -0.4508101259531877 0  -1.236216903085796 -0.4669463784084237 0  -1.206691422306663 -0.5000037601839519 0  -1.251837051551724 -0.6186775107156276 0  -1.198437630161285 -0.6373543139441621 0  -1.188401324741859 -0.7024708868701359 0  -1.161516075942626 -0.765856182322853 0  -1.141576469790448 -0.8297435329537474 0  -1.095989692601954 -0.909313028696322 0  -1.03163340499167 -0.9341435595335594 0  -1.009102168930642 -1.007625756118455 0  -0.9543379645157463 -1.090052136183365 0  -0.8973178134585452 -1.144093905180333 0  -0.8364060813011103 -1.212929592044339 0  -0.7694987930491671 -1.272106377987055 0  -0.6971463341161241 -1.329365854326679 0  -0.6175310915611423 -1.381984308753766 0  -0.5353513734704117 -1.430314625082521 0  -0.4495885594062994 -1.467824765889774 0  -0.3564550457061787 -1.503217053098179 0  -0.2623967049903533 -1.530425904500531 0  -0.1642689574655215 -1.548811966355138 0  -0.06498695306823686 -1.558750762509726 0  0.03520060734210145 -1.55967964052731 0  0.1349789227575746 -1.551640006875229 0  0.2334197975090026 -1.534805173627042 0  0.3292766981382794 -1.50952577935704 0  0.4220248656474026 -1.476767252726506 0  0.5107766997406393 -1.436795064840766 0  0.5947738398503946 -1.390651325079373 0  0.674031502645675 -1.338935185541676 0  0.7466432449817074 -1.283365715748327 0  0.8167021018717864 -1.222468830418192 0  0.8764539452251321 -1.165732734161735 0  0.9335460513102054 -1.104347686496132 0  0.9873555383783253 -1.039061395294927 0  1.034143975911855 -0.975125530668661 0  1.076493095017545 -0.9109116663328488 0  1.114760303573021 -0.8484856102967431 0  1.147558778190581 -0.7860437538238385 0  1.175930056303225 -0.7250715666999867 0  1.207475230060769 -0.6795462357603103 0  1.230568025931615 -0.620105040236804 0  1.253624494715595 -0.5640939453881674 0  1.27001865257943 -0.5099056261342053 0  1.285772800078312 -0.4619386748189881 0  1.289382442111213 -0.4067504887160147 0  1.313867079652327 -0.3792889146552035 0  1.313151112259878 -0.2989127898257987 0  1.295373677005409 -0.3166320106398443 0  1.346239503191152 -0.2722882553246493 0  1.36489928153398 -0.2239702526552328 0  1.359296528241839 -0.1927211566489522 0  1.364643835959046 -0.1632008313087556 0  1.374234160680262 -0.1349551375003251 0  1.372242731991422 -0.100658604265603 0  1.829427426308471 0.4325632722641041 0  1.407613811969032 -0.07946615866502649 0  1.401687134940594 -0.08696231106658289 0  1.40980377397698 -0.05606643729712521 0  1.429005175483785 -0.04256605500220149 0  1.428563424524426 -0.02256200897748329 0  1.438271362815609 -0.011286841162113 0  1.445142602955162 0.004116511587690629 0  1.464924674504674 0.01237122444884892 0  -0.09701111525364763 0.8856829364647099 0  0.6902146121855957 -0.504697919750144 0  -0.8051667605273101 -0.3870271159743044 0  -0.07405388527982484 -0.9453199069281413 0  0.6507990765967899 0.4978618396763803 0  1.089089402300209 0.1171601017132022 0  -0.7944935583970618 0.4038601140133679 0  -1.156008016615982 0.02762010228837999 0  1.099551865296733 -0.06209198559421431 0  -1.037750775225488 -0.1768412054558573 0  -0.7329879309207967 0.01328803582565106 0  -0.4385671726593721 -0.140687469988111 0  -1.027876149326172 0.2083917347970107 0  0.3823440651469591 -0.8318006906148572 0  0.08378613820971739 -0.3049730095520121 0  0.3062960604120147 0.7700415204728775 0  0.2186371069301473 0.1849475690001499 0  0.5618191145404089 0.01777742862782286 0  -0.4802862597621635 -0.6983865150244088 0  -0.503268790888546 0.6913147356770269 0  -0.2399358465417775 0.306575239795051 0  0.9178161690582858 -0.2108400391746577 0  0.8961855595257304 0.2476885337991966 0  0.3527501268389224 -0.2146251622857934 0  -0.01110113726675679 0.2325641862106422 0  -0.4917009237214912 0.2094632852840267 0  -0.1879905695031222 -0.2805733388842447 0  0.8619975979593797 0.02333279728952086 0  1.248701754315201 0.03330431579287897 0  0.8043454986094405 -0.3384499643869419 0  0.7186833649253067 -0.1060518908510914 0  0.5854408986791108 -0.2071001478839773 0  0.4408282086747304 -0.07644663045142909 0  0.5140311572567966 -0.3704668562817253 0  0.8638611970355132 -0.08148170411280495 0  0.7141603458645729 0.02041251168513782 0  -0.8593087956446972 0.1215018328562598 0  -1.072772616382758 0.09946276050287575 0  -0.9487461806527462 0.0216400235673669 0  -0.8661241969569038 -0.09030774557152006 0  -1.075967142862125 -0.0533875694098293 0  -1.239346547394051 -0.08203933305375583 0  -1.312714667227227 0.002931258497138071 0  -1.309368654989152 0.05813332945178848 0  -1.230085519849227 0.1389566996229968 0  -0.1288423089054997 -0.6131020250163337 0  -0.3009425509617115 -0.5052925809151702 0  -0.2900473587446388 -0.8441895032721077 0  -0.3088106366341611 -0.2033466832152651 0  -0.4512844202698856 -0.4036681515370171 0  -1.229577879533568 -0.2001346531308423 0  -1.211980087085512 0.2438743071900235 0  0.3834168846585685 -0.502840697821924 0  0.216119564531865 -0.2466215060134331 0  0.243939039297225 -0.5616949264130094 0  -0.9115804045957655 0.2906956910832802 0  -0.7274721039751686 0.1898252520321916 0  1.269763187932095 -0.07670201655931912 0  1.206773900841353 -0.1748108374941421 0  1.186808973659838 0.2282968295197223 0  1.26222213720625 0.1419072763557319 0  -0.9114954407155195 -0.6543622559876768 0  -1.045165974352322 -0.4475099461430778 0  -1.021074091649555 0.4744407817438452 0  -0.8863817058096051 0.6622161880010056 0  0.9423902787518045 -0.6031389071754135 0  0.7772574379375556 -0.8222216911112192 0  0.7320948026572031 0.7939192765570269 0  0.8998849813481054 0.608135160369761 0  0.04677
[...]
<PointData  Vectors="f_27562"> 
<DataArray  type="Float64"  Name="f_27562"  NumberOfComponents="3" format="ascii">9.7660441104108157e-03 -6.0003777409196159e-03 0.0000000000000000e+00  1.0374397775694058e-02 -5.8732689446342650e-03 0.0000000000000000e+00  1.0617786956701226e-02 -6.7494636185815781e-03 0.0000000000000000e+00  1.2346215164761755e-02 -6.1934151829240083e-03 0.0000000000000000e+00  1.3500464121617121e-02 -6.5869761193338844e-03 0.0000000000000000e+00  1.5212044346644468e-02 -5.9014897430173475e-03 0.0000000000000000e+00  1.7183275210156564e-02 -5.0391620697408926e-03 0.0000000000000000e+00  2.1866816942821762e-02 6.5529777473672763e-03 0.0000000000000000e+00  1.7995893018613384e-02 -1.6242736437383713e-03 0.0000000000000000e+00  -1.5676447184031377e+00 2.7239106300822313e-01 0.0000000000000000e+00  2.1954371441922329e-02 4.9831891335391223e-03 0.0000000000000000e+00  1.0915410547630277e-02 -6.5222883830166186e-03 0.0000000000000000e+00  7.5518238360236982e-03 -3.7507317332511679e-03 0.0000000000000000e+00  1.4200567640840401e-02 -4.5201767218747977e-03 0.0000000000000000e+00  1.5526582699519124e-02 -2.2453560957516484e-03 0.0000000000000000e+00  1.6778485349711002e-02 -8.7602610608758166e-04 0.0000000000000000e+00  2.3418595906624134e-02 2.4421261519785016e-03 0.0000000000000000e+00  1.3022780727900654e-02 7.7345583134460572e-04 0.0000000000000000e+00  1.2659940452959330e-02 -2.5166765787081454e-03 0.0000000000000000e+00  1.7037923452359365e-02 3.9901503610367964e-03 0.0000000000000000e+00  1.0636563076622012e-02 1.7872397554968243e-03 0.0000000000000000e+00  1.1291200009282817e-02 3.9245802169454776e-03 0.0000000000000000e+00  5.7293982573043386e-03 3.4477722611921113e-03 0.0000000000000000e+00  1.2996545872896762e-02 5.1339270286924433e-03 0.0000000000000000e+00  1.2729603773364281e-02 1.7135717056232562e-02 0.0000000000000000e+00  -1.0537406482386219e-02 -7.8982038960840745e-03 0.0000000000000000e+00  -1.1253024005786485e-03 -4.5667767530193698e-03 0.0000000000000000e+00  5.9184427339675711e-03 4.4113482728505580e-03 0.0000000000000000e+00  1.5562908940314438e-04 -2.7398558001668239e-04 0.0000000000000000e+00  -7.0122886346257697e-04 6.6958040348748672e-04 0.0000000000000000e+00  -2.0047319338987696e-03 -6.3101245251433560e-04 0.0000000000000000e+00  -3.6414180325358434e-03 -1.8226003464585083e-03 0.0000000000000000e+00  -4.0503767274759671e-03 -2.6644404452850178e-03 0.0000000000000000e+00  -4.5916634332007844e-03 -3.7207924099116104e-03 0.0000000000000000e+00  -5.6655520455319913e-03 -5.5615494071631251e-03 0.0000000000000000e+00  -5.9131116206355885e-03 -6.8194950209156460e-03 0.0000000000000000e+00  -5.7606947918623632e-03 -8.3239909045773660e-03 0.0000000000000000e+00  -5.7345500201564916e-03 -9.6912035749254256e-03 0.0000000000000000e+00  -4.9750523963787109e-03 -1.0817131935187253e-02 0.0000000000000000e+00  -4.5451779618728601e-03 -1.2516407822484567e-02 0.0000000000000000e+00  -3.3099849936759854e-03 -1.2743264972879609e-02 0.0000000000000000e+00  -2.0157699940141632e-03 -1.3430319596132155e-02 0.0000000000000000e+00  -1.1302453812308667e-03 -1.4363888405501155e-02 0.0000000000000000e+00  5.4256481245529655e-04 -1.4605075688984937e-02 0.0000000000000000e+00  1.7324995508579072e-03 -1.4712997111296004e-02 0.0000000000000000e+00  3.4645632100701578e-03 -1.4811870262753738e-02 0.0000000000000000e+00  4.5768539397637057e-03 -1.4078412608696408e-02 0.0000000000000000e+00  6.1905487407623201e-03 -1.3719514214925383e-02 0.0000000000000000e+00  7.3136566962487010e-03 -1.2929717049335010e-02 0.0000000000000000e+00  8.5025115683216215e-03 -1.1870020308525716e-02 0.0000000000000000e+00  9.4111794777729536e-03 -1.0696244108778704e-02 0.0000000000000000e+00  1.0020857956998397e-02 -9.0510262038778627e-03 0.0000000000000000e+00  1.0313393023135999e-02 -7.6051390226857104e-03 0.0000000000000000e+00  1.0581904461090766e-02 -5.8622643445898721e-03 0.0000000000000000e+00  9.8773316618082276e-03 -4.0607908796366568e-03 0.0000000000000000e+00  9.3209585778902277e-03 -2.1745111307038675e-03 0.0000000000000000e+00  9.4169337002312850e-03 -1.9831887378863639e-03 0.0000000000000000e+00  7.5052150523140741e-03 1.9459790673692862e-03 0.0000000000000000e+00  6.7159428617972455e-03 1.7261296574714205e-03 0.0000000000000000e+00  3.9216989611149762e-03 3.5424438345629762e-03 0.0000000000000000e+00  8.3035688181831574e-03 1.4365263725127321e-03 0.0000000000000000e+00  1.1905440582007622e-02 -6.0478143853033356e-04 0.0000000000000000e+00  -1.4546446192569801e-03 1.2228767219709162e-02 0.0000000000000000e+00  4.7209750962138603e-03 3.0212277961631511e-03 0.0000000000000000e+00  1.0874431343521519e-02 -8.7061777564881055e-04 0.0000000000000000e+00  3.5201945962978174e-04 1.0777596870221911e-02 0.0000000000000000e+00  -2.4847996175522734e-04 7.5349514782190622e-03 0.0000000000000000e+00  6.7520246311165782e-04 7.7317166761478135e-03 0.0000000000000000e+00  4.9467645915480087e-03 5.6412534450331073e-03 0.0000000000000000e+00  1.1909747877526721e-03 7.7682155608534654e-03 0.0000000000000000e+00  -7.3696655677811069e-03 9.6012344302555171e-03 0.0000000000000000e+00  2.9305353013797237e-02 -1.4615042632969403e-02 0.0000000000000000e+00  -9.3176503472434946e-04 4.0339332865089398e-03 0.0000000000000000e+00  -1.2376121123347469e-03 5.5111750154211072e-03 0.0000000000000000e+00  2.2071192697998786e-03 5.8652307114530275e-03 0.0000000000000000e+00  -9.7914905776297267e-05 7.4573362657505216e-03 0.0000000000000000e+00  -5.3206111110396153e-03 1.1556190368972950e-02 0.0000000000000000e+00  -1.8017717516537843e-02 1.1534107426804685e-02 0.0000000000000000e+00  3.7124430939531662e-04 1.2730122567566483e-02 0.0000000000000000e+00  -5.5054576546519067e-02 -3.9353863544367707e-03 0.0000000000000000e+00  3.9637685162133077e-02 1.4683309954894485e-02 0.0000000000000000e+00  1.4796649200483394e-01 5.1668504961168503e-02 0.0000000000000000e+00  2.3797182918277451e-02 7.4166780221932349e-02 0.0000000000000000e+00  9.9321323411144750e-03 7.3119110376222693e-02 0.0000000000000000e+00  -2.2496523299899759e-03 8.7429531052961557e-02 0.0000000000000000e+00  -2.0003185264849465e-02 7.7921334733989517e-02 0.0000000000000000e+00  -4.2178248757500494e-02 7.8542972983577486e-02 0.0000000000000000e+00  -1.4883606619322693e+00 -4.7566154680127076e-01 0.0000000000000000e+00  -4.4010031838365909e-02 -2.6797676707752270e-03 0.0000000000000000e+00  1.7594102013833379e+00 9.2277410127415149e-01 0.0000000000000000e+00  -4.1787215710059014e-02 4.3095324370524657e-02 0.0000000000000000e+00  1.1473070307957573e-02 5.4661162877203733e-02 0.0000000000000000e+00  -3.6144150629944881e-02 2.1531054664307245e-02 0.0000000000000000e+00  -2.6425401814048611e-02 1.5354836483266646e-02 0.0000000000000000e+00  -2.7586771957308871e-02 9.3472151852733651e-03 0.0000000000000000e+00  -2.3087173273783439e-02 5.2347163922036302e-03 0.0000000000000000e+00  -9.9400162373987199e-03 -4.5739599279110029e-04 0.0000000000000000e+00  -2.1607590935753703e-02 -1.5462841317034699e-03 0.0000000000000000e+00  -1.1290363537370500e-02 6.6726823428079340e-03 0.0000000000000000e+00  -1.0690587018650955e-02 9.3141949415162639e-03 0.0000000000000000e+00  -1.5088668974925655e-02 7.0839588091862844e-03 0.0000000000000000e+00  -1.2294034182702166e-02 7.4851537815348044e-03 0.0000000000000000e+00  -8.9875482105917382e-03 1.1711281042261504e-02 0.0000000000000000e+00  -6.6809436014591750e-03 1.6559391743647685e-02 0.0000000000000000e+00  -1.8128807261783626e-02 3.1886287153738593e-04 0.0000000000000000e+00  -1.7171366772330561e-02 3.4337298952802196e-04 0.0000000000000000e+00  -3.1290938973167325e-04 9.4639777181959213e-03 0.0000000000000000e+00  -9.6327163803165416e-03 -1.2005392681398339e-03 0.0000000000000000e+00  -4.8043900847414859e-03 3.4849874328709745e-03 0.0000000000000000e+00  -8.0429248568631047e-03 2.0062118331874031e-03 0.0000000000000000e+00  -2.3655255875955549e-03 5.1215158693895388e-03 0.0000000000000000e+00  -1.5028146534367905e-02 -2.1919430918122527e-03 0.0000000000000000e+00  -8.4129311121443860e-03 4.7826890773404376e-03 0.0000000000000000e+00  -1.1006664826160824e-04 5.8053228908636649e-03 0.0000000000000000e+00  -4.8777818445517127e-03 5.7428284955151941e-03 0.0000000000000000e+00  -4.6724114896876268e-03 7.0767123588775091e-03 0.0000000000000000e+00  -2.7549542884866989e-03 9.4497018988982020e-03 0.0000000000000000e+00  -3.6336960545269915e-03 1.0380444704757682e-02 0.0000000000000000e+00  -4.0266859506316935e-03 1.1523374955536842e-02 0.0000000000000000e+00  -4.6151928728114279e-03 1.2647860843092941e-02 0.0000000000000000e+00  -5.8696139644689761e-03 1.3335475183814125e-02 0.0000000000000000e+00  -6.7106475825360343e-03 1.4037844039189526e-02 0.0000000000000000e+00  -8.3150756989006248e-03 1.4073555213744177e-02 0.0000000000000000e+00  -9.6164121595277690e-03 1.4481378196110112e-02 0.0000000000000000e+00  -1.1109823250318946e-02 1.4358672024721299e-02 0.0000000000000000e+00  -1.2715653318406853e-02 1.3764937787009254e-02 0.0000000000000000e+00  -1.4164874947655686e-02 1.3177189810891237e-02 0.0000000000000000e+00  -1.5575283421785841e-02 1.1878109845766071e-02 0.0000000000000000e+00  -1.6836378895334795e-02 1.0941025795596382e-02 0.0000000000000000e+00  -1.7916130423396043e-02 9.4824816893985964e-03 0.0000000000000000e+00  -1.8693646511557315e-02 7.5021313400302648e-03 0.0000000000000000e+00  -1.9146052026734965e-02 5.5741741581135226e-03 0.0000000000000000e+00  -1.9247879989660776e-02 3.4276513763370695e-03 0.0000000000000000e+00  -1.8988648986616476e-02 1.0897849986392758e-03 0.0000000000000000e+00  -1.8401328182549422e-02 -1.0348361612369798e-03 0.0000000000000000e+00  -1.6473512931772460e-02 -3.9159276242084207e-03 0.0000000000000000e+00  -1.5787630293992855e-02 -5.3556778179708019e-03 0.0000000000000000e+00  -1.5169065315323270e-02 -6.7428055755328498e-03 0.0000000000000000e+00  -1.3069607271524970e-02 -8.8461283387912659e-03 0.0000000000000000e+00  -1.0875484186292434e-02 -1.0669989854535648e-02 0.0000000000000000e+00  -8.7263280108740085e-03 -1.1643130998861511e-02 0.0000000000000000e+00  -4.7495693602714164e-03 -1.4088657640979056e-02 0.0000000000000000e+00  -6.2029659579774998e-03 -1.1560687468253800e-02 0.0000000000000000e+00  -1.1909277875531272e-02 -9.5576894598282721e-03 0.0000000000000000e+00  5.2410556346585962e-03 -2.1983591829165157e-02 0.0000000000000000e+00  5.7150186325679768e-03 -1.6236828525671310e-02 0.0000000000000000e+00  2.3078340066463245e-03 -1.6390545949955981e-02 0.0000000000000000e+00  1.2471409871713303e-02 -1.6674156015036953e-02 0.0000000000000000e+00  -1.0250923690137163e-02 -9.3170068404448310e-03 0.0000000000000000e+00  6.6286908120153753e-04 -1.3608038654257212e-02 0.0000000000000000e+00  1.3647198702436391e-02 -1.7088424959645462e-02 0.0000000000000000e+00  3.7292928248531622e-02 -2.2432596617391071e-02 0.0000000000000000e+00  8.3352264054330997e-03 -6.1564808100596892e-03 0.0000000000000000e+00  2.1458792643533755e-02 -9.5257911136787058e-03 0.0000000000000000e+00  1.4080255413955300e-02 -1.1712861614616573e-02 0.0000000000000000e+00  2.2501073921706319e-02 -1.1482325081324919e-02 0.0000000000000000e+00  1.9741238001350376e-02 -1.0510121850792659e-02 0.0000000000000000e+00  2.0344081233949863e-02 -1.0941617929168543e-02 0.0000000000000000e+00  2.2969590489277051e-02 -1.0169379819134470e-02 0.0000000000000000e+00  -3.3559100144418919e+00 2.8168359137036592e+00 0.0000000000000000e+00  1.4168166544069714e-02 6.6276487788139967e-03 0.0000000000000000e+00  2.0968384071459376e-02 -7.9757471520113508e-04 0.0000000000000000e+00  1.4991985636617312e-02 -3.3571255465219539e-03 0.0000000000000000e+00  1.2103186579614563e-02 -3.5545593217335986e-03 0.0000000000000000e+00  1.0529734871817020e-02 -2.1345260145264324e-03 0.0000000000000000e+00  9.9051089468632329e-03 -4.4106153769964554e-03 0.0000000000000000e+00  8.8308140599511614e-03 -3.2831860598832975e-03 0.0000000000000000e+00  9.1513859217906852e-03 -5.9380392650361970e-03 0.0000000000000000e+00  1.5218359086415054e-03 -1.4594327156896750e-02 0.0000000000000000e+00  5.5618803020558404e-03 -1.4576498222825453e-03 0.0000000000000000e+00  -1.1093720413069543e-02 6.7767776524575649e-03 0.0000000000000000e+00  -8.9998274027067639e-03 1.3165776391029001e-02 0.0000000000000000e+00  8.1569434017846575e-03 -3.5901489450261997e-03 0.0000000000000000e+00  1.4766094890871408e-02 -3.7765192219329662e-03 0.0000000000000000e+00  1.8627280768832767e-04 -1.0230290347828408e-03 0.0000000000000000e+00  -8.5346380038380607e-03 4.0763190231508165e-03 0.0000000000000000e+00  1.6132713344066477e-02 -7.0635207989103218e-03 0.0000000000000000e+00  -1.1742720980926727e-02 4.6396033110620970e-03 0.0000000000000000e+00  -5.4608903876915468e-03 2.9707172351769759e-03 0.0000000000000000e+00  -3.5224329238907181e-03 4.5636356983547385e-03 0.0000000000000000e+00  -3.4689442197471778e-03 3.7098468132419440e-03 0.0000000000000000e+00  -4.9980940470828643e-03 6.1988542181629783e-03 0.0000000000000000e+00  6.7874897085574799e-03 2.3040936454179046e-03 0.0000000000000000e+00  2.1631553930414964e-03 -1.0378689487391077e-02 0.0000000000000000e+00  7.9145491957857122e-03 -7.7900766435201616e-03 0.0000000000000000e+00  1.2911660242412880e-02 -1.0718770497028904e-03 0.0000000000000000e+00  -9.7550762714370028e-03 1.1904701780069993e-02 0.0000000000000000e+00  3.2164978017893719e-03 -1.0358229526276921e-02 0.0000000000000000e+00  7.6735302076787098e-03 -1.3097961815911987e-02 0.0000000000000000e+00  1.3790029561265170e-02 -5.6174636032967065e-03 0.0000000000000000e+00  1.3425026045843379e-02 -1.7757656309754569e-03 0.0000000000000000e+00  1.0601211619099875e-02 2.6766057046595871e-03 0.0000000000000000e+00  8.7593655558213315e-03 -1.8786523869241015e-02 0.0000000000000000e+00  1.7106187608010399e-03 -4.2069684051924076e-03 0.0000000000000000e+00  -2.3324224622131482e-03 2.8877627957992189e-03 0.0000000000000000e+00  1.4764720357196195e-02 -3.3417068268928101e-03 0.0000000000000000e+00  1.5008676614315186e-02 -5.6810325707525458e-03 0.0000000000000000e+00  1.0503057758003009e-02 -3.8625418965451295e-03 0.0000000000000000e+00  1.3620240029336161e-02 -2.1511456453434433e-03 0.0000000000000000e+00  1.1828735040123961e-02 3.3104306683359691e-05 0.0000000000000000e+00  1.1942655462953108e-02 4.5336441382217894e-04 0.0000000000000000e+00  8.6017699560231586e-03 1.9602229259086403e-03 0.0000000000000000e+00  1.4645253275842884e-02 -4.0783266390072934e-03 0.0000000000000000e+00  1.3964859955686200e-02 -2.0518842585233467e-03 0.0000000000000000e+00  -4.7184973362712481e-03 2.5051363486436437e-03 0.0000000000000000e+00  -5.9411533058905926e-03 3.9463701383537888e-03 0.0000000000000000e+00  -7.3975825036952580e-03 3.5070092799451163e-03 0.0000000000000000e+00  -8.7227313271894640e-03 4.1524482062409258e-03 0.0000000000000000e+00  -1.0381536034164841e-02 4.1342491815131964e-03 0.0000000000000000e+00  -1.5774306996965536e-02 5.7013666604875989e-03 0.0000000000000000e+00  -1.1710516733499449e-02 5.0668880052067112e-03 0.0000000000000000e+00  -4.6400107941515032e-03 5.8354718360069972e-03 0.0000000000000000e+00  -3.1369739998015509e-03 5.9727740825042180e-03 0.0000000000000000e+00  -7.4669195047212282e-03 1.0591829210224305e-02 0.0000000000000000e+00  -8.9107416854810589e-03 1.0604723087955015e-02 0.0000000000000000e+00  -9.2686089277283154e-03 1.3354768878806772e-02 0.0000000000000000e+00  -2.3682664958296464e-03 4.1621708412361074e-03 0.0000000000000000e+00  -8.7984972385035543e-03 9.7758520864986362e-03 0.0000000000000000e+00  -1.3893026947248982e-02 7.2694693094412215e-03 0.0000000000000000e+00  -2.2182647214791930e-03 6.4528101749635009e-03 0.0000000000000000e+00  4.6949420451210767e-03 4.7723222335067572e-03 0.0000000000000000e+00  9.4653105879362355e-03 3.0394849924578024e-03 0.0000000000000000e+00  1.8588035195401670e-03 6.8887202488113483e-03 0.0000000000000000e+00  -1.9087859663433529e-03 1.9594436371747500e-03 0.0000000000000000e+00  -2.3149526015377557e-03 4.0744785869272984e-04 0.0000000000000000e+00  1.7339821638935035e-02 -8.9436322642821968e-03 0.0000000000000000e+00  1.7730583015691172e-02 -1.0205129413908057e-02 0.0000000000000000e+00  1.3805325630198741e-02 -1.8635238808124247e-03 0.0000000000000000e+00  1.4550950998104903e-02 -3.7190191016728395e-03 0.0000000000000000e+00  -9.9315397886427376e-03 6.5825981359258759e-03 0.0000000000000000e+00  -1.3565305825243160e-02 4.3619506389660986e-03 0.0000000000000000e+00  4.6968436176932581e-04 2.8034962534502035e-03 0.0000000000000000e+00  3.2125352310751541e-03 -1.2822716410588223e-03 0.0000000000000000e+00  2.8855526069140698e-03 -7.7078560549057006e-03 0.0000000000000000e+00  -4.6918480678236523e-03 -3.7016539129191952e-03 0.0000000000000000e+00  2.6896662591690047e-03 -3.1742221951546485e-03 0.0000000000000000e+00  7.1839565071977370e-03 -1.0528609779401872e-03 0.0000000000000000e+00  -1.1633200372646587e-02 1.2794468201018356e-02 0.0000000000000000e+00  -8.5614055380173037e-03 1.4141817035703006e-02 0.0000000000000000e+00  3.7825749839217435e-03 -1.4131347070961713e-02 0.0000000000000000e+00  2.9178397066514499e-04 -1.4063686012724088e-02 0.0000000000000000e+00  3.4995506401139985e-04 2.0868815820206050e-03 0.0000000000000000e+00  1.0790328735540432e-02 -2.4273922544536626e-03 0.0000000000000000e+00  1.1414428531508976e-02 -2.8398796204003591e-03 0.0000000000000000e+00  8.5507022532579687e-03 -5.7030766544374188e-03 0.0000000000000000e+00  -8.4751481782623077e-03 7.5787699424929283e-03 0.0000000000000000e+00  -4.1981900175720906e-03 3.3459397591371108e-03 0.0000000000000000e+00  -8.3836336844236616e-03 5.2706048889995675e-03 0.0000000000000000e+00  7.2043047943002505e-03 -1.4927692018858914e-02 0.0000000000000000e+00  2.1128314828189824e-02 -1.3168275314546203e-02 0.0000000000000000e+00  6.1998037696130897e-03 -1.3753186661287760e-02 0.0000000000000000e+00  -1.2861298989421965e-02 4.6748885122557737e-03 0.0000000000000000e+00  -8.5955494284045426e-04 4.8963095615840359e-03 0.0000000000000000e+00  -1.1440685398139127e-02 5.0539140964319645e-03 0.0000000000000000e+00  1.3371074199715744e-02 -2.0349243003645805e-03 0.0000000000000000e+00  1.1350435884363724e-02 -1.9889085096601229e-03 0.0000000000000000e+00  1.4292524778228425e-02 -2.5377481984465563e-03 0.0000000000000000e+00  6.1322249156036714e-03 -9.3402079712011157e-03 0.0000000000000000e+00  4.8837840256577055e-03 -6.7693146024862521e-03 0.0000000000000000e+00  -3.3866201313218144e-03 9.1469434961358384e-03 0.0000000000000000e+00  -7.9167576648122746e-03 1.0522807516292507e-02 0.0000000000000000e+00  2.9770123312676156e-03 -1.2676945720909886e-02 0.0000000000000000e+00  2.0640050218343072e-03 -1.4639247978666699e-02 0.0000000000000000e+00  2.6497156863358063e-03 -1.3777239792131812e-02 0.0000000000000000e+00  9.3424431323571883e-03 -2.7042697690266627e-03 0.0000000000000000e+00  1.9276729414241117e-03 6.7674610088546382e-04 0.0000000000000000e+00  -1.0221435386425492e-02 1.3434178593004424e-03 0.0000000000000000e+00  -1.2964123250607595e-02 8.2694767752662882e-03 0.0000000000000000e+00  -1.5047604606776054e-03 -1.1495373197372968e-02 0.0000000000000000e+00  -5.9690619753155927e-04 -7.0080912797921696e-03 0.0000000000000000e+00  1.1729048777766881e-02 -1.4356389481287680e-02 0.0000000000000000e+00  4.2521588028493129e-03 -1.1966834155521971e-02 0.0000000000000000e+00  1.1174718998961176e-03 -1.3209908513281946e-02 0.0000000000000000e+00  -7.2187247717498178e-03 1.2544969879160794e-02 0.0000000000000000e+00  -8.2519059430312715e-03 9.1147441850657433e-03 0.0000000000000000e+00  -1.0304246009303816e-02 9.4599066115538030e-03 0.0000000000000000e+00  5.4961292429631676e-03 -6.0058090577658658e-03 0.0000000000000000e+00  5.9063955264123114e-03 -1.1313383421213883e-02 0.0000000000000000e+00  2.2244861445243967e-03 -5.6236887562359349e-03 0.0000000000000000e+00  -2.1666484649828354e-03 5.4505693458040301e-04 0.0000000000000000e+00  5.54578130