<?xml version="1.0"?>
<VTKFile type="UnstructuredGrid"  version="0.1"  >
<UnstructuredGrid>
<Piece  NumberOfPoints="2549" NumberOfCells="4928">
<Points>
<DataArray  type="Float64"  NumberOfComponents="3"  format="ascii">1.458509079990612 0.03143000708902839 0  1.454634002390291 0.05412674631926453 0  1.429139422520212 0.06444674873262057 0  1.419386833781671 0.07867326097193666 0  1.405171321084276 0.08998205159933798 0  1.396690194592658 0.1048219544234799 0  1.384611071530005 0.1188204624954284 0  1.381322671068553 0.1405617655392706 0  1.35082292302303 0.1465795939249886 0  1.334391371560219 0.130627922975434 0  1.347631780775445 0.1773586755325317 0  1.335898780304777 0.1958083429094395 0  1.330689156191281 0.2260342906431311 0  1.321537246392855 0.2543228694488306 0  1.31154196261118 0.28347047264261 0  1.302290592886836 0.3199328057297859 0  1.276759398058738 0.3381041187196006 0  1.268031464571056 0.3456493105924827 0  1.264968216369901 0.4062711492220431 0  1.249590934779304 0.4426950486020365 0  1.235357542344352 0.4889783881811968 0  1.217892862278083 0.5340541317219829 0  1.198922183808428 0.5820583233791247 0  1.178191852595669 0.6348157403776308 0  1.150057803705668 0.6864165103391837 0  1.122534223057242 0.7285518188398183 0  1.093774572171069 0.7837733761441311 0  1.060535926723662 0.8389291374970447 0  1.023556958614806 0.895194739484734 0  0.9825327352719301 0.9520777254327015 0  0.9372719299018146 1.008916600371027 0  0.887693965835849 1.066574472950712 0  0.8320278959645462 1.120843780287254 0  0.7739502729213144 1.172254322282864 0  0.7101943618831956 1.226241322280441 0  0.6413724487679378 1.275284808657413 0  0.5678056578931652 1.32127344796757 0  0.4897111536469575 1.362873055640055 0  0.407423055670126 1.399376755376966 0  0.3215075259892153 1.431197752990301 0  0.2317154271812897 1.45513109200591 0  0.1407632117086036 1.472111560613651 0  0.04738679384580201 1.48384302414176 0  -0.04669994919874453 1.486842204781222 0  -0.1406973597810524 1.482458971675291 0  -0.2336608493793396 1.470064452625574 0  -0.3246850989525529 1.45048590745971 0  -0.4129272996237381 1.422106141262271 0  -0.4967984983466259 1.390170268844904 0  -0.5784588257830346 1.351420787027134 0  -0.6544660114327662 1.305225727804033 0  -0.7256163814181757 1.255361639780313 0  -0.7915751192935838 1.201670543660755 0  -0.852166290328307 1.144602087432109 0  -0.9075772782386942 1.086723271710902 0  -0.9568545266800083 1.022271667343333 0  -1.000195859266912 0.9705783479116914 0  -1.044963615292188 0.9137906041344261 0  -1.081092873062606 0.8514468005838816 0  -1.113552347719952 0.7927370288667441 0  -1.142554783153988 0.7360392258657494 0  -1.167484090624288 0.6784601444134308 0  -1.19098541049971 0.6294443231282925 0  -1.206064608308794 0.5606480315282398 0  -1.217652208689104 0.5298885313237532 0  -1.243258447665357 0.5015767233538063 0  -1.257739733296543 0.4576019094514965 0  -1.272037818891106 0.4212050016366319 0  -1.283863489219398 0.3839950244964855 0  -1.29806039003866 0.3573485245778533 0  -1.303310670849927 0.3158207280928461 0  -1.334428328696499 0.3347719714512369 0  -1.362342516981824 0.2854913421290649 0  -1.335181237245013 0.2067763558648133 0  -1.341397697897668 0.1832210397098507 0  -1.337409841902482 0.1523689436577526 0  -1.34490713023943 0.1344740778652697 0  -1.337610070809896 0.107512707585905 0  -1.363002021183997 0.1104155198863371 0  -1.311226164668401 0.05972582315131833 0  -1.374501819886564 0.1234014992844837 0  -1.458646991719172 0.1187815731114417 0  -1.419719146950452 0.08693970520524837 0  -1.447601300979239 0.07104331533087717 0  -1.435106130707788 0.0524257813286367 0  -1.451391144408203 0.0336164362594629 0  -1.424169485097266 0.01724709156628797 0  -1.469871315702373 -0.01631483417055984 0  -1.381491402267963 -0.02041215489550277 0  -1.316670001818957 0.04890119985625313 0  -1.377869415505299 -0.008100785958666701 0  -1.353025073037718 -0.00495660182117974 0  -1.364513590652758 -0.03502745766804 0  -1.359379991665484 -0.05488263184259606 0  -1.366162908203795 -0.08830376529279071 0  -1.361130491438786 -0.1124542831874621 0  -1.393714876180318 -0.1951296529311178 0  -1.370080012386073 -0.2557308979923182 0  -1.338043031641747 -0.2334133078194776 0  -1.335364801179797 -0.278986337542144 0  -1.322587564286161 -0.3068793176697089 0  -1.312808890297433 -0.3465703747503822 0  -1.300245253867513 -0.3848225838594567 0  -1.287613547126149 -0.430948141587331 0  -1.263589874327887 -0.4585548595585465 0  -1.255973597303486 -0.4916329175124253 0  -1.244134606525879 -0.5686401191960114 0  -1.222853278826096 -0.6209466514947461 0  -1.200506401519126 -0.6838310935856536 0  -1.173930849478393 -0.7456199789589529 0  -1.143622851218376 -0.8096308062885231 0  -1.108918601606008 -0.8761095587312362 0  -1.067612663575702 -0.9347638660698394 0  -1.028400895954614 -0.9982692167563778 0  -0.9801174562575379 -1.077010757818193 0  -0.9250782584764519 -1.14302492913826 0  -0.8645677476515043 -1.210773242567266 0  -0.7979902389595022 -1.274518862569771 0  -0.7255086559568388 -1.334846149590892 0  -0.6474195550309134 -1.392575871791738 0  -0.5617909472548096 -1.441084486507334 0  -0.4744613444391335 -1.481714781930012 0  -0.3811949215543299 -1.520797833391509 0  -0.2840243997630393 -1.549389941522514 0  -0.1839465457604149 -1.569896736812943 0  -0.08196092493937525 -1.581042995577691 0  0.02081051354811844 -1.583050069647082 0  0.1233315793324731 -1.575506747615856 0  0.224421610176138 -1.558856893933285 0  0.3228627113844813 -1.533322983501322 0  0.4180183124447271 -1.499951229670048 0  0.5088921065507701 -1.458966032914932 0  0.5948339064346106 -1.411568308679015 0  0.6753031862896882 -1.35822294065017 0  0.7500100605396527 -1.301312085315824 0  0.8183253103539289 -1.236701896618273 0  0.8790671038708723 -1.179535983428968 0  0.9390778224779811 -1.117245297590756 0  0.9904080193712268 -1.04911406230183 0  1.036691650267662 -0.983231758016365 0  1.078018752333048 -0.9176277709009131 0  1.114663439723202 -0.8531858162877358 0  1.14702931463714 -0.7902850680199981 0  1.174532981678026 -0.7282415547864213 0  1.200582128221126 -0.6794984933710526 0  1.226689322775215 -0.6215013841062097 0  1.245440548523697 -0.5633888995543188 0  1.262238170036971 -0.5103255129531661 0  1.277526039237693 -0.4607645235789047 0  1.289429150279055 -0.4101211707567171 0  1.302724853123929 -0.370369899659586 0  1.303018371877686 -0.3047997193365862 0  1.309160471994544 -0.2952751694675633 0  1.333156299861354 -0.2755816672170245 0  1.34041816782204 -0.2365848431616109 0  1.348452261848222 -0.2051792838519107 0  1.355529434339298 -0.1745824262720268 0  1.358512489516063 -0.1420640960809702 0  1.368394211706677 -0.1219852484021541 0  1.352058773118997 -0.07220321881063219 0  1.366870356450874 -0.08817998549589984 0  1.395969903378583 -0.08105748755542541 0  1.396745126549801 -0.0576569233004437 0  1.406444390963767 -0.04238323071536429 0  1.412454721006228 -0.02649841893267119 0  1.423292818640227 -0.01415788844562163 0  1.432571354417414 -0.0003038635284195179 0  1.451290826650335 0.01136773923426724 0  -0.09043155183238721 0.9077004220054459 0  0.6799304680592427 -0.5204572137312403 0  -0.7971063568533736 -0.380085239929528 0  -0.08666979974257591 -0.9677706114745268 0  0.6474158390746678 0.5004482037224851 0  1.070999342944522 0.1086980012940074 0  -0.7785298667486494 0.4164878487670988 0  -1.128891320643269 0.04036288037126484 0  1.082023201217733 -0.06879187306819909 0  -1.019431217010676 -0.1638797921098793 0  -0.7149812947686741 0.02222241195676389 0  -0.4278357891337883 -0.1395589934808107 0  -1.005147267856705 0.2203193179128973 0  0.3735228684078599 -0.8553259195040286 0  0.08090092367585551 -0.3275999746274317 0  0.3104124803565005 0.7848612387392599 0  0.2253734733039574 0.1925453924051599 0  0.5539706805082052 0.01040643011364737 0  -0.4873856781637807 -0.7066372129538867 0  -0.4950648435793739 0.7104504606261866 0  -0.2330908867592789 0.3215445141789405 0  0.9026030872262664 -0.2190309809337131 0  0.88335349300351 0.241621204459516 0  0.3470711237328966 -0.233903919823639 0  -0.006375915174958426 0.2500933569918894 0  -0.4779390327350674 0.2205819813575099 0  -0.1854676229938936 -0.2895157405686153 0  0.8470934416253925 0.0159245412418814 0  1.230004545085443 0.02499981043260673 0  0.7916286724650656 -0.3499018197213181 0  0.7060348678168451 -0.116046800006252 0  0.5750242796462777 -0.2216771496521087 0  0.4360191211127212 -0.08883934475560532 0  0.5032958247015789 -0.3901915327376925 0  0.8487433022726827 -0.08964286600063068 0  0.7021587999314954 0.01302633203507406 0  -0.8387498346161325 0.1323489009030652 0  -1.047727657844627 0.1117448223257846 0  -0.9269627315172654 0.03290876801901087 0  -0.8476174081419439 -0.08025550929476309 0  -1.053222563790339 -0.04089078520049627 0  -1.215494496433596 -0.06916055167455232 0  -1.277566514686067 0.01688718912589457 0  -1.272030504768427 0.07444502441993539 0  -1.200170728229168 0.1531617443420477 0  -0.1379786329734147 -0.6324745062392956 0  -0.3038492104277482 -0.5171567894267974 0  -0.3018573604527976 -0.8606863425967479 0  -0.3017749449747782 -0.2069462735899764 0  -0.4481932645381381 -0.4084555282418314 0  -1.211547298026348 -0.1844128998846289 0  -1.187582357374475 0.2570549162726533 0  0.3718707695692198 -0.5270678113354246 0  0.2125673308481739 -0.2671518094637983 0  0.2312393299119476 -0.5877896306335284 0  -0.8920531554093798 0.3022837350687139 0  -0.7094268864381914 0.2007008597448077 0  1.251726248576107 -0.08360542476050967 0  1.189446752429496 -0.1789273858771636 0  1.168259186948081 0.2190347093548435 0  1.237557236396135 0.1319442006160128 0  -0.9150972802007614 -0.6449159113304179 0  -1.037610469555411 -0.4332552431236094 0  -1.004661794196037 0.4851912988186672 0  -0.8758387036598175 0.6750216875990164 0  0.9347923120977876 -0.6118269673854966 0  0.7735377527989727 -0.8360000791068197 0  0.7383994806109537 0.794730053778832 0  0.8991237479986465 0.6032662719370522 0  
[...]
<PointData  Vectors="f_5080"> 
<DataArray  type="Float64"  Name="f_5080"  NumberOfComponents="3" format="ascii">7.9704473775344172e-03 2.2554747275325332e-02 0.0000000000000000e+00  8.3087068312837301e-03 2.2246005308328879e-02 0.0000000000000000e+00  7.9390877939752996e-03 1.9213037960981016e-02 0.0000000000000000e+00  1.4999677996089396e-02 2.1514769478096468e-02 0.0000000000000000e+00  1.0401637661142209e-02 2.1445411968727245e-02 0.0000000000000000e+00  2.9263987595198545e-02 2.7523751126805548e-02 0.0000000000000000e+00  1.8835860324434784e-02 3.4432626993484497e-02 0.0000000000000000e+00  -7.4063491429748107e-02 -3.5289154234178513e-02 0.0000000000000000e+00  1.1057996740932682e-02 4.2170736659009687e-02 0.0000000000000000e+00  1.2858523252094986e-01 -3.7282710147749025e-02 0.0000000000000000e+00  5.8502705698509072e-03 8.9763980755604503e-03 0.0000000000000000e+00  5.8952186464513506e-03 1.6161695780653667e-02 0.0000000000000000e+00  -2.8438601696066206e-03 6.6834138445057622e-03 0.0000000000000000e+00  4.2368419456431869e-03 1.4452888703141424e-02 0.0000000000000000e+00  1.1735007438669724e-02 1.5149851353159308e-02 0.0000000000000000e+00  -4.6942350856162074e-03 1.6174547268646419e-02 0.0000000000000000e+00  -1.0883317524246722e-02 -5.0123969191131824e-05 0.0000000000000000e+00  1.8328208627198993e-02 1.5624931392819251e-02 0.0000000000000000e+00  -1.3944476362361742e-02 1.5908462818866192e-02 0.0000000000000000e+00  -7.3790722167199532e-03 1.5919421293702059e-02 0.0000000000000000e+00  -5.4473524489933624e-03 1.7179953937283717e-02 0.0000000000000000e+00  -5.9489545657471100e-03 1.6906689377122436e-02 0.0000000000000000e+00  -5.6965660527995270e-03 1.7462053285728786e-02 0.0000000000000000e+00  -1.3234539740446739e-02 1.4706267159944194e-02 0.0000000000000000e+00  -6.5300301137404381e-03 1.6691938281893134e-02 0.0000000000000000e+00  -1.1787353620282260e-02 1.4820006093442344e-02 0.0000000000000000e+00  -1.6512260016520619e-02 1.1027730845180517e-02 0.0000000000000000e+00  -1.4425247670350253e-02 1.1833348878585141e-02 0.0000000000000000e+00  -1.7084089965457978e-02 9.7280004022743012e-03 0.0000000000000000e+00  -1.7936511750287012e-02 8.4581136724251327e-03 0.0000000000000000e+00  -1.9051363360914220e-02 6.6045094272202476e-03 0.0000000000000000e+00  -2.1243835515486427e-02 4.1739573208207171e-03 0.0000000000000000e+00  -2.0397179008649673e-02 2.8556816936851533e-03 0.0000000000000000e+00  -2.0708625640488802e-02 1.5831935977836610e-03 0.0000000000000000e+00  -2.2654511769928793e-02 -1.6807855817862088e-03 0.0000000000000000e+00  -2.1953813095394875e-02 -3.3668316739688710e-03 0.0000000000000000e+00  -2.2182693761249424e-02 -5.5836592786275233e-03 0.0000000000000000e+00  -2.1757960413884107e-02 -7.4872815211146290e-03 0.0000000000000000e+00  -2.1224484640098854e-02 -9.6206263695803405e-03 0.0000000000000000e+00  -2.0725890605001226e-02 -1.1852066389547755e-02 0.0000000000000000e+00  -1.9355144585151623e-02 -1.3228274722681762e-02 0.0000000000000000e+00  -1.8242642062542377e-02 -1.4749221470170449e-02 0.0000000000000000e+00  -1.7034664001497959e-02 -1.6427662742592983e-02 0.0000000000000000e+00  -1.5461725521876803e-02 -1.7719220489282698e-02 0.0000000000000000e+00  -1.3886451559469774e-02 -1.8697719098586779e-02 0.0000000000000000e+00  -1.2249332807645081e-02 -1.9516925631618002e-02 0.0000000000000000e+00  -1.0480319432342749e-02 -1.9870739983870952e-02 0.0000000000000000e+00  -9.0452328937382052e-03 -2.0020355144185535e-02 0.0000000000000000e+00  -7.6223886861587920e-03 -1.9875716189962509e-02 0.0000000000000000e+00  -5.7782690415662339e-03 -1.9876552671695531e-02 0.0000000000000000e+00  -4.8461547585489442e-03 -1.9343963133195769e-02 0.0000000000000000e+00  -4.1948713637271059e-03 -1.8060131243099908e-02 0.0000000000000000e+00  -3.1285759549582199e-03 -1.7461889343556292e-02 0.0000000000000000e+00  -3.9649786710821014e-03 -1.6164723934058021e-02 0.0000000000000000e+00  -4.4140163178196183e-04 -1.6520317581370861e-02 0.0000000000000000e+00  -7.6775913951939601e-03 -1.1107801871201738e-02 0.0000000000000000e+00  -5.1813117160059230e-03 -1.4161591549573548e-02 0.0000000000000000e+00  -2.7619057089480039e-03 -1.2488258618068864e-02 0.0000000000000000e+00  -7.9917559364660641e-03 -1.1203402317327974e-02 0.0000000000000000e+00  -7.1657899589678033e-03 -1.1760564895847118e-02 0.0000000000000000e+00  -8.3640764265200829e-03 -1.0737306964636399e-02 0.0000000000000000e+00  -5.6883213174686682e-03 -1.4268736366604888e-02 0.0000000000000000e+00  -6.6271572409720833e-03 -8.1969626115176320e-03 0.0000000000000000e+00  -3.1134394057701582e-02 -1.0711246102463077e-02 0.0000000000000000e+00  9.1388081649096623e-03 -2.6302686948280859e-02 0.0000000000000000e+00  -1.5957102405404870e-02 -5.3930952841014200e-03 0.0000000000000000e+00  -1.9296230786006063e-02 -1.1786842038716267e-02 0.0000000000000000e+00  -1.0121847492296389e-02 -1.6868589992829666e-02 0.0000000000000000e+00  -1.0067973732264526e-02 -1.2491102288540166e-02 0.0000000000000000e+00  -3.6100882316883874e-02 -9.7050188794741438e-03 0.0000000000000000e+00  -2.3460168139186510e-02 -3.0301192785740984e-02 0.0000000000000000e+00  7.2060297781104732e-02 1.4966384580507393e-02 0.0000000000000000e+00  -9.1650007054435885e-03 2.7217522336954816e-02 0.0000000000000000e+00  -4.1408160934782785e-02 -1.2350339668774021e-02 0.0000000000000000e+00  -2.8982574035108795e-02 -1.5187656342430206e-02 0.0000000000000000e+00  -4.2774736932227268e-02 -1.7473713893233940e-02 0.0000000000000000e+00  -5.3565746716296679e-02 -1.8331589865424311e-02 0.0000000000000000e+00  -4.8223668398324392e-02 -1.9046043496534482e-02 0.0000000000000000e+00  -4.1162407394745075e-02 1.7543570147081754e-03 0.0000000000000000e+00  -5.5986794261749413e-02 -2.7204937321574089e-02 0.0000000000000000e+00  -4.9828419635397574e-02 -3.2102555410640367e-02 0.0000000000000000e+00  -2.5129351240369129e-02 1.8529610062077987e-02 0.0000000000000000e+00  -5.6309752095555082e-02 -3.0953733807388317e-02 0.0000000000000000e+00  -4.8245278131201205e-02 -4.7152011440883934e-02 0.0000000000000000e+00  -4.5802888320364797e-02 -4.4726631282117686e-02 0.0000000000000000e+00  -2.1043659314230027e-02 -2.9135124683300175e-02 0.0000000000000000e+00  -5.1785802781379155e-02 -6.7400833487015588e-02 0.0000000000000000e+00  5.8815956151684334e-02 -2.7395903569313290e-01 0.0000000000000000e+00  1.5833659675365513e-02 -1.2928698241922486e-02 0.0000000000000000e+00  5.9913149088931181e-02 -1.0473032273445058e-01 0.0000000000000000e+00  -3.9309366833241779e-02 -6.1280996454830629e-02 0.0000000000000000e+00  -3.5941488214166414e-02 -2.6217666634550368e-02 0.0000000000000000e+00  -9.7721044377237484e-02 -5.3206134289104168e-03 0.0000000000000000e+00  -6.3210867378264715e-02 -1.7780111474110630e-02 0.0000000000000000e+00  -1.1703786651821002e-02 -3.0746008705543969e-02 0.0000000000000000e+00  -4.3391180702830288e-02 -2.9206905419456926e-02 0.0000000000000000e+00  7.7330473926626175e-03 -1.1042772337687752e-01 0.0000000000000000e+00  1.9910599204579918e-01 -1.1338214416933411e-01 0.0000000000000000e+00  1.4511279299013237e-03 1.5768585623214528e-03 0.0000000000000000e+00  -4.7737419365872412e-02 -3.1391074182865714e-02 0.0000000000000000e+00  5.2471616383548891e-03 -2.4962040697244649e-02 0.0000000000000000e+00  4.7659910272446395e-03 -1.7443415069134226e-02 0.0000000000000000e+00  -1.0539623300310261e-02 -2.4272741134926626e-02 0.0000000000000000e+00  -1.2774859100880453e-02 -3.9994690824575761e-02 0.0000000000000000e+00  4.5169234268615514e-02 -1.4547586493296837e-04 0.0000000000000000e+00  -1.5824328486124088e-02 -1.3881805604351779e-02 0.0000000000000000e+00  1.0034343237138102e-02 -2.6804711647149759e-02 0.0000000000000000e+00  1.7069191518404851e-02 -1.3739747232935088e-02 0.0000000000000000e+00  1.0423527421988540e-02 -2.0415625158080073e-02 0.0000000000000000e+00  1.2650445859313237e-02 -1.8648519009802810e-02 0.0000000000000000e+00  1.4323008100642258e-02 -1.7483333501217186e-02 0.0000000000000000e+00  1.2692478451728826e-02 -2.2197071802554171e-02 0.0000000000000000e+00  2.6638887379673102e-02 -9.7759554513230998e-03 0.0000000000000000e+00  1.3789845501928622e-02 -1.7031456648221050e-02 0.0000000000000000e+00  3.1394205381813464e-02 -1.1317091531271986e-02 0.0000000000000000e+00  2.6807626557177978e-02 -5.8658632936412084e-03 0.0000000000000000e+00  3.0448602163781500e-02 -4.8545512243131708e-03 0.0000000000000000e+00  2.9450822004692175e-02 -2.4258654287412276e-03 0.0000000000000000e+00  3.0227397573468096e-02 8.7575404730972186e-04 0.0000000000000000e+00  3.3288966136098386e-02 5.5988808186793332e-03 0.0000000000000000e+00  2.9126078518891870e-02 5.7236188387124647e-03 0.0000000000000000e+00  2.8606069785765152e-02 8.0876420986821015e-03 0.0000000000000000e+00  2.9519948311543788e-02 1.2317292322263099e-02 0.0000000000000000e+00  2.6787177396062577e-02 1.3732199547808304e-02 0.0000000000000000e+00  2.5762127297046626e-02 1.5921114264930467e-02 0.0000000000000000e+00  2.3722686346672996e-02 1.7507619104388156e-02 0.0000000000000000e+00  2.1881722980253083e-02 1.8958952823672718e-02 0.0000000000000000e+00  1.9796703052464618e-02 2.0034913403568329e-02 0.0000000000000000e+00  1.7776986217244575e-02 2.0733611525171967e-02 0.0000000000000000e+00  1.5748030836861712e-02 2.1141971428920523e-02 0.0000000000000000e+00  1.3808992635535441e-02 2.1364268460347498e-02 0.0000000000000000e+00  1.2013660083447012e-02 2.1215209758871100e-02 0.0000000000000000e+00  1.0363409067931076e-02 2.0844491539786188e-02 0.0000000000000000e+00  9.1712817260654386e-03 2.0268272088658577e-02 0.0000000000000000e+00  7.2311902686963275e-03 1.9799724925985685e-02 0.0000000000000000e+00  8.4679291655684209e-03 1.7313972244534379e-02 0.0000000000000000e+00  7.3697536949278442e-03 1.7768846921254300e-02 0.0000000000000000e+00  4.6100529344148119e-03 1.7516924693311581e-02 0.0000000000000000e+00  6.6703253288447461e-03 1.5570074233349565e-02 0.0000000000000000e+00  6.5953207993690813e-03 1.4740171792929097e-02 0.0000000000000000e+00  6.8713814146943554e-03 1.4043706525039022e-02 0.0000000000000000e+00  8.1306843497119270e-03 1.3028269660727933e-02 0.0000000000000000e+00  7.2722929359288046e-03 1.3082217408500034e-02 0.0000000000000000e+00  1.0923266926596811e-02 1.1297706277443588e-02 0.0000000000000000e+00  1.2217672607159887e-02 1.1492069768094314e-02 0.0000000000000000e+00  9.0038218152660946e-03 1.1944603702265865e-02 0.0000000000000000e+00  1.3786793481113564e-02 1.0704936602584685e-02 0.0000000000000000e+00  1.4148977449797399e-02 1.1286651204201623e-02 0.0000000000000000e+00  1.5343269076911449e-02 1.0956088569147999e-02 0.0000000000000000e+00  1.5082350942852181e-02 1.2070447031424906e-02 0.0000000000000000e+00  1.4816249434923361e-02 1.0119976015547913e-02 0.0000000000000000e+00  2.9608089686085484e-02 1.2873318786998034e-02 0.0000000000000000e+00  2.2410444318430423e-02 1.6751134736691847e-02 0.0000000000000000e+00  2.1917678033706305e-02 1.8114596872104920e-02 0.0000000000000000e+00  2.1585271073562423e-02 1.8272202924047947e-02 0.0000000000000000e+00  2.1774239081750423e-02 1.9432899992937729e-02 0.0000000000000000e+00  2.2784735700502323e-02 1.9946761983087730e-02 0.0000000000000000e+00  2.5557667714571821e-02 2.3089104936579910e-02 0.0000000000000000e+00  1.8825436557604103e-02 2.1051162735350713e-02 0.0000000000000000e+00  -6.3982461981938576e-02 1.3467502773220346e-02 0.0000000000000000e+00  6.8803258691548215e-03 2.8003513875791419e-02 0.0000000000000000e+00  -1.6934171296238129e-02 4.0483579944443349e-03 0.0000000000000000e+00  -2.2413342832992510e-03 1.3578520228994872e-02 0.0000000000000000e+00  1.2193756735876355e-02 1.1458724836079397e-02 0.0000000000000000e+00  1.2163624081073705e-02 1.8422009978249550e-02 0.0000000000000000e+00  9.2671358275395067e-03 1.9476284258505627e-02 0.0000000000000000e+00  1.0256602265490676e-02 2.1076730055012677e-02 0.0000000000000000e+00  7.7935091674092979e-03 2.3809050431310711e-02 0.0000000000000000e+00  -8.1543056444157800e-03 -1.8657374506684424e-02 0.0000000000000000e+00  1.3407758668250143e-02 1.7966753883729921e-02 0.0000000000000000e+00  -4.3389650087404487e-03 -8.3409474197303907e-03 0.0000000000000000e+00  1.6851794187320437e-02 1.7294749035868962e-02 0.0000000000000000e+00  -4.1102868088596254e-03 -7.0223843978110270e-04 0.0000000000000000e+00  9.0764198241568891e-03 1.3989974561427063e-02 0.0000000000000000e+00  -1.5525449204450592e-02 -1.3401749790351854e-02 0.0000000000000000e+00  -3.0224565969322163e-02 -1.5733346840747182e-02 0.0000000000000000e+00  1.4261280575772039e-02 1.3828336621520384e-02 0.0000000000000000e+00  -1.6635961411118384e-02 -1.2822229589906415e-02 0.0000000000000000e+00  -1.7285002735011903e-02 -9.5894353752058112e-03 0.0000000000000000e+00  -1.0047465257867564e-02 -2.2322878054300182e-03 0.0000000000000000e+00  -2.2965677365893337e-02 -1.4625019744613901e-02 0.0000000000000000e+00  1.3977056199420907e-02 2.1433722540897388e-02 0.0000000000000000e+00  2.8942180070957741e-03 1.6599306942456656e-02 0.0000000000000000e+00  -7.6543921823923108e-03 -1.2380714001778578e-02 0.0000000000000000e+00  -1.2455381328403828e-02 -1.3468306715958479e-02 0.0000000000000000e+00  2.6084170828983531e-03 7.7074059809198537e-03 0.0000000000000000e+00  9.9332889038866064e-03 3.8292490639645770e-03 0.0000000000000000e+00  -8.8553800522884769e-03 -1.7013883633735367e-02 0.0000000000000000e+00  -8.5241715643801525e-03 -1.2315188539411272e-02 0.0000000000000000e+00  1.4516787514554284e-02 1.3669388178931785e-02 0.0000000000000000e+00  3.4798964182286883e-03 9.5633639454920059e-03 0.0000000000000000e+00  5.5080871084916038e-03 1.5312811085699573e-02 0.0000000000000000e+00  -6.1347333135157653e-03 -1.5721244747940451e-02 0.0000000000000000e+00  -1.3994736332974071e-02 -1.0305019349217914e-02 0.0000000000000000e+00  -3.3159623710980694e-03 6.1513098790236037e-03 0.0000000000000000e+00  9.1029426620819268e-03 1.1251297525603762e-02 0.0000000000000000e+00  1.2584753789626701e-02 1.7608013714287288e-02 0.0000000000000000e+00  1.3902170351071825e-02 1.5476194851478860e-02 0.0000000000000000e+00  9.5724695492640580e-03 1.2491510753102236e-02 0.0000000000000000e+00  9.3897887953510641e-03 1.5064107704088319e-02 0.0000000000000000e+00  1.8183308108479083e-03 1.0499333077940107e-02 0.0000000000000000e+00  1.2002120466029687e-02 1.8827800420400172e-02 0.0000000000000000e+00  1.1558471031638526e-02 1.2411445043891960e-02 0.0000000000000000e+00  6.5101788677655297e-03 9.6688728452063080e-03 0.0000000000000000e+00  -2.0485444438428053e-02 -1.2140923507832786e-02 0.0000000000000000e+00  -2.6507417259884172e-02 -1.4894926299384959e-02 0.0000000000000000e+00  -2.2131133396343719e-02 -1.2525630260323092e-02 0.0000000000000000e+00  -1.7427267523317098e-02 -1.0578498780425258e-02 0.0000000000000000e+00  -2.4230701793014186e-02 -1.3721361330494083e-02 0.0000000000000000e+00  -3.0211200536473474e-02 -1.6367079532221829e-02 0.0000000000000000e+00  -3.9603048402344569e-02 -1.9833042619697698e-02 0.0000000000000000e+00  -3.8290718850195006e-02 -1.8545902276953720e-02 0.0000000000000000e+00  -3.2067155924714819e-02 -1.7331700046611231e-02 0.0000000000000000e+00  1.1398065643637779e-02 1.4248257450760332e-02 0.0000000000000000e+00  4.8940891971327267e-03 7.5350737399358823e-03 0.0000000000000000e+00  1.5099788769200182e-02 1.1258984042602714e-02 0.0000000000000000e+00  -7.1855974280844491e-03 1.9532517973102591e-03 0.0000000000000000e+00  -1.0738288238036902e-03 1.6135535807297750e-03 0.0000000000000000e+00  -1.5846443990417687e-02 -1.6898885029540043e-02 0.0000000000000000e+00  -2.4222917566729840e-02 -1.6632972594631205e-02 0.0000000000000000e+00  1.3738365573854916e-02 2.1368281110457590e-02 0.0000000000000000e+00  3.7655134400521803e-03 1.4821818223547041e-02 0.0000000000000000e+00  1.4782865646684362e-02 2.1747999416973179e-02 0.0000000000000000e+00  -1.9115625767353026e-02 -1.3482982499780929e-02 0.0000000000000000e+00  -1.7762257871142353e-02 -1.1483307929111610e-02 0.0000000000000000e+00  1.5997551807882773e-02 1.6934997818023597e-02 0.0000000000000000e+00  1.9092296069455766e-02 1.4666122040927161e-02 0.0000000000000000e+00  6.4721320424121175e-03 1.4938261142975608e-02 0.0000000000000000e+00  1.1154346144701396e-02 1.6423459515629929e-02 0.0000000000000000e+00  6.9770853882763209e-03 -1.1443953022593826e-02 0.0000000000000000e+00  -1.2928817456896139e-03 -1.4587432963020255e-02 0.0000000000000000e+00  -1.5116545670761929e-02 -1.3235862233839903e-02 0.0000000000000000e+00  -1.0566628097232586e-02 -1.3698847229753792e-02 0.0000000000000000e+00  1.2628678826523590e-02 1.5082138109105182e-02 0.0000000000000000e+00  1.0412663521077861e-02 1.7291613646667238e-02 0.0000000000000000e+00  -1.1843709982737285e-02 1.5684717130511939e-03 0.0000000000000000e+00  -7.1757321604671472e-03 7.5910833048227514e-03 0.0000000000000000e+00  1.8279880144071076e-02 1.9112004125962128e-02 0.0000000000000000e+00  2.2113826451887600e-02 1.2908968175449320e-02 0.0000000000000000e+00  -8.9498017188669784e-03 -1.9434776992933944e-02 0.0000000000000000e+00  -1.2929065803250530e-02 -1.6838934827792498e-02 0.0000000000000000e+00  1.3347297103806395e-02 2.0266947897338090e-02 0.0000000000000000e+00  -6.9746555676036427e-03 -1.5476627852202861e-03 0.0000000000000000e+00  -1.4323870479627408e-03 -2.0169702601060445e-04 0.0000000000000000e+00  -3.2509533327620644e-03 -8.4819549868770851e-03 0.0000000000000000e+00  -7.2126442973228103e-03 -3.8422350548614906e-03 0.0000000000000000e+00  -1.3908214543131797e-02 -6.5675163655135611e-03 0.0000000000000000e+00  -1.3010971578680771e-02 -7.9160825483257681e-03 0.0000000000000000e+00  -1.0458878402397778e-02 -1.4314726065500688e-02 0.0000000000000000e+00  6.9649529059709701e-03 -9.8663819151880525e-03 0.0000000000000000e+00  -1.6116644129302974e-02 -4.5407761780814470e-03 0.0000000000000000e+00  -7.5332982956960318e-03 -1.6165597538998572e-02 0.0000000000000000e+00  -1.8334775699485384e-02 -1.4525341001342907e-02 0.0000000000000000e+00  -1.0664005153104396e-02 -1.0990988379488014e-02 0.0000000000000000e+00  3.3800367903543209e-03 6.6078630298581544e-03 0.0000000000000000e+00  -5.3884076462902726e-04 4.9755663200086696e-03 0.0000000000000000e+00  6.3440027254866322e-03 9.9496055800668368e-03 0.0000000000000000e+00  -2.0684441196106417e-03 -1.4313180717923538e-02 0.0000000000000000e+00  -6.0873296731799162e-03 -7.2845601250899963e-03 0.0000000000000000e+00  1.4721422293099425e-02 1.9313986617525470e-02 0.0000000000000000e+00  1.5636804686982420e-02 2.0800158674600135e-02 0.0000000000000000e+00  -8.9533034277253076e-03 -1.6088766589517765e-02 0.0000000000000000e+00  -6.2578684348232059e-03 -1.7737821607932192e-02 0.0000000000000000e+00  -7.6621969491934023e-03 -1.8886009500977741e-02 0.0000000000000000e+00  -1.3296237732902888e-02 -1.1461713213823089e-03 0.0000000000000000e+00  2.9668654220378838e-03 1.2662788639261477e-02 0.0000000000000000e+00  1.0478741114514776e-02 1.9380127393017550e-02 0.0000000000000000e+00  1.3616392460089416e-02 2.0849512234245818e-02 0.0000000000000000e+00  -1.5014816393152766e-02 -1.1980573098502046e-02 0.0000000000000000e+00  -1.4634463452139829e-02 -4.9188886433165560e-03 0.0000000000000000e+00  -5.2648386864474457e-03 1.0979102032122792e-04 0.0000000000000000e+00  -1.6830308349459781e-03 -1.6584385204938858e-02 0.0000000000000000e+00  -8.2232563810434207e-03 -1.6244429924959738e-02 0.0000000000000000e+00  2.1057048152013130e-02 4.9956241415932039e-03 0.0000000000000000e+00  1.4439834867611051e-02 -4.5630121892461292e-03 0.0000000000000000e+00  2.6364833419442540e-03 -3.2158392943878321e-03 0.0000000000000000e+00  -7.4687166198800902e-03 -1.5695664821046080e-02 0.0000000000000000e+00  -6.5623189294227759e-03 -1.8619985636809055e-02 0.0000000000000000e+00  -1.1864093261093703e-02 -1.4694143541617910e-02 0.0000000000000000e+00  -1.5871958719056421e-02 -9.1155408391712742e-03 0.0000000000000000e