<?xml version="1.0"?>
<VTKFile type="UnstructuredGrid"  version="0.1"  >
<UnstructuredGrid>
<Piece  NumberOfPoints="2549" NumberOfCells="4928">
<Points>
<DataArray  type="Float64"  NumberOfComponents="3"  format="ascii">1.474981630914291 0.02405032311063162 0  1.471205968766328 0.04716125120725317 0  1.447806848376961 0.05652154755040627 0  1.435838551106787 0.07240231248502565 0  1.431030120853326 0.08360509371169902 0  1.430635256291346 0.1065505633163073 0  1.413064178608191 0.1137743518694476 0  1.399952269780098 0.105677159312654 0  1.388084492365024 0.1506311278509128 0  1.520143161918673 0.6657300107018793 0  1.386970170408843 0.1744621898062563 0  1.380949844552091 0.2155689447050182 0  1.346253318328638 0.232087935654538 0  1.3398012792962 0.2596481418191996 0  1.336670898399347 0.2905203958049665 0  1.318405227027051 0.323077307174958 0  1.310320995245954 0.3574579602385622 0  1.290469232883166 0.3683220566009552 0  1.276657763404878 0.4201186985923497 0  1.26415024450213 0.4604519851427831 0  1.244067118617274 0.5048244786201084 0  1.225754184746963 0.5504608392510247 0  1.202803181468192 0.5979253938673126 0  1.179938430658652 0.6493638181731676 0  1.155215431520763 0.706941332898822 0  1.112643191741634 0.737094214743253 0  1.086341843867472 0.7927530571627035 0  1.054126100311864 0.8506380384662298 0  1.012692623978643 0.9032910333851184 0  0.9696352272009969 0.9591369660177086 0  0.9223286167209074 1.013585639873083 0  0.8699289952534398 1.068563524192283 0  0.8141612455517608 1.121057688111751 0  0.755095579752699 1.170440107597596 0  0.6891089629778099 1.220794032360973 0  0.6203706421053835 1.267481041582101 0  0.5464806954644144 1.310540611796403 0  0.4686071400378147 1.349650093230481 0  0.3870836480970133 1.383493080397644 0  0.3016731375373319 1.412298985908782 0  0.2137947659052372 1.434905070705084 0  0.1244661610996838 1.450081858637479 0  0.03257985742896584 1.459782016542371 0  -0.05914273050746209 1.461516142767185 0  -0.1511300931081999 1.456235919613383 0  -0.2416471523152912 1.44311729960081 0  -0.3305583624577894 1.42380860731955 0  -0.4166039882333269 1.395577154282924 0  -0.4986760218518025 1.364352979877547 0  -0.5781434932805692 1.326408661725199 0  -0.6529595131024389 1.28159760469493 0  -0.7232785748309493 1.233944284705314 0  -0.7885873335229535 1.181882108061397 0  -0.84955715984624 1.127202141408334 0  -0.9042917332375106 1.070852028133237 0  -0.9578700621713163 1.010667921387988 0  -1.000397471185517 0.9578693139862088 0  -1.04574074318324 0.9048733067712449 0  -1.08511381767803 0.8431583506204576 0  -1.119903055724283 0.7856723799519049 0  -1.148624310868515 0.729333505983675 0  -1.17243183173888 0.6689523743188035 0  -1.205453058064194 0.6301136087843291 0  -1.220195923890369 0.5528853386988473 0  -1.221138342407934 0.5124590581117494 0  -1.264890807061046 0.5009039161757273 0  -1.279636758748613 0.4505122080622633 0  -1.289315125113229 0.4120064258538212 0  -1.2967715055841 0.3733561830531184 0  -1.322196432874708 0.3513489454069412 0  -1.331187317933931 0.3017499806740337 0  -1.311374499713946 0.3285504698061915 0  -1.377373860024569 0.2895326584517365 0  -1.372465231140134 0.1944656280525805 0  -1.370088146950372 0.1695019875538484 0  -1.374534263211374 0.1363625712876667 0  -1.388560207558563 0.1193788202495181 0  -1.399131724414073 0.08655217318748419 0  -1.398626402630593 0.111880920891165 0  -1.38894140376316 0.02266445071267978 0  -1.407996296976003 0.09630188044670962 0  -1.437967111322639 0.1585764092347831 0  -1.474081150318513 0.07866741087450084 0  -1.482059215417354 0.0489257848431251 0  -1.504793920802224 0.02117257341306441 0  -1.488589663603192 -0.005378962146709333 0  -1.472726940477753 -0.03871585225299201 0  -1.283545311031765 -0.5229182159461607 0  -1.395054265303971 -0.04279574689034002 0  -1.704992556497257 0.504174990662604 0  -1.441163362851201 -0.0623779853608942 0  -1.45048547300975 0.0135253166746201 0  -1.408693340956015 -0.1298279149619666 0  -1.394766309114029 -0.08756615726743415 0  -1.376023775239855 -0.1007833463792051 0  -1.381439931444656 -0.1226931462927091 0  -1.398348984180104 -0.2418843714068447 0  -1.316935586752197 -0.3426089758069263 0  -1.360928688790509 -0.2390279037560228 0  -1.358108896771147 -0.2963746792716748 0  -1.323125986171187 -0.3230738499211685 0  -1.32936103279098 -0.3607677155296583 0  -1.328360621066997 -0.4005298506028806 0  -1.347186092122838 -0.448250260830768 0  -1.239522669638587 -0.4666942176973805 0  -1.209714903219585 -0.4995603814278589 0  -1.248670225233331 -0.6155044834118953 0  -1.199005020858998 -0.6373481983399246 0  -1.187972786818256 -0.700694090605344 0  -1.163203988875346 -0.7653141374786828 0  -1.140757346371715 -0.8275669239079543 0  -1.098305220242871 -0.9091932095600657 0  -1.033044229727569 -0.9323506515732383 0  -1.007702152942484 -1.005199522765929 0  -0.9557456139821775 -1.088704425307281 0  -0.8983427647949482 -1.142128195278276 0  -0.8367162909583262 -1.210143268841154 0  -0.7703294711686072 -1.269209638128003 0  -0.6980451718453261 -1.326131343789196 0  -0.618688187851253 -1.378436704639123 0  -0.5368643295315707 -1.426587111386098 0  -0.4514232098411966 -1.46391897907051 0  -0.3587589921094443 -1.499299494470058 0  -0.2651125909838996 -1.52642315201448 0  -0.1674432376866282 -1.544851065778143 0  -0.06864616476896779 -1.554972814539625 0  0.03110120263054781 -1.556076945883237 0  0.1304463392021213 -1.548412834953524 0  0.2285000819602 -1.531849311420842 0  0.3240176755752887 -1.506990725263997 0  0.4165061935663587 -1.474792641820152 0  0.5050874165428658 -1.435365786651205 0  0.5890110219187344 -1.389833073808916 0  0.6682830254008735 -1.338779142624047 0  0.7410184925790497 -1.283819816020365 0  0.8115394796838112 -1.223740701047581 0  0.8714252260721563 -1.167423345447893 0  0.9286513868524561 -1.106457061668522 0  0.9829769464757572 -1.041771450734385 0  1.030325414944204 -0.9783864978923454 0  1.073144202923995 -0.9143792159581703 0  1.112736125936219 -0.8528784943793773 0  1.144416483872259 -0.7891858772398392 0  1.170415928590984 -0.72760527867687 0  1.208567465861329 -0.6871209286378201 0  1.231338301779364 -0.6252583179475129 0  1.252741381321232 -0.5691044134414561 0  1.272398331360218 -0.5152990454407912 0  1.281358696684832 -0.464885970850739 0  1.28707780417599 -0.4111929687362504 0  1.315211057743403 -0.383675249547902 0  1.324430094575693 -0.3085303232679483 0  1.289689406777372 -0.3142698389201714 0  1.350452336863799 -0.2756373894785144 0  1.365465657474387 -0.2283554548905844 0  1.363621122212965 -0.1971627709412221 0  1.366874835273866 -0.167570695691577 0  1.376432664245056 -0.1390151177627088 0  1.375262389386029 -0.1056673847582526 0  1.604764399285128 0.824369179880778 0  1.411703935721198 -0.08573721662325241 0  1.404756339887272 -0.09279247043005259 0  1.411764585676816 -0.06173501110220472 0  1.431647719091135 -0.04857156390414111 0  1.430915420773773 -0.02927077833067762 0  1.440572840084303 -0.01790156252813849 0  1.447605033604204 -0.003683283868228615 0  1.467651971714385 0.003966931271547841 0  -0.09650182176816637 0.8822137463077852 0  0.6906996194740168 -0.5053864720608893 0  -0.8072683905825545 -0.3852704083416349 0  -0.07653740980212176 -0.9415501958075452 0  0.6537806484022426 0.4967451171592644 0  1.093576725174979 0.1155417844460428 0  -0.7953288707990617 0.4037719726483488 0  -1.15808427897859 0.02868875923259953 0  1.102989340360645 -0.06468840384439448 0  -1.039778805930055 -0.1757855126658052 0  -0.7344112404404379 0.01422380094604057 0  -0.4392519431177933 -0.1390361560879382 0  -1.02956171053314 0.2093832823526292 0  0.3803933200263361 -0.8300828510295821 0  0.08532632897589182 -0.303118640078738 0  0.3074933336138266 0.7675108625085454 0  0.2210726638520172 0.1837207543136556 0  0.5651641645595707 0.01741735569767079 0  -0.4824057449841226 -0.6950283238523457 0  -0.5029714884096455 0.6889682616753448 0  -0.2387171693609698 0.3042972783078976 0  0.9204286961662717 -0.2128972555299816 0  0.900437226789746 0.2467569702018386 0  0.3550140726689468 -0.2134706696903655 0  -0.008726301988603614 0.2298133601433535 0  -0.4918020377245851 0.208792687406037 0  -0.1882932537874828 -0.2788068746098991 0  0.8658177396051651 0.02205156934375964 0  1.252631393747214 0.0305565872418389 0  0.806080545203847 -0.3399360533835934 0  0.7218246784269736 -0.1068991610975737 0  0.5879627324610224 -0.2071851868152994 0  0.4436792691159465 -0.07614342478949013 0  0.5155462088926686 -0.3699218216299296 0  0.8672218518245874 -0.08298677653654321 0  0.7177798869416444 0.0196038409487988 0  -0.8608581439242418 0.1223048236636341 0  -1.074675070497197 0.100519523399565 0  -0.9505785480554673 0.02265684495155025 0  -0.8679702280972174 -0.08916100688839002 0  -1.07797263225721 -0.05232123383262906 0  -1.241522349910223 -0.0808862507191927 0  -1.315226061602983 0.003830512052934187 0  -1.311728840907796 0.05897634849284126 0  -1.232109255257477 0.139996657972346 0  -0.1306945501616628 -0.6097084286054693 0  -0.3028931877885188 -0.5019721318110192 0  -0.2923136444332456 -0.8403638548065731 0  -0.3091426928048773 -0.2015207526087951 0  -0.4530767751980605 -0.4007499352201796 0  -1.231483525361598 -0.1988888610204474 0  -1.213764131414429 0.2450453521974846 0  0.3839765501540928 -0.5013358446819959 0  0.2181249342522675 -0.244923000659478 0  0.2439273879475345 -0.5594212161289609 0  -0.9129306432720007 0.2913305522733263 0  -0.7285630305479097 0.1901347940302016 0  1.272575415946692 -0.08056046769971957 0  1.209601598951099 -0.1787772470611343 0  1.191798720260432 0.2270341578649802 0  1.267338466978949 0.1398725912960044 0  -0.9133267888682979 -0.6526465479471375 0  -1.04766808194373 -0.4464908622746148 0  -1.022192488612511 0.475266796865638 0  -0.8863948602909705 0.6620471212968233 0  0.9419572915122461 -0.6057907597967809 0  0.7750692945310904 -0.8235645698346755 0  0.7336544586328639 0.7929557327481985 0  0.9027198401481765 0.6075808547576729 0  0.04339930344437255 
[...]
<PointData  Vectors="f_36584"> 
<DataArray  type="Float64"  Name="f_36584"  NumberOfComponents="3" format="ascii">6.6399259285751131e-03 2.3987525889450799e-03 0.0000000000000000e+00  7.0148599604531502e-03 2.3866218673909861e-03 0.0000000000000000e+00  7.3539390407120868e-03 1.7066665426722436e-03 0.0000000000000000e+00  8.4562836213540708e-03 2.6451129117411390e-03 0.0000000000000000e+00  8.9911237825974419e-03 2.2079001507252171e-03 0.0000000000000000e+00  1.0216232592737746e-02 2.3018970857747166e-03 0.0000000000000000e+00  1.3207254553631085e-02 1.5245278623497765e-02 0.0000000000000000e+00  2.4405895329055665e-02 -1.0656114316803100e-04 0.0000000000000000e+00  1.6173012192633500e-02 2.7477852624178704e-03 0.0000000000000000e+00  -5.6868125747230085e+00 1.5717520146988542e+00 0.0000000000000000e+00  2.0110938906270272e-02 8.0379204705097861e-03 0.0000000000000000e+00  1.1416829159197105e-02 2.9402589749964450e-03 0.0000000000000000e+00  9.0452940710572249e-03 3.7194831347359208e-03 0.0000000000000000e+00  1.5090158837706966e-02 4.6440934785191047e-03 0.0000000000000000e+00  1.3423212710417336e-02 6.5432231730217939e-03 0.0000000000000000e+00  1.4060985668386207e-02 7.5224354200718255e-03 0.0000000000000000e+00  1.8595187470258848e-02 9.9431420693342400e-03 0.0000000000000000e+00  1.0021492679566658e-02 8.5921929409276867e-03 0.0000000000000000e+00  9.1692758531827980e-03 6.1558309230113828e-03 0.0000000000000000e+00  1.2652905480424814e-02 1.1679287692846634e-02 0.0000000000000000e+00  6.5125485696048459e-03 9.6573922306108072e-03 0.0000000000000000e+00  7.1902934928103381e-03 1.1531973440694492e-02 0.0000000000000000e+00  8.3222967103972170e-04 1.1433697297623651e-02 0.0000000000000000e+00  7.4686707397444768e-03 1.2165072823852088e-02 0.0000000000000000e+00  2.1156085103881820e-03 2.1569092784734609e-02 0.0000000000000000e+00  -1.1060565198979355e-02 1.1810772754978799e-03 0.0000000000000000e+00  -6.5336007383634247e-03 3.1657307235093573e-03 0.0000000000000000e+00  -7.3920866063933142e-04 1.1867227101224075e-02 0.0000000000000000e+00  -5.9726541520650671e-03 6.3074649524257325e-03 0.0000000000000000e+00  -7.1644356458158030e-03 7.9318876676201869e-03 0.0000000000000000e+00  -8.6781725842341884e-03 6.4521442111787897e-03 0.0000000000000000e+00  -1.0799282216832282e-02 5.2030577166919563e-03 0.0000000000000000e+00  -1.1888822540707620e-02 3.9758449424554731e-03 0.0000000000000000e+00  -1.2883152798381117e-02 2.7247278159722660e-03 0.0000000000000000e+00  -1.4398711181565682e-02 6.4938021305465852e-04 0.0000000000000000e+00  -1.5329304078225704e-02 -1.0987363908916141e-03 0.0000000000000000e+00  -1.5665604049356349e-02 -2.9300222507374673e-03 0.0000000000000000e+00  -1.6197610565044152e-02 -4.8741040744639053e-03 0.0000000000000000e+00  -1.5972414372495487e-02 -6.4222809536664391e-03 0.0000000000000000e+00  -1.5959228351992524e-02 -8.7300252922344335e-03 0.0000000000000000e+00  -1.5299975777682603e-02 -9.6332387672790325e-03 0.0000000000000000e+00  -1.4301368829643196e-02 -1.0870058716017783e-02 0.0000000000000000e+00  -1.3866499792209781e-02 -1.2578249171601986e-02 0.0000000000000000e+00  -1.2436437866616107e-02 -1.3492090754185282e-02 0.0000000000000000e+00  -1.1624040044130639e-02 -1.4309720715163583e-02 0.0000000000000000e+00  -9.9127035744286714e-03 -1.5188562384306914e-02 0.0000000000000000e+00  -9.2593116650426799e-03 -1.5140937079521844e-02 0.0000000000000000e+00  -7.4231721005616879e-03 -1.5600029203207879e-02 0.0000000000000000e+00  -6.4038203045140235e-03 -1.5783762479887317e-02 0.0000000000000000e+00  -5.5890306729017500e-03 -1.4920226296813067e-02 0.0000000000000000e+00  -4.2442200389083981e-03 -1.4788120672713876e-02 0.0000000000000000e+00  -3.7323166774867523e-03 -1.3928823304009061e-02 0.0000000000000000e+00  -3.0605975659673229e-03 -1.3159120273152417e-02 0.0000000000000000e+00  -2.8507618337345339e-03 -1.2120558564614949e-02 0.0000000000000000e+00  -2.8467109913380109e-03 -1.1127934440822157e-02 0.0000000000000000e+00  -3.2279644850075721e-03 -9.9162298290714941e-03 0.0000000000000000e+00  -3.2238576595690722e-03 -9.6215228279997369e-03 0.0000000000000000e+00  -3.6136938921551322e-03 -8.0965423093409834e-03 0.0000000000000000e+00  -4.1873757034187019e-03 -7.5558654826174418e-03 0.0000000000000000e+00  -5.6886746264492843e-03 -6.2218165561724976e-03 0.0000000000000000e+00  -4.9737777155735635e-03 -6.4495128623796314e-03 0.0000000000000000e+00  -4.9022933821524428e-03 -6.6184096070936779e-03 0.0000000000000000e+00  -7.3287233624810899e-03 -3.2109067922165588e-03 0.0000000000000000e+00  -1.0935078627639242e-02 -2.8756442791846252e-03 0.0000000000000000e+00  -1.4260217655575178e-02 -4.8062000610337970e-03 0.0000000000000000e+00  -9.3388382655533383e-03 -1.2359418223937069e-02 0.0000000000000000e+00  -7.5091787114156712e-03 -9.9132075042852701e-03 0.0000000000000000e+00  -7.6698372412690261e-03 -8.8897430701068963e-03 0.0000000000000000e+00  -8.0170545582000218e-03 -8.8921979358780340e-03 0.0000000000000000e+00  -6.6583119976572295e-03 -9.7925642215308580e-03 0.0000000000000000e+00  -7.3845939737896453e-03 -8.7006768058416201e-03 0.0000000000000000e+00  -7.5087423015607058e-03 -7.7808426581588656e-03 0.0000000000000000e+00  -5.2224638172535800e-03 -9.9396800095624422e-03 0.0000000000000000e+00  -6.3140544197113581e-03 -9.5610137401223819e-03 0.0000000000000000e+00  -6.5435943728325650e-03 -9.8765942307751271e-03 0.0000000000000000e+00  -6.0004208218977333e-03 -9.9250246948356224e-03 0.0000000000000000e+00  -5.8375587156000996e-03 -9.8584835703520446e-03 0.0000000000000000e+00  -7.9114793929564615e-03 -1.0277203962994067e-02 0.0000000000000000e+00  -3.6884749418392331e-03 -1.0280260361770748e-02 0.0000000000000000e+00  -3.8530008557788951e-02 -1.3243579512071646e-02 0.0000000000000000e+00  2.0240281512001763e-02 -7.0647694628316630e-03 0.0000000000000000e+00  8.6636166963524566e-02 1.2978166822286646e-02 0.0000000000000000e+00  1.0986935575608005e-02 2.9830046096028646e-02 0.0000000000000000e+00  2.7332501898840963e-03 2.9188196669146627e-02 0.0000000000000000e+00  -3.8184349953758905e-03 3.8194565849332951e-02 0.0000000000000000e+00  -1.6030422954342496e-02 3.2508165141830192e-02 0.0000000000000000e+00  -3.0678669684143994e-02 3.2879973501303089e-02 0.0000000000000000e+00  -1.6040755290692947e+00 -4.7260456012083008e-01 0.0000000000000000e+00  -3.2568184911089718e-02 -1.5688831091569506e-02 0.0000000000000000e+00  2.3656233725052056e+00 1.3100442497295657e+00 0.0000000000000000e+00  -3.4661125535325493e-02 1.2241295451479919e-02 0.0000000000000000e+00  2.3673198456332638e-02 2.3772511552267325e-02 0.0000000000000000e+00  -1.2142683721915988e-02 -1.5149289526147639e-02 0.0000000000000000e+00  -3.4728076410345664e-02 -1.2775798626187676e-02 0.0000000000000000e+00  -2.5091366007956546e-02 -1.1057264741552903e-02 0.0000000000000000e+00  -2.0441617196293425e-02 -1.0987994201296954e-02 0.0000000000000000e+00  -1.0511921400332689e-02 -1.7123571233920668e-02 0.0000000000000000e+00  -1.1706108819481000e-02 -1.3614829304837791e-02 0.0000000000000000e+00  -1.2964069339571640e-02 -1.1139280035851545e-02 0.0000000000000000e+00  -1.1096284076990825e-02 -9.4907305731750206e-03 0.0000000000000000e+00  -7.5285710653217180e-03 -8.5521153882591894e-03 0.0000000000000000e+00  -7.2818266945368203e-03 -8.5429824739756827e-03 0.0000000000000000e+00  -8.3126644967814987e-03 -8.2223032549214314e-03 0.0000000000000000e+00  4.2233070176279491e-04 -1.0230878768001762e-02 0.0000000000000000e+00  -1.0701169748947637e-02 -1.1220562771494377e-02 0.0000000000000000e+00  -9.1132766010806349e-03 -1.0187738691948129e-02 0.0000000000000000e+00  1.9066977345512628e-02 -6.6079473441016945e-03 0.0000000000000000e+00  8.4247700199404953e-03 -7.9725947846522576e-03 0.0000000000000000e+00  5.3983270685788757e-03 -3.8482307433408526e-03 0.0000000000000000e+00  -7.8892633871118878e-04 -9.5189488485090575e-03 0.0000000000000000e+00  8.7951111581556930e-03 -1.5164772725529841e-03 0.0000000000000000e+00  5.7634717341172792e-03 -5.6402965051113854e-03 0.0000000000000000e+00  3.3628987305975759e-03 -1.5904144097887837e-03 0.0000000000000000e+00  1.3178773458828237e-02 1.1708158273105525e-03 0.0000000000000000e+00  3.6315764122304985e-03 -4.6301657018852074e-03 0.0000000000000000e+00  5.5684000623699879e-03 -1.6079483203304705e-04 0.0000000000000000e+00  8.9332123683714612e-03 2.8306721425207476e-03 0.0000000000000000e+00  6.7649231332590895e-03 3.4370116001188264e-03 0.0000000000000000e+00  7.4754319608205978e-03 5.4655637425134592e-03 0.0000000000000000e+00  6.7353593028204092e-03 7.3448699480610381e-03 0.0000000000000000e+00  6.1923713105857666e-03 8.7600428131664916e-03 0.0000000000000000e+00  4.9985455709646081e-03 1.0049574393617680e-02 0.0000000000000000e+00  3.8248243783619473e-03 1.1002007435026674e-02 0.0000000000000000e+00  2.5148626319469593e-03 1.1963847513512411e-02 0.0000000000000000e+00  1.0256520339126090e-03 1.2638620128663626e-02 0.0000000000000000e+00  -5.8589193060790503e-04 1.2744118290125847e-02 0.0000000000000000e+00  -2.0982879102075958e-03 1.2887516506973621e-02 0.0000000000000000e+00  -3.6683479379542002e-03 1.2307205089142424e-02 0.0000000000000000e+00  -5.0704630316578915e-03 1.2044538297666985e-02 0.0000000000000000e+00  -6.3555084819063041e-03 1.1197021473021467e-02 0.0000000000000000e+00  -7.4042195705331252e-03 9.9042783269597551e-03 0.0000000000000000e+00  -8.1550562722791150e-03 8.6119735371740520e-03 0.0000000000000000e+00  -8.5504771841284442e-03 7.0091835496659538e-03 0.0000000000000000e+00  -8.7233290866014675e-03 5.2746420799690014e-03 0.0000000000000000e+00  -8.2760168309015426e-03 3.5317710558843527e-03 0.0000000000000000e+00  -7.0608164139499430e-03 1.3053932340091254e-03 0.0000000000000000e+00  -6.6707430184498925e-03 2.7613671708166576e-04 0.0000000000000000e+00  -6.0194209840641333e-03 -9.7690241656469049e-04 0.0000000000000000e+00  -4.2981522158311693e-03 -2.5096290155715200e-03 0.0000000000000000e+00  -2.4877275376769870e-03 -4.1466364599044197e-03 0.0000000000000000e+00  -8.6337659271747179e-04 -3.8500313132667175e-03 0.0000000000000000e+00  4.0698847275528090e-03 -7.7334139385713098e-03 0.0000000000000000e+00  -8.5704913963412916e-04 -1.2004883012598675e-03 0.0000000000000000e+00  -8.7737670033695980e-03 1.4840854429925816e-03 0.0000000000000000e+00  1.4661633683880059e-02 -1.9354125152648172e-02 0.0000000000000000e+00  1.3055640692663524e-02 -8.9689429318317790e-03 0.0000000000000000e+00  6.7911214857429682e-03 -6.9492905407244109e-03 0.0000000000000000e+00  1.1871924578369487e-02 -9.3155385406360602e-03 0.0000000000000000e+00  1.4171445938454319e-02 -5.9945589368838410e-03 0.0000000000000000e+00  8.8109656839908974e-03 -4.0933245824166364e-03 0.0000000000000000e+00  2.0768631144384240e-02 -7.8180356879219270e-03 0.0000000000000000e+00  1.8488116247515691e-02 -4.5983715549491305e-03 0.0000000000000000e+00  2.3497233020529924e-02 -1.6586374720045621e-02 0.0000000000000000e+00  1.1633533593855059e-02 -3.3746905766298541e-04 0.0000000000000000e+00  9.8812282465121047e-03 9.0037185818443185e-05 0.0000000000000000e+00  1.1496148377890045e-02 -4.3536021926386675e-04 0.0000000000000000e+00  1.1921932123531665e-02 3.9317033980787242e-05 0.0000000000000000e+00  1.2690527391631986e-02 8.2920272576113128e-05 0.0000000000000000e+00  1.3187743847696085e-02 1.1654923146203909e-03 0.0000000000000000e+00  1.2537739658916147e-01 -2.4853328805347397e-02 0.0000000000000000e+00  1.2644242466745391e-02 2.4599793697610934e-03 0.0000000000000000e+00  1.3946878665083194e-02 2.0955584341493592e-03 0.0000000000000000e+00  1.1214670482805581e-02 3.4962034712619117e-03 0.0000000000000000e+00  9.3786297024028038e-03 3.2219254314198838e-03 0.0000000000000000e+00  8.2549936261988120e-03 4.6178271502662653e-03 0.0000000000000000e+00  7.7215606723801036e-03 3.4006743913488659e-03 0.0000000000000000e+00  6.2181572242950194e-03 4.5346903166844929e-03 0.0000000000000000e+00  6.5808034896207698e-03 2.3152336780984401e-03 0.0000000000000000e+00  -8.4547679108733752e-03 -1.3355094021453972e-02 0.0000000000000000e+00  9.1100107370083814e-03 2.5913735450117654e-03 0.0000000000000000e+00  -6.2161179535892537e-03 -2.5434928322182241e-03 0.0000000000000000e+00  -6.9723564239296222e-04 1.1954644373487814e-02 0.0000000000000000e+00  3.9881586299436297e-03 1.8395575824129737e-03 0.0000000000000000e+00  1.1931201018102666e-02 4.1502206043009544e-03 0.0000000000000000e+00  -8.2784715968489131e-03 -9.7584115171334210e-03 0.0000000000000000e+00  -1.0335555108431963e-02 -9.6735641372285106e-03 0.0000000000000000e+00  1.2417591334512604e-02 1.0389916905927294e-03 0.0000000000000000e+00  -1.0454389718593823e-02 -7.6191306071722560e-03 0.0000000000000000e+00  -7.1792911944304361e-03 -7.0215848186576495e-03 0.0000000000000000e+00  -9.9994242076040544e-04 -2.4665814719681059e-03 0.0000000000000000e+00  -8.4316705879077577e-03 -8.0465892646647882e-03 0.0000000000000000e+00  1.6937275092582629e-03 8.2232845753587407e-03 0.0000000000000000e+00  1.4527860166973288e-02 7.1452955041785638e-03 0.0000000000000000e+00  -4.6477715635867903e-03 -5.9604496083810127e-03 0.0000000000000000e+00  4.5081864745753954e-03 8.4185545098564138e-04 0.0000000000000000e+00  1.1278643199164993e-02 3.4675656861934438e-03 0.0000000000000000e+00  -1.7251108025635382e-03 6.7072932028900785e-03 0.0000000000000000e+00  -7.7430378328408218e-03 -1.4167004157040771e-02 0.0000000000000000e+00  -4.5386052492439920e-03 -1.2174916725720793e-02 0.0000000000000000e+00  1.3021074498538876e-02 1.5010330331053317e-04 0.0000000000000000e+00  1.0367485100784756e-02 4.5665407014948544e-03 0.0000000000000000e+00  1.2050446128193426e-02 6.8881372372871568e-03 0.0000000000000000e+00  -6.8052767102018291e-05 -3.8750099705293175e-03 0.0000000000000000e+00  -5.2238192025786208e-03 -1.0951447240314067e-02 0.0000000000000000e+00  6.3984795622952749e-03 1.2008650343718074e-03 0.0000000000000000e+00  1.2336761267357577e-02 2.6942157648408779e-03 0.0000000000000000e+00  1.1321440723886392e-02 3.0192452715405590e-03 0.0000000000000000e+00  1.1942667696343334e-02 9.4719995142110663e-04 0.0000000000000000e+00  1.2591731225429644e-02 2.6073339117918671e-03 0.0000000000000000e+00  1.2197399400821429e-02 3.9875497761112395e-03 0.0000000000000000e+00  1.1400911167332901e-02 4.9674101833043129e-03 0.0000000000000000e+00  1.0912410018638522e-02 5.2543905436109213e-03 0.0000000000000000e+00  1.2806343398649223e-02 1.7213980205545948e-03 0.0000000000000000e+00  1.1992937189957332e-02 2.9745616556685070e-03 0.0000000000000000e+00  -8.3977012224417322e-03 -8.0751256534130761e-03 0.0000000000000000e+00  -9.0383497554614913e-03 -8.6958388775231973e-03 0.0000000000000000e+00  -9.2062687681754400e-03 -7.9765139784905414e-03 0.0000000000000000e+00  -8.5878490970241472e-03 -6.6792980075903868e-03 0.0000000000000000e+00  -1.0829333985635695e-02 -8.6954908785118450e-03 0.0000000000000000e+00  -1.4791230571396228e-02 -9.6940417654753572e-03 0.0000000000000000e+00  -1.2708825806280567e-02 -1.1541039513937508e-02 0.0000000000000000e+00  -7.7203776717976631e-03 -1.0732718014573718e-02 0.0000000000000000e+00  -7.4304822834113677e-03 -9.2501285054384253e-03 0.0000000000000000e+00  1.4526422031752330e-04 9.6607764707648675e-03 0.0000000000000000e+00  -8.9241538160544551e-04 7.3432360720238890e-03 0.0000000000000000e+00  -9.0040316298774638e-04 1.0288400429594126e-02 0.0000000000000000e+00  2.6772580515467617e-03 -5.7768348558457532e-04 0.0000000000000000e+00  -2.0602411394226943e-03 3.8176322454528426e-03 0.0000000000000000e+00  -1.2779749984019623e-02 -8.3669342032122555e-03 0.0000000000000000e+00  -7.1358420970104672e-03 -8.4196774556780946e-03 0.0000000000000000e+00  8.6849728421392342e-03 7.1990316162523754e-03 0.0000000000000000e+00  1.2972113094753357e-02 8.0897607356160157e-03 0.0000000000000000e+00  6.8575181838576738e-03 8.5734464538891747e-03 0.0000000000000000e+00  -8.5101510341565201e-03 -8.2663494696072516e-03 0.0000000000000000e+00  -7.5544960065591872e-03 -8.9786644079986235e-03 0.0000000000000000e+00  1.1850856351310156e-02 8.2981554651931138e-04 0.0000000000000000e+00  1.2493166749418040e-02 -1.1300945495819298e-03 0.0000000000000000e+00  1.1992445100967176e-02 5.9930130354236104e-03 0.0000000000000000e+00  1.2447734289051283e-02 4.7195556438476907e-03 0.0000000000000000e+00  -2.5194935228605906e-03 -2.4892217358626978e-03 0.0000000000000000e+00  -8.3261429986693277e-03 -6.4117303715906541e-03 0.0000000000000000e+00  -9.2316193335311662e-03 -7.3683240521047111e-03 0.0000000000000000e+00  -7.2434825705888755e-03 -9.7500596581667973e-03 0.0000000000000000e+00  7.8132337305464941e-03 -1.5917010503262443e-03 0.0000000000000000e+00  2.0655733394009538e-03 1.0937417723111745e-03 0.0000000000000000e+00  -3.0338803920575376e-03 2.7784566237759926e-03 0.0000000000000000e+00  2.6018741380187849e-03 5.3813449575946595e-03 0.0000000000000000e+00  -1.7123706328032542e-03 1.2455800679662520e-02 0.0000000000000000e+00  1.3686831201251924e-03 1.1369783312310316e-02 0.0000000000000000e+00  -7.9494578312223757e-03 -1.4849524920114175e-02 0.0000000000000000e+00  -1.0415201012195736e-02 -1.2254613471931769e-02 0.0000000000000000e+00  5.5305064598498424e-03 5.1822942914780479e-03 0.0000000000000000e+00  8.7399293387802370e-03 3.0891182076402623e-03 0.0000000000000000e+00  8.5655171495999764e-03 2.1108531509907028e-03 0.0000000000000000e+00  5.0261971534714001e-03 -4.0106396254465840e-04 0.0000000000000000e+00  -4.2125311283596617e-03 -7.0197828136813942e-04 0.0000000000000000e+00  -4.5239787790087183e-03 -5.5028327705284926e-03 0.0000000000000000e+00  -6.7207617387572988e-03 -4.5375977726265504e-03 0.0000000000000000e+00  3.1590481709333179e-04 4.6013143185642313e-05 0.0000000000000000e+00  3.8005496710847762e-02 -2.9922843672178130e-02 0.0000000000000000e+00  7.8664351865081351e-03 2.3420571172699150e-03 0.0000000000000000e+00  -1.0077297247548208e-02 -8.3697396167024020e-03 0.0000000000000000e+00  -8.2804733415413820e-03 -7.1279664953547289e-03 0.0000000000000000e+00  -8.6183342662745424e-03 -5.6899205176323339e-03 0.0000000000000000e+00  1.0771966873584100e-02 3.1610649019783222e-03 0.0000000000000000e+00  7.8491270375008505e-03 3.7335605629048394e-03 0.0000000000000000e+00  1.1552530091229933e-02 3.5402565029047897e-03 0.0000000000000000e+00  1.5173415222267718e-03 -3.4882294179901054e-03 0.0000000000000000e+00  -2.7852206986617834e-04 -1.6446912684917835e-03 0.0000000000000000e+00  2.9980847930901199e-03 9.7420485666148381e-03 0.0000000000000000e+00  -2.4061224858523504e-04 1.1067137305404246e-02 0.0000000000000000e+00  -8.0923154387345774e-03 -1.4363703591199936e-02 0.0000000000000000e+00  -8.3569048423204045e-03 -1.3192102523972347e-02 0.0000000000000000e+00  -8.1962268969484574e-03 -1.4792994290449602e-02 0.0000000000000000e+00  8.4580896611205891e-03 5.5725260227812087e-03 0.0000000000000000e+00  1.1618703775003349e-02 4.3228222726076184e-03 0.0000000000000000e+00  -2.1347982704820116e-03 4.9487326902104339e-03 0.0000000000000000e+00  -3.6610235844711952e-03 9.9789128203386784e-03 0.0000000000000000e+00  -1.0696961302435215e-02 -7.8312916770043300e-03 0.0000000000000000e+00  -7.8603406471111793e-03 -1.8501885274679751e-03 0.0000000000000000e+00  8.4434707886384946e-03 -1.4306390729862161e-02 0.0000000000000000e+00  -2.2486328801300192e-03 -6.3969739855314137e-03 0.0000000000000000e+00  -7.3765077083652346e-03 -1.0088579096525723e-02 0.0000000000000000e+00  2.1010312118108373e-03 7.5994350174386155e-03 0.0000000000000000e+00  2.5668202059321186e-04 1.8710866482712647e-03 0.0000000000000000e+00  -3.4888867292045870e-03 2.0037979830731206e-03 0.0000000000000000e+00  -5.8029572255860057e-03 -1.2140553662949966e-02 0.0000000000000000e+00  -5.9980546084329898e-03 -1.4541933998749132e-02 0.0000000000000000e+00  -7.8350846823352274e-03 -1.2163890712175251e-02 0.0000000000000000e+00  -5.7734514724296021e-03 -8.3031450296400487e-03 0.000000