<?xml version="1.0"?>
<VTKFile type="UnstructuredGrid"  version="0.1"  >
<UnstructuredGrid>
<Piece  NumberOfPoints="2549" NumberOfCells="4928">
<Points>
<DataArray  type="Float64"  NumberOfComponents="3"  format="ascii">1.472048563464113 0.03275017633872893 0  1.467566951039106 0.05577278130275784 0  1.443784240974115 0.06476106259206252 0  1.431463593663947 0.08087416782349582 0  1.426198377913818 0.09292960300610419 0  1.421565923199456 0.1164090519565248 0  1.401875667178485 0.1208519682201372 0  1.370467013386172 0.1255141313763416 0  1.39234255929955 0.1534031918676487 0  1.412635445351124 0.3596556003412359 0  1.383747337550984 0.1761595477206727 0  1.376270013932423 0.214890342196215 0  1.338326814123688 0.2321336723850538 0  1.335554769552484 0.2595773469887553 0  1.332181328987288 0.2909090332488011 0  1.313709665086112 0.3233839312107532 0  1.304781977590613 0.3575233962144381 0  1.285673359889233 0.3684745641249056 0  1.271796218130758 0.4201579111092752 0  1.259408104120724 0.4599193898584925 0  1.240123298612477 0.5044976688459996 0  1.221981173481383 0.5498431348810151 0  1.200098836203384 0.5973740028290567 0  1.176204886092784 0.6485487975455383 0  1.151570812798027 0.7039865246002168 0  1.113168992627849 0.7386885078703646 0  1.085226185108959 0.7935365921105321 0  1.052026435640158 0.8497801703319522 0  1.01172542664914 0.9034079016693686 0  0.9690087058988437 0.9590663466282198 0  0.9220523624623943 1.013817537707025 0  0.870103690030525 1.069079892384587 0  0.814504445328932 1.121794498558198 0  0.7556115290572852 1.17142100019283 0  0.6899263942970583 1.222212139671678 0  0.6213064869799699 1.26922456562419 0  0.5474169573982498 1.312643556784535 0  0.4695736887891641 1.352098163775894 0  0.3879005685234481 1.386212725956736 0  0.3024076324012029 1.415432668243453 0  0.214259342263567 1.438106703489198 0  0.1246330686098655 1.453438008862296 0  0.0325499406745538 1.463363980848159 0  -0.05956403007772101 1.465146794504337 0  -0.1518236120235212 1.459874995207235 0  -0.2427486629570773 1.446759855071284 0  -0.3319046140425284 1.4272437790671 0  -0.4183217171707582 1.398888039506273 0  -0.5006353483171708 1.367448442715258 0  -0.5803501845269865 1.329195075100426 0  -0.6553474376415778 1.284059718006167 0  -0.7257550124347382 1.235966616016604 0  -0.7910764196913381 1.183508215448355 0  -0.8520298345387414 1.128364503818537 0  -0.9065223342903649 1.071541379755385 0  -0.9598713223108103 1.010868409095616 0  -1.002319429056727 0.9579808109955789 0  -1.047201566849959 0.9040926345731261 0  -1.086244338912424 0.8423319076695879 0  -1.120286091148635 0.784365417097217 0  -1.149782730883576 0.728416387757076 0  -1.174065787123357 0.6683566042384437 0  -1.204549665552641 0.6269624483722112 0  -1.219518104997136 0.5511020020301158 0  -1.220695235740454 0.5115774578191942 0  -1.26353987281759 0.4994531804495767 0  -1.278433686426327 0.4491307901406759 0  -1.288043523566963 0.4104438314126233 0  -1.295840917460638 0.3721463570303502 0  -1.320911389945501 0.3498329451576956 0  -1.328806669767714 0.3002138207683918 0  -1.309539739593945 0.3260513453527564 0  -1.376239655426981 0.2886936535066679 0  -1.370584195063741 0.1935930840362559 0  -1.368204397304642 0.16869998786463 0  -1.372188631634007 0.1356277117250669 0  -1.385839559098686 0.1185376183598244 0  -1.395410342329506 0.08594473979117018 0  -1.396519414160039 0.1109842757440357 0  -1.379227723547378 0.02439888301117088 0  -1.406262215784344 0.09474723015399333 0  -1.43889738943289 0.1533709006931681 0  -1.471187178817731 0.07634510510782175 0  -1.479458759699163 0.04708710543972715 0  -1.502893805324544 0.01914657045982246 0  -1.485342258484032 -0.007019484526100126 0  -1.468609172862622 -0.03960022434060941 0  -1.291110810552025 -0.4231579402372234 0  -1.392210805012454 -0.04208130011551527 0  -1.590436428168992 0.3328860051021528 0  -1.436943379857057 -0.06385108469407853 0  -1.455550770325037 0.009223343532330038 0  -1.413709304869855 -0.1253557243563313 0  -1.388929034046302 -0.08846538783423856 0  -1.372487581542555 -0.1013292254467671 0  -1.379384728171935 -0.1238484958854315 0  -1.397384488370476 -0.2405238976625657 0  -1.326420325400511 -0.347135292785445 0  -1.359107983561819 -0.2401960117429024 0  -1.356320612485829 -0.2982156903794564 0  -1.321639024374408 -0.3248368987348378 0  -1.32792161544938 -0.3627486737429889 0  -1.326671536351501 -0.4028937085691069 0  -1.346987794553424 -0.4508101259531877 0  -1.236216903085796 -0.4669463784084237 0  -1.206691422306663 -0.5000037601839519 0  -1.251837051551724 -0.6186775107156276 0  -1.198437630161285 -0.6373543139441621 0  -1.188401324741859 -0.7024708868701359 0  -1.161516075942626 -0.765856182322853 0  -1.141576469790448 -0.8297435329537474 0  -1.095989692601954 -0.909313028696322 0  -1.03163340499167 -0.9341435595335594 0  -1.009102168930642 -1.007625756118455 0  -0.9543379645157463 -1.090052136183365 0  -0.8973178134585452 -1.144093905180333 0  -0.8364060813011103 -1.212929592044339 0  -0.7694987930491671 -1.272106377987055 0  -0.6971463341161241 -1.329365854326679 0  -0.6175310915611423 -1.381984308753766 0  -0.5353513734704117 -1.430314625082521 0  -0.4495885594062994 -1.467824765889774 0  -0.3564550457061787 -1.503217053098179 0  -0.2623967049903533 -1.530425904500531 0  -0.1642689574655215 -1.548811966355138 0  -0.06498695306823686 -1.558750762509726 0  0.03520060734210145 -1.55967964052731 0  0.1349789227575746 -1.551640006875229 0  0.2334197975090026 -1.534805173627042 0  0.3292766981382794 -1.50952577935704 0  0.4220248656474026 -1.476767252726506 0  0.5107766997406393 -1.436795064840766 0  0.5947738398503946 -1.390651325079373 0  0.674031502645675 -1.338935185541676 0  0.7466432449817074 -1.283365715748327 0  0.8167021018717864 -1.222468830418192 0  0.8764539452251321 -1.165732734161735 0  0.9335460513102054 -1.104347686496132 0  0.9873555383783253 -1.039061395294927 0  1.034143975911855 -0.975125530668661 0  1.076493095017545 -0.9109116663328488 0  1.114760303573021 -0.8484856102967431 0  1.147558778190581 -0.7860437538238385 0  1.175930056303225 -0.7250715666999867 0  1.207475230060769 -0.6795462357603103 0  1.230568025931615 -0.620105040236804 0  1.253624494715595 -0.5640939453881674 0  1.27001865257943 -0.5099056261342053 0  1.285772800078312 -0.4619386748189881 0  1.289382442111213 -0.4067504887160147 0  1.313867079652327 -0.3792889146552035 0  1.313151112259878 -0.2989127898257987 0  1.295373677005409 -0.3166320106398443 0  1.346239503191152 -0.2722882553246493 0  1.36489928153398 -0.2239702526552328 0  1.359296528241839 -0.1927211566489522 0  1.364643835959046 -0.1632008313087556 0  1.374234160680262 -0.1349551375003251 0  1.372242731991422 -0.100658604265603 0  1.829427426308471 0.4325632722641041 0  1.407613811969032 -0.07946615866502649 0  1.401687134940594 -0.08696231106658289 0  1.40980377397698 -0.05606643729712521 0  1.429005175483785 -0.04256605500220149 0  1.428563424524426 -0.02256200897748329 0  1.438271362815609 -0.011286841162113 0  1.445142602955162 0.004116511587690629 0  1.464924674504674 0.01237122444884892 0  -0.09701111525364763 0.8856829364647099 0  0.6902146121855957 -0.504697919750144 0  -0.8051667605273101 -0.3870271159743044 0  -0.07405388527982484 -0.9453199069281413 0  0.6507990765967899 0.4978618396763803 0  1.089089402300209 0.1171601017132022 0  -0.7944935583970618 0.4038601140133679 0  -1.156008016615982 0.02762010228837999 0  1.099551865296733 -0.06209198559421431 0  -1.037750775225488 -0.1768412054558573 0  -0.7329879309207967 0.01328803582565106 0  -0.4385671726593721 -0.140687469988111 0  -1.027876149326172 0.2083917347970107 0  0.3823440651469591 -0.8318006906148572 0  0.08378613820971739 -0.3049730095520121 0  0.3062960604120147 0.7700415204728775 0  0.2186371069301473 0.1849475690001499 0  0.5618191145404089 0.01777742862782286 0  -0.4802862597621635 -0.6983865150244088 0  -0.503268790888546 0.6913147356770269 0  -0.2399358465417775 0.306575239795051 0  0.9178161690582858 -0.2108400391746577 0  0.8961855595257304 0.2476885337991966 0  0.3527501268389224 -0.2146251622857934 0  -0.01110113726675679 0.2325641862106422 0  -0.4917009237214912 0.2094632852840267 0  -0.1879905695031222 -0.2805733388842447 0  0.8619975979593797 0.02333279728952086 0  1.248701754315201 0.03330431579287897 0  0.8043454986094405 -0.3384499643869419 0  0.7186833649253067 -0.1060518908510914 0  0.5854408986791108 -0.2071001478839773 0  0.4408282086747304 -0.07644663045142909 0  0.5140311572567966 -0.3704668562817253 0  0.8638611970355132 -0.08148170411280495 0  0.7141603458645729 0.02041251168513782 0  -0.8593087956446972 0.1215018328562598 0  -1.072772616382758 0.09946276050287575 0  -0.9487461806527462 0.0216400235673669 0  -0.8661241969569038 -0.09030774557152006 0  -1.075967142862125 -0.0533875694098293 0  -1.239346547394051 -0.08203933305375583 0  -1.312714667227227 0.002931258497138071 0  -1.309368654989152 0.05813332945178848 0  -1.230085519849227 0.1389566996229968 0  -0.1288423089054997 -0.6131020250163337 0  -0.3009425509617115 -0.5052925809151702 0  -0.2900473587446388 -0.8441895032721077 0  -0.3088106366341611 -0.2033466832152651 0  -0.4512844202698856 -0.4036681515370171 0  -1.229577879533568 -0.2001346531308423 0  -1.211980087085512 0.2438743071900235 0  0.3834168846585685 -0.502840697821924 0  0.216119564531865 -0.2466215060134331 0  0.243939039297225 -0.5616949264130094 0  -0.9115804045957655 0.2906956910832802 0  -0.7274721039751686 0.1898252520321916 0  1.269763187932095 -0.07670201655931912 0  1.206773900841353 -0.1748108374941421 0  1.186808973659838 0.2282968295197223 0  1.26222213720625 0.1419072763557319 0  -0.9114954407155195 -0.6543622559876768 0  -1.045165974352322 -0.4475099461430778 0  -1.021074091649555 0.4744407817438452 0  -0.8863817058096051 0.6622161880010056 0  0.9423902787518045 -0.6031389071754135 0  0.7772574379375556 -0.8222216911112192 0  0.7320948026572031 0.7939192765570269 0  0.8998849813481054 0.608135160369761 0  0.04677
[...]
<CellData  Scalars="f_27553"> 
<DataArray  type="Float64"  Name="f_27553"  format="ascii">1.1179513843349154e-01   1.1179558594394508e-01   1.1179671708115994e-01   1.1179495365177021e-01   1.1179832576508712e-01   1.1179677766863531e-01   1.1179937678112556e-01   1.1179822627166579e-01   1.1179566448105950e-01   1.1179842044916163e-01   1.1179497836917299e-01   1.1179597700243890e-01   1.1179214833097881e-01   1.1179960693470528e-01   1.1179261529344679e-01   1.1178915569730510e-01   1.1179914666197552e-01   1.1179628114489122e-01   1.1180026043379496e-01   1.1180015329956083e-01   1.1179202048052597e-01   1.1180034300952892e-01   1.1178927229313138e-01   1.1179294125964312e-01   1.1180188461774351e-01   1.1179504365487457e-01   1.1179690987353348e-01   1.1180278306079496e-01   1.1180037385023445e-01   1.1178965910025015e-01   1.1180089111431170e-01   1.1180138017815579e-01   1.1179481278724394e-01   1.1179921956642161e-01   1.1179388769286830e-01   1.1179543962348476e-01   1.1180044583068384e-01   1.1179901319587250e-01   1.1179787324786625e-01   1.1180168572250419e-01   1.1179657506529754e-01   1.1179733910175942e-01   1.1178751269997184e-01   1.1178818850220175e-01   1.1179657125380861e-01   1.1179715186597469e-01   1.1178397554012531e-01   1.1178049919950364e-01   1.1178655981685846e-01   1.1180347383739864e-01   1.1178501497847811e-01   1.1177964855788225e-01   1.1180391788203492e-01   1.1179007038320604e-01   1.1179639553200599e-01   1.1180444957419305e-01   1.1179274636625859e-01   1.1179655656920949e-01   1.1177606388153491e-01   1.1177142217703721e-01   1.1178834511539146e-01   1.1179575962137901e-01   1.1176532125349067e-01   1.1177138937159110e-01   1.1177768434582802e-01   1.1175830804350320e-01   1.1175639507552922e-01   1.1181353198463165e-01   1.1176007671534446e-01   1.1181761930369737e-01   1.1178289985406080e-01   1.1178407240882893e-01   1.1175235033942986e-01   1.1175151039007843e-01   1.1174258009782416e-01   1.1181800476742446e-01   1.1179446754381578e-01   1.1178246058161315e-01   1.1179567764447659e-01   1.1179886808466145e-01   1.1174932449316700e-01   1.1181922385313495e-01   1.1178504217389719e-01   1.1178374294086092e-01   1.1179060085208346e-01   1.1178361598762265e-01   1.1179682553351278e-01   1.1179382660542335e-01   1.1178651447274307e-01   1.1179715664408381e-01   1.1179167718726109e-01   1.1179180154420210e-01   1.1178284959537520e-01   1.1179882257097784e-01   1.1178960414241712e-01   1.1178824200955774e-01   1.1173472560473385e-01   1.1174715837056486e-01   1.1172664796698643e-01   1.1181638456736148e-01   1.1175431698962357e-01   1.1181861429339976e-01   1.1178611676129169e-01   1.1178946540943917e-01   1.1172798133733142e-01   1.1175275900863234e-01   1.1170168674348237e-01   1.1179568558866503e-01   1.1179167082822807e-01   1.1178577417330905e-01   1.1177560185952402e-01   1.1178772290478599e-01   1.1179679457169082e-01   1.1179246136898412e-01   1.1179548559900826e-01   1.1179729045689227e-01   1.1179381648006344e-01   1.1179518764092369e-01   1.1179678527420819e-01   1.1179626086450752e-01   1.1179529168373234e-01   1.1179458274090621e-01   1.1179010143438080e-01   1.1179384592753125e-01   1.1179807028386682e-01   1.1179990091664087e-01   1.1179540446026626e-01   1.1180181389772831e-01   1.1181152226428451e-01   1.1180224199925051e-01   1.1179771149012301e-01   1.1181337190109232e-01   1.1179620838354180e-01   1.1179539981092988e-01   1.1179473676376976e-01   1.1180077971476692e-01   1.1180100859152953e-01   1.1179704326787460e-01   1.1179934573588222e-01   1.1179980134417188e-01   1.1181553965117229e-01   1.1180089560755997e-01   1.1179469620551440e-01   1.1181818998093078e-01   1.1179635674388450e-01   1.1179842186057228e-01   1.1179552800810856e-01   1.1179601682410173e-01   1.1179806379642615e-01   1.1179517022642727e-01   1.1179962274571875e-01   1.1179976833400336e-01   1.1179460182327897e-01   1.1179724724930006e-01   1.1179440641282130e-01   1.1179431416945129e-01   1.1179342047858824e-01   1.1179339120672169e-01   1.1179212331569055e-01   1.1180056002524762e-01   1.1179893475896738e-01   1.1179610763314274e-01   1.1179838896300370e-01   1.1179862055861617e-01   1.1179590321697279e-01   1.1179809626298375e-01   1.1179596360056805e-01   1.1179563517829888e-01   1.1179718273097677e-01   1.1179657319361670e-01   1.1179625870576225e-01   1.1179930228283910e-01   1.1179781922013418e-01   1.1179535377347580e-01   1.1179833649544520e-01   1.1179858478678664e-01   1.1182105495384627e-01   1.1180035650946546e-01   1.1179205841641199e-01   1.1182414843491889e-01   1.1179031858045091e-01   1.1179020153840595e-01   1.1179089219770476e-01   1.1180082158206596e-01   1.1179880052254737e-01   1.1179358139522214e-01   1.1179772119215625e-01   1.1180042088592947e-01   1.1182568307375085e-01   1.1179777587678318e-01   1.1178871977844113e-01   1.1182871743842759e-01   1.1180395082888700e-01   1.1179931571256448e-01   1.1180436724856933e-01   1.1179313381913350e-01   1.1179936172884698e-01   1.1179391551865260e-01   1.1179642457104681e-01   1.1179719633090621e-01   1.1180464233307870e-01   1.1179893662215792e-01   1.1180449419087954e-01   1.1179500494076132e-01   1.1179744379263766e-01   1.1179800124226676e-01   1.1179741754733037e-01   1.1179698713483761e-01   1.1179855474847719e-01   1.1179551565350818e-01   1.1179680350449261e-01   1.1179645988264203e-01   1.1179864060074772e-01   1.1179793526398756e-01   1.1179789631850859e-01   1.1179775810431705e-01   1.1179710290155520e-01   1.1179538359089440e-01   1.1180044117226835e-01   1.1179731075990371e-01   1.1179772708518393e-01   1.1179686820501678e-01   1.1179805827684000e-01   1.1179809147372731e-01   1.1180383904027277e-01   1.1179881684299989e-01   1.1180395275818478e-01   1.1179682600473408e-01   1.1179755309558705e-01   1.1179400443364587e-01   1.1179912812640388e-01   1.1179633723054756e-01   1.1180093885187993e-01   1.1180359796005976e-01   1.1180580727936645e-01   1.1180584602090697e-01   1.1179599036244284e-01   1.1180060475757171e-01   1.1180597515001245e-01   1.1180526760861223e-01   1.1179740960529957e-01   1.1179843823537262e-01   1.1179791830982835e-01   1.1179826951272481e-01   1.1179760204406325e-01   1.1179600790663465e-01   1.1180075658856334e-01   1.1179827337493850e-01   1.1179573982883548e-01   1.1180061680640478e-01   1.1180481076557275e-01   1.1180420373656999e-01   1.1179636072654783e-01   1.1180002724197015e-01   1.1180353398904212e-01   1.1180347565973220e-01   1.1180020414481416e-01   1.1180027613914503e-01   1.1179905300084714e-01   1.1180428246456059e-01   1.1179630522044394e-01   1.1179818018488530e-01   1.1179664400871957e-01   1.1179824971427174e-01   1.1180027112375675e-01   1.1179663788281928e-01   1.1180053857003085e-01   1.1179953633653693e-01   1.1180374386254212e-01   1.1179906899739753e-01   1.1179826935229140e-01   1.1180379772735617e-01   1.1179604797018147e-01   1.1179878248943738e-01   1.1179579283056834e-01   1.1179640144351448e-01   1.1179907687641806e-01   1.1179697443834476e-01   1.1179910471688805e-01   1.1179961199669899e-01   1.1179662617549135e-01   1.1179851021451660e-01   1.1179687168670732e-01   1.1179724995952814e-01   1.1179686193081319e-01   1.1179777604470402e-01   1.1179703693790149e-01   1.1179916332096336e-01   1.1180124867523047e-01   1.1179582178943906e-01   1.1180189700745710e-01   1.1179826123772590e-01   1.1179606677002966e-01   1.1179765511035421e-01   1.1179541176791476e-01   1.1179528533646947e-01   1.1180263373094623e-01   1.1179433013667409e-01   1.1180301902171753e-01   1.1179547924020639e-01   1.1179898122663383e-01   1.1179616899787796e-01   1.1179836404326246e-01   1.1179783229120320e-01   1.1180386243260143e-01   1.1179942155806985e-01   1.1179761936257769e-01   1.1180387991398211e-01   1.1179717975521639e-01   1.1179762994965819e-01   1.1179755370054414e-01   1.1179971913227003e-01   1.1179902017699818e-01   1.1179732999949588e-01   1.1179805958880416e-01   1.1179880421885516e-01   1.1180384475791488e-01   1.1179892125700724e-01   1.1179716500154799e-01   1.1180382306894089e-01   1.0524219662311858e-01   1.2229567335751008e-01   1.1366518112811345e-01   9.4586290556481142e-02   1.1245794002379589e-01   1.1361624634598048e-01   1.1197929016212194e-01   9.0065434799820945e-02   1.1133347845654513e-01   1.1172885204824107e-01   1.1192178664005777e-01   1.1125675834891498e-01   5.3662976249561442e-02   8.5748277529729855e-02   1.1505143193999723e-01   7.7626168057822659e-02   1.1183110469444775e-01   1.1199329479031619e-01   1.1187888702031017e-01   1.1161457442292966e-01   1.1201334086803695e-01   1.1144434781534511e-01   1.1102788071688643e-01   1.1093098215095007e-01   1.1186553009590619e-01   1.1189910037772383e-01   1.1182583629714322e-01   1.1172885956875675e-01   1.1375966660785157e-01   1.1537529167418979e-01   1.1272565648679926e-01   1.0703856088829310e-01   1.1176079956956340e-01   1.1178627986650769e-01   1.1181168144331816e-01   1.1174487959518567e-01   1.1180595917418663e-01   1.1181391531443061e-01   1.1180411899991696e-01   1.1178267903652175e-01   1.1179732077754426e-01   1.1179736789656937e-01   1.1179691070262414e-01   1.1179456058089055e-01   1.1175777534959178e-01   1.1179354536856728e-01   1.1180271479539265e-01   1.1179422224106345e-01   1.0635931316751414e-01   1.1576764400401993e-01   1.1319518155932035e-01   1.1462640711343759e-01   1.1146024419488394e-01   1.1169052139033661e-01   1.1223768088926842e-01   1.1139146871333425e-01   1.1154723362843584e-01   1.1179658191732061e-01   1.1178135634459718e-01   1.1178018064512200e-01   1.1150681263123043e-01   1.1195366982058068e-01   1.1219713589212425e-01   1.1077536332026006e-01   1.1472451372877773e-01   1.1236339655833794e-01   1.1378532520601800e-01   1.1103248192957002e-01   1.1189531026656363e-01   1.0970917513033163e-01   1.1121298102248127e-01   1.0874461503276805e-01   1.1186142116975722e-01   1.1201706149491951e-01   1.1162579426459796e-01   1.1210775061317477e-01   1.1068069863916535e-01   1.1265772865020798e-01   1.1082766815123288e-01   1.0821938918386965e-01   1.1182529936531556e-01   1.1167705019227016e-01   1.1174842645842578e-01   1.1194486026263513e-01   1.1174539343312591e-01   1.1186997254759870e-01   1.1190812053835876e-01   1.1228796625077878e-01   1.1179873786619857e-01   1.1181454785822398e-01   1.1179721828655111e-01   1.1165708782219044e-01   1.1052993392819119e-01   1.1086935524242296e-01   1.1185444260667921e-01   1.0783968987957886e-01   1.1183731816200454e-01   1.1179665327502235e-01   1.1178176174172137e-01   1.1181345484747868e-01   1.1180037055740558e-01   1.1179389220698642e-01   1.1179860435645760e-01   1.1180619464148632e-01   1.1179683509201647e-01   1.1179826069580848e-01   1.1179430188883560e-01   1.1179846686392195e-01   1.1180341939783142e-01   1.1179658770499300e-01   1.1179565496223073e-01   1.1178929742571632e-01   1.0313408218302424e-01   1.0447874408563133e-01   1.1212805227170451e-01   1.0362564268839738e-01   1.1254752560064966e-01   1.1218427384280782e-01   1.1091373744248030e-01   1.1283456081928203e-01   1.1170713765050931e-01   1.1186677624261714e-01   1.1183974770604738e-01   1.1161883835370244e-01   1.2216264800187862e-01   1.1994874998013373e-01   1.1275622872508717e-01   9.6748295606753215e-02   1.1179815201943354e-01   1.1179244004512089e-01   1.1179770132411299e-01   1.1179842846656760e-01   1.1179215501803191e-01   1.1180015871425919e-01   1.1179200526054497e-01   1.1179459486560017e-01   1.1179757073086342e-01   1.1178872258871948e-01   1.1179709183811005e-01   1.1180033647952574e-01   1.1179909575723357e-01   1.1179360041595622e-01   1.1179968101886319e-01   1.1179930683273881e-01   1.1178519498460192e-01   1.1180072917441941e-01   1.1178680185929579e-01   1.1178951704619032e-01   1.1179854345876905e-01   1.1178947335457975e-01   1.1179919442657164e-01   1.1179965690934410e-01   1.1178805707132464e-01   1.1179994036188717e-01   1.1178711112340904e-01   1.1179042736928053e-01   1.1179188308690127e-01   1.1180001571500008e-01   1.1179181250862877e-01   1.1179364118835293e-01   1.1179559173220184e-01   1.1178146519863316e-01   1.1179034813955578e-01   1.1179922259941942e-01   1.1178171385055442e-01   1.1179811552199474e-01   1.1178329878460720e-01   1.1178577851143241e-01   1.1178240275400175e-01   1.1178077594127545e-01   1.1173782053179403e-01   1.1176979411850929e-01   1.1179860193081471e-01   1.1178485650471186e-01   1.1177857510274475e-01   1.1178590306028025e-01   1.1179969525044225e-01   1.1179323721108778e-01   1.1179963236200482e-01   1.1179992679040254e-01   1.1179218670303535e-01   1.1180108572167159e-01   1.1179147408759833e-01   1.1179418703234460e-01   1.1180044199162280e-01   1.1178914146672617e-01   1.1179011214884579e-01   1.1179309715552628e-01   1.1180061173019058e-01   1.1179094228793225e-01   1.1179486399169694e-01   1.1179808143889290e-01   1.1180406557654310e-01   1.1180116367049887e-01   1.1179627890497205e-01   1.1179933900858902e-01   1.1179785459329164e-01   1.1179076944287637e-01   1.1179339929834207e-01   1.1179813079970585e-01   1.1179780206349975e-01   1.1179648327926332e-01   1.1179744066456404e-01   1.1179186261744295e-01   1.1180123944405239e-01   1.1179526312847182e-01   1.1179287163950913e-01   1.1180248916317789e-01   1.1179331338846141e-01   1.1179111428672311e-01   1.1178357711145155e-01   1.1179008148277721e-01   1.1179699723308086e-01   1.1178274470427417e-01   1.1179929006393377e-01   1.1179561622846201e-01   1.1177232398339021e-01   1.1180397990464612e-01   1.1175617570341385e-01   1.1177189199324902e-01   1.1178872581141501e-01   1.1179496501964685e-01   1.1178117562326707e-01   1.1179031931314078e-01   1.1179851432524776e-01   1.1178836724735280e-01   1.1180080730684572e-01   1.1179209061618663e-01   1.1177902207291883e-01   1.1179494271238838e-01   1.1175570278356058e-01   1.1177375274252435e-01   1.1180720785591623e-01   1.1176693599607289e-01   1.1180354056853475e-01   1.1179896776977266e-01   1.1180228183169563e-01   1.1175644549214117e-01   1.1180400295969178e-01   1.1180767789978015e-01   1.1180489799306495e-01   1.1178306401549738e-01   1.1179889567828308e-01   1.1180845003119773e-01   1.1177197499512566e-01   1.1180468695660228e-01   1.1175986158836078e-01   1.1177564089669560e-01   1.1180627815829952e-01   1.1175888098869351e-01   1.1180917710444341e-01   1.1180931001760139e-01   1.1180944585617347e-01   1.1176809199292238e-01   1.1181032104442246e-01   1.1180347742936449e-01   1.0467388676324918e-01   1.1465574044048879e-01   1.1258319316385164e-01   1.1244518763250790e-01   1.1095195472078118e-01   1.1141810125926924e-01   1.1200875315240509e-01   1.1092027000758287e-01   1.1164120550123896e-01   1.1198596351243334e-01   1.1185471962248834e-01   1.1185026473390761e-01   1.1166195690403430e-01   1.1198320610792412e-01   1.1188443790183467e-01   1.1182110847898832e-01   1.1175114401667019e-01   1.1178787402976573e-01   1.1180925243768136e-01   1.1174357148094602e-01   1.1180377381398666e-01   1.1181171608460543e-01   1.1180422422682874e-01   1.1178485162562370e-01   1.1179499774908902e-01   1.1180058083297915e-01   1.1179688952869406e-01   1.1179531499312324e-01   1.1174568710243477e-01   1.1178597475169787e-01   1.1181037220866907e-01   1.1176045398452944e-01   1.1178753384636934e-01   1.1180544196962310e-01   1.1179920938297884e-01   1.1180348836897744e-01   1.1179373271820653e-01   1.1180150138081685e-01   1.1179732075059207e-01   1.1179548702370204e-01   1.1179653270906648e-01   1.1179643442912514e-01   1.1178965999761202e-01   1.1179665068971907e-01   1.1180034671198713e-01   1.1179689438328359e-01   1.1179469684910963e-01   1.1179500755631110e-01   1.1179694221395343e-01   1.1180892662812099e-01   1.1180272990655477e-01   1.1180238485532390e-01   1.1179630752854175e-01   1.1180167404625976e-01   1.1179654448294306e-01   1.1179642436987301e-01   1.1180105192285837e-01   1.1179664622619531e-01   1.1179508099685652e-01   1.1179521186359236e-01   1.1180118665479701e-01   1.1179656997594502e-01   1.1179551311039937e-01   1.1179775545123205e-01   1.1179779125928348e-01   1.1179433098973689e-01   1.1179434300991267e-01   1.1180244430438911e-01   1.1179396185286443e-01   1.1180187274430073e-01   1.1179635847234094e-01   1.1179669436743410e-01   1.1179340599281580e-01   1.1179347687941650e-01   1.1179231953329430e-01   1.1180193434469445e-01   1.1179932036656288e-01   1.1179907675098691e-01   1.1180021264407691e-01   1.1179578631702236e-01   1.1179310590760744e-01   1.1180249706092488e-01   1.1179760595398798e-01   1.1179723348624614e-01   1.1179567656847628e-01   1.1179165414546306e-01   1.1180856356506355e-01   1.1179791056440443e-01   1.1179293049635824e-01   1.1180700495979683e-01   1.1178932780726443e-01   1.1181125974311658e-01   1.1179685218273759e-01   1.1179147384517533e-01   1.1179853715644011e-01   1.1178241683789192e-01   1.1179152399549808e-01   1.1179283984208807e-01   1.1179048320313607e-01   1.1180164787819004e-01   1.1179429851023301e-01   1.1180332920556482e-01   1.1179282870518999e-01   1.1179718169540762e-01   1.1179253144231935e-01   1.1179160575533253e-01   1.1178271161646032e-01   1.1179351016350578e-01   1.1180011598778618e-01   1.1179621356261943e-01   1.1179210653145549e-01   1.1178290867409127e-01   1.1181454239636596e-01   1.1183666809152837e-01   1.1182027046370781e-01   1.1160881152655676e-01   1.1172355810443289e-01   1.1199456993097781e-01   1.1223896474435523e-01   1.1169289171056411e-01   1.1174543731668779e-01   1.1173765195567462e-01   1.1180012053443041e-01   1.1193786956939389e-01   1.1465984628886572e-01   1.1239949650664594e-01   1.0814941761389044e-01   9.2020223786876867e-02   1.1182037761861278e-01   1.1180379516601083e-01   1.1180153935329890e-01   1.1181115037297704e-01   1.1179681744110047e-01   1.1178802675602571e-01   1.1179208722421394e-01   1.1179944376276528e-01   1.1180654003758696e-01   1.1179661023786819e-01   1.1180562602615482e-01   1.1179206818306985e-01   1.1181325459470821e-01   1.1179979930951763e-01   1.1178832476729109e-01   1.1181153071228685e-01   1.1179375503632548e-01   1.1178931949123823e-01   1.1178688268521851e-01   1.1179085701370668e-01   1.1178905333496436e-01   1.1179012710462401e-01   1.1178520213781427e-01   1.1179172242336483e-01   1.1178358540318145e-01   1.1177521861199598e-01   1.1178575101016879e-01   1.1178889684266842e-01   1.1179134725777139e-01   1.1178259706258711e-01   1.1179062638046504e-01   1.1179906947660014e-01   1.1180601405690303e-01   1.1178932051890322e-01   1.1180883888553926e-01   1.1178948607348412e-01   1.1178293573865684e-01   1.1178678399020392e-01   1.1177005686962994e-01   1.1177993190392251e-01   1.1180528368494697e-01   1.1177843506833640e-01   1.1180479146687798e-01   1.1180852367793820e-01   1.1178464689976002e-01   1.1177858765534131e-01   1.1180441120054224e-01   1.1179505006003664e-01   1.1180822108913947e-01   1.1180047956876944e-01   1.1177472716986965e-01   1.1180017583242809e-01   1.1179235780021192e-01   1.1175173315949247e-01   1.1181876544049682e-01   1.1180668714661889e-01   1.1176698695438467e-01   1.1179768473592426e-01   1.1177539338502819e-01   1.1175490140613897e-01   1.1177601530276220e-01   1.1183211938756850e-01   1.1172548360575356e-01   1.1175557605307414e-01   1.1179323063625393e-01   1.1179895841676074e-01   1.1178945915023369e-01   1.1179760747286253e-01   1.1179876949581449e-01   1.1179521028895199e-01   1.1180052778340233e-01   1.1180133703010206e-01   1.1179124533961589e-01   1.1179829286833665e-01   1.1179121984187282e-01   1.1179620557618493e-01   1.1179308732635929e-01   1.1180138299644167e-01   1.1179212984976647e-01   1.1179186163246671e-01   1.1179816877674591e-01   1.1179679383839099e-01   1.1179981993448593e-01   1.1180045102945456e-01   1.1179364138884799e-01   1.1179966154343715e-01   1.1179266805891687e-01   1.1179362842187798e-01   1.1180012511705488e-01   1.1179641400861384e-01   1.1179686115161200e-01   1.1180051244386797e-01   1.11800272