<?xml version="1.0"?>
<VTKFile type="UnstructuredGrid"  version="0.1"  >
<UnstructuredGrid>
<Piece  NumberOfPoints="2549" NumberOfCells="4928">
<Points>
<DataArray  type="Float64"  NumberOfComponents="3"  format="ascii">1.474981630914291 0.02405032311063162 0  1.471205968766328 0.04716125120725317 0  1.447806848376961 0.05652154755040627 0  1.435838551106787 0.07240231248502565 0  1.431030120853326 0.08360509371169902 0  1.430635256291346 0.1065505633163073 0  1.413064178608191 0.1137743518694476 0  1.399952269780098 0.105677159312654 0  1.388084492365024 0.1506311278509128 0  1.520143161918673 0.6657300107018793 0  1.386970170408843 0.1744621898062563 0  1.380949844552091 0.2155689447050182 0  1.346253318328638 0.232087935654538 0  1.3398012792962 0.2596481418191996 0  1.336670898399347 0.2905203958049665 0  1.318405227027051 0.323077307174958 0  1.310320995245954 0.3574579602385622 0  1.290469232883166 0.3683220566009552 0  1.276657763404878 0.4201186985923497 0  1.26415024450213 0.4604519851427831 0  1.244067118617274 0.5048244786201084 0  1.225754184746963 0.5504608392510247 0  1.202803181468192 0.5979253938673126 0  1.179938430658652 0.6493638181731676 0  1.155215431520763 0.706941332898822 0  1.112643191741634 0.737094214743253 0  1.086341843867472 0.7927530571627035 0  1.054126100311864 0.8506380384662298 0  1.012692623978643 0.9032910333851184 0  0.9696352272009969 0.9591369660177086 0  0.9223286167209074 1.013585639873083 0  0.8699289952534398 1.068563524192283 0  0.8141612455517608 1.121057688111751 0  0.755095579752699 1.170440107597596 0  0.6891089629778099 1.220794032360973 0  0.6203706421053835 1.267481041582101 0  0.5464806954644144 1.310540611796403 0  0.4686071400378147 1.349650093230481 0  0.3870836480970133 1.383493080397644 0  0.3016731375373319 1.412298985908782 0  0.2137947659052372 1.434905070705084 0  0.1244661610996838 1.450081858637479 0  0.03257985742896584 1.459782016542371 0  -0.05914273050746209 1.461516142767185 0  -0.1511300931081999 1.456235919613383 0  -0.2416471523152912 1.44311729960081 0  -0.3305583624577894 1.42380860731955 0  -0.4166039882333269 1.395577154282924 0  -0.4986760218518025 1.364352979877547 0  -0.5781434932805692 1.326408661725199 0  -0.6529595131024389 1.28159760469493 0  -0.7232785748309493 1.233944284705314 0  -0.7885873335229535 1.181882108061397 0  -0.84955715984624 1.127202141408334 0  -0.9042917332375106 1.070852028133237 0  -0.9578700621713163 1.010667921387988 0  -1.000397471185517 0.9578693139862088 0  -1.04574074318324 0.9048733067712449 0  -1.08511381767803 0.8431583506204576 0  -1.119903055724283 0.7856723799519049 0  -1.148624310868515 0.729333505983675 0  -1.17243183173888 0.6689523743188035 0  -1.205453058064194 0.6301136087843291 0  -1.220195923890369 0.5528853386988473 0  -1.221138342407934 0.5124590581117494 0  -1.264890807061046 0.5009039161757273 0  -1.279636758748613 0.4505122080622633 0  -1.289315125113229 0.4120064258538212 0  -1.2967715055841 0.3733561830531184 0  -1.322196432874708 0.3513489454069412 0  -1.331187317933931 0.3017499806740337 0  -1.311374499713946 0.3285504698061915 0  -1.377373860024569 0.2895326584517365 0  -1.372465231140134 0.1944656280525805 0  -1.370088146950372 0.1695019875538484 0  -1.374534263211374 0.1363625712876667 0  -1.388560207558563 0.1193788202495181 0  -1.399131724414073 0.08655217318748419 0  -1.398626402630593 0.111880920891165 0  -1.38894140376316 0.02266445071267978 0  -1.407996296976003 0.09630188044670962 0  -1.437967111322639 0.1585764092347831 0  -1.474081150318513 0.07866741087450084 0  -1.482059215417354 0.0489257848431251 0  -1.504793920802224 0.02117257341306441 0  -1.488589663603192 -0.005378962146709333 0  -1.472726940477753 -0.03871585225299201 0  -1.283545311031765 -0.5229182159461607 0  -1.395054265303971 -0.04279574689034002 0  -1.704992556497257 0.504174990662604 0  -1.441163362851201 -0.0623779853608942 0  -1.45048547300975 0.0135253166746201 0  -1.408693340956015 -0.1298279149619666 0  -1.394766309114029 -0.08756615726743415 0  -1.376023775239855 -0.1007833463792051 0  -1.381439931444656 -0.1226931462927091 0  -1.398348984180104 -0.2418843714068447 0  -1.316935586752197 -0.3426089758069263 0  -1.360928688790509 -0.2390279037560228 0  -1.358108896771147 -0.2963746792716748 0  -1.323125986171187 -0.3230738499211685 0  -1.32936103279098 -0.3607677155296583 0  -1.328360621066997 -0.4005298506028806 0  -1.347186092122838 -0.448250260830768 0  -1.239522669638587 -0.4666942176973805 0  -1.209714903219585 -0.4995603814278589 0  -1.248670225233331 -0.6155044834118953 0  -1.199005020858998 -0.6373481983399246 0  -1.187972786818256 -0.700694090605344 0  -1.163203988875346 -0.7653141374786828 0  -1.140757346371715 -0.8275669239079543 0  -1.098305220242871 -0.9091932095600657 0  -1.033044229727569 -0.9323506515732383 0  -1.007702152942484 -1.005199522765929 0  -0.9557456139821775 -1.088704425307281 0  -0.8983427647949482 -1.142128195278276 0  -0.8367162909583262 -1.210143268841154 0  -0.7703294711686072 -1.269209638128003 0  -0.6980451718453261 -1.326131343789196 0  -0.618688187851253 -1.378436704639123 0  -0.5368643295315707 -1.426587111386098 0  -0.4514232098411966 -1.46391897907051 0  -0.3587589921094443 -1.499299494470058 0  -0.2651125909838996 -1.52642315201448 0  -0.1674432376866282 -1.544851065778143 0  -0.06864616476896779 -1.554972814539625 0  0.03110120263054781 -1.556076945883237 0  0.1304463392021213 -1.548412834953524 0  0.2285000819602 -1.531849311420842 0  0.3240176755752887 -1.506990725263997 0  0.4165061935663587 -1.474792641820152 0  0.5050874165428658 -1.435365786651205 0  0.5890110219187344 -1.389833073808916 0  0.6682830254008735 -1.338779142624047 0  0.7410184925790497 -1.283819816020365 0  0.8115394796838112 -1.223740701047581 0  0.8714252260721563 -1.167423345447893 0  0.9286513868524561 -1.106457061668522 0  0.9829769464757572 -1.041771450734385 0  1.030325414944204 -0.9783864978923454 0  1.073144202923995 -0.9143792159581703 0  1.112736125936219 -0.8528784943793773 0  1.144416483872259 -0.7891858772398392 0  1.170415928590984 -0.72760527867687 0  1.208567465861329 -0.6871209286378201 0  1.231338301779364 -0.6252583179475129 0  1.252741381321232 -0.5691044134414561 0  1.272398331360218 -0.5152990454407912 0  1.281358696684832 -0.464885970850739 0  1.28707780417599 -0.4111929687362504 0  1.315211057743403 -0.383675249547902 0  1.324430094575693 -0.3085303232679483 0  1.289689406777372 -0.3142698389201714 0  1.350452336863799 -0.2756373894785144 0  1.365465657474387 -0.2283554548905844 0  1.363621122212965 -0.1971627709412221 0  1.366874835273866 -0.167570695691577 0  1.376432664245056 -0.1390151177627088 0  1.375262389386029 -0.1056673847582526 0  1.604764399285128 0.824369179880778 0  1.411703935721198 -0.08573721662325241 0  1.404756339887272 -0.09279247043005259 0  1.411764585676816 -0.06173501110220472 0  1.431647719091135 -0.04857156390414111 0  1.430915420773773 -0.02927077833067762 0  1.440572840084303 -0.01790156252813849 0  1.447605033604204 -0.003683283868228615 0  1.467651971714385 0.003966931271547841 0  -0.09650182176816637 0.8822137463077852 0  0.6906996194740168 -0.5053864720608893 0  -0.8072683905825545 -0.3852704083416349 0  -0.07653740980212176 -0.9415501958075452 0  0.6537806484022426 0.4967451171592644 0  1.093576725174979 0.1155417844460428 0  -0.7953288707990617 0.4037719726483488 0  -1.15808427897859 0.02868875923259953 0  1.102989340360645 -0.06468840384439448 0  -1.039778805930055 -0.1757855126658052 0  -0.7344112404404379 0.01422380094604057 0  -0.4392519431177933 -0.1390361560879382 0  -1.02956171053314 0.2093832823526292 0  0.3803933200263361 -0.8300828510295821 0  0.08532632897589182 -0.303118640078738 0  0.3074933336138266 0.7675108625085454 0  0.2210726638520172 0.1837207543136556 0  0.5651641645595707 0.01741735569767079 0  -0.4824057449841226 -0.6950283238523457 0  -0.5029714884096455 0.6889682616753448 0  -0.2387171693609698 0.3042972783078976 0  0.9204286961662717 -0.2128972555299816 0  0.900437226789746 0.2467569702018386 0  0.3550140726689468 -0.2134706696903655 0  -0.008726301988603614 0.2298133601433535 0  -0.4918020377245851 0.208792687406037 0  -0.1882932537874828 -0.2788068746098991 0  0.8658177396051651 0.02205156934375964 0  1.252631393747214 0.0305565872418389 0  0.806080545203847 -0.3399360533835934 0  0.7218246784269736 -0.1068991610975737 0  0.5879627324610224 -0.2071851868152994 0  0.4436792691159465 -0.07614342478949013 0  0.5155462088926686 -0.3699218216299296 0  0.8672218518245874 -0.08298677653654321 0  0.7177798869416444 0.0196038409487988 0  -0.8608581439242418 0.1223048236636341 0  -1.074675070497197 0.100519523399565 0  -0.9505785480554673 0.02265684495155025 0  -0.8679702280972174 -0.08916100688839002 0  -1.07797263225721 -0.05232123383262906 0  -1.241522349910223 -0.0808862507191927 0  -1.315226061602983 0.003830512052934187 0  -1.311728840907796 0.05897634849284126 0  -1.232109255257477 0.139996657972346 0  -0.1306945501616628 -0.6097084286054693 0  -0.3028931877885188 -0.5019721318110192 0  -0.2923136444332456 -0.8403638548065731 0  -0.3091426928048773 -0.2015207526087951 0  -0.4530767751980605 -0.4007499352201796 0  -1.231483525361598 -0.1988888610204474 0  -1.213764131414429 0.2450453521974846 0  0.3839765501540928 -0.5013358446819959 0  0.2181249342522675 -0.244923000659478 0  0.2439273879475345 -0.5594212161289609 0  -0.9129306432720007 0.2913305522733263 0  -0.7285630305479097 0.1901347940302016 0  1.272575415946692 -0.08056046769971957 0  1.209601598951099 -0.1787772470611343 0  1.191798720260432 0.2270341578649802 0  1.267338466978949 0.1398725912960044 0  -0.9133267888682979 -0.6526465479471375 0  -1.04766808194373 -0.4464908622746148 0  -1.022192488612511 0.475266796865638 0  -0.8863948602909705 0.6620471212968233 0  0.9419572915122461 -0.6057907597967809 0  0.7750692945310904 -0.8235645698346755 0  0.7336544586328639 0.7929557327481985 0  0.9027198401481765 0.6075808547576729 0  0.04339930344437255 
[...]
<CellData  Scalars="f_36575"> 
<DataArray  type="Float64"  Name="f_36575"  format="ascii">1.1179437349182333e-01   1.1179771941859490e-01   1.1179458212672347e-01   1.1179547549872255e-01   1.1179925240137931e-01   1.1179567835493429e-01   1.1180075185463162e-01   1.1180022609576545e-01   1.1179390453775988e-01   1.1179923771855699e-01   1.1179317314178432e-01   1.1179546788922620e-01   1.1179152645422420e-01   1.1180157027017634e-01   1.1179117156717190e-01   1.1178841291754479e-01   1.1179953700280318e-01   1.1179592377649845e-01   1.1180081849878623e-01   1.1180117609673212e-01   1.1179128427058084e-01   1.1180098434873745e-01   1.1178869790191856e-01   1.1179206347716139e-01   1.1180217033210650e-01   1.1179489172213655e-01   1.1179662815512044e-01   1.1180308070492147e-01   1.1180146017711877e-01   1.1178868667231244e-01   1.1180161968096022e-01   1.1180281478737618e-01   1.1179314799664662e-01   1.1179919018223167e-01   1.1179217963398140e-01   1.1179519607264365e-01   1.1180003040555397e-01   1.1179929738624490e-01   1.1179726380369878e-01   1.1180197216282325e-01   1.1179544648344433e-01   1.1179619930050007e-01   1.1178452410573690e-01   1.1178712857001190e-01   1.1179632816116598e-01   1.1179675452594820e-01   1.1178267737896766e-01   1.1177979935381806e-01   1.1178588334855935e-01   1.1180396029695770e-01   1.1178472471153758e-01   1.1177961987751846e-01   1.1180404069282003e-01   1.1179064019857347e-01   1.1179596407453760e-01   1.1180396181135370e-01   1.1179269802673183e-01   1.1179627745935494e-01   1.1177602354195099e-01   1.1177219334385796e-01   1.1178834048651913e-01   1.1179465406962748e-01   1.1176780244423150e-01   1.1177460333898666e-01   1.1177971366572245e-01   1.1176104926237800e-01   1.1175825881298659e-01   1.1181343822838265e-01   1.1176242129148226e-01   1.1181698772639038e-01   1.1178252162572885e-01   1.1178458491752837e-01   1.1175467960167677e-01   1.1175352023018698e-01   1.1174494548371648e-01   1.1181836853356342e-01   1.1179587841292016e-01   1.1178193720758091e-01   1.1179723193436707e-01   1.1180000514208682e-01   1.1175020339917464e-01   1.1182093211407333e-01   1.1178269808346623e-01   1.1178260077354597e-01   1.1179335475921903e-01   1.1178150212977699e-01   1.1179888989783004e-01   1.1179626817767910e-01   1.1178411332118952e-01   1.1180140892015664e-01   1.1178769515351909e-01   1.1178981409339678e-01   1.1178167287879859e-01   1.1180089320715972e-01   1.1178771515319993e-01   1.1178675230508456e-01   1.1173697301104675e-01   1.1174586031984750e-01   1.1172743475078685e-01   1.1181915146838771e-01   1.1175129010491855e-01   1.1182594069125225e-01   1.1177972235997929e-01   1.1178645173944497e-01   1.1172927855038582e-01   1.1174179360244434e-01   1.1169036813798529e-01   1.1179338712132643e-01   1.1179706277073778e-01   1.1178042446495905e-01   1.1177231060396467e-01   1.1178471911333650e-01   1.1179778263624181e-01   1.1179060538749241e-01   1.1179747680497124e-01   1.1179739816770730e-01   1.1179249428041795e-01   1.1179814946648468e-01   1.1179482718145564e-01   1.1179483965152986e-01   1.1179859311892168e-01   1.1179165068188719e-01   1.1178742425145068e-01   1.1179133371335713e-01   1.1179865681288972e-01   1.1179807592280186e-01   1.1179363947628509e-01   1.1179831719531635e-01   1.1181164181098169e-01   1.1180235426735459e-01   1.1179486242680065e-01   1.1181525450074818e-01   1.1179554563646098e-01   1.1179447156451297e-01   1.1179456055201856e-01   1.1180130480156340e-01   1.1179907112644968e-01   1.1179644424874595e-01   1.1179721675363055e-01   1.1179936996214861e-01   1.1181652322828305e-01   1.1180134179659185e-01   1.1179357811706285e-01   1.1181879608280103e-01   1.1179578033836539e-01   1.1179787440621848e-01   1.1179551052751538e-01   1.1179604755793640e-01   1.1179707387981908e-01   1.1179520467879213e-01   1.1179880289755312e-01   1.1179902656435667e-01   1.1179479935044569e-01   1.1179690923037065e-01   1.1179414438696429e-01   1.1179474570036375e-01   1.1179333665407808e-01   1.1179253734394672e-01   1.1179228231626073e-01   1.1180102712472714e-01   1.1179692006537889e-01   1.1179551571241660e-01   1.1179635166247816e-01   1.1179796814290210e-01   1.1179546718899966e-01   1.1179784460782068e-01   1.1179560567704000e-01   1.1179577626381859e-01   1.1179553701951851e-01   1.1179567915174021e-01   1.1179356479028975e-01   1.1179737938642231e-01   1.1179730437013162e-01   1.1179495102712690e-01   1.1179591731831229e-01   1.1179600757628681e-01   1.1182096513826234e-01   1.1180079302877149e-01   1.1179112902297640e-01   1.1182290202856988e-01   1.1179091815278303e-01   1.1179023373924715e-01   1.1179107446089892e-01   1.1180156090863115e-01   1.1179847915265241e-01   1.1179337033810867e-01   1.1179484184188782e-01   1.1179715860491905e-01   1.1182404609947814e-01   1.1179686194533368e-01   1.1178534902845132e-01   1.1182364056763172e-01   1.1180550813875827e-01   1.1179783570553729e-01   1.1180536411673880e-01   1.1179420849379924e-01   1.1179826562013290e-01   1.1179517666736774e-01   1.1179574566372068e-01   1.1179630750853298e-01   1.1180493857210444e-01   1.1179789225337589e-01   1.1180419822959028e-01   1.1179616544296893e-01   1.1179838191405000e-01   1.1179730070036374e-01   1.1179829881579530e-01   1.1179772455036523e-01   1.1179773811646207e-01   1.1179664017203468e-01   1.1179652049583481e-01   1.1179603617091566e-01   1.1179913112968605e-01   1.1179752714387839e-01   1.1179848763134513e-01   1.1179852081982902e-01   1.1179701351029392e-01   1.1179637431552260e-01   1.1179995662133767e-01   1.1179722022741419e-01   1.1179723480080615e-01   1.1179768316576416e-01   1.1179770526116548e-01   1.1179764899546749e-01   1.1180324696971214e-01   1.1179811863709616e-01   1.1180297092713870e-01   1.1179766072182061e-01   1.1179726330430735e-01   1.1179534656861224e-01   1.1179873902795011e-01   1.1179639182823040e-01   1.1180054189152984e-01   1.1180249289007074e-01   1.1180368338862919e-01   1.1180487434450605e-01   1.1179690886791233e-01   1.1180002679130414e-01   1.1180506215281238e-01   1.1180467914906868e-01   1.1179807369840626e-01   1.1179805959415220e-01   1.1179851039167443e-01   1.1179887887509693e-01   1.1179749060302496e-01   1.1179694501941624e-01   1.1180046644411817e-01   1.1179828832762274e-01   1.1179666653873738e-01   1.1180019096612624e-01   1.1180449763828526e-01   1.1180419432943797e-01   1.1179699596545743e-01   1.1179945580595205e-01   1.1180381510717509e-01   1.1180467199945979e-01   1.1180500450357929e-01   1.1180259585539327e-01   1.1180029960221993e-01   1.1180753873874015e-01   1.1179696148632165e-01   1.1179662097777579e-01   1.1179677494822410e-01   1.1179950108494292e-01   1.1180252265917874e-01   1.1179781677371192e-01   1.1180225095151547e-01   1.1179897320641372e-01   1.1180712243778114e-01   1.1180075838181133e-01   1.1179736290722313e-01   1.1180680742923566e-01   1.1179728821009480e-01   1.1179769858705961e-01   1.1179638329896209e-01   1.1179694909175741e-01   1.1179865338985809e-01   1.1179777106276080e-01   1.1179897031246448e-01   1.1179965505499714e-01   1.1179742036591148e-01   1.1179795329625508e-01   1.1179763362278307e-01   1.1179800671952417e-01   1.1179723685852593e-01   1.1179670496347315e-01   1.1179743620382342e-01   1.1180078374753638e-01   1.1180276602950119e-01   1.1179728790126590e-01   1.1180297407659417e-01   1.1179707420340441e-01   1.1179771937516886e-01   1.1179627577919081e-01   1.1179647288768500e-01   1.1179606747775056e-01   1.1180308947803960e-01   1.1179613772673871e-01   1.1180316092692742e-01   1.1179410317952727e-01   1.1179842887161819e-01   1.1179712426348458e-01   1.1179775306610554e-01   1.1179733052627419e-01   1.1180658247872445e-01   1.1180104467703839e-01   1.1179666285368188e-01   1.1180627785605993e-01   1.1179763160861307e-01   1.1179674041804663e-01   1.1179800894599617e-01   1.1180130343611787e-01   1.1179892418750893e-01   1.1179813434463466e-01   1.1179770836112558e-01   1.1179875878426192e-01   1.1180594241897035e-01   1.1180053801548652e-01   1.1179659321948100e-01   1.1180523594463661e-01   1.0376492419201733e-01   1.2345307511451854e-01   1.1411979835119873e-01   9.2050466130864164e-02   1.1238896860190856e-01   1.1306936610120170e-01   1.1203831979422660e-01   8.7997387134626806e-02   1.1131891171414808e-01   1.1180539088642477e-01   1.1190881993972342e-01   1.1134667639660643e-01   6.0595751462295837e-02   8.9134632503620526e-02   1.1495860197911767e-01   8.6157391479557088e-02   1.1182102823597713e-01   1.1195490630427936e-01   1.1187465332221087e-01   1.1163158409106498e-01   1.1196524768296560e-01   1.1148619888869543e-01   1.1126803025807376e-01   1.1103398179679556e-01   1.1183779125138456e-01   1.1186786913406539e-01   1.1181306074288735e-01   1.1184267854941991e-01   1.1402556371818648e-01   1.1466548889421491e-01   1.1176841061725294e-01   1.1153808545805928e-01   1.1176690139498224e-01   1.1178963780511855e-01   1.1180916884499417e-01   1.1175700001726971e-01   1.1180549385549327e-01   1.1181166492524108e-01   1.1180242860343537e-01   1.1178786033611043e-01   1.1179928349121174e-01   1.1179767354023450e-01   1.1179676935877836e-01   1.1179488685756893e-01   1.1177400497583927e-01   1.1179791534969898e-01   1.1180082457189651e-01   1.1179971205444370e-01   1.0952306483691111e-01   1.1339557839865311e-01   1.1236149475886127e-01   1.1157310884126898e-01   1.1181044098042810e-01   1.1207884053639511e-01   1.1219842451726829e-01   1.1109701576630897e-01   1.1162817321467335e-01   1.1168037282690305e-01   1.1178997489508233e-01   1.1165338174279692e-01   1.1133278066751898e-01   1.1233554358606616e-01   1.1222172959531410e-01   1.1027258620549241e-01   1.1489159934209907e-01   1.1304375608308989e-01   1.1338057317767100e-01   1.1131659602748267e-01   1.1160384192427657e-01   1.0990599661278229e-01   1.1129050129875473e-01   1.0906258405750636e-01   1.1188248627919793e-01   1.1198929972117140e-01   1.1163841844823313e-01   1.1214625560961698e-01   1.1133118416496737e-01   1.1289411683428802e-01   1.1083703787795442e-01   1.0862497537482614e-01   1.1181313570722888e-01   1.1169199074974893e-01   1.1174927611910071e-01   1.1191689711142674e-01   1.1175404877949686e-01   1.1186639184122645e-01   1.1190214089122327e-01   1.1228111109333162e-01   1.1179776089030441e-01   1.1181798368951157e-01   1.1179743510331761e-01   1.1165876942777361e-01   1.1051148995262031e-01   1.1082781112166841e-01   1.1193429823923083e-01   1.0766506511404179e-01   1.1183676669385957e-01   1.1179806374888927e-01   1.1178408386322990e-01   1.1181742748816177e-01   1.1179983002023711e-01   1.1179599232960441e-01   1.1179910529720211e-01   1.1180609584456008e-01   1.1179712439576549e-01   1.1179806160526135e-01   1.1179460878594341e-01   1.1179980481278799e-01   1.1180563493050254e-01   1.1179666950703995e-01   1.1179687999287083e-01   1.1179140964618878e-01   1.0306704610169912e-01   1.0445325542036495e-01   1.1214117381328242e-01   1.0350823780351481e-01   1.1253003636300991e-01   1.1221846167581551e-01   1.1090669542232151e-01   1.1294756985363752e-01   1.1170609967747577e-01   1.1186792777314540e-01   1.1183973272366596e-01   1.1162568868160008e-01   1.2193673455122644e-01   1.1967874054531816e-01   1.1272044514031573e-01   9.7411251054990544e-02   1.1179863849233997e-01   1.1179072486464513e-01   1.1179839266925150e-01   1.1179896193608098e-01   1.1178960065071386e-01   1.1180106935608558e-01   1.1178912903150386e-01   1.1179272819932595e-01   1.1179866348564638e-01   1.1178456246825276e-01   1.1179895244470660e-01   1.1180185283272720e-01   1.1179982091815133e-01   1.1179154560120112e-01   1.1180070855038154e-01   1.1180015565254275e-01   1.1177840155822096e-01   1.1180330118882789e-01   1.1178023499924983e-01   1.1178510574246892e-01   1.1180040900972102e-01   1.1178508257379471e-01   1.1180046129175653e-01   1.1180120903258838e-01   1.1178249650503130e-01   1.1180162114651131e-01   1.1178238047957745e-01   1.1178662303315580e-01   1.1178884562338107e-01   1.1180109973960338e-01   1.1178877067721506e-01   1.1179150218534326e-01   1.1179863664624275e-01   1.1177083208813697e-01   1.1179344659650675e-01   1.1180279351747734e-01   1.1176866715249556e-01   1.1180162452933819e-01   1.1177601189464570e-01   1.1177769135696292e-01   1.1177972044286119e-01   1.1177380638500559e-01   1.1168609069425674e-01   1.1175184586570726e-01   1.1180072711696963e-01   1.1177875002945908e-01   1.1176861523218097e-01   1.1178079895844213e-01   1.1180064577913255e-01   1.1179110505343688e-01   1.1180050742556265e-01   1.1180081083598291e-01   1.1178949265773468e-01   1.1180207089760950e-01   1.1178889975926037e-01   1.1179235299616308e-01   1.1180173452826279e-01   1.1178560986844509e-01   1.1178710391017752e-01   1.1179127431205148e-01   1.1180167061095937e-01   1.1178898211119637e-01   1.1179356907171152e-01   1.1179765619259786e-01   1.1180474008315069e-01   1.1180109827099807e-01   1.1179594543005213e-01   1.1179929588292305e-01   1.1179702516382688e-01   1.1178965847746425e-01   1.1179001446423160e-01   1.1179651074654386e-01   1.1179779597604664e-01   1.1179472783798833e-01   1.1179776092652254e-01   1.1179134967109884e-01   1.1180238708793400e-01   1.1179145054907923e-01   1.1179397886426315e-01   1.1180513164366621e-01   1.1178944470719417e-01   1.1179191668219160e-01   1.1177161253739536e-01   1.1178392302078573e-01   1.1180474540518952e-01   1.1176995722314784e-01   1.1180763880349898e-01   1.1179901785316762e-01   1.1174917223773365e-01   1.1181986844509141e-01   1.1172235053228831e-01   1.1175112212366965e-01   1.1178161845616376e-01   1.1179923326278898e-01   1.1176879193031104e-01   1.1178308144170883e-01   1.1180022517146153e-01   1.1177999462690869e-01   1.1180601637421847e-01   1.1179670439218238e-01   1.1175961208695814e-01   1.1180853142438166e-01   1.1170923370586920e-01   1.1175003630003801e-01   1.1182380600125265e-01   1.1172174567111574e-01   1.1182835788104330e-01   1.1182763090976426e-01   1.1181928529209068e-01   1.1171356721295353e-01   1.1183275231776482e-01   1.1182950942747891e-01   1.1180951820386326e-01   1.1177178673792995e-01   1.1180693515117320e-01   1.1181452463188493e-01   1.1175491455400972e-01   1.1181543627247943e-01   1.1174150554973411e-01   1.1176189569550375e-01   1.1181956015308338e-01   1.1173301062559043e-01   1.1182540295769776e-01   1.1181995240853862e-01   1.1181460559554335e-01   1.1175465956192117e-01   1.1181802942999373e-01   1.1180325097815773e-01   1.0222562004570486e-01   1.1461473858661068e-01   1.1211455270473827e-01   1.1283266185267145e-01   1.1100881553792860e-01   1.1143409163073374e-01   1.1201418413642897e-01   1.1085285258406986e-01   1.1170293110885766e-01   1.1196526900192987e-01   1.1184724013922284e-01   1.1184246969413511e-01   1.1158108075139776e-01   1.1199977731648895e-01   1.1189842538826464e-01   1.1182350624582559e-01   1.1175654327571354e-01   1.1179218659135393e-01   1.1180905843929952e-01   1.1174909058177550e-01   1.1180322920651005e-01   1.1181190859237344e-01   1.1180482296718607e-01   1.1178560038050472e-01   1.1179596911875631e-01   1.1180199149045704e-01   1.1179615986825019e-01   1.1179590060053117e-01   1.1174348654692366e-01   1.1178402476205826e-01   1.1181119431517263e-01   1.1175899345126135e-01   1.1178580192595233e-01   1.1180573758254815e-01   1.1179704760621474e-01   1.1180361600609209e-01   1.1179424161789872e-01   1.1180329252846456e-01   1.1179686333502624e-01   1.1179675360585498e-01   1.1179508214236555e-01   1.1179480447328038e-01   1.1178481948520304e-01   1.1179417020617603e-01   1.1180166283780615e-01   1.1179602990731856e-01   1.1179189514315778e-01   1.1179264034180580e-01   1.1179926339754627e-01   1.1180834879481671e-01   1.1180329521584874e-01   1.1180216543309272e-01   1.1179684894985577e-01   1.1180306879652528e-01   1.1179590239643501e-01   1.1179744618506257e-01   1.1180233209680912e-01   1.1179599917241473e-01   1.1179306054096055e-01   1.1179353579931442e-01   1.1180288784501272e-01   1.1179594462865246e-01   1.1179412067795358e-01   1.1179685106313837e-01   1.1179880946447400e-01   1.1179503698368994e-01   1.1179462885564598e-01   1.1180276632796327e-01   1.1179479399560543e-01   1.1180190231615771e-01   1.1179711755090134e-01   1.1179758893611505e-01   1.1179392835650229e-01   1.1179445285554834e-01   1.1179306768479484e-01   1.1180168675168704e-01   1.1179940566846325e-01   1.1180009987997895e-01   1.1180014521714662e-01   1.1179615760588608e-01   1.1179422849345520e-01   1.1180195356891300e-01   1.1179786979590860e-01   1.1179768475860659e-01   1.1179622576306641e-01   1.1179404359995164e-01   1.1180584430203561e-01   1.1179818274105771e-01   1.1179509376708575e-01   1.1180460735706801e-01   1.1178554634155169e-01   1.1180488455044825e-01   1.1179835475576548e-01   1.1179138253787058e-01   1.1179521025781440e-01   1.1178334770728243e-01   1.1179250082252026e-01   1.1179409286870617e-01   1.1179175687005946e-01   1.1180105710678739e-01   1.1179538553287995e-01   1.1180238664628846e-01   1.1179357651545256e-01   1.1179743923193318e-01   1.1179373009051029e-01   1.1179351318241527e-01   1.1178531067848443e-01   1.1179419331632326e-01   1.1180011991367540e-01   1.1179774277876760e-01   1.1179319406410383e-01   1.1178357709074128e-01   1.1181225743950682e-01   1.1184333751289278e-01   1.1182350205335008e-01   1.1161965214501049e-01   1.1174968700839438e-01   1.1194731771596356e-01   1.1210122742067341e-01   1.1164125065008217e-01   1.1175760327467334e-01   1.1176307637303519e-01   1.1180665309714345e-01   1.1190623992787195e-01   1.1453963756437431e-01   1.1266479848609683e-01   1.0863326107228127e-01   9.3275725004001137e-02   1.1182277561166722e-01   1.1180378866473047e-01   1.1180292134040759e-01   1.1181392156491328e-01   1.1179535881015253e-01   1.1178887896207226e-01   1.1178938801062330e-01   1.1179850785222580e-01   1.1180900666605301e-01   1.1179421967079103e-01   1.1180867772235660e-01   1.1179486253835251e-01   1.1181737602056198e-01   1.1179826827157424e-01   1.1178999735532809e-01   1.1181732954894529e-01   1.1178986310458093e-01   1.1179388385370870e-01   1.1178059404227129e-01   1.1178673942858607e-01   1.1179559407069377e-01   1.1178328031808153e-01   1.1179221156120971e-01   1.1179629368886786e-01   1.1177420930061187e-01   1.1178722792379150e-01   1.1176775493385183e-01   1.1177782791071088e-01   1.1178700038807789e-01   1.1178531977796025e-01   1.1178357533373186e-01   1.1179634508149068e-01   1.1180974535232679e-01   1.1178349163197548e-01   1.1181246291026101e-01   1.1179573975482753e-01   1.1177673637280257e-01   1.1179603214874212e-01   1.1176172314742336e-01   1.1177250527996938e-01   1.1180737300948254e-01   1.1177163942043071e-01   1.1180145966370780e-01   1.1181279089800075e-01   1.1179554511517752e-01   1.1176530187805117e-01   1.1181058070582985e-01   1.1180788397077585e-01   1.1181664659152830e-01   1.1179560841334714e-01   1.1177865227138108e-01   1.1181107330781823e-01   1.1178012738901602e-01   1.1175898541329811e-01   1.1179819601600896e-01   1.1180138529093818e-01   1.1177848877098956e-01   1.1177862253121541e-01   1.1179770072016861e-01   1.1177922037015955e-01   1.1178765024128909e-01   1.1181372985199839e-01   1.1172559571858533e-01   1.1175495444967976e-01   1.1179559572531841e-01   1.1179819779204102e-01   1.1179173440889315e-01   1.1179882568483977e-01   1.1179836527012865e-01   1.1179627063671785e-01   1.1179986155509435e-01   1.1180061520393182e-01   1.1179310782114664e-01   1.1179802235274550e-01   1.1179277725423319e-01   1.1179709685517432e-01   1.1179503907554578e-01   1.1180081943302345e-01   1.1179323145214577e-01   1.1179374602503818e-01   1.1179801576690448e-01   1.1179743539606396e-01   1.1179958508828161e-01   1.1180003018484881e-01   1.1179437823201666e-01   1.1179949323129697e-01   1.1179339226552439e-01   1.1179458048522713e-01   1.1179997117224816e-01   1.1179652017342538e-01   1.1179731745008070e-01   1.1180047721200939e-01   1.11799816