<?xml version="1.0"?>
<VTKFile type="UnstructuredGrid"  version="0.1"  >
<UnstructuredGrid>
<Piece  NumberOfPoints="2549" NumberOfCells="4928">
<Points>
<DataArray  type="Float64"  NumberOfComponents="3"  format="ascii">0.9170181599812235 0.06286001417805678 0  0.9125818677624873 0.05071118159752865 0  0.8713959477345707 0.01455151874188006 0  0.8677980344867544 -0.01239965166421156 0  0.8608209344854458 -0.04328749885176145 0  0.8702189081636857 -0.06487836616669579 0  0.8766793298238675 -0.08573258198993722 0  0.9043739925842302 -0.08861542799628302 0  0.8807603191543454 -0.1204758862057302 0  0.8879334842716906 -0.1938748817686159 0  0.9567086869975734 -0.1396071749719569 0  0.9774666821025045 -0.1397125139569122 0  1.012927126145817 -0.1141929940026379 0  1.041930369567711 -0.09059075379209125 0  1.070483491519711 -0.06342242081134097 0  1.101601107868489 -0.01987882493609217 0  1.101100945046679 -0.01126583223377364 0  1.135034975357288 -0.02234006062704019 0  1.181028712130752 0.07422529991274829 0  1.203041285846848 0.1238095717086828 0  1.227916592641345 0.1944626940355374 0  1.246841863532819 0.2639919013210926 0  1.263213213258319 0.3406161695939958 0  1.276475532251984 0.4279370085715026 0  1.275298497446499 0.514091224338612 0  1.275673032484676 0.582421905271572 0  1.273872622226762 0.6779969767086225 0  1.263381408862878 0.7744802946795738 0  1.245649650534658 0.8741942174106777 0  1.220042899133599 0.9761277885501516 0  1.186156064504736 1.078934611531865 0  1.143807399562431 1.184319926601769 0  1.089435998813284 1.28384987947197 0  1.030377308476897 1.378567432743486 0  0.9600813727440185 1.479328347622986 0  0.8797572624285939 1.571079831003779 0  0.7900325639518249 1.657588099045582 0  0.6913276471687433 1.736175312043472 0  0.5842973734184003 1.805419820667535 0  0.4700611580992115 1.866141653968975 0  0.3481081836992183 1.911925982921342 0  0.2238590842662456 1.944638897913023 0  0.09477358901387863 1.96768604828352 0  -0.03573255660225341 1.974100186286303 0  -0.166072046255297 1.966581742336442 0  -0.2943677995634005 1.943875053470244 0  -0.4188214519991041 1.907638125296293 0  -0.5377599284763709 1.854641484062742 0  -0.6480182315592011 1.795381741966806 0  -0.7539300005094491 1.723351789383715 0  -0.8486246532563031 1.637297160868091 0  -0.933709504260803 1.544782070579285 0  -1.008530421655617 1.44550340979082 0  -1.07275202754217 1.340375159060047 0  -1.126766742975788 1.234547957548111 0  -1.168686466539188 1.116515675464323 0  -1.198927439207612 1.024961437026968 0  -1.232236778920295 0.9242032296347334 0  -1.248509222437968 0.8133438259917484 0  -1.25770928569443 0.7107923242491876 0  -1.260292465623147 0.613336652623068 0  -1.255060017406255 0.5152258137251908 0  -1.247339675550048 0.4353881660235361 0  -1.223185364310295 0.3171796977117778 0  -1.19250593384768 0.2762829769432459 0  -1.190376293248418 0.2415729290284667 0  -1.166571701330892 0.1768868407670182 0  -1.143047613782511 0.1287713559230285 0  -1.11530903245229 0.08051602945180725 0  -1.093140575534765 0.05495268488397953 0  -1.054020751207563 0.001278186633326461 0  -1.067712349137223 0.07030757381675645 0  -1.07623363676378 0.004721262503608825 0  -0.9760314157515673 -0.1177763443632552 0  -0.9442403709896127 -0.1278823145066887 0  -0.8939703036814748 -0.1503927217720914 0  -0.8689286399581009 -0.1446868152827713 0  -0.8169487270583298 -0.1547134622213249 0  -0.8334611898816022 -0.102542409780112 0  -0.6992908310962531 -0.1550705985542992 0  -0.799481932134759 0.02355139642086496 0  -0.9463183503878969 0.06781697253892095 0  -0.8525553966069843 0.05953743163528743 0  -0.8985164649434285 0.08454431959433856 0  -0.8702122614155761 0.1048515626572946 0  -0.906096151801389 0.1247751835866317 0  -0.8614560729007341 0.1488361619083109 0  -0.9687669983544118 0.1371165053431748 0  -0.8134610968975753 0.1824272923571356 0  -0.7101785053974774 0.3723246445696392 0  -0.8631959785242322 0.3071718776354909 0  -0.8477787315141456 0.3598256737509905 0  -0.9081415607847895 0.3435800556772663 0  -0.9379106032076494 0.3453653454025715 0  -0.9937707916019014 0.3177168633408394 0  -1.027929924139252 0.3064204897180692 0  -1.138978355160804 0.1760021158923112 0  -1.139015716516479 0.08777457310115289 0  -1.123485472791241 0.1635366539134337 0  -1.167749397817125 0.1017716891874869 0  -1.192757182585855 0.07371538420176671 0  -1.224589756595576 0.0204978978496726 0  -1.251582742473568 -0.03132818958260253 0  -1.279086492170413 -0.1003157654953416 0  -1.284381265125289 -0.1336156334128155 0  -1.323003342299849 -0.179149469680086 0  -1.353638067602668 -0.3137797581588775 0  -1.36579839381004 -0.4001988278877681 0  -1.376195702353462 -0.5089203880628645 0  -1.378466289211393 -0.616558224433583 0  -1.373569178749622 -0.7297118374010025 0  -1.360146751548011 -0.8488411388283356 0  -1.33376104782523 -0.9533324733432562 0  -1.311779205088514 -1.06851077429039 0  -1.271847099013668 -1.215122929762658 0  -1.218575963838711 -1.337220842472306 0  -1.154515678371768 -1.463708807603795 0  -1.078457219343699 -1.583096516158167 0  -0.9907099423046228 -1.696538004441789 0  -0.8918514590053103 -1.805661958912912 0  -0.7780031293756007 -1.897210177291664 0  -0.660828018107194 -1.973858765398223 0  -0.5318410972026915 -2.04826197715989 0  -0.3950949003308339 -2.102526031264123 0  -0.2525704182140546 -2.141457272611746 0  -0.1062545080835499 -2.16250176787924 0  0.04162102841847733 -2.166100139294163 0  0.1889958195139508 -2.151429271917432 0  0.3335205496888803 -2.119377586776093 0  0.4727715288897029 -2.070392114991018 0  0.6054878869675557 -2.006568769253701 0  0.7296895529763154 -1.928361266593228 0  0.8440890610346573 -1.838177820468476 0  0.9476187374720438 -1.736956094989299 0  1.03971277005689 -1.629469873693758 0  1.119127383342092 -1.507462581414307 0  1.183514414625914 -1.401234285755403 0  1.246575112846343 -1.285661575881917 0  1.29242824344288 -1.159329535393597 0  1.328360729124071 -1.038435853717677 0  1.354573237969848 -0.9190602802433189 0  1.371636434860943 -0.8029936522611967 0  1.380382107158172 -0.6910203604605445 0  1.379670549725861 -0.5818013771648842 0  1.376347146477381 -0.5002551904023598 0  1.373470472610918 -0.4013082960287112 0  1.356249942688587 -0.3032773219444772 0  1.335532479050438 -0.2165346637835167 0  1.312253586428002 -0.1380349648309634 0  1.282717716845958 -0.05866181601821074 0  1.256541985638089 -0.002422800788161816 0  1.205008789970156 0.1040392431386409 0  1.165903092918273 0.09692373073783833 0  1.163332521817462 0.1085811019615784 0  1.128235901941411 0.1571936797733265 0  1.095760400478354 0.18887792498587 0  1.062607682441829 0.2170967227448312 0  1.022694100524951 0.2472010076137507 0  0.9982335488600176 0.2503540292326945 0  0.9232682873890909 0.3107242900980668 0  0.9128551860100149 0.2372751030638872 0  0.9336684572041345 0.2076239839637755 0  0.9009474398634471 0.2080596603798889 0  0.8897273009058058 0.1897558135827519 0  0.8753877343293444 0.1702547641850816 0  0.875610004203762 0.1414303967165395 0  0.878259811528862 0.113734251666031 0  0.9058955162825466 0.0802777895092831 0  -0.06557268410680113 1.208380998502479 0  0.6459294553737451 -0.5223589765499611 0  -0.692032306598002 -0.2889005845967672 0  -0.08480698141808125 -1.342344027697844 0  0.5809001974046198 0.4823409565324452 0  0.7241967010672816 -0.01174076626608664 0  -0.6368500590824077 0.366046524627336 0  -0.7117929616484693 0.0830813559187738 0  0.74487114246354 0.09199614770195433 0  -0.7763479367466071 0.04153179834368637 0  -0.4209871457199452 0.05575568721458119 0  -0.2494388304097933 -0.1416539282244315 0  -0.7285655670889112 0.08909104538469903 0  0.4185470412382946 -1.120042423272431 0  -0.01192622665052137 -0.4829372504146268 0  0.3315163114302041 0.9824391516048165 0  0.02232099659553671 0.1998250398534528 0  0.2820663585666309 0.01813424155599029 0  -0.4841401570122604 -0.8752224921747415 0  -0.4582145635243537 0.8598668511021434 0  -0.1169369307548424 0.4188518107347892 0  0.7041215040341857 -0.05611887519628661 0  0.6658511946235499 0.1004803148643263 0  0.1826684242902191 -0.2640199954152372 0  -0.05060666018522265 0.2824674268898305 0  -0.2723662902696748 0.2531765583081367 0  -0.1504257598908214 -0.4125280283877376 0  0.5212294250695348 0.03123818513439706 0  0.7944671597377773 0.05002268999186242 0  0.6757492693485883 -0.2495543706508069 0  0.4485898991996264 -0.04246136601258649 0  0.3801453176952956 -0.1854158831836098 0  0.2033638294127658 -0.07712407673084264 0  0.3938889974430007 -0.419211417903105 0  0.5604655402455662 0.01138036265962564 0  0.4049013695474761 0.02440790605981294 0  -0.5321474630113141 0.09457943823610915 0  -0.6815959915579702 0.04889364701914339 0  -0.5764429013067958 0.07265076527667033 0  -0.5594898457378148 0.02979010434272303 0  -0.7021930391242716 0.1040419184688519 0  -0.8337684544482431 0.1459874051162907 0  -0.8073773357339242 0.1465779769139816 0  -0.7963053158986344 0.03844204535394137 0  -0.803120918039369 0.02437057539495679 0  -0.1214362138648114 -0.88509868847824 0  -0.2521280781493631 -0.6820358856123326 0  -0.3141328122144093 -1.155748120701375 0  -0.1901787729721817 -0.2619087914366113 0  -0.3479545554897344 -0.479153060248552 0  -0.9676116488154092 0.09895060238973802 0  -0.9100745318367678 0.05520532644749848 0  0.3237552797619397 -0.6569369926870154 0  0.08253371310744423 -0.3462783473914579 0  0.2113652750340665 -0.7941432039791256 0  -0.6831369892990647 0.195329088463449 0  -0.4542612137602359 0.173592564686711 0  0.8834221037203849 0.154396634426 0  0.9430969493376214 0.1006722100013314 0  0.9014084559498833 -0.02023600055385127 0  0.8557707169355306 -0.05749752022287907 0  -0.9783722171840629 -0.5960992456314802 0  -1.002731493791208 -0.2391284957639358 0  -0.9278195094193653 0.3451709683317732 0  -0.8908404304490837 0.6584811593463945 0  1.00021032884077 -0.5350053111448607 0  0.9027998686676597 -0.9338035922061125 0  0.8325233242916454 0.8512635415501326 0  0.9288732006425
[...]
<PointData  Vectors="f_44"> 
<DataArray  type="Float64"  Name="f_44"  NumberOfComponents="3" format="ascii">1.8239429943175520e-01 7.2747751332159605e-02 0.0000000000000000e+00  -2.0308856106103987e-02 -2.5586160087281917e-01 0.0000000000000000e+00  4.1393729624496153e-02 -1.5187417143592727e-01 0.0000000000000000e+00  2.6360468154825828e-01 -8.5013986476731307e-02 0.0000000000000000e+00  1.4607686616280718e-01 6.9899090119329120e-03 0.0000000000000000e+00  2.3210613480655906e-01 1.8475146285469868e-01 0.0000000000000000e+00  -7.6083383650294559e-02 1.3319424471827387e-01 0.0000000000000000e+00  -1.3309246326985294e-01 -1.8461017690993689e-01 0.0000000000000000e+00  2.4073399390444522e-01 -9.8661583455071228e-03 0.0000000000000000e+00  9.4257583020760219e-02 -8.5633944544293461e-02 0.0000000000000000e+00  -1.5186106731345009e-01 -2.1934534979789175e-01 0.0000000000000000e+00  -1.4150275061559459e-01 -9.5129062046448692e-02 0.0000000000000000e+00  -4.2141387127302726e-02 -2.4797609315741057e-01 0.0000000000000000e+00  -3.7148971731536161e-02 -2.1345807494669808e-01 0.0000000000000000e+00  2.2124404922118916e-02 -2.2593533918921566e-01 0.0000000000000000e+00  1.4325662827586544e-01 -1.8622297860854184e-01 0.0000000000000000e+00  -1.8697158580042372e-01 2.2504836432183803e-01 0.0000000000000000e+00  4.9059640112158243e-02 -9.9410751265434652e-02 0.0000000000000000e+00  1.7349487145675499e-01 -1.9873391569871460e-01 0.0000000000000000e+00  1.5556406875436629e-01 -1.4736043233611809e-01 0.0000000000000000e+00  1.8660406533002141e-01 -1.2851140463192964e-01 0.0000000000000000e+00  1.9891782560181631e-01 -9.9480022572012633e-02 0.0000000000000000e+00  2.0874552754408332e-01 -8.6693719529502097e-02 0.0000000000000000e+00  2.1938819055329423e-01 -2.6913525405977919e-02 0.0000000000000000e+00  2.2466717765837257e-01 1.2029076668637758e-02 0.0000000000000000e+00  2.2377529107776836e-01 -4.7032751203853664e-03 0.0000000000000000e+00  2.2176620311265877e-01 2.7539754828204942e-02 0.0000000000000000e+00  2.1460151952026144e-01 6.4366410323240836e-02 0.0000000000000000e+00  2.0449162954475469e-01 9.0945082778943226e-02 0.0000000000000000e+00  1.8808486257332824e-01 1.2069168037346574e-01 0.0000000000000000e+00  1.7338300616571548e-01 1.4264929726413028e-01 0.0000000000000000e+00  1.4180503461221791e-01 1.7211069853818670e-01 0.0000000000000000e+00  1.0619244955276183e-01 1.9751710860690411e-01 0.0000000000000000e+00  9.1256742939945984e-02 2.0460113459729184e-01 0.0000000000000000e+00  5.5016592527889277e-02 2.1640921568622379e-01 0.0000000000000000e+00  9.2083562104220244e-03 2.2420574175353350e-01 0.0000000000000000e+00  -2.7952239188842584e-02 2.2206863229789245e-01 0.0000000000000000e+00  -7.2450909968387225e-02 2.1163385454148143e-01 0.0000000000000000e+00  -1.0773525787686243e-01 1.9695616341487959e-01 0.0000000000000000e+00  -1.4701383767503778e-01 1.6837005889303291e-01 0.0000000000000000e+00  -1.8473341563512161e-01 1.2691521100297659e-01 0.0000000000000000e+00  -2.0282560364627972e-01 9.6036204901187291e-02 0.0000000000000000e+00  -2.1731792646644718e-01 5.1185470833196620e-02 0.0000000000000000e+00  -2.2483533574442552e-01 -2.7392720723626719e-03 0.0000000000000000e+00  -2.1729966957173724e-01 -5.1565502672450109e-02 0.0000000000000000e+00  -2.0242194115099377e-01 -9.8314784725152038e-02 0.0000000000000000e+00  -1.6909113280068808e-01 -1.4543674439507137e-01 0.0000000000000000e+00  -1.3563954539950954e-01 -1.7896287225509908e-01 0.0000000000000000e+00  -1.0738068289559283e-01 -1.9677741477913549e-01 0.0000000000000000e+00  -5.1039006841669517e-02 -2.1757391244903510e-01 0.0000000000000000e+00  9.9003358549319123e-04 -2.2456056291255605e-01 0.0000000000000000e+00  3.8856430674193927e-02 -2.2044102367258225e-01 0.0000000000000000e+00  8.4193284821389019e-02 -2.0704062417846839e-01 0.0000000000000000e+00  1.1520243155024810e-01 -1.9320162615317885e-01 0.0000000000000000e+00  1.5443683023915883e-01 -1.6038887836842794e-01 0.0000000000000000e+00  1.8270813786664677e-01 -1.3011239965204588e-01 0.0000000000000000e+00  1.7432871810137834e-01 -1.4259083293627159e-01 0.0000000000000000e+00  1.9677763505335824e-01 -1.0035471602818770e-01 0.0000000000000000e+00  2.2127200261302402e-01 -4.5611060603177496e-02 0.0000000000000000e+00  2.2104916335573832e-01 -2.9485446186873723e-02 0.0000000000000000e+00  2.2433551743504121e-01 7.7842336206678615e-03 0.0000000000000000e+00  2.1850117208229985e-01 3.4328452244579304e-02 0.0000000000000000e+00  2.2834282955196464e-01 5.3641662681900709e-02 0.0000000000000000e+00  1.4919575127004162e-01 1.4718186748629380e-01 0.0000000000000000e+00  1.0243130382038425e-01 1.4943237314790939e-01 0.0000000000000000e+00  2.1634055011201672e-01 7.4206172382600369e-02 0.0000000000000000e+00  1.4404737835964196e-01 1.7753107190743334e-01 0.0000000000000000e+00  1.3208872349777764e-01 1.8150313448069766e-01 0.0000000000000000e+00  7.7055723074199958e-02 2.0594794100876440e-01 0.0000000000000000e+00  2.5392931675008223e-02 2.2959429738123760e-01 0.0000000000000000e+00  1.3783576063615219e-01 1.7887335159506521e-01 0.0000000000000000e+00  2.5406259541706927e-01 -5.3328828671698025e-02 0.0000000000000000e+00  1.1283947645175699e-01 1.3083256363710591e-01 0.0000000000000000e+00  -2.2149254020743712e-02 2.3714013070205467e-01 0.0000000000000000e+00  -1.9765794398802761e-01 1.6163470035682020e-01 0.0000000000000000e+00  -1.3028560771112027e-01 7.2346400953622630e-02 0.0000000000000000e+00  -3.1937821782610509e-01 -1.9043054213544252e-02 0.0000000000000000e+00  9.5845274928294061e-02 1.2998160008687515e-01 0.0000000000000000e+00  -1.2190099720424218e-01 1.3432053857267315e-01 0.0000000000000000e+00  1.5854945240597714e-02 1.8200298543183968e-01 0.0000000000000000e+00  3.4975375078485797e-02 1.7826736132888027e-01 0.0000000000000000e+00  -2.7655209166865236e-01 5.9497389416421971e-02 0.0000000000000000e+00  -1.7401026545831999e-01 1.1830899086862182e-01 0.0000000000000000e+00  -8.0873734911969017e-02 5.3941843986305476e-03 0.0000000000000000e+00  -9.6124188957253706e-02 5.8275501792523230e-03 0.0000000000000000e+00  -1.1301560716731814e-01 3.9140734530408190e-03 0.0000000000000000e+00  -1.6908772510192771e-01 -1.1839355803805071e-01 0.0000000000000000e+00  -2.7812241194262666e-01 -6.1849622682596112e-02 0.0000000000000000e+00  3.7590892225529374e-02 -1.7210113121895562e-01 0.0000000000000000e+00  1.7963851700025041e-02 -1.8499434394505279e-01 0.0000000000000000e+00  -1.2257366339562840e-01 -1.4093023389682219e-01 0.0000000000000000e+00  8.9382568681543623e-02 -1.3066227740868000e-01 0.0000000000000000e+00  -3.1250537823242264e-01 -3.9876830421688297e-02 0.0000000000000000e+00  -1.3443956327079803e-01 -1.0476105889747134e-01 0.0000000000000000e+00  -1.7842989159063169e-01 -1.6617200940963636e-01 0.0000000000000000e+00  -3.5345313040295444e-02 -2.3439022955800179e-01 0.0000000000000000e+00  1.1683115950744467e-01 -1.4409921282414948e-01 0.0000000000000000e+00  2.5974306716900136e-01 1.6496672163066932e-02 0.0000000000000000e+00  1.3659358182114789e-01 -1.7081925916729820e-01 0.0000000000000000e+00  2.7665600612948628e-02 -2.3129895241700679e-01 0.0000000000000000e+00  6.9312640988427224e-02 -2.0748934402529068e-01 0.0000000000000000e+00  1.2443220841226450e-01 -1.8826456670377925e-01 0.0000000000000000e+00  1.3471826562436193e-01 -1.8059349574168421e-01 0.0000000000000000e+00  2.1003891189064247e-01 -1.0050798924904707e-01 0.0000000000000000e+00  6.7937296850291470e-02 -1.8307097514497733e-01 0.0000000000000000e+00  1.3837609543044072e-01 -1.4966027077475119e-01 0.0000000000000000e+00  2.2629480036602775e-01 -6.8533691074006406e-02 0.0000000000000000e+00  2.1402664285410627e-01 -5.3638771647208844e-02 0.0000000000000000e+00  2.2295591644160415e-01 -2.7303409059266377e-02 0.0000000000000000e+00  2.2301641592779245e-01 7.1488290159113744e-03 0.0000000000000000e+00  2.2345320269540583e-01 2.9130092013867275e-02 0.0000000000000000e+00  2.0557400181442356e-01 8.3967338697110594e-02 0.0000000000000000e+00  2.0083294619652303e-01 9.7376147298744956e-02 0.0000000000000000e+00  2.0652623801216652e-01 8.8843795632527978e-02 0.0000000000000000e+00  1.7266469827182790e-01 1.4087948136624517e-01 0.0000000000000000e+00  1.4095438848153460e-01 1.7528821229851119e-01 0.0000000000000000e+00  1.1663032597148920e-01 1.9047147360505293e-01 0.0000000000000000e+00  7.3005062443440238e-02 2.1154416082357977e-01 0.0000000000000000e+00  4.3172766108921394e-02 2.2068344436015805e-01 0.0000000000000000e+00  -1.1283675167534681e-02 2.2266506215834428e-01 0.0000000000000000e+00  -7.5586318879112824e-02 2.1141825156157240e-01 0.0000000000000000e+00  -9.8308190483548941e-02 2.0189474889953343e-01 0.0000000000000000e+00  -1.3602419306958846e-01 1.7634474453319851e-01 0.0000000000000000e+00  -1.8133746889949032e-01 1.3369198291044557e-01 0.0000000000000000e+00  -2.0463240840447025e-01 8.9812766400900149e-02 0.0000000000000000e+00  -2.2143451998547758e-01 3.7128995597535241e-02 0.0000000000000000e+00  -2.2328711620093902e-01 -1.6661277300399395e-02 0.0000000000000000e+00  -2.1309639914926318e-01 -7.0138926812141025e-02 0.0000000000000000e+00  -1.8991384054623001e-01 -1.1861071347711420e-01 0.0000000000000000e+00  -1.5829627054333886e-01 -1.5892978410219666e-01 0.0000000000000000e+00  -1.1884210271214997e-01 -1.8962866096183970e-01 0.0000000000000000e+00  -7.5132523276051938e-02 -2.1146437059455345e-01 0.0000000000000000e+00  -2.7294974986806962e-02 -2.2168479449863016e-01 0.0000000000000000e+00  1.2414732762873623e-02 -2.2471330950361093e-01 0.0000000000000000e+00  6.5084047099700906e-02 -2.1298892718667142e-01 0.0000000000000000e+00  1.0276924050492371e-01 -1.9927693760759921e-01 0.0000000000000000e+00  1.0591605731565819e-01 -1.9832786311468417e-01 0.0000000000000000e+00  1.4718655015608481e-01 -1.6629409862687847e-01 0.0000000000000000e+00  1.8377087851835158e-01 -1.3019797228673782e-01 0.0000000000000000e+00  1.9429160366931922e-01 -1.0982315485405618e-01 0.0000000000000000e+00  2.0975547203777209e-01 -7.8483930917808559e-02 0.0000000000000000e+00  2.1803581449600853e-01 -5.0948916219316576e-02 0.0000000000000000e+00  2.2307340442471130e-01 -1.5503253138743407e-02 0.0000000000000000e+00  2.2307711176944189e-01 1.6920216857508549e-02 0.0000000000000000e+00  2.2449679956881680e-01 7.9041615641683629e-03 0.0000000000000000e+00  2.1782866738566736e-01 4.1186512344376258e-02 0.0000000000000000e+00  2.0448330615101856e-01 9.5225674532301366e-02 0.0000000000000000e+00  1.9376431626169541e-01 1.0932707652091199e-01 0.0000000000000000e+00  1.8182204579164946e-01 1.3535139937427090e-01 0.0000000000000000e+00  1.4879573421151412e-01 1.5396532756973041e-01 0.0000000000000000e+00  1.7287512921162532e-01 1.9883131875819593e-01 0.0000000000000000e+00  3.7548751618643496e-02 1.0836045537816613e-01 0.0000000000000000e+00  -2.0250569388655057e-01 -1.2392263787232025e-01 0.0000000000000000e+00  1.4669738972632787e-01 2.0762218863312096e-01 0.0000000000000000e+00  2.0803011553526533e-02 2.1965702882258101e-01 0.0000000000000000e+00  -2.7995206454197296e-02 2.1781745107168579e-01 0.0000000000000000e+00  -3.1747381022198484e-02 2.4254017941763703e-01 0.0000000000000000e+00  -1.3449971892439561e-01 1.2447727747289795e-01 0.0000000000000000e+00  -1.4393119073219843e-01 2.3231545967195619e-01 0.0000000000000000e+00  8.6794319080777935e-02 8.3404780392235964e-02 0.0000000000000000e+00  2.4674758932562665e-01 -2.0764046396815488e-02 0.0000000000000000e+00  -1.3427239822722056e-01 2.0484515673776696e-01 0.0000000000000000e+00  -1.2553447197623382e-01 -1.2395878891167626e-01 0.0000000000000000e+00  1.2067339343251676e-01 -2.5699691290115911e-01 0.0000000000000000e+00  1.2588053610465014e-01 -9.0703570227608082e-02 0.0000000000000000e+00  2.7416228771972678e-01 2.2196398814415343e-02 0.0000000000000000e+00  1.0673706219759864e-01 1.4150077391567803e-01 0.0000000000000000e+00  2.2852514097296741e-02 2.6162178957083559e-01 0.0000000000000000e+00  -2.1311702134852731e-01 -6.8520511363733466e-02 0.0000000000000000e+00  9.7822306152538022e-02 -2.0167184532936211e-01 0.0000000000000000e+00  2.2289676919448576e-01 -2.1083834927842535e-02 0.0000000000000000e+00  -2.0005304538783875e-01 1.0069684542603793e-01 0.0000000000000000e+00  5.9852855817243561e-02 2.1620424485400208e-01 0.0000000000000000e+00  2.2219365642903285e-01 -2.5341699121119360e-02 0.0000000000000000e+00  1.7872732814899209e-01 -1.3478713385509516e-01 0.0000000000000000e+00  1.4789902520261700e-01 -1.6815132667545732e-01 0.0000000000000000e+00  2.2273564623167538e-01 1.9974648781486047e-02 0.0000000000000000e+00  1.2291584670287420e-01 -1.8715836355959650e-01 0.0000000000000000e+00  1.8854844122201367e-01 -1.2023073093730630e-01 0.0000000000000000e+00  2.2220464824947805e-01 -2.9070978273033406e-02 0.0000000000000000e+00  2.1531142321853147e-01 -6.3411755284815297e-02 0.0000000000000000e+00  -1.6597928038599133e-01 -1.5043411201538509e-01 0.0000000000000000e+00  -7.6222633317463304e-02 2.1564996219600077e-01 0.0000000000000000e+00  -1.7799168295119630e-01 1.3604036561564256e-01 0.0000000000000000e+00  -1.9774200909091114e-01 -1.1179729128198117e-01 0.0000000000000000e+00  1.8133524901650500e-01 1.3237371217714416e-01 0.0000000000000000e+00  5.7996442380240376e-02 2.1644754367031011e-01 0.0000000000000000e+00  -2.0294909715298556e-02 -2.2300097210293413e-01 0.0000000000000000e+00  -5.3625455499660558e-02 -2.1783273276123910e-01 0.0000000000000000e+00  2.2365526835690941e-01 4.1588058069890708e-03 0.0000000000000000e+00  2.2008873653939823e-01 4.1588349329752319e-02 0.0000000000000000e+00  -4.5340063275796323e-02 -2.2097339742258559e-01 0.0000000000000000e+00  -2.9707323078569766e-02 -2.2478757220308218e-01 0.0000000000000000e+00  1.0462326244972840e-01 -1.9783490472101517e-01 0.0000000000000000e+00  1.6034780299808890e-01 1.5987970190147832e-01 0.0000000000000000e+00  2.1574596129365556e-01 5.8821968994945309e-02 0.0000000000000000e+00  2.2279812853338843e-01 -2.0033478771613097e-02 0.0000000000000000e+00  2.0502925658306040e-01 -9.0071494128391452e-02 0.0000000000000000e+00  2.2337469118026571e-01 1.6197799004380169e-02 0.0000000000000000e+00  1.8365100082509184e-01 -1.2942817161579456e-01 0.0000000000000000e+00  2.2651328705086027e-01 -1.9944392772549523e-02 0.0000000000000000e+00  -3.4768364354589225e-03 -2.2432667729977657e-01 0.0000000000000000e+00  2.2139320477808486e-01 3.1686003107705474e-02 0.0000000000000000e+00  2.0346624304789029e-01 9.2820660135432262e-02 0.0000000000000000e+00  1.8585445438851006e-01 -1.2433429428846506e-01 0.0000000000000000e+00  1.7876636021888875e-01 -1.3476401933021676e-01 0.0000000000000000e+00  1.8602920655246191e-01 -1.2406903758106853e-01 0.0000000000000000e+00  1.9081678449705300e-01 -1.1660551320957600e-01 0.0000000000000000e+00  1.3553177434523267e-01 -1.7886137031755300e-01 0.0000000000000000e+00  -2.2232765852960207e-02 -2.2236712762377911e-01 0.0000000000000000e+00  -6.5940523674293400e-02 -2.1384856902028548e-01 0.0000000000000000e+00  -8.7209101532551014e-02 -2.0578281288252856e-01 0.0000000000000000e+00  2.0055443884181529e-01 1.1057101582462588e-01 0.0000000000000000e+00  -1.2013973829868474e-01 1.8931816261484385e-01 0.0000000000000000e+00  3.8707352275654305e-02 2.2102019119499106e-01 0.0000000000000000e+00  -9.6737673943459071e-02 2.0204249886495784e-01 0.0000000000000000e+00  2.1911711573414402e-01 5.0980864232475033e-02 0.0000000000000000e+00  1.6970190817614733e-01 1.4655281735014197e-01 0.0000000000000000e+00  7.0839449180212774e-02 -2.1259079949235313e-01 0.0000000000000000e+00  1.3118335582764382e-01 1.8221770587133937e-01 0.0000000000000000e+00  -1.7140981178376777e-01 -1.4430011100911741e-01 0.0000000000000000e+00  -2.2534309874775718e-01 1.2624691939764622e-02 0.0000000000000000e+00  -2.2242594604512633e-01 -2.7044730099179747e-02 0.0000000000000000e+00  2.0730471172846401e-01 -8.4867589580323977e-02 0.0000000000000000e+00  1.6775934541404688e-01 -1.4788705994097942e-01 0.0000000000000000e+00  1.9486769307344146e-01 1.1105220235379458e-01 0.0000000000000000e+00  1.4565162275462915e-01 1.7180522180237764e-01 0.0000000000000000e+00  1.3113501204601788e-01 -1.8336071408416399e-01 0.0000000000000000e+00  1.6965053183024204e-01 -1.4518666946260275e-01 0.0000000000000000e+00  2.1842501411608767e-01 4.9670512881297153e-02 0.0000000000000000e+00  2.0118957034719706e-01 -9.8211302393225328e-02 0.0000000000000000e+00  2.2391127025172411e-01 8.8148331957278534e-03 0.0000000000000000e+00  1.8976951031319353e-01 -1.1901628867558474e-01 0.0000000000000000e+00  2.0401065881308653e-01 -9.2683920781006318e-02 0.0000000000000000e+00  9.6713614455811614e-02 -2.0223394773512685e-01 0.0000000000000000e+00  9.0929656002283019e-02 2.0491970945292229e-01 0.0000000000000000e+00  1.9876494647142753e-01 1.0352831905443637e-01 0.0000000000000000e+00  -2.2410489143404608e-01 3.4882031632451363e-04 0.0000000000000000e+00  -1.5793933348230813e-01 1.5896443947511404e-01 0.0000000000000000e+00  -1.7906209724294045e-01 -1.3465600521100071e-01 0.0000000000000000e+00  -2.2308108505566585e-01 2.0531450394296234e-02 0.0000000000000000e+00  -5.7895395617076843e-02 -2.1648100236468168e-01 0.0000000000000000e+00  -4.8690515783402777e-02 2.2128528352264040e-01 0.0000000000000000e+00  3.4474755889981647e-02 2.2163366063956283e-01 0.0000000000000000e+00  -1.4599722706968535e-01 1.7078085782598398e-01 0.0000000000000000e+00  2.2331129337723890e-01 1.6741415189852844e-02 0.0000000000000000e+00  1.9937681760419021e-01 -1.0157937665536990e-01 0.0000000000000000e+00  2.0927556024033395e-01 -7.8967928430736425e-02 0.0000000000000000e+00  2.9417554721345981e-02 -2.2842597425911240e-01 0.0000000000000000e+00  2.0210510058618983e-01 9.6467737184061944e-02 0.0000000000000000e+00  2.2276822627994597e-01 5.6091766002056107e-02 0.0000000000000000e+00  1.4750621558999549e-01 -1.6818911086093047e-01 0.0000000000000000e+00  2.0110535580474886e-01 9.8493945791188864e-02 0.0000000000000000e+00  1.8821584147793663e-01 -1.2106625997427986e-01 0.0000000000000000e+00  1.7806834718645509e-01 1.3561913377759399e-01 0.0000000000000000e+00  1.7448248807548578e-01 1.4077336143878186e-01 0.0000000000000000e+00  2.1456886867373953e-01 6.3098821088512641e-02 0.0000000000000000e+00  -2.2032475218986003e-01 4.4716794365389639e-02 0.0000000000000000e+00  -8.8247764998331799e-02 2.0618253136279643e-01 0.0000000000000000e+00  -2.0586179301393379e-01 8.8449792626367707e-02 0.0000000000000000e+00  -2.2163063255778404e-01 -3.2162936980838316e-02 0.0000000000000000e+00  -7.9565445846784877e-02 -2.0921958689390407e-01 0.0000000000000000e+00  -1.7479515788654995e-01 -1.3978856664744840e-01 0.0000000000000000e+00  -1.4280277163124580e-01 -1.7244766679697437e-01 0.0000000000000000e+00  1.2887140656367358e-02 2.7061934065276727e-01 0.0000000000000000e+00  3.5468574901894485e-02 2.2522208609757502e-01 0.0000000000000000e+00  -3.3798661149216605e-02 -2.2158293461268283e-01 0.0000000000000000e+00  -1.7059784031525557e-01 -1.4536952212786830e-01 0.0000000000000000e+00  -1.6882995567604045e-01 1.4732230984504144e-01 0.0000000000000000e+00  -4.2938319768159726e-02 2.2000138085272805e-01 0.0000000000000000e+00  2.1432698412285708e-01 -6.7012852220753871e-02 0.0000000000000000e+00  -2.2364632407919513e-01 -1.7449925487047324e-02 0.0000000000000000e+00  -2.2007100756310094e-01 4.1017636897553819e-02 0.0000000000000000e+00  -1.7601099821884007e-02 2.2340228029367598e-01 0.0000000000000000e+00  1.4091867651917389e-01 1.7419451600219255e-01 0.0000000000000000e+00  1.8956113099573127e-01 1.1943741392279622e-01 0.0000000000000000e+00  9.6620216602884196e-02 -2.0210400379586013e-01 0.0000000000000000e+00  -5.5143765870047178e-02 -2.1716744789657216e-01 0.0000000000000000e+00  9.8965954199816547e-02 -2.0082674914819110e-01 0.0000000000000000e+00  1.6720032666336027e-01 -1.4860470564149214e-01 0.0000000000000000e+00  1.2137643215517829e-01 -1.8793712947421787e-01 0