<?xml version="1.0"?>
<VTKFile type="UnstructuredGrid"  version="0.1"  >
<UnstructuredGrid>
<Piece  NumberOfPoints="2549" NumberOfCells="4928">
<Points>
<DataArray  type="Float64"  NumberOfComponents="3"  format="ascii">-32.65541888060085 2.011520453697817 0  -32.69465047916135 -0.1610538311500961 0  -33.70869948897521 -3.078952740684032 0  -33.33070752179808 -5.658920235105401 0  -32.88890303464202 -8.305999626819926 0  -31.77100085043259 -10.58629824275759 0  -30.61508865595664 -12.7680213400826 0  -28.66644407344376 -14.29760142720061 0  -28.26312112070411 -16.6779156543103 0  -26.79245552761706 -20.31304877589971 0  -23.28052312723048 -19.79148990625025 0  -21.24532340643837 -20.94200563967072 0  -18.68831873667294 -21.20828464204032 0  -16.29369599359121 -21.47523539472925 0  -13.87514171615133 -21.57078181495631 0  -11.34114696326903 -21.08819992622054 0  -9.789723141700975 -21.67220279134298 0  -7.110747355896313 -22.83768107623746 0  -4.02322055069653 -20.51261735726353 0  -1.683036947965415 -19.64708999567925 0  0.7665777110549055 -18.06551034299534 0  3.041679941326413 -16.4798663835341 0  5.24925703915156 -14.62879736508399 0  7.370063670943518 -12.39854436340844 0  9.040221509378032 -10.17007650769683 0  10.77027921698557 -8.477632735959698 0  12.43995172567972 -5.880139788292915 0  13.83980130149423 -3.221347960003619 0  15.01539654956552 -0.4278381511808141 0  15.94567305855706 2.467231701832056 0  16.61697240988589 5.420051303503818 0  17.02284029061055 8.484538052967327 0  17.04873837543501 11.39022802892438 0  16.92885351292304 14.16998028130201 0  16.45307604611503 17.17072391886077 0  15.65961570938927 19.91037121647848 0  14.56810073958873 22.5090964658823 0  13.19155024551946 24.88091520905528 0  11.55050507381141 26.98008986868279 0  9.680386348918976 28.83266351464677 0  7.564459087810795 30.23320921967814 0  5.375803182840048 31.24133381047407 0  3.032754889434629 31.96595354507264 0  0.6442457843801962 32.18409503960129 0  -1.739302607658459 31.98219352332786 0  -4.058198710975181 31.3201323058398 0  -6.25527534088528 30.25107563116449 0  -8.277382917339605 28.67183273769199 0  -10.02364169073887 26.91849307552473 0  -11.63314283354715 24.78307393549174 0  -12.88646044631559 22.22572601083969 0  -13.83548312050369 19.4888487801155 0  -14.45975916810167 16.56314110985482 0  -14.74906773480166 13.47830559999217 0  -14.71651355667564 10.39967847945505 0  -14.3022667378083 6.959644178965725 0  -13.52028539553101 4.396712962174136 0  -12.84317292386294 1.569786010653785 0  -11.62832288371042 -1.549040598720509 0  -10.19543944011208 -4.369779362039316 0  -8.560028778710969 -6.994222888423179 0  -6.684767477888242 -9.605302688945685 0  -4.74130410867104 -11.59609357447136 0  -2.284672236403396 -14.77785699890887 0  0.3665631063205999 -15.44726139464821 0  2.0883172806018 -15.87866231914259 0  4.485846280539514 -17.22744741767064 0  6.854345102950377 -18.00211467832038 0  9.335067287108448 -18.73518166331824 0  11.61188792370668 -18.69358937613619 0  14.40195426661896 -19.50035938385689 0  15.46867838353788 -16.32648507952104 0  16.66251693675492 -17.40302367427467 0  21.29125751684208 -20.2400437585035 0  23.67951389730981 -19.41629027593213 0  26.59928106602097 -18.92161597842242 0  28.6417377574843 -17.45266219046131 0  31.46405458553877 -16.41273599026957 0  31.99807035086685 -13.30593404909995 0  37.24069985037692 -13.47244874430259 0  34.85175110847715 -6.167154981123499 0  30.81805741215119 -3.091988262957367 0  34.31159712468799 -1.63940352970229 0  33.14474336927684 0.921606583928945 0  34.15320763470157 3.355250005034084 0  32.90219338982108 5.776617517871099 0  34.02677548328425 8.307358523113734 0  30.09970067721918 9.649859555194723 0  34.40441783606647 12.75847302202072 0  36.89229427273427 20.42457821679957 0  31.04655711430188 19.85407702047326 0  30.47749444294736 22.97632675922555 0  27.38692429102928 23.81724588308625 0  25.19319148117808 25.16073993460296 0  22.09454043771548 25.49099583862591 0  19.63050524843187 26.27665640986101 0  14.65468594804906 23.18617178294491 0  13.18697062739833 21.38511378089636 0  12.17908317594009 24.77443428135393 0  9.224405610668583 23.70876934642461 0  6.856726482833107 23.67058690023325 0  4.244996532919553 22.77873079905307 0  1.76549296395106 21.88532425558236 0  -0.7504090849147366 20.398891552208 0  -2.5734474945642 20.01261638762251 0  -5.478847532074393 19.19482429592495 0  -8.142852654363557 15.48756262614343 0  -10.22839552281453 13.28616623574488 0  -12.26893235408229 10.33554335435006 0  -14.05966355265738 7.385270556139359 0  -15.63024148568685 4.225264233625279 0  -16.93629204795222 0.8418008951515036 0  -17.83496087129593 -2.104586124295097 0  -18.88123437139033 -5.423487341399148 0  -19.35908494989372 -9.778077590319466 0  -19.41543369629877 -13.37736746918319 0  -19.13128738302809 -17.14571383986859 0  -18.46741000316388 -20.71491103863874 0  -17.43318969586723 -24.12143300519738 0  -16.04662950541791 -27.41699936042569 0  -14.18315842086464 -30.17700300592011 0  -12.21556178552695 -32.48678574042729 0  -9.871903987401112 -34.75103889079953 0  -7.281465935534103 -36.39696359524388 0  -4.507250510339714 -37.57821049213754 0  -1.612456663022377 -38.21294565057526 0  1.331872950380729 -38.31520445741323 0  4.260178710765572 -37.85862577861516 0  7.097654799478907 -36.87166054303019 0  9.767118214213443 -35.36867826735222 0  12.22860150738293 -33.41685622344018 0  14.41913123136013 -31.03086575464761 0  16.29790864623754 -28.28796755141509 0  17.83118291077809 -25.21841166401527 0  19.00128076012558 -21.97525275312561 0  19.76885590860824 -18.29462503876842 0  20.05924768143849 -15.14652902999433 0  20.31140711568481 -11.72747082993387 0  20.01768213588537 -7.992688867083133 0  19.41184361822148 -4.461089787199034 0  18.50095134745149 -1.007875859472474 0  17.3039621334009 2.308920517384228 0  15.84825524346215 5.463391508225584 0  14.0981997686916 8.497489635370414 0  12.27377827836523 10.61282959365659 0  10.47390176242451 13.2506631647762 0  8.226432380911758 15.82364048986571 0  5.879779637885392 17.99849798473474 0  3.465361512227132 19.87119767754139 0  0.866608843993945 21.73181817776918 0  -1.606795798483948 22.81029732924014 0  -4.871585288296701 25.45205491660272 0  -7.716054409810519 24.41325554347274 0  -9.365741716903866 23.92667279103496 0  -12.02706458265758 24.57146210173945 0  -14.57113500445349 24.62042487292827 0  -17.09854093520125 24.50120396179003 0  -19.798046016924 24.38163743668645 0  -21.95172754763288 23.3353892425933 0  -25.66174182786509 24.05222984243741 0  -27.23608538132325 20.41549059377068 0  -27.72902120561169 18.10587521815423 0  -29.83850913469047 16.68248784856051 0  -31.14673228268781 14.58237656006596 0  -32.42276543963745 12.36895211748576 0  -33.08072449085707 9.787904076770527 0  -33.48905584756139 7.18409739372196 0  -32.90861372652035 4.352700906560267 0  1.475677114879536 19.85057674131857 0  -1.462133331127102 -0.6402682713106508 0  5.822558809235043 5.364548046034406 0  0.03068775470058799 -24.5658958335435 0  -3.543069586138351 -0.6403083692500221 0  -20.77756709532161 -7.478944354991915 0  8.147298016224582 -2.761315572037962 0  25.14830529602912 2.73162683986433 0  -20.15855650029643 10.06085343545147 0  14.29481543962564 12.77705040646476 0  17.80665009530125 2.134818753199254 0  10.81117261047789 -0.2715398823289179 0  16.41949988051428 -8.047061851363596 0  3.210045756725246 -17.53246565691337 0  -5.767209546885888 -10.11384834922072 0  1.639953837999826 13.23226974926933 0  -12.56693255932654 0.651163181647611 0  -16.57600160181098 0.4972585509812515 0  -0.282917845617998 -11.32750980386774 0  1.826502799886902 10.12368306061147 0  7.084608341520217 6.451904197197403 0  -11.60173665387481 10.04443168052416 0  -12.81929130493397 -8.650254840037435 0  -10.01029894115579 -2.131216682094327 0  -2.792912850821605 2.289659760562177 0  12.47314374258467 2.274040329246995 0  2.02216975249966 -8.039289873173324 0  -19.68233960139364 0.9806841064703683 0  -26.20885073181748 1.601441222665715 0  -6.508773723873011 5.971987471720885 0  -15.51299815506793 4.519835541594674 0  -11.70235032326559 2.062782637863321 0  -14.22126425598447 0.6492225408044433 0  -6.389334292588847 -2.218444298158678 0  -17.31275570543566 6.274820539595517 0  -18.02505931426172 0.7300654955936231 0  18.47719957648743 -2.247127247115168 0  22.01856731821472 -3.847879221992614 0  21.15578657174232 2.536654595251557 0  17.30441902331819 6.852618149866863 0  21.0616374901719 9.089869545968435 0  22.83324614864364 13.48516072614856 0  28.34435175929891 8.187406819775379 0  28.69865639402849 -2.193742656737688 0  23.81396731372817 -7.960681899324682 0  0.9041937708685932 -16.5477979872928 0  2.95458212311051 -10.90453984911552 0  -1.075210821434334 -19.44957836318824 0  6.728783891188801 -3.669584897927979 0  5.866845405511295 -4.862400044665227 0  14.1563986022628 17.66748774340049 0  16.29541065150108 -12.4594692427121 0  -2.659405088289423 -8.708826236485653 0  -7.979550586817797 -5.252123698906353 0  -1.020826127394566 -13.58806475140616 0  12.26966530954047 -6.43585900106298 0  15.366010492273 -1.507121728915282 0  -21.95143487733442 14.9105243039896 0  -14.33059084235859 17.43584715446802 0  -15.64333686593838 -14.85502001489292 0  -22.81499348962193 -11.80288421223418 0  -4.901418310148753 2.430534027702655 0  1.159765003589418 11.79672984053583 0  3.836402146734293 -8.336089521855659 0  -1.820947491383584 -0.3670315923161612 0  5.056127366905659 4.227937375774567 0  8.917051052526251 -6.997621404362262 0  6.668201632494531 4.356339783370772 0  2.773339264562475 -4.775821884475513 0  1.378941440678509 -31.7121121872299 0  -4.57439288615744 -28.79149917742796 0  -2.52159821051081 24.59235496522147 0  2.170146253159293 26.09978428538834 0  1.563695566228114 -8.8345194873046 0  -14.96748907807427 -0.352193677887185 0  -13.14978287468186 -1.873828744505473 0  -8.685195675277114 1.468784381675351 0  9.63791201216
[...]
<PointData  Vectors="f_44"> 
<DataArray  type="Float64"  Name="f_44"  NumberOfComponents="3" format="ascii">2.3138683125036660e-01 3.6017579633358394e-02 0.0000000000000000e+00  1.9079690991805182e-01 -1.1791405029238204e-01 0.0000000000000000e+00  1.8502919043782590e-01 -5.6669613844165995e-02 0.0000000000000000e+00  2.3156687493972819e-01 8.6890715608790151e-02 0.0000000000000000e+00  1.6594664365778355e-01 1.1725657697713845e-01 0.0000000000000000e+00  1.5398856550026521e-01 1.8634531111392089e-01 0.0000000000000000e+00  3.9077660268093985e-03 2.2382244936460147e-01 0.0000000000000000e+00  4.7093325626724213e-02 1.2527710894141492e-01 0.0000000000000000e+00  2.7504568318890144e-01 1.5230804526451638e-01 0.0000000000000000e+00  -4.5698228620206380e-02 3.3207897364734361e-02 0.0000000000000000e+00  -2.2083297681253369e-01 1.2236857312063004e-02 0.0000000000000000e+00  -1.3887857635843187e-01 1.6663154750395257e-01 0.0000000000000000e+00  -2.3981840038956659e-01 1.3442115290060399e-02 0.0000000000000000e+00  -2.1516546668572059e-01 6.1841173113584280e-02 0.0000000000000000e+00  -2.2267295239768239e-01 -6.0205993483695056e-02 0.0000000000000000e+00  -1.8622981507765593e-01 -2.1537569688120962e-02 0.0000000000000000e+00  -1.7655705522325030e-01 2.6246672363185580e-01 0.0000000000000000e+00  -8.4309878819811598e-02 -6.8784032220765137e-02 0.0000000000000000e+00  -1.0145660483466869e-01 -2.3058265976199771e-01 0.0000000000000000e+00  -1.4860770935334230e-01 -1.5311446721597979e-01 0.0000000000000000e+00  -7.3611610835991631e-02 -2.1930425090129399e-01 0.0000000000000000e+00  -6.4211242905933580e-02 -2.1140449367224137e-01 0.0000000000000000e+00  -1.7549069740956241e-02 -2.2545915291307680e-01 0.0000000000000000e+00  5.2314647989045185e-02 -2.1739226473383605e-01 0.0000000000000000e+00  2.4678817686837603e-02 -2.1982535524273800e-01 0.0000000000000000e+00  3.5545730420715627e-02 -2.1583709587486169e-01 0.0000000000000000e+00  1.2083678976422037e-01 -1.9359774002556573e-01 0.0000000000000000e+00  1.3932511265436348e-01 -1.7328912362347709e-01 0.0000000000000000e+00  1.7063287108427241e-01 -1.4585498158372032e-01 0.0000000000000000e+00  1.9240359957935638e-01 -1.1366303960272391e-01 0.0000000000000000e+00  2.0985234603501568e-01 -8.0351443903900102e-02 0.0000000000000000e+00  2.2091315484582943e-01 -2.9260147635334854e-02 0.0000000000000000e+00  2.2464693693105425e-01 8.5263094624955203e-03 0.0000000000000000e+00  2.1956493742025285e-01 4.0963803549598284e-02 0.0000000000000000e+00  2.0295928755161152e-01 9.5632190925469499e-02 0.0000000000000000e+00  1.7432076123342963e-01 1.4089709008306239e-01 0.0000000000000000e+00  1.3656004271338840e-01 1.7806077090695679e-01 0.0000000000000000e+00  8.2455493474848915e-02 2.0783132050585307e-01 0.0000000000000000e+00  2.9209411303738209e-02 2.2373675600998874e-01 0.0000000000000000e+00  -4.3454574716279441e-02 2.1894864748413367e-01 0.0000000000000000e+00  -1.2188491991641599e-01 1.8910285470954979e-01 0.0000000000000000e+00  -1.6575900969915897e-01 1.5303335188448486e-01 0.0000000000000000e+00  -2.0507885380838831e-01 8.7021567799215355e-02 0.0000000000000000e+00  -2.2684902944844137e-01 2.6284172354488973e-04 0.0000000000000000e+00  -2.0851224692586887e-01 -7.9300443084009270e-02 0.0000000000000000e+00  -1.6992437201859231e-01 -1.5044168995243723e-01 0.0000000000000000e+00  -9.5193870508578124e-02 -2.0129303505685742e-01 0.0000000000000000e+00  -2.3248215682972102e-02 -2.2426576779573601e-01 0.0000000000000000e+00  2.7607736649474246e-02 -2.2333019261531264e-01 0.0000000000000000e+00  1.0248307867382177e-01 -1.9810897195848712e-01 0.0000000000000000e+00  1.6113664765519770e-01 -1.5773794282757980e-01 0.0000000000000000e+00  1.9100880540401147e-01 -1.1612362979249882e-01 0.0000000000000000e+00  2.1456075059274010e-01 -6.6059234762312000e-02 0.0000000000000000e+00  2.2253409247894218e-01 -1.7293494001500379e-02 0.0000000000000000e+00  2.2509302647086651e-01 2.4537817481513659e-02 0.0000000000000000e+00  1.9963612069393183e-01 9.4538582269057800e-02 0.0000000000000000e+00  1.9256029565543958e-01 1.1511381893393126e-01 0.0000000000000000e+00  1.8691255870454257e-01 1.1952343423836455e-01 0.0000000000000000e+00  1.4772827456616811e-01 1.7106895826669846e-01 0.0000000000000000e+00  1.1255503563547753e-01 1.9123041918270367e-01 0.0000000000000000e+00  9.3770419333345276e-02 2.0767088759455513e-01 0.0000000000000000e+00  2.2381574244522858e-02 2.1612572761013071e-01 0.0000000000000000e+00  5.8900174681752931e-02 2.3346795305866216e-01 0.0000000000000000e+00  -3.3917587624996630e-02 1.7344864963377116e-01 0.0000000000000000e+00  -2.5992574306985144e-01 7.2437189068046859e-02 0.0000000000000000e+00  -1.2817309479560973e-01 1.7161925563644723e-01 0.0000000000000000e+00  -1.4052320566321294e-01 1.6596385529846938e-01 0.0000000000000000e+00  -1.9285589307396292e-01 1.4150263226146165e-01 0.0000000000000000e+00  -1.9174571837765145e-01 3.0979930044547199e-02 0.0000000000000000e+00  -2.7180335845196596e-01 9.6607771907171194e-02 0.0000000000000000e+00  2.7256997351661053e-02 -3.0196936095352751e-02 0.0000000000000000e+00  1.7653628177571717e-01 -6.5632041618940859e-02 0.0000000000000000e+00  -1.0076853987232504e-01 2.9092593381491377e-01 0.0000000000000000e+00  -1.1597767075512348e-01 6.0622405279337287e-02 0.0000000000000000e+00  -2.3546629352718021e-01 -1.3598262925978505e-01 0.0000000000000000e+00  -1.1234495381628674e-01 -1.2150153364925924e-01 0.0000000000000000e+00  -1.9264971144748155e-01 -2.0695380948086134e-01 0.0000000000000000e+00  1.1258414260399420e-01 -1.0545229594633680e-01 0.0000000000000000e+00  -1.1091167651942722e-01 -2.9692369261747956e-02 0.0000000000000000e+00  -1.9793942149931680e-03 6.6402116087116825e-02 0.0000000000000000e+00  1.6668031936910332e-01 2.2223421780076055e-01 0.0000000000000000e+00  -1.9308035465254422e-01 2.8865266808945449e-02 0.0000000000000000e+00  -3.0852274076541546e-02 -4.1474975967419385e-02 0.0000000000000000e+00  2.0844303584740523e-01 2.2448653059754974e-02 0.0000000000000000e+00  1.1516948543191680e-01 1.7751365092417402e-02 0.0000000000000000e+00  1.9204688849116580e-01 -3.0093653845439062e-03 0.0000000000000000e+00  -4.3865043908971009e-02 3.5046682970902784e-02 0.0000000000000000e+00  -2.1231490841503523e-01 -3.6420755955575569e-02 0.0000000000000000e+00  1.6524213756212075e-01 -2.1342407314699774e-01 0.0000000000000000e+00  -4.3445169595541242e-03 -8.1378737101338666e-02 0.0000000000000000e+00  -1.1921229265504400e-01 8.7194499165040001e-03 0.0000000000000000e+00  9.7336011298116934e-02 9.7526759598540333e-02 0.0000000000000000e+00  -2.2582756598877543e-01 1.7743337681017576e-01 0.0000000000000000e+00  -1.3214278242067848e-01 1.0258853003892211e-01 0.0000000000000000e+00  -2.3855301706792431e-01 1.1363662191472355e-01 0.0000000000000000e+00  -1.2593139304991829e-01 -6.6063553781362777e-02 0.0000000000000000e+00  -7.0466576900612005e-02 -2.8958469814528093e-01 0.0000000000000000e+00  1.9951615138517192e-01 3.2860764149787468e-02 0.0000000000000000e+00  3.5872120735966795e-02 1.6226916432377173e-02 0.0000000000000000e+00  -2.6102991850429297e-01 -1.2151966898964871e-01 0.0000000000000000e+00  -1.8846567303913969e-01 -4.5704489296362852e-02 0.0000000000000000e+00  -1.8167524991252942e-01 -1.5475238282058745e-01 0.0000000000000000e+00  -1.3120170455474739e-01 -1.7604962819980691e-01 0.0000000000000000e+00  -1.2673023058040836e-01 -1.6422853295936132e-01 0.0000000000000000e+00  -2.6408538495188094e-01 -7.3848034136086121e-02 0.0000000000000000e+00  -1.8396229591335109e-02 -1.7760463850498212e-01 0.0000000000000000e+00  7.1268597052411495e-02 -2.2825381517375765e-01 0.0000000000000000e+00  2.8895241633295887e-02 -2.1585546258213753e-01 0.0000000000000000e+00  1.0050603558229321e-01 -2.0428722231390972e-01 0.0000000000000000e+00  1.1572793654870984e-01 -1.8986773312662564e-01 0.0000000000000000e+00  1.5173960913050138e-01 -1.6582137685866732e-01 0.0000000000000000e+00  1.7958323727409659e-01 -1.3194350554876322e-01 0.0000000000000000e+00  1.8089841661776646e-01 -1.3524109058206807e-01 0.0000000000000000e+00  2.0124365095795793e-01 -8.9408210163451504e-02 0.0000000000000000e+00  2.2548407594711553e-01 -2.2784805903610695e-02 0.0000000000000000e+00  2.2274240903717782e-01 1.1798353338662901e-02 0.0000000000000000e+00  2.1729600080306399e-01 5.6219779042045608e-02 0.0000000000000000e+00  1.9750677243209949e-01 1.0414976661160300e-01 0.0000000000000000e+00  1.7649662891526446e-01 1.4086988523275959e-01 0.0000000000000000e+00  1.2311398338140664e-01 1.8495359220802318e-01 0.0000000000000000e+00  5.4230223643583431e-02 2.1880183427757879e-01 0.0000000000000000e+00  1.9209267563599367e-02 2.2429503677072379e-01 0.0000000000000000e+00  -4.8497079590582581e-02 2.1708044334654483e-01 0.0000000000000000e+00  -1.2991417637492661e-01 1.8583256318067928e-01 0.0000000000000000e+00  -1.8129857604508048e-01 1.3079689292029312e-01 0.0000000000000000e+00  -2.1859667051628329e-01 5.5882771226936530e-02 0.0000000000000000e+00  -2.2273961533220546e-01 -2.6878135468268758e-02 0.0000000000000000e+00  -1.9859671601571594e-01 -1.0631621312594448e-01 0.0000000000000000e+00  -1.4761302937655549e-01 -1.6885465751317805e-01 0.0000000000000000e+00  -8.4235710650844994e-02 -2.0866232643325022e-01 0.0000000000000000e+00  -1.5441768097510349e-02 -2.2353421820089023e-01 0.0000000000000000e+00  5.1440329965610640e-02 -2.1881913873945000e-01 0.0000000000000000e+00  1.1003096516426371e-01 -1.9488443237466771e-01 0.0000000000000000e+00  1.5462842959809522e-01 -1.6296169668601207e-01 0.0000000000000000e+00  1.9074160933754289e-01 -1.1783338903112850e-01 0.0000000000000000e+00  2.1524765314307931e-01 -5.9671876135101519e-02 0.0000000000000000e+00  2.2147309369113161e-01 -4.0181935211217351e-02 0.0000000000000000e+00  2.2182140221408342e-01 -2.0747253141331699e-03 0.0000000000000000e+00  2.1750882787128981e-01 5.9524555115294975e-02 0.0000000000000000e+00  2.0344379129589729e-01 9.1867208433308353e-02 0.0000000000000000e+00  1.8475056822934366e-01 1.2739425473889332e-01 0.0000000000000000e+00  1.5745171231765195e-01 1.5761842188552294e-01 0.0000000000000000e+00  1.3718068341430209e-01 1.8073854670069650e-01 0.0000000000000000e+00  6.4959947364261958e-02 2.1059794348749364e-01 0.0000000000000000e+00  5.4870294070557483e-02 2.1568375286266578e-01 0.0000000000000000e+00  6.8246129770079711e-02 2.1213953624402396e-01 0.0000000000000000e+00  3.4704948493349637e-03 2.2611983755718304e-01 0.0000000000000000e+00  -4.1828874556906856e-02 2.1702173286558957e-01 0.0000000000000000e+00  -5.2542648140062959e-02 2.2482608989958155e-01 0.0000000000000000e+00  -1.3013904399216478e-01 1.6919656743507480e-01 0.0000000000000000e+00  -8.1710013447805180e-02 2.3822510920370865e-01 0.0000000000000000e+00  -8.1225271804442278e-02 8.0595596550526657e-02 0.0000000000000000e+00  -2.0598481299304927e-01 -2.3757086042472517e-01 0.0000000000000000e+00  -1.8623779615744041e-01 4.4604565764749103e-02 0.0000000000000000e+00  -2.1452492860128433e-01 8.2347525597264257e-02 0.0000000000000000e+00  -2.2098264967920814e-01 -3.3708592324176508e-02 0.0000000000000000e+00  -2.3978825134555318e-01 1.5213499249938998e-02 0.0000000000000000e+00  -1.5798118196011149e-01 -1.4579037908246106e-01 0.0000000000000000e+00  -2.2558835711930753e-01 9.2244460934027724e-03 0.0000000000000000e+00  -4.8110249069420997e-02 -2.1998169824768567e-02 0.0000000000000000e+00  2.6854734750770742e-01 -1.7370291801970861e-01 0.0000000000000000e+00  2.5084774031349608e-02 -1.2736815116110350e-01 0.0000000000000000e+00  -2.8735165814837864e-02 -2.2388077821168356e-01 0.0000000000000000e+00  1.2828780654833732e-01 -2.0261272848486003e-01 0.0000000000000000e+00  1.4534360083215703e-01 -1.4914399143088053e-01 0.0000000000000000e+00  2.1882682059688560e-01 -9.9221804952960346e-02 0.0000000000000000e+00  2.0698484377760673e-01 1.9823535784944325e-02 0.0000000000000000e+00  2.0804994134010882e-01 9.1370384333192084e-02 0.0000000000000000e+00  -1.9463419905923837e-01 -1.1599102683109935e-01 0.0000000000000000e+00  -1.3950128417270382e-02 2.2465137572144020e-01 0.0000000000000000e+00  -1.1792237807688104e-01 -1.9159452253891110e-01 0.0000000000000000e+00  -2.0381766062941473e-01 9.8741222239240922e-02 0.0000000000000000e+00  -1.0535687655302522e-01 -1.9919435257467857e-01 0.0000000000000000e+00  7.7391894829733299e-02 2.1128524714598471e-01 0.0000000000000000e+00  -1.5445074424729804e-01 1.6390043746109043e-01 0.0000000000000000e+00  2.2646767005293267e-01 -1.4686198261269963e-02 0.0000000000000000e+00  2.4391994960545619e-02 -2.2356826479367281e-01 0.0000000000000000e+00  -1.6288279287157240e-01 1.5421659219060282e-01 0.0000000000000000e+00  2.3146330432774234e-01 1.1877820844776647e-02 0.0000000000000000e+00  1.4848732293348538e-01 -1.6925523271833987e-01 0.0000000000000000e+00  -1.4427850950021548e-01 -1.7181946407691098e-01 0.0000000000000000e+00  1.8435180131870288e-01 -1.2911686119662349e-01 0.0000000000000000e+00  1.9735085463380767e-01 -1.0554868713465125e-01 0.0000000000000000e+00  2.2142065480788214e-01 4.2039843668739800e-02 0.0000000000000000e+00  -9.0372658199304873e-02 -2.0734399608994172e-01 0.0000000000000000e+00  2.0969470236509616e-01 -1.1096874394799744e-01 0.0000000000000000e+00  2.2455847778247356e-01 7.3653712038963563e-03 0.0000000000000000e+00  2.2276220015085477e-01 3.0197777258434092e-02 0.0000000000000000e+00  9.9171298925270185e-02 2.0111232272978125e-01 0.0000000000000000e+00  -2.2448133038180323e-01 -1.2331069763066456e-02 0.0000000000000000e+00  -2.0725540255347555e-01 8.7794769019822555e-02 0.0000000000000000e+00  2.5821717471576945e-03 2.2492350972865702e-01 0.0000000000000000e+00  -2.6388365328954215e-02 -2.2333975306761697e-01 0.0000000000000000e+00  -6.3868985236368803e-02 2.1579840361576702e-01 0.0000000000000000e+00  2.2351597709279278e-01 1.0900487828508491e-02 0.0000000000000000e+00  2.1807731807709635e-01 -5.4854954427679764e-02 0.0000000000000000e+00  2.2360959484774764e-01 -1.4324175865175556e-02 0.0000000000000000e+00  -1.8022697312590591e-01 1.3463205153527233e-01 0.0000000000000000e+00  -1.5610498996230773e-01 -1.6397512923553551e-01 0.0000000000000000e+00  -2.2630938078058024e-01 1.1365113575647540e-02 0.0000000000000000e+00  -2.1560228879575910e-01 -8.2012212213689886e-02 0.0000000000000000e+00  -4.6837942410370849e-02 2.2071314382012480e-01 0.0000000000000000e+00  -2.3936868564438371e-02 -2.2436437361770484e-01 0.0000000000000000e+00  2.1591247467430685e-01 -7.2457344752289585e-02 0.0000000000000000e+00  2.6902493872198469e-02 -2.2453128257540392e-01 0.0000000000000000e+00  7.3848168429729674e-02 -2.1281956116740344e-01 0.0000000000000000e+00  2.2475185114597568e-01 2.2502632907709968e-02 0.0000000000000000e+00  -2.4792052328515210e-02 2.2465203631595032e-01 0.0000000000000000e+00  5.7050312570961145e-02 2.1794448131833360e-01 0.0000000000000000e+00  -1.1357088386190258e-02 2.2573422214662017e-01 0.0000000000000000e+00  2.2332865025594037e-01 -2.7477559922237042e-02 0.0000000000000000e+00  1.6236703940766703e-01 -1.5894065789778616e-01 0.0000000000000000e+00  -5.1648042975285559e-02 -2.1978238665942068e-01 0.0000000000000000e+00  1.7087527728572488e-01 1.4890656123085338e-01 0.0000000000000000e+00  2.1983718535124072e-01 4.4953632724336397e-02 0.0000000000000000e+00  8.2442976512386773e-02 2.0943676968629993e-01 0.0000000000000000e+00  2.2220568584019548e-01 -3.0486820484399515e-02 0.0000000000000000e+00  1.6866186220112944e-01 -1.4835882219021393e-01 0.0000000000000000e+00  -1.8887165708543410e-01 1.2268304892574354e-01 0.0000000000000000e+00  -1.7912854709459708e-01 -1.3640548709945685e-01 0.0000000000000000e+00  1.9706773935185004e-01 1.0899990931080017e-01 0.0000000000000000e+00  2.1461148267594718e-01 6.6583542287158334e-02 0.0000000000000000e+00  1.8208407559917589e-01 -1.3255896349959048e-01 0.0000000000000000e+00  -2.2148360852915253e-01 -4.0378986644904538e-02 0.0000000000000000e+00  -1.7547186429085671e-01 -1.4392228042636476e-01 0.0000000000000000e+00  -1.1352253292461112e-02 -2.2444548718737212e-01 0.0000000000000000e+00  -1.8213202606564136e-01 -1.3127259782574124e-01 0.0000000000000000e+00  -1.5763493910238560e-01 1.6002876910211541e-01 0.0000000000000000e+00  2.1599340977955517e-02 2.2370813082216207e-01 0.0000000000000000e+00  8.0758320443697698e-02 -2.0939341841821291e-01 0.0000000000000000e+00  -1.1768699580855216e-01 -1.9122821764862419e-01 0.0000000000000000e+00  -1.3615754512053271e-01 1.7864018151039754e-01 0.0000000000000000e+00  6.2946988773357124e-02 2.1552817904424074e-01 0.0000000000000000e+00  3.5625545970886165e-02 2.2164753689640340e-01 0.0000000000000000e+00  1.8659745137738229e-01 1.2487517755087951e-01 0.0000000000000000e+00  1.4540363505359158e-01 -1.7130346839445737e-01 0.0000000000000000e+00  -2.4624133577846742e-02 -2.2333595515937799e-01 0.0000000000000000e+00  -2.2127647408332557e-01 -4.3731724749786371e-02 0.0000000000000000e+00  -7.6821674389610434e-02 2.1157248369737436e-01 0.0000000000000000e+00  -9.1010490255177184e-02 -2.0616257323565298e-01 0.0000000000000000e+00  -2.1019260710826751e-01 8.2464840937390080e-02 0.0000000000000000e+00  1.9043043131786180e-01 1.1989257603829807e-01 0.0000000000000000e+00  5.6167256825563332e-02 2.4312032485395546e-01 0.0000000000000000e+00  -1.9260432418456916e-01 1.2112614775044686e-01 0.0000000000000000e+00  -1.5764268406354112e-01 -1.6192596031238213e-01 0.0000000000000000e+00  -8.4151091709353171e-02 -2.0899733851349175e-01 0.0000000000000000e+00  -1.4658413450743216e-01 -1.7612485396853447e-01 0.0000000000000000e+00  -2.1441334363674097e-01 7.2982597498231341e-02 0.0000000000000000e+00  8.5946839453841309e-02 -2.0651313284118492e-01 0.0000000000000000e+00  1.3699295567336764e-01 -1.7697176841462861e-01 0.0000000000000000e+00  1.9507435700026657e-01 -1.1077010745469716e-01 0.0000000000000000e+00  -2.1960348953394315e-01 -4.7118044140248068e-02 0.0000000000000000e+00  -2.2178821461981565e-01 3.6342533645066642e-02 0.0000000000000000e+00  -2.2501809912578657e-01 1.2063143384610313e-03 0.0000000000000000e+00  -4.0843686301040752e-02 2.2345016959570146e-01 0.0000000000000000e+00  -2.1933459646896253e-01 -5.1397089630141363e-02 0.0000000000000000e+00  7.9261103387427576e-02 2.1160480345496302e-01 0.0000000000000000e+00  1.0506541787662199e-01 -1.9893652038776471e-01 0.0000000000000000e+00  1.2373514435454130e-01 -1.8819769593779517e-01 0.0000000000000000e+00  4.5055556829155949e-02 -2.2688035582386670e-01 0.0000000000000000e+00  -8.3496329104255126e-02 -2.0977963172054306e-01 0.0000000000000000e+00  2.1406683973235249e-01 6.8954234836248601e-02 0.0000000000000000e+00  2.2869916502269549e-01 1.4552947921969267e-02 0.0000000000000000e+00  1.2304788806997490e-01 -1.8881108335511138e-01 0.0000000000000000e+00  1.4274125711570582e-01 1.8716859081705917e-01 0.0000000000000000e+00  2.0058744786202348e-01 -9.9753272029066975e-02 0.0000000000000000e+00  2.0754712808240630e-01 -8.6019771828403563e-02 0.0000000000000000e+00  8.7589160724201275e-03 -2.2488902357475532e-01 0.0000000000000000e+00  6.5777489408915063e-02 2.1541522096671170e-01 0.0000000000000000e+00  2.2356419112445663e-01 2.3649392942553440e-02 0.0000000000000000e+00  9.9201297261494861e-02 -2.1117066030891188e-01 0.0000000000000000e+00  2.0053140164273858e-01 -1.0289466745727434e-01 0.0000000000000000e+00  -2.1321611268836610e-02 2.2608691439067025e-01 0.0000000000000000e+00  1.6935607119811455e-01 1.4757640086200083e-01 0.0000000000000000e+00  2.1598442134249193e-01 -6.1035633883559308e-02 0.0000000000000000e+00  1.1328073691137738e-01 -1.9410955108648711e-01 0.0000000000000000e+00  2.1234545248570710e-01 7.3056751420161464e-02 0.0000000000000000e+00  1.7045212615818342e-01 -1.4653381154036210e-01 0.0000000000000000e+00  7.6351347328790259e-02 2.1156726982234753e-01 0.0000000000000000e+00  -2.0935970179099503e-01 -8.7707013469577585e-02 0.0000000000000000e+00  -1.6090284818458300e-01 