<?xml version="1.0"?>
<VTKFile type="UnstructuredGrid"  version="0.1"  >
<UnstructuredGrid>
<Piece  NumberOfPoints="2549" NumberOfCells="4928">
<Points>
<DataArray  type="Float64"  NumberOfComponents="3"  format="ascii">-15.32770944030042 1.005760226848909 0  -15.34898217107163 -0.05175576005454786 0  -15.86090829583468 -1.482305380980336 0  -15.67986594436075 -2.744587030748658 0  -15.46969066347946 -4.041374012384744 0  -14.92391968470548 -5.155887983871965 0  -14.36127292136025 -6.222323916550905 0  -13.40408636194544 -6.963931234062893 0  -13.2211177969062 -8.132140290127296 0  -12.50580313438416 -9.928959024090114 0  -10.77098412633858 -9.648582690106615 0  -9.775496263965662 -10.20533821994746 0  -8.519933775218098 -10.32101153337571 0  -7.346275935186604 -10.43799945101975 0  -6.161270641224339 -10.47020922442987 0  -4.919083442681925 -10.21422774491244 0  -4.168652645315088 -10.492364360835 0  -2.854859701055745 -11.06202119721273 0  -1.337156415043739 -9.887150179366095 0  -0.1934481821268277 -9.442754735091929 0  1.004688101551132 -8.641008130334244 0  2.115311901174881 -7.837875010705615 0  3.191944096755049 -6.902648443959871 0  4.224985921941435 -5.778424945612342 0  5.032519309671434 -4.655667355678538 0  5.869837315307691 -3.801475501775816 0  6.676814123897548 -2.495295006356638 0  7.348745873039338 -1.158984989844552 0  7.908430408130238 0.2441785551889881 0  8.34534781498366 1.697629682073654 0  8.652680102592388 3.179474946357003 0  8.827210411359905 4.716683536133491 0  8.811679084275408 6.174032855013457 0  8.723188375144387 7.567960746562128 0  8.456691698568701 9.071939107899331 0  8.031301672248276 10.44493050139477 0  7.456839745711616 11.74702763138593 0  6.739822452822318 12.93524300414596 0  5.890526905866629 13.98671177938459 0  4.926670121399098 14.9144586833292 0  3.839890879237078 15.61577271038431 0  2.716735260995505 16.12045901689418 0  1.516377444056177 16.48297677253632 0  0.2932892212924803 16.59183963143871 0  -0.9273126404826334 16.490264862171 0  -2.11557630508523 16.15819307881035 0  -3.242912043395641 15.62220466039381 0  -4.282738794055355 14.83070176807689 0  -5.184610227936459 13.95172593562386 0  -6.018065242301883 12.88128186008115 0  -6.67338390796241 11.59944015278983 0  -7.17650318953962 10.22739499454842 0  -7.517189492516613 8.760489393692755 0  -7.690324143958052 7.21356730789817 0  -7.70245068508862 5.669288532664373 0  -7.523644662314566 3.943835919094034 0  -7.16087483742861 2.656454110485275 0  -6.850431687763511 1.236581994643952 0  -6.270999703698832 -0.3297454117722473 0  -5.582417424928777 -1.747548814277508 0  -4.792422939697899 -3.067740544657374 0  -3.882337820865281 -4.381804106922007 0  -2.937967627060205 -5.386296547119154 0  -1.736808044355344 -6.986870316782083 0  -0.438117688604964 -7.331883654471975 0  0.3960883392597516 -7.558540900731721 0  1.568469257638659 -8.244565219767329 0  2.726658539475338 -8.644238015485074 0  3.941324670560971 -9.02385382188854 0  5.054453859582063 -9.016922505932232 0  6.424676838063336 -9.434998057152262 0  6.93376703764105 -7.863624355217658 0  7.507032769777524 -8.418381126260073 0  9.798463229051809 -9.854357351205312 0  10.97047943625204 -9.46098294100287 0  12.40921584294874 -9.233242684667411 0  13.41042606848177 -8.519513609723999 0  14.80289158548865 -8.021498556438221 0  15.05276374919023 -6.491280299773584 0  17.65876917606818 -6.598963249722826 0  16.45111470041939 -2.971951689487698 0  14.42354088955037 -1.461121044636702 0  16.16235711369703 -0.7625307754635406 0  15.57402861613089 0.4895744474981804 0  16.07660381735078 1.677625002517031 0  15.45275362640303 2.859537603401696 0  16.01994629299522 4.096508272169 0  14.06436252208442 4.740056690755215 0  16.22744806421406 6.267610709936288 0  17.48456638724692 10.07502798597122 0  14.57700713090776 9.76535178546022 0  14.30961151419304 11.3032939409161 0  12.78301933525428 11.70180545603646 0  11.70617105052738 12.3528046627576 0  10.1779927064549 12.49833572234974 0  8.968087094846776 12.87266367688401 0  6.503117275424612 11.30995518059518 0  5.792913159571333 10.39293870590529 0  5.313241292723918 12.07203550590077 0  3.860712703063056 11.52451249107641 0  2.70215426842332 11.49155644034603 0  1.421984254460132 11.03254607585132 0  0.2082925993448006 10.57350363872302 0  -1.023274843498311 9.818655517264341 0  -1.908122989047342 9.614561150959116 0  -3.333895692190758 9.195353965290092 0  -4.638741899906324 7.332031072955141 0  -5.654151843328341 6.222235880321576 0  -6.64687472738354 4.738400777620808 0  -7.514529481201389 3.255294411327518 0  -8.271959004686993 1.667857229224618 0  -8.89699124980811 -0.03078854174131662 0  -9.318212575311049 -1.51039069154576 0  -9.813128479105524 -3.175757500310757 0  -10.02373638169756 -5.358488088096598 0  -10.02350712470648 -7.163098242493701 0  -9.852953599979669 -9.051775758699666 0  -9.492466630869593 -10.84042612381006 0  -8.946748532738145 -12.54729364996869 0  -8.224808578237214 -14.19824457254813 0  -7.264368592999332 -15.58098090082155 0  -6.251828228149011 -16.73817826944455 0  -5.051226366653539 -17.87218629021133 0  -3.727209917364674 -18.69660872351239 0  -2.311286591823245 -19.28827334657584 0  -0.8350620024087889 -19.6062649369257 0  0.6659364745292443 -19.65760222870662 0  2.158923024958283 -19.42910500096472 0  3.606488735071151 -18.93499837206033 0  4.970036054046352 -18.18246605968192 0  6.229575122652413 -17.20509495676329 0  7.353612945742675 -16.01021827694212 0  8.321743699036055 -14.63646317415232 0  9.117085272942713 -13.09895072516315 0  9.730794055573998 -11.47420352503175 0  10.143189572987 -9.630283125295332 0  10.31693373727716 -8.052183355548433 0  10.47149382389721 -6.338149924616731 0  10.35303496559247 -4.465793728146598 0  10.07843309481636 -2.694558724757043 0  9.651207807073867 -0.9620355605154907 0  9.080826288993181 0.7027712685349767 0  8.38096588278913 2.286920866323066 0  7.533797591160895 3.811403951481228 0  6.649297694165051 4.877043898658423 0  5.776904967682011 6.204484346296243 0  4.680531767635283 7.500070006350772 0  3.534361749454447 8.597190811305962 0  2.354080002137258 9.543851797607275 0  1.081374713853049 10.48511882613698 0  -0.1289440389370899 11.03599016535456 0  -1.735278667255743 12.36920811739545 0  -3.131818279369852 11.86289073689989 0  -3.93138081949931 11.63346417731967 0  -5.237232074477454 11.97054936782145 0  -6.4849954406177 12.01059419011929 0  -7.725044874482243 11.96747119325057 0  -9.051857569208412 11.92515411845538 0  -10.10658633653977 11.42053235827815 0  -11.94044628450809 11.79854955735904 0  -12.70759992721576 10.0009277598575 0  -12.93537492802933 8.868068129539802 0  -13.97298316072716 8.179557170789868 0  -14.61178540083304 7.153927142526237 0  -15.23662186597717 6.072850257717666 0  -15.55487442889019 4.809078951581372 0  -15.75108647512771 3.534877707499545 0  -15.45596379475111 2.147579297759759 0  0.6801933476607814 10.22879829341349 0  -0.3741009251911808 -0.5794118611115852 0  2.460189201063149 2.446639075386059 0  -0.0289224316832413 -12.57954651439735 0  -1.414569052696818 -0.06087645916874862 0  -9.679882555249923 -3.624903793068907 0  3.613544170904845 -1.14719319956555 0  11.80115780819553 1.364635622344043 0  -9.369690620162251 4.915636770806556 0  6.516150471175447 6.203879511950657 0  8.398837325741921 1.0617539449491 0  5.102469931310056 -0.204501970533054 0  7.56888545594489 -3.84775713046125 0  1.769272226151335 -9.061537536324497 0  -2.796740736441828 -5.143055524030476 0  0.9646312436413114 6.909776537571515 0  -6.069253304657082 0.418214463302239 0  -7.875063299680598 0.249968584826278 0  -0.3867745224666496 -5.932780868800386 0  0.6472938381262541 5.342358565380852 0  3.367681749378251 3.338070707410248 0  -5.250325991728234 4.831244296926508 0  -5.859217756775252 -4.133746372991364 0  -4.749412558990105 -1.167502263163184 0  -1.377529010493149 1.253689523828063 0  5.894815983692103 1.231013866826939 0  0.9008301332013471 -4.102896662961409 0  -9.254691071606194 0.4906475019098671 0  -12.27165440069219 0.8007090767695331 0  -2.800632824145734 2.760869101464528 0  -7.274759159316933 2.165101653797378 0  -5.466223540834164 0.9024221108713568 0  -6.776294921585897 0.2743339640120377 0  -2.888315820314345 -1.289807972865479 0  -8.087867320567927 3.042077222467315 0  -8.512821541973103 0.3658551268019792 0  8.665923685133238 -1.038504441772573 0  10.30235399704172 -1.836641612180094 0  9.939152005007292 1.264910683006454 0  8.084337026386057 3.331158513467307 0  9.828692700857745 4.452023028549296 0  10.61801280511235 6.60042610884158 0  13.29829803283035 4.037301610556594 0  13.47545035019514 -1.041647326625879 0  11.1083733876546 -3.839364493017772 0  0.3748363593932876 -8.463824155646574 0  1.299505890202188 -5.62840877117839 0  -0.6823963650627601 -10.00760146384018 0  3.157706387105713 -1.91078432683566 0  2.659206715962377 -2.600079020450169 0  6.350457827512758 8.599855670620745 0  7.415160234294446 -6.000282368307145 0  -1.119709414456462 -4.553012433234743 0  -3.818474819114447 -2.720074485221246 0  -0.3848563713023685 -6.984750404347043 0  5.584347994010388 -3.0133103096945 0  7.200708966578429 -0.6396562870561887 0  -10.16570224195129 7.294458410021291 0  -6.447397143418608 8.48866008635618 0  -7.104113473996052 -7.198357297814693 0  -10.59782486688259 -5.740749145389636 0  -2.876620326683106 0.8684007253366498 0  0.04363777913490141 5.584673925026273 0  1.377449033880792 -3.855438946275048 0  -1.340892234127068 0.1622653117677385 0  2.962750831130232 1.769644376074217 0  4.780663344728269 -3.867908985184894 0  3.656238634712397 2.547268174689152 0  1.821356779958626 -2.043586630424686 0  0.6961682334883355 -16.25393944270037 0  -2.395724288878992 -14.79028858645753 0  -1.37601640142841 12.69417214291859 0  1.085081189355994 13.45123115434389 0  1.042455327194598 -4.694550960314337 0  -7.170169300921598 -0.1291107480365496 0  -6.189939816542305 -0.8066058548567793 0  -4.057008479949284 0.91034748
[...]
<PointData  Vectors="f_44"> 
<DataArray  type="Float64"  Name="f_44"  NumberOfComponents="3" format="ascii">2.3186894659909935e-01 3.6718548415376438e-02 0.0000000000000000e+00  1.8874629012106517e-01 -1.2107021248632427e-01 0.0000000000000000e+00  1.8343031251947811e-01 -5.9241622099074839e-02 0.0000000000000000e+00  2.3272426288718606e-01 8.5347554110225890e-02 0.0000000000000000e+00  1.6608042399709927e-01 1.1601657196424864e-01 0.0000000000000000e+00  1.5495340900069876e-01 1.8620073825007535e-01 0.0000000000000000e+00  2.2232053695959890e-03 2.2402459936913161e-01 0.0000000000000000e+00  4.6355762058062210e-02 1.2131134200049494e-01 0.0000000000000000e+00  2.7718641100886815e-01 1.4978462792173508e-01 0.0000000000000000e+00  -4.3879130456207290e-02 2.9540793046607991e-02 0.0000000000000000e+00  -2.2112178926431456e-01 7.1294452306090586e-03 0.0000000000000000e+00  -1.4085860003463702e-01 1.6425798769386532e-01 0.0000000000000000e+00  -2.4059663129639988e-01 7.4659946669032055e-03 0.0000000000000000e+00  -2.1649155839282785e-01 5.6949583016126647e-02 0.0000000000000000e+00  -2.2096882339297472e-01 -6.6463103172591298e-02 0.0000000000000000e+00  -1.8488542368293531e-01 -2.7213543334476804e-02 0.0000000000000000e+00  -1.7930375507928045e-01 2.6291422337176823e-01 0.0000000000000000e+00  -8.0491245396257530e-02 -7.0481814931719441e-02 0.0000000000000000e+00  -9.5317275553303438e-02 -2.3410235551305383e-01 0.0000000000000000e+00  -1.4304420791311168e-01 -1.5792446060626009e-01 0.0000000000000000e+00  -6.6323099253646767e-02 -2.2167378653634531e-01 0.0000000000000000e+00  -5.6647204850231697e-02 -2.1351818399451294e-01 0.0000000000000000e+00  -9.8763688568761221e-03 -2.2598850675649670e-01 0.0000000000000000e+00  6.0073542155765977e-02 -2.1526440951779577e-01 0.0000000000000000e+00  3.4013782524815357e-02 -2.1859057042513366e-01 0.0000000000000000e+00  4.3984202254945981e-02 -2.1445717337427875e-01 0.0000000000000000e+00  1.2761653129152276e-01 -1.8905052130574396e-01 0.0000000000000000e+00  1.4583044867366346e-01 -1.6790868695900399e-01 0.0000000000000000e+00  1.7598036278231005e-01 -1.3933905840414521e-01 0.0000000000000000e+00  1.9659552135329147e-01 -1.0623722115841988e-01 0.0000000000000000e+00  2.1273247145025426e-01 -7.2424749974219035e-02 0.0000000000000000e+00  2.2185443217997450e-01 -2.0888263624149247e-02 0.0000000000000000e+00  2.2409788824427906e-01 1.7660908331572300e-02 0.0000000000000000e+00  2.1788404715006832e-01 4.9364742005394965e-02 0.0000000000000000e+00  1.9930272299283178e-01 1.0290404606196898e-01 0.0000000000000000e+00  1.6904034086238079e-01 1.4723730561848580e-01 0.0000000000000000e+00  1.3023549750731192e-01 1.8270471539671906e-01 0.0000000000000000e+00  7.5511358785993549e-02 2.1046229307812658e-01 0.0000000000000000e+00  2.2352138386520008e-02 2.2447407631126648e-01 0.0000000000000000e+00  -4.9200050865687760e-02 2.1774764657693499e-01 0.0000000000000000e+00  -1.2580075536592192e-01 1.8646332236278992e-01 0.0000000000000000e+00  -1.6817826331211400e-01 1.5026216626438979e-01 0.0000000000000000e+00  -2.0590088763077827e-01 8.5129557817686649e-02 0.0000000000000000e+00  -2.2672187557025486e-01 8.9454121673677401e-05 0.0000000000000000e+00  -2.0908254234653556e-01 -7.7806547352929731e-02 0.0000000000000000e+00  -1.7205140318068893e-01 -1.4784143550951623e-01 0.0000000000000000e+00  -9.9565028605399189e-02 -1.9917179255724227e-01 0.0000000000000000e+00  -2.9444474557901775e-02 -2.2350123815984133e-01 0.0000000000000000e+00  2.0697797227253654e-02 -2.2403527891525477e-01 0.0000000000000000e+00  9.5954720084364536e-02 -2.0137604382951957e-01 0.0000000000000000e+00  1.5554000517973593e-01 -1.6322309386041081e-01 0.0000000000000000e+00  1.8672465154066276e-01 -1.2292397752612597e-01 0.0000000000000000e+00  2.1202776443585319e-01 -7.3658999736320480e-02 0.0000000000000000e+00  2.2182392461443781e-01 -2.5561896617148902e-02 0.0000000000000000e+00  2.2562488580943665e-01 1.6883847313536371e-02 0.0000000000000000e+00  2.0323631541469489e-01 8.7103439757819340e-02 0.0000000000000000e+00  1.9738599611230442e-01 1.0660802930786369e-01 0.0000000000000000e+00  1.9101858887079862e-01 1.1268658172307738e-01 0.0000000000000000e+00  1.5355409306530909e-01 1.6592002734940214e-01 0.0000000000000000e+00  1.1951222216079162e-01 1.8696122855983591e-01 0.0000000000000000e+00  1.0077889038264508e-01 2.0431111454742762e-01 0.0000000000000000e+00  3.0503764541537599e-02 2.1508550781155636e-01 0.0000000000000000e+00  6.6272133249835274e-02 2.3182697252967238e-01 0.0000000000000000e+00  -2.8934720402399045e-02 1.7410820655301043e-01 0.0000000000000000e+00  -2.5785356475806320e-01 8.0103579049434215e-02 0.0000000000000000e+00  -1.2153079618006060e-01 1.7710326212280766e-01 0.0000000000000000e+00  -1.3497714526222326e-01 1.7025792780352894e-01 0.0000000000000000e+00  -1.8839251962005502e-01 1.4770159802389887e-01 0.0000000000000000e+00  -1.9033916633039480e-01 3.6571789643530812e-02 0.0000000000000000e+00  -2.6993275318792564e-01 1.0272927983943374e-01 0.0000000000000000e+00  2.9491733473842301e-02 -2.5521737984142132e-02 0.0000000000000000e+00  1.8464817028012626e-01 -6.2362475838467740e-02 0.0000000000000000e+00  -9.1922231118914344e-02 2.9177164511750781e-01 0.0000000000000000e+00  -1.1538986715056038e-01 6.4182716092835254e-02 0.0000000000000000e+00  -2.3815456297372489e-01 -1.3157891568939031e-01 0.0000000000000000e+00  -1.1357945175177220e-01 -1.1863370613170041e-01 0.0000000000000000e+00  -1.9620897034262946e-01 -2.0535969916767613e-01 0.0000000000000000e+00  1.1257289302514374e-01 -1.0183232151804414e-01 0.0000000000000000e+00  -1.1147226034237102e-01 -2.5366406592216492e-02 0.0000000000000000e+00  -1.9184901591709365e-03 6.9918540854189651e-02 0.0000000000000000e+00  1.6330452565244277e-01 2.2195542138431612e-01 0.0000000000000000e+00  -1.9758440673755648e-01 3.0026920339157315e-02 0.0000000000000000e+00  -3.5183823683250827e-02 -3.7317828536640965e-02 0.0000000000000000e+00  2.0542187210287016e-01 2.2803419911721003e-02 0.0000000000000000e+00  1.1266134699184865e-01 1.7905126002003426e-02 0.0000000000000000e+00  1.8832228672683696e-01 -3.1930817780573997e-03 0.0000000000000000e+00  -4.7744678317600965e-02 3.0699766964340725e-02 0.0000000000000000e+00  -2.1625442243137541e-01 -3.7493403303248102e-02 0.0000000000000000e+00  1.6189490927985692e-01 -2.1305324254647226e-01 0.0000000000000000e+00  -4.0614414885890883e-03 -8.4665237212943417e-02 0.0000000000000000e+00  -1.1948666448609124e-01 4.6571263607805974e-03 0.0000000000000000e+00  9.7306808414800133e-02 9.3589770647931753e-02 0.0000000000000000e+00  -2.2941423528698202e-01 1.7492829986312675e-01 0.0000000000000000e+00  -1.3338873008759222e-01 9.9240582666627289e-02 0.0000000000000000e+00  -2.4077962619461615e-01 1.0895216473143120e-01 0.0000000000000000e+00  -1.2516381875706875e-01 -7.0015419990689415e-02 0.0000000000000000e+00  -6.2986293925846329e-02 -2.8880753743319099e-01 0.0000000000000000e+00  2.0558261136922532e-01 3.1090452537535083e-02 0.0000000000000000e+00  3.8622844189400055e-02 1.1302198498270410e-02 0.0000000000000000e+00  -2.5855547714803973e-01 -1.2718411156626669e-01 0.0000000000000000e+00  -1.8666751712692270e-01 -5.1279613231743362e-02 0.0000000000000000e+00  -1.7690489436970991e-01 -1.6039402480001008e-01 0.0000000000000000e+00  -1.2553464623619928e-01 -1.7993109282517822e-01 0.0000000000000000e+00  -1.2069797735157659e-01 -1.6933072919466335e-01 0.0000000000000000e+00  -2.6225724954808644e-01 -8.1089641746459037e-02 0.0000000000000000e+00  -1.3787921462525332e-02 -1.7787575576166645e-01 0.0000000000000000e+00  7.7790869372336133e-02 -2.2644989341416094e-01 0.0000000000000000e+00  3.6328886857865048e-02 -2.1469187540755821e-01 0.0000000000000000e+00  1.0667160614478263e-01 -2.0107564232019323e-01 0.0000000000000000e+00  1.2193991935682474e-01 -1.8594580642903549e-01 0.0000000000000000e+00  1.5681649913724865e-01 -1.6106502203673406e-01 0.0000000000000000e+00  1.8402998192627357e-01 -1.2565487301376843e-01 0.0000000000000000e+00  1.8565369734484086e-01 -1.2838561164863016e-01 0.0000000000000000e+00  2.0383305909339436e-01 -8.3803427841038572e-02 0.0000000000000000e+00  2.2592268307628252e-01 -1.6398301697413773e-02 0.0000000000000000e+00  2.2233670138910061e-01 1.8800261369559305e-02 0.0000000000000000e+00  2.1550831637403262e-01 6.2559694856870365e-02 0.0000000000000000e+00  1.9430999392103213e-01 1.1004324280008251e-01 0.0000000000000000e+00  1.7236030211512582e-01 1.4586100907896879e-01 0.0000000000000000e+00  1.1805837843399836e-01 1.8825489916509500e-01 0.0000000000000000e+00  4.8351043977854849e-02 2.2013985619432139e-01 0.0000000000000000e+00  1.3622114921870586e-02 2.2469040737785059e-01 0.0000000000000000e+00  -5.2954088890985733e-02 2.1603112710300779e-01 0.0000000000000000e+00  -1.3284199398106869e-01 1.8367265481040815e-01 0.0000000000000000e+00  -1.8266432485561754e-01 1.2886273327073716e-01 0.0000000000000000e+00  -2.1877355270984000e-01 5.4929388908369951e-02 0.0000000000000000e+00  -2.2277328628391951e-01 -2.6356396821111992e-02 0.0000000000000000e+00  -1.9947222660044212e-01 -1.0455045713872596e-01 0.0000000000000000e+00  -1.5003783976847174e-01 -1.6667597176032367e-01 0.0000000000000000e+00  -8.8217456074156125e-02 -2.0697294156120311e-01 0.0000000000000000e+00  -2.0542811860794995e-02 -2.2310959998176311e-01 0.0000000000000000e+00  4.5799314865552110e-02 -2.2006047937206069e-01 0.0000000000000000e+00  1.0462072529149290e-01 -1.9781054206393789e-01 0.0000000000000000e+00  1.4978271953616182e-01 -1.6748386089043091e-01 0.0000000000000000e+00  1.8720201286735066e-01 -1.2321146582132041e-01 0.0000000000000000e+00  2.1330608516623090e-01 -6.6540924866353518e-02 0.0000000000000000e+00  2.1992181979777420e-01 -4.7935780391595580e-02 0.0000000000000000e+00  2.2163424353394476e-01 -8.9383349102772607e-03 0.0000000000000000e+00  2.1927587241047114e-01 5.2708709996410613e-02 0.0000000000000000e+00  2.0631079861951365e-01 8.5207681808297700e-02 0.0000000000000000e+00  1.8875954916924453e-01 1.2136212415949590e-01 0.0000000000000000e+00  1.6258660624353141e-01 1.5236531261732636e-01 0.0000000000000000e+00  1.4275521470976821e-01 1.7624069739810072e-01 0.0000000000000000e+00  7.2354152676122288e-02 2.0830997260415771e-01 0.0000000000000000e+00  6.2967992253671570e-02 2.1349068352860123e-01 0.0000000000000000e+00  7.5042450868749763e-02 2.0975738451143919e-01 0.0000000000000000e+00  1.0565745622996520e-02 2.2593138409662411e-01 0.0000000000000000e+00  -3.4627111054055228e-02 2.1827197068814880e-01 0.0000000000000000e+00  -4.5556882333840330e-02 2.2636192884635453e-01 0.0000000000000000e+00  -1.2432018079665332e-01 1.7323364642248731e-01 0.0000000000000000e+00  -7.5581542198054921e-02 2.4102424166342376e-01 0.0000000000000000e+00  -7.7595007286592230e-02 8.2099638249935825e-02 0.0000000000000000e+00  -2.0914449807396676e-01 -2.3700087652833646e-01 0.0000000000000000e+00  -1.8453261712150557e-01 5.0450351117840651e-02 0.0000000000000000e+00  -2.1211418048785796e-01 8.8351851062371214e-02 0.0000000000000000e+00  -2.2171089729950835e-01 -2.8323484413001265e-02 0.0000000000000000e+00  -2.3976737067307688e-01 2.1425253760024049e-02 0.0000000000000000e+00  -1.5996912328145246e-01 -1.4273189513714643e-01 0.0000000000000000e+00  -2.2558783329207205e-01 1.4379020512303759e-02 0.0000000000000000e+00  -4.6175713015680853e-02 -1.8472150451029054e-02 0.0000000000000000e+00  2.7079163826490688e-01 -1.7164181588682889e-01 0.0000000000000000e+00  2.4186701954049959e-02 -1.2334052274436971e-01 0.0000000000000000e+00  -3.1107147117366046e-02 -2.2383081868510277e-01 0.0000000000000000e+00  1.2858382308937574e-01 -2.0294477265928898e-01 0.0000000000000000e+00  1.4521106450513369e-01 -1.4861279107495881e-01 0.0000000000000000e+00  2.1977161652992930e-01 -9.8184526555804799e-02 0.0000000000000000e+00  2.0632314091067783e-01 2.2122021211111561e-02 0.0000000000000000e+00  2.0674628277032336e-01 9.4399617919913414e-02 0.0000000000000000e+00  -2.2552187145607164e-01 3.1245837007875442e-02 0.0000000000000000e+00  2.0714296678167647e-02 2.2403526518313008e-01 0.0000000000000000e+00  -5.9022053032760660e-02 -2.1702982416454492e-01 0.0000000000000000e+00  -2.2012941871001593e-01 4.8271575197151681e-02 0.0000000000000000e+00  -1.1841872003578054e-01 -1.9183945028676294e-01 0.0000000000000000e+00  9.7190559878458538e-02 2.0324637500771159e-01 0.0000000000000000e+00  -1.5210595534561780e-01 1.6621604522973724e-01 0.0000000000000000e+00  2.2631875926595868e-01 -1.9239038912750608e-02 0.0000000000000000e+00  -7.0586431170087005e-02 -2.1403228799415452e-01 0.0000000000000000e+00  -1.8201687553564275e-01 1.3115274062543866e-01 0.0000000000000000e+00  2.2479001603564705e-01 6.2283875053839144e-02 0.0000000000000000e+00  2.2205910939230847e-01 -3.6835194260747849e-02 0.0000000000000000e+00  -1.4616242146882535e-01 -1.7027962769025332e-01 0.0000000000000000e+00  1.6764951532681224e-01 -1.4999768692531640e-01 0.0000000000000000e+00  2.1254116718332433e-01 -7.1307315453659662e-02 0.0000000000000000e+00  2.2493885765774732e-01 1.8839951504663908e-02 0.0000000000000000e+00  -2.1662984123934098e-01 6.6981491376512756e-02 0.0000000000000000e+00  1.8643467230634644e-01 -1.4810045499218119e-01 0.0000000000000000e+00  2.1180187749198762e-01 7.4600087370990664e-02 0.0000000000000000e+00  2.2486228932573057e-01 8.2149331504064917e-03 0.0000000000000000e+00  -9.5906463687457019e-02 2.0429520515014057e-01 0.0000000000000000e+00  -2.2043001367644377e-01 4.3815966295183938e-02 0.0000000000000000e+00  -2.0440050094329043e-01 9.4424620301293435e-02 0.0000000000000000e+00  1.0519496230560362e-02 2.2472713835265626e-01 0.0000000000000000e+00  3.3083579719213843e-02 -2.2170126563300116e-01 0.0000000000000000e+00  -4.9856047637657649e-02 2.1890863677266448e-01 0.0000000000000000e+00  2.1606452768003473e-01 7.1504435492545870e-02 0.0000000000000000e+00  2.0374915312567465e-01 -9.5766665079912536e-02 0.0000000000000000e+00  2.2062441212629952e-01 -3.9724714567207046e-02 0.0000000000000000e+00  -1.5549544533676857e-01 1.6244022659804361e-01 0.0000000000000000e+00  -1.8413376660491895e-01 -1.3168451270978926e-01 0.0000000000000000e+00  -2.1940959262613671e-01 5.6191172035853734e-02 0.0000000000000000e+00  -2.2702731178220495e-01 -3.6609962895720397e-02 0.0000000000000000e+00  -4.5515044951413286e-03 2.2546607037086375e-01 0.0000000000000000e+00  -8.2313223017067866e-02 -2.1019880255938456e-01 0.0000000000000000e+00  2.0197784890038134e-01 -1.0613620419552075e-01 0.0000000000000000e+00  3.8270106266644427e-02 -2.2312394781657419e-01 0.0000000000000000e+00  7.3582651235996749e-02 -2.1301675569445425e-01 0.0000000000000000e+00  2.2197997348261672e-01 4.3157282904972664e-02 0.0000000000000000e+00  -7.1021662838837513e-02 2.1474877299411704e-01 0.0000000000000000e+00  4.1664218945615547e-02 2.2150139546261310e-01 0.0000000000000000e+00  -1.5581368040916739e-02 2.2561409519809433e-01 0.0000000000000000e+00  2.1973326616488331e-01 -4.7771908097706942e-02 0.0000000000000000e+00  1.3201309085574434e-01 -1.8373265579928669e-01 0.0000000000000000e+00  -6.2721104801231012e-02 -2.1690949838875290e-01 0.0000000000000000e+00  2.4120351617338617e-01 -5.6587246896128412e-03 0.0000000000000000e+00  2.0646265843385916e-01 8.6402762926242410e-02 0.0000000000000000e+00  1.5997978918531802e-02 2.2464831217279679e-01 0.0000000000000000e+00  1.2491843039839387e-01 1.8765643949937669e-01 0.0000000000000000e+00  2.2486358961439476e-01 -2.2828062835671633e-03 0.0000000000000000e+00  -1.9413212139404795e-01 1.1386773310180601e-01 0.0000000000000000e+00  -1.8071926960441173e-01 -1.3418886633711172e-01 0.0000000000000000e+00  2.1052135517500720e-01 7.9792751729174272e-02 0.0000000000000000e+00  1.8896017860786996e-01 1.2175625164954533e-01 0.0000000000000000e+00  1.7313576391703608e-01 -1.4465928691616156e-01 0.0000000000000000e+00  -2.2166147357381261e-01 -3.9772455500344736e-02 0.0000000000000000e+00  -1.6811806586846484e-01 -1.5289471293805049e-01 0.0000000000000000e+00  -7.5878887412845028e-02 -2.1202383028990857e-01 0.0000000000000000e+00  -2.2544675234733069e-01 8.8508390409623439e-03 0.0000000000000000e+00  -1.5629354799289616e-01 1.6146981154270604e-01 0.0000000000000000e+00  2.6575122130348756e-02 2.2326691723861780e-01 0.0000000000000000e+00  1.1194710717408141e-01 -1.9449133178866307e-01 0.0000000000000000e+00  -9.1305728688401519e-02 -2.0494893316337440e-01 0.0000000000000000e+00  -1.3158473592037173e-01 1.8205262363304281e-01 0.0000000000000000e+00  7.1688305162583482e-02 2.1282205636847693e-01 0.0000000000000000e+00  5.9170727457019075e-02 2.1644646245487700e-01 0.0000000000000000e+00  1.9768719955965955e-01 1.0631708927079511e-01 0.0000000000000000e+00  1.4363190758578698e-01 -1.7287836455928096e-01 0.0000000000000000e+00  -2.4115130087403940e-02 -2.2345834966384784e-01 0.0000000000000000e+00  -2.2017502247072082e-01 -4.7934052821446693e-02 0.0000000000000000e+00  -9.8732820786565353e-02 2.0214973774981931e-01 0.0000000000000000e+00  -1.1993489358859860e-01 -1.9077745888859168e-01 0.0000000000000000e+00  -2.0247709985157222e-01 9.9415157988737846e-02 0.0000000000000000e+00  2.0526587045001096e-01 9.1997603011878662e-02 0.0000000000000000e+00  9.2486854312108319e-02 2.3167248548943331e-01 0.0000000000000000e+00  -1.7727831851665407e-01 1.4281751159164280e-01 0.0000000000000000e+00  -1.9523695402335828e-01 -1.1408527392310111e-01 0.0000000000000000e+00  5.1090926722009905e-02 -2.1990634077604615e-01 0.0000000000000000e+00  -3.0688358300251104e-02 -2.2742412190078701e-01 0.0000000000000000e+00  -2.2659304276182310e-01 -1.2964734866212056e-02 0.0000000000000000e+00  -1.0438664331195964e-01 -2.0191340326906326e-01 0.0000000000000000e+00  1.5439739152474269e-01 -1.6260607314287231e-01 0.0000000000000000e+00  1.8477537561013746e-01 1.3664767536832570e-01 0.0000000000000000e+00  -2.1363408683209520e-01 -6.9368095304633337e-02 0.0000000000000000e+00  -2.2056488223855419e-01 4.3259483604069678e-02 0.0000000000000000e+00  -2.2026955610971669e-01 -4.5895176760147725e-02 0.0000000000000000e+00  -2.2678703197383489e-02 2.2620839149238259e-01 0.0000000000000000e+00  -2.2120937335748564e-01 -4.3093850114040440e-02 0.0000000000000000e+00  9.5107335525911468e-02 2.0522059505833509e-01 0.0000000000000000e+00  1.2829774696687037e-03 -2.2659242772129959e-01 0.0000000000000000e+00  1.0208186060862311e-01 -2.0094436050208039e-01 0.0000000000000000e+00  -1.6305449432476835e-02 -2.2863902993184501e-01 0.0000000000000000e+00  -9.2344256776205877e-02 -2.0560113990698750e-01 0.0000000000000000e+00  1.9075588452634332e-01 1.2284226331286338e-01 0.0000000000000000e+00  2.5245083678405050e-01 1.1190836650224133e-01 0.0000000000000000e+00  6.1714211776996528e-02 -2.1765397865207592e-01 0.0000000000000000e+00  -8.5505303255820425e-02 2.1035429064248976e-01 0.0000000000000000e+00  1.3691545979471298e-01 -1.7724709701897967e-01 0.0000000000000000e+00  1.9986374531493467e-01 -1.0246548244387764e-01 0.0000000000000000e+00  -3.1957890587570145e-03 -2.2492544527606184e-01 0.0000000000000000e+00  7.1357844730404352e-02 2.1363929253643804e-01 0.0000000000000000e+00  2.2411544331387587e-01 1.8504392099547209e-02 0.0000000000000000e+00  -9.7370040799168542e-02 -2.0615601900342137e-01 0.0000000000000000e+00  1.8185800030188004e-01 -1.3511156077684799e-01 0.0000000000000000e+00  -1.2247963003044862e-02 2.2631277962118510e-01 0.0000000000000000e+00  1.4600064081725342e-01 1.7065931645251009e-01 0.0000000000000000e+00  2.2296890933116376e-01 -2.5231902019065423e-02 0.0000000000000000e+00  1.6984633378287683e-01 -1.4703665996288065e-01 0.0000000000000000e+00  2.1675504984692764e-01 5.8856550481349731e-02 0.0000000000000000e+00  1.5384089730126591e-01 -1.6397936447978229e-01 0.0000000000000000e+00  8.6206177660211727e-02 2.0785527921872196e-01 0.0000000000000000e+00  -1.9985059908909383e-01 -1.1259509700006073e-01 0.0000000000000000e+00  -1.6054771376836202e-01