<?xml version="1.0"?>
<VTKFile type="UnstructuredGrid"  version="0.1"  >
<UnstructuredGrid>
<Piece  NumberOfPoints="2549" NumberOfCells="4928">
<Points>
<DataArray  type="Float64"  NumberOfComponents="3"  format="ascii">-275.2433510448068 16.09216362958254 0  -275.5340067924175 -1.691226826487772 0  -283.5777761929427 -25.43201577653579 0  -280.4424896059208 -46.45958509609981 0  -276.7578762309179 -68.01075822891247 0  -267.6301371706121 -86.61204186715628 0  -258.1685089403061 -104.4077852695264 0  -242.3394520344202 -116.9689841311287 0  -238.8511676538749 -136.3187707528723 0  -226.8055890328777 -165.6903053012341 0  -198.414069139717 -161.7921909322611 0  -181.8229034010563 -171.2553495157963 0  -161.0457081970407 -173.6301081633448 0  -141.5575768112556 -175.9965386066623 0  -121.8693367651291 -176.9787980823264 0  -101.2500362514885 -173.3238104645339 0  -88.48471009110338 -178.1899408184546 0  -66.69317452366428 -187.6969193825837 0  -41.6281184498356 -169.2691578478276 0  -22.53727966970564 -162.5077836439017 0  -2.566967755892269 -150.0085413202507 0  16.01083250344787 -137.4677456031329 0  34.05163823270272 -122.7948822608217 0  51.40115215697266 -105.0802162125539 0  65.1480523052704 -87.37180463595293 0  79.37646584047594 -73.94383401453403 0  93.12387815063013 -53.2679667354008 0  104.7145772998627 -32.09442954223056 0  114.5129225296595 -9.836072040358045 0  122.3502264685846 13.24165997844969 0  128.1170647119948 36.78812030355923 0  131.7616586001195 61.23450128864103 0  132.3675684516694 84.41696046367724 0  131.8081654418242 106.5982537676604 0  128.4024569117636 130.5537112723209 0  122.4560122293632 152.4265412276505 0  114.1257546538683 173.1780601488315 0  103.5157393432795 192.1203260777858 0  90.7901994250383 208.8873831188575 0  76.23241353419728 223.6875311530927 0  59.70841400784283 234.8773203497917 0  42.60275408866365 242.9335809205926 0  24.26203912473295 248.7276283605811 0  5.557637667608219 250.4756707538773 0  -13.10716214812002 248.8691947795239 0  -31.2549123934345 243.5872814842521 0  -48.42836150574023 235.055269221954 0  -64.20240064331909 222.4476663123033 0  -77.77008216997258 208.4532330341368 0  -90.24422911098083 191.40816299124 0  -99.86953198326012 170.9937280235377 0  -107.0612021540007 149.1492017780546 0  -111.6557346262925 125.8002651361237 0  -113.5714780066122 101.1846416893081 0  -112.9133937588939 76.62513773452456 0  -109.2029757947206 49.1809598171694 0  -102.5520332089646 28.76033688581819 0  -96.74155022925497 6.234642234791448 0  -86.63084740387266 -18.61917321599618 0  -74.77774765267833 -41.08100703070463 0  -61.30651052489394 -61.96497570114445 0  -45.91878267620969 -82.73428283727716 0  -29.98801485122272 -98.5332519574022 0  -9.954770925076126 -123.8516705486839 0  11.63209423527849 -129.0625497571155 0  25.77952245939047 -132.3603621768947 0  45.32912460115147 -142.9877981883169 0  64.64195699160092 -149.0123879580147 0  84.84746391877313 -154.6937714433341 0  103.4159648214513 -154.1669255589916 0  126.0838382663977 -160.4154179577217 0  134.9574372260934 -134.8065352197683 0  144.8392952744384 -143.188019346479 0  182.1903775459058 -165.6396534606782 0  201.6059963521186 -158.7905929649418 0  225.2601941890321 -154.5588420909925 0  241.8801014035197 -142.5167423207836 0  264.7203365862404 -133.8900600639085 0  269.2323627743395 -108.7110865396691 0  311.3877292906992 -109.7012456684192 0  292.4606608212858 -50.90000106402471 0  260.3412887285626 -25.92412931944667 0  288.4009572785613 -13.91562208904479 0  279.13474991332 6.97005649395965 0  287.2256610776125 26.84200004027282 0  277.1943500776738 46.61573632044273 0  286.1223841473305 67.25926203634002 0  254.5944348491058 78.38709965734786 0  288.8819946420003 103.6305453912027 0  308.6004846695572 165.3182814483965 0  261.6202568818196 161.0962303106559 0  256.827855445508 186.3987862155578 0  231.8415936718793 193.4334118617835 0  214.0114775102878 204.471833740438 0  188.9262086753637 207.3882374664922 0  168.9043593986232 213.932554671539 0  128.7766473647913 189.4532042158411 0  116.7037751769763 175.2755648307714 0  108.3008695409665 202.6080171376982 0  84.31610631714595 194.2883653212993 0  65.02073748457012 194.1770133386543 0  43.76716843135146 187.2253169238776 0  23.56629806843869 180.250812891613 0  3.069711535255309 168.5221960414192 0  -11.8879905718002 165.58538970091 0  -35.50817329044529 159.187408924813 0  -57.20040321676482 129.6650043707794 0  -74.26780703562116 112.1811912116711 0  -90.97773912786479 88.69553942855957 0  -105.6915405530413 65.20493658350513 0  -118.6461962196849 40.02896229523454 0  -129.4865032219697 13.05805301165099 0  -137.0694370150842 -10.42332218278582 0  -145.8347168633777 -36.89170511663662 0  -150.0539649046399 -71.65233062143963 0  -150.9024056985908 -100.377136642836 0  -149.0279603457061 -130.4608469762336 0  -144.1166172152839 -158.9576998462403 0  -136.2433659796745 -186.1593839783991 0  -125.5521224859477 -212.4795663907116 0  -111.046216010979 -234.5213124772998 0  -95.70783158881808 -252.9672903341858 0  -77.36139067786711 -271.0549752990344 0  -57.04105018990612 -284.2019317994847 0  -35.25074536957029 -293.6373305300013 0  -12.49598191161261 -298.7064756416691 0  10.65498361230152 -299.5216356593058 0  33.6777583120676 -295.8719166657214 0  55.97397970118748 -287.9849309366082 0  76.92626845655272 -275.9756491747364 0  96.21497089361013 -260.3815139569166 0  113.3363872300044 -241.3199304425245 0  127.9642179070584 -219.4090288330939 0  139.8285498404734 -194.8908648079448 0  148.7880946238477 -168.9899419464396 0  154.5281846073055 -139.5954118273917 0  156.4516428996971 -114.4673684722369 0  158.0701932007111 -87.17796350437376 0  155.322742519986 -57.36922081219461 0  150.079590945893 -29.1925246613869 0  142.3973609127382 -1.64964004487024 0  132.427863955109 24.79501000127375 0  120.3903062928844 49.93398049486083 0  105.9998302541214 74.10268920981902 0  91.01650645716776 90.91382932363095 0  76.23185688881949 111.8971666234955 0  57.86904096678242 132.3536272590748 0  38.7156300759186 149.6167984127376 0  19.02330265348536 164.4540399966191 0  -2.140113334033504 179.18560910062 0  -22.29672043213996 187.6505976236382 0  -48.77987798287012 208.6119101055045 0  -71.89536023597985 200.1183628354927 0  -85.44679428056766 196.0315933830491 0  -107.0847196971793 200.9842403765914 0  -127.7770888981546 201.158054432254 0  -148.3274857852674 199.9734627213424 0  -170.2446842849422 198.7724038919214 0  -187.7837045029364 190.1433856230055 0  -217.759879434863 195.6037538335346 0  -230.6348817388281 166.2193702685553 0  -234.8400690917647 147.4351744587562 0  -251.9558727701768 135.7235173373495 0  -262.6359886286546 118.580668405622 0  -273.0287754708814 100.514378154239 0  -278.4426253583934 79.4914558294187 0  -281.8206270616329 58.27317300083578 0  -277.2457127712897 35.22440342976738 0  12.6124498559421 154.5554750119896 0  -16.69458701423 -1.492258014097569 0  52.89573332364156 46.21527363511127 0  0.865230364074198 -192.3747863015895 0  -33.34207705431982 -8.752355110387851 0  -176.1451506563252 -61.43551222191403 0  71.6198518507009 -25.35902878665172 0  212.0083701256995 21.86950388514834 0  -171.2026788221749 82.0938867404802 0  123.1961249979283 104.8014429296622 0  149.5160288691318 17.1577260687014 0  90.73301011882764 -1.210070647471013 0  140.3281018244857 -66.83732794399643 0  23.38087518475999 -136.1254593451576 0  -47.35377289310273 -79.70494790188407 0  11.09447015901903 101.7471747130387 0  -103.534442124699 3.912445238482819 0  -138.3891378316363 3.959318077150881 0  1.171075630263124 -86.85371489481069 0  18.33542826453598 77.06222599384019 0  59.12158063150774 50.04557305421758 0  -100.5214859239269 83.02905505089122 0  -110.2603209791561 -71.88137337868241 0  -83.6627082914753 -15.62321854713033 0  -22.60828661541998 16.79324307483978 0  104.5697323670806 16.87641080312778 0  17.72092442267604 -63.14879481614015 0  -165.6694190184178 7.841196570317386 0  -221.3295993675716 12.81169126521226 0  -58.42274632005488 50.92764465530988 0  -130.8483440955819 37.48610997075682 0  -99.00812527730552 18.30783001575082 0  -118.4508349375645 5.897662615898123 0  -55.40359290443187 -15.21935285226347 0  -146.4611930935838 51.53322697939035 0  -151.1963881263024 5.829010658676639 0  155.8350620554461 -19.16784652191149 0  186.0455538146367 -32.0052057593679 0  178.1886705060327 20.341069366683 0  146.385566980368 56.15305305946065 0  178.32286454057 74.0197207898364 0  193.8465129580818 109.8714453684462 0  238.9891039298587 66.28887974883838 0  241.8235410076954 -18.32307727830301 0  201.6922822787581 -65.65912558762143 0  8.315197531522871 -129.7234316303399 0  26.12564938382701 -84.7703749402353 0  -6.574613210636373 -151.6372549540611 0  56.72386894835203 -28.29279289322044 0  50.77378705919616 -36.53489438367604 0  123.4395694487634 144.6143367623169 0  140.6189164923939 -102.8880854843814 0  -24.21514452195089 -66.89021948199839 0  -66.23461133466469 -40.70081269049786 0  -9.924402712685328 -106.0344656102337 0  105.8641077269616 -54.35154068022169 0  129.6802318519971 -13.65163791494258 0  -186.9516917726982 121.535446819546 0  -124.6953026275183 142.6964661080338 0  -135.192464353131 -122.0482980539882 0  -193.8553542079726 -96.67277514805774 0  -33.2485900786678 24.30040026082673 0  16.78554614595265 98.7655126576696 0  38.26174572668331 -71.06519757998419 0  -8.541721092974811 -7.777188249490758 0  34.36339886776163 38.64403937157947 0  66.82647896169802 -50.8135952728454 0  48.83568360144442 29.68334230491346 0  16.10109404901637 -43.02711544118709 0  10.93776634134094 -248.1265306106433 0  -35.07575324805571 -224.8084474510139 0  -18.5597435376644 191.1669144774618 0  17.36105714640549 203.1795281200106 0  8.861058912697334 -66.79407886516829 0  -124.1299659582117 -3.475354695796081 0  -110.5875856886356 -16.81494919958719 0  -73.47981640986674 9.286900867859933 0  82.38274213968776 11.61076802747435 0  123.98818
[...]
<PointData  Vectors="f_44"> 
<DataArray  type="Float64"  Name="f_44"  NumberOfComponents="3" format="ascii">2.3098304892418356e-01 3.5423455679477169e-02 0.0000000000000000e+00  1.9249038555214598e-01 -1.1522937406033912e-01 0.0000000000000000e+00  1.8635394500875413e-01 -5.4470774010315109e-02 0.0000000000000000e+00  2.3058369235199030e-01 8.8172615706431853e-02 0.0000000000000000e+00  1.6582784348728438e-01 1.1829859535508584e-01 0.0000000000000000e+00  1.5317629600671612e-01 1.8646678430169580e-01 0.0000000000000000e+00  5.3340123832202645e-03 2.2364073557432398e-01 0.0000000000000000e+00  4.7670710184685237e-02 1.2857521771944541e-01 0.0000000000000000e+00  2.7314667594224062e-01 1.5440552449080877e-01 0.0000000000000000e+00  -4.7198092732463316e-02 3.6378950874029758e-02 0.0000000000000000e+00  -2.2051755183982522e-01 1.6591501709781541e-02 0.0000000000000000e+00  -1.3718703868036666e-01 1.6858158980196120e-01 0.0000000000000000e+00  -2.3904637642363799e-01 1.8470488348360098e-02 0.0000000000000000e+00  -2.1396647321720860e-01 6.5917409273267807e-02 0.0000000000000000e+00  -2.2396772174600096e-01 -5.4865801319665182e-02 0.0000000000000000e+00  -1.8727424576530083e-01 -1.6744795531485054e-02 0.0000000000000000e+00  -1.7425081507814266e-01 2.6203115805064764e-01 0.0000000000000000e+00  -8.7579277424116433e-02 -6.7265046242429322e-02 0.0000000000000000e+00  -1.0663898608122412e-01 -2.2742407849314000e-01 0.0000000000000000e+00  -1.5321331811142774e-01 -1.4888235337566955e-01 0.0000000000000000e+00  -7.9793878847195285e-02 -2.1707246990273049e-01 0.0000000000000000e+00  -7.0628786078067635e-02 -2.0938413130681799e-01 0.0000000000000000e+00  -2.4129390296568576e-02 -2.2479356735363856e-01 0.0000000000000000e+00  4.5545959205436477e-02 -2.1900363944624984e-01 0.0000000000000000e+00  1.6625052097467948e-02 -2.2057552782669274e-01 0.0000000000000000e+00  2.8253615690578767e-02 -2.1676618390861258e-01 0.0000000000000000e+00  1.1481911509770323e-01 -1.9734001093133202e-01 0.0000000000000000e+00  1.3351693063310804e-01 -1.7775889949069337e-01 0.0000000000000000e+00  1.6577893521294060e-01 -1.5136122723080866e-01 0.0000000000000000e+00  1.8851549089923647e-01 -1.2001044021700145e-01 0.0000000000000000e+00  2.0708880278265385e-01 -8.7193445745820858e-02 0.0000000000000000e+00  2.1982713359919062e-01 -3.6577786367995448e-02 0.0000000000000000e+00  2.2482156131103231e-01 4.6822103755414247e-04 0.0000000000000000e+00  2.2077816876420997e-01 3.3504135682206317e-02 0.0000000000000000e+00  2.0597644806942100e-01 8.9083071692921414e-02 0.0000000000000000e+00  1.7881745192192641e-01 1.3509764647734959e-01 0.0000000000000000e+00  1.4206701524330603e-01 1.7372888847751386e-01 0.0000000000000000e+00  8.8607394729858999e-02 2.0527608055032420e-01 0.0000000000000000e+00  3.5363965478541926e-02 2.2289231544181048e-01 0.0000000000000000e+00  -3.8230847010924225e-02 2.1990484027934715e-01 0.0000000000000000e+00  -1.1827215217486838e-01 1.9143397180535909e-01 0.0000000000000000e+00  -1.6351230590169546e-01 1.5552802528844931e-01 0.0000000000000000e+00  -2.0431245880524368e-01 8.8744333477700194e-02 0.0000000000000000e+00  -2.2696669279815651e-01 4.2252258097175876e-04 0.0000000000000000e+00  -2.0798182489916894e-01 -8.0664489347337318e-02 0.0000000000000000e+00  -1.6794682649165663e-01 -1.5278962774627505e-01 0.0000000000000000e+00  -9.1183481860824464e-02 -2.0313933334576209e-01 0.0000000000000000e+00  -1.7621087400499131e-02 -2.2480793783524544e-01 0.0000000000000000e+00  3.3823087316259465e-02 -2.2251038852072003e-01 0.0000000000000000e+00  1.0823775066337583e-01 -1.9500255285661119e-01 0.0000000000000000e+00  1.6595977780128762e-01 -1.5268691612411475e-01 0.0000000000000000e+00  1.9460537039249681e-01 -1.0996081355224557e-01 0.0000000000000000e+00  2.1657268902588633e-01 -5.9266853218087293e-02 0.0000000000000000e+00  2.2290536592689100e-01 -9.9918953678342203e-03 0.0000000000000000e+00  2.2440883751393226e-01 3.1250629610827897e-02 0.0000000000000000e+00  1.9626433494089854e-01 1.0091747045774459e-01 0.0000000000000000e+00  1.8804998143206739e-01 1.2236467001339886e-01 0.0000000000000000e+00  1.8312611145191290e-01 1.2537462857827156e-01 0.0000000000000000e+00  1.4251816111163523e-01 1.7538026032635812e-01 0.0000000000000000e+00  1.0639745667567044e-01 1.9472666126109389e-01 0.0000000000000000e+00  8.7601693268758510e-02 2.1038433219107819e-01 0.0000000000000000e+00  1.5353627635556932e-02 2.1678481021773663e-01 0.0000000000000000e+00  5.2489397319445068e-02 2.3468471739448030e-01 0.0000000000000000e+00  -3.8219355024206661e-02 1.7280099327879583e-01 0.0000000000000000e+00  -2.6143181791309772e-01 6.5939085390431834e-02 0.0000000000000000e+00  -1.3363596656317381e-01 1.6680894475573352e-01 0.0000000000000000e+00  -1.4515271187482603e-01 1.6215381636928619e-01 0.0000000000000000e+00  -1.9647022461798999e-01 1.3612961956980155e-01 0.0000000000000000e+00  -1.9282831486722046e-01 2.6249500733216205e-02 0.0000000000000000e+00  -2.7323972751162456e-01 9.1350438084639080e-02 0.0000000000000000e+00  2.5369278495983017e-02 -3.4117334822224073e-02 0.0000000000000000e+00  1.6951249128152812e-01 -6.8697742397034869e-02 0.0000000000000000e+00  -1.0837280300413311e-01 2.8981205610117006e-01 0.0000000000000000e+00  -1.1648527342203151e-01 5.7641306938245124e-02 0.0000000000000000e+00  -2.3310386317923285e-01 -1.3966401478729448e-01 0.0000000000000000e+00  -1.1128001122677154e-01 -1.2391638213904475e-01 0.0000000000000000e+00  -1.8960925727237388e-01 -2.0826243121668600e-01 0.0000000000000000e+00  1.1258672731686256e-01 -1.0848568347414779e-01 0.0000000000000000e+00  -1.1040823590092341e-01 -3.3406543883619973e-02 0.0000000000000000e+00  -2.0136148848736782e-03 6.3359401247404287e-02 0.0000000000000000e+00  1.6958684110508768e-01 2.2242010725651701e-01 0.0000000000000000e+00  -1.8910518670699897e-01 2.7839178141730765e-02 0.0000000000000000e+00  -2.7141986578045462e-02 -4.4995749828352895e-02 0.0000000000000000e+00  2.1092091596476911e-01 2.2122670130230653e-02 0.0000000000000000e+00  1.1727907790958299e-01 1.7613982136789406e-02 0.0000000000000000e+00  1.9511584974873517e-01 -2.8415818761575408e-03 0.0000000000000000e+00  -4.0524730482042921e-02 3.8750884794684234e-02 0.0000000000000000e+00  -2.0882133642111267e-01 -3.5469395523508862e-02 0.0000000000000000e+00  1.6812810892078400e-01 -2.1369732012329373e-01 0.0000000000000000e+00  -4.5748898891334712e-03 -7.8527774692708399e-02 0.0000000000000000e+00  -1.1896255206185974e-01 1.2224482030845450e-02 0.0000000000000000e+00  9.7361707668111933e-02 1.0084323280780139e-01 0.0000000000000000e+00  -2.2273947923603396e-01 1.7951009445480384e-01 0.0000000000000000e+00  -1.3105909867481125e-01 1.0541644799253716e-01 0.0000000000000000e+00  -2.3657407151504739e-01 1.1756232048485232e-01 0.0000000000000000e+00  -1.2656613376492173e-01 -6.2707787139790791e-02 0.0000000000000000e+00  -7.6979642323550965e-02 -2.9000728314785773e-01 0.0000000000000000e+00  1.9414727304514504e-01 3.4526545190389606e-02 0.0000000000000000e+00  3.3549773652853623e-02 2.0418130548189795e-02 0.0000000000000000e+00  -2.6299798856586254e-01 -1.1663154573494920e-01 0.0000000000000000e+00  -1.8988076903250120e-01 -4.0965087053155186e-02 0.0000000000000000e+00  -1.8558134055308326e-01 -1.4983266091387654e-01 0.0000000000000000e+00  -1.3595490409145511e-01 -1.7258310667277080e-01 0.0000000000000000e+00  -1.3171163712695300e-01 -1.5976664959679898e-01 0.0000000000000000e+00  -2.6542385694185544e-01 -6.7700116710426098e-02 0.0000000000000000e+00  -2.2387523536205871e-02 -1.7730303478277118e-01 0.0000000000000000e+00  6.5580200676376724e-02 -2.2965417570044439e-01 0.0000000000000000e+00  2.2447336712087797e-02 -2.1666040347735988e-01 0.0000000000000000e+00  9.5072510231986915e-02 -2.0691864013899641e-01 0.0000000000000000e+00  1.1023132767452565e-01 -1.9310692876003474e-01 0.0000000000000000e+00  1.4720124926250433e-01 -1.6983309585928849e-01 0.0000000000000000e+00  1.7552610714583883e-01 -1.3730171032001012e-01 0.0000000000000000e+00  1.7654559522842256e-01 -1.4107562023164824e-01 0.0000000000000000e+00  1.9885467468344220e-01 -9.4246900479714069e-02 0.0000000000000000e+00  2.2494623234918540e-01 -2.8382596121431018e-02 0.0000000000000000e+00  2.2291809623960604e-01 5.6304815427404564e-03 0.0000000000000000e+00  2.1871738572920607e-01 5.0585841510603351e-02 0.0000000000000000e+00  2.0018668512601398e-01 9.8857947928351370e-02 0.0000000000000000e+00  1.8004243495105526e-01 1.3634488013350529e-01 0.0000000000000000e+00  1.2753810193319196e-01 1.8190094208570248e-01 0.0000000000000000e+00  5.9465669129562304e-02 2.1746897877062726e-01 0.0000000000000000e+00  2.4213214776158041e-02 2.2382038103893775e-01 0.0000000000000000e+00  -4.4470286951070519e-02 2.1794791494012641e-01 0.0000000000000000e+00  -1.2723631338645153e-01 1.8774408445739399e-01 0.0000000000000000e+00  -1.8004405480123456e-01 1.3253746399982833e-01 0.0000000000000000e+00  -2.1843298285490201e-01 5.6747967136276285e-02 0.0000000000000000e+00  -2.2270857500493610e-01 -2.7351930114183829e-02 0.0000000000000000e+00  -1.9778981394651449e-01 -1.0791113789702513e-01 0.0000000000000000e+00  -1.4539273071805678e-01 -1.7079502376616648e-01 0.0000000000000000e+00  -8.0618116762613046e-02 -2.1011958733214753e-01 0.0000000000000000e+00  -1.0852336700914969e-02 -2.2381620680384881e-01 0.0000000000000000e+00  5.6459323021158359e-02 -2.1758507463701510e-01 0.0000000000000000e+00  1.1478471060122684e-01 -1.9215178190769602e-01 0.0000000000000000e+00  1.5881902022536229e-01 -1.5882458679932210e-01 0.0000000000000000e+00  1.9374670243945455e-01 -1.1298912016792637e-01 0.0000000000000000e+00  2.1677460487907138e-01 -5.3563583002196942e-02 0.0000000000000000e+00  2.2261421084347263e-01 -3.3301326852008185e-02 0.0000000000000000e+00  2.2181235564243323e-01 3.9635063097452541e-03 0.0000000000000000e+00  2.1578450350724335e-01 6.5448389040834082e-02 0.0000000000000000e+00  2.0076043108469505e-01 9.7613428975863920e-02 0.0000000000000000e+00  1.8109343643064765e-01 1.3255034483557310e-01 0.0000000000000000e+00  1.5284367086385170e-01 1.6205230377147817e-01 0.0000000000000000e+00  1.3221450520245082e-01 1.8450434488057132e-01 0.0000000000000000e+00  5.8513533973484064e-02 2.1236701770168098e-01 0.0000000000000000e+00  4.7819627634212561e-02 2.1733335619835978e-01 0.0000000000000000e+00  6.2295452805804369e-02 2.1402564035031835e-01 0.0000000000000000e+00  -2.6529554998350616e-03 2.2610118478250643e-01 0.0000000000000000e+00  -4.7984795906785720e-02 2.1576013599418642e-01 0.0000000000000000e+00  -5.8511160807167201e-02 2.2332428371109889e-01 0.0000000000000000e+00  -1.3500519394885596e-01 1.6560673269768750e-01 0.0000000000000000e+00  -8.6913413030869094e-02 2.3568226946840140e-01 0.0000000000000000e+00  -8.4345170550596107e-02 7.9247843416738989e-02 0.0000000000000000e+00  -2.0331385113738826e-01 -2.3798137978001396e-01 0.0000000000000000e+00  -1.8758667272718502e-01 3.9652429549016800e-02 0.0000000000000000e+00  -2.1642793053647641e-01 7.7186603424961212e-02 0.0000000000000000e+00  -2.2026752274002206e-01 -3.8224325076206642e-02 0.0000000000000000e+00  -2.3967855622754561e-01 9.9545151554193308e-03 0.0000000000000000e+00  -1.5626591280306851e-01 -1.4832066291848872e-01 0.0000000000000000e+00  -2.2552094586307925e-01 4.8182720031434041e-03 0.0000000000000000e+00  -4.9717401260863228e-02 -2.5058425998334223e-02 0.0000000000000000e+00  2.6657221992649832e-01 -1.7540351556900874e-01 0.0000000000000000e+00  2.5810460508645588e-02 -1.3071156163845088e-01 0.0000000000000000e+00  -2.6726566100295678e-02 -2.2390563190166629e-01 0.0000000000000000e+00  1.2803355871178385e-01 -2.0233728395904305e-01 0.0000000000000000e+00  1.4545396671216301e-01 -1.4958934834542303e-01 0.0000000000000000e+00  2.1802944906511870e-01 -1.0008562538245404e-01 0.0000000000000000e+00  2.0752241853309644e-01 1.7875097002447396e-02 0.0000000000000000e+00  2.0911581746202954e-01 8.8812500944978695e-02 0.0000000000000000e+00  -1.5390310852394506e-01 -1.6801887124902834e-01 0.0000000000000000e+00  -2.5245272963861452e-02 2.2366887355333695e-01 0.0000000000000000e+00  -1.0004230915806404e-01 -2.0141709511784339e-01 0.0000000000000000e+00  -1.9308345709616728e-01 1.1934051746873703e-01 0.0000000000000000e+00  -1.2712239337655584e-01 -1.8614135921835326e-01 0.0000000000000000e+00  8.1174214600741521e-02 2.0982524316013584e-01 0.0000000000000000e+00  -1.4217493512250060e-01 1.7446976589689928e-01 0.0000000000000000e+00  2.2920135253033874e-01 2.3742764422143754e-02 0.0000000000000000e+00  2.9091113177309284e-02 -2.2298270371627923e-01 0.0000000000000000e+00  -1.6490794381835799e-01 1.5205234120384767e-01 0.0000000000000000e+00  2.3365206762224516e-01 -5.2846854238585643e-02 0.0000000000000000e+00  2.2866635597909843e-01 -1.9655007617480982e-02 0.0000000000000000e+00  -1.6630599857987852e-01 -1.5050551220233307e-01 0.0000000000000000e+00  1.9056426384302153e-01 -1.1983847069916660e-01 0.0000000000000000e+00  1.4163933450101773e-01 -1.7353653107126238e-01 0.0000000000000000e+00  2.2415941961488567e-01 2.4766981310849204e-02 0.0000000000000000e+00  -7.0625610645149411e-02 -2.1539368882601689e-01 0.0000000000000000e+00  2.0590632883872148e-01 -1.1526074081273634e-01 0.0000000000000000e+00  2.2410718653893755e-01 1.4048189607045757e-02 0.0000000000000000e+00  2.2191316906598740e-01 3.5169099360720921e-02 0.0000000000000000e+00  -5.4633937010612567e-02 2.1816967935357739e-01 0.0000000000000000e+00  -2.2391832965810388e-01 -2.0141097131386284e-02 0.0000000000000000e+00  -2.0198488066183651e-01 9.9366864459817586e-02 0.0000000000000000e+00  -7.5339471916949733e-03 2.2488102418358730e-01 0.0000000000000000e+00  1.9801364031442458e-02 -2.2448241101397567e-01 0.0000000000000000e+00  -5.9187322145319854e-02 2.1621873979408240e-01 0.0000000000000000e+00  2.2769772993095699e-01 -1.9978474616128045e-03 0.0000000000000000e+00  2.1774043437629584e-01 -5.5808794752768828e-02 0.0000000000000000e+00  2.2363802048780099e-01 -1.3679649342424310e-02 0.0000000000000000e+00  -1.8565496844049717e-01 1.2703740522778856e-01 0.0000000000000000e+00  -1.5070274502734954e-01 -1.6886824886392326e-01 0.0000000000000000e+00  -2.2654831945605103e-01 -1.1261905932744614e-04 0.0000000000000000e+00  -2.0750048768903498e-01 -9.9673649255108007e-02 0.0000000000000000e+00  -6.2487685144401152e-02 2.1681841277630787e-01 0.0000000000000000e+00  -1.7207314655577389e-02 -2.2493162894710153e-01 0.0000000000000000e+00  2.1487222129675365e-01 -7.4690740321816121e-02 0.0000000000000000e+00  2.8921782339882017e-03 -2.2610383454232857e-01 0.0000000000000000e+00  1.1998160922207011e-02 -2.2551938794306092e-01 0.0000000000000000e+00  2.2604690678928993e-01 4.9879552135635658e-03 0.0000000000000000e+00  -2.5715776171443213e-02 2.2479549127339246e-01 0.0000000000000000e+00  4.6666900299128185e-02 2.2043691625091300e-01 0.0000000000000000e+00  -1.1635847012661367e-01 1.9342751173123593e-01 0.0000000000000000e+00  -1.2321370941917661e-01 -2.0009052419829138e-01 0.0000000000000000e+00  -1.6025580110229307e-01 1.7713316621692402e-01 0.0000000000000000e+00  -2.1427945861501560e-01 -7.9028734532227557e-02 0.0000000000000000e+00  2.2383361054246095e-01 4.5275056759100922e-02 0.0000000000000000e+00  2.1221796841061810e-01 7.0879920496003612e-02 0.0000000000000000e+00  9.1309385388580119e-02 2.0555538632196307e-01 0.0000000000000000e+00  1.3194009506597532e-01 1.8219874732008182e-01 0.0000000000000000e+00  1.9638415225950059e-01 -1.0898992258631199e-01 0.0000000000000000e+00  -1.9031250688085721e-01 1.1995845255369998e-01 0.0000000000000000e+00  -2.1054707960391267e-01 -7.8133726336368475e-02 0.0000000000000000e+00  1.9043497807939844e-01 1.2035180908343647e-01 0.0000000000000000e+00  2.2310281037580990e-01 3.1726426285196868e-02 0.0000000000000000e+00  1.7379260633764917e-01 -1.4328959883641104e-01 0.0000000000000000e+00  -2.2400949358286304e-01 -2.1724334057326877e-02 0.0000000000000000e+00  -2.0000596038493063e-01 -1.0633659344163841e-01 0.0000000000000000e+00  -8.6520781708019356e-03 -2.2455473877735516e-01 0.0000000000000000e+00  -1.7920456607905710e-01 -1.3526241545757683e-01 0.0000000000000000e+00  -1.5410265980941262e-01 1.6344609867119220e-01 0.0000000000000000e+00  2.3295498697857592e-02 2.2352073551158647e-01 0.0000000000000000e+00  8.4748685809036162e-02 -2.0777774673622207e-01 0.0000000000000000e+00  -1.1291632816676449e-01 -1.9399343454397311e-01 0.0000000000000000e+00  -1.2673324885695816e-01 1.8521652549845571e-01 0.0000000000000000e+00  6.5230714095199024e-02 2.1477349883843733e-01 0.0000000000000000e+00  2.7325022170377265e-02 2.2282969395518934e-01 0.0000000000000000e+00  1.8139547799857061e-01 1.3233325209708033e-01 0.0000000000000000e+00  1.3259717148753589e-01 -1.8146053900295386e-01 0.0000000000000000e+00  -3.8383229990447361e-02 -2.2142853995841752e-01 0.0000000000000000e+00  -2.2136355435970922e-01 -4.3781577389068405e-02 0.0000000000000000e+00  -7.1992979782162056e-02 2.1326711976766174e-01 0.0000000000000000e+00  -8.0914215383715585e-02 -2.1035641433696256e-01 0.0000000000000000e+00  -2.1137022361028932e-01 7.9936670654742539e-02 0.0000000000000000e+00  1.8355355014787106e-01 1.3020990540286095e-01 0.0000000000000000e+00  1.2592310049704541e-01 2.0253141840370570e-01 0.0000000000000000e+00  -1.7379843061147585e-01 1.4682373699944792e-01 0.0000000000000000e+00  -1.9203312381545923e-01 -1.1969584647207715e-01 0.0000000000000000e+00  -1.8262156136649138e-02 -2.2430098284078090e-01 0.0000000000000000e+00  1.6645787277751259e-01 -1.5840343500091975e-01 0.0000000000000000e+00  -2.2676538761027412e-01 1.4615343912096939e-02 0.0000000000000000e+00  1.0654878227081907e-01 -1.9676032881706521e-01 0.0000000000000000e+00  4.5167174750839034e-02 -2.1927135229106126e-01 0.0000000000000000e+00  1.7337697955499301e-01 -1.4274200213718133e-01 0.0000000000000000e+00  -2.1952784205041800e-01 -4.7451598312310515e-02 0.0000000000000000e+00  -2.1914039590089965e-01 4.9104002453695499e-02 0.0000000000000000e+00  -2.2495566201812714e-01 -6.7241405375214770e-03 0.0000000000000000e+00  -2.3810930657579010e-02 2.2580644633587099e-01 0.0000000000000000e+00  -2.2289395740126483e-01 -3.2875608057572940e-02 0.0000000000000000e+00  8.9406893466979873e-02 2.0744279292379542e-01 0.0000000000000000e+00  8.2088761081118677e-02 -2.1006630334425966e-01 0.0000000000000000e+00  9.9229771779892686e-02 -2.0233480505084911e-01 0.0000000000000000e+00  2.1356780355126796e-04 -2.2730567488670486e-01 0.0000000000000000e+00  -8.0939832615965532e-02 -2.1095467267918483e-01 0.0000000000000000e+00  2.1027212972692247e-01 7.9553665176851404e-02 0.0000000000000000e+00  2.1128511259019953e-01 8.8246001141422906e-02 0.0000000000000000e+00  1.4405822541907559e-01 -1.7310366425411722e-01 0.0000000000000000e+00  1.0398384297638073e-01 2.0996103433671848e-01 0.0000000000000000e+00  6.3454255688430619e-02 -2.1509032609687492e-01 0.0000000000000000e+00  2.1076160344463027e-01 -7.7863594009514855e-02 0.0000000000000000e+00  1.5485222325799302e-02 -2.2457030119846277e-01 0.0000000000000000e+00  7.5817630686276130e-02 2.1220027313115497e-01 0.0000000000000000e+00  2.2474379065223540e-01 7.7024462645725895e-03 0.0000000000000000e+00  -1.7152903557226981e-01 -1.5036586877401309e-01 0.0000000000000000e+00  2.2388908037403729e-01 -2.9171288536690446e-02 0.0000000000000000e+00  -2.4487603049580083e-02 2.2589634727957972e-01 0.0000000000000000e+00  1.7104365515632192e-01 1.4555874273759500e-01 0.0000000000000000e+00  2.1649087558220617e-01 -5.9043806638031895e-02 0.0000000000000000e+00  1.2884859761181813e-01 -1.8398134562454041e-01 0.0000000000000000e+00  2.1151947522351275e-01 7.5260346227549249e-02 0.0000000000000000e+00  1.7532409884647046e-01 -1.4060782054498386e-01 0.0000000000000000e+00  8.3870476254914034e-02 2.0855276730491903e-01 0.0000000000000000e+00  -2.1309377950665648e-01 8.2318003385374081e-02 0.0000000000000000e+00  -1.3743725204349147e-