<?xml version="1.0"?>
<VTKFile type="UnstructuredGrid"  version="0.1"  >
<UnstructuredGrid>
<Piece  NumberOfPoints="2549" NumberOfCells="4928">
<Points>
<DataArray  type="Float64"  NumberOfComponents="3"  format="ascii">1.634807050144185 -0.04085361872933608 0  1.624899449226277 0.001752710247947589 0  1.621267537726568 0.04355253388117963 0  1.612140996726748 0.08706425855795297 0  1.600972516348035 0.1289579435080404 0  1.589932494460426 0.1737451086242103 0  1.572068455009347 0.2168330712983486 0  1.574342115942475 0.2672836390307546 0  1.522517370805446 0.2991095846232924 0  1.506178349470745 0.3305728028548782 0  1.495677644189786 0.4008046372864648 0  1.454700382279053 0.4266693612058046 0  1.429617793963489 0.4731361688968986 0  1.396781403012787 0.5128467569453964 0  1.361124220986895 0.5504870781181621 0  1.348367106951623 0.6052068678249719 0  1.271962624887752 0.6101861845191514 0  1.257128398823926 0.6444031173015347 0  1.232596148501323 0.7296330462168218 0  1.176072626813687 0.7302909682147928 0  1.142148660160984 0.7756547336247764 0  1.099321085323733 0.8102078661672214 0  1.060889530092566 0.849910014985057 0  1.020152312114896 0.8935864085298123 0  0.9643948749453034 0.9129282135392914 0  0.9338409980028983 0.9640084211396409 0  0.8819358299698264 0.9943095103935415 0  0.8340758322354208 1.021756292966108 0  0.7874036774517579 1.057606983519597 0  0.7376888628622242 1.087966092220882 0  0.6872558254860509 1.118650817745603 0  0.6368812987829671 1.149361421847675 0  0.5818338352387846 1.173128473783501 0  0.528811826218304 1.198185913520202 0  0.4747769194766735 1.223759954485027 0  0.4178478457951332 1.242383186294496 0  0.3616114506203235 1.261800975666796 0  0.3039700006037187 1.277491732611166 0  0.2456502239395933 1.291456473504096 0  0.1872401481500728 1.302805049954475 0  0.1272726342355753 1.310359695289387 0  0.06802157156985367 1.315588418925795 0  0.00812920404317035 1.318669082639312 0  -0.05175557083021338 1.318459809020929 0  -0.1116932231614959 1.315537619460788 0  -0.1713697436942522 1.309474760547684 0  -0.2309012703260108 1.301057990899405 0  -0.2898512479589914 1.288981896910125 0  -0.3478150473838101 1.27419938610068 0  -0.4064755575426688 1.257883631430924 0  -0.4627488456832707 1.237187518364285 0  -0.5184390109564629 1.213406724381325 0  -0.573580964717366 1.189309220700218 0  -0.6254286866231704 1.159344914108586 0  -0.6810115880776185 1.137734731105482 0  -0.7306964077806989 1.099092125397624 0  -0.7748393137324545 1.065104880663997 0  -0.8318411747050033 1.040811208794391 0  -0.8742687188451154 0.9989869061348251 0  -0.9196914326794614 0.9626813197254415 0  -0.965293705050764 0.9269494925048802 0  -1.006578841937673 0.8889068597458323 0  -1.059589836154348 0.8681033785010647 0  -1.081285016242478 0.788939318317908 0  -1.123627757124706 0.7767075416917727 0  -1.172834254656074 0.7443605915128807 0  -1.198187875439722 0.6954908521267579 0  -1.240217566156122 0.6676267039166356 0  -1.270750757867563 0.6122367957373722 0  -1.307489362660941 0.6130753394741951 0  -1.352499371357665 0.5478894842158041 0  -1.359582668322835 0.496003664459061 0  -1.456857458662965 0.5091276862751617 0  -1.448151831596687 0.4351094537857506 0  -1.482443813859106 0.402062604306636 0  -1.507068767691595 0.3549304670056186 0  -1.534156410012937 0.3124905893243244 0  -1.547452839584976 0.2602953648877833 0  -1.570517842966891 0.2235624682537611 0  -1.554921387720839 0.1466090905326739 0  -1.587851305191389 0.1418721114060158 0  -1.603685981378502 0.09132852959705871 0  -1.569900735325853 0.03936637886803948 0  -1.560690856520689 0.003038106351259158 0  -1.557312162135249 -0.03953193101222908 0  -1.572855014001389 -0.07040605940431123 0  -1.54970846065141 -0.1095837878863162 0  -1.567482392080374 -0.1530608504308443 0  -1.549901151552143 -0.2039901486130011 0  -1.528087162143833 -0.2130594529935403 0  -1.555424475931575 -0.2815229613744543 0  -1.534089079246922 -0.3242807063350268 0  -1.526011985547733 -0.38154394052031 0  -1.501153569669004 -0.4276447450947379 0  -1.477096137099563 -0.4764222618042913 0  -1.441596062741695 -0.5100363794768852 0  -1.442120205087936 -0.5807599487483316 0  -1.366970144324254 -0.5981919435448964 0  -1.34361458173503 -0.6268228051638803 0  -1.307174926934918 -0.6840479383647535 0  -1.271529671335563 -0.6939802256884979 0  -1.241463922563598 -0.7450618619444913 0  -1.202291322719172 -0.7764714329552052 0  -1.173682643746568 -0.8220454711373898 0  -1.130940869877623 -0.8583039159793401 0  -1.087992023046625 -0.8738840722994186 0  -1.064229233794502 -0.9460743958001726 0  -1.015848126766925 -0.9752367277491935 0  -0.9737594622864653 -1.014208081183275 0  -0.9297815916648297 -1.052903830683657 0  -0.8844910463491037 -1.091797679932465 0  -0.8392005730382212 -1.129916488722002 0  -0.7914397098829429 -1.168050398841853 0  -0.7388643797350545 -1.194310348734906 0  -0.694752685647792 -1.242237467820173 0  -0.6367008424513644 -1.270241062689839 0  -0.5842984549915226 -1.30064200508604 0  -0.5278992206594461 -1.327391846563165 0  -0.4712314990281887 -1.35272409072826 0  -0.4149842985132607 -1.376788850407495 0  -0.3538311253320647 -1.39244682565312 0  -0.2954884911827346 -1.408466649729753 0  -0.2356295538798509 -1.422408199766983 0  -0.174835757812509 -1.430422234317218 0  -0.1141782473508334 -1.437401405912246 0  -0.05300211211333827 -1.440402540069563 0  0.008174988224647359 -1.440527838729077 0  0.06931699373393634 -1.437081574847356 0  0.1303293315350831 -1.430342999470335 0  0.1904949177911977 -1.420478137324596 0  0.2502231424397887 -1.408163979601727 0  0.3091964524759027 -1.392865300867496 0  0.3675997325515804 -1.375520418906224 0  0.4246089972054095 -1.354520336324552 0  0.481774263023158 -1.334736935488587 0  0.5371007680797629 -1.30744235809351 0  0.5891153935772678 -1.281697513992458 0  0.6458554409862437 -1.257487572017043 0  0.6962321402522649 -1.224662678516295 0  0.7472047200478603 -1.193056119269013 0  0.7969149344959806 -1.160818950813343 0  0.8445460224241573 -1.125454629372153 0  0.8917801451003556 -1.093507928831678 0  0.9408331077775441 -1.06065146953106 0  0.9784656044061727 -1.020086282071185 0  1.028773391991546 -0.9896287008236293 0  1.070927059837849 -0.9487617922500792 0  1.110838584243478 -0.9092177797804571 0  1.152330762270032 -0.8723362492448675 0  1.189273891449646 -0.8294581365855607 0  1.235929533107205 -0.8082359427121462 0  1.265228844513889 -0.7416307089947897 0  1.291851008683624 -0.7152433678467558 0  1.348018192095529 -0.6913524639360407 0  1.371932211123945 -0.6435371639603281 0  1.405976542680403 -0.6040419174295097 0  1.437824506973821 -0.5628808400774272 0  1.46485751029056 -0.5171904494872798 0  1.498384029282873 -0.4813560882285006 0  1.512563844974982 -0.4193026752195116 0  1.537840704755871 -0.3933014671477562 0  1.571978738258246 -0.3517525195880652 0  1.580327746177507 -0.3028706360287796 0  1.595855507405421 -0.2579534600967847 0  1.606099097274599 -0.2124515708187796 0  1.615181251623222 -0.168812053797779 0  1.621064065709479 -0.1254654430895582 0  1.63173598099755 -0.08584550695916078 0  -0.09447671730820006 0.7867395891156832 0  0.6114687813031348 -0.7066811130408857 0  -0.7452090822777149 -0.6152402372626035 0  -0.07150754167719184 -0.8813379081069823 0  0.6075512392546546 0.6059406931921818 0  1.167447728189308 0.1945508502509515 0  -0.7609817080681482 0.5173471199647254 0  -1.231045083713143 -0.03645381098042087 0  1.172004206248661 -0.2847941852034549 0  -1.037520239506703 -0.4384560477541897 0  -0.7949304577982307 -0.05486411173471538 0  -0.4700724491229798 -0.2290571036742727 0  -1.055463457948008 0.3394951018336397 0  0.2877054467813337 -0.8556114768699069 0  0.1427016137657986 -0.2914292366545141 0  0.2520437915960534 0.7460420473202148 0  0.3449618568775141 0.1967062120786186 0  0.6633052883755062 -0.04507393026196077 0  -0.4081693516813771 -0.7740097592418934 0  -0.4457696661410833 0.6933516586754729 0  -0.2698793440923061 0.2544526232084439 0  0.9226480591157181 -0.4843191247757269 0  0.9182551315881767 0.3911944223061223 0  0.4131927127013161 -0.3209861287996602 0  0.0354944136966959 0.248786669851472 0  -0.5352119470743915 0.194792948001154 0  -0.166618580630927 -0.2837776506980291 0  0.9502808374159171 -0.04524088757983978 0  1.358139129938263 -0.04364809629801757 0  0.7673247131097035 -0.5921718948971253 0  0.7837848839078904 -0.2741050182039341 0  0.6280443646221127 -0.3726416157013077 0  0.5368746028256286 -0.1789212402577205 0  0.5062879346613651 -0.5191748068390507 0  0.9292125673981834 -0.2633491751298441 0  0.8061786598725736 -0.04511354282363779 0  -0.915685433755004 0.1527187237266026 0  -1.142395420930327 0.1492041230764407 0  -1.017037466348366 -0.04492228646754082 0  -0.9065383747951989 -0.2556350267526144 0  -1.130113191048914 -0.2349379903444709 0  -1.30920346705029 -0.3283719482975259 0  -1.38049947782075 -0.1439366564561777 0  -1.39661610494545 0.0751954664845588 0  -1.318754930702878 0.2507845858115378 0  -0.1195112459224522 -0.5823508040337668 0  -0.280160904318997 -0.5348518232987722 0  -0.241355879413549 -0.8338008119466209 0  -0.3176789952115953 -0.2577638190376094 0  -0.434715631100315 -0.4987695577516338 0  -1.231947962871329 -0.5125858043034479 0  -1.243639640668946 0.4264717300122686 0  0.349236536545177 -0.5855764220142626 0  0.2769991273260619 -0.3078664144314733 0  0.2094829752504145 -0.5767978691650547 0  -0.9066515909601007 0.4232745183287581 0  -0.7686776871412143 0.2288374228746335 0  1.359688586499081 -0.3566608143775608 0  1.231388101663131 -0.5171287631363051 0  1.224079271250667 0.4254853469916929 0  1.354017115263469 0.2678186822058349 0  -0.7548185067425173 -0.8950923186407302 0  -0.9296012299620345 -0.7558564639873672 0  -0.9357238097341579 0.6662899564299536 0  -0.7591874220177613 0.7966669677938362 0  0.7854993359016371 -0.8838755448975927 0  0.5933756361442761 -0.9967251547768654 0  0.5876860461403932 0.8924392365516538 0  0.7785867330618755 0.7839829990005152 0  0.
[...]
<PointData  Vectors="f_48"> 
<DataArray  type="Float64"  Name="f_48"  NumberOfComponents="3" format="ascii">-4.7965961731846179e-08 -7.1320021248792161e-08 0.0000000000000000e+00  6.3033613087862919e-07 -3.2170571940389291e-07 0.0000000000000000e+00  -5.3558340567574197e-07 -7.4912478132744521e-07 0.0000000000000000e+00  1.7241493201711884e-06 -1.9768970880596730e-07 0.0000000000000000e+00  -1.0209124843613650e-06 -1.6666427219566957e-06 0.0000000000000000e+00  3.3568412881481800e-06 3.7400674956615704e-07 0.0000000000000000e+00  -3.1258612565420330e-06 -2.0769154974625488e-06 0.0000000000000000e+00  3.2928538094051379e-06 -2.8148866311591031e-06 0.0000000000000000e+00  2.8535787871351656e-06 2.4544024273680462e-06 0.0000000000000000e+00  -1.9875789991525235e-06 -2.7276225369790053e-06 0.0000000000000000e+00  3.1951318253517591e-06 -2.2358225753580337e-06 0.0000000000000000e+00  4.2888920135429586e-06 4.1467020237079492e-06 0.0000000000000000e+00  -1.7673226976129180e-06 -1.0526681484904177e-05 0.0000000000000000e+00  4.8036456574359882e-06 1.1717189845447366e-05 0.0000000000000000e+00  -3.2909179602154094e-06 -1.2623010541646795e-05 0.0000000000000000e+00  8.7759320660619928e-06 4.5881217827888814e-06 0.0000000000000000e+00  5.8330406710565358e-06 7.1688734805425945e-06 0.0000000000000000e+00  -5.7813204367270228e-06 -7.1433535587087366e-06 0.0000000000000000e+00  7.5923742590257077e-06 1.5660049747816322e-06 0.0000000000000000e+00  9.4554750975336309e-06 1.2001783966439183e-05 0.0000000000000000e+00  -8.1742088459016814e-07 -3.0963550057143309e-05 0.0000000000000000e+00  5.5390040024352120e-06 1.4372776806041625e-05 0.0000000000000000e+00  8.7198173224021239e-08 -2.6026681490248786e-05 0.0000000000000000e+00  1.2031151393219455e-06 1.0469161404621120e-05 0.0000000000000000e+00  5.2581263512907992e-06 6.0966652713305181e-07 0.0000000000000000e+00  4.8343831519386406e-06 -7.9152691023757754e-06 0.0000000000000000e+00  -1.1474696526922179e-05 2.2243567722894636e-05 0.0000000000000000e+00  6.5600719836428504e-06 -1.7846014566852480e-06 0.0000000000000000e+00  2.9834453154451910e-06 -1.8393889140526341e-06 0.0000000000000000e+00  2.0362757838673749e-07 6.7582491365566263e-06 0.0000000000000000e+00  5.4872793465916697e-06 -5.7154090787729435e-06 0.0000000000000000e+00  2.1311281136416550e-06 2.7843692420833095e-06 0.0000000000000000e+00  -1.9430083805799793e-06 5.6755207330925314e-06 0.0000000000000000e+00  6.4953387401309655e-06 -4.7693054234117775e-06 0.0000000000000000e+00  6.0418268216673488e-07 2.9771111282658569e-06 0.0000000000000000e+00  -4.0031323371912702e-08 1.7893412338820626e-06 0.0000000000000000e+00  3.0676519148657961e-06 6.7238104268785501e-08 0.0000000000000000e+00  -2.4343234912315790e-07 1.5157130911342891e-06 0.0000000000000000e+00  1.9880878665124663e-06 2.7275714112975451e-07 0.0000000000000000e+00  2.1541261274482396e-07 8.3380815872393409e-07 0.0000000000000000e+00  3.4078547952456880e-08 5.5621130169676982e-07 0.0000000000000000e+00  2.3124792757038651e-07 2.7786797405420343e-07 0.0000000000000000e+00  -1.3870726236942473e-08 4.4874384975593780e-08 0.0000000000000000e+00  -5.1024554407618835e-08 -2.0275930457946078e-07 0.0000000000000000e+00  6.0853187804234525e-09 -4.7206210350108295e-07 0.0000000000000000e+00  2.2808878649906583e-08 -6.8454819380194791e-07 0.0000000000000000e+00  -1.8977343825539932e-07 -1.0796712081185962e-06 0.0000000000000000e+00  1.1654402445802739e-06 -7.1478580643137936e-07 0.0000000000000000e+00  1.9495575892626683e-07 -1.3615707037673688e-06 0.0000000000000000e+00  -3.6800528403432004e-07 -2.3509011694825722e-06 0.0000000000000000e+00  4.2697492858586889e-06 1.6487875317622551e-06 0.0000000000000000e+00  -1.7837089247560730e-06 -4.3698758840872525e-06 0.0000000000000000e+00  6.0806737880201232e-06 4.0878315113035187e-06 0.0000000000000000e+00  -9.7392258479212645e-07 -3.7623942722799378e-06 0.0000000000000000e+00  1.1380446445011497e-06 -7.4279899491833747e-06 0.0000000000000000e+00  5.7395618157532920e-06 1.7666695817995317e-05 0.0000000000000000e+00  -8.6866609902856152e-07 -7.9953963060917088e-06 0.0000000000000000e+00  4.2641235104586035e-06 -4.0240571327888876e-06 0.0000000000000000e+00  3.2848090012396932e-06 1.6149550490445583e-05 0.0000000000000000e+00  2.3008639120138113e-07 -1.4805126929553971e-05 0.0000000000000000e+00  5.1377383595535630e-06 1.5541288148420383e-05 0.0000000000000000e+00  -6.3395363243625175e-06 -1.8522980193466825e-05 0.0000000000000000e+00  6.9111253178725109e-06 -1.8541476055986975e-07 0.0000000000000000e+00  6.3891752650071101e-06 4.2416361637600513e-06 0.0000000000000000e+00  -6.5444715999878011e-06 -1.5683817431362689e-05 0.0000000000000000e+00  7.1143760848575235e-07 9.9935321099753419e-06 0.0000000000000000e+00  1.0112606784687357e-05 -3.2998798731246546e-06 0.0000000000000000e+00  -4.5053106884327708e-06 3.3354631866954820e-06 0.0000000000000000e+00  1.7924695111055361e-05 -1.0017927771523285e-06 0.0000000000000000e+00  2.5310225167344321e-06 -1.0659695928896624e-05 0.0000000000000000e+00  -2.3442298085275415e-06 1.1942530753271919e-05 0.0000000000000000e+00  8.2912054945301166e-06 -1.5952109591648587e-05 0.0000000000000000e+00  2.6258726538707104e-06 -1.0407270098606721e-05 0.0000000000000000e+00  8.7543836116526359e-06 6.9492010439380898e-06 0.0000000000000000e+00  2.1452939030346865e-06 -4.2863515926717877e-06 0.0000000000000000e+00  1.6460349165138117e-06 3.3802269494875027e-06 0.0000000000000000e+00  3.4183756677223036e-07 1.9130822071230153e-06 0.0000000000000000e+00  1.8587023527204413e-06 2.0854758289815725e-07 0.0000000000000000e+00  5.1413601248940066e-07 7.7031118808252154e-07 0.0000000000000000e+00  -4.5870858732230273e-07 1.1578105499349880e-06 0.0000000000000000e+00  2.9211202968832030e-07 -6.9854870435106999e-08 0.0000000000000000e+00  4.3414665219776016e-07 5.8444971701916846e-07 0.0000000000000000e+00  -6.6684198193390808e-07 -9.5561582693373633e-07 0.0000000000000000e+00  -6.1447372910781586e-07 -2.2601922808463205e-07 0.0000000000000000e+00  1.3394288043505049e-06 3.7475956983568940e-07 0.0000000000000000e+00  -1.4137099340761145e-07 -2.1037786711657572e-08 0.0000000000000000e+00  3.5935888789376735e-07 -4.5073579566595630e-08 0.0000000000000000e+00  -1.9187426650234922e-07 2.5633269056757950e-07 0.0000000000000000e+00  3.4849737424159527e-07 -2.1908841888042152e-07 0.0000000000000000e+00  -7.4207751558080226e-08 1.0113026985858204e-08 0.0000000000000000e+00  2.6943581524288672e-07 -2.7020753279371321e-07 0.0000000000000000e+00  5.1462928739830280e-07 -1.5222437917496879e-07 0.0000000000000000e+00  2.1304703524603349e-07 -1.2189563480921866e-06 0.0000000000000000e+00  5.0419259010237017e-07 -2.0425946290523081e-06 0.0000000000000000e+00  2.8588579747914334e-06 8.2872238383817996e-07 0.0000000000000000e+00  9.3394741221119232e-07 -1.6465696756670609e-06 0.0000000000000000e+00  1.3970073632451047e-06 -1.1789978727862509e-06 0.0000000000000000e+00  2.0191713670792908e-06 6.2297590770039444e-06 0.0000000000000000e+00  -3.0136363681466214e-06 -1.2161360878812218e-05 0.0000000000000000e+00  4.7608161802994194e-06 5.5474918379014461e-06 0.0000000000000000e+00  8.9467376976443008e-06 3.3985848602381146e-07 0.0000000000000000e+00  -1.7856052831022975e-06 -5.4706607588404288e-06 0.0000000000000000e+00  6.7511884019481022e-06 4.9365160386854225e-06 0.0000000000000000e+00  -4.1448832199902581e-07 -1.2767043766922762e-05 0.0000000000000000e+00  -3.5840459290105972e-06 1.4778049927157692e-05 0.0000000000000000e+00  5.9814974236658728e-06 -2.6374816772457913e-06 0.0000000000000000e+00  4.0826856269500034e-06 -7.0905202708315508e-07 0.0000000000000000e+00  -3.6474989850697479e-06 1.6697531221718306e-05 0.0000000000000000e+00  3.8911240137796918e-06 -6.1594550343652120e-06 0.0000000000000000e+00  1.5936358050761849e-06 3.9403745519106334e-06 0.0000000000000000e+00  2.7025224519395236e-06 1.3511882834054931e-06 0.0000000000000000e+00  3.5404702991460240e-06 -8.1364393326216075e-06 0.0000000000000000e+00  -2.4972594388411315e-06 1.0967074074890616e-05 0.0000000000000000e+00  3.6700914814004417e-06 -1.5218211232103251e-06 0.0000000000000000e+00  3.7696772033953836e-06 -9.8800647875415822e-07 0.0000000000000000e+00  -6.1687635159686576e-06 9.4088083213309040e-06 0.0000000000000000e+00  5.3967290274424458e-06 -3.4309510737722392e-06 0.0000000000000000e+00  -2.3540202570408117e-06 4.7501254969236562e-06 0.0000000000000000e+00  4.7963556856483474e-06 -3.4999261993487125e-06 0.0000000000000000e+00  2.3659864487877418e-07 2.2875209239717686e-06 0.0000000000000000e+00  -1.7044603752652518e-06 1.9840358905456954e-06 0.0000000000000000e+00  2.8808999724117128e-06 -5.0320152150667914e-07 0.0000000000000000e+00  -7.0854740155966651e-07 1.2465727533013669e-06 0.0000000000000000e+00  -1.5094104141155932e-08 5.0308741659031980e-07 0.0000000000000000e+00  2.5032575501992883e-07 3.6038911073412993e-07 0.0000000000000000e+00  -1.0690264126206912e-07 1.4780842647200509e-07 0.0000000000000000e+00  2.9769268486712926e-08 -8.1173941486685842e-08 0.0000000000000000e+00  6.1943492164972199e-08 -2.8151489825322380e-07 0.0000000000000000e+00  5.6627353679353680e-07 -4.1865889113861103e-07 0.0000000000000000e+00  4.5125870324435973e-07 -6.3941485621530505e-07 0.0000000000000000e+00  1.3600263476779926e-06 -5.5366674421615884e-07 0.0000000000000000e+00  1.0091091170796082e-07 -1.3165717997718303e-06 0.0000000000000000e+00  3.1128248819686542e-06 1.2003173235660355e-07 0.0000000000000000e+00  1.6320622686583264e-07 -1.7131980737207256e-06 0.0000000000000000e+00  2.1010464003076533e-07 -3.4937153048716873e-06 0.0000000000000000e+00  7.0906742454413162e-06 5.8840670478931756e-06 0.0000000000000000e+00  -2.6655319105499858e-06 -6.5201509900847678e-06 0.0000000000000000e+00  2.8383656938936682e-06 -2.6898728737427226e-06 0.0000000000000000e+00  5.5732373943396053e-06 6.7750084218966626e-06 0.0000000000000000e+00  9.6645609534102146e-07 -5.8148001414995853e-06 0.0000000000000000e+00  3.6234653647523010e-06 1.2512869335577639e-06 0.0000000000000000e+00  5.5920202093115683e-06 3.6601152921100710e-06 0.0000000000000000e+00  -2.9236786069333924e-06 -1.4755679195167556e-05 0.0000000000000000e+00  5.4894893536555979e-06 9.4455172973409850e-06 0.0000000000000000e+00  5.1536225155697403e-06 -6.4725147692235396e-07 0.0000000000000000e+00  1.4608356472000733e-06 -1.0790859847797681e-05 0.0000000000000000e+00  3.0564342008787014e-06 1.5464915920689664e-05 0.0000000000000000e+00  4.1452535489374643e-06 -1.2030440106336286e-05 0.0000000000000000e+00  2.1806746822154572e-06 1.5974111743458365e-05 0.0000000000000000e+00  2.8368878011127960e-06 -9.3484649906352508e-06 0.0000000000000000e+00  5.9182243486395820e-06 7.5724768275891843e-07 0.0000000000000000e+00  -2.1899338178997114e-06 8.4958821442870754e-06 0.0000000000000000e+00  -1.1590923267621944e-08 -9.6462856006930692e-06 0.0000000000000000e+00  7.4144427722694194e-06 3.2466586350820628e-06 0.0000000000000000e+00  -1.8714338923011606e-06 7.7743270094959779e-06 0.0000000000000000e+00  5.0676652063914402e-06 -5.9970010268576095e-06 0.0000000000000000e+00  2.0646239227952959e-07 6.3687943140218401e-06 0.0000000000000000e+00  3.8431721375428134e-06 -2.9837130914224844e-06 0.0000000000000000e+00  7.3113955240750446e-07 2.3243441754923508e-06 0.0000000000000000e+00  2.0505546199084790e-06 2.9165076065000643e-06 0.0000000000000000e+00  1.9182021836347238e-06 -4.1910653094304637e-06 0.0000000000000000e+00  7.4455820987834940e-07 3.1380372374722219e-06 0.0000000000000000e+00  -6.1717909619320290e-07 1.2290142868706575e-06 0.0000000000000000e+00  1.4883923249822998e-06 5.9957204388893108e-07 0.0000000000000000e+00  2.9888909691551518e-08 9.1591927298441959e-07 0.0000000000000000e+00  7.0660261825224766e-08 6.1804914873075506e-07 0.0000000000000000e+00  5.9247472221034087e-07 4.1009315901463277e-07 0.0000000000000000e+00  2.3037937831077349e-08 1.4426124640279378e-07 0.0000000000000000e+00  1.4042517505566155e+02 -5.0451705451116879e+02 0.0000000000000000e+00  4.9057645260635645e+03 -9.0493841207535604e+02 0.0000000000000000e+00  3.4244671095731746e+03 -7.5270115715392933e+02 0.0000000000000000e+00  2.7010161544803829e+01 1.4931892668430268e+02 0.0000000000000000e+00  4.2908523872517899e+03 7.4764222502234043e+02 0.0000000000000000e+00  1.1157895208883394e+03 -1.5452554339562105e+03 0.0000000000000000e+00  3.9736326516835834e+03 7.3140756769841107e+02 0.0000000000000000e+00  1.8353912932612275e+01 5.3029044886360737e+02 0.0000000000000000e+00  1.0381754467689666e+03 1.6328318902911483e+03 0.0000000000000000e+00  1.7890208713172233e+03 -1.4194997298385288e+03 0.0000000000000000e+00  -1.8157815016698706e+01 3.0421073405135292e+02 0.0000000000000000e+00  1.1329541032831255e+03 -1.3280574424630797e+03 0.0000000000000000e+00  2.7211491638684129e+03 1.6471111676756782e+03 0.0000000000000000e+00  2.0729436238650496e+03 -2.8268486924832760e+03 0.0000000000000000e+00  1.6174803736474614e+03 -1.2358736586769191e+03 0.0000000000000000e+00  1.5231896202301507e+03 2.4275568367965102e+03 0.0000000000000000e+00  1.5123033808757139e+03 -6.9781433821063820e+02 0.0000000000000000e+00  -1.3716184079884536e+01 6.3562195152868526e+02 0.0000000000000000e+00  2.7350135144230494e+03 1.5232526657401925e+03 0.0000000000000000e+00  3.0116241639553523e+03 -1.5378241001765623e+03 0.0000000000000000e+00  1.4288445421542840e+03 1.8900819714463404e+02 0.0000000000000000e+00  3.4664188546137789e+03 1.9043188575948013e+03 0.0000000000000000e+00  3.2157362034569151e+03 -1.5899208054662543e+03 0.0000000000000000e+00  3.5228331646332385e+03 1.1158096391016791e+03 0.0000000000000000e+00  -5.8630681670449846e+01 8.0020363859240445e+02 0.0000000000000000e+00  1.6606694729240376e+03 1.6060517526189169e+03 0.0000000000000000e+00  9.8225194435208300e+02 1.5879938668824403e+02 0.0000000000000000e+00  -1.1721549374150046e+01 2.4696472827860933e+02 0.0000000000000000e+00  -3.0946499832341017e+00 -5.4206548503821644e+01 0.0000000000000000e+00  4.6581234883957677e+03 8.9274542202686291e+02 0.0000000000000000e+00  1.8759131695094845e+03 2.4423398596085563e+03 0.0000000000000000e+00  3.5948086158705150e+03 2.0715656348902785e+03 0.0000000000000000e+00  1.3441813707411814e+03 2.0958489437133021e+03 0.0000000000000000e+00  4.9147065056096426e+03 -8.3619193612716430e+01 0.0000000000000000e+00  1.3643922115181485e+03 2.1817526595796967e+03 0.0000000000000000e+00  -1.2490936916088490e+01 4.3550422237943042e+02 0.0000000000000000e+00  1.2509717665627202e+03 2.0548334867394356e+03 0.0000000000000000e+00  1.0467865443169294e+03 1.7408028423334149e+03 0.0000000000000000e+00  1.5088952717883990e+01 5.6442939187074660e+02 0.0000000000000000e+00  7.1935892267169754e+02 -1.3308179097546258e+03 0.0000000000000000e+00  3.7575163393257617e+02 -8.8042137945812976e+02 0.0000000000000000e+00  5.0907972520508457e+02 -7.6712037227048484e+02 0.0000000000000000e+00  8.7157136533508801e+00 -7.0536099907084420e+01 0.0000000000000000e+00  8.7795487963055209e+01 5.9640347083560744e+02 0.0000000000000000e+00  1.1399461516788554e+03 1.0655318228086987e+03 0.0000000000000000e+00  3.9757057432590682e+02 6.9111329161017943e+02 0.0000000000000000e+00  2.2060146940470440e+03 1.0540954519058478e+03 0.0000000000000000e+00  1.1464780734197066e+03 1.5266505563693333e+03 0.0000000000000000e+00  1.4567982362666642e+03 -7.9516076508746187e+02 0.0000000000000000e+00  3.2062125966589624e+03 -4.0042010033614432e+01 0.0000000000000000e+00  1.3850560761154043e+03 -6.2085146153903327e+02 0.0000000000000000e+00  2.0153081466685899e+03 1.3503951770387209e+02 0.0000000000000000e+00  3.9963583355904243e+03 -2.1808860356012037e+03 0.0000000000000000e+00  3.0833918756049238e+03 -1.3166965353126196e+02 0.0000000000000000e+00  2.1537775809032864e+03 -2.7170156539538830e+03 0.0000000000000000e+00  3.4493576650623008e+03 1.4787432724952623e+03 0.0000000000000000e+00  2.0517133161103548e+03 2.1550087614387821e+03 0.0000000000000000e+00  8.9557004544604661e+02 9.6643261554993535e+02 0.0000000000000000e+00  1.8900397484413788e+03 9.6828343568589150e+02 0.0000000000000000e+00  1.9850500859704869e+03 -7.5070825436064354e+02 0.0000000000000000e+00  1.0342985282711893e+03 -9.5067503550409197e+02 0.0000000000000000e+00  2.4457827544453398e+03 3.3080405586489013e+02 0.0000000000000000e+00  2.3595062835595263e+03 -3.3844501556472540e+02 0.0000000000000000e+00  2.7860438578096800e+03 1.9057102516271496e+02 0.0000000000000000e+00  2.7560017452827701e+03 -5.7064979237842306e+02 0.0000000000000000e+00  3.2674015689634616e+03 -6.9251033278082912e+02 0.0000000000000000e+00  2.7063980551486134e+03 -1.5249409459193294e+03 0.0000000000000000e+00  2.4846332927294770e+03 1.4255735080424206e+03 0.0000000000000000e+00  3.0549106463808926e+03 6.9986417278110014e+02 0.0000000000000000e+00  6.3562703968617864e+00 -3.5992195367515717e+02 0.0000000000000000e+00  3.0376852458631720e+02 7.5354645229805476e+02 0.0000000000000000e+00  3.7331878249337819e+02 -9.0014166067407018e+02 0.0000000000000000e+00  -3.4087068512410625e+00 1.9386585446586341e+02 0.0000000000000000e+00  3.9416964938570322e+03 -2.3924075111863981e+03 0.0000000000000000e+00  2.6831702564305783e+02 -6.8903751775439002e+02 0.0000000000000000e+00  2.4965764497099749e+03 -1.6502399289922225e+03 0.0000000000000000e+00  3.6626585152722023e+03 -2.3047038317473106e+01 0.0000000000000000e+00  2.8566676184245007e+03 -1.3340204932839138e+03 0.0000000000000000e+00  2.3068303544010152e+02 -8.1685757263814025e+02 0.0000000000000000e+00  1.6011819471516162e+03 -1.7380422896788186e+03 0.0000000000000000e+00  1.2886798907483533e+03 4.4398602141800484e+02 0.0000000000000000e+00  1.6761445329123032e+02 7.1164350305069661e+01 0.0000000000000000e+00  1.3621471300442332e+02 7.3011673289904843e+02 0.0000000000000000e+00  1.9505829378532433e+03 -5.1214652769397833e+02 0.0000000000000000e+00  2.5708960256132632e+03 3.8011838807653817e+02 0.0000000000000000e+00  2.6611134039201274e+03 -1.3705160287940746e+03 0.0000000000000000e+00  1.3136720458194823e+03 -1.7924123936988685e+03 0.0000000000000000e+00  4.1093521376852750e+03 -7.3967509409484728e+02 0.0000000000000000e+00  1.1239749286770345e+03 -1.7430758014238595e+03 0.0000000000000000e+00  2.7677924054507771e+03 1.7811871318360068e+03 0.0000000000000000e+00  3.3566361080624351e+03 2.1248115375889579e+03 0.0000000000000000e+00  7.5142076374053914e+01 -1.4053777633721513e+03 0.0000000000000000e+00  3.8627568481891132e+02 -1.8059329129947805e+03 0.0000000000000000e+00  2.7541520922651416e+03 -8.3127347235226262e+02 0.0000000000000000e+00  1.0041838500990668e+03 -1.0623596551911771e+03 0.0000000000000000e+00  1.4309300598528457e+03 -1.6779626218933113e+03 0.0000000000000000e+00  2.3446334617367143e+02 1.1021302137154196e+03 0.0000000000000000e+00  -1.3495379957613272e+02 -4.0681389896048950e+02 0.0000000000000000e+00  1.6984967231821995e+03 -1.7750036763388543e+03 0.0000000000000000e+00  5.4790953721753897e+02 -1.3367855284208522e+03 0.0000000000000000e+00  4.2413261639130047e+02 1.1919828860818600e+03 0.0000000000000000e+00  1.4890318824321744e+03 1.6927789195755581e+03 0.0000000000000000e+00  -8.7972523614585995e+01 -2.3180195423290010e+02 0.0000000000000000e+00  8.3423084026442950e+02 1.9821038950639522e+03 0.0000000000000000e+00  1.6952487290092949e+02 1.2796192296874021e+03 0.0000000000000000e+00  1.1591398370304996e+03 1.2389549188947726e+03 0.0000000000000000e+00  2.1206800480878619e+03 9.7089749400410631e+02 0.0000000000000000e+00  3.6298210776186302e+03 4.0978574774133074e+02 0.0000000000000000e+00  2.2247433518126186e+03 -1.1665621854378148e+03 0.0000000000000000e+00  1.2687184848392615e+03 -1.3820298642603707e+03 0.0000000000000000e+00  3.9459869186679475e+03 -4.5026567056217181e+02 0.0000000000000000e+00  4.7145175654517601e+02 1.3440099119346926e+03 0.0000000000000000e+00  3.3418751472100876e+03 1.4520694991370481e+03 0.0000000000000000e+00  -2.3146539954476220e+00 -