<?xml version="1.0"?>
<VTKFile type="UnstructuredGrid"  version="0.1"  >
<UnstructuredGrid>
<Piece  NumberOfPoints="2549" NumberOfCells="4928">
<Points>
<DataArray  type="Float64"  NumberOfComponents="3"  format="ascii">1.638558671091573 -0.03762025468613885 0  1.635482954602385 0.009943489387005322 0  1.628752580004579 0.0570059785068876 0  1.620437238900468 0.1041924821674177 0  1.609113988451674 0.1510458579301534 0  1.595538826524625 0.1977588819682625 0  1.578597031643918 0.243785743159977 0  1.560169973937267 0.2896514412643865 0  1.536078466901081 0.3329130902928052 0  1.510745542433737 0.3745882660514934 0  1.487422995649022 0.4208706043703923 0  1.458759548917424 0.4628110213743892 0  1.429585269382552 0.5051659714862479 0  1.398410179648637 0.5462118521032895 0  1.365674423365059 0.5865367344866438 0  1.331432180669609 0.625847006564366 0  1.295311869702383 0.6634667055311567 0  1.25911263236719 0.6997613435466358 0  1.22284238339307 0.7406661292357078 0  1.184418342112113 0.7781513064324532 0  1.145429226713576 0.8164926994483067 0  1.105138855426664 0.8538347287129113 0  1.064017873330388 0.8912047699628859 0  1.021353323837085 0.9275493093354813 0  0.9771906052283517 0.9625835599986521 0  0.932402780979619 0.9961071514440977 0  0.8863122476881279 1.029188008422621 0  0.8391649324954433 1.061381691124242 0  0.7910190280481243 1.092805268924919 0  0.7417249798827568 1.122978042513433 0  0.6913721586897882 1.151922952324888 0  0.6399702540731061 1.179445360528532 0  0.5873280975112996 1.20491708788623 0  0.5338313483734579 1.228515160942734 0  0.4794063322019539 1.250618730328872 0  0.424004247246403 1.270374337971986 0  0.367813173435557 1.288028388354665 0  0.3108543511777438 1.303263857648649 0  0.2532425210438617 1.316055514159985 0  0.195099732649499 1.326319434178859 0  0.1364536619117353 1.333666001465608 0  0.07760314990745615 1.338318215830686 0  0.01855710488229884 1.340483582750664 0  -0.0405194440841002 1.339775252741526 0  -0.09951074930780318 1.336300155052337 0  -0.1582592919920128 1.329969288639235 0  -0.2166412112937597 1.320905651657684 0  -0.2744943956406189 1.308932591111857 0  -0.3317127941841851 1.294587163537817 0  -0.3882999531844714 1.277575153686785 0  -0.4438696483084123 1.257696155149682 0  -0.4984892773478507 1.235463022677145 0  -0.5521169354232238 1.211187179026663 0  -0.6045249621359688 1.184680355008052 0  -0.6560244482174831 1.156865538968177 0  -0.70605387174644 1.126696107060204 0  -0.7549711591049185 1.09625015404879 0  -0.8030830508024733 1.064204269577718 0  -0.8494435928795991 1.030098801236929 0  -0.8945164561461096 0.9949957024166159 0  -0.9385523020888558 0.9594751321512699 0  -0.9810989633308145 0.922769860453228 0  -1.023141372002507 0.8867930307797406 0  -1.062355201293524 0.8468896292114338 0  -1.101588897031793 0.8112797635680323 0  -1.140315432168997 0.7755310616852186 0  -1.17770435930535 0.7385964978198912 0  -1.214415234633925 0.7021957135660575 0  -1.249864707967736 0.6649385363227378 0  -1.284949567559123 0.6294316338132774 0  -1.319796584043294 0.5927326523445908 0  -1.354396098588828 0.5593182701864587 0  -1.389416957262571 0.5223753292376273 0  -1.413230428408888 0.4756301862280697 0  -1.446183317270562 0.4342137272757975 0  -1.471827938079588 0.3893988029638814 0  -1.495072115670423 0.343121427675561 0  -1.511673036300924 0.2940192014333535 0  -1.530164031066074 0.2469217730710154 0  -1.530729801708379 0.1925468829331194 0  -1.545528692746999 0.1483297351801002 0  -1.557353854660545 0.1016510998303605 0  -1.550054526250648 0.05373764350555351 0  -1.554623634673773 0.007532971867692211 0  -1.553741942165811 -0.03840225853193785 0  -1.555792418158395 -0.08432286915211984 0  -1.553038467412756 -0.1307555489532143 0  -1.55829919154902 -0.1791337738904366 0  -1.54866108219743 -0.2262447506013749 0  -1.535696235439647 -0.271186321510586 0  -1.535190412593312 -0.3264545672303464 0  -1.517779274265806 -0.3742561806880921 0  -1.501538750980516 -0.424060879254621 0  -1.478401335807599 -0.4705773664895839 0  -1.452757384994093 -0.5156184153021087 0  -1.4207364048468 -0.5573011529601823 0  -1.396277381386635 -0.6039326028071598 0  -1.360821789913931 -0.6408972847000581 0  -1.326337251764082 -0.6747965338833639 0  -1.291277718735304 -0.711408580642091 0  -1.256145620231506 -0.7469961097927058 0  -1.220834945495334 -0.7845881024394433 0  -1.184330234593232 -0.8214733205979662 0  -1.147176891744097 -0.8590246553442358 0  -1.10875532909493 -0.8955027876046564 0  -1.069629601971072 -0.9319814644106578 0  -1.031253266039731 -0.974206478944873 0  -0.9891613448167864 -1.011390678545365 0  -0.9467040550149179 -1.049555304969121 0  -0.9027427313749464 -1.086684036072102 0  -0.8576864620625064 -1.123404361418655 0  -0.8112009691667896 -1.159087112295385 0  -0.7632688770130696 -1.19324943360837 0  -0.7139558354496428 -1.226221614525702 0  -0.6642134332318141 -1.260329540227069 0  -0.6119446767617422 -1.290209108800937 0  -0.5590729020306723 -1.318959583131953 0  -0.5047873839423088 -1.34521573055533 0  -0.4494699249607605 -1.369279022692237 0  -0.3932178972349001 -1.390976615929385 0  -0.3356282398240595 -1.409098525694286 0  -0.277491921268451 -1.424297458017582 0  -0.2186840489345795 -1.437263634711981 0  -0.1592551855956595 -1.446997346683863 0  -0.09941522865782493 -1.453825495134933 0  -0.03928183118585642 -1.457496011932002 0  0.02097012789418523 -1.458061508331992 0  0.08118261410702239 -1.455422676726588 0  0.1411865684439857 -1.449592150323144 0  0.2007591222882275 -1.440784506630031 0  0.2598322389098806 -1.429293573355244 0  0.3182685036790243 -1.415078166551932 0  0.3759902223721094 -1.398358516502126 0  0.4328345682270555 -1.379092106472382 0  0.488846618145211 -1.357843672549569 0  0.5437443140246728 -1.334003387492988 0  0.5976440615334506 -1.309191535417323 0  0.6508140270842701 -1.282372017450313 0  0.7024282212114084 -1.253010456483231 0  0.7530067522044226 -1.222406569954099 0  0.802422001243363 -1.190592563996988 0  0.8506462038692457 -1.157613913771411 0  0.897797845820257 -1.123907362784109 0  0.9438407578549227 -1.089421201884027 0  0.9885471530545766 -1.054612094855619 0  1.03260508546066 -1.018296452266304 0  1.075106494802548 -0.9806787331166607 0  1.116049941941117 -0.9421562975297019 0  1.156100475645073 -0.9036563122190504 0  1.194809340945444 -0.8641910118110163 0  1.232980597678983 -0.8257164791981262 0  1.268807182351495 -0.7836180828848047 0  1.304664171334758 -0.7465492379745777 0  1.340604149842914 -0.7083730396943581 0  1.374471196495601 -0.6682800523606101 0  1.406899313526581 -0.6273402440536999 0  1.437753236933595 -0.5856821778388724 0  1.466582716329567 -0.5427146515470807 0  1.494816264795153 -0.5001655918849608 0  1.51777905846052 -0.4533031600268008 0  1.542742918748059 -0.4111976512489 0  1.566351440403722 -0.3674264868122772 0  1.58421680328731 -0.3210274465371198 0  1.600471599169737 -0.2745149823244446 0  1.613319625955057 -0.2273461616274039 0  1.623681794082863 -0.1800504265028761 0  1.631060726193848 -0.132559115776953 0  1.636574286750736 -0.08524024303141527 0  -0.08083231081787744 0.8001141801060333 0  0.6187957830435282 -0.7191090929887411 0  -0.7274729151823988 -0.6294615958852523 0  -0.05694990612244537 -0.8903791041088026 0  0.6145076273848611 0.6234570260381185 0  1.166886349976378 0.2040200293867973 0  -0.7400512155159541 0.5297142141756952 0  -1.210309751209083 -0.04315914931738455 0  1.171109499031765 -0.2864130061729683 0  -1.015883508934439 -0.4548762398367826 0  -0.7767199467730403 -0.0579950917270915 0  -0.45593762547975 -0.2323027310515823 0  -1.026443517292302 0.3496154213645065 0  0.2990525072034122 -0.8675272036002865 0  0.154192400839057 -0.2931289596102405 0  0.2625311699294622 0.7617452244153553 0  0.3546883825765151 0.2036056183065607 0  0.6695050228338758 -0.04233026116285118 0  -0.3920061231952774 -0.7827293876376584 0  -0.4287809866390446 0.7052075320243727 0  -0.2560331013467227 0.259634300399548 0  0.9245704320360554 -0.4924925347388664 0  0.9203866612808737 0.4062303428881254 0  0.4224611030787661 -0.3240641375996515 0  0.04754844692224988 0.2550578396842144 0  -0.5192876343595836 0.1986039998910966 0  -0.1537440730661065 -0.2854855471851238 0  0.9530115323689589 -0.04193424841812286 0  1.360337105989881 -0.03957572275874768 0  0.7720141671222405 -0.6029128567182734 0  0.7882967366834071 -0.2768721110834577 0  0.6347404630394698 -0.3776003128678795 0  0.5446382458514059 -0.1793057617217721 0  0.5147535009625711 -0.5267965182855509 0  0.9316788881848801 -0.265626514666489 0  0.810582334596846 -0.04210975213115575 0  -0.8931591564972637 0.1551046352697152 0  -1.113921228690087 0.1491937465648633 0  -0.9955933706415262 -0.04967124112159333 0  -0.8877708751079196 -0.2651050711955769 0  -1.109164577172244 -0.2441093683872562 0  -1.283980871474254 -0.3365062344260987 0  -1.371674389189234 -0.1527315438176842 0  -1.369649524447673 0.07043642653498466 0  -1.27955824284215 0.2529151982234639 0  -0.1059372012857396 -0.5875653783313254 0  -0.2661685122651846 -0.5400433152055921 0  -0.2258048565538787 -0.8419266203938101 0  -0.3043009153794423 -0.2599846013788842 0  -0.4202467663359942 -0.5051358250599682 0  -1.202682838569117 -0.5337131057401863 0  -1.204175550489142 0.4418886185562821 0  0.359589726239579 -0.5933306719389932 0  0.287535792059143 -0.3102108347398778 0  0.2210877567446732 -0.5833276728563532 0  -0.8826779794365841 0.4354758072377256 0  -0.7489030290316178 0.2337350349291061 0  1.354632103372348 -0.3594034180104844 0  1.226131781047001 -0.5243633000730915 0  1.219365072244887 0.4417777584034422 0  1.349163601039292 0.2793007480323167 0  -0.7329742385041663 -0.9128490732005108 0  -0.9075942457353748 -0.7777644547906829 0  -0.9105797069228603 0.6855313996346313 0  -0.7364933404791572 0.8139712430142363 0  0.7904205883819907 -0.9015765891824691 0  0.6010413429731278 -1.014478290892211 0  0.5942395243199364 0.9150553336779773 0  0.7830421808198023 0.8077947436813726 0  0.0314753282239755
[...]
<PointData  Vectors="f_13727"> 
<DataArray  type="Float64"  Name="f_13727"  NumberOfComponents="3" format="ascii">1.0006827850699964e+00 1.0851800412676834e-02 0.0000000000000000e+00  9.9441837831906355e-01 1.1239611089464067e-01 0.0000000000000000e+00  9.8769642661210411e-01 1.5747423367621172e-01 0.0000000000000000e+00  9.7934976328829015e-01 2.0319156796500903e-01 0.0000000000000000e+00  9.6706012739011793e-01 2.5563543432848979e-01 0.0000000000000000e+00  9.4891772863853041e-01 3.1631835324238328e-01 0.0000000000000000e+00  9.3562250102094935e-01 3.5352336475158053e-01 0.0000000000000000e+00  9.0634764551450597e-01 4.2400985357351950e-01 0.0000000000000000e+00  8.4920714148143972e-01 5.3125739065282296e-01 0.0000000000000000e+00  8.8338097960092943e-01 4.6854942800304800e-01 0.0000000000000000e+00  8.6663466418236235e-01 4.9953992137796660e-01 0.0000000000000000e+00  8.1648657463733676e-01 5.7856965107291636e-01 0.0000000000000000e+00  8.1504814138048132e-01 5.7940034895636883e-01 0.0000000000000000e+00  7.8407833576909824e-01 6.2110305840172242e-01 0.0000000000000000e+00  7.6714426175323025e-01 6.4166377624556725e-01 0.0000000000000000e+00  7.3904153248381488e-01 6.7401233636543423e-01 0.0000000000000000e+00  7.0378309982606402e-01 7.1132144827771426e-01 0.0000000000000000e+00  7.3538620933597143e-01 6.7763931021913726e-01 0.0000000000000000e+00  7.2835145931947520e-01 6.8530342135573774e-01 0.0000000000000000e+00  6.9425992002683035e-01 7.2003052489872921e-01 0.0000000000000000e+00  6.9346417585027886e-01 7.2049137816796105e-01 0.0000000000000000e+00  6.7500392149342348e-01 7.3789001717135427e-01 0.0000000000000000e+00  6.6344976637505815e-01 7.4828124394886497e-01 0.0000000000000000e+00  6.3431235866378011e-01 7.7321918374763254e-01 0.0000000000000000e+00  6.0927503719389886e-01 7.9305672370695846e-01 0.0000000000000000e+00  5.9102418885382657e-01 8.0671599233037561e-01 0.0000000000000000e+00  5.7358386578749332e-01 8.1918981007958080e-01 0.0000000000000000e+00  5.5567440190342055e-01 8.3144018902995676e-01 0.0000000000000000e+00  5.3508236078265858e-01 8.4485563563892152e-01 0.0000000000000000e+00  5.0987841836021863e-01 8.6030210101265792e-01 0.0000000000000000e+00  4.8668637935284065e-01 8.7364913393549293e-01 0.0000000000000000e+00  4.5454837399175946e-01 8.9083895572859462e-01 0.0000000000000000e+00  4.1795828884807490e-01 9.0854836373284187e-01 0.0000000000000000e+00  3.9115270878303510e-01 9.2040026702886668e-01 0.0000000000000000e+00  3.5698423171444255e-01 9.3422216889197052e-01 0.0000000000000000e+00  3.1748464990520886e-01 9.4838403685368766e-01 0.0000000000000000e+00  2.7990683316061338e-01 9.6010765513271823e-01 0.0000000000000000e+00  2.3733323826955008e-01 9.7162078546081465e-01 0.0000000000000000e+00  1.9626457068598063e-01 9.8124121242807993e-01 0.0000000000000000e+00  1.4944454843688029e-01 9.8271058290677693e-01 0.0000000000000000e+00  1.0016354397279435e-01 1.0286159051955661e+00 0.0000000000000000e+00  6.0200344183673482e-02 9.1023777090346936e-01 0.0000000000000000e+00  4.5594854460074725e-03 8.2810205896003630e-01 0.0000000000000000e+00  3.4847305945217705e-02 -1.3198142331488494e+00 0.0000000000000000e+00  8.2742457378088413e-02 -9.6416761663640949e-01 0.0000000000000000e+00  1.3009580968841489e-01 -9.8959977788070663e-01 0.0000000000000000e+00  1.7864343758981457e-01 -9.8572577980501674e-01 0.0000000000000000e+00  2.2366068773330583e-01 -9.7440646520677543e-01 0.0000000000000000e+00  2.6422725072232822e-01 -9.6464184060514058e-01 0.0000000000000000e+00  3.1284359338272083e-01 -9.4998494245496012e-01 0.0000000000000000e+00  3.5869793787722537e-01 -9.3358360136930418e-01 0.0000000000000000e+00  3.9393901946405474e-01 -9.1925419622727367e-01 0.0000000000000000e+00  4.3379551210492023e-01 -9.0111884730917780e-01 0.0000000000000000e+00  4.6218605623902498e-01 -8.8687273804156919e-01 0.0000000000000000e+00  4.9700947052201849e-01 -8.6784997985587065e-01 0.0000000000000000e+00  5.2500273435989886e-01 -8.5113649257516621e-01 0.0000000000000000e+00  5.3732898612374147e-01 -8.4346324875827638e-01 0.0000000000000000e+00  5.7414986101163612e-01 -8.1890896157298376e-01 0.0000000000000000e+00  6.0704877061717610e-01 -7.9473445343932525e-01 0.0000000000000000e+00  6.1867761373783969e-01 -7.8570800407743202e-01 0.0000000000000000e+00  6.4500579393090141e-01 -7.6419000399888670e-01 0.0000000000000000e+00  6.4465249527305524e-01 -7.6470696423886808e-01 0.0000000000000000e+00  6.8675983219672931e-01 -7.2704299529952421e-01 0.0000000000000000e+00  7.0243072582905031e-01 -7.1183808449953490e-01 0.0000000000000000e+00  6.6361724491087137e-01 -7.4862127844618942e-01 0.0000000000000000e+00  6.9435972652709010e-01 -7.1969420238243442e-01 0.0000000000000000e+00  7.0255523531859809e-01 -7.1174377383222454e-01 0.0000000000000000e+00  7.1630414286228161e-01 -6.9784713032143453e-01 0.0000000000000000e+00  7.1839905798630932e-01 -6.9575941276553677e-01 0.0000000000000000e+00  7.1871081909036127e-01 -6.9560884850665072e-01 0.0000000000000000e+00  7.1733625076456375e-01 -6.9643304391370486e-01 0.0000000000000000e+00  6.7639962012355503e-01 -7.4421902003086693e-01 0.0000000000000000e+00  8.4210420387960772e-01 -5.4248716330767521e-01 0.0000000000000000e+00  8.4880886278992851e-01 -5.2779359803670156e-01 0.0000000000000000e+00  8.0743661717216186e-01 -5.9389114910681318e-01 0.0000000000000000e+00  8.8511877510538028e-01 -4.6835161608169218e-01 0.0000000000000000e+00  9.3025922598913713e-01 -3.6603219914927160e-01 0.0000000000000000e+00  9.2909399782048496e-01 -3.7939332128304409e-01 0.0000000000000000e+00  9.8900026015886677e-01 -1.5860526751311263e-01 0.0000000000000000e+00  9.9644844764088891e-01 -9.4638369612995391e-02 0.0000000000000000e+00  9.3844452597278216e-01 -3.9515707612755424e-01 0.0000000000000000e+00  1.0046077777124038e+00 1.2784410196544076e-02 0.0000000000000000e+00  9.9897914271182020e-01 5.6807370572324559e-02 0.0000000000000000e+00  9.9834288798743809e-01 -7.1961534073136019e-02 0.0000000000000000e+00  1.0000695046558858e+00 -7.1516758210799086e-03 0.0000000000000000e+00  9.9984896568180537e-01 2.4214583498110221e-02 0.0000000000000000e+00  9.9931764917077137e-01 -4.4126452654728004e-02 0.0000000000000000e+00  1.0035710359831052e+00 -3.1616193610461913e-03 0.0000000000000000e+00  9.5500691782155334e-01 3.3448487139949667e-01 0.0000000000000000e+00  9.9752906760418436e-01 8.2036166154825035e-02 0.0000000000000000e+00  9.9053527188187218e-01 1.4777155302199305e-01 0.0000000000000000e+00  9.3682196689349218e-01 3.5846508903784524e-01 0.0000000000000000e+00  9.3245521778605389e-01 3.6074988255350005e-01 0.0000000000000000e+00  8.8505317872255895e-01 4.6846875343130379e-01 0.0000000000000000e+00  8.1519167555017180e-01 5.8255776956270178e-01 0.0000000000000000e+00  8.5150094170586343e-01 5.2361261302365980e-01 0.0000000000000000e+00  8.3309088996188807e-01 5.5566468630591426e-01 0.0000000000000000e+00  6.7952400589492801e-01 7.4040082137879415e-01 0.0000000000000000e+00  7.1960435404846823e-01 6.9417916529804757e-01 0.0000000000000000e+00  7.1548113143435665e-01 6.9904059643629934e-01 0.0000000000000000e+00  7.2138155000884951e-01 6.9266182276979715e-01 0.0000000000000000e+00  7.2206943567211956e-01 6.9187500449557715e-01 0.0000000000000000e+00  7.0965213797686089e-01 7.0466475357745995e-01 0.0000000000000000e+00  7.0451283514188112e-01 7.0973233317455264e-01 0.0000000000000000e+00  6.7082022552174092e-01 7.4242135019151423e-01 0.0000000000000000e+00  7.2350618718499027e-01 6.9054433878525856e-01 0.0000000000000000e+00  7.0854278832751372e-01 7.0593645290928986e-01 0.0000000000000000e+00  6.5527433721834616e-01 7.5577755107512246e-01 0.0000000000000000e+00  6.6240445812654858e-01 7.4914452692653344e-01 0.0000000000000000e+00  6.3652342561772268e-01 7.7132980998790379e-01 0.0000000000000000e+00  6.2236479292447178e-01 7.8277614138184193e-01 0.0000000000000000e+00  5.9601800046112330e-01 8.0310655802803477e-01 0.0000000000000000e+00  5.6139757470804175e-01 8.2760323959869808e-01 0.0000000000000000e+00  5.6710557967593311e-01 8.2375884830243762e-01 0.0000000000000000e+00  5.3466423888864600e-01 8.4533059237038766e-01 0.0000000000000000e+00  4.8157850337161556e-01 8.7655233069866179e-01 0.0000000000000000e+00  4.6078812560460436e-01 8.8764752416632631e-01 0.0000000000000000e+00  4.1492085339148260e-01 9.0999657001732337e-01 0.0000000000000000e+00  3.8257304497915001e-01 9.2409910107803284e-01 0.0000000000000000e+00  3.3113731571547594e-01 9.4383940485949147e-01 0.0000000000000000e+00  2.7323933555977148e-01 9.6220718713958875e-01 0.0000000000000000e+00  2.3545215941985168e-01 9.7143290749824407e-01 0.0000000000000000e+00  1.8961292190427256e-01 9.8371358572755152e-01 0.0000000000000000e+00  1.3706295265795002e-01 9.9312811856170136e-01 0.0000000000000000e+00  8.7527701262649846e-02 9.3225900408176943e-01 0.0000000000000000e+00  3.2717893751191669e-02 1.4243327213446804e+00 0.0000000000000000e+00  8.9119235820523581e-03 -1.0837573376608289e+00 0.0000000000000000e+00  7.1840385515971703e-02 -9.0262836926453927e-01 0.0000000000000000e+00  1.2231118035767093e-01 -1.0166076489352114e+00 0.0000000000000000e+00  1.6878942727415025e-01 -9.8270377678137477e-01 0.0000000000000000e+00  2.1399195508028537e-01 -9.7697997077053822e-01 0.0000000000000000e+00  2.5724095426937954e-01 -9.6659253829935954e-01 0.0000000000000000e+00  3.0086327893207060e-01 -9.5375770415643990e-01 0.0000000000000000e+00  3.3704334834335353e-01 -9.4160900923372948e-01 0.0000000000000000e+00  3.7799904779576116e-01 -9.2592454100209431e-01 0.0000000000000000e+00  4.1024301551704256e-01 -9.1202886878438605e-01 0.0000000000000000e+00  4.3037766040691983e-01 -9.0274798714406324e-01 0.0000000000000000e+00  4.7396544642977395e-01 -8.8070953899431514e-01 0.0000000000000000e+00  5.0842682743110423e-01 -8.6118828820547522e-01 0.0000000000000000e+00  5.2869371237202778e-01 -8.4886179996785649e-01 0.0000000000000000e+00  5.5384070898979343e-01 -8.3268003887768205e-01 0.0000000000000000e+00  5.7336168128609810e-01 -8.1933925328855384e-01 0.0000000000000000e+00  5.9076059760628874e-01 -8.0688258054198336e-01 0.0000000000000000e+00  6.0669440498067029e-01 -7.9498840300814233e-01 0.0000000000000000e+00  6.2395866235928810e-01 -7.8155378140433451e-01 0.0000000000000000e+00  6.4893844033090065e-01 -7.6097697048462287e-01 0.0000000000000000e+00  6.7684201986502968e-01 -7.3618409909048876e-01 0.0000000000000000e+00  6.8777468470356706e-01 -7.2600318257217866e-01 0.0000000000000000e+00  7.0682429167022398e-01 -7.0738287718641668e-01 0.0000000000000000e+00  7.0604754170716988e-01 -7.0848733048203383e-01 0.0000000000000000e+00  7.4093234772633321e-01 -6.7168690806700304e-01 0.0000000000000000e+00  7.4849114342510070e-01 -6.6315123523464048e-01 0.0000000000000000e+00  7.1150562767781267e-01 -7.0371596761396726e-01 0.0000000000000000e+00  7.4739844230702213e-01 -6.6474756388609357e-01 0.0000000000000000e+00  7.7629673732324933e-01 -6.3054283066395700e-01 0.0000000000000000e+00  7.9113879016123334e-01 -6.1209579739999875e-01 0.0000000000000000e+00  8.2197464830007172e-01 -5.6953984938586832e-01 0.0000000000000000e+00  8.2404719524221748e-01 -5.6773096256096323e-01 0.0000000000000000e+00  8.7292596228195019e-01 -4.8844526485312545e-01 0.0000000000000000e+00  8.8822124213468290e-01 -4.5927538275945062e-01 0.0000000000000000e+00  8.5567565296355474e-01 -5.2081759596862687e-01 0.0000000000000000e+00  9.1222276730263463e-01 -4.1127600843604523e-01 0.0000000000000000e+00  9.4104741833505812e-01 -3.3883141344972656e-01 0.0000000000000000e+00  9.5395349620279690e-01 -3.0086177256800195e-01 0.0000000000000000e+00  9.7187557041926098e-01 -2.3671934902499012e-01 0.0000000000000000e+00  9.8333805232390770e-01 -1.8297247968447278e-01 0.0000000000000000e+00  9.9110435571470534e-01 -1.3449611883922830e-01 0.0000000000000000e+00  9.9688907183603548e-01 -8.7036677927039979e-02 0.0000000000000000e+00  1.0789427249619959e-01 -1.0183877652732052e+00 0.0000000000000000e+00  6.5527197296560058e-01 -7.5575926695667461e-01 0.0000000000000000e+00  7.6524495599430298e-01 6.4411107814405466e-01 0.0000000000000000e+00  8.5818648057134378e-02 8.9327617997519171e-01 0.0000000000000000e+00  6.5272063003243730e-01 7.5797521443867533e-01 0.0000000000000000e+00  9.5830021250737529e-01 2.8671124369784867e-01 0.0000000000000000e+00  7.6540360117749806e-01 -6.4394995978960079e-01 0.0000000000000000e+00  1.0003562692574051e+00 -3.0644420167612453e-03 0.0000000000000000e+00  9.6173711511229942e-01 -2.7495823935536545e-01 0.0000000000000000e+00  8.9622879607213379e-01 4.4413814261827256e-01 0.0000000000000000e+00  1.0005206259863828e+00 1.0737122164778668e-02 0.0000000000000000e+00  9.3924903735894538e-01 3.4591626282217658e-01 0.0000000000000000e+00  9.0072471858697956e-01 -4.3497145864185710e-01 0.0000000000000000e+00  3.3350845318500577e-01 -9.4292720755463633e-01 0.0000000000000000e+00  5.8175039078411617e-01 -8.1723525758500648e-01 0.0000000000000000e+00  2.9992972665104201e-01 9.5421214229389473e-01 0.0000000000000000e+00  8.4023406142151125e-01 5.4467581686228794e-01 0.0000000000000000e+00  1.0010789438389383e+00 3.4391713231399336e-03 0.0000000000000000e+00  4.8752342792158998e-01 8.7335695324599627e-01 0.0000000000000000e+00  4.9935778844610940e-01 -8.6663513390926383e-01 0.0000000000000000e+00  7.0176792079466954e-01 -7.1454353265717552e-01 0.0000000000000000e+00  8.6846774211114774e-01 -4.9629413889796725e-01 0.0000000000000000e+00  8.6354126732201419e-01 5.0482449856986267e-01 0.0000000000000000e+00  8.4474916962410918e-01 -5.3687715057494079e-01 0.0000000000000000e+00  1.7104390415188211e-01 1.0646299168439000e+00 0.0000000000000000e+00  9.0997267738741205e-01 -4.1612963007847087e-01 0.0000000000000000e+00  6.5535755238376181e-01 7.5882284837379510e-01 0.0000000000000000e+00  1.0003023191101779e+00 4.7599881450734946e-03 0.0000000000000000e+00  1.0002223172433311e+00 8.0465739144509000e-03 0.0000000000000000e+00  7.8245526064043924e-01 -6.2323192489698787e-01 0.0000000000000000e+00  9.5264458468180635e-01 -3.0592672994852060e-01 0.0000000000000000e+00  8.8113086422867293e-01 -4.7452280593880514e-01 0.0000000000000000e+00  9.7113476311576408e-01 -2.4290783022204904e-01 0.0000000000000000e+00  7.2783792932570102e-01 -6.8660386901967019e-01 0.0000000000000000e+00  9.6414647938765163e-01 -2.6654620481106311e-01 0.0000000000000000e+00  1.0005007121507945e+00 4.1300440830173328e-03 0.0000000000000000e+00  9.6881401122796029e-01 -2.4933388382715813e-01 0.0000000000000000e+00  9.7611613431094113e-01 -2.1883975050416854e-01 0.0000000000000000e+00  1.0003019024828450e+00 1.7782489109133947e-03 0.0000000000000000e+00  9.6515362447332043e-01 2.6312386908363250e-01 0.0000000000000000e+00  9.7575026928820807e-01 2.2051252204127322e-01 0.0000000000000000e+00  9.5213483232840990e-01 3.0714788505088059e-01 0.0000000000000000e+00  9.9567262562728143e-01 9.5434706880776363e-02 0.0000000000000000e+00  9.9508102580634727e-01 -1.0141157370349738e-01 0.0000000000000000e+00  9.5000996006481508e-01 -3.1364400142465038e-01 0.0000000000000000e+00  2.3071346374157908e-01 9.6787945921984819e-01 0.0000000000000000e+00  5.1733313659410773e-01 8.5639795473392133e-01 0.0000000000000000e+00  2.9540514188219358e-01 9.5574660086383456e-01 0.0000000000000000e+00  8.6421475211926291e-01 5.0646879242775700e-01 0.0000000000000000e+00  7.0164696904132462e-01 7.1324056322704910e-01 0.0000000000000000e+00  8.5565229440965518e-01 5.1820657957510996e-01 0.0000000000000000e+00  8.5652650307978184e-01 -5.1676495046115734e-01 0.0000000000000000e+00  5.4973934396597346e-01 -8.3586209535120659e-01 0.0000000000000000e+00  7.6540621883069038e-01 -6.4626330357011263e-01 0.0000000000000000e+00  3.8155426310494178e-01 -9.2449580523692798e-01 0.0000000000000000e+00  8.4652943211289933e-01 -5.3283928733182340e-01 0.0000000000000000e+00  9.2963099451170472e-01 -3.6993330101162536e-01 0.0000000000000000e+00  9.3240714841573991e-01 -3.6209153552565571e-01 0.0000000000000000e+00  8.6367662982533577e-01 -5.0447518817873882e-01 0.0000000000000000e+00  8.5701948638474468e-01 5.1570644179388792e-01 0.0000000000000000e+00  9.2731018096087714e-01 3.7494428201645241e-01 0.0000000000000000e+00  6.3329979570391814e-01 7.7402786094667897e-01 0.0000000000000000e+00  7.3314053772772891e-01 6.8021346572062769e-01 0.0000000000000000e+00  7.2472458789100846e-01 -6.8919399155882977e-01 0.0000000000000000e+00  6.2404185159350489e-01 -7.8152262001185790e-01 0.0000000000000000e+00  6.3576982747918609e-01 -7.7202674601462096e-01 0.0000000000000000e+00  5.0886785483190466e-01 -8.6096526676306262e-01 0.0000000000000000e+00  4.9913994678785989e-01 8.6665023656088447e-01 0.0000000000000000e+00  6.2609190676816140e-01 7.7990390987793390e-01 0.0000000000000000e+00  1.2179363380534535e-02 -1.2130431484934678e+00 0.0000000000000000e+00  1.8147400251986581e-01 9.8484507420018386e-01 0.0000000000000000e+00  1.8627896181221507e-01 -9.8443851604537391e-01 0.0000000000000000e+00  7.1238474709481119e-04 5.4024647756413879e-01 0.0000000000000000e+00  5.1032963141179544e-01 -8.6022474756108858e-01 0.0000000000000000e+00  9.7444110288234354e-01 2.3006872029973058e-01 0.0000000000000000e+00  8.8032302788259609e-01 4.7601077292811494e-01 0.0000000000000000e+00  7.1798434376824516e-01 6.9700067665539034e-01 0.0000000000000000e+00  8.3633615729276101e-01 5.4917049352184377e-01 0.0000000000000000e+00  9.8981434983538119e-01 1.4700938552750487e-01 0.0000000000000000e+00  9.2620290729981114e-01 3.7835567931684172e-01 0.0000000000000000e+00  6.3811969034727756e-01 7.7215766646279560e-01 0.0000000000000000e+00  9.9473011257643318e-01 1.9445380881568755e-01 0.0000000000000000e+00  1.0038052442725758e+00 8.5447623448538165e-03 0.0000000000000000e+00  7.8565464738970170e-01 6.1886414779049725e-01 0.0000000000000000e+00  7.8286711004134402e-01 -6.2241841460241887e-01 0.0000000000000000e+00  8.4441322154549125e-01 5.3613876046758335e-01 0.0000000000000000e+00  9.5030911335025714e-01 3.1309095390268254e-01 0.0000000000000000e+00  7.7832750505439252e-01 6.2838721086410998e-01 0.0000000000000000e+00  9.6172111251911530e-01 2.7517198196056503e-01 0.0000000000000000e+00  5.1061408048083878e-01 8.6037669010473383e-01 0.0000000000000000e+00  4.9641053491923270e-01 8.6835133691645883e-01 0.0000000000000000e+00  8.2439466298421374e-02 -1.0971392295341884e+00 0.0000000000000000e+00  1.3136436566222540e-01 -1.0060763855838482e+00 0.0000000000000000e+00  5.5703105916212958e-01 -8.3103987724882189e-01 0.0000000000000000e+00  3.1276576197359079e-01 -9.4986513287665075e-01 0.0000000000000000e+00  3.1600726225490483e-01 -9.4895403015008806e-01 0.0000000000000000e+00  1.0006811244897282e+00 -4.5978346053977749e-02 0.0000000000000000e+00  5.4539100673396783e-02 1.0627904844036724e+00 0.0000000000000000e+00  3.7679308462686290e-01 -9.2641837037640873e-01 0.0000000000000000e+00  1.9867468764337945e-01 -9.8003545708596673e-01 0.0000000000000000e+00  1.7640204918460861e-01 9.8537768189460739e-01 0.0000000000000000e+00  3.5443551358932673e-01 9.3520656915753764e-01 0.0000000000000000e+00  1.0148978439528398e+00 -1.1752872454513182e-01 0.0000000000000000e+00  2.5829636161994873e-01 9.6376984608886940e-01 0.0000000000000000e+00  9.7881022109033322e-02 9.8394077739700625e-01 0.0000000000000000e+00  3.5004149506439253e-01 9.3687295211042509e-01 0.0000000000000000e+00  5.1568566984352082e-01 8.5690621082539997e-01 0.0000000000000000e+00  6.4948199916794869e-01 7.6067256078490786e-01 0.0000000000000000e+00  5.1026024029686334e-01 -8.6014518607815105e-01 0.0000000000000000e+00  3.5234545223955199e-01 -9.3600185775618649e-01 0.0000000000000000e+00  6.5148926992463319e-01 -7.5894988280540743e-01 0.0000000000000000e+00  9.8452170891222213e-01 -1.7867336485452964e-01 0.0000000000000000e+00  8.2771021441862858e-01 -5.6197031242078443e-01 0.0000000000000000e+00  1.0003224029121329e+00 9.5523289381062183e-03 0.0000000000000000e+00  9.7263311