<?xml version="1.0"?>
<VTKFile type="UnstructuredGrid"  version="0.1"  >
<UnstructuredGrid>
<Piece  NumberOfPoints="2549" NumberOfCells="4928">
<Points>
<DataArray  type="Float64"  NumberOfComponents="3"  format="ascii">1.618245106213434 -0.04491181847849551 0  1.608892044455734 -0.002310465862893441 0  1.605635013081149 0.03961830638997991 0  1.596635933677852 0.08315200146532155 0  1.585909541150056 0.125430241133141 0  1.575079182285975 0.1704375726535878 0  1.553886200056345 0.2138340255265793 0  1.559671755637453 0.2648596936672824 0  1.507884428980519 0.2977549107182242 0  1.48689995088419 0.3266422881971944 0  1.477020274296708 0.3961521223467545 0  1.439112867204423 0.4237149487758116 0  1.416410941941777 0.4700736777998406 0  1.382830477956676 0.5091822365707174 0  1.338570542643717 0.5453218757208119 0  1.329422241429367 0.6059271380132952 0  1.255647993201051 0.6075796608299489 0  1.230952153798003 0.6339456413112106 0  1.198865546967073 0.7125413850938298 0  1.152727414071323 0.7158689834775143 0  1.13020860606756 0.7703914061890129 0  1.082658498462436 0.7890925194711246 0  1.046969912898244 0.8328147663730557 0  1.00306520675909 0.8675833127856496 0  0.9550038117064127 0.9028954394117943 0  0.9366285660782435 0.9653713743885596 0  0.8733806908863263 0.9849949725517606 0  0.8277883521579226 1.01216135898418 0  0.782987328163724 1.05551024403409 0  0.7325132376082388 1.084370025051303 0  0.6817144038534553 1.116026516923559 0  0.6324005689417361 1.147176764000392 0  0.5779474974646216 1.174879858632108 0  0.5238272495323731 1.198576743576777 0  0.4705996034678821 1.224986554150252 0  0.4132020874886652 1.245606932492993 0  0.3571282628079813 1.265306156179432 0  0.2990519556943668 1.281147349555448 0  0.2406574461897598 1.295748545613973 0  0.1820160119685432 1.307340925307135 0  0.121717408431478 1.315320210345895 0  0.06213031074470907 1.320717106930927 0  0.001893323789046962 1.323809087731162 0  -0.05832408707763061 1.323524714003828 0  -0.1185936498139705 1.320363748803537 0  -0.1785434763322828 1.314002808711768 0  -0.2383378311591577 1.304975050346052 0  -0.2974459603739054 1.292486622343332 0  -0.3555238599326245 1.277145231556877 0  -0.4141542698653735 1.259188127334352 0  -0.4704289345748519 1.238499367989073 0  -0.5252489567537031 1.213200764243059 0  -0.5812247188750229 1.190992514268052 0  -0.6334357807366239 1.162815659392657 0  -0.686260906978617 1.129407488221161 0  -0.7340963594686047 1.094785778839283 0  -0.7845672686928233 1.068972460383484 0  -0.836008782081456 1.030808069375384 0  -0.8727254305125398 0.9872472418336545 0  -0.9236576605186269 0.9545326117756142 0  -0.9640258953346454 0.9159834672170503 0  -1.015997588561526 0.8992619273719229 0  -1.055055267227033 0.8585906086770505 0  -1.085547943764889 0.7818157988222185 0  -1.127152037370317 0.7578950066111148 0  -1.192680012801338 0.747306257703574 0  -1.203397449904966 0.6854254520800067 0  -1.242767101554732 0.6714829297087175 0  -1.280765958234903 0.6030935114513412 0  -1.31485995653259 0.5915057220781338 0  -1.366595216556124 0.5381017054347537 0  -1.370091707764892 0.4887892432458233 0  -1.454300882810854 0.5075602592856264 0  -1.469009791552258 0.4335780074846853 0  -1.493284890207258 0.3954120957371796 0  -1.518112531150276 0.348473844747601 0  -1.54330910904547 0.3062336068924691 0  -1.555518015841385 0.2547249802730292 0  -1.577105538013369 0.2182715847302053 0  -1.561038121625175 0.1418666950899697 0  -1.594941060509355 0.1384063168035865 0  -1.608533597525442 0.08735576368249227 0  -1.574456974307537 0.03580150672137712 0  -1.565623106108164 -0.0008743794095196905 0  -1.562174132613165 -0.04332345556714581 0  -1.575339087936776 -0.07427511676511497 0  -1.553171938295008 -0.1128385847069219 0  -1.570462389259013 -0.1561217658384986 0  -1.552530770696657 -0.2067386600637794 0  -1.53072142763136 -0.2156664131667378 0  -1.557485475087127 -0.2838475054973559 0  -1.53680757087495 -0.3266042074667415 0  -1.52883286717166 -0.3835211879687563 0  -1.504067337065849 -0.4295291050908092 0  -1.480080261967145 -0.4782796558101614 0  -1.444304006632882 -0.5118434430778931 0  -1.445194750188978 -0.5839505079477161 0  -1.371892107883238 -0.6031442153263026 0  -1.342198135597651 -0.6251480836800911 0  -1.306019169830058 -0.6768098441358478 0  -1.275651017204355 -0.6938000202687012 0  -1.244585689547789 -0.7492041712425082 0  -1.20706003455973 -0.7726404160892766 0  -1.190489422425625 -0.8268122896608046 0  -1.13335086187208 -0.8444780024652604 0  -1.096465594101095 -0.8745226009632941 0  -1.07138815997182 -0.9485108485773205 0  -1.028919534200406 -0.986213658786965 0  -0.9802462562455837 -1.012947927638485 0  -0.9392411159087709 -1.05464045113685 0  -0.8961148078923052 -1.095207085664714 0  -0.852735927704386 -1.137180184991065 0  -0.7994988276888263 -1.168430230744181 0  -0.749303791057677 -1.19989334141547 0  -0.7092685683842965 -1.25394427181536 0  -0.6474673004752202 -1.280171056564649 0  -0.595246608346199 -1.306307770982811 0  -0.5387361529899397 -1.334074700285732 0  -0.4819454012981085 -1.359574930426751 0  -0.4265024789648447 -1.383889929299558 0  -0.3651172387662165 -1.402433888238706 0  -0.3064877264872935 -1.418057117375936 0  -0.24663095296764 -1.431977083360391 0  -0.1855400133901827 -1.441103716678537 0  -0.1246726910555476 -1.448186923069908 0  -0.06323005437030957 -1.451438359822446 0  -0.001778099648928225 -1.451691356825254 0  0.05961565256886668 -1.448295283748038 0  0.1209125456070245 -1.441591828370718 0  0.1812786205979292 -1.431572760032216 0  0.241282258853908 -1.419145240158881 0  0.3002549141044577 -1.403441664314365 0  0.35907391609655 -1.386234608108662 0  0.4159438681810919 -1.365192689571472 0  0.4734217310623588 -1.343282732883607 0  0.5278844714978789 -1.315548008400451 0  0.581258067172601 -1.292418475269796 0  0.6373261877655459 -1.263567088002501 0  0.6856265068097693 -1.230021726607514 0  0.7379112631830431 -1.19896864094412 0  0.7874368871905859 -1.166409487744586 0  0.8334663326329306 -1.127502757703636 0  0.8793279029072822 -1.095537212180293 0  0.9337055022023817 -1.06935040063743 0  0.9652037799681324 -1.021032055634403 0  1.009546580185016 -0.9831466068900206 0  1.05567800263351 -0.9482989623629777 0  1.093548939470782 -0.9058797030148467 0  1.132904658875088 -0.8714463937131117 0  1.17149971749687 -0.8335786680366106 0  1.211674545664367 -0.8057088257277435 0  1.235275066996541 -0.7384295471507626 0  1.273828532880433 -0.7238571945901515 0  1.329688097223896 -0.6954640831126213 0  1.344488485338234 -0.6434017211176838 0  1.38612702233752 -0.6074001054226786 0  1.418624947861784 -0.5666003638351919 0  1.446289426391313 -0.5212521540161356 0  1.480578419856105 -0.4865306589287787 0  1.494383309679224 -0.4230215397408509 0  1.52038335361802 -0.3975257564378751 0  1.556585148267417 -0.3560308135203545 0  1.56218932761262 -0.307054823127122 0  1.579184582179721 -0.2621595485113883 0  1.589508867752635 -0.2165885713443515 0  1.598807133057613 -0.1729085767688668 0  1.604701807018151 -0.1293937257650312 0  1.615047409412163 -0.08980909714010508 0  -0.1012610601256708 0.7884062399834341 0  0.5968845812219078 -0.7118119292914021 0  -0.750966196503504 -0.6192895845942915 0  -0.08113598040121255 -0.8894408995525389 0  0.5941169313240279 0.6028959979639187 0  1.152828228928435 0.1890320102917159 0  -0.7665194844715937 0.513675106799082 0  -1.235729504089184 -0.03864951025168101 0  1.156175252348665 -0.2872974598379323 0  -1.041263710631691 -0.4399491815302902 0  -0.800286802296758 -0.05733066108719299 0  -0.4767038483350265 -0.2326970586056436 0  -1.062665507249143 0.3360441667006672 0  0.2762938714932766 -0.8634476654670933 0  0.1317983347726835 -0.2961034717864066 0  0.243036537610316 0.7471684858800708 0  0.3329772294628572 0.1939372938723469 0  0.6492347140597413 -0.0491323503377863 0  -0.4163687351970637 -0.7806042879650181 0  -0.4509902796563117 0.6924330680947974 0  -0.2771694449676307 0.252657940044742 0  0.9057406415719726 -0.4861407859360099 0  0.9022819615121073 0.3833256510939315 0  0.4002237388552335 -0.3255098063681968 0  0.02610224033495449 0.2470685557608742 0  -0.5414449038867266 0.1924066212718253 0  -0.175241110508153 -0.2882359369713556 0  0.9355886531229579 -0.04940222072988124 0  1.343155400501262 -0.04737349684454793 0  0.7510764248478478 -0.5953657913734095 0  0.7687235646545715 -0.2774323001499889 0  0.6134818796045116 -0.3765563126477486 0  0.5232721294726118 -0.1829194323885849 0  0.4924358857296942 -0.5241142367053681 0  0.9137772546816088 -0.2662295900830365 0  0.7916646122665838 -0.04928096918674833 0  -0.9215795553849302 0.1501560350214254 0  -1.148616527667237 0.1466515261982353 0  -1.021994808313463 -0.0470396418001949 0  -0.9110670273625121 -0.2578700527305172 0  -1.134058360530721 -0.2366558549059262 0  -1.312553813552964 -0.3300989940887496 0  -1.384026526518472 -0.1463098058456365 0  -1.402206464933703 0.07206323954622031 0  -1.326658564808154 0.2476163770752093 0  -0.1287220549473005 -0.5886162446758141 0  -0.2883285053614405 -0.5405385971731448 0  -0.2503236349016367 -0.8412272048067321 0  -0.3252629652274147 -0.2618550578016837 0  -0.4418835267525131 -0.503818408999913 0  -1.235115809738977 -0.5129884119675677 0  -1.253075365617035 0.421590476403934 0  0.3367095646831458 -0.5915241663748874 0  0.265061044196736 -0.3125475927349704 0  0.1980294893338707 -0.5830318647777613 0  -0.9130925562028329 0.4195299202292807 0  -0.7746288956485889 0.2261419098217133 0  1.343034847492074 -0.3596355970073134 0  1.213013390470554 -0.5182701857602235 0  1.209282535393977 0.4191884055230044 0  1.338526161057709 0.2631628050514443 0  -0.7625771346449731 -0.9002529260067028 0  -0.9356895267576988 -0.7588020922073911 0  -0.9412897691179536 0.6605757017490066 0  -0.7623587995064716 0.791841152687795 0  0.7704734057541052 -0.8880653316490642 0  0.5811817657737682 -1.003665127517102 0  0.5784611493537274 0.8915112085502086 0  0.7654993634242319 0.7790128888408393 0  0.00759256458031
[...]
<PointData  Vectors="f_8116"> 
<DataArray  type="Float64"  Name="f_8116"  NumberOfComponents="3" format="ascii">9.9835726850564910e-01 1.1755340270436418e-01 0.0000000000000000e+00  9.8604415399111034e-01 1.6521092301659485e-01 0.0000000000000000e+00  9.9544012025616058e-01 1.0485839907364615e-01 0.0000000000000000e+00  9.6630162088302729e-01 2.6417870637879581e-01 0.0000000000000000e+00  9.8507165829176357e-01 1.8165165671576158e-01 0.0000000000000000e+00  9.0745246439038207e-01 4.4562350365266168e-01 0.0000000000000000e+00  1.0173922143157701e+00 4.9152547531144064e-02 0.0000000000000000e+00  9.0840746359013735e-01 4.0169976551254766e-01 0.0000000000000000e+00  5.2525689408059317e-01 9.3849661377478344e-01 0.0000000000000000e+00  1.0201689750976162e+00 1.4779187978247380e-01 0.0000000000000000e+00  8.8648055931960723e-01 4.6377230671529263e-01 0.0000000000000000e+00  7.1204283291840631e-01 7.1651823901347911e-01 0.0000000000000000e+00  9.1906606124004830e-01 4.2846295240483429e-01 0.0000000000000000e+00  5.7228710482800915e-01 8.6359316168572120e-01 0.0000000000000000e+00  1.0024478651062068e+00 3.2911680581752439e-01 0.0000000000000000e+00  5.7123007538114667e-01 7.5991553952897628e-01 0.0000000000000000e+00  8.4160611945937935e-02 1.0757225489870259e+00 0.0000000000000000e+00  1.0304714937036341e+00 3.2668624751285091e-01 0.0000000000000000e+00  6.2184905239177068e-01 7.7908383070223386e-01 0.0000000000000000e+00  6.4649950237074683e-01 7.6124660769201868e-01 0.0000000000000000e+00  7.8922546026560381e-01 6.2418874452738793e-01 0.0000000000000000e+00  5.0725385477092400e-01 8.7693998526131955e-01 0.0000000000000000e+00  7.9664374612088273e-01 6.1959332386518984e-01 0.0000000000000000e+00  4.8907078733075166e-01 9.0703871005776282e-01 0.0000000000000000e+00  9.0808714659559231e-01 4.5145507704496918e-01 0.0000000000000000e+00  7.6576058143287418e-01 6.4387323686936260e-01 0.0000000000000000e+00  2.5989532299313389e-01 1.0220409904197518e+00 0.0000000000000000e+00  6.9229462517857832e-01 7.2758534438281008e-01 0.0000000000000000e+00  6.1039359631229972e-01 7.9295098843906420e-01 0.0000000000000000e+00  4.7933301429482439e-01 8.7981271793392291e-01 0.0000000000000000e+00  5.5229038830739330e-01 8.3392777581262834e-01 0.0000000000000000e+00  5.0017978192633306e-01 8.6651855373252495e-01 0.0000000000000000e+00  4.0812011869597059e-01 9.1354343912994163e-01 0.0000000000000000e+00  4.3314140775729987e-01 9.0134857557533810e-01 0.0000000000000000e+00  3.9696169806488868e-01 9.1815436096492875e-01 0.0000000000000000e+00  3.2706187319506752e-01 9.4523368940465013e-01 0.0000000000000000e+00  3.0231247626908614e-01 9.5329852120130831e-01 0.0000000000000000e+00  2.4735533479250832e-01 9.6919047558946203e-01 0.0000000000000000e+00  2.2549133247828823e-01 9.7423121347867281e-01 0.0000000000000000e+00  1.6039424285865636e-01 9.8479540414231648e-01 0.0000000000000000e+00  1.0771981057752708e-01 1.0196180046087044e+00 0.0000000000000000e+00  7.4251660578186468e-02 8.6794184431915500e-01 0.0000000000000000e+00  1.5913143896474656e-02 1.3660770942306621e+00 0.0000000000000000e+00  2.4670193757531777e-02 -1.3494341920386157e+00 0.0000000000000000e+00  7.9561077160480789e-02 -9.3410117962364769e-01 0.0000000000000000e+00  1.2712889063566551e-01 -9.9661152674664877e-01 0.0000000000000000e+00  1.7687998416541087e-01 -9.8541241185836603e-01 0.0000000000000000e+00  2.3347343376215168e-01 -9.7211214612399821e-01 0.0000000000000000e+00  2.7543960449211724e-01 -9.6145058975557762e-01 0.0000000000000000e+00  3.0985617553503664e-01 -9.5115012102877539e-01 0.0000000000000000e+00  3.9866408527276209e-01 -9.1762387044774452e-01 0.0000000000000000e+00  3.8935784978165527e-01 -9.2095935699121700e-01 0.0000000000000000e+00  4.0865668284823037e-01 -9.1328211071140986e-01 0.0000000000000000e+00  5.0880150048119044e-01 -8.6170610813777571e-01 0.0000000000000000e+00  5.8277227094629636e-01 -8.1385307199518719e-01 0.0000000000000000e+00  5.1972437307693287e-01 -8.5384074070288762e-01 0.0000000000000000e+00  4.7915358120231677e-01 -8.8356624748030221e-01 0.0000000000000000e+00  7.3801934602446728e-01 -6.8475683691610634e-01 0.0000000000000000e+00  6.4224746373909081e-01 -7.6585169468064374e-01 0.0000000000000000e+00  6.3241739683137110e-01 -7.7651992561024696e-01 0.0000000000000000e+00  5.0229974192082338e-01 -8.6246034368235658e-01 0.0000000000000000e+00  4.4560023360969186e-01 -9.1821193772732856e-01 0.0000000000000000e+00  9.2567055291137046e-01 -4.3567270188148260e-01 0.0000000000000000e+00  8.6938562202092440e-01 -5.1579718054173596e-01 0.0000000000000000e+00  1.1202940285827032e-01 -1.1233337971199915e+00 0.0000000000000000e+00  8.3710000930251705e-01 -5.3119297459941051e-01 0.0000000000000000e+00  8.9196149163441074e-01 -4.5668204785019306e-01 0.0000000000000000e+00  6.9367855254436983e-01 -7.2967958913370512e-01 0.0000000000000000e+00  8.2499110719607283e-01 -5.7684014784274074e-01 0.0000000000000000e+00  4.2764710672983225e-01 -9.3047985602512640e-01 0.0000000000000000e+00  1.0712450795884609e+00 -5.1001507785242728e-01 0.0000000000000000e+00  2.3138441001366433e-01 1.3402523664234356e+00 0.0000000000000000e+00  2.9095888672186693e-01 1.7593071952498615e-01 0.0000000000000000e+00  1.1440478000046761e+00 -4.2039364428782500e-01 0.0000000000000000e+00  8.0893458192214829e-01 -5.3736774909009710e-01 0.0000000000000000e+00  8.6560303430160512e-01 -5.1180067623867453e-01 0.0000000000000000e+00  9.4814749593271663e-01 -3.1863202109919320e-01 0.0000000000000000e+00  9.1007623414815741e-01 -4.3110199910778257e-01 0.0000000000000000e+00  1.0124412867341717e+00 -5.9079057346639673e-02 0.0000000000000000e+00  9.2725231815526210e-01 4.4686036447341193e-01 0.0000000000000000e+00  8.2211858114647873e-01 -7.6414660511529242e-01 0.0000000000000000e+00  1.0044072745329617e+00 2.1347484120215346e-01 0.0000000000000000e+00  8.5133358720895491e-01 5.5783013835213968e-01 0.0000000000000000e+00  9.9658761451216749e-01 1.6636487363222871e-01 0.0000000000000000e+00  9.8702999204376762e-01 -2.7971341985660503e-01 0.0000000000000000e+00  9.7446541703413103e-01 2.5601083555180382e-01 0.0000000000000000e+00  9.9580429098880419e-01 8.4140685565125634e-02 0.0000000000000000e+00  1.0065697642293907e+00 -1.7758531396858665e-01 0.0000000000000000e+00  8.1703712173225462e-01 8.0725365939576621e-01 0.0000000000000000e+00  9.0191032204012966e-01 -4.9637207426432584e-01 0.0000000000000000e+00  1.0035613127245373e+00 -5.9139023079835762e-02 0.0000000000000000e+00  9.4903360914243540e-01 3.4462155366184055e-01 0.0000000000000000e+00  9.6577256307456816e-01 2.5678223500924835e-01 0.0000000000000000e+00  9.0055183801594829e-01 4.3953883434420221e-01 0.0000000000000000e+00  7.4168876571906184e-01 7.0234662666452863e-01 0.0000000000000000e+00  1.0106795901133734e+00 1.6479764987345816e-01 0.0000000000000000e+00  8.6808644619138442e-01 4.4776827698127036e-01 0.0000000000000000e+00  2.0338074461396560e-01 1.0920743561285728e+00 0.0000000000000000e+00  8.5261764419803732e-01 5.5648189870787435e-01 0.0000000000000000e+00  6.6468886723574006e-01 7.5231072515681041e-01 0.0000000000000000e+00  7.9621208702178470e-01 6.0636758947870795e-01 0.0000000000000000e+00  7.2807692329600993e-01 6.8918755467018866e-01 0.0000000000000000e+00  8.5206882643614146e-01 5.2816022209437508e-01 0.0000000000000000e+00  7.7778516744439308e-01 6.2614105676316878e-01 0.0000000000000000e+00  2.9964887367251958e-01 1.0321406475914316e+00 0.0000000000000000e+00  9.2224416293704370e-01 4.2319917043966926e-01 0.0000000000000000e+00  8.9675539127207782e-01 4.6272897060363227e-01 0.0000000000000000e+00  4.9968312974862888e-01 8.9508714488911711e-01 0.0000000000000000e+00  6.0515512690001683e-01 7.9498716162686778e-01 0.0000000000000000e+00  7.2071514341528109e-01 6.9530050703953294e-01 0.0000000000000000e+00  6.9954469912653949e-01 7.1540065605999137e-01 0.0000000000000000e+00  6.2139700279508825e-01 7.8428671169756159e-01 0.0000000000000000e+00  4.3721326252008119e-01 9.1348568434895505e-01 0.0000000000000000e+00  7.5199201994012754e-01 6.6839411312698405e-01 0.0000000000000000e+00  6.4882985820819528e-01 7.6446825506342742e-01 0.0000000000000000e+00  3.4921046291303576e-01 9.4943526528869360e-01 0.0000000000000000e+00  4.7465061341182307e-01 8.7959175106970355e-01 0.0000000000000000e+00  4.1521896015460541e-01 9.0997005375275763e-01 0.0000000000000000e+00  4.1733570256301172e-01 9.0905140291027597e-01 0.0000000000000000e+00  3.4794953662144862e-01 9.3804503284100105e-01 0.0000000000000000e+00  2.6021854909153902e-01 9.6600942880641194e-01 0.0000000000000000e+00  2.5144561589932241e-01 9.6753340007774358e-01 0.0000000000000000e+00  1.8553527832765401e-01 9.8301733399214253e-01 0.0000000000000000e+00  1.2940409460403576e-01 1.0037701144708060e+00 0.0000000000000000e+00  8.7580075173642843e-02 9.0162141503930648e-01 0.0000000000000000e+00  2.1545606949990147e-02 1.3943877370835602e+00 0.0000000000000000e+00  1.8358821118815181e-02 -1.4004183535120478e+00 0.0000000000000000e+00  8.2840436076030047e-02 -8.9846751690899629e-01 0.0000000000000000e+00  1.3826587777414265e-01 -1.0041981186152880e+00 0.0000000000000000e+00  1.8203561241239144e-01 -9.8324056998078035e-01 0.0000000000000000e+00  2.3317735920887958e-01 -9.7214199461173700e-01 0.0000000000000000e+00  2.6567091729156067e-01 -9.6433143945345856e-01 0.0000000000000000e+00  3.1832920005393750e-01 -9.4807563739589040e-01 0.0000000000000000e+00  3.4443066519916687e-01 -9.3903817140199985e-01 0.0000000000000000e+00  4.1279149224369105e-01 -9.1112975087551440e-01 0.0000000000000000e+00  4.3657992273241830e-01 -8.9956694834263284e-01 0.0000000000000000e+00  4.0026690379440555e-01 -9.1775860223943595e-01 0.0000000000000000e+00  5.3232680401710564e-01 -8.4769028293725945e-01 0.0000000000000000e+00  5.5136950590442091e-01 -8.3422635845786652e-01 0.0000000000000000e+00  5.0514196823567570e-01 -8.6412202354060252e-01 0.0000000000000000e+00  6.0757285962084107e-01 -7.9489746305727504e-01 0.0000000000000000e+00  6.5409136722895933e-01 -7.5883254212541507e-01 0.0000000000000000e+00  4.2673192412987448e-01 -9.1728891039450478e-01 0.0000000000000000e+00  6.6980937390941908e-01 -7.4524953177935249e-01 0.0000000000000000e+00  8.1329826263127702e-01 -5.9545072341656502e-01 0.0000000000000000e+00  5.6143577335030270e-01 -8.3680506525230813e-01 0.0000000000000000e+00  6.9772656693812640e-01 -7.1669332666247310e-01 0.0000000000000000e+00  7.0881756810134910e-01 -7.0545162367587433e-01 0.0000000000000000e+00  6.9908765619338420e-01 -7.1401702602519446e-01 0.0000000000000000e+00  5.7743936834309251e-01 -8.3470981340206440e-01 0.0000000000000000e+00  8.6720482989510228e-01 -5.0686316031874545e-01 0.0000000000000000e+00  8.7904256639658540e-01 -4.9137135323611142e-01 0.0000000000000000e+00  2.4516179192632270e-01 -1.0697293234566294e+00 0.0000000000000000e+00  8.3787935061634056e-01 -5.5616045057523389e-01 0.0000000000000000e+00  8.8937414049633645e-01 -4.6495501339817114e-01 0.0000000000000000e+00  6.3949388577426880e-01 -7.9297705103383054e-01 0.0000000000000000e+00  8.7949728477789979e-01 -4.8722825146144760e-01 0.0000000000000000e+00  7.4011154768037202e-01 -6.8503856439205990e-01 0.0000000000000000e+00  9.1254658466695993e-01 -4.1422078777403687e-01 0.0000000000000000e+00  9.5649273480624186e-01 -3.1396391618674790e-01 0.0000000000000000e+00  6.3736440408561146e-01 -8.2876911910999351e-01 0.0000000000000000e+00  9.4085934464780074e-01 -3.5332177076346233e-01 0.0000000000000000e+00  9.8586832840791017e-01 -1.8215759224520781e-01 0.0000000000000000e+00  9.4335563159389701e-01 -3.3825201404088062e-01 0.0000000000000000e+00  9.8111480508541760e-01 -1.9678661133433578e-01 0.0000000000000000e+00  9.8721056736666368e-01 -1.5969566321185377e-01 0.0000000000000000e+00  9.8027852538286131e-01 -1.9381367355739623e-01 0.0000000000000000e+00  9.8378416470803354e-01 -2.1787960260664971e-01 0.0000000000000000e+00  1.0821425112454031e-01 -1.0133476200999911e+00 0.0000000000000000e+00  6.6668952560085493e-01 -7.4567859295558236e-01 0.0000000000000000e+00  7.8073457161783977e-01 6.2520257281968961e-01 0.0000000000000000e+00  7.5344309951044269e-02 8.9458772871429570e-01 0.0000000000000000e+00  6.7948538045129858e-01 7.3406648746976932e-01 0.0000000000000000e+00  9.6016955451133290e-01 2.8040838331925305e-01 0.0000000000000000e+00  7.6661956329190073e-01 -6.4246004198055495e-01 0.0000000000000000e+00  9.9996373030463559e-01 -2.8299147876275646e-02 0.0000000000000000e+00  9.6366058630029483e-01 -2.6804791581514814e-01 0.0000000000000000e+00  9.1126892716920549e-01 4.1233089368090037e-01 0.0000000000000000e+00  1.0005806463217330e+00 1.7580859206137297e-03 0.0000000000000000e+00  9.2584390680141804e-01 3.8035228634606411e-01 0.0000000000000000e+00  8.7362112000862968e-01 -4.8718832379637178e-01 0.0000000000000000e+00  3.4664708447823506e-01 -9.3818956815767685e-01 0.0000000000000000e+00  5.4505751797440927e-01 -8.4262805046474099e-01 0.0000000000000000e+00  3.1597186735254951e-01 9.4904065549306471e-01 0.0000000000000000e+00  8.6425924932683951e-01 5.0601852051219676e-01 0.0000000000000000e+00  1.0007959741855692e+00 -2.0796156401419828e-02 0.0000000000000000e+00  4.8522071874074324e-01 8.7462749502776860e-01 0.0000000000000000e+00  5.0777121346659626e-01 -8.6173581814968059e-01 0.0000000000000000e+00  7.1684641858287435e-01 -6.9949977468629887e-01 0.0000000000000000e+00  8.7650631190603823e-01 -4.8188948399826032e-01 0.0000000000000000e+00  8.7595214512732633e-01 4.8293447388428346e-01 0.0000000000000000e+00  8.3095694653001229e-01 -5.5778415405924497e-01 0.0000000000000000e+00  1.2116964093628214e-01 1.3671321652436377e+00 0.0000000000000000e+00  9.1591134138656893e-01 -4.0291713783220645e-01 0.0000000000000000e+00  5.4664291866807424e-01 8.3745399503944673e-01 0.0000000000000000e+00  1.0002837157756042e+00 -3.9633396573857810e-03 0.0000000000000000e+00  1.0002289993138060e+00 6.1996179118763844e-03 0.0000000000000000e+00  7.9208665200936745e-01 -6.1089431687824880e-01 0.0000000000000000e+00  9.5182738448223680e-01 -3.0827629812248925e-01 0.0000000000000000e+00  8.7891295980334672e-01 -4.7845702358072023e-01 0.0000000000000000e+00  9.6417839131217753e-01 -2.6886710115407991e-01 0.0000000000000000e+00  7.2819491240665390e-01 -6.8613452778251827e-01 0.0000000000000000e+00  9.6480566402568657e-01 -2.6402361026398924e-01 0.0000000000000000e+00  1.0004105884980543e+00 -1.1072110648664608e-02 0.0000000000000000e+00  9.6239551622490827e-01 -2.7312587720620984e-01 0.0000000000000000e+00  9.6330862165348696e-01 -2.7022129008314849e-01 0.0000000000000000e+00  9.9998995351446307e-01 -2.5683872700841482e-02 0.0000000000000000e+00  9.7045391555859717e-01 2.4279721907113591e-01 0.0000000000000000e+00  9.8180383869702936e-01 1.9172925542241873e-01 0.0000000000000000e+00  9.6208988912447468e-01 2.7448767858712170e-01 0.0000000000000000e+00  9.9759620098700830e-01 7.0788672427139321e-02 0.0000000000000000e+00  9.9814478952552610e-01 -6.6138629571237992e-02 0.0000000000000000e+00  9.1659861238626061e-01 -4.0279832287170081e-01 0.0000000000000000e+00  1.9098964666401738e-01 1.0006855960664798e+00 0.0000000000000000e+00  4.8002816908649104e-01 8.7773923367195839e-01 0.0000000000000000e+00  2.8624388571717002e-01 9.5831791692318102e-01 0.0000000000000000e+00  8.2419603546017395e-01 5.6924014897550912e-01 0.0000000000000000e+00  6.8169316052056250e-01 7.3227632622696925e-01 0.0000000000000000e+00  8.6819093073081410e-01 4.9697335528429343e-01 0.0000000000000000e+00  7.3528252644168413e-01 -6.7911755330563806e-01 0.0000000000000000e+00  5.5278395907081157e-01 -8.3379352702118381e-01 0.0000000000000000e+00  7.3840575792491603e-01 -6.7641071630955296e-01 0.0000000000000000e+00  3.8911640014824589e-01 -9.2167358458720683e-01 0.0000000000000000e+00  8.3662271206341998e-01 -5.4819726819341186e-01 0.0000000000000000e+00  9.2708325082358423e-01 -3.7625479383943344e-01 0.0000000000000000e+00  9.3514505026312000e-01 -3.5497134767306926e-01 0.0000000000000000e+00  8.7475932935542888e-01 -4.8492575360541595e-01 0.0000000000000000e+00  8.5043276694157033e-01 5.2646547653842768e-01 0.0000000000000000e+00  9.2921948724347392e-01 3.7027266594927383e-01 0.0000000000000000e+00  6.6587578384146273e-01 7.4619518525222595e-01 0.0000000000000000e+00  7.7647657797562752e-01 6.3027604035845730e-01 0.0000000000000000e+00  7.3520488595852429e-01 -6.7796702148282717e-01 0.0000000000000000e+00  6.3114600850875013e-01 -7.7577892369419921e-01 0.0000000000000000e+00  6.5803376283542192e-01 -7.5311480713872236e-01 0.0000000000000000e+00  5.2904699863238880e-01 -8.4871881218020562e-01 0.0000000000000000e+00  5.3573666569205525e-01 8.4454077070792799e-01 0.0000000000000000e+00  6.6957689712146196e-01 7.4276360425832300e-01 0.0000000000000000e+00  2.2602485557488151e-02 -1.4059924957716019e+00 0.0000000000000000e+00  1.8303852607657237e-01 9.8243127809777997e-01 0.0000000000000000e+00  1.8819492110634184e-01 -9.8403071482816895e-01 0.0000000000000000e+00  5.6205018137021282e-03 9.6303786739286668e-01 0.0000000000000000e+00  5.2239700205821804e-01 -8.5293899347655411e-01 0.0000000000000000e+00  9.8314443132191165e-01 1.8946688850225896e-01 0.0000000000000000e+00  8.9568811466183473e-01 4.4641711850747362e-01 0.0000000000000000e+00  7.3978908830522028e-01 6.7386128437080062e-01 0.0000000000000000e+00  8.3220402591002296e-01 5.5536771045912980e-01 0.0000000000000000e+00  9.8823183601253473e-01 1.5735457308411704e-01 0.0000000000000000e+00  9.2975500043616754e-01 3.6947874302914063e-01 0.0000000000000000e+00  6.5943587079332677e-01 7.5558997877315193e-01 0.0000000000000000e+00  1.0152402447717648e+00 -1.5841572593190265e-01 0.0000000000000000e+00  9.9896848713820685e-01 -1.0117813562661655e-01 0.0000000000000000e+00  8.2300899770032587e-01 5.6814791506961204e-01 0.0000000000000000e+00  7.6884654279532039e-01 -6.3968188203220078e-01 0.0000000000000000e+00  8.6188845253240920e-01 5.0749326966905350e-01 0.0000000000000000e+00  9.5803449310056554e-01 2.8851121952736763e-01 0.0000000000000000e+00  7.9971746520374432e-01 6.0088928937543928e-01 0.0000000000000000e+00  9.6653204397040560e-01 2.5771399843634157e-01 0.0000000000000000e+00  5.2827508687722224e-01 8.4969597076198433e-01 0.0000000000000000e+00  5.2019042943820037e-01 8.5433106727678998e-01 0.0000000000000000e+00  1.0724528894090501e-01 -8.9692368364579400e-01 0.0000000000000000e+00  1.4499568908696048e-01 -9.9070252908177614e-01 0.0000000000000000e+00  5.6784765860690889e-01 -8.2370692095823939e-01 0.0000000000000000e+00  3.2284343576385699e-01 -9.4650378885535214e-01 0.0000000000000000e+00  3.2218424288953151e-01 -9.4690472787955504e-01 0.0000000000000000e+00  9.9595836134442406e-01 -1.0705706602639325e-01 0.0000000000000000e+00  1.2736598499678521e-02 -7.9467114585728227e-01 0.0000000000000000e+00  3.9431725119033967e-01 -9.1910281875384803e-01 0.0000000000000000e+00  2.1206649333859529e-01 -9.7691895330559575e-01 0.0000000000000000e+00  1.9169308025791559e-01 9.8198227489315992e-01 0.0000000000000000e+00  3.7989849228322192e-01 9.2517506746949030e-01 0.0000000000000000e+00  8.8464680834344389e-01 -7.9301091394256940e-01 0.0000000000000000e+00  2.6424965312100257e-01 9.6025545245089983e-01 0.0000000000000000e+00  1.0498286606510669e-01 9.9146422617603946e-01 0.0000000000000000e+00  3.6435355054734214e-01 9.3143278651276273e-01 0.0000000000000000e+00  5.4481567039713164e-01 8.3872029558200922e-01 0.0000000000000000e+00  6.5628766929864413e-01 7.5478888265429345e-01 0.0000000000000000e+00  5.2357959681653932e-01 -8.5209759758296899e-01 0.0000000000000000e+00  3.6099344644110753e-01 -9.3271123793020738e-01 0.0000000000000000e+00  6.5826229717539320e-01 -7.5307388397744235e-01 0.0000000000000000e+00  9.8539744242262539e-01 -1.7380063916004290e-01 0.0000000000000000e+00  8.3068210670859310e-01 -5.5754886570849271e-01 0.0000000000000000e+00  1.0003798868122593e+00 7.6183269298134718e-03 0.0000000000000000e+00  9.73577