<?xml version="1.0"?>
<VTKFile type="UnstructuredGrid"  version="0.1"  >
<UnstructuredGrid>
<Piece  NumberOfPoints="2549" NumberOfCells="4928">
<Points>
<DataArray  type="Float64"  NumberOfComponents="3"  format="ascii">1.634807050144185 -0.04085361872933608 0  1.624899449226277 0.001752710247947589 0  1.621267537726568 0.04355253388117963 0  1.612140996726748 0.08706425855795297 0  1.600972516348035 0.1289579435080404 0  1.589932494460426 0.1737451086242103 0  1.572068455009347 0.2168330712983486 0  1.574342115942475 0.2672836390307546 0  1.522517370805446 0.2991095846232924 0  1.506178349470745 0.3305728028548782 0  1.495677644189786 0.4008046372864648 0  1.454700382279053 0.4266693612058046 0  1.429617793963489 0.4731361688968986 0  1.396781403012787 0.5128467569453964 0  1.361124220986895 0.5504870781181621 0  1.348367106951623 0.6052068678249719 0  1.271962624887752 0.6101861845191514 0  1.257128398823926 0.6444031173015347 0  1.232596148501323 0.7296330462168218 0  1.176072626813687 0.7302909682147928 0  1.142148660160984 0.7756547336247764 0  1.099321085323733 0.8102078661672214 0  1.060889530092566 0.849910014985057 0  1.020152312114896 0.8935864085298123 0  0.9643948749453034 0.9129282135392914 0  0.9338409980028983 0.9640084211396409 0  0.8819358299698264 0.9943095103935415 0  0.8340758322354208 1.021756292966108 0  0.7874036774517579 1.057606983519597 0  0.7376888628622242 1.087966092220882 0  0.6872558254860509 1.118650817745603 0  0.6368812987829671 1.149361421847675 0  0.5818338352387846 1.173128473783501 0  0.528811826218304 1.198185913520202 0  0.4747769194766735 1.223759954485027 0  0.4178478457951332 1.242383186294496 0  0.3616114506203235 1.261800975666796 0  0.3039700006037187 1.277491732611166 0  0.2456502239395933 1.291456473504096 0  0.1872401481500728 1.302805049954475 0  0.1272726342355753 1.310359695289387 0  0.06802157156985367 1.315588418925795 0  0.00812920404317035 1.318669082639312 0  -0.05175557083021338 1.318459809020929 0  -0.1116932231614959 1.315537619460788 0  -0.1713697436942522 1.309474760547684 0  -0.2309012703260108 1.301057990899405 0  -0.2898512479589914 1.288981896910125 0  -0.3478150473838101 1.27419938610068 0  -0.4064755575426688 1.257883631430924 0  -0.4627488456832707 1.237187518364285 0  -0.5184390109564629 1.213406724381325 0  -0.573580964717366 1.189309220700218 0  -0.6254286866231704 1.159344914108586 0  -0.6810115880776185 1.137734731105482 0  -0.7306964077806989 1.099092125397624 0  -0.7748393137324545 1.065104880663997 0  -0.8318411747050033 1.040811208794391 0  -0.8742687188451154 0.9989869061348251 0  -0.9196914326794614 0.9626813197254415 0  -0.965293705050764 0.9269494925048802 0  -1.006578841937673 0.8889068597458323 0  -1.059589836154348 0.8681033785010647 0  -1.081285016242478 0.788939318317908 0  -1.123627757124706 0.7767075416917727 0  -1.172834254656074 0.7443605915128807 0  -1.198187875439722 0.6954908521267579 0  -1.240217566156122 0.6676267039166356 0  -1.270750757867563 0.6122367957373722 0  -1.307489362660941 0.6130753394741951 0  -1.352499371357665 0.5478894842158041 0  -1.359582668322835 0.496003664459061 0  -1.456857458662965 0.5091276862751617 0  -1.448151831596687 0.4351094537857506 0  -1.482443813859106 0.402062604306636 0  -1.507068767691595 0.3549304670056186 0  -1.534156410012937 0.3124905893243244 0  -1.547452839584976 0.2602953648877833 0  -1.570517842966891 0.2235624682537611 0  -1.554921387720839 0.1466090905326739 0  -1.587851305191389 0.1418721114060158 0  -1.603685981378502 0.09132852959705871 0  -1.569900735325853 0.03936637886803948 0  -1.560690856520689 0.003038106351259158 0  -1.557312162135249 -0.03953193101222908 0  -1.572855014001389 -0.07040605940431123 0  -1.54970846065141 -0.1095837878863162 0  -1.567482392080374 -0.1530608504308443 0  -1.549901151552143 -0.2039901486130011 0  -1.528087162143833 -0.2130594529935403 0  -1.555424475931575 -0.2815229613744543 0  -1.534089079246922 -0.3242807063350268 0  -1.526011985547733 -0.38154394052031 0  -1.501153569669004 -0.4276447450947379 0  -1.477096137099563 -0.4764222618042913 0  -1.441596062741695 -0.5100363794768852 0  -1.442120205087936 -0.5807599487483316 0  -1.366970144324254 -0.5981919435448964 0  -1.34361458173503 -0.6268228051638803 0  -1.307174926934918 -0.6840479383647535 0  -1.271529671335563 -0.6939802256884979 0  -1.241463922563598 -0.7450618619444913 0  -1.202291322719172 -0.7764714329552052 0  -1.173682643746568 -0.8220454711373898 0  -1.130940869877623 -0.8583039159793401 0  -1.087992023046625 -0.8738840722994186 0  -1.064229233794502 -0.9460743958001726 0  -1.015848126766925 -0.9752367277491935 0  -0.9737594622864653 -1.014208081183275 0  -0.9297815916648297 -1.052903830683657 0  -0.8844910463491037 -1.091797679932465 0  -0.8392005730382212 -1.129916488722002 0  -0.7914397098829429 -1.168050398841853 0  -0.7388643797350545 -1.194310348734906 0  -0.694752685647792 -1.242237467820173 0  -0.6367008424513644 -1.270241062689839 0  -0.5842984549915226 -1.30064200508604 0  -0.5278992206594461 -1.327391846563165 0  -0.4712314990281887 -1.35272409072826 0  -0.4149842985132607 -1.376788850407495 0  -0.3538311253320647 -1.39244682565312 0  -0.2954884911827346 -1.408466649729753 0  -0.2356295538798509 -1.422408199766983 0  -0.174835757812509 -1.430422234317218 0  -0.1141782473508334 -1.437401405912246 0  -0.05300211211333827 -1.440402540069563 0  0.008174988224647359 -1.440527838729077 0  0.06931699373393634 -1.437081574847356 0  0.1303293315350831 -1.430342999470335 0  0.1904949177911977 -1.420478137324596 0  0.2502231424397887 -1.408163979601727 0  0.3091964524759027 -1.392865300867496 0  0.3675997325515804 -1.375520418906224 0  0.4246089972054095 -1.354520336324552 0  0.481774263023158 -1.334736935488587 0  0.5371007680797629 -1.30744235809351 0  0.5891153935772678 -1.281697513992458 0  0.6458554409862437 -1.257487572017043 0  0.6962321402522649 -1.224662678516295 0  0.7472047200478603 -1.193056119269013 0  0.7969149344959806 -1.160818950813343 0  0.8445460224241573 -1.125454629372153 0  0.8917801451003556 -1.093507928831678 0  0.9408331077775441 -1.06065146953106 0  0.9784656044061727 -1.020086282071185 0  1.028773391991546 -0.9896287008236293 0  1.070927059837849 -0.9487617922500792 0  1.110838584243478 -0.9092177797804571 0  1.152330762270032 -0.8723362492448675 0  1.189273891449646 -0.8294581365855607 0  1.235929533107205 -0.8082359427121462 0  1.265228844513889 -0.7416307089947897 0  1.291851008683624 -0.7152433678467558 0  1.348018192095529 -0.6913524639360407 0  1.371932211123945 -0.6435371639603281 0  1.405976542680403 -0.6040419174295097 0  1.437824506973821 -0.5628808400774272 0  1.46485751029056 -0.5171904494872798 0  1.498384029282873 -0.4813560882285006 0  1.512563844974982 -0.4193026752195116 0  1.537840704755871 -0.3933014671477562 0  1.571978738258246 -0.3517525195880652 0  1.580327746177507 -0.3028706360287796 0  1.595855507405421 -0.2579534600967847 0  1.606099097274599 -0.2124515708187796 0  1.615181251623222 -0.168812053797779 0  1.621064065709479 -0.1254654430895582 0  1.63173598099755 -0.08584550695916078 0  -0.09447671730820006 0.7867395891156832 0  0.6114687813031348 -0.7066811130408857 0  -0.7452090822777149 -0.6152402372626035 0  -0.07150754167719184 -0.8813379081069823 0  0.6075512392546546 0.6059406931921818 0  1.167447728189308 0.1945508502509515 0  -0.7609817080681482 0.5173471199647254 0  -1.231045083713143 -0.03645381098042087 0  1.172004206248661 -0.2847941852034549 0  -1.037520239506703 -0.4384560477541897 0  -0.7949304577982307 -0.05486411173471538 0  -0.4700724491229798 -0.2290571036742727 0  -1.055463457948008 0.3394951018336397 0  0.2877054467813337 -0.8556114768699069 0  0.1427016137657986 -0.2914292366545141 0  0.2520437915960534 0.7460420473202148 0  0.3449618568775141 0.1967062120786186 0  0.6633052883755062 -0.04507393026196077 0  -0.4081693516813771 -0.7740097592418934 0  -0.4457696661410833 0.6933516586754729 0  -0.2698793440923061 0.2544526232084439 0  0.9226480591157181 -0.4843191247757269 0  0.9182551315881767 0.3911944223061223 0  0.4131927127013161 -0.3209861287996602 0  0.0354944136966959 0.248786669851472 0  -0.5352119470743915 0.194792948001154 0  -0.166618580630927 -0.2837776506980291 0  0.9502808374159171 -0.04524088757983978 0  1.358139129938263 -0.04364809629801757 0  0.7673247131097035 -0.5921718948971253 0  0.7837848839078904 -0.2741050182039341 0  0.6280443646221127 -0.3726416157013077 0  0.5368746028256286 -0.1789212402577205 0  0.5062879346613651 -0.5191748068390507 0  0.9292125673981834 -0.2633491751298441 0  0.8061786598725736 -0.04511354282363779 0  -0.915685433755004 0.1527187237266026 0  -1.142395420930327 0.1492041230764407 0  -1.017037466348366 -0.04492228646754082 0  -0.9065383747951989 -0.2556350267526144 0  -1.130113191048914 -0.2349379903444709 0  -1.30920346705029 -0.3283719482975259 0  -1.38049947782075 -0.1439366564561777 0  -1.39661610494545 0.0751954664845588 0  -1.318754930702878 0.2507845858115378 0  -0.1195112459224522 -0.5823508040337668 0  -0.280160904318997 -0.5348518232987722 0  -0.241355879413549 -0.8338008119466209 0  -0.3176789952115953 -0.2577638190376094 0  -0.434715631100315 -0.4987695577516338 0  -1.231947962871329 -0.5125858043034479 0  -1.243639640668946 0.4264717300122686 0  0.349236536545177 -0.5855764220142626 0  0.2769991273260619 -0.3078664144314733 0  0.2094829752504145 -0.5767978691650547 0  -0.9066515909601007 0.4232745183287581 0  -0.7686776871412143 0.2288374228746335 0  1.359688586499081 -0.3566608143775608 0  1.231388101663131 -0.5171287631363051 0  1.224079271250667 0.4254853469916929 0  1.354017115263469 0.2678186822058349 0  -0.7548185067425173 -0.8950923186407302 0  -0.9296012299620345 -0.7558564639873672 0  -0.9357238097341579 0.6662899564299536 0  -0.7591874220177613 0.7966669677938362 0  0.7854993359016371 -0.8838755448975927 0  0.5933756361442761 -0.9967251547768654 0  0.5876860461403932 0.8924392365516538 0  0.7785867330618755 0.7839829990005152 0  0.
[...]
<PointData  Vectors="f_4894"> 
<DataArray  type="Float64"  Name="f_4894"  NumberOfComponents="3" format="ascii">9.9768570747180696e-01 1.2628567402081634e-01 0.0000000000000000e+00  9.8389999640951809e-01 1.7802399825816947e-01 0.0000000000000000e+00  9.9496377526190360e-01 1.0964867195345880e-01 0.0000000000000000e+00  9.6515944522143049e-01 2.6805905665906032e-01 0.0000000000000000e+00  9.7972986601197687e-01 2.0468958384772226e-01 0.0000000000000000e+00  9.2188759705253676e-01 4.0098940071573413e-01 0.0000000000000000e+00  1.0248301844215886e+00 4.9284461352065108e-02 0.0000000000000000e+00  8.6113655094185104e-01 4.9897995192182054e-01 0.0000000000000000e+00  5.6694998101877814e-01 8.8382133165830323e-01 0.0000000000000000e+00  1.0413313374015127e+00 9.1129623358409934e-02 0.0000000000000000e+00  8.5323007041955357e-01 5.2196341969910087e-01 0.0000000000000000e+00  6.7137493777245350e-01 7.5623555201648229e-01 0.0000000000000000e+00  9.0638673261977976e-01 4.5141192622677628e-01 0.0000000000000000e+00  6.4205224326752330e-01 7.8770887560320602e-01 0.0000000000000000e+00  1.0235483951934032e+00 3.1985489563326142e-01 0.0000000000000000e+00  4.3415226837736626e-01 8.8604521192670782e-01 0.0000000000000000e+00  1.9380282782873445e-01 1.0188515449551241e+00 0.0000000000000000e+00  1.1408376922597450e+00 1.2830279576662212e-01 0.0000000000000000e+00  5.7427857981803165e-01 7.9733197691552471e-01 0.0000000000000000e+00  3.2203788980007508e-01 9.6293554427225914e-01 0.0000000000000000e+00  8.2473293751536614e-01 6.1291205414315231e-01 0.0000000000000000e+00  5.9981173088290252e-01 8.0100930836385542e-01 0.0000000000000000e+00  8.1596680019677648e-01 6.0854020688500199e-01 0.0000000000000000e+00  4.5600698345400992e-01 9.0157769111811625e-01 0.0000000000000000e+00  6.3475804992607843e-01 7.7269854096340285e-01 0.0000000000000000e+00  7.8335894599095635e-01 6.3816287240947156e-01 0.0000000000000000e+00  4.1186241022858039e-01 9.2964513539094873e-01 0.0000000000000000e+00  5.8639683701825607e-01 8.0942332126083139e-01 0.0000000000000000e+00  5.7703765562177534e-01 8.1720844916539559e-01 0.0000000000000000e+00  5.0120800983542402e-01 8.6572861747126839e-01 0.0000000000000000e+00  5.4077643625889737e-01 8.4189943325877337e-01 0.0000000000000000e+00  4.5557247231412312e-01 8.9071807129575764e-01 0.0000000000000000e+00  3.9057807316307580e-01 9.2096084123230293e-01 0.0000000000000000e+00  4.5254427929739544e-01 8.9264552560848909e-01 0.0000000000000000e+00  3.6384777181228617e-01 9.3186591555307108e-01 0.0000000000000000e+00  3.1100906603959039e-01 9.5048480965941262e-01 0.0000000000000000e+00  3.0383004985946876e-01 9.5287089838426642e-01 0.0000000000000000e+00  2.4112438059411664e-01 9.7080901570908784e-01 0.0000000000000000e+00  2.1832442714396180e-01 9.7621398311129060e-01 0.0000000000000000e+00  1.5646263874601668e-01 9.8283610527079501e-01 0.0000000000000000e+00  1.0235039922354412e-01 1.0304692495215677e+00 0.0000000000000000e+00  7.4146737361833914e-02 8.4577775498692909e-01 0.0000000000000000e+00  1.6017095738384723e-02 1.3759445410010536e+00 0.0000000000000000e+00  2.2421635961000160e-02 -1.3045166159984052e+00 0.0000000000000000e+00  7.5930320544323582e-02 -9.4549134684393976e-01 0.0000000000000000e+00  1.1992348010259958e-01 -9.9677053441354746e-01 0.0000000000000000e+00  1.6798417180427910e-01 -9.8665404430533177e-01 0.0000000000000000e+00  2.3042686372399016e-01 -9.7295281190045291e-01 0.0000000000000000e+00  2.5352752412989138e-01 -9.6744259730785931e-01 0.0000000000000000e+00  3.0062339871072286e-01 -9.5412614715622213e-01 0.0000000000000000e+00  3.8343792577500979e-01 -9.2389108106207662e-01 0.0000000000000000e+00  3.7953517573333190e-01 -9.2556049836036214e-01 0.0000000000000000e+00  4.7791850990873586e-01 -8.7938172440367202e-01 0.0000000000000000e+00  4.1384242906685359e-01 -9.1056359832808154e-01 0.0000000000000000e+00  4.6530380067063631e-01 -8.8697787593061905e-01 0.0000000000000000e+00  6.8718823298104037e-01 -7.3976646181223260e-01 0.0000000000000000e+00  4.4315757677618062e-01 -8.9988942354094825e-01 0.0000000000000000e+00  5.3908962039029784e-01 -8.4383959501334127e-01 0.0000000000000000e+00  7.1665057741266058e-01 -7.0472646236569447e-01 0.0000000000000000e+00  5.7151597229205142e-01 -8.2323104626435795e-01 0.0000000000000000e+00  7.1744040311281732e-01 -7.0116194670645371e-01 0.0000000000000000e+00  4.2315427284760904e-01 -9.4264531485711556e-01 0.0000000000000000e+00  8.5171520104905851e-01 -5.3044598953893429e-01 0.0000000000000000e+00  9.2024680186857644e-01 -4.1369945231172428e-01 0.0000000000000000e+00  2.6265157742072220e-01 -1.0584800563488088e+00 0.0000000000000000e+00  8.4377843854919454e-01 -5.6142860032887631e-01 0.0000000000000000e+00  7.2137654720329769e-01 -6.9158969082174016e-01 0.0000000000000000e+00  7.7405169478590996e-01 -6.3604098342123838e-01 0.0000000000000000e+00  6.8079567027007803e-01 -7.3003149284306346e-01 0.0000000000000000e+00  4.4956187072214476e-01 -9.0215101811485610e-01 0.0000000000000000e+00  1.1165317941009905e+00 -3.7173640268473096e-01 0.0000000000000000e+00  1.3023271691618335e-01 5.4600210355835810e-01 0.0000000000000000e+00  2.7791342051170309e-01 9.1988914971334157e-01 0.0000000000000000e+00  1.2086569543420045e+00 -4.3351404415530487e-01 0.0000000000000000e+00  7.0844638833008067e-01 -6.7724271725120100e-01 0.0000000000000000e+00  8.8321108186973607e-01 -4.8137555598480031e-01 0.0000000000000000e+00  9.3330002985967631e-01 -3.5534801951213185e-01 0.0000000000000000e+00  9.0319012633086071e-01 -4.4706010797823870e-01 0.0000000000000000e+00  1.0096592641884767e+00 -6.6769691907672360e-02 0.0000000000000000e+00  9.4409603916350693e-01 3.9765325774415389e-01 0.0000000000000000e+00  7.8869792600987243e-01 -8.2113631765085904e-01 0.0000000000000000e+00  1.0081606709786974e+00 1.9040648968260740e-01 0.0000000000000000e+00  8.5238541329479478e-01 5.6108884693845573e-01 0.0000000000000000e+00  9.9635989991743490e-01 1.7954752215849351e-01 0.0000000000000000e+00  9.7834577405454748e-01 -3.2318413164368054e-01 0.0000000000000000e+00  9.7600321514248423e-01 2.4658081771975668e-01 0.0000000000000000e+00  9.9414248081470458e-01 1.0204403505707532e-01 0.0000000000000000e+00  1.0059084112900154e+00 -1.9136011956539473e-01 0.0000000000000000e+00  8.2239475336327683e-01 8.0220983853627370e-01 0.0000000000000000e+00  8.9945559944367859e-01 -5.0242594600908597e-01 0.0000000000000000e+00  1.0034603163090707e+00 -6.0089615347274951e-02 0.0000000000000000e+00  9.4674594463065276e-01 3.5298958106032940e-01 0.0000000000000000e+00  9.6635507249566066e-01 2.5489297487706686e-01 0.0000000000000000e+00  8.9982878527244281e-01 4.4145932796798182e-01 0.0000000000000000e+00  7.4117950938740806e-01 7.0172309111455888e-01 0.0000000000000000e+00  1.0258775349016962e+00 1.5592995304038773e-01 0.0000000000000000e+00  8.0915086193372998e-01 5.3908460830146177e-01 0.0000000000000000e+00  2.5789655196998695e-01 1.0445311401140760e+00 0.0000000000000000e+00  9.6072889129094041e-01 4.2633887388518821e-01 0.0000000000000000e+00  5.8285840268515421e-01 8.1849463796143984e-01 0.0000000000000000e+00  6.7337512272200362e-01 7.3946102946131254e-01 0.0000000000000000e+00  7.9755071360183860e-01 6.0786733639206358e-01 0.0000000000000000e+00  7.1350991824832000e-01 7.0069479659878797e-01 0.0000000000000000e+00  8.4534561833729216e-01 5.5796316362482845e-01 0.0000000000000000e+00  3.7307357798415325e-01 9.8699384003716883e-01 0.0000000000000000e+00  8.6853319622667091e-01 5.0335262738706443e-01 0.0000000000000000e+00  8.6160999374147806e-01 5.1722563208143013e-01 0.0000000000000000e+00  5.1819214028394833e-01 8.8016661160073195e-01 0.0000000000000000e+00  7.1292336020304914e-01 7.0162933048037524e-01 0.0000000000000000e+00  6.4480156631716801e-01 7.6488943661568032e-01 0.0000000000000000e+00  6.4377402260627348e-01 7.6482098889096140e-01 0.0000000000000000e+00  6.6715303932831749e-01 7.4753590033321149e-01 0.0000000000000000e+00  4.8523326635276015e-01 8.7965139484148835e-01 0.0000000000000000e+00  6.3219057248879851e-01 7.7537331598783010e-01 0.0000000000000000e+00  6.2990001745985080e-01 7.7926487128639432e-01 0.0000000000000000e+00  4.2131385152318163e-01 9.1127443903568417e-01 0.0000000000000000e+00  4.9238653257888659e-01 8.7056102046982609e-01 0.0000000000000000e+00  3.9899530716263154e-01 9.1738192148010911e-01 0.0000000000000000e+00  4.2193061861896541e-01 9.0738662952588145e-01 0.0000000000000000e+00  3.1582236949485420e-01 9.4948179936828159e-01 0.0000000000000000e+00  2.3884469928760965e-01 9.7144066352040281e-01 0.0000000000000000e+00  2.6572553328282589e-01 9.6407603766845185e-01 0.0000000000000000e+00  1.7222360508051671e-01 9.8588357770464830e-01 0.0000000000000000e+00  1.1898734046713132e-01 1.0016523331673388e+00 0.0000000000000000e+00  8.7333075004143113e-02 9.1688073657803149e-01 0.0000000000000000e+00  1.7873477130023626e-02 1.3647011163448062e+00 0.0000000000000000e+00  1.9456842773558660e-02 -1.4176428922957700e+00 0.0000000000000000e+00  8.4423625673804806e-02 -8.7649016937373747e-01 0.0000000000000000e+00  1.3744477689227402e-01 -1.0117696822601532e+00 0.0000000000000000e+00  1.8126651168077049e-01 -9.8211567645645437e-01 0.0000000000000000e+00  2.2860084153885352e-01 -9.7325640427207383e-01 0.0000000000000000e+00  2.6350346384577678e-01 -9.6501914139610689e-01 0.0000000000000000e+00  3.2478157659142010e-01 -9.4595880024176937e-01 0.0000000000000000e+00  3.2890713275659100e-01 -9.4441264600243391e-01 0.0000000000000000e+00  3.7814814799311108e-01 -9.2616884070673067e-01 0.0000000000000000e+00  4.7195512206102624e-01 -8.8278274671676926e-01 0.0000000000000000e+00  3.9132603324644788e-01 -9.2093992934939606e-01 0.0000000000000000e+00  4.6760077152616464e-01 -8.8453756592401145e-01 0.0000000000000000e+00  5.5762054245069992e-01 -8.3104459606391434e-01 0.0000000000000000e+00  5.1957677469436703e-01 -8.5459482154785382e-01 0.0000000000000000e+00  5.7703854248799191e-01 -8.1701072758829441e-01 0.0000000000000000e+00  5.9390682068245459e-01 -8.0449719156983401e-01 0.0000000000000000e+00  5.1815103818774078e-01 -8.5853007741282394e-01 0.0000000000000000e+00  6.8229461607216713e-01 -7.3391068597494391e-01 0.0000000000000000e+00  6.2952169470830310e-01 -7.7663540675621079e-01 0.0000000000000000e+00  5.7204990950974044e-01 -8.2339201642819193e-01 0.0000000000000000e+00  7.4307424524989052e-01 -6.7410203582610484e-01 0.0000000000000000e+00  6.4847566029485049e-01 -7.6237741289989303e-01 0.0000000000000000e+00  7.6752538684119320e-01 -6.4840068700002784e-01 0.0000000000000000e+00  5.4234461590822125e-01 -8.4996927705704839e-01 0.0000000000000000e+00  7.3168788366370219e-01 -6.8240783971767716e-01 0.0000000000000000e+00  9.5219438441242743e-01 -3.9504670798801578e-01 0.0000000000000000e+00  3.9761177958278404e-01 -9.5574968305284580e-01 0.0000000000000000e+00  6.7888341983246714e-01 -7.3442719453011318e-01 0.0000000000000000e+00  8.9162454678745617e-01 -4.7770684502492611e-01 0.0000000000000000e+00  7.1994949839536071e-01 -7.0185891120503674e-01 0.0000000000000000e+00  8.6892310931404104e-01 -5.0079500070960337e-01 0.0000000000000000e+00  7.6048550041316842e-01 -6.5893036583445852e-01 0.0000000000000000e+00  9.1140537545271139e-01 -4.1583187763053031e-01 0.0000000000000000e+00  9.5282903225686943e-01 -3.2266742457478204e-01 0.0000000000000000e+00  6.6339568763676693e-01 -7.9669047645013547e-01 0.0000000000000000e+00  9.3334621601625933e-01 -3.7124063553074454e-01 0.0000000000000000e+00  9.8132602955572923e-01 -2.0256584578583328e-01 0.0000000000000000e+00  9.5176189490839425e-01 -3.0993487022146488e-01 0.0000000000000000e+00  9.8006530551437365e-01 -2.0111106433033565e-01 0.0000000000000000e+00  9.8823332586336632e-01 -1.5387194881869043e-01 0.0000000000000000e+00  9.7900856134496861e-01 -2.0027238081210783e-01 0.0000000000000000e+00  9.8358170499742426e-01 -2.2118198373267470e-01 0.0000000000000000e+00  1.4074795938285953e-01 -9.9594533491791970e-01 0.0000000000000000e+00  6.4009907998063242e-01 -7.6862251998239151e-01 0.0000000000000000e+00  7.7945070627454294e-01 6.2681320210347913e-01 0.0000000000000000e+00  1.0819563169739357e-01 1.0139062336761773e+00 0.0000000000000000e+00  6.4381023923589831e-01 7.6554555755921716e-01 0.0000000000000000e+00  9.5135426815838953e-01 3.0914823136228875e-01 0.0000000000000000e+00  7.6864451955677238e-01 -6.4003612212289507e-01 0.0000000000000000e+00  1.0000465519375323e+00 -2.6030957087053525e-02 0.0000000000000000e+00  9.6008265749585830e-01 -2.8074487282356542e-01 0.0000000000000000e+00  9.0041633693111356e-01 4.3561620406331059e-01 0.0000000000000000e+00  1.0005695203508240e+00 1.1016191595435286e-03 0.0000000000000000e+00  9.3765335721092213e-01 3.5000149510104323e-01 0.0000000000000000e+00  8.7131191956347165e-01 -4.9135541664597149e-01 0.0000000000000000e+00  3.1188194298728600e-01 -9.5029100967982305e-01 0.0000000000000000e+00  4.4333521571509399e-01 -8.9033210948383112e-01 0.0000000000000000e+00  2.7737950152832674e-01 9.6080696599171556e-01 0.0000000000000000e+00  8.3977285715860317e-01 5.4604931939542867e-01 0.0000000000000000e+00  1.0009988527312539e+00 -1.8498398598452776e-02 0.0000000000000000e+00  5.0724111045434406e-01 8.6205059343834378e-01 0.0000000000000000e+00  5.2267464747793724e-01 -8.5278734634393460e-01 0.0000000000000000e+00  7.5102630460435160e-01 -6.6243748354149046e-01 0.0000000000000000e+00  8.6073688088642186e-01 -5.0959330060723551e-01 0.0000000000000000e+00  8.4948134632112293e-01 5.2823591353256993e-01 0.0000000000000000e+00  8.0655537652167453e-01 -5.9264280303722305e-01 0.0000000000000000e+00  8.4806398703304881e-03 -6.5647794410333049e-01 0.0000000000000000e+00  9.2034989304348669e-01 -3.9255668249251330e-01 0.0000000000000000e+00  6.4840009645417462e-01 7.6467576918921953e-01 0.0000000000000000e+00  1.0003357548901093e+00 2.5163498357483054e-03 0.0000000000000000e+00  1.0001760187262123e+00 1.4194751502090121e-02 0.0000000000000000e+00  7.7096203612292569e-01 -6.3737372223100242e-01 0.0000000000000000e+00  9.4658658111017502e-01 -3.2421353866641833e-01 0.0000000000000000e+00  8.6550607671425561e-01 -5.0243239213997704e-01 0.0000000000000000e+00  9.5921028074328063e-01 -2.8653306803721967e-01 0.0000000000000000e+00  7.0107146105741069e-01 -7.1385417499086834e-01 0.0000000000000000e+00  9.6104868445203018e-01 -2.7754927514503064e-01 0.0000000000000000e+00  1.0005260990685916e+00 -6.2650982742971512e-03 0.0000000000000000e+00  9.6267645870570517e-01 -2.7215490587171515e-01 0.0000000000000000e+00  9.6354766999079555e-01 -2.6938946036644223e-01 0.0000000000000000e+00  1.0000948963747296e+00 -2.1712577811205076e-02 0.0000000000000000e+00  9.6901428274979651e-01 2.4854452402610031e-01 0.0000000000000000e+00  9.7923475229336532e-01 2.0466031713539803e-01 0.0000000000000000e+00  9.5739125895211563e-01 2.9067271578158316e-01 0.0000000000000000e+00  9.9756095186434923e-01 7.1552606222684889e-02 0.0000000000000000e+00  9.9745026283026306e-01 -7.5650565657977412e-02 0.0000000000000000e+00  9.1833297608290265e-01 -3.9863623277989679e-01 0.0000000000000000e+00  2.6279167756123839e-01 9.6374285041325969e-01 0.0000000000000000e+00  5.3388369748700537e-01 8.4613862849996047e-01 0.0000000000000000e+00  3.1781588952858497e-01 9.4836446769179417e-01 0.0000000000000000e+00  8.5892631874921010e-01 5.1502552181981265e-01 0.0000000000000000e+00  7.1148824591369952e-01 7.0336845547740756e-01 0.0000000000000000e+00  8.4051941623227600e-01 5.4272585991205036e-01 0.0000000000000000e+00  7.3336930126165178e-01 -6.8112635994900605e-01 0.0000000000000000e+00  5.1070385252629247e-01 -8.6020172821716567e-01 0.0000000000000000e+00  6.9111271261310026e-01 -7.2482140621559565e-01 0.0000000000000000e+00  3.2982600246481214e-01 -9.4464618681811841e-01 0.0000000000000000e+00  8.3500594906051639e-01 -5.5067979438062553e-01 0.0000000000000000e+00  9.2825539218958497e-01 -3.7333589874844142e-01 0.0000000000000000e+00  9.3132528475358811e-01 -3.6489466846584701e-01 0.0000000000000000e+00  8.5396935066985658e-01 -5.2082939956300911e-01 0.0000000000000000e+00  8.2371888579872832e-01 5.6752432606892877e-01 0.0000000000000000e+00  9.1604022438256894e-01 4.0183279548619205e-01 0.0000000000000000e+00  6.5837986427738560e-01 7.5281352568236792e-01 0.0000000000000000e+00  7.5580369103826606e-01 6.5496867180441254e-01 0.0000000000000000e+00  7.3104019109770546e-01 -6.8257497213485452e-01 0.0000000000000000e+00  6.3197062517687141e-01 -7.7512596604002282e-01 0.0000000000000000e+00  6.3005841122962392e-01 -7.7666977606456533e-01 0.0000000000000000e+00  5.0495220616762315e-01 -8.6325911662229904e-01 0.0000000000000000e+00  5.0160833563830531e-01 8.6521872129639366e-01 0.0000000000000000e+00  6.2354744718033683e-01 7.8185312655631178e-01 0.0000000000000000e+00  4.8737979845371437e-03 -8.8520123703751963e-01 0.0000000000000000e+00  1.9232040620016677e-01 9.8336245232041131e-01 0.0000000000000000e+00  1.9704034023733857e-01 -9.8237189672656133e-01 0.0000000000000000e+00  -6.0295799509071869e-04 -1.8407070122224164e-01 0.0000000000000000e+00  4.9094333146430597e-01 -8.7141285972094529e-01 0.0000000000000000e+00  9.8006464007467320e-01 2.0570228500796747e-01 0.0000000000000000e+00  8.7990868679929124e-01 4.7695125375860392e-01 0.0000000000000000e+00  7.0886754650209927e-01 7.0636751389260244e-01 0.0000000000000000e+00  8.4329085252619462e-01 5.3836987420981175e-01 0.0000000000000000e+00  9.8986541076619217e-01 1.4642743418537535e-01 0.0000000000000000e+00  9.3110741809733100e-01 3.6606823624958351e-01 0.0000000000000000e+00  5.7626366171213883e-01 8.1829751444495780e-01 0.0000000000000000e+00  8.6997203673051138e-01 -8.1739487091681406e-01 0.0000000000000000e+00  9.9820523855671650e-01 -1.2022472914341410e-01 0.0000000000000000e+00  7.9244958759793571e-01 6.1013036565701917e-01 0.0000000000000000e+00  7.5760136549432922e-01 -6.5287326807137247e-01 0.0000000000000000e+00  8.5381354303928758e-01 5.2101041650022550e-01 0.0000000000000000e+00  9.4976095193123344e-01 3.1494899434499340e-01 0.0000000000000000e+00  7.6725591391625947e-01 6.4187999071465152e-01 0.0000000000000000e+00  9.5893085683054902e-01 2.8489591848658607e-01 0.0000000000000000e+00  4.7918767783833682e-01 8.7826228565291176e-01 0.0000000000000000e+00  4.8270478596435040e-01 8.7604236032436889e-01 0.0000000000000000e+00  1.9933134955054256e-02 -1.1800388026393336e+00 0.0000000000000000e+00  1.0652345308735071e-01 -1.0069423620764402e+00 0.0000000000000000e+00  5.9657620304838688e-01 -8.0314059754491574e-01 0.0000000000000000e+00  3.7155069751804487e-01 -9.2899315017693318e-01 0.0000000000000000e+00  3.4694098189591605e-01 -9.3810013404563297e-01 0.0000000000000000e+00  9.9491249608001953e-01 -1.1922346833041858e-01 0.0000000000000000e+00  1.4093453525536578e-01 1.2834483248553903e+00 0.0000000000000000e+00  3.7298613551068238e-01 -9.2795286769887975e-01 0.0000000000000000e+00  1.9421030634787043e-01 -9.8162142219734094e-01 0.0000000000000000e+00  1.7106423362247933e-01 9.8727119178289058e-01 0.0000000000000000e+00  3.5347533922453162e-01 9.3557392719870391e-01 0.0000000000000000e+00  1.0136526990943193e+00 -1.6793080066663804e-01 0.0000000000000000e+00  1.9937116920998560e-01 1.0005321415133406e+00 0.0000000000000000e+00  7.0058764587288130e-02 9.3387471779052145e-01 0.0000000000000000e+00  3.6803494445786644e-01 9.2996983006926981e-01 0.0000000000000000e+00  5.4053084818425579e-01 8.4146348526846904e-01 0.0000000000000000e+00  6.6653155211837978e-01 7.4576384465809820e-01 0.0000000000000000e+00  5.1819669413841285e-01 -8.5539174678829966e-01 0.0000000000000000e+00  3.6373124396415046e-01 -9.3164151147694996e-01 0.0000000000000000e+00  6.6612302091471709e-01 -7.4613531220697427e-01 0.0000000000000000e+00  9.8550602955597755e-01 -1.7298645327334133e-01 0.0000000000000000e+00  8.3610318288939578e-01 -5.4936244881015739e-01 0.0000000000000000e+00  1.0003396747381001e+00 1.3965809795214067e-02 0.0000000000000000e+00  9.7295