<?xml version="1.0"?>
<VTKFile type="UnstructuredGrid"  version="0.1"  >
<UnstructuredGrid>
<Piece  NumberOfPoints="2549" NumberOfCells="4928">
<Points>
<DataArray  type="Float64"  NumberOfComponents="3"  format="ascii">1.654968721301295 -0.0414305026356734 0  1.649881996161928 0.004441165887254635 0  1.637510216677464 0.04486869557789747 0  1.629145009036753 0.08869703654181618 0  1.617609735008415 0.1320319912993031 0  1.605356132066668 0.1773520907764659 0  1.588833669700942 0.2221750184757429 0  1.574678119369718 0.2701454835916547 0  1.545708328502425 0.3141095528690343 0  1.515375722039668 0.337875235695295 0  1.496732066850011 0.3948027669871815 0  1.46580600442086 0.4344290585709065 0  1.435991593983637 0.4782884536727182 0  1.403034609741061 0.5188761693167746 0  1.368879204892598 0.5581403136599157 0  1.334947275655398 0.5998509779172927 0  1.291591501398051 0.6347098089569359 0  1.254989708250082 0.6542173320090857 0  1.219553304804916 0.7028436481938516 0  1.17919794216902 0.7373218456431533 0  1.138697313792127 0.7753871262296759 0  1.096540704059597 0.811053022907836 0  1.053649833721384 0.8465077148862732 0  1.010202397777145 0.8827606603612527 0  0.9626124316196549 0.9180387073002779 0  0.9160871631457553 0.9437624509646797 0  0.8695965282894607 0.9755428932134856 0  0.8215887270553762 1.006142496095015 0  0.7724952150730255 1.035901254921929 0  0.7222935372335589 1.064534459267102 0  0.6710557691421623 1.091733748991892 0  0.6189511410990317 1.11800168185022 0  0.564910066812916 1.141565794011128 0  0.5114416157695341 1.161902283506422 0  0.4566305400013499 1.182918609515399 0  0.401091109257407 1.200885119152173 0  0.3448784154221791 1.216953722085721 0  0.2881376216129668 1.230736019578831 0  0.2309168574751261 1.242191582969275 0  0.1734171383693104 1.251773474044997 0  0.1150901473698032 1.25801378231793 0  0.05746246549014003 1.262006611417128 0  -0.0007563610025277604 1.264790549067546 0  -0.05898774184910028 1.264734099984353 0  -0.1172803153600678 1.262452362416507 0  -0.1755199355822942 1.257562624209756 0  -0.2335619181249877 1.250325736776114 0  -0.2913906734666981 1.239841903720291 0  -0.3483087148622907 1.228525836498457 0  -0.4059947858480411 1.213975607961907 0  -0.4622703570100836 1.195641461518549 0  -0.517825960264503 1.17519699051717 0  -0.5724253633887376 1.152342072403805 0  -0.6259708418230671 1.127089595132003 0  -0.6783494423074354 1.100538265444928 0  -0.7293707694709261 1.069886357821093 0  -0.7783044782144363 1.044974291838955 0  -0.8296346995152193 1.01413051640859 0  -0.8769921480698312 0.9799535364173415 0  -0.9235203955706398 0.9461467372151893 0  -0.9689634121526622 0.9118125743313398 0  -1.013005709707776 0.8754344777808036 0  -1.056249133456664 0.8418169537686129 0  -1.096834176169735 0.7967448047715572 0  -1.134207552073474 0.7710439347285259 0  -1.178541840245821 0.7411668587976394 0  -1.216881525192669 0.7047063099114059 0  -1.255318169163725 0.6712042387707572 0  -1.292677645214955 0.6365155178782776 0  -1.330566259026944 0.606389961263082 0  -1.36547945812689 0.5685310060705314 0  -1.40937998056103 0.5610194032753927 0  -1.458365254008974 0.5186753261886601 0  -1.471629487657176 0.4477402283918387 0  -1.506217436694652 0.4081770677042547 0  -1.53017470314853 0.3592497613626812 0  -1.557182141456172 0.3134238455039881 0  -1.57051844682945 0.2573422072622031 0  -1.593614005020362 0.2165791881077571 0  -1.577981844160112 0.1422442719237222 0  -1.603726173678386 0.1307898662179017 0  -1.625746938239356 0.080918406629998 0  -1.59357644920735 0.03334134746259249 0  -1.602163837273943 -0.006576213450548728 0  -1.59293485984525 -0.04451441688164095 0  -1.604656859145513 -0.08245468085520084 0  -1.597079834231911 -0.1229010253609168 0  -1.633627287087065 -0.1712671920178331 0  -1.611509382351591 -0.2221482082064088 0  -1.585979484475455 -0.2318978021018017 0  -1.605639555119003 -0.3108832964543383 0  -1.582306332122401 -0.3521668328531842 0  -1.56993781449516 -0.4103587581013717 0  -1.542632567781647 -0.4571632897475153 0  -1.518305843525312 -0.5069484782133079 0  -1.481910110572376 -0.5456681645538815 0  -1.469257719027018 -0.615665335867704 0  -1.422410891357435 -0.6641390000478766 0  -1.377161808611563 -0.6691885622860356 0  -1.34268441452715 -0.7084012448496353 0  -1.304736256715811 -0.7385290319129352 0  -1.267744034634373 -0.7739694292234405 0  -1.229580207610538 -0.8081269550952671 0  -1.191655085343041 -0.8455409730454215 0  -1.147705285325042 -0.8755658232520229 0  -1.111479748999527 -0.9022578728693594 0  -1.071517015220202 -0.9519171012034923 0  -1.028533440222872 -0.9872457314771366 0  -0.984849655068697 -1.02634264595909 0  -0.9397675297762736 -1.063228316165402 0  -0.8935167918020746 -1.099768912527173 0  -0.8460948140770397 -1.136316449397145 0  -0.7959925475963481 -1.168547444195192 0  -0.7481134356092414 -1.200037837821456 0  -0.69585333785 -1.238300775035997 0  -0.6422891237090527 -1.268027226475882 0  -0.5874113623630943 -1.297175899430788 0  -0.5313703102838775 -1.322962047072604 0  -0.4742262072114949 -1.346020328404425 0  -0.4163469238023846 -1.366993070125025 0  -0.3561983785938408 -1.382704842880673 0  -0.2979983082859942 -1.394061106428458 0  -0.2384878138845726 -1.406061793958866 0  -0.1786239722077701 -1.414143511775849 0  -0.1184285896392466 -1.419616596555985 0  -0.05807061771354357 -1.421994343469281 0  0.002311240670603197 -1.42146877384787 0  0.06266338886773566 -1.417803226793961 0  0.1228136367650088 -1.410823279606315 0  0.1821847764318726 -1.401170436707957 0  0.2411614852333623 -1.389347237210253 0  0.2996209344846276 -1.375013261640925 0  0.3574587718399833 -1.358351340887714 0  0.4145818985644499 -1.339218512487642 0  0.4708143138441115 -1.318434153543262 0  0.5261532992860742 -1.293854144439352 0  0.5794922833930982 -1.272897409817299 0  0.6349859447724491 -1.246968224082663 0  0.6873054722117777 -1.217353576936681 0  0.7387818052342565 -1.187479462437087 0  0.7891380347044715 -1.156251765725005 0  0.8382970822952371 -1.124060442172692 0  0.8863017698962741 -1.091121297048951 0  0.932731950470744 -1.05735671637437 0  0.979289719247322 -1.029672295304463 0  1.02670619896313 -0.9922123852493083 0  1.070062213995105 -0.9541530997923691 0  1.112775913868949 -0.9168796963078999 0  1.154763689518013 -0.8795322090306825 0  1.195015563880605 -0.8396944932367948 0  1.235182360064408 -0.8038568089578416 0  1.270162612227472 -0.7528748224111588 0  1.306257220890899 -0.732626983962373 0  1.349485569457414 -0.6968764915743333 0  1.383058793782296 -0.6539185488243218 0  1.416894679475788 -0.6135630978124452 0  1.449485239390975 -0.571836219258944 0  1.478853781989861 -0.5267805263173649 0  1.509446125609567 -0.4862244186514148 0  1.527224860674571 -0.4275763617603835 0  1.55728514249567 -0.4035914790352085 0  1.585576873929421 -0.3584106350083923 0  1.598623770345739 -0.3092358629903213 0  1.614090610662321 -0.2633436488151327 0  1.625119658388044 -0.2169984805494989 0  1.634783451128176 -0.1724891070898303 0  1.642083645790792 -0.1282510378768627 0  1.650740919859949 -0.08643013050957954 0  -0.103557375867331 0.7488004072853137 0  0.6127144780407794 -0.704271836628876 0  -0.7703940855752542 -0.6224191653314184 0  -0.08108096355649318 -0.8736370970987706 0  0.6073855242727035 0.584399721786595 0  1.179000902546041 0.1907883717487655 0  -0.7813367675665008 0.4967387532460963 0  -1.268788461660155 -0.05305153555430438 0  1.185471755708007 -0.2895405036343351 0  -1.07506146969551 -0.4562648110168055 0  -0.8261094241889394 -0.06994729031487464 0  -0.4929870995173276 -0.2397579727951144 0  -1.083400644179429 0.3306348607673376 0  0.2829667524363039 -0.8477326134537044 0  0.1362964903097733 -0.2974769383571637 0  0.2463645851142552 0.7121411717392439 0  0.3435206949632667 0.1791738317015433 0  0.6689854842191136 -0.0539300869226628 0  -0.4236577696836326 -0.7725174717810011 0  -0.4588767805450898 0.6619556841785754 0  -0.2856979399326212 0.2321191402641349 0  0.9308271251642787 -0.4875757816790594 0  0.924498323469342 0.3816245910601741 0  0.4131710064684349 -0.3254927488329425 0  0.02691702639887533 0.2270851980583044 0  -0.5577836367098115 0.1751953291647659 0  -0.1810656410305722 -0.2914221039083025 0  0.9610180912308822 -0.05153116518292861 0  1.374671775591139 -0.04640841495251858 0  0.7721585379640795 -0.5930770704488416 0  0.7913926619922289 -0.2789556070880061 0  0.6323006054426265 -0.376000474100711 0  0.5398844051906744 -0.1861099049276552 0  0.507371241292761 -0.5194873123958839 0  0.9393147304299605 -0.2681604304269964 0  0.8145169727230387 -0.05270133115133116 0  -0.9461094960883927 0.13795246007402 0  -1.17376765664757 0.1384833875600847 0  -1.052538957356107 -0.06059900274824595 0  -0.9416897492400548 -0.2704869991135176 0  -1.17126141355093 -0.2538321908492915 0  -1.354488279644373 -0.3520455126476842 0  -1.42897172407683 -0.1637702330497586 0  -1.42467214088724 0.06401101506605358 0  -1.345477677919145 0.2494051162744781 0  -0.1316526287441283 -0.5820244324096168 0  -0.2962234989266712 -0.5369224665690278 0  -0.2536213764242202 -0.8288646874092408 0  -0.3362873882659962 -0.2668914674183946 0  -0.4547967204470845 -0.5031669307060711 0  -1.27240407101605 -0.5411426354665106 0  -1.269760610865991 0.4306571772988085 0  0.346917725230015 -0.5840063028641274 0  0.2738597708173829 -0.3130251203046701 0  0.2043658037052952 -0.5753603349225762 0  -0.9313998441360125 0.4085309660779993 0  -0.7955472039518586 0.2114562843420779 0  1.374395886240288 -0.3623925297350268 0  1.242603743074287 -0.5232408757221221 0  1.231626866771749 0.4247527253835759 0  1.365011749923794 0.2682594353878069 0  -0.770784997951048 -0.8993090876376371 0  -0.9528758434549401 -0.7666292045667318 0  -0.9518846157890626 0.6508027457249671 0  -0.7702565939936221 0.7727858322788562 0  0.7858131890081712 -0.8817774966284549 0  0.589985601930349 -0.9893926323550437 0  0.5810300453178624 0.864655529296418 0  0.7754514429977515 0.7658968743000253 0  0.009903551034100341 
[...]
<PointData  Vectors="f_2208"> 
<DataArray  type="Float64"  Name="f_2208"  NumberOfComponents="3" format="ascii">1.0034849049579131e+00 -1.8102898071554062e-03 0.0000000000000000e+00  9.7577484301106210e-01 2.3725457327321789e-01 0.0000000000000000e+00  9.6883594411923168e-01 2.4736658177242635e-01 0.0000000000000000e+00  9.7825666334216288e-01 2.0773546280313443e-01 0.0000000000000000e+00  9.6670234256338716e-01 2.5688673885854896e-01 0.0000000000000000e+00  9.4873245346473778e-01 3.1688543779468353e-01 0.0000000000000000e+00  9.5321226186082464e-01 2.9965333373950004e-01 0.0000000000000000e+00  9.3775101144964701e-01 3.6700434164438539e-01 0.0000000000000000e+00  6.7600237595878854e-01 7.6559249435404841e-01 0.0000000000000000e+00  8.7148581705649342e-01 4.9157912599256387e-01 0.0000000000000000e+00  9.1764553285759942e-01 4.0618422743864357e-01 0.0000000000000000e+00  7.7754944370270984e-01 6.3434059015652555e-01 0.0000000000000000e+00  8.2201815316299487e-01 5.6982923744848002e-01 0.0000000000000000e+00  7.4816227868956042e-01 6.6487844668975382e-01 0.0000000000000000e+00  7.7715380764006137e-01 6.2892360444363593e-01 0.0000000000000000e+00  7.3595772387663905e-01 6.8098327531501801e-01 0.0000000000000000e+00  4.8520506012795844e-01 8.8905656016926993e-01 0.0000000000000000e+00  7.0370412244700575e-01 7.1193398417000209e-01 0.0000000000000000e+00  7.7020188010348867e-01 6.4095761229731918e-01 0.0000000000000000e+00  6.3901657723386129e-01 7.7138152025493090e-01 0.0000000000000000e+00  6.8079158866836686e-01 7.3250583226428367e-01 0.0000000000000000e+00  6.3151715767977834e-01 7.7571307736481576e-01 0.0000000000000000e+00  6.4195205317594317e-01 7.6656483788503194e-01 0.0000000000000000e+00  6.3445172715630005e-01 7.7389447614240514e-01 0.0000000000000000e+00  5.2646035474748665e-01 8.5132193733681816e-01 0.0000000000000000e+00  5.1530734359201225e-01 8.5722920875207176e-01 0.0000000000000000e+00  5.6669059201003824e-01 8.2426114349709312e-01 0.0000000000000000e+00  5.2278802687214598e-01 8.5256118951577120e-01 0.0000000000000000e+00  5.0954921127272135e-01 8.6048496486108617e-01 0.0000000000000000e+00  4.8041556867514312e-01 8.7709732049563838e-01 0.0000000000000000e+00  4.6179268413063573e-01 8.8704135820750851e-01 0.0000000000000000e+00  4.2948404939058027e-01 9.0330676610286975e-01 0.0000000000000000e+00  3.6975606884588424e-01 9.2931964117438348e-01 0.0000000000000000e+00  3.5834070032954451e-01 9.3357358607193797e-01 0.0000000000000000e+00  3.3789655981458488e-01 9.4132986594823209e-01 0.0000000000000000e+00  2.8809840867623987e-01 9.5774052677640309e-01 0.0000000000000000e+00  2.5760115923970373e-01 9.6628939203507547e-01 0.0000000000000000e+00  2.1419352929342944e-01 9.7704456002053575e-01 0.0000000000000000e+00  1.8277365670479959e-01 9.8354141562621467e-01 0.0000000000000000e+00  1.3672710295836077e-01 9.8503612303048316e-01 0.0000000000000000e+00  8.2262714492770686e-02 1.0350053073877916e+00 0.0000000000000000e+00  6.1982707753537085e-02 8.3662628038335729e-01 0.0000000000000000e+00  1.8097313181307521e-02 1.4259520731350248e+00 0.0000000000000000e+00  1.6981183397522803e-02 -1.2792551729726978e+00 0.0000000000000000e+00  6.1655865829223701e-02 -9.4742205639646404e-01 0.0000000000000000e+00  1.0169840536291451e-01 -9.9951031458226636e-01 0.0000000000000000e+00  1.5416971147982927e-01 -9.8856531884703525e-01 0.0000000000000000e+00  1.8826406053454686e-01 -9.8190836126589465e-01 0.0000000000000000e+00  2.1287993067643388e-01 -9.7736800146538350e-01 0.0000000000000000e+00  2.7991340329975689e-01 -9.6029197853907700e-01 0.0000000000000000e+00  3.3050016234156154e-01 -9.4392657375269906e-01 0.0000000000000000e+00  3.6337690275571877e-01 -9.3177687276293630e-01 0.0000000000000000e+00  4.1061611234341311e-01 -9.1190565720837413e-01 0.0000000000000000e+00  4.3235904530221386e-01 -9.0191090326043066e-01 0.0000000000000000e+00  4.9581441208946675e-01 -8.6874629022790306e-01 0.0000000000000000e+00  4.8808065966276132e-01 -8.7266680367723526e-01 0.0000000000000000e+00  4.6602019899303943e-01 -8.8566014093367917e-01 0.0000000000000000e+00  5.6030356539685200e-01 -8.2886337154080225e-01 0.0000000000000000e+00  5.9303213784843600e-01 -8.0519613249830035e-01 0.0000000000000000e+00  5.8673793410414710e-01 -8.0995626547166921e-01 0.0000000000000000e+00  6.3178203037994252e-01 -7.7521684404804780e-01 0.0000000000000000e+00  6.0587790653502993e-01 -7.9655648491294007e-01 0.0000000000000000e+00  6.9929482063157700e-01 -7.1553867166800833e-01 0.0000000000000000e+00  6.9746621714857471e-01 -7.1845459794056232e-01 0.0000000000000000e+00  5.1115737221185453e-01 -8.6617102993442607e-01 0.0000000000000000e+00  6.4015946586092076e-01 -7.6864889387810043e-01 0.0000000000000000e+00  6.8120876853982071e-01 -7.3218679667141018e-01 0.0000000000000000e+00  6.7614401485118458e-01 -7.3683517798356313e-01 0.0000000000000000e+00  6.2548363451059119e-01 -7.8073872302508396e-01 0.0000000000000000e+00  7.3791291402455939e-01 -6.8526716050952985e-01 0.0000000000000000e+00  4.6999173689031692e-01 -8.8019089767715730e-01 0.0000000000000000e+00  3.6972023764706452e-01 -9.7228507299716715e-01 0.0000000000000000e+00  9.3687790735442211e-01 -4.0392742074843596e-01 0.0000000000000000e+00  9.3629446282505524e-01 -3.4447783155526424e-01 0.0000000000000000e+00  7.9654576670782473e-01 -6.1611336276428186e-01 0.0000000000000000e+00  8.8370186480577761e-01 -4.7022722907179271e-01 0.0000000000000000e+00  9.4370900729411900e-01 -3.2888906957344444e-01 0.0000000000000000e+00  9.1685927583958560e-01 -4.1837613945364810e-01 0.0000000000000000e+00  1.0051676377779850e+00 -4.5891042345630816e-02 0.0000000000000000e+00  9.7887737585663182e-01 2.4944949194972793e-01 0.0000000000000000e+00  7.6983386845713064e-01 -8.9768334311626785e-01 0.0000000000000000e+00  9.9052646680570433e-01 2.3495380339608396e-01 0.0000000000000000e+00  9.3812124519132789e-01 3.4656824999498581e-01 0.0000000000000000e+00  1.0075215028080169e+00 -4.7401434130085351e-02 0.0000000000000000e+00  9.9657980109529920e-01 -4.1832937912444253e-02 0.0000000000000000e+00  1.0098406679634440e+00 1.3211574725654342e-02 0.0000000000000000e+00  9.1587704714574436e-01 -4.0422294873921144e-01 0.0000000000000000e+00  9.7891658923672509e-01 -2.7275975666712748e-01 0.0000000000000000e+00  7.8799373904408654e-01 9.0462459443845111e-01 0.0000000000000000e+00  9.5661330690769530e-01 -3.4383727543032977e-01 0.0000000000000000e+00  1.0075721120155561e+00 2.2160183022764179e-02 0.0000000000000000e+00  9.2272652834875524e-01 4.0544922879316231e-01 0.0000000000000000e+00  9.4990591350014864e-01 3.1067443499002662e-01 0.0000000000000000e+00  8.8580344753509133e-01 4.6707317487242317e-01 0.0000000000000000e+00  7.8571464733051399e-01 6.3015547052088361e-01 0.0000000000000000e+00  9.2280432922586486e-01 3.7082442399903454e-01 0.0000000000000000e+00  9.5978102428473977e-01 3.6426351318629946e-01 0.0000000000000000e+00  4.0614202006513778e-01 9.4653315788230619e-01 0.0000000000000000e+00  4.3471445119989527e-01 8.9981635891219991e-01 0.0000000000000000e+00  7.5546804258707723e-01 6.7004214120998817e-01 0.0000000000000000e+00  6.2682707684365946e-01 7.7970761322686633e-01 0.0000000000000000e+00  6.8853111875691053e-01 7.2536355564962829e-01 0.0000000000000000e+00  6.9321852048458343e-01 7.2087364604533488e-01 0.0000000000000000e+00  6.4920074793881799e-01 7.6071661989341000e-01 0.0000000000000000e+00  5.2244235820047380e-01 8.6136873174118778e-01 0.0000000000000000e+00  7.3781136632756106e-01 6.7787201356254556e-01 0.0000000000000000e+00  7.2942996847311237e-01 6.8476668310788269e-01 0.0000000000000000e+00  6.2937747972403446e-01 7.7852601893593343e-01 0.0000000000000000e+00  6.6351716078522704e-01 7.4823079220108613e-01 0.0000000000000000e+00  6.1795543506135164e-01 7.8641778676127472e-01 0.0000000000000000e+00  6.2405756331195683e-01 7.8151808929557987e-01 0.0000000000000000e+00  5.7653388699212293e-01 8.1734718002293494e-01 0.0000000000000000e+00  5.2643316176414567e-01 8.5078123747864609e-01 0.0000000000000000e+00  5.8895604068305984e-01 8.0869449920729675e-01 0.0000000000000000e+00  5.4564187515710116e-01 8.3852695096109675e-01 0.0000000000000000e+00  4.6656482877508798e-01 8.8482770992207360e-01 0.0000000000000000e+00  4.5116292997952667e-01 8.9259909332396026e-01 0.0000000000000000e+00  3.9070376450952377e-01 9.2070326117790469e-01 0.0000000000000000e+00  3.6291476737229927e-01 9.3198219975103014e-01 0.0000000000000000e+00  3.0202605143267192e-01 9.5376281147058062e-01 0.0000000000000000e+00  2.0913083429354548e-01 9.7846919739552496e-01 0.0000000000000000e+00  1.9665946470025947e-01 9.8040836242038376e-01 0.0000000000000000e+00  1.7241978356934229e-01 9.8275972531536238e-01 0.0000000000000000e+00  1.0844698011393070e-01 1.0143878149416097e+00 0.0000000000000000e+00  6.7730153444393357e-02 9.1046367059130828e-01 0.0000000000000000e+00  7.5690908424158945e-03 1.0882544731876618e+00 0.0000000000000000e+00  3.1573512753532894e-02 -1.4292202583022571e+00 0.0000000000000000e+00  8.8259506707964341e-02 -9.2792544647625286e-01 0.0000000000000000e+00  1.4019844872552165e-01 -9.9343894321361770e-01 0.0000000000000000e+00  1.7844302200672763e-01 -9.8586134918889123e-01 0.0000000000000000e+00  2.1719400131956570e-01 -9.7556501892404279e-01 0.0000000000000000e+00  2.5695094975530036e-01 -9.6668181291499644e-01 0.0000000000000000e+00  2.9993793876634728e-01 -9.5402474105011581e-01 0.0000000000000000e+00  3.2669728895500943e-01 -9.4530186051751608e-01 0.0000000000000000e+00  3.8604165867949419e-01 -9.2268835897696844e-01 0.0000000000000000e+00  3.8840887623726300e-01 -9.2138463118016545e-01 0.0000000000000000e+00  3.7897393216852993e-01 -9.2602157908131788e-01 0.0000000000000000e+00  4.6675130908811568e-01 -8.8481694700661950e-01 0.0000000000000000e+00  5.0137580281898486e-01 -8.6525585923391268e-01 0.0000000000000000e+00  5.1133220924975675e-01 -8.5943580912158712e-01 0.0000000000000000e+00  5.4027053952504900e-01 -8.4152891477321901e-01 0.0000000000000000e+00  5.5208260908998175e-01 -8.3389935763092637e-01 0.0000000000000000e+00  5.9209017941729059e-01 -8.0611571248636815e-01 0.0000000000000000e+00  5.4041380190249444e-01 -8.4175750458175713e-01 0.0000000000000000e+00  5.5376642134833520e-01 -8.3382177718881767e-01 0.0000000000000000e+00  6.5535802205177141e-01 -7.5610735905047011e-01 0.0000000000000000e+00  6.6128893750997209e-01 -7.4993676563477774e-01 0.0000000000000000e+00  6.5137277583491993e-01 -7.5919247548425106e-01 0.0000000000000000e+00  6.9940072610282367e-01 -7.1467716655675639e-01 0.0000000000000000e+00  6.5676716326170503e-01 -7.5659501668524631e-01 0.0000000000000000e+00  7.8581477195145899e-01 -6.2135732521712261e-01 0.0000000000000000e+00  7.2631323642994172e-01 -6.8901876365433856e-01 0.0000000000000000e+00  4.9917931263730314e-01 -8.8238761300646540e-01 0.0000000000000000e+00  7.4703229682520345e-01 -6.6849860110646231e-01 0.0000000000000000e+00  7.8937328129758078e-01 -6.1351061707071919e-01 0.0000000000000000e+00  7.6000355420375998e-01 -6.5141804772308931e-01 0.0000000000000000e+00  8.3325948473688982e-01 -5.5318703919987411e-01 0.0000000000000000e+00  7.8826872466395903e-01 -6.2123602669149558e-01 0.0000000000000000e+00  9.2599309451510103e-01 -3.8674996399167161e-01 0.0000000000000000e+00  8.8189925562999483e-01 -4.7250810707294694e-01 0.0000000000000000e+00  6.8875894372578006e-01 -7.5516186066305879e-01 0.0000000000000000e+00  9.4735518020574572e-01 -3.4229380751567423e-01 0.0000000000000000e+00  9.6138451500254551e-01 -2.7192689915872198e-01 0.0000000000000000e+00  9.5671368201346263e-01 -2.9250576943605650e-01 0.0000000000000000e+00  9.7713605460873554e-01 -2.1382179007826776e-01 0.0000000000000000e+00  9.8327840072656725e-01 -1.8197827159247776e-01 0.0000000000000000e+00  9.8280782008976630e-01 -1.8434795450910485e-01 0.0000000000000000e+00  9.8728380688734418e-01 -1.7444849437810608e-01 0.0000000000000000e+00  1.3153565328168568e-01 -9.9480215410951445e-01 0.0000000000000000e+00  7.0591037552344116e-01 -7.0885823200561915e-01 0.0000000000000000e+00  8.0196956363012528e-01 5.9786891182173763e-01 0.0000000000000000e+00  1.0735016174399938e-01 9.2858521134270477e-01 0.0000000000000000e+00  6.0191180561865576e-01 7.9885185565984185e-01 0.0000000000000000e+00  9.4251526127126350e-01 3.3497132559597287e-01 0.0000000000000000e+00  7.4632803250601809e-01 -6.6592880282800282e-01 0.0000000000000000e+00  9.9985659804919269e-01 -3.0224452107201063e-02 0.0000000000000000e+00  9.6952902009727737e-01 -2.4629588685953205e-01 0.0000000000000000e+00  9.0478122250116211e-01 4.2660463606871618e-01 0.0000000000000000e+00  9.9879191889313379e-01 -5.8882950914172782e-02 0.0000000000000000e+00  9.8265814586115940e-01 1.9033790661773459e-01 0.0000000000000000e+00  8.8267940205625395e-01 -4.7055092600030740e-01 0.0000000000000000e+00  3.7108577482206068e-01 -9.2886184769637081e-01 0.0000000000000000e+00  8.0729208285343979e-01 -5.9637129199737149e-01 0.0000000000000000e+00  2.5162531647454101e-01 9.6783439541582339e-01 0.0000000000000000e+00  7.1825427963837818e-01 6.9716231311155064e-01 0.0000000000000000e+00  9.9170952338799767e-01 1.3633982699731687e-01 0.0000000000000000e+00  5.4754112554396839e-01 8.3715162268042687e-01 0.0000000000000000e+00  4.9397973833867009e-01 -8.6969139064163714e-01 0.0000000000000000e+00  6.6003562662707682e-01 -7.5249067441635387e-01 0.0000000000000000e+00  8.9384102698251300e-01 -4.4915885857181759e-01 0.0000000000000000e+00  8.2938314272542302e-01 5.5912263840700005e-01 0.0000000000000000e+00  9.3269894913138285e-01 -3.6388812310043478e-01 0.0000000000000000e+00  -2.2301114644931817e-03 1.3527043694727389e-02 0.0000000000000000e+00  8.7943930331808207e-01 -4.7701328499947127e-01 0.0000000000000000e+00  8.8248285153919082e-01 4.7888820654134695e-01 0.0000000000000000e+00  9.9718795027626206e-01 7.9075351855904114e-02 0.0000000000000000e+00  9.9969304690934979e-01 3.4529560330104264e-02 0.0000000000000000e+00  8.2266311174747431e-01 -5.6929768240367062e-01 0.0000000000000000e+00  9.7846518717528075e-01 -2.0946672208470626e-01 0.0000000000000000e+00  9.3383460891608294e-01 -3.6029566083281750e-01 0.0000000000000000e+00  9.9853975336269540e-01 -7.1997721116383750e-02 0.0000000000000000e+00  8.0643373225556192e-01 -5.9268063810280580e-01 0.0000000000000000e+00  9.8078475360852879e-01 -1.9691449412158091e-01 0.0000000000000000e+00  9.9509767139659322e-01 1.0383460264594764e-01 0.0000000000000000e+00  9.5649906864243894e-01 -2.9296014634253359e-01 0.0000000000000000e+00  9.6897319842457186e-01 -2.4858053790250548e-01 0.0000000000000000e+00  9.9944833764051522e-01 -4.1205278130517178e-02 0.0000000000000000e+00  9.7828638871480078e-01 2.0915013989932607e-01 0.0000000000000000e+00  9.8168421013595575e-01 1.9266934471475861e-01 0.0000000000000000e+00  9.5656679961670765e-01 2.9366533478808843e-01 0.0000000000000000e+00  9.9968180735730028e-01 3.5476524281340946e-02 0.0000000000000000e+00  9.9692948189824870e-01 -8.1700456989677664e-02 0.0000000000000000e+00  9.4546094033270778e-01 -3.2728584697039598e-01 0.0000000000000000e+00  3.3312655270270880e-01 9.3905665494228774e-01 0.0000000000000000e+00  6.3974514593001963e-01 7.6973988215916889e-01 0.0000000000000000e+00  3.4570243021865266e-01 9.3878535998335866e-01 0.0000000000000000e+00  9.5926845764499791e-01 2.8902020072215545e-01 0.0000000000000000e+00  7.9218261758978692e-01 6.1140478809987653e-01 0.0000000000000000e+00  8.3289613438747589e-01 5.5476755891224960e-01 0.0000000000000000e+00  8.2387551455821373e-01 -5.6784993909335812e-01 0.0000000000000000e+00  6.3890118713898569e-01 -7.7021153160238731e-01 0.0000000000000000e+00  9.0112917997263464e-01 -4.3958699624560421e-01 0.0000000000000000e+00  4.6188019624360649e-01 -8.8744546542234559e-01 0.0000000000000000e+00  8.2631272285131430e-01 -5.6366674173147280e-01 0.0000000000000000e+00  9.1060114083575039e-01 -4.1440565929887424e-01 0.0000000000000000e+00  9.3168210630292270e-01 -3.6410597847257259e-01 0.0000000000000000e+00  8.6113687150405360e-01 -5.0899531453199442e-01 0.0000000000000000e+00  8.2973128394273776e-01 5.5857997438532092e-01 0.0000000000000000e+00  9.1121258613040024e-01 4.1250759004408860e-01 0.0000000000000000e+00  6.5068077166315208e-01 7.5951011472278873e-01 0.0000000000000000e+00  7.4051611396452632e-01 6.7221527928298241e-01 0.0000000000000000e+00  6.9967428407593169e-01 -7.1459776853604362e-01 0.0000000000000000e+00  6.0484870628664533e-01 -7.9646722884754473e-01 0.0000000000000000e+00  6.4775363884928494e-01 -7.6207387824478323e-01 0.0000000000000000e+00  5.2530531193093921e-01 -8.5107315581554777e-01 0.0000000000000000e+00  4.6212552863972661e-01 8.8692454588692371e-01 0.0000000000000000e+00  5.8686492862542305e-01 8.0981663208783261e-01 0.0000000000000000e+00  1.8335189392678190e-02 -1.3843262034357828e+00 0.0000000000000000e+00  1.8425149831096815e-01 9.8307828128715791e-01 0.0000000000000000e+00  1.8289719389654849e-01 -9.8504687017780546e-01 0.0000000000000000e+00  1.9092482830983758e-05 -3.1351991468807788e-01 0.0000000000000000e+00  5.6264783860925904e-01 -8.2706978943284049e-01 0.0000000000000000e+00  9.2114096024320069e-01 3.9200611465266344e-01 0.0000000000000000e+00  8.2405305906713289e-01 5.6764617085117375e-01 0.0000000000000000e+00  6.3967699807943523e-01 7.6928750584970207e-01 0.0000000000000000e+00  8.9130705860290116e-01 4.5470832331556849e-01 0.0000000000000000e+00  9.9979774157284251e-01 4.0321773347720587e-02 0.0000000000000000e+00  9.5359676346178068e-01 3.0284368167966486e-01 0.0000000000000000e+00  4.4692197490029967e-01 8.9734565567809521e-01 0.0000000000000000e+00  6.9886630649553694e-01 6.9693736785612759e-01 0.0000000000000000e+00  9.3562523958045896e-01 3.6274241498311666e-01 0.0000000000000000e+00  7.7365267309527586e-01 6.3392431219655965e-01 0.0000000000000000e+00  7.4813202651032362e-01 -6.6380350772753594e-01 0.0000000000000000e+00  8.6585131435770768e-01 5.0089883280318137e-01 0.0000000000000000e+00  9.1718546541241253e-01 3.9968601032896833e-01 0.0000000000000000e+00  7.3398661079885119e-01 6.7957702812234311e-01 0.0000000000000000e+00  9.3880515796969399e-01 3.4528762135060731e-01 0.0000000000000000e+00  4.1976095797364493e-01 9.0798492945976783e-01 0.0000000000000000e+00  4.4262548248137729e-01 8.9691425353463416e-01 0.0000000000000000e+00  6.7784809273243971e-02 -1.3929792510458083e+00 0.0000000000000000e+00  1.4223062938297848e-01 -1.0097017529925942e+00 0.0000000000000000e+00  5.4948768717329144e-01 -8.3593293266234570e-01 0.0000000000000000e+00  3.3241847493877347e-01 -9.4358861881017775e-01 0.0000000000000000e+00  3.2425445916532464e-01 -9.4614802759954320e-01 0.0000000000000000e+00  9.8065130659744293e-01 2.0416497279592460e-01 0.0000000000000000e+00  5.3043816766440610e-01 1.0056399970760170e+00 0.0000000000000000e+00  3.9110496103105835e-01 -9.2048655269302404e-01 0.0000000000000000e+00  2.0959347514467910e-01 -9.7759438133682064e-01 0.0000000000000000e+00  1.5322780426445878e-01 9.8997352409202322e-01 0.0000000000000000e+00  3.2170367330988886e-01 9.4695147732014084e-01 0.0000000000000000e+00  7.8744865504764061e-01 -6.4920178627214997e-01 0.0000000000000000e+00  1.7385655176101336e-01 1.0016168289492138e+00 0.0000000000000000e+00  6.2186285900036775e-02 9.4918378961834449e-01 0.0000000000000000e+00  3.6302315530881168e-01 9.3195536299318149e-01 0.0000000000000000e+00  5.3611887938817349e-01 8.4430305148229690e-01 0.0000000000000000e+00  7.0266959813538565e-01 7.1194115300857153e-01 0.0000000000000000e+00  4.9404603442224720e-01 -8.6955701228487448e-01 0.0000000000000000e+00  3.4163991172928859e-01 -9.3996071918255619e-01 0.0000000000000000e+00  6.3720472931398908e-01 -7.7095317175936628e-01 0.0000000000000000e+00  9.6799716725172014e-01 -2.5297748882358351e-01 0.0000000000000000e+00  8.0561632661245342e-01 -5.9308171715886893e-01 0.0000000000000000e+00  1.0001230875887630e+00 2.7213704035319031e-02 0.0000000000000000e+00  9.73213