<?xml version="1.0"?>
<VTKFile type="UnstructuredGrid"  version="0.1"  >
<UnstructuredGrid>
<Piece  NumberOfPoints="2549" NumberOfCells="4928">
<Points>
<DataArray  type="Float64"  NumberOfComponents="3"  format="ascii">1.618180861049562 -0.04488917437682226 0  1.608827219315335 -0.002288375677399437 0  1.605569596462541 0.03964057120819764 0  1.596569152138533 0.08317394431209028 0  1.585842609338914 0.1254530045321451 0  1.575008747042549 0.1704600170795871 0  1.553807479432758 0.2138574812394246 0  1.559601340336262 0.2648856612800299 0  1.507810429962781 0.2977820589224346 0  1.486811624873354 0.3266589363163446 0  1.476927463402228 0.3961673688092541 0  1.439030231380107 0.423731805487179 0  1.416342084140446 0.4700925892001179 0  1.382743566572221 0.5091864991425492 0  1.338479545678451 0.5453398551270469 0  1.329327747970473 0.605957191832852 0  1.255564603680575 0.6076204729876304 0  1.230828540391695 0.633947784867354 0  1.198758434476278 0.7125532579574372 0  1.152608549288543 0.7158541452515738 0  1.13012169809242 0.7704249001764676 0  1.082546306494929 0.7890575740311498 0  1.046891600625337 0.8327963031961477 0  1.002965910867047 0.8675455679033579 0  0.954907193539568 0.9028730357823205 0  0.9365220468537159 0.9653437439100019 0  0.8733046446458459 0.985029530531083 0  0.8276827268015916 1.012128376694465 0  0.7829112870827045 1.055504944265671 0  0.7324345109352726 1.084369669962442 0  0.6816343050618114 1.116018559923152 0  0.6323251201545601 1.147176767102852 0  0.577870187055836 1.174878519272611 0  0.523749386699798 1.198576894425501 0  0.4705240100944324 1.224991546075381 0  0.4131233664124782 1.245610412144157 0  0.3570498401865643 1.265309585453495 0  0.2989718730787224 1.281150603631125 0  0.2405762775415059 1.295751519354842 0  0.1819333640898484 1.307342425637963 0  0.1216332361257558 1.315320846458068 0  0.06204447553679995 1.3207158567392 0  0.001805801909462217 1.323805291042392 0  -0.05841304466283737 1.323518098410345 0  -0.1186840959705651 1.320353704431433 0  -0.1786350023221403 1.313988934490457 0  -0.2384304796774762 1.304956707100961 0  -0.2975391434326843 1.292463694686743 0  -0.3556176035657099 1.277117758682836 0  -0.4142471061703002 1.259153000886551 0  -0.4705242992987889 1.23846592228818 0  -0.525342269083691 1.213159058828923 0  -0.5813157763079352 1.190936451959451 0  -0.633526161107102 1.162758627133135 0  -0.6863540060735825 1.129354443077097 0  -0.7341922647473155 1.09472060703307 0  -0.7846367159448775 1.068861031349396 0  -0.8361250803517477 1.030759821969499 0  -0.8728034056488656 0.9871503864175709 0  -0.9237307025518378 0.954476031811282 0  -0.9641246668640319 0.9158940730723544 0  -1.016018519991958 0.8990545688223948 0  -1.055169613631007 0.8585077220361361 0  -1.085604493152617 0.7816974913992573 0  -1.127210532556596 0.7578124579859624 0  -1.192740650617049 0.7472307239372875 0  -1.203465768240735 0.685343011938134 0  -1.242803534719077 0.6713809458651639 0  -1.280862823183254 0.6030101868901288 0  -1.314947181655919 0.5913593153169592 0  -1.366700681482008 0.537953377028652 0  -1.370113855748962 0.4886513770573905 0  -1.454292853528384 0.5074518536399837 0  -1.469043007990763 0.4334683670851009 0  -1.493317505394713 0.3953046007003668 0  -1.518144502954263 0.3483661574376058 0  -1.543341771346279 0.3061277769932277 0  -1.555547236085684 0.2546213115686051 0  -1.577129808667127 0.2181691559631062 0  -1.561063257771721 0.1417651735354183 0  -1.594969701525033 0.1383092211779228 0  -1.608553880421445 0.08725748531402187 0  -1.574476485200594 0.03570358291941787 0  -1.565643266150369 -0.0009734548322393551 0  -1.562193354001535 -0.04342211250396445 0  -1.575349430539132 -0.07437401908246373 0  -1.553184490668983 -0.1129350017454859 0  -1.570470558924746 -0.1562180896812994 0  -1.552537980522685 -0.2068332904080752 0  -1.530728863880977 -0.2157601721572148 0  -1.557489606193623 -0.283939673069609 0  -1.536813141549638 -0.3266962001263038 0  -1.528838627200968 -0.3836119442966335 0  -1.504073068916453 -0.4296193527970288 0  -1.480086365353046 -0.4783697960381292 0  -1.444308902619619 -0.5119329011414643 0  -1.44520444236819 -0.5840430420769962 0  -1.371909630587922 -0.6032527589906035 0  -1.342200984823841 -0.6252340911269046 0  -1.306027398027637 -0.676895899829373 0  -1.275662128801952 -0.6938907670514413 0  -1.24458791402601 -0.7493007421685602 0  -1.207059852823528 -0.7727271527601921 0  -1.190514097894622 -0.8269176863897824 0  -1.133362618372951 -0.8445716292863193 0  -1.096462179469289 -0.8745865224405897 0  -1.071437684232455 -0.9486018243719245 0  -1.028907998688605 -0.986250955810822 0  -0.9802815654873986 -1.013034261262593 0  -0.939260414169691 -1.054739149766651 0  -0.8961164171612737 -1.095279743232397 0  -0.8527585098124645 -1.137266477423925 0  -0.7995192888112695 -1.168532725360423 0  -0.7492941772809305 -1.199958510552942 0  -0.7092872817300141 -1.254029440180521 0  -0.6474788142395324 -1.280287291276601 0  -0.595248721147475 -1.306377625141339 0  -0.5387392356736922 -1.334155932976885 0  -0.4819456560966503 -1.359645919077486 0  -0.4265061492814087 -1.383964083408726 0  -0.3651178882048253 -1.402505339449206 0  -0.3064882245868614 -1.418126673729392 0  -0.2466313460055465 -1.432045103887751 0  -0.1855392731435776 -1.441171093030945 0  -0.1246716829676662 -1.44825271294841 0  -0.06322822579516379 -1.451502496028374 0  -0.001775774713161421 -1.451753793025885 0  0.05961853400089926 -1.448355797888665 0  0.1209159013735084 -1.441650374440032 0  0.1812822223856903 -1.43162896575234 0  0.2412862172682119 -1.419199125338074 0  0.3002584434613989 -1.40349263326451 0  0.3590779116762837 -1.386283063121666 0  0.4159460442962539 -1.365237882553755 0  0.4734259044013549 -1.343328359250215 0  0.5278854959336948 -1.315585153139436 0  0.5812565765099722 -1.292449806317456 0  0.6373317064325023 -1.263607350902521 0  0.685620367002818 -1.230043822044587 0  0.7379026676170548 -1.198989601314115 0  0.7874331620993629 -1.16643354455975 0  0.8334389889898123 -1.127497793107695 0  0.8793258432443219 -1.095588220953309 0  0.9336998481776272 -1.069361977430275 0  0.9651488566462009 -1.021015246260234 0  1.009533842059903 -0.9831641081076663 0  1.055658417744479 -0.9482995923499211 0  1.093514105246328 -0.9058689642909438 0  1.132862335825953 -0.8714260931120227 0  1.171471075684872 -0.8335841485065009 0  1.211639628564905 -0.8057069933409861 0  1.235233305648056 -0.7384165344200009 0  1.273790639622952 -0.7238435412086738 0  1.329679722625986 -0.695471017642226 0  1.344442418739378 -0.6433872195033312 0  1.386083497392351 -0.6073828558419818 0  1.418589371412949 -0.5665871959729045 0  1.446248170259557 -0.5212376754345304 0  1.480536154442454 -0.4865177253658649 0  1.494333831178723 -0.4230028770162558 0  1.52033523494148 -0.3975080545348247 0  1.556543405497703 -0.35601155664689 0  1.562132078849757 -0.3070347378853485 0  1.579130826274046 -0.2621389999272209 0  1.589453369166987 -0.2165674018146011 0  1.598749929036643 -0.1728868636811275 0  1.604642425047756 -0.1293711824306367 0  1.614984359574269 -0.08978607916484359 0  -0.101326970024717 0.7883866234241236 0  0.5968536921087594 -0.7118358795050589 0  -0.750980142639145 -0.6193630160915532 0  -0.08115214687394001 -0.8894961718788397 0  0.5940372915371436 0.6028833673820255 0  1.152761480802548 0.1890331544534138 0  -0.7665670913251456 0.5136087167212323 0  -1.235747451100335 -0.03873603466482517 0  1.156126810892236 -0.2872943051317412 0  -1.041276738860704 -0.4400293693346721 0  -0.8003103500609526 -0.05739810447956462 0  -0.4767287351289523 -0.2327539788465469 0  -1.062704312276286 0.3359650737446827 0  0.2762736172145168 -0.863489279828643 0  0.1317630603416101 -0.2961398024861443 0  0.2429649389323087 0.747158420785431 0  0.3329215995318494 0.1939152141185551 0  0.6491825594303589 -0.04914924093427747 0  -0.4163855340279677 -0.7806702130839167 0  -0.451047492777035 0.6923910249559894 0  -0.2772121293738958 0.2526182234294641 0  0.9056991861113005 -0.4861471512206085 0  0.9022063446484976 0.383311792602186 0  0.4001844326271825 -0.325537184859446 0  0.02605256073672152 0.2470399478590247 0  -0.5414806765719744 0.1923536220264079 0  -0.1752705833628247 -0.2882828541262722 0  0.9355337673713648 -0.04940932306732933 0  1.343096730919105 -0.04736263969249727 0  0.7510394031989854 -0.5953803774507176 0  0.7686777397185015 -0.2774451727341716 0  0.6134408056092207 -0.3765759120700568 0  0.5232263907694263 -0.1829409965239778 0  0.4924009426333217 -0.5241405126674229 0  0.9137298546600383 -0.2662365325673648 0  0.7916109034314854 -0.04929331754538479 0  -0.9216088054702306 0.1500840932762208 0  -1.148642362289048 0.1465673125543689 0  -1.022015205949015 -0.04711685974874141 0  -0.9110840230380751 -0.2579439049112629 0  -1.134072314554118 -0.2367382724906421 0  -1.312562982919653 -0.3301875660712892 0  -1.384038489367674 -0.1464002164198757 0  -1.402228908816074 0.0719680607423574 0  -1.326687204845393 0.2475180954518824 0  -0.1287453501850573 -0.5886676321178962 0  -0.2883505302293141 -0.5405948571739043 0  -0.2503402619451465 -0.8412877930518553 0  -0.3252901186384535 -0.2619068912170195 0  -0.4419038189236665 -0.5038794873682106 0  -1.235126471579101 -0.5130777065536075 0  -1.253114455741088 0.4214967294445428 0  0.3366792459803608 -0.5915580638053431 0  0.265023736673534 -0.3125795986078287 0  0.198001175929423 -0.5830710825285139 0  -0.9131371978349644 0.4194562866682021 0  -0.7746631364230444 0.2260773600357583 0  1.342986898285611 -0.3596245434231558 0  1.212971959923206 -0.5182638798002857 0  1.209205106087045 0.4191958359022299 0  1.338451134860843 0.2631726667663291 0  -0.7625917645204927 -0.9003334227338738 0  -0.9356991998084736 -0.7588808233339022 0  -0.9413459270279104 0.6604889104786086 0  -0.762421529951395 0.791770711336714 0  0.770445991635201 -0.8880821167178983 0  0.5811631604380294 -1.003695192715711 0  0.5783779252631943 0.8915057838741141 0  0.7654088300057438 0.779001918700588 0  0.00758554
[...]
<PointData  Vectors="f_13330"> 
<DataArray  type="Float64"  Name="f_13330"  NumberOfComponents="3" format="ascii">7.3553717019606391e-02 5.6184350267477028e-03 0.0000000000000000e+00  -1.2467644156759108e-01 -1.6452441524106440e-02 0.0000000000000000e+00  -1.0962549781831167e-01 -1.6396386296173737e-02 0.0000000000000000e+00  1.1174150681561597e-01 2.6133172049391033e-02 0.0000000000000000e+00  1.7902513925936694e-01 4.6978193562864194e-02 0.0000000000000000e+00  7.7864477146160038e-01 2.5323428928189462e-01 0.0000000000000000e+00  1.2781095879901430e+00 2.5803913469843859e-01 0.0000000000000000e+00  -6.5681457362969675e-01 -3.3711512668630284e-01 0.0000000000000000e+00  -1.4030082715232512e+00 -1.3430097636170004e+00 0.0000000000000000e+00  8.5745740120583280e-01 3.5419196710878725e-01 0.0000000000000000e+00  -4.3490946732838526e-01 -2.8436802206348605e-01 0.0000000000000000e+00  -2.0812501618159613e+00 -1.6525595245242559e+00 0.0000000000000000e+00  -2.1989434563408681e+00 -1.5236847522763290e+00 0.0000000000000000e+00  1.2419567434159049e+00 1.1788801288565467e+00 0.0000000000000000e+00  2.8193935811911386e+00 1.8365686784170361e+00 0.0000000000000000e+00  3.2394194546124755e-01 2.4460779494871496e-01 0.0000000000000000e+00  -1.9587737925631394e+00 -4.0262952561696128e+00 0.0000000000000000e+00  3.1210041549683587e+00 2.1942087792552094e+00 0.0000000000000000e+00  1.8314129994054976e-02 -2.1929997575752494e-02 0.0000000000000000e+00  1.8408682340840272e-02 7.7134651312528155e-02 0.0000000000000000e+00  -4.6772138490434463e+00 -5.0006895391390396e+00 0.0000000000000000e+00  -3.1435572413024504e+00 -4.0018460154192246e+00 0.0000000000000000e+00  -2.8720424798841471e+00 -3.0541650983737876e+00 0.0000000000000000e+00  7.7257632362702458e-02 1.0540779196923027e-01 0.0000000000000000e+00  1.4590398138229415e+00 1.1252751316664769e+00 0.0000000000000000e+00  1.1293963495174737e+00 1.0899651066545097e+00 0.0000000000000000e+00  -1.4836148858040028e+00 -3.0557779180031059e+00 0.0000000000000000e+00  5.9708757612191488e-01 7.4715815947381536e-01 0.0000000000000000e+00  -2.3525323211218835e-01 -3.1769645505952782e-01 0.0000000000000000e+00  -2.3855336713078890e-01 -3.9108973882185355e-01 0.0000000000000000e+00  1.9217527883074442e-02 2.9742202833382459e-02 0.0000000000000000e+00  -6.8062926481520236e-02 -1.1954828835003049e-01 0.0000000000000000e+00  8.2433225211050162e-02 1.7262189376454226e-01 0.0000000000000000e+00  6.0594395371870016e-02 1.2945778850349021e-01 0.0000000000000000e+00  -6.5389397438611246e-02 -1.5313344695788125e-01 0.0000000000000000e+00  -1.5725117025624558e-02 -4.5660803683830450e-02 0.0000000000000000e+00  -3.4378759398013777e-02 -1.0904067820378145e-01 0.0000000000000000e+00  -9.5797450363839780e-03 -3.7290193889501673e-02 0.0000000000000000e+00  -1.9668729996287673e-02 -8.8111991062680750e-02 0.0000000000000000e+00  -5.0402561235988221e-03 -2.9682011777986027e-02 0.0000000000000000e+00  -3.4953093287237017e-03 -3.1572652913104050e-02 0.0000000000000000e+00  -2.3599390939810904e-03 -3.3259522687205119e-02 0.0000000000000000e+00  -6.8505489990205439e-04 -2.9238094506691209e-02 0.0000000000000000e+00  7.4309343072265861e-04 -2.6487659440488674e-02 0.0000000000000000e+00  1.9427627909386984e-03 -2.4375480366490936e-02 0.0000000000000000e+00  2.7373045123593375e-03 -2.1585782285623169e-02 0.0000000000000000e+00  2.9869710055226489e-03 -1.6291532950513124e-02 0.0000000000000000e+00  5.6851105392302839e-03 -2.3787033656477274e-02 0.0000000000000000e+00  9.5132493545406361e-03 -3.3746847658662926e-02 0.0000000000000000e+00  -7.3690248120377383e-03 2.3141735429231387e-02 0.0000000000000000e+00  9.2450663429414437e-02 -2.2517622614890229e-01 0.0000000000000000e+00  2.6916978158602931e-02 -6.4296124344892042e-02 0.0000000000000000e+00  -1.0634146235066637e-01 2.2639474398046988e-01 0.0000000000000000e+00  3.0058645213594432e-02 -4.8273497028033935e-02 0.0000000000000000e+00  1.7681017931162621e-01 -2.6558557317897602e-01 0.0000000000000000e+00  3.5092321232830924e-02 -5.8679852857939419e-02 0.0000000000000000e+00  -6.2290497585918680e-01 1.0100988316526840e+00 0.0000000000000000e+00  1.6376222905936697e+00 -1.7926395445033774e+00 0.0000000000000000e+00  8.0664303059575826e-01 -9.3075118453062311e-01 0.0000000000000000e+00  6.8618476405529050e-01 -8.5064637220793948e-01 0.0000000000000000e+00  -1.3274196334290170e-01 1.8510338806587240e-01 0.0000000000000000e+00  -2.4080743171376309e+00 3.6979352897004514e+00 0.0000000000000000e+00  1.5629866362865374e+00 -1.0003225404025158e+00 0.0000000000000000e+00  1.7070261393858274e-01 -2.1907324961637462e-01 0.0000000000000000e+00  9.6488053439260713e-01 -2.1232536903326107e+00 0.0000000000000000e+00  4.8034832897683416e-01 -5.3375091066826774e-01 0.0000000000000000e+00  6.1284994687391792e-02 -3.7021097088170953e-02 0.0000000000000000e+00  -2.5267881542858568e+00 2.9360021046102887e+00 0.0000000000000000e+00  -2.9264052607425022e+00 3.6173916535537058e+00 0.0000000000000000e+00  -3.8656884662007744e+00 5.6494266009158967e+00 0.0000000000000000e+00  3.5219731109794137e+00 -1.6998808859554904e+00 0.0000000000000000e+00  1.0539139258039187e-01 5.2715525019698961e-01 0.0000000000000000e+00  -1.4068331333178363e+00 1.8227234947213677e+00 0.0000000000000000e+00  -1.6248529047454969e+00 9.2703568610905529e-01 0.0000000000000000e+00  -3.2596924392827725e-01 1.9062910560314039e-01 0.0000000000000000e+00  -4.1188676314352857e-02 2.6337449612713389e-02 0.0000000000000000e+00  4.8554892180062925e-01 -2.0161497999273795e-01 0.0000000000000000e+00  4.3549162387300239e-01 -1.6769684747798613e-01 0.0000000000000000e+00  -2.6361092693557198e-01 6.2532593640470049e-02 0.0000000000000000e+00  -6.3636178089898643e-01 4.1160406835589552e-01 0.0000000000000000e+00  -1.3480006325827562e-01 3.5609963001824632e-02 0.0000000000000000e+00  -4.7767539199342479e-01 -5.8724348232508244e-02 0.0000000000000000e+00  -4.4931551275517095e-01 -1.6914780602063986e-01 0.0000000000000000e+00  3.9885225255364620e-03 -7.8427291261655274e-03 0.0000000000000000e+00  7.6236489218988868e-01 -9.2231291007612362e-02 0.0000000000000000e+00  2.2871833231638503e-01 3.3723030442932679e-03 0.0000000000000000e+00  2.6227940686057621e-01 1.6439829223817100e-02 0.0000000000000000e+00  -3.4590224154678766e-02 6.6610143856950712e-03 0.0000000000000000e+00  1.3720740083069374e-01 9.3608794660465844e-02 0.0000000000000000e+00  2.1212699806078919e-01 8.3500204924275914e-02 0.0000000000000000e+00  -2.7922928521837687e-02 3.5977359615285390e-03 0.0000000000000000e+00  5.2225104358516197e-02 1.4479713905851491e-02 0.0000000000000000e+00  5.6733632828270326e-02 1.9061372689661522e-02 0.0000000000000000e+00  -1.1446184120006661e-01 -6.1042011723037658e-02 0.0000000000000000e+00  -2.0983781426402548e-01 -1.4341682156734994e-01 0.0000000000000000e+00  3.4570094344015756e-02 2.8666580693471375e-02 0.0000000000000000e+00  5.7140181942098667e-01 4.8596568072172486e-01 0.0000000000000000e+00  1.1128985689838649e+00 2.0285934644497545e+00 0.0000000000000000e+00  -1.4540841534013027e+00 -1.4750083148665984e+00 0.0000000000000000e+00  -1.5018835348139528e+00 -1.6278774590881895e+00 0.0000000000000000e+00  -1.4752099540446972e+00 -1.4820834470548832e+00 0.0000000000000000e+00  -8.0408894667759034e-01 -7.5846390759807092e-01 0.0000000000000000e+00  -4.0567782442799086e-02 -1.4985415187698189e-02 0.0000000000000000e+00  1.7797382415544680e+00 1.8291743901471378e+00 0.0000000000000000e+00  1.4753095429488381e+00 2.3741744392495487e+00 0.0000000000000000e+00  -5.5752741258711613e-01 -3.6321473722640490e-01 0.0000000000000000e+00  3.1510003701548550e-01 1.5156740977585539e-01 0.0000000000000000e+00  -1.5838457414538123e+00 -2.1114124180742357e+00 0.0000000000000000e+00  1.6103602932271641e-01 2.2126471922168728e-01 0.0000000000000000e+00  2.2002735000098059e-01 2.2286734871614347e-01 0.0000000000000000e+00  -6.5414631757091557e-02 -6.3454879759511154e-02 0.0000000000000000e+00  3.1700054893338303e-01 4.1393418371338564e-01 0.0000000000000000e+00  2.2572609870132565e-01 3.7713339660659173e-01 0.0000000000000000e+00  -1.0681284136648423e+00 -1.1975535606293857e+00 0.0000000000000000e+00  -4.0817851961120749e-01 -5.3630318405986410e-01 0.0000000000000000e+00  3.4965448632195895e-01 7.5826494766191233e-01 0.0000000000000000e+00  -2.0449290760065360e-02 -3.8609868621821912e-02 0.0000000000000000e+00  -6.1720712919571359e-03 -1.1563316512182830e-02 0.0000000000000000e+00  -4.0906959024393013e-03 -8.2776759489891945e-03 0.0000000000000000e+00  3.4419582074110479e-02 9.1587716215250872e-02 0.0000000000000000e+00  -4.0018823289828245e-03 -1.2859331368969693e-02 0.0000000000000000e+00  9.2767602563154031e-03 3.7493837092674988e-02 0.0000000000000000e+00  -2.6228880311180200e-04 -2.6746912877703777e-03 0.0000000000000000e+00  1.9692011370018910e-03 1.6770251654616354e-02 0.0000000000000000e+00  2.8613376036537726e-03 3.2541225442079512e-02 0.0000000000000000e+00  4.7042607970174870e-04 1.8136404543159214e-02 0.0000000000000000e+00  -5.6530866374587124e-04 2.3213306229326047e-02 0.0000000000000000e+00  -1.5686271157289826e-03 1.8930115435812061e-02 0.0000000000000000e+00  -3.6163513154058332e-03 2.6210030451256333e-02 0.0000000000000000e+00  -4.6972227865559888e-03 2.5193554039259335e-02 0.0000000000000000e+00  -9.5829650577370518e-03 4.0331622905093768e-02 0.0000000000000000e+00  -7.2468871030686955e-03 2.6198036241103395e-02 0.0000000000000000e+00  -1.9791221619788538e-02 5.9290337343559242e-02 0.0000000000000000e+00  -1.0125508154782340e-02 2.7331495563463329e-02 0.0000000000000000e+00  -4.0779469321745997e-02 9.2197336192839777e-02 0.0000000000000000e+00  4.5080048906690678e-02 -9.5776485387918858e-02 0.0000000000000000e+00  9.1631111600004866e-02 -1.9248583325541249e-01 0.0000000000000000e+00  -1.9252147552860210e-01 3.2201515257664659e-01 0.0000000000000000e+00  8.6071244988091933e-02 -1.3370760742114007e-01 0.0000000000000000e+00  8.6761980960088456e-02 -1.3712064295557255e-01 0.0000000000000000e+00  -9.1427996680556400e-02 1.2281689484002797e-01 0.0000000000000000e+00  2.8828595755416064e-01 -3.6483490694336257e-01 0.0000000000000000e+00  -1.0295204522539008e+00 1.6767778932721247e+00 0.0000000000000000e+00  -3.8222402524091037e-01 4.5280239234323200e-01 0.0000000000000000e+00  1.3283765117861819e+00 -1.2063373351642976e+00 0.0000000000000000e+00  -3.9889755486589806e-01 4.9991789849093404e-01 0.0000000000000000e+00  -4.9917865057098104e-01 5.4523789647308263e-01 0.0000000000000000e+00  -1.5413306300914373e-01 1.5926998929803890e-01 0.0000000000000000e+00  -1.5748629000188250e-01 1.7530037717354874e-01 0.0000000000000000e+00  -1.3582166343718711e+00 1.5576015988754275e+00 0.0000000000000000e+00  -8.9151802131104185e-01 7.3575772518220228e-01 0.0000000000000000e+00  3.5468588816914115e-01 -3.6573690978615325e-01 0.0000000000000000e+00  1.2410606557359252e-01 -2.9817472220222424e-01 0.0000000000000000e+00  -1.2369317243829876e+00 1.0489888176042541e+00 0.0000000000000000e+00  5.7492471372355713e-01 -3.7498924006133150e-01 0.0000000000000000e+00  5.7908364736550366e-01 -5.2313196744123069e-01 0.0000000000000000e+00  -4.0847415165015594e-01 2.9100471641683590e-01 0.0000000000000000e+00  -6.9282398964348768e-01 5.1486425028176563e-01 0.0000000000000000e+00  -5.1052695346253962e-01 2.9140080548043973e-01 0.0000000000000000e+00  2.8889916251555858e-01 -1.6340544097013979e-01 0.0000000000000000e+00  3.8227227703004442e-02 -3.7695814023698197e-02 0.0000000000000000e+00  -5.3526607984911045e-01 2.3505689447999009e-01 0.0000000000000000e+00  2.0590970379864765e-01 -4.5470990966293354e-02 0.0000000000000000e+00  1.1031289408822002e-01 -3.1567989678796760e-02 0.0000000000000000e+00  4.1749122451228082e-02 -9.2614856740647154e-03 0.0000000000000000e+00  2.4732608947653150e-02 -4.3250754463732737e-03 0.0000000000000000e+00  -1.0227163870546938e-02 1.3470298957230992e-03 0.0000000000000000e+00  -1.3315081679969160e-01 1.9318441326422277e-02 0.0000000000000000e+00  1.5031413390314559e-09 -2.0287110350413305e-08 0.0000000000000000e+00  -2.5147628267815382e-08 4.3104947394970644e-08 0.0000000000000000e+00  -7.5746855942285667e-08 -1.0492792190529845e-07 0.0000000000000000e+00  1.2267795678104427e-09 1.6688952670200337e-08 0.0000000000000000e+00  -4.9707850750794926e-08 -1.1310727106658157e-07 0.0000000000000000e+00  -4.2220033293657062e-07 -3.0045088031998791e-07 0.0000000000000000e+00  -9.0038683251449279e-08 2.0164940374989951e-07 0.0000000000000000e+00  1.4375017239560403e-07 -2.2717170728122411e-08 0.0000000000000000e+00  -8.7433146310701346e-08 5.8048646960621791e-08 0.0000000000000000e+00  -3.7388079379966800e-07 -3.6656174586878110e-07 0.0000000000000000e+00  1.5730046886435084e-13 5.6633411867133759e-13 0.0000000000000000e+00  -5.4533601879770186e-14 -2.6166654361526806e-14 0.0000000000000000e+00  -7.6345231961545119e-07 1.0087146366250207e-06 0.0000000000000000e+00  -8.4559388485558561e-09 2.6101162284535624e-08 0.0000000000000000e+00  -3.7260706181013255e-15 2.5961654965155451e-14 0.0000000000000000e+00  -1.2203636642751375e-08 -4.0222099398743721e-08 0.0000000000000000e+00  -7.2674655724727091e-16 5.6017534230803791e-16 0.0000000000000000e+00  5.8723251311581267e-14 -6.7028314628298031e-14 0.0000000000000000e+00  -6.7796136153014014e-09 1.0246900696120700e-08 0.0000000000000000e+00  -8.7611178308507161e-09 2.2816935577431754e-08 0.0000000000000000e+00  9.2547274134829117e-15 -2.8965305820375622e-14 0.0000000000000000e+00  -1.8108505396715566e-07 1.9324196944193139e-07 0.0000000000000000e+00  -1.3158785446392687e-06 -1.4728587957685478e-06 0.0000000000000000e+00  -4.8606778187757466e-15 2.3169982713822507e-15 0.0000000000000000e+00  -4.4058440688345952e-15 -3.3020375828329298e-14 0.0000000000000000e+00  1.7424884455941206e-13 -1.2873845169606698e-13 0.0000000000000000e+00  6.5521521065903777e-15 2.2263424497631966e-14 0.0000000000000000e+00  -8.4879037303876406e-14 -5.5920130325302267e-14 0.0000000000000000e+00  1.4833412704548069e-07 2.2486339897235415e-08 0.0000000000000000e+00  1.1879819338525408e-07 -7.1147508589212157e-08 0.0000000000000000e+00  -1.3431386624611965e-10 1.6456850623035678e-10 0.0000000000000000e+00  -1.7452240146650509e-10 2.9503400461027698e-10 0.0000000000000000e+00  -2.8617808666846090e-14 5.3643166539847264e-14 0.0000000000000000e+00  2.4676469435094818e-12 -1.8401304909878535e-12 0.0000000000000000e+00  -2.8261158134057437e-10 2.7076669712807241e-10 0.0000000000000000e+00  -1.4406698591390917e-12 -1.1379540460232053e-12 0.0000000000000000e+00  -2.2947709399935974e-10 6.2054661176703986e-10 0.0000000000000000e+00  -2.1725580422211570e-07 2.9544454027456944e-07 0.0000000000000000e+00  -1.0694514866648765e-10 1.1983506112409235e-10 0.0000000000000000e+00  -1.3772084325609074e-10 -6.8901023560195809e-11 0.0000000000000000e+00  1.0018862446711966e-07 1.2814916057479440e-07 0.0000000000000000e+00  -1.2163903183317256e-05 -3.4036742751265777e-06 0.0000000000000000e+00  7.9389482011539631e-05 5.5652754701359548e-06 0.0000000000000000e+00  -1.6419082370671282e-04 -1.4808165104853906e-05 0.0000000000000000e+00  -1.0380562254672946e-04 8.9860934867250870e-05 0.0000000000000000e+00  2.6834235785100447e-12 1.4185646705884470e-11 0.0000000000000000e+00  8.0127463102243822e-13 9.5274303485398127e-12 0.0000000000000000e+00  5.1407365544196739e-09 1.6323870622573117e-08 0.0000000000000000e+00  -6.3208116897047009e-15 2.7546731664087036e-14 0.0000000000000000e+00  -1.1634094186508138e-10 -9.4245213647854506e-11 0.0000000000000000e+00  -2.3510384534757963e-04 -2.2611255068079311e-04 0.0000000000000000e+00  3.0156122226086265e-04 7.8575527741454906e-05 0.0000000000000000e+00  -8.8439949650620391e-12 2.1502192698082646e-11 0.0000000000000000e+00  -1.0117862240242856e-14 3.1302822159779030e-14 0.0000000000000000e+00  -6.3519690736455381e-12 2.6511888730463591e-11 0.0000000000000000e+00  1.4205826636357095e-07 -2.3864664831458163e-07 0.0000000000000000e+00  6.8594084493980899e-11 1.7438234574804463e-10 0.0000000000000000e+00  -1.2128330448802568e-04 7.2863062850441672e-05 0.0000000000000000e+00  5.5752412855261552e-05 -2.8750343925765909e-05 0.0000000000000000e+00  3.2283771830479935e-04 1.7754333430546526e-04 0.0000000000000000e+00  -1.6879375823281622e-04 -1.3063917666882672e-04 0.0000000000000000e+00  -2.5415387312008664e-05 -2.1025166745325070e-05 0.0000000000000000e+00  5.8260334864725197e-05 8.7062873229231367e-06 0.0000000000000000e+00  3.0908910173320310e-04 -1.1212296323301819e-04 0.0000000000000000e+00  2.0142513964569730e-04 -2.1634658594974697e-04 0.0000000000000000e+00  -2.2425309983266340e-04 3.7109826801958801e-04 0.0000000000000000e+00  1.5458579481297575e-05 -2.4153597839259889e-05 0.0000000000000000e+00  -6.9099747920411386e-06 -1.2189073737428311e-05 0.0000000000000000e+00  -2.3931497759240668e-04 -5.9518976522358999e-04 0.0000000000000000e+00  -3.9978582692720701e-07 1.4353288442871713e-05 0.0000000000000000e+00  1.5009099714980757e-06 8.4308029443162799e-06 0.0000000000000000e+00  2.6863160439382964e-06 -1.4298390563364147e-05 0.0000000000000000e+00  -5.0439117878136594e-07 -1.9111847946322055e-05 0.0000000000000000e+00  2.9005723014185291e-09 -1.1901720595226688e-08 0.0000000000000000e+00  -4.2837962754082500e-14 -1.3623224159656816e-13 0.0000000000000000e+00  -7.2086313140054671e-11 -3.2033698843064113e-10 0.0000000000000000e+00  -2.3321777923217285e-11 -4.5070412808603892e-11 0.0000000000000000e+00  -8.4567564436421630e-12 -1.4701805212210849e-12 0.0000000000000000e+00  -1.1874345814579096e-13 -1.6850959270511973e-13 0.0000000000000000e+00  -5.2461021356576431e-11 -1.0686901124769832e-10 0.0000000000000000e+00  -1.4080599560094248e-14 -4.6498636333961188e-14 0.0000000000000000e+00  -1.1451593882376405e-17 -2.1497767120513367e-17 0.0000000000000000e+00  -1.9308329834864220e-17 -3.3792587253886609e-18 0.0000000000000000e+00  2.9236575673767254e-05 6.6435145513961662e-05 0.0000000000000000e+00  -1.1726591901487834e-04 1.2994782619837143e-04 0.0000000000000000e+00  2.7769936907402135e-07 3.8262775676325693e-07 0.0000000000000000e+00  -8.8797349212717655e-10 -1.0265510494599711e-09 0.0000000000000000e+00  1.4079148376020218e-07 4.9757204310912012e-08 0.0000000000000000e+00  -9.0063625094369187e-11 -2.2126118998583895e-10 0.0000000000000000e+00  -1.1806976373232434e-11 -3.2415114523949293e-11 0.0000000000000000e+00  6.8258618103283136e-09 1.6197977031343931e-08 0.0000000000000000e+00  -5.6697201699530386e-13 1.8591932430388581e-11 0.0000000000000000e+00  -2.5004818742211079e-09 1.7663745301712497e-08 0.0000000000000000e+00  2.1982932752080669e-11 -5.3713849640680459e-11 0.0000000000000000e+00  3.8001134625709748e-12 -2.0241268415451515e-11 0.0000000000000000e+00  6.4103445586414407e-09 -2.0679542697427454e-08 0.0000000000000000e+00  -5.1375106876521333e-17 -4.5101273382334853e-17 0.0000000000000000e+00  1.5395904344670321e-15 2.0987058690474539e-14 0.0000000000000000e+00  -1.0849610190676423e-05 2.6067016084211074e-05 0.0000000000000000e+00  -4.6881617862422594e-06 1.9687328029798972e-05 0.0000000000000000e+00  -7.5436290897171176e-06 -3.3355987218309286e-05 0.0000000000000000e+00  -1.6342366045310186e-05 -4.1784108796116537e-05 0.0000000000000000e+00  2.5492308574301414e-18 -1.1858482511420492e-17 0.0000000000000000e+00  -8.8633376433261096e-12 -3.8896083675884946e-11 0.0000000000000000e+00  -3.1999604072681617e-09 -2.5166845680135319e-08 0.0000000000000000e+00  -6.8521629524301857e-06 -1.2269485955113458e-05 0.0000000000000000e+00  -9.9182700350743572e-05 -9.7992071809761309e-05 0.0000000000000000e+00  -1.0331240157289588e-08 2.0702089868636626e-08 0.0000000000000000e+00  4.3184423095224537e-05 -5.9339543580852411e-05 0.0000000000000000e+00  2.2297202480184431e-05 -5.5272025996785991e-05 0.0000000000000000e+00  3.8824864174272881e-08 2.0439293269883510e-08 0.0000000000000000e+00  -9.9044197874362265e-14 2.6503812091269145e-13 0.0000000