<?xml version="1.0"?>
<VTKFile type="UnstructuredGrid"  version="0.1"  >
<UnstructuredGrid>
<Piece  NumberOfPoints="2549" NumberOfCells="4928">
<Points>
<DataArray  type="Float64"  NumberOfComponents="3"  format="ascii">1.618245106213434 -0.04491181847849551 0  1.608892044455734 -0.002310465862893441 0  1.605635013081149 0.03961830638997991 0  1.596635933677852 0.08315200146532155 0  1.585909541150056 0.125430241133141 0  1.575079182285975 0.1704375726535878 0  1.553886200056345 0.2138340255265793 0  1.559671755637453 0.2648596936672824 0  1.507884428980519 0.2977549107182242 0  1.48689995088419 0.3266422881971944 0  1.477020274296708 0.3961521223467545 0  1.439112867204423 0.4237149487758116 0  1.416410941941777 0.4700736777998406 0  1.382830477956676 0.5091822365707174 0  1.338570542643717 0.5453218757208119 0  1.329422241429367 0.6059271380132952 0  1.255647993201051 0.6075796608299489 0  1.230952153798003 0.6339456413112106 0  1.198865546967073 0.7125413850938298 0  1.152727414071323 0.7158689834775143 0  1.13020860606756 0.7703914061890129 0  1.082658498462436 0.7890925194711246 0  1.046969912898244 0.8328147663730557 0  1.00306520675909 0.8675833127856496 0  0.9550038117064127 0.9028954394117943 0  0.9366285660782435 0.9653713743885596 0  0.8733806908863263 0.9849949725517606 0  0.8277883521579226 1.01216135898418 0  0.782987328163724 1.05551024403409 0  0.7325132376082388 1.084370025051303 0  0.6817144038534553 1.116026516923559 0  0.6324005689417361 1.147176764000392 0  0.5779474974646216 1.174879858632108 0  0.5238272495323731 1.198576743576777 0  0.4705996034678821 1.224986554150252 0  0.4132020874886652 1.245606932492993 0  0.3571282628079813 1.265306156179432 0  0.2990519556943668 1.281147349555448 0  0.2406574461897598 1.295748545613973 0  0.1820160119685432 1.307340925307135 0  0.121717408431478 1.315320210345895 0  0.06213031074470907 1.320717106930927 0  0.001893323789046962 1.323809087731162 0  -0.05832408707763061 1.323524714003828 0  -0.1185936498139705 1.320363748803537 0  -0.1785434763322828 1.314002808711768 0  -0.2383378311591577 1.304975050346052 0  -0.2974459603739054 1.292486622343332 0  -0.3555238599326245 1.277145231556877 0  -0.4141542698653735 1.259188127334352 0  -0.4704289345748519 1.238499367989073 0  -0.5252489567537031 1.213200764243059 0  -0.5812247188750229 1.190992514268052 0  -0.6334357807366239 1.162815659392657 0  -0.686260906978617 1.129407488221161 0  -0.7340963594686047 1.094785778839283 0  -0.7845672686928233 1.068972460383484 0  -0.836008782081456 1.030808069375384 0  -0.8727254305125398 0.9872472418336545 0  -0.9236576605186269 0.9545326117756142 0  -0.9640258953346454 0.9159834672170503 0  -1.015997588561526 0.8992619273719229 0  -1.055055267227033 0.8585906086770505 0  -1.085547943764889 0.7818157988222185 0  -1.127152037370317 0.7578950066111148 0  -1.192680012801338 0.747306257703574 0  -1.203397449904966 0.6854254520800067 0  -1.242767101554732 0.6714829297087175 0  -1.280765958234903 0.6030935114513412 0  -1.31485995653259 0.5915057220781338 0  -1.366595216556124 0.5381017054347537 0  -1.370091707764892 0.4887892432458233 0  -1.454300882810854 0.5075602592856264 0  -1.469009791552258 0.4335780074846853 0  -1.493284890207258 0.3954120957371796 0  -1.518112531150276 0.348473844747601 0  -1.54330910904547 0.3062336068924691 0  -1.555518015841385 0.2547249802730292 0  -1.577105538013369 0.2182715847302053 0  -1.561038121625175 0.1418666950899697 0  -1.594941060509355 0.1384063168035865 0  -1.608533597525442 0.08735576368249227 0  -1.574456974307537 0.03580150672137712 0  -1.565623106108164 -0.0008743794095196905 0  -1.562174132613165 -0.04332345556714581 0  -1.575339087936776 -0.07427511676511497 0  -1.553171938295008 -0.1128385847069219 0  -1.570462389259013 -0.1561217658384986 0  -1.552530770696657 -0.2067386600637794 0  -1.53072142763136 -0.2156664131667378 0  -1.557485475087127 -0.2838475054973559 0  -1.53680757087495 -0.3266042074667415 0  -1.52883286717166 -0.3835211879687563 0  -1.504067337065849 -0.4295291050908092 0  -1.480080261967145 -0.4782796558101614 0  -1.444304006632882 -0.5118434430778931 0  -1.445194750188978 -0.5839505079477161 0  -1.371892107883238 -0.6031442153263026 0  -1.342198135597651 -0.6251480836800911 0  -1.306019169830058 -0.6768098441358478 0  -1.275651017204355 -0.6938000202687012 0  -1.244585689547789 -0.7492041712425082 0  -1.20706003455973 -0.7726404160892766 0  -1.190489422425625 -0.8268122896608046 0  -1.13335086187208 -0.8444780024652604 0  -1.096465594101095 -0.8745226009632941 0  -1.07138815997182 -0.9485108485773205 0  -1.028919534200406 -0.986213658786965 0  -0.9802462562455837 -1.012947927638485 0  -0.9392411159087709 -1.05464045113685 0  -0.8961148078923052 -1.095207085664714 0  -0.852735927704386 -1.137180184991065 0  -0.7994988276888263 -1.168430230744181 0  -0.749303791057677 -1.19989334141547 0  -0.7092685683842965 -1.25394427181536 0  -0.6474673004752202 -1.280171056564649 0  -0.595246608346199 -1.306307770982811 0  -0.5387361529899397 -1.334074700285732 0  -0.4819454012981085 -1.359574930426751 0  -0.4265024789648447 -1.383889929299558 0  -0.3651172387662165 -1.402433888238706 0  -0.3064877264872935 -1.418057117375936 0  -0.24663095296764 -1.431977083360391 0  -0.1855400133901827 -1.441103716678537 0  -0.1246726910555476 -1.448186923069908 0  -0.06323005437030957 -1.451438359822446 0  -0.001778099648928225 -1.451691356825254 0  0.05961565256886668 -1.448295283748038 0  0.1209125456070245 -1.441591828370718 0  0.1812786205979292 -1.431572760032216 0  0.241282258853908 -1.419145240158881 0  0.3002549141044577 -1.403441664314365 0  0.35907391609655 -1.386234608108662 0  0.4159438681810919 -1.365192689571472 0  0.4734217310623588 -1.343282732883607 0  0.5278844714978789 -1.315548008400451 0  0.581258067172601 -1.292418475269796 0  0.6373261877655459 -1.263567088002501 0  0.6856265068097693 -1.230021726607514 0  0.7379112631830431 -1.19896864094412 0  0.7874368871905859 -1.166409487744586 0  0.8334663326329306 -1.127502757703636 0  0.8793279029072822 -1.095537212180293 0  0.9337055022023817 -1.06935040063743 0  0.9652037799681324 -1.021032055634403 0  1.009546580185016 -0.9831466068900206 0  1.05567800263351 -0.9482989623629777 0  1.093548939470782 -0.9058797030148467 0  1.132904658875088 -0.8714463937131117 0  1.17149971749687 -0.8335786680366106 0  1.211674545664367 -0.8057088257277435 0  1.235275066996541 -0.7384295471507626 0  1.273828532880433 -0.7238571945901515 0  1.329688097223896 -0.6954640831126213 0  1.344488485338234 -0.6434017211176838 0  1.38612702233752 -0.6074001054226786 0  1.418624947861784 -0.5666003638351919 0  1.446289426391313 -0.5212521540161356 0  1.480578419856105 -0.4865306589287787 0  1.494383309679224 -0.4230215397408509 0  1.52038335361802 -0.3975257564378751 0  1.556585148267417 -0.3560308135203545 0  1.56218932761262 -0.307054823127122 0  1.579184582179721 -0.2621595485113883 0  1.589508867752635 -0.2165885713443515 0  1.598807133057613 -0.1729085767688668 0  1.604701807018151 -0.1293937257650312 0  1.615047409412163 -0.08980909714010508 0  -0.1012610601256708 0.7884062399834341 0  0.5968845812219078 -0.7118119292914021 0  -0.750966196503504 -0.6192895845942915 0  -0.08113598040121255 -0.8894408995525389 0  0.5941169313240279 0.6028959979639187 0  1.152828228928435 0.1890320102917159 0  -0.7665194844715937 0.513675106799082 0  -1.235729504089184 -0.03864951025168101 0  1.156175252348665 -0.2872974598379323 0  -1.041263710631691 -0.4399491815302902 0  -0.800286802296758 -0.05733066108719299 0  -0.4767038483350265 -0.2326970586056436 0  -1.062665507249143 0.3360441667006672 0  0.2762938714932766 -0.8634476654670933 0  0.1317983347726835 -0.2961034717864066 0  0.243036537610316 0.7471684858800708 0  0.3329772294628572 0.1939372938723469 0  0.6492347140597413 -0.0491323503377863 0  -0.4163687351970637 -0.7806042879650181 0  -0.4509902796563117 0.6924330680947974 0  -0.2771694449676307 0.252657940044742 0  0.9057406415719726 -0.4861407859360099 0  0.9022819615121073 0.3833256510939315 0  0.4002237388552335 -0.3255098063681968 0  0.02610224033495449 0.2470685557608742 0  -0.5414449038867266 0.1924066212718253 0  -0.175241110508153 -0.2882359369713556 0  0.9355886531229579 -0.04940222072988124 0  1.343155400501262 -0.04737349684454793 0  0.7510764248478478 -0.5953657913734095 0  0.7687235646545715 -0.2774323001499889 0  0.6134818796045116 -0.3765563126477486 0  0.5232721294726118 -0.1829194323885849 0  0.4924358857296942 -0.5241142367053681 0  0.9137772546816088 -0.2662295900830365 0  0.7916646122665838 -0.04928096918674833 0  -0.9215795553849302 0.1501560350214254 0  -1.148616527667237 0.1466515261982353 0  -1.021994808313463 -0.0470396418001949 0  -0.9110670273625121 -0.2578700527305172 0  -1.134058360530721 -0.2366558549059262 0  -1.312553813552964 -0.3300989940887496 0  -1.384026526518472 -0.1463098058456365 0  -1.402206464933703 0.07206323954622031 0  -1.326658564808154 0.2476163770752093 0  -0.1287220549473005 -0.5886162446758141 0  -0.2883285053614405 -0.5405385971731448 0  -0.2503236349016367 -0.8412272048067321 0  -0.3252629652274147 -0.2618550578016837 0  -0.4418835267525131 -0.503818408999913 0  -1.235115809738977 -0.5129884119675677 0  -1.253075365617035 0.421590476403934 0  0.3367095646831458 -0.5915241663748874 0  0.265061044196736 -0.3125475927349704 0  0.1980294893338707 -0.5830318647777613 0  -0.9130925562028329 0.4195299202292807 0  -0.7746288956485889 0.2261419098217133 0  1.343034847492074 -0.3596355970073134 0  1.213013390470554 -0.5182701857602235 0  1.209282535393977 0.4191884055230044 0  1.338526161057709 0.2631628050514443 0  -0.7625771346449731 -0.9002529260067028 0  -0.9356895267576988 -0.7588020922073911 0  -0.9412897691179536 0.6605757017490066 0  -0.7623587995064716 0.791841152687795 0  0.7704734057541052 -0.8880653316490642 0  0.5811817657737682 -1.003665127517102 0  0.5784611493537274 0.8915112085502086 0  0.7654993634242319 0.7790128888408393 0  0.00759256458031
[...]
<PointData  Vectors="f_8273"> 
<DataArray  type="Float64"  Name="f_8273"  NumberOfComponents="3" format="ascii">5.2957936391499812e-03 -2.1720526827529721e-03 0.0000000000000000e+00  -3.4932161969625300e-02 -5.6735661441046263e-03 0.0000000000000000e+00  -4.6389685688042311e-02 -8.6621871079027267e-03 0.0000000000000000e+00  1.1792487535190598e-01 3.1613661977347982e-02 0.0000000000000000e+00  2.2689204827615295e-01 4.6973820294533473e-02 0.0000000000000000e+00  8.6689738469441069e-01 2.4093831989621942e-01 0.0000000000000000e+00  1.4034880594319719e+00 8.5797694675841585e-02 0.0000000000000000e+00  -5.9863928420967960e-01 -6.3096213082414576e-01 0.0000000000000000e+00  -1.4054825187486781e+00 -1.6828844295216661e+00 0.0000000000000000e+00  9.3317709752228817e-01 1.4886606870110666e-01 0.0000000000000000e+00  -6.6194761621331499e-01 -4.2910603112023393e-01 0.0000000000000000e+00  -2.4955399310143020e+00 -2.1132481538537458e+00 0.0000000000000000e+00  -2.6813671325087802e+00 -1.6506072177614264e+00 0.0000000000000000e+00  1.4417465039064974e+00 1.4432507609120244e+00 0.0000000000000000e+00  3.9514319968806650e+00 1.6116020147518924e+00 0.0000000000000000e+00  1.9220211279498463e+00 -9.2956866829888829e-01 0.0000000000000000e+00  -7.9958141338236510e-01 -5.2702448455753999e+00 0.0000000000000000e+00  4.0357002640584403e+00 2.2704226247471815e+00 0.0000000000000000e+00  7.3764353832898000e-01 -1.9575568349755518e-01 0.0000000000000000e+00  -7.8804659792067477e-01 2.7010587136735026e-01 0.0000000000000000e+00  -6.2940081021656678e+00 -5.7663028194326928e+00 0.0000000000000000e+00  -4.1490738423538280e+00 -5.0504979297258581e+00 0.0000000000000000e+00  -3.6759400909784263e+00 -3.3241688007983670e+00 0.0000000000000000e+00  -2.7958638072854397e-01 2.1857403497480765e-01 0.0000000000000000e+00  1.7128946018971292e+00 8.7553791846499629e-01 0.0000000000000000e+00  9.6744959623531890e-01 1.3272293287036978e+00 0.0000000000000000e+00  -1.2098839348623815e+00 -3.1959972062742819e+00 0.0000000000000000e+00  8.0434656218942957e-01 4.9604580533268000e-01 0.0000000000000000e+00  -2.3269511699313217e-01 -3.0248724936679405e-01 0.0000000000000000e+00  -2.3958683747037282e-01 -4.3579952870863048e-01 0.0000000000000000e+00  1.2439489235404123e-02 -5.4390478489656129e-03 0.0000000000000000e+00  -5.9577727338077556e-02 -9.2639323733463674e-02 0.0000000000000000e+00  8.7268534085375327e-02 1.8639339236104818e-01 0.0000000000000000e+00  5.6441382985977874e-02 1.2067162898937901e-01 0.0000000000000000e+00  -6.0978043002722568e-02 -1.2196728656196577e-01 0.0000000000000000e+00  -1.6081955461856326e-02 -5.1679343069880500e-02 0.0000000000000000e+00  -3.1960541348187703e-02 -9.5190253084078386e-02 0.0000000000000000e+00  -9.9598462096689658e-03 -4.1424047403948089e-02 0.0000000000000000e+00  -1.7059901809611915e-02 -7.2411720263498708e-02 0.0000000000000000e+00  -5.0157668178738134e-03 -2.6037570671767565e-02 0.0000000000000000e+00  -3.8872335540968790e-03 -3.6719279318293219e-02 0.0000000000000000e+00  -2.5017543499575709e-03 -3.1588483813205587e-02 0.0000000000000000e+00  -2.2117575316846300e-04 -2.7144250865106998e-02 0.0000000000000000e+00  1.1861735676058146e-03 -2.9120599900649323e-02 0.0000000000000000e+00  3.2261183770559087e-03 -2.8721002297687027e-02 0.0000000000000000e+00  3.4369307236385466e-03 -2.3683595897698220e-02 0.0000000000000000e+00  4.8782815130889922e-03 -1.7445123144329451e-02 0.0000000000000000e+00  1.0341924841677137e-02 -3.7034171071094774e-02 0.0000000000000000e+00  1.4432827803422109e-02 -4.8511514534314785e-02 0.0000000000000000e+00  -6.2616721492944104e-03 3.2788101485520617e-02 0.0000000000000000e+00  1.6871934671228345e-01 -3.9177049251450852e-01 0.0000000000000000e+00  4.1389075470071805e-02 -9.7610865193864485e-02 0.0000000000000000e+00  -1.5739664943113121e-01 3.7339219426886033e-01 0.0000000000000000e+00  6.9950261320235865e-02 -8.3064822026877844e-02 0.0000000000000000e+00  2.9499911489119379e-01 -4.1114171346699790e-01 0.0000000000000000e+00  3.4111802993870441e-02 -6.5691653641409636e-02 0.0000000000000000e+00  -7.2251617513055488e-01 1.5523011472639807e+00 0.0000000000000000e+00  2.7186102648465935e+00 -2.6339810714585252e+00 0.0000000000000000e+00  1.4301059879493454e+00 -1.6545190087239741e+00 0.0000000000000000e+00  1.1965194608741396e+00 -1.2925035386221773e+00 0.0000000000000000e+00  -3.9943994667149157e-01 3.3466418213667909e-01 0.0000000000000000e+00  -3.0647258007608906e+00 5.7013379450095147e+00 0.0000000000000000e+00  2.4599660230745006e+00 -1.0223077939431073e+00 0.0000000000000000e+00  1.2969481267997515e-01 -8.8877151220818551e-01 0.0000000000000000e+00  1.8071049972800481e+00 -3.1915433633976638e+00 0.0000000000000000e+00  9.1654873912711210e-01 -7.4377856969681011e-01 0.0000000000000000e+00  6.9257351009550427e-01 7.5269859977964704e-01 0.0000000000000000e+00  -3.8708948555475882e+00 4.6180216171308146e+00 0.0000000000000000e+00  -4.8421550516225409e+00 5.8642131546993177e+00 0.0000000000000000e+00  -4.5951429530681480e+00 9.9500928541632110e+00 0.0000000000000000e+00  8.0229477839416905e+00 1.8368703169147875e+00 0.0000000000000000e+00  1.2644180537554782e+01 1.0344539452308966e+01 0.0000000000000000e+00  2.2905066297139418e-01 4.6035451093472757e+00 0.0000000000000000e+00  -2.2882654079484350e+00 1.8493536968094555e+00 0.0000000000000000e+00  -4.9049705706387753e-01 3.8470034075782755e-01 0.0000000000000000e+00  -2.3483746469992406e-02 4.4979174954862963e-02 0.0000000000000000e+00  7.3856793792947206e-01 -3.0617664295408314e-01 0.0000000000000000e+00  6.6510949880933157e-01 -2.3979419899211546e-01 0.0000000000000000e+00  -3.6869325470790720e-01 8.6477588448342482e-02 0.0000000000000000e+00  -9.5405763231033003e-01 4.4587972481669769e-01 0.0000000000000000e+00  -3.4107835712547252e-01 3.1227081983844208e-02 0.0000000000000000e+00  -6.9792502870222584e-01 -4.9315475983253025e-02 0.0000000000000000e+00  -6.0721964876542578e-01 -2.1108250356889918e-01 0.0000000000000000e+00  1.5738505256811398e-02 -3.0080592219888557e-03 0.0000000000000000e+00  9.7263364464880830e-01 -1.7435043036420855e-01 0.0000000000000000e+00  3.4402354286404935e-01 4.5754941849409411e-02 0.0000000000000000e+00  4.0448846010308304e-01 4.4220229284752860e-02 0.0000000000000000e+00  8.3214249748381611e-02 4.1473131316042210e-02 0.0000000000000000e+00  1.4960225497387780e-01 1.7067724447589860e-01 0.0000000000000000e+00  9.8097787315629972e-02 9.6954403017899149e-02 0.0000000000000000e+00  -1.1694296292643490e-01 1.5401465298134980e-02 0.0000000000000000e+00  9.3135421147808747e-02 2.1876522071332054e-02 0.0000000000000000e+00  1.0073027721856841e-01 5.4571576714763578e-02 0.0000000000000000e+00  -1.8300361287448233e-01 -7.2366413244990643e-02 0.0000000000000000e+00  -3.1927675125839233e-01 -2.4284922970548176e-01 0.0000000000000000e+00  2.0299023305184760e-01 -2.1121956268186345e-02 0.0000000000000000e+00  9.0094116761298426e-01 8.4561473826302624e-01 0.0000000000000000e+00  1.4468603730215039e+00 3.1924132315869183e+00 0.0000000000000000e+00  -2.4283764728611379e+00 -2.1032458979828594e+00 0.0000000000000000e+00  -2.5084192416607816e+00 -2.6646952833411524e+00 0.0000000000000000e+00  -2.3624698812077458e+00 -2.4658969235889963e+00 0.0000000000000000e+00  -1.3652510124969428e+00 -1.2309609399517583e+00 0.0000000000000000e+00  8.5943789775379462e-02 1.0544426294859931e-01 0.0000000000000000e+00  2.9272725248082474e+00 2.7498898255682347e+00 0.0000000000000000e+00  2.2485280723422107e+00 3.8252629457923839e+00 0.0000000000000000e+00  -9.4378299652393904e-01 -1.6958489722181286e-01 0.0000000000000000e+00  5.9798850748326349e-01 -3.1310102702596759e-01 0.0000000000000000e+00  -2.4977230727820374e+00 -3.2159235251735563e+00 0.0000000000000000e+00  -2.6293605556585796e-02 3.5188025750937135e-01 0.0000000000000000e+00  3.4070806100487488e-01 2.8195441762491225e-01 0.0000000000000000e+00  -3.4944260704550631e-02 -3.9124835488732322e-02 0.0000000000000000e+00  5.8198148551724149e-01 5.5974680757264350e-01 0.0000000000000000e+00  2.7462263263445691e-01 5.1949566779036616e-01 0.0000000000000000e+00  -1.7769295352629004e+00 -1.6980100700766854e+00 0.0000000000000000e+00  -4.5364966555609437e-01 -1.0747056716238295e+00 0.0000000000000000e+00  3.0677511407993241e-01 1.1863192298031540e+00 0.0000000000000000e+00  -8.6662096102721034e-02 4.1258085277354570e-02 0.0000000000000000e+00  -4.0072165429971975e-02 -1.0870186881209037e-02 0.0000000000000000e+00  -7.7153034779724019e-03 3.2790887527569153e-03 0.0000000000000000e+00  6.4094085952299512e-02 1.3116822069475190e-01 0.0000000000000000e+00  -5.2991867940826451e-03 -1.5069739973382002e-02 0.0000000000000000e+00  1.4013264415523535e-02 5.5664203256653472e-02 0.0000000000000000e+00  3.4435225510975661e-03 -1.9424631360023994e-03 0.0000000000000000e+00  2.2443087480535319e-03 2.3767064073992518e-02 0.0000000000000000e+00  5.4353409802831657e-03 4.6686530243536875e-02 0.0000000000000000e+00  8.7199644756292410e-04 2.6376185339012127e-02 0.0000000000000000e+00  -2.9594096259543317e-04 3.2522497331438048e-02 0.0000000000000000e+00  -2.1606864245263349e-03 2.6665363160610019e-02 0.0000000000000000e+00  -5.6988589653092650e-03 3.9179508614390506e-02 0.0000000000000000e+00  -6.9674502095570974e-03 3.7386309387182411e-02 0.0000000000000000e+00  -1.5777225981925935e-02 6.2999248827730503e-02 0.0000000000000000e+00  -1.0629165645824595e-02 4.0725143675184101e-02 0.0000000000000000e+00  -3.3997521167137168e-02 9.5942602518428122e-02 0.0000000000000000e+00  -1.6164708502674249e-02 4.7722044677138628e-02 0.0000000000000000e+00  -6.7949851421731211e-02 1.3857852088639261e-01 0.0000000000000000e+00  7.9856237214898970e-02 -1.6820982964759446e-01 0.0000000000000000e+00  1.3796451376477850e-01 -3.1143444856916103e-01 0.0000000000000000e+00  -3.2715468446684148e-01 4.9662561232632374e-01 0.0000000000000000e+00  1.3863203745364294e-01 -2.0812692872480082e-01 0.0000000000000000e+00  1.4798407575116185e-01 -2.2878885553662642e-01 0.0000000000000000e+00  -1.1679421830693096e-01 1.7731874696307035e-01 0.0000000000000000e+00  5.2900901459626770e-01 -3.9835248617532354e-01 0.0000000000000000e+00  -1.5890346136970022e+00 2.8996163727452990e+00 0.0000000000000000e+00  -8.7436331090458241e-01 4.6608562988833374e-01 0.0000000000000000e+00  2.2954285519845423e+00 -1.8275651688929364e+00 0.0000000000000000e+00  -5.4684703315731964e-01 8.8897526329348131e-01 0.0000000000000000e+00  -9.2333384285488518e-01 9.6004987750265347e-01 0.0000000000000000e+00  -3.1944933640165973e-01 3.4947965635011169e-01 0.0000000000000000e+00  -3.3926331892231898e-01 5.1140851308033308e-01 0.0000000000000000e+00  -2.3717164476899959e+00 2.9307575752480473e+00 0.0000000000000000e+00  -1.7844278036422714e+00 1.0753241400056979e+00 0.0000000000000000e+00  7.4772947540749501e-01 -4.0643650202572901e-01 0.0000000000000000e+00  -2.6942287379188462e-01 -6.9196619208204668e-01 0.0000000000000000e+00  -2.5515199378085853e+00 1.4184031566619917e+00 0.0000000000000000e+00  9.1747846461477101e-01 -5.3236555070289415e-01 0.0000000000000000e+00  9.6407776027632497e-01 -1.0108392891092144e+00 0.0000000000000000e+00  -7.9421129171353755e-01 4.7992121687398048e-01 0.0000000000000000e+00  -1.3382747475031906e+00 9.8025700595338128e-01 0.0000000000000000e+00  -9.9147996694425211e-01 5.1043575700256238e-01 0.0000000000000000e+00  5.6994088293787637e-01 -1.7317543144814737e-01 0.0000000000000000e+00  -5.7455176381985364e-02 -1.4597144975445434e-01 0.0000000000000000e+00  -1.1685792001559587e+00 2.7881805669417287e-01 0.0000000000000000e+00  3.7221091445038756e-01 -6.9028745780972359e-02 0.0000000000000000e+00  2.4715595644823704e-01 -6.4262455395717497e-02 0.0000000000000000e+00  7.6403018717840526e-02 -1.1933232547542541e-02 0.0000000000000000e+00  2.9412869774242532e-02 -2.3748984024756516e-03 0.0000000000000000e+00  -1.1910966965852181e-02 3.9388956955952389e-03 0.0000000000000000e+00  1.0476126825954075e-01 -2.4280242515104328e-02 0.0000000000000000e+00  3.9965751257473129e-05 5.2708394885388600e-06 0.0000000000000000e+00  -5.3616139277170576e-05 -5.7053312667723483e-05 0.0000000000000000e+00  3.7064978085683039e-05 -5.2499695964438281e-05 0.0000000000000000e+00  3.5058525978760087e-05 -1.9786542378394953e-06 0.0000000000000000e+00  -5.0971365040240098e-05 5.6962570678327945e-05 0.0000000000000000e+00  1.1749955751171916e-06 3.4377243127803195e-05 0.0000000000000000e+00  2.5813513154221310e-05 5.9942577717385273e-05 0.0000000000000000e+00  -2.3500955989241249e-06 1.1627269109643243e-05 0.0000000000000000e+00  7.2788245451699284e-07 -2.8384304482844148e-05 0.0000000000000000e+00  -2.6332129659848536e-07 -3.6823802258356437e-05 0.0000000000000000e+00  9.5356129717506918e-06 1.7584635204915441e-05 0.0000000000000000e+00  7.7185506651207764e-05 -1.4567484107413020e-04 0.0000000000000000e+00  -1.6733463533640701e-05 7.4200112584665997e-05 0.0000000000000000e+00  -5.8853853663758999e-05 -2.1278436034908899e-05 0.0000000000000000e+00  -1.2970557217472788e-04 -8.7612533633321654e-05 0.0000000000000000e+00  -6.4176849623055087e-05 2.1327963765388751e-05 0.0000000000000000e+00  -9.4029713991650041e-05 6.6765157869251460e-05 0.0000000000000000e+00  -1.1210100179074884e-05 -1.8692432484605708e-05 0.0000000000000000e+00  9.3317341577919596e-05 -4.4608567036860639e-05 0.0000000000000000e+00  6.8084999672352649e-05 4.3847815491621892e-05 0.0000000000000000e+00  5.6751784157252599e-05 9.0037561977763999e-05 0.0000000000000000e+00  -1.1502795732252902e-05 -5.3972501424293597e-05 0.0000000000000000e+00  -4.3874064433367476e-06 5.6926021780365722e-05 0.0000000000000000e+00  -9.4616162366232387e-05 -8.5333773416030375e-05 0.0000000000000000e+00  -6.6608112041657537e-05 -2.1883216782734444e-05 0.0000000000000000e+00  5.2739398949330898e-05 8.2198710300628931e-05 0.0000000000000000e+00  1.7294918937681657e-04 -1.5907038507590403e-04 0.0000000000000000e+00  -9.2355667339565192e-06 -2.1289301274668183e-06 0.0000000000000000e+00  3.0786331632812858e-06 1.8293809586299837e-06 0.0000000000000000e+00  -3.1067260553078901e-05 -6.2645270799294048e-05 0.0000000000000000e+00  -2.5885408590573390e-06 -9.0249520584843350e-05 0.0000000000000000e+00  -1.7043226041468223e-05 -5.8407788287878886e-05 0.0000000000000000e+00  -9.0427899617105521e-05 -1.6948426318053733e-04 0.0000000000000000e+00  -5.6724439819323418e-05 -5.1236778677791675e-05 0.0000000000000000e+00  -4.3836375832435545e-06 -2.3563818509678070e-05 0.0000000000000000e+00  -8.9642338095097078e-07 -2.0508051970130918e-06 0.0000000000000000e+00  -3.5367662515703609e-06 8.0376517581744056e-05 0.0000000000000000e+00  1.0253330679241610e-05 1.0708330259811069e-04 0.0000000000000000e+00  2.6543446836034827e-07 1.1473068954245962e-05 0.0000000000000000e+00  7.1596838299017927e-08 -4.2830577517270342e-05 0.0000000000000000e+00  6.1024754453585018e-06 -4.9509811208942186e-05 0.0000000000000000e+00  7.4824116252977379e-06 -4.6702513147167879e-05 0.0000000000000000e+00  -9.9605460112391749e-06 -8.5216518648574980e-06 0.0000000000000000e+00  -8.2045534694340255e-06 -6.7620820235423236e-06 0.0000000000000000e+00  5.4475322222177823e-05 1.2278240774136863e-04 0.0000000000000000e+00  1.3347384319481860e-04 -2.1146490375649420e-05 0.0000000000000000e+00  1.3750740945615806e-04 -7.7353739840805186e-05 0.0000000000000000e+00  8.6261058151571062e-05 -2.0284308807257459e-05 0.0000000000000000e+00  2.8893433078143655e-05 -1.2712204368655570e-04 0.0000000000000000e+00  9.1496394788599211e-05 -8.7743252748446673e-05 0.0000000000000000e+00  -3.9617978733684291e-05 -9.1728499090865370e-05 0.0000000000000000e+00  -2.4290353936136917e-04 2.2796460530198593e-04 0.0000000000000000e+00  -8.7843737710749874e-05 -5.8826369211402251e-05 0.0000000000000000e+00  -1.1227151179179565e-04 -1.0596841750498887e-04 0.0000000000000000e+00  -6.3223095571566477e-05 -3.1504409309576916e-05 0.0000000000000000e+00  2.0591673182006104e-06 6.1260797037030471e-05 0.0000000000000000e+00  -2.0947917445645605e-06 5.3566856126903632e-05 0.0000000000000000e+00  8.8819219984129387e-06 -5.3368347170360854e-05 0.0000000000000000e+00  1.7549895798444812e-05 -6.2111740782679097e-05 0.0000000000000000e+00  2.0869577415002442e-05 9.1679946704075485e-05 0.0000000000000000e+00  8.3820318168130345e-06 6.1221878638032762e-05 0.0000000000000000e+00  3.7939420200826043e-05 -3.2896447338485371e-05 0.0000000000000000e+00  2.5202765448868508e-05 -3.2323117135550515e-05 0.0000000000000000e+00  2.7050578162631439e-05 4.3867826646322098e-05 0.0000000000000000e+00  3.4537289722409649e-05 4.6661333028132672e-05 0.0000000000000000e+00  -4.0700297809861800e-05 -4.2917182222798566e-05 0.0000000000000000e+00  -4.5977803550360579e-05 -2.7614311588149010e-05 0.0000000000000000e+00  -4.7963151434603980e-05 2.9645476164202284e-05 0.0000000000000000e+00  -4.1488189718699226e-05 4.1829899055215030e-05 0.0000000000000000e+00  9.0383675037569359e-06 -1.1314534890683728e-07 0.0000000000000000e+00  3.6029118652943960e-05 -3.8759606209414074e-06 0.0000000000000000e+00  3.6605872657259069e-05 5.2065336192719561e-06 0.0000000000000000e+00  9.9140815146425297e-06 1.9191542160081884e-07 0.0000000000000000e+00  -6.2312977596568322e-05 -4.0495989356267997e-05 0.0000000000000000e+00  -5.4842682761615949e-05 2.0029497355105409e-04 0.0000000000000000e+00  -2.2047672128190941e-06 5.4694898418473380e-05 0.0000000000000000e+00  -5.5300251638642943e-05 3.4700478549648832e-05 0.0000000000000000e+00  3.8700831316135239e-05 -5.5301126800436475e-05 0.0000000000000000e+00  5.3225925243696661e-05 -1.4544751166208956e-04 0.0000000000000000e+00  8.3314495667308056e-06 -4.6404467738049191e-05 0.0000000000000000e+00  1.2740314705601873e-05 3.6202418784679803e-05 0.0000000000000000e+00  -3.3349625807466898e-03 1.3939411557436290e-03 0.0000000000000000e+00  -4.0271667073372649e-05 -4.8638856286843234e-05 0.0000000000000000e+00  -9.5332404210338352e-06 -4.5087669111071695e-05 0.0000000000000000e+00  -5.6034439415147687e-05 9.0976660441014558e-05 0.0000000000000000e+00  1.1216044274899518e-05 -4.0140223960328193e-05 0.0000000000000000e+00  5.5975719065134467e-06 8.5695381930116153e-05 0.0000000000000000e+00  -2.1705450609998550e-05 5.6929974408766114e-05 0.0000000000000000e+00  -3.7448852105050729e-06 1.9672047958340462e-05 0.0000000000000000e+00  -9.7213670159872602e-05 6.3835499693967480e-05 0.0000000000000000e+00  -6.8934210030603248e-05 4.5431517107771377e-05 0.0000000000000000e+00  -2.3195590396836939e-05 -1.1727252152441618e-06 0.0000000000000000e+00  -3.0762196939938981e-05 -4.7738936866402785e-06 0.0000000000000000e+00  7.0821391627639543e-05 6.5064927869995002e-05 0.0000000000000000e+00  1.0576869345915550e-04 3.9662530999885894e-05 0.0000000000000000e+00  7.4570313219040832e-05 2.7236490622719353e-05 0.0000000000000000e+00  -6.4810692328429284e-05 -1.2211038707230564e-04 0.0000000000000000e+00  1.6918973482790993e-04 1.7252981964586077e-05 0.0000000000000000e+00  -4.0881685191450159e-05 -1.2479639576201245e-05 0.0000000000000000e+00  -2.7485594448281247e-05 -3.7907961070038766e-06 0.0000000000000000e+00  -2.7147267636891994e-05 4.2610503177538888e-06 0.0000000000000000e+00  -4.5124287281268270e-05 1.5629228976966615e-05 0.0000000000000000e+00  -1.2840676117024333e-02 -5.8517064144617131e-03 0.0000000000000000e+00  -7.0170167661724931e-05 1.6822134617809707e-05 0.0000000000000000e+00  -1.8090373374788835e-05 7.7472318918109619e-07 0.0000000000000000e+00  6.0001501919299075e-05 -1.5505072344480566e-05 0.0000000000000000e+00  6.8127294606010587e-05 -2.3222150049209496e-05 0.0000000000000000e+00  6.8564312206675703e-05 -5.7021061424512641e-05 0.0000000000000000e+00  5.2545786418816223e-05 2.6210005488070117e-05 0.0000000000000000e+00  5.6532561800697536e-05 1.8233140610331118e-05 0.0000000000000000e+00  4.7372210379734582e-05 5.5958409695325756e-05 0.0000000000000000e+00  3.4063364779183099e-05 1.2314718828583649e-04 0.0000000000000000e+00  