<?xml version="1.0"?>
<VTKFile type="UnstructuredGrid"  version="0.1"  >
<UnstructuredGrid>
<Piece  NumberOfPoints="2549" NumberOfCells="4928">
<Points>
<DataArray  type="Float64"  NumberOfComponents="3"  format="ascii">1.654968721301295 -0.0414305026356734 0  1.649881996161928 0.004441165887254635 0  1.637510216677464 0.04486869557789747 0  1.629145009036753 0.08869703654181618 0  1.617609735008415 0.1320319912993031 0  1.605356132066668 0.1773520907764659 0  1.588833669700942 0.2221750184757429 0  1.574678119369718 0.2701454835916547 0  1.545708328502425 0.3141095528690343 0  1.515375722039668 0.337875235695295 0  1.496732066850011 0.3948027669871815 0  1.46580600442086 0.4344290585709065 0  1.435991593983637 0.4782884536727182 0  1.403034609741061 0.5188761693167746 0  1.368879204892598 0.5581403136599157 0  1.334947275655398 0.5998509779172927 0  1.291591501398051 0.6347098089569359 0  1.254989708250082 0.6542173320090857 0  1.219553304804916 0.7028436481938516 0  1.17919794216902 0.7373218456431533 0  1.138697313792127 0.7753871262296759 0  1.096540704059597 0.811053022907836 0  1.053649833721384 0.8465077148862732 0  1.010202397777145 0.8827606603612527 0  0.9626124316196549 0.9180387073002779 0  0.9160871631457553 0.9437624509646797 0  0.8695965282894607 0.9755428932134856 0  0.8215887270553762 1.006142496095015 0  0.7724952150730255 1.035901254921929 0  0.7222935372335589 1.064534459267102 0  0.6710557691421623 1.091733748991892 0  0.6189511410990317 1.11800168185022 0  0.564910066812916 1.141565794011128 0  0.5114416157695341 1.161902283506422 0  0.4566305400013499 1.182918609515399 0  0.401091109257407 1.200885119152173 0  0.3448784154221791 1.216953722085721 0  0.2881376216129668 1.230736019578831 0  0.2309168574751261 1.242191582969275 0  0.1734171383693104 1.251773474044997 0  0.1150901473698032 1.25801378231793 0  0.05746246549014003 1.262006611417128 0  -0.0007563610025277604 1.264790549067546 0  -0.05898774184910028 1.264734099984353 0  -0.1172803153600678 1.262452362416507 0  -0.1755199355822942 1.257562624209756 0  -0.2335619181249877 1.250325736776114 0  -0.2913906734666981 1.239841903720291 0  -0.3483087148622907 1.228525836498457 0  -0.4059947858480411 1.213975607961907 0  -0.4622703570100836 1.195641461518549 0  -0.517825960264503 1.17519699051717 0  -0.5724253633887376 1.152342072403805 0  -0.6259708418230671 1.127089595132003 0  -0.6783494423074354 1.100538265444928 0  -0.7293707694709261 1.069886357821093 0  -0.7783044782144363 1.044974291838955 0  -0.8296346995152193 1.01413051640859 0  -0.8769921480698312 0.9799535364173415 0  -0.9235203955706398 0.9461467372151893 0  -0.9689634121526622 0.9118125743313398 0  -1.013005709707776 0.8754344777808036 0  -1.056249133456664 0.8418169537686129 0  -1.096834176169735 0.7967448047715572 0  -1.134207552073474 0.7710439347285259 0  -1.178541840245821 0.7411668587976394 0  -1.216881525192669 0.7047063099114059 0  -1.255318169163725 0.6712042387707572 0  -1.292677645214955 0.6365155178782776 0  -1.330566259026944 0.606389961263082 0  -1.36547945812689 0.5685310060705314 0  -1.40937998056103 0.5610194032753927 0  -1.458365254008974 0.5186753261886601 0  -1.471629487657176 0.4477402283918387 0  -1.506217436694652 0.4081770677042547 0  -1.53017470314853 0.3592497613626812 0  -1.557182141456172 0.3134238455039881 0  -1.57051844682945 0.2573422072622031 0  -1.593614005020362 0.2165791881077571 0  -1.577981844160112 0.1422442719237222 0  -1.603726173678386 0.1307898662179017 0  -1.625746938239356 0.080918406629998 0  -1.59357644920735 0.03334134746259249 0  -1.602163837273943 -0.006576213450548728 0  -1.59293485984525 -0.04451441688164095 0  -1.604656859145513 -0.08245468085520084 0  -1.597079834231911 -0.1229010253609168 0  -1.633627287087065 -0.1712671920178331 0  -1.611509382351591 -0.2221482082064088 0  -1.585979484475455 -0.2318978021018017 0  -1.605639555119003 -0.3108832964543383 0  -1.582306332122401 -0.3521668328531842 0  -1.56993781449516 -0.4103587581013717 0  -1.542632567781647 -0.4571632897475153 0  -1.518305843525312 -0.5069484782133079 0  -1.481910110572376 -0.5456681645538815 0  -1.469257719027018 -0.615665335867704 0  -1.422410891357435 -0.6641390000478766 0  -1.377161808611563 -0.6691885622860356 0  -1.34268441452715 -0.7084012448496353 0  -1.304736256715811 -0.7385290319129352 0  -1.267744034634373 -0.7739694292234405 0  -1.229580207610538 -0.8081269550952671 0  -1.191655085343041 -0.8455409730454215 0  -1.147705285325042 -0.8755658232520229 0  -1.111479748999527 -0.9022578728693594 0  -1.071517015220202 -0.9519171012034923 0  -1.028533440222872 -0.9872457314771366 0  -0.984849655068697 -1.02634264595909 0  -0.9397675297762736 -1.063228316165402 0  -0.8935167918020746 -1.099768912527173 0  -0.8460948140770397 -1.136316449397145 0  -0.7959925475963481 -1.168547444195192 0  -0.7481134356092414 -1.200037837821456 0  -0.69585333785 -1.238300775035997 0  -0.6422891237090527 -1.268027226475882 0  -0.5874113623630943 -1.297175899430788 0  -0.5313703102838775 -1.322962047072604 0  -0.4742262072114949 -1.346020328404425 0  -0.4163469238023846 -1.366993070125025 0  -0.3561983785938408 -1.382704842880673 0  -0.2979983082859942 -1.394061106428458 0  -0.2384878138845726 -1.406061793958866 0  -0.1786239722077701 -1.414143511775849 0  -0.1184285896392466 -1.419616596555985 0  -0.05807061771354357 -1.421994343469281 0  0.002311240670603197 -1.42146877384787 0  0.06266338886773566 -1.417803226793961 0  0.1228136367650088 -1.410823279606315 0  0.1821847764318726 -1.401170436707957 0  0.2411614852333623 -1.389347237210253 0  0.2996209344846276 -1.375013261640925 0  0.3574587718399833 -1.358351340887714 0  0.4145818985644499 -1.339218512487642 0  0.4708143138441115 -1.318434153543262 0  0.5261532992860742 -1.293854144439352 0  0.5794922833930982 -1.272897409817299 0  0.6349859447724491 -1.246968224082663 0  0.6873054722117777 -1.217353576936681 0  0.7387818052342565 -1.187479462437087 0  0.7891380347044715 -1.156251765725005 0  0.8382970822952371 -1.124060442172692 0  0.8863017698962741 -1.091121297048951 0  0.932731950470744 -1.05735671637437 0  0.979289719247322 -1.029672295304463 0  1.02670619896313 -0.9922123852493083 0  1.070062213995105 -0.9541530997923691 0  1.112775913868949 -0.9168796963078999 0  1.154763689518013 -0.8795322090306825 0  1.195015563880605 -0.8396944932367948 0  1.235182360064408 -0.8038568089578416 0  1.270162612227472 -0.7528748224111588 0  1.306257220890899 -0.732626983962373 0  1.349485569457414 -0.6968764915743333 0  1.383058793782296 -0.6539185488243218 0  1.416894679475788 -0.6135630978124452 0  1.449485239390975 -0.571836219258944 0  1.478853781989861 -0.5267805263173649 0  1.509446125609567 -0.4862244186514148 0  1.527224860674571 -0.4275763617603835 0  1.55728514249567 -0.4035914790352085 0  1.585576873929421 -0.3584106350083923 0  1.598623770345739 -0.3092358629903213 0  1.614090610662321 -0.2633436488151327 0  1.625119658388044 -0.2169984805494989 0  1.634783451128176 -0.1724891070898303 0  1.642083645790792 -0.1282510378768627 0  1.650740919859949 -0.08643013050957954 0  -0.103557375867331 0.7488004072853137 0  0.6127144780407794 -0.704271836628876 0  -0.7703940855752542 -0.6224191653314184 0  -0.08108096355649318 -0.8736370970987706 0  0.6073855242727035 0.584399721786595 0  1.179000902546041 0.1907883717487655 0  -0.7813367675665008 0.4967387532460963 0  -1.268788461660155 -0.05305153555430438 0  1.185471755708007 -0.2895405036343351 0  -1.07506146969551 -0.4562648110168055 0  -0.8261094241889394 -0.06994729031487464 0  -0.4929870995173276 -0.2397579727951144 0  -1.083400644179429 0.3306348607673376 0  0.2829667524363039 -0.8477326134537044 0  0.1362964903097733 -0.2974769383571637 0  0.2463645851142552 0.7121411717392439 0  0.3435206949632667 0.1791738317015433 0  0.6689854842191136 -0.0539300869226628 0  -0.4236577696836326 -0.7725174717810011 0  -0.4588767805450898 0.6619556841785754 0  -0.2856979399326212 0.2321191402641349 0  0.9308271251642787 -0.4875757816790594 0  0.924498323469342 0.3816245910601741 0  0.4131710064684349 -0.3254927488329425 0  0.02691702639887533 0.2270851980583044 0  -0.5577836367098115 0.1751953291647659 0  -0.1810656410305722 -0.2914221039083025 0  0.9610180912308822 -0.05153116518292861 0  1.374671775591139 -0.04640841495251858 0  0.7721585379640795 -0.5930770704488416 0  0.7913926619922289 -0.2789556070880061 0  0.6323006054426265 -0.376000474100711 0  0.5398844051906744 -0.1861099049276552 0  0.507371241292761 -0.5194873123958839 0  0.9393147304299605 -0.2681604304269964 0  0.8145169727230387 -0.05270133115133116 0  -0.9461094960883927 0.13795246007402 0  -1.17376765664757 0.1384833875600847 0  -1.052538957356107 -0.06059900274824595 0  -0.9416897492400548 -0.2704869991135176 0  -1.17126141355093 -0.2538321908492915 0  -1.354488279644373 -0.3520455126476842 0  -1.42897172407683 -0.1637702330497586 0  -1.42467214088724 0.06401101506605358 0  -1.345477677919145 0.2494051162744781 0  -0.1316526287441283 -0.5820244324096168 0  -0.2962234989266712 -0.5369224665690278 0  -0.2536213764242202 -0.8288646874092408 0  -0.3362873882659962 -0.2668914674183946 0  -0.4547967204470845 -0.5031669307060711 0  -1.27240407101605 -0.5411426354665106 0  -1.269760610865991 0.4306571772988085 0  0.346917725230015 -0.5840063028641274 0  0.2738597708173829 -0.3130251203046701 0  0.2043658037052952 -0.5753603349225762 0  -0.9313998441360125 0.4085309660779993 0  -0.7955472039518586 0.2114562843420779 0  1.374395886240288 -0.3623925297350268 0  1.242603743074287 -0.5232408757221221 0  1.231626866771749 0.4247527253835759 0  1.365011749923794 0.2682594353878069 0  -0.770784997951048 -0.8993090876376371 0  -0.9528758434549401 -0.7666292045667318 0  -0.9518846157890626 0.6508027457249671 0  -0.7702565939936221 0.7727858322788562 0  0.7858131890081712 -0.8817774966284549 0  0.589985601930349 -0.9893926323550437 0  0.5810300453178624 0.864655529296418 0  0.7754514429977515 0.7658968743000253 0  0.009903551034100341 
[...]
<PointData  Vectors="f_2147"> 
<DataArray  type="Float64"  Name="f_2147"  NumberOfComponents="3" format="ascii">3.0171431494617335e-02 3.7702467862804574e-02 0.0000000000000000e+00  6.8838312488814435e-01 1.6978916352574971e-01 0.0000000000000000e+00  -7.5632969011808743e-02 -2.1707790268111725e-02 0.0000000000000000e+00  -1.5217404071675751e-02 -6.3619922906791746e-03 0.0000000000000000e+00  4.5634804162489467e-02 1.3924464819851172e-02 0.0000000000000000e+00  6.1081631278950263e-02 2.3834592316268725e-02 0.0000000000000000e+00  -8.5502566972221923e-03 8.7880833286831973e-03 0.0000000000000000e+00  -1.1559654058580762e+00 -2.4797310267039732e-01 0.0000000000000000e+00  1.8002573563516999e+00 2.0035497897176811e+00 0.0000000000000000e+00  7.1897789102460097e-01 3.8966873849140377e-01 0.0000000000000000e+00  -1.3991637082757076e+00 -6.8434669927721925e-01 0.0000000000000000e+00  -5.2482303191631341e-01 -2.6029378957506072e-01 0.0000000000000000e+00  -3.4529856697279826e-01 -2.3900932606043884e-01 0.0000000000000000e+00  8.6635665380072410e-05 1.5124700102632843e-02 0.0000000000000000e+00  1.7269262757383986e-02 4.0875224955905176e-02 0.0000000000000000e+00  -1.0526631629673195e+00 -6.5120214259415754e-01 0.0000000000000000e+00  1.6772872230717526e+00 2.9438483730971408e+00 0.0000000000000000e+00  9.7038592346046426e-01 6.3342947999692811e-01 0.0000000000000000e+00  -1.8861897675243235e+00 -1.6826860563787569e+00 0.0000000000000000e+00  -6.5811349789116236e-01 -5.8957479093661325e-01 0.0000000000000000e+00  -3.2504717975936148e-01 -3.3927914043832852e-01 0.0000000000000000e+00  -1.6861939919324085e-02 -1.2037390682953036e-02 0.0000000000000000e+00  -2.3626273763632966e-02 -2.9578775758752118e-02 0.0000000000000000e+00  -1.6736173504766522e-01 -1.9250558688187316e-01 0.0000000000000000e+00  5.0647025589547179e-01 8.4977823558107290e-01 0.0000000000000000e+00  -3.4314393608991695e-01 -5.7475045531264857e-01 0.0000000000000000e+00  -1.8247288394838548e-01 -2.7389271734500126e-01 0.0000000000000000e+00  5.7965276773211632e-04 9.8657479132075853e-03 0.0000000000000000e+00  -4.1773669931009061e-02 -6.9028378908806878e-02 0.0000000000000000e+00  -1.1598364914242694e-02 -1.8216259899586803e-02 0.0000000000000000e+00  -3.3971178273464311e-02 -6.4821786799386882e-02 0.0000000000000000e+00  -7.0475940790108452e-02 -1.3686278671257354e-01 0.0000000000000000e+00  3.8981235474933817e-02 1.0220749231405345e-01 0.0000000000000000e+00  -1.0100771334921160e-02 -2.7249078663873060e-02 0.0000000000000000e+00  -5.9433509049372231e-02 -1.5891934508217725e-01 0.0000000000000000e+00  -1.5237512119009323e-02 -4.7629311001799915e-02 0.0000000000000000e+00  -2.7810471070356075e-02 -1.0029335536540665e-01 0.0000000000000000e+00  -1.3856112850798101e-02 -5.8377786221347844e-02 0.0000000000000000e+00  -1.6995488070522667e-02 -9.0630009073528653e-02 0.0000000000000000e+00  -1.3630985325670433e-02 -8.2632910677228291e-02 0.0000000000000000e+00  -3.4708332856137635e-03 -4.1734306642617673e-02 0.0000000000000000e+00  -3.9314469124677748e-03 -6.1679498719216401e-02 0.0000000000000000e+00  -1.7523014998623032e-03 -5.9135048866947267e-02 0.0000000000000000e+00  1.2867660848260259e-03 -5.1146359264577890e-02 0.0000000000000000e+00  3.1761646325978127e-03 -4.4631555969580905e-02 0.0000000000000000e+00  3.4153805697520238e-03 -2.9138192623207288e-02 0.0000000000000000e+00  8.5933334086017200e-03 -4.3361138168602154e-02 0.0000000000000000e+00  5.5343481556120663e-03 -2.7859499031542521e-02 0.0000000000000000e+00  -1.2275058348193981e-02 6.0077537572578645e-02 0.0000000000000000e+00  1.7713412858936926e-02 -4.1493604717181297e-02 0.0000000000000000e+00  2.2870175812178661e-02 -6.2308679315371263e-02 0.0000000000000000e+00  6.2402050167914150e-03 -1.0499702856648975e-02 0.0000000000000000e+00  4.8094049627314429e-02 -1.0314658016552987e-01 0.0000000000000000e+00  8.0242872356148277e-03 -9.8296257141597468e-03 0.0000000000000000e+00  1.8025226546783052e-01 -3.1570235162719984e-01 0.0000000000000000e+00  -1.8741130602619074e-02 2.8886537321547025e-02 0.0000000000000000e+00  -2.5070133346836382e-01 4.6708376020752740e-01 0.0000000000000000e+00  1.5585390954705422e-01 -2.0203573351912427e-01 0.0000000000000000e+00  1.5741331913441979e-02 -2.0501483460403598e-02 0.0000000000000000e+00  -8.9986392042380769e-04 7.6874544303706866e-04 0.0000000000000000e+00  1.7087040361005731e-01 -2.1492852053452824e-01 0.0000000000000000e+00  2.7675923416796899e-01 -3.2897890244694439e-01 0.0000000000000000e+00  5.5882949010489724e-01 -5.8807783508483114e-01 0.0000000000000000e+00  -1.2337779081645501e+00 1.1884765859115225e+00 0.0000000000000000e+00  1.9711087282516074e-01 -2.3076472290755665e-01 0.0000000000000000e+00  6.1580477748077744e-01 -6.3886603723594049e-01 0.0000000000000000e+00  4.7088321979993145e-02 -2.7129971737399425e-02 0.0000000000000000e+00  3.1100986028658228e-01 -2.3267086470022422e-01 0.0000000000000000e+00  7.4831464586808383e-01 -4.5555322127339443e-01 0.0000000000000000e+00  2.1856252842093107e+00 -1.5500775183133395e+00 0.0000000000000000e+00  2.6707636977085312e-02 -5.1170916495071650e-01 0.0000000000000000e+00  -1.7305849873237995e+00 3.8889532897546499e+00 0.0000000000000000e+00  1.0797189139869110e+00 1.2527389348240114e-01 0.0000000000000000e+00  -1.6651106408305505e-01 2.3118399700768927e-01 0.0000000000000000e+00  -4.2760177485894035e-01 3.4986267734338655e-01 0.0000000000000000e+00  -1.3704134951734875e-01 1.1020908659309836e-01 0.0000000000000000e+00  4.3639466834358581e-01 -1.8886597979978995e-01 0.0000000000000000e+00  3.5796013734667004e-01 -1.0257373905156313e-01 0.0000000000000000e+00  -4.0940705798012145e-01 1.7936645748362251e-01 0.0000000000000000e+00  -1.4531152457783918e+00 8.3399500477241295e-01 0.0000000000000000e+00  -6.1843552874940755e-01 3.2975819687503083e-01 0.0000000000000000e+00  -9.4667749783189603e-01 8.3666681781212407e-02 0.0000000000000000e+00  -5.2176418067777530e-01 4.7822180283125959e-02 0.0000000000000000e+00  -2.0011891001609849e+00 1.5669312427981674e-01 0.0000000000000000e+00  3.2688312782666695e-01 2.5381474666312825e-01 0.0000000000000000e+00  2.6066179449215370e+00 -2.6153475552476834e-02 0.0000000000000000e+00  1.4809967921527982e+00 -2.0950076714146051e-01 0.0000000000000000e+00  5.1599959041403787e-01 3.2871461718318638e-02 0.0000000000000000e+00  7.1796664975784552e-01 5.0574085517097633e-01 0.0000000000000000e+00  8.9485795606491536e-01 4.5932240137249691e-01 0.0000000000000000e+00  4.3769041178444301e-01 1.1507952999681036e-01 0.0000000000000000e+00  1.8750295700065450e-01 4.1620332891863170e-02 0.0000000000000000e+00  1.0658132054573141e-01 4.7365384832525566e-02 0.0000000000000000e+00  -7.6846943428704420e-02 -6.6260919967187665e-02 0.0000000000000000e+00  -1.5724676073321511e-01 -1.6064811982106714e-01 0.0000000000000000e+00  1.4627896085302425e-01 3.3767497127029825e-02 0.0000000000000000e+00  1.0030191024250807e+00 2.7808757358682612e-01 0.0000000000000000e+00  -5.8461010275182212e-01 -1.5432707413241828e+00 0.0000000000000000e+00  4.0612022485762556e-01 6.8197887527270362e-01 0.0000000000000000e+00  1.8014425182601010e+00 1.2480760177511738e+00 0.0000000000000000e+00  6.2561180184007381e-01 3.9014840410722251e-01 0.0000000000000000e+00  2.3887324523798417e-01 1.6894867802468563e-01 0.0000000000000000e+00  4.2993848584570137e-02 2.7175394878682473e-02 0.0000000000000000e+00  4.1480327870377454e-01 4.2585748103350579e-01 0.0000000000000000e+00  3.3987366196260765e-01 4.6014418817549574e-01 0.0000000000000000e+00  -9.0470161316236275e-01 -7.8941781370315722e-01 0.0000000000000000e+00  3.4616712236621844e-01 3.3043978963265125e-01 0.0000000000000000e+00  2.4064717282818171e-01 2.7327386454702091e-01 0.0000000000000000e+00  1.1724513509447314e-01 1.3907327607629211e-01 0.0000000000000000e+00  -1.3485548084028181e-04 8.5134161427176294e-04 0.0000000000000000e+00  8.5851541734200711e-03 1.1106763054771322e-02 0.0000000000000000e+00  1.0138567496953113e-02 3.1476210628873899e-03 0.0000000000000000e+00  4.2303900643243367e-02 7.3066771785819523e-02 0.0000000000000000e+00  -1.6005257784534091e-01 -2.2695254770647336e-01 0.0000000000000000e+00  1.2139427618284213e-01 1.6045797718937513e-01 0.0000000000000000e+00  1.0153249330965409e-02 2.4005478659823637e-02 0.0000000000000000e+00  5.9365105741088629e-02 1.1513690543349099e-01 0.0000000000000000e+00  -4.6376429480663442e-03 -1.2511323286109276e-02 0.0000000000000000e+00  2.3524256816855826e-02 6.1821140206890439e-02 0.0000000000000000e+00  3.3084899797993790e-02 7.0897744932741896e-02 0.0000000000000000e+00  -3.4520155583575240e-02 -1.6169392693666629e-01 0.0000000000000000e+00  4.9837854854676048e-04 4.7883073368409201e-03 0.0000000000000000e+00  1.3888815212837954e-02 6.9428760682265458e-02 0.0000000000000000e+00  1.2619194145563101e-03 6.4459020482202783e-03 0.0000000000000000e+00  2.8251884466397232e-03 3.1358636074145484e-02 0.0000000000000000e+00  7.6245541592785877e-04 1.9803687853340499e-02 0.0000000000000000e+00  -5.1704203926102358e-04 2.6629462961528742e-02 0.0000000000000000e+00  -1.7630640703945330e-03 2.2102860519166663e-02 0.0000000000000000e+00  -4.5267387938461761e-03 3.1016374524354615e-02 0.0000000000000000e+00  -6.0888573445051436e-03 3.2977813869311305e-02 0.0000000000000000e+00  -8.1518637562869103e-03 3.5369313868398103e-02 0.0000000000000000e+00  -8.2943881992752124e-03 2.9496526394216682e-02 0.0000000000000000e+00  -1.5432883374018951e-02 4.7343678474289205e-02 0.0000000000000000e+00  -6.8953356623982654e-03 1.7614261362664491e-02 0.0000000000000000e+00  -4.5699016006452403e-02 1.0730424813850907e-01 0.0000000000000000e+00  -1.8800946830671800e-03 4.9915357992099925e-03 0.0000000000000000e+00  6.9907360759859150e-02 -1.6917609306604320e-01 0.0000000000000000e+00  -5.5834599151019501e-02 9.2244439336303594e-02 0.0000000000000000e+00  -1.4408926107236772e-02 2.4358332042962821e-02 0.0000000000000000e+00  1.5016353094447091e-03 -3.7455085362715986e-03 0.0000000000000000e+00  -1.4799593458080757e-02 2.2152291204817470e-02 0.0000000000000000e+00  5.3187404390334413e-03 -1.1961856297216173e-02 0.0000000000000000e+00  -7.3089823536633861e-02 1.0365078795052050e-01 0.0000000000000000e+00  -1.8364747888235192e-01 2.8879013843468504e-01 0.0000000000000000e+00  2.4881951562584273e-01 -3.8951187927972614e-01 0.0000000000000000e+00  -4.6859084434652087e-02 4.6856922917655364e-02 0.0000000000000000e+00  -9.3921107733204567e-03 1.1149690334226931e-02 0.0000000000000000e+00  -4.7214113238866831e-03 1.1485631325060712e-03 0.0000000000000000e+00  -1.3728789615422196e-01 1.3565467158638470e-01 0.0000000000000000e+00  -3.0162942927006303e-01 2.5808763239302041e-01 0.0000000000000000e+00  -8.1177721044350881e-01 6.9073099475104616e-01 0.0000000000000000e+00  4.6201212523719920e-01 -2.9754794194173112e-01 0.0000000000000000e+00  7.4910357089259361e-01 -1.2646060349039645e+00 0.0000000000000000e+00  -4.3849706749426032e-01 2.4574543600641041e-01 0.0000000000000000e+00  1.8547755692542748e-02 -2.7310482309069919e-02 0.0000000000000000e+00  1.6138922159585397e-02 -2.0884369823067676e-02 0.0000000000000000e+00  -1.1476103784303485e-01 7.6329065689581380e-02 0.0000000000000000e+00  -1.8349235587559309e-01 8.0938210373158528e-02 0.0000000000000000e+00  -5.1582270529235852e-01 2.4380491563218273e-01 0.0000000000000000e+00  1.5600610599269299e-01 -7.4565575295345771e-02 0.0000000000000000e+00  5.6041055522478112e-01 -6.0418355187390638e-01 0.0000000000000000e+00  -2.7473899116626849e-01 3.3509396369076662e-02 0.0000000000000000e+00  1.6574810154779223e-02 -7.8913140558922023e-03 0.0000000000000000e+00  3.9284143765250405e-02 -1.4465796658891326e-02 0.0000000000000000e+00  4.3638615476930279e-02 -9.4824897022393346e-03 0.0000000000000000e+00  3.3566891297264700e-02 -5.2464114662379973e-03 0.0000000000000000e+00  1.5815168143557403e-02 -2.2612036326165722e-03 0.0000000000000000e+00  -2.5088780023046542e-01 5.0081948439788519e-02 0.0000000000000000e+00  2.5947128421310384e-05 5.2777646030924394e-06 0.0000000000000000e+00  -2.5788805646783543e-05 -3.6473619823985270e-05 0.0000000000000000e+00  1.2603402839337129e-05 -5.1172935193608498e-05 0.0000000000000000e+00  2.0105168764979827e-05 -2.8378871548779481e-06 0.0000000000000000e+00  -8.0102463213078490e-05 8.3155375209607808e-05 0.0000000000000000e+00  -1.8751440180643655e-06 4.6815115482808203e-05 0.0000000000000000e+00  3.3014962559652284e-05 6.9694288258410238e-05 0.0000000000000000e+00  -3.7041706625847489e-06 6.6652421024083162e-06 0.0000000000000000e+00  1.7728820366670758e-06 -2.9487346706356249e-05 0.0000000000000000e+00  -7.6092588789617799e-07 -5.4680349663716342e-05 0.0000000000000000e+00  1.3020166135661225e-05 4.2049849997370615e-05 0.0000000000000000e+00  3.7793458630115922e-05 -2.6037092977967985e-05 0.0000000000000000e+00  1.9311757528549700e-06 6.5191283755602951e-05 0.0000000000000000e+00  -5.1373824325955048e-05 -2.6658992377807182e-05 0.0000000000000000e+00  4.5748729459429093e-04 -3.2887365334705835e-04 0.0000000000000000e+00  -8.2914952325950831e-05 2.1302758687333424e-05 0.0000000000000000e+00  -1.7685075763291364e-04 1.6641278568438914e-04 0.0000000000000000e+00  -1.7985379307694505e-05 6.4655298056047667e-05 0.0000000000000000e+00  5.6043193096982027e-05 -5.0827093657487683e-05 0.0000000000000000e+00  6.4372742113076570e-05 4.4562309244435531e-05 0.0000000000000000e+00  1.2580892340614982e-04 9.5977530288883842e-05 0.0000000000000000e+00  3.5438542910627528e-06 -6.1663992398459358e-05 0.0000000000000000e+00  -2.3170936212862778e-05 7.6540730625078757e-05 0.0000000000000000e+00  -1.3382384551822112e-04 -2.1394153507275622e-05 0.0000000000000000e+00  -1.2483837648451820e-04 -2.9335952863729017e-05 0.0000000000000000e+00  4.6571293925969194e-05 7.8914543848240554e-05 0.0000000000000000e+00  -1.6499035613442409e-04 1.0632206796737766e-04 0.0000000000000000e+00  -1.3030378758382733e-05 2.3130024308830831e-05 0.0000000000000000e+00  4.1357854794903700e-06 1.4517669727195166e-06 0.0000000000000000e+00  -1.1441848165526746e-06 -4.0612051158911753e-05 0.0000000000000000e+00  1.7536691555767583e-05 -8.8125335322972772e-05 0.0000000000000000e+00  3.0922860939598380e-05 -1.6602086900685244e-05 0.0000000000000000e+00  -6.6605767170225530e-05 -1.4171582114448750e-04 0.0000000000000000e+00  -1.9881350886024468e-05 5.4081356115412047e-05 0.0000000000000000e+00  -6.6667133914710122e-06 6.0455435039725276e-06 0.0000000000000000e+00  -1.7653480156148147e-06 2.5120957480222986e-05 0.0000000000000000e+00  9.1042025549283284e-06 7.5512814473523515e-05 0.0000000000000000e+00  1.5163476047281839e-05 6.5130886481788253e-05 0.0000000000000000e+00  1.9802526671563943e-06 1.9388731109127677e-05 0.0000000000000000e+00  -3.9361312969706755e-06 -4.1075140628908755e-05 0.0000000000000000e+00  5.2407086797147352e-06 -7.2471986971821414e-05 0.0000000000000000e+00  9.6183767077182301e-06 -6.5250739275865975e-05 0.0000000000000000e+00  -8.6917611228184055e-06 8.2259837330086269e-06 0.0000000000000000e+00  -9.5576789479782459e-07 6.8702624738787253e-06 0.0000000000000000e+00  1.4289143822030306e-05 6.7635203734049812e-05 0.0000000000000000e+00  2.5062101333640140e-05 -2.1356133293776478e-06 0.0000000000000000e+00  1.7890638307170174e-05 -4.8249687189014288e-05 0.0000000000000000e+00  5.6516219249131951e-05 -2.5709053537661318e-05 0.0000000000000000e+00  -2.1014163662808972e-05 3.0865792472280733e-05 0.0000000000000000e+00  1.4734884470991101e-05 -3.8889513897570155e-05 0.0000000000000000e+00  -5.0218636995662895e-05 -1.4330667080669266e-04 0.0000000000000000e+00  -5.5727872773373365e-05 1.7349582219698369e-04 0.0000000000000000e+00  -3.2532118560525092e-05 -3.3346516204007425e-05 0.0000000000000000e+00  1.3088559606960130e-05 1.7449135973112871e-05 0.0000000000000000e+00  -2.9056498222373284e-05 -6.5211830649999762e-05 0.0000000000000000e+00  1.4660232396705041e-05 7.2677867801345888e-05 0.0000000000000000e+00  1.5977906857324016e-05 6.4135324853334820e-05 0.0000000000000000e+00  1.5326988169551362e-05 -6.2511913314622917e-05 0.0000000000000000e+00  1.4327531603557792e-05 -7.8868445617433013e-05 0.0000000000000000e+00  2.0572129867541802e-06 8.4642051206959768e-05 0.0000000000000000e+00  4.9019871800651499e-06 7.2653019545648381e-05 0.0000000000000000e+00  2.8689842496618987e-05 -4.5975110449343593e-05 0.0000000000000000e+00  1.5945608000204881e-06 -5.1954491600887444e-05 0.0000000000000000e+00  1.4401931814045696e-05 5.9166784290100064e-05 0.0000000000000000e+00  4.3048733225422501e-05 4.9143379159555146e-05 0.0000000000000000e+00  -2.2933077689474840e-05 -5.8430493800414371e-05 0.0000000000000000e+00  -3.8950829502113175e-05 -3.7821716535305755e-05 0.0000000000000000e+00  -6.2871700081381743e-05 3.7251690498078989e-05 0.0000000000000000e+00  -4.6666690916432468e-05 5.8745416012956201e-05 0.0000000000000000e+00  6.5168132841596118e-06 -2.2265575120509855e-07 0.0000000000000000e+00  3.4202101416782099e-05 -8.2044867598531459e-06 0.0000000000000000e+00  3.2855330273750307e-05 8.3327144710225340e-06 0.0000000000000000e+00  2.5523958148345881e-06 -1.6500870208928375e-07 0.0000000000000000e+00  -4.5346454652566865e-05 -4.3045093855214445e-05 0.0000000000000000e+00  -1.1776536768619660e-04 2.4588943100306798e-04 0.0000000000000000e+00  -5.4872459915262950e-05 1.0610859081180323e-04 0.0000000000000000e+00  -1.1707684387203787e-04 1.0516411299532299e-04 0.0000000000000000e+00  5.8480072109760677e-06 -3.5324778677471287e-06 0.0000000000000000e+00  1.6825181433135838e-05 -7.3671191111255002e-05 0.0000000000000000e+00  -5.4028743039416364e-06 -2.5492660626767733e-05 0.0000000000000000e+00  -2.3164343803529062e-04 1.2700843861035037e-04 0.0000000000000000e+00  -6.3042342604041068e-03 1.4487713436189295e-03 0.0000000000000000e+00  -1.3914927649698311e-04 2.0804143288630813e-04 0.0000000000000000e+00  -2.5340846957466452e-05 -7.5104806632367649e-05 0.0000000000000000e+00  -1.2811571756137332e-05 8.3252079733613804e-05 0.0000000000000000e+00  -2.1048508836139530e-06 -4.3162776966895259e-05 0.0000000000000000e+00  -2.2223134758296312e-05 1.1903127682658873e-04 0.0000000000000000e+00  -5.1233739602161012e-05 9.1567926944252122e-05 0.0000000000000000e+00  -1.0031937164992107e-05 4.8569166242176426e-05 0.0000000000000000e+00  -1.4785807572057440e-04 7.4769739054253263e-05 0.0000000000000000e+00  -9.1408137509174799e-05 5.1754629749041210e-05 0.0000000000000000e+00  -3.6888939063230730e-05 1.2241270204601119e-05 0.0000000000000000e+00  -3.2905629906047608e-05 -3.5303954617312144e-06 0.0000000000000000e+00  6.7672278632961849e-05 5.5048865686589286e-05 0.0000000000000000e+00  9.1008627974652483e-05 3.6624031406809249e-05 0.0000000000000000e+00  6.4707864435702776e-05 2.7743894386152374e-05 0.0000000000000000e+00  -6.5210371767560375e-05 6.1025594931270270e-05 0.0000000000000000e+00  4.6505238927870025e-03 -2.4706812542826268e-03 0.0000000000000000e+00  -3.8783200807039858e-05 -1.8775913870293400e-05 0.0000000000000000e+00  -2.6906390446362385e-05 -4.3025503253644827e-06 0.0000000000000000e+00  -3.7484885855615000e-05 3.7850897786889236e-06 0.0000000000000000e+00  -5.9066953095015189e-05 1.6687858304328474e-05 0.0000000000000000e+00  3.5090741179973428e-03 -5.5482031032654954e-04 0.0000000000000000e+00  -1.0470048092295613e-04 1.6405224197279166e-05 0.0000000000000000e+00  -3.4213301352823018e-05 -2.3923638965803358e-07 0.0000000000000000e+00  5.4203639444723953e-05 -2.4782596692489744e-05 0.0000000000000000e+00  4.7898049242865815e-05 -3.5862499503059374e-05 0.0000000000000000e+00  3.5305933829350369e-05 -5.7973204769070470e-05 0.0000000000000000e+00  5.3555161397758248e-05 3.5383196475104628e-05 0.0000000000000000e+00  5.6630542229574193e-05 2.3491615609495207e-05 0.0000000000000000e+00  5.0056248755470632e-05 5.8917862586446300e-05 0.0000000000000000e+00  4.4023555733898321e-05 1.1393629993180474e-04 0.0000000000000000e+00  3.7181712569125594e-05 6