<?xml version="1.0"?>
<VTKFile type="UnstructuredGrid"  version="0.1"  >
<UnstructuredGrid>
<Piece  NumberOfPoints="2549" NumberOfCells="4928">
<Points>
<DataArray  type="Float64"  NumberOfComponents="3"  format="ascii">1.634807050144185 -0.04085361872933608 0  1.624899449226277 0.001752710247947589 0  1.621267537726568 0.04355253388117963 0  1.612140996726748 0.08706425855795297 0  1.600972516348035 0.1289579435080404 0  1.589932494460426 0.1737451086242103 0  1.572068455009347 0.2168330712983486 0  1.574342115942475 0.2672836390307546 0  1.522517370805446 0.2991095846232924 0  1.506178349470745 0.3305728028548782 0  1.495677644189786 0.4008046372864648 0  1.454700382279053 0.4266693612058046 0  1.429617793963489 0.4731361688968986 0  1.396781403012787 0.5128467569453964 0  1.361124220986895 0.5504870781181621 0  1.348367106951623 0.6052068678249719 0  1.271962624887752 0.6101861845191514 0  1.257128398823926 0.6444031173015347 0  1.232596148501323 0.7296330462168218 0  1.176072626813687 0.7302909682147928 0  1.142148660160984 0.7756547336247764 0  1.099321085323733 0.8102078661672214 0  1.060889530092566 0.849910014985057 0  1.020152312114896 0.8935864085298123 0  0.9643948749453034 0.9129282135392914 0  0.9338409980028983 0.9640084211396409 0  0.8819358299698264 0.9943095103935415 0  0.8340758322354208 1.021756292966108 0  0.7874036774517579 1.057606983519597 0  0.7376888628622242 1.087966092220882 0  0.6872558254860509 1.118650817745603 0  0.6368812987829671 1.149361421847675 0  0.5818338352387846 1.173128473783501 0  0.528811826218304 1.198185913520202 0  0.4747769194766735 1.223759954485027 0  0.4178478457951332 1.242383186294496 0  0.3616114506203235 1.261800975666796 0  0.3039700006037187 1.277491732611166 0  0.2456502239395933 1.291456473504096 0  0.1872401481500728 1.302805049954475 0  0.1272726342355753 1.310359695289387 0  0.06802157156985367 1.315588418925795 0  0.00812920404317035 1.318669082639312 0  -0.05175557083021338 1.318459809020929 0  -0.1116932231614959 1.315537619460788 0  -0.1713697436942522 1.309474760547684 0  -0.2309012703260108 1.301057990899405 0  -0.2898512479589914 1.288981896910125 0  -0.3478150473838101 1.27419938610068 0  -0.4064755575426688 1.257883631430924 0  -0.4627488456832707 1.237187518364285 0  -0.5184390109564629 1.213406724381325 0  -0.573580964717366 1.189309220700218 0  -0.6254286866231704 1.159344914108586 0  -0.6810115880776185 1.137734731105482 0  -0.7306964077806989 1.099092125397624 0  -0.7748393137324545 1.065104880663997 0  -0.8318411747050033 1.040811208794391 0  -0.8742687188451154 0.9989869061348251 0  -0.9196914326794614 0.9626813197254415 0  -0.965293705050764 0.9269494925048802 0  -1.006578841937673 0.8889068597458323 0  -1.059589836154348 0.8681033785010647 0  -1.081285016242478 0.788939318317908 0  -1.123627757124706 0.7767075416917727 0  -1.172834254656074 0.7443605915128807 0  -1.198187875439722 0.6954908521267579 0  -1.240217566156122 0.6676267039166356 0  -1.270750757867563 0.6122367957373722 0  -1.307489362660941 0.6130753394741951 0  -1.352499371357665 0.5478894842158041 0  -1.359582668322835 0.496003664459061 0  -1.456857458662965 0.5091276862751617 0  -1.448151831596687 0.4351094537857506 0  -1.482443813859106 0.402062604306636 0  -1.507068767691595 0.3549304670056186 0  -1.534156410012937 0.3124905893243244 0  -1.547452839584976 0.2602953648877833 0  -1.570517842966891 0.2235624682537611 0  -1.554921387720839 0.1466090905326739 0  -1.587851305191389 0.1418721114060158 0  -1.603685981378502 0.09132852959705871 0  -1.569900735325853 0.03936637886803948 0  -1.560690856520689 0.003038106351259158 0  -1.557312162135249 -0.03953193101222908 0  -1.572855014001389 -0.07040605940431123 0  -1.54970846065141 -0.1095837878863162 0  -1.567482392080374 -0.1530608504308443 0  -1.549901151552143 -0.2039901486130011 0  -1.528087162143833 -0.2130594529935403 0  -1.555424475931575 -0.2815229613744543 0  -1.534089079246922 -0.3242807063350268 0  -1.526011985547733 -0.38154394052031 0  -1.501153569669004 -0.4276447450947379 0  -1.477096137099563 -0.4764222618042913 0  -1.441596062741695 -0.5100363794768852 0  -1.442120205087936 -0.5807599487483316 0  -1.366970144324254 -0.5981919435448964 0  -1.34361458173503 -0.6268228051638803 0  -1.307174926934918 -0.6840479383647535 0  -1.271529671335563 -0.6939802256884979 0  -1.241463922563598 -0.7450618619444913 0  -1.202291322719172 -0.7764714329552052 0  -1.173682643746568 -0.8220454711373898 0  -1.130940869877623 -0.8583039159793401 0  -1.087992023046625 -0.8738840722994186 0  -1.064229233794502 -0.9460743958001726 0  -1.015848126766925 -0.9752367277491935 0  -0.9737594622864653 -1.014208081183275 0  -0.9297815916648297 -1.052903830683657 0  -0.8844910463491037 -1.091797679932465 0  -0.8392005730382212 -1.129916488722002 0  -0.7914397098829429 -1.168050398841853 0  -0.7388643797350545 -1.194310348734906 0  -0.694752685647792 -1.242237467820173 0  -0.6367008424513644 -1.270241062689839 0  -0.5842984549915226 -1.30064200508604 0  -0.5278992206594461 -1.327391846563165 0  -0.4712314990281887 -1.35272409072826 0  -0.4149842985132607 -1.376788850407495 0  -0.3538311253320647 -1.39244682565312 0  -0.2954884911827346 -1.408466649729753 0  -0.2356295538798509 -1.422408199766983 0  -0.174835757812509 -1.430422234317218 0  -0.1141782473508334 -1.437401405912246 0  -0.05300211211333827 -1.440402540069563 0  0.008174988224647359 -1.440527838729077 0  0.06931699373393634 -1.437081574847356 0  0.1303293315350831 -1.430342999470335 0  0.1904949177911977 -1.420478137324596 0  0.2502231424397887 -1.408163979601727 0  0.3091964524759027 -1.392865300867496 0  0.3675997325515804 -1.375520418906224 0  0.4246089972054095 -1.354520336324552 0  0.481774263023158 -1.334736935488587 0  0.5371007680797629 -1.30744235809351 0  0.5891153935772678 -1.281697513992458 0  0.6458554409862437 -1.257487572017043 0  0.6962321402522649 -1.224662678516295 0  0.7472047200478603 -1.193056119269013 0  0.7969149344959806 -1.160818950813343 0  0.8445460224241573 -1.125454629372153 0  0.8917801451003556 -1.093507928831678 0  0.9408331077775441 -1.06065146953106 0  0.9784656044061727 -1.020086282071185 0  1.028773391991546 -0.9896287008236293 0  1.070927059837849 -0.9487617922500792 0  1.110838584243478 -0.9092177797804571 0  1.152330762270032 -0.8723362492448675 0  1.189273891449646 -0.8294581365855607 0  1.235929533107205 -0.8082359427121462 0  1.265228844513889 -0.7416307089947897 0  1.291851008683624 -0.7152433678467558 0  1.348018192095529 -0.6913524639360407 0  1.371932211123945 -0.6435371639603281 0  1.405976542680403 -0.6040419174295097 0  1.437824506973821 -0.5628808400774272 0  1.46485751029056 -0.5171904494872798 0  1.498384029282873 -0.4813560882285006 0  1.512563844974982 -0.4193026752195116 0  1.537840704755871 -0.3933014671477562 0  1.571978738258246 -0.3517525195880652 0  1.580327746177507 -0.3028706360287796 0  1.595855507405421 -0.2579534600967847 0  1.606099097274599 -0.2124515708187796 0  1.615181251623222 -0.168812053797779 0  1.621064065709479 -0.1254654430895582 0  1.63173598099755 -0.08584550695916078 0  -0.09447671730820006 0.7867395891156832 0  0.6114687813031348 -0.7066811130408857 0  -0.7452090822777149 -0.6152402372626035 0  -0.07150754167719184 -0.8813379081069823 0  0.6075512392546546 0.6059406931921818 0  1.167447728189308 0.1945508502509515 0  -0.7609817080681482 0.5173471199647254 0  -1.231045083713143 -0.03645381098042087 0  1.172004206248661 -0.2847941852034549 0  -1.037520239506703 -0.4384560477541897 0  -0.7949304577982307 -0.05486411173471538 0  -0.4700724491229798 -0.2290571036742727 0  -1.055463457948008 0.3394951018336397 0  0.2877054467813337 -0.8556114768699069 0  0.1427016137657986 -0.2914292366545141 0  0.2520437915960534 0.7460420473202148 0  0.3449618568775141 0.1967062120786186 0  0.6633052883755062 -0.04507393026196077 0  -0.4081693516813771 -0.7740097592418934 0  -0.4457696661410833 0.6933516586754729 0  -0.2698793440923061 0.2544526232084439 0  0.9226480591157181 -0.4843191247757269 0  0.9182551315881767 0.3911944223061223 0  0.4131927127013161 -0.3209861287996602 0  0.0354944136966959 0.248786669851472 0  -0.5352119470743915 0.194792948001154 0  -0.166618580630927 -0.2837776506980291 0  0.9502808374159171 -0.04524088757983978 0  1.358139129938263 -0.04364809629801757 0  0.7673247131097035 -0.5921718948971253 0  0.7837848839078904 -0.2741050182039341 0  0.6280443646221127 -0.3726416157013077 0  0.5368746028256286 -0.1789212402577205 0  0.5062879346613651 -0.5191748068390507 0  0.9292125673981834 -0.2633491751298441 0  0.8061786598725736 -0.04511354282363779 0  -0.915685433755004 0.1527187237266026 0  -1.142395420930327 0.1492041230764407 0  -1.017037466348366 -0.04492228646754082 0  -0.9065383747951989 -0.2556350267526144 0  -1.130113191048914 -0.2349379903444709 0  -1.30920346705029 -0.3283719482975259 0  -1.38049947782075 -0.1439366564561777 0  -1.39661610494545 0.0751954664845588 0  -1.318754930702878 0.2507845858115378 0  -0.1195112459224522 -0.5823508040337668 0  -0.280160904318997 -0.5348518232987722 0  -0.241355879413549 -0.8338008119466209 0  -0.3176789952115953 -0.2577638190376094 0  -0.434715631100315 -0.4987695577516338 0  -1.231947962871329 -0.5125858043034479 0  -1.243639640668946 0.4264717300122686 0  0.349236536545177 -0.5855764220142626 0  0.2769991273260619 -0.3078664144314733 0  0.2094829752504145 -0.5767978691650547 0  -0.9066515909601007 0.4232745183287581 0  -0.7686776871412143 0.2288374228746335 0  1.359688586499081 -0.3566608143775608 0  1.231388101663131 -0.5171287631363051 0  1.224079271250667 0.4254853469916929 0  1.354017115263469 0.2678186822058349 0  -0.7548185067425173 -0.8950923186407302 0  -0.9296012299620345 -0.7558564639873672 0  -0.9357238097341579 0.6662899564299536 0  -0.7591874220177613 0.7966669677938362 0  0.7854993359016371 -0.8838755448975927 0  0.5933756361442761 -0.9967251547768654 0  0.5876860461403932 0.8924392365516538 0  0.7785867330618755 0.7839829990005152 0  0.
[...]
<PointData  Vectors="f_4933"> 
<DataArray  type="Float64"  Name="f_4933"  NumberOfComponents="3" format="ascii">1.5942741615543862e-02 3.4312770450182039e-03 0.0000000000000000e+00  -7.8674260741486327e-02 -1.2548599834707928e-02 0.0000000000000000e+00  -6.9752476190805268e-02 -1.3046925228386604e-02 0.0000000000000000e+00  1.5255423359126358e-01 3.8892019994764750e-02 0.0000000000000000e+00  2.6402258428127007e-01 3.6728036480868489e-02 0.0000000000000000e+00  8.5143013671590306e-01 1.4108787173142900e-01 0.0000000000000000e+00  2.3098677417829188e+00 1.6059294558889109e-01 0.0000000000000000e+00  -2.8991570517861004e-01 -5.2930771022109280e-01 0.0000000000000000e+00  -1.4459503130253522e+00 -1.7669032809241181e+00 0.0000000000000000e+00  1.7928420445664075e+00 4.6155994092318559e-01 0.0000000000000000e+00  -3.1437307528476943e-01 -2.3072122895112315e-01 0.0000000000000000e+00  -2.2317102269982358e+00 -2.1660372325220028e+00 0.0000000000000000e+00  -2.0446290121166770e+00 -1.4167222506861057e+00 0.0000000000000000e+00  1.2963056532285016e+00 6.4722558407262953e-01 0.0000000000000000e+00  7.5383620967222846e+00 3.2778254372524120e+00 0.0000000000000000e+00  2.5554699061464392e+00 9.7727989404817928e-01 0.0000000000000000e+00  -1.8706357130574867e+00 -3.4086391218557668e+00 0.0000000000000000e+00  2.1137617184232469e+00 1.0518884839998919e+00 0.0000000000000000e+00  5.6670140343670272e-01 -2.7370023797286275e-01 0.0000000000000000e+00  -2.3793425815630869e+00 -4.0337629867453115e+00 0.0000000000000000e+00  -7.4059549150977713e+00 -6.0384998550051012e+00 0.0000000000000000e+00  -2.3654460639241255e+00 -2.0945700634588729e+00 0.0000000000000000e+00  6.1183969620155532e-01 8.9480047836833188e-01 0.0000000000000000e+00  2.2656924178030855e+00 4.3994018121898231e+00 0.0000000000000000e+00  2.1239213493895789e-01 2.7090854719960161e-01 0.0000000000000000e+00  -3.4074393820908764e+00 -2.7108064218622885e+00 0.0000000000000000e+00  -3.0347059014678029e-01 -4.2190001092784013e-01 0.0000000000000000e+00  4.7355625857573497e-01 4.4718424947732771e-01 0.0000000000000000e+00  -1.6997879574897420e-01 -2.9525059698873590e-01 0.0000000000000000e+00  -2.7993835408972587e-02 -4.5486597121303700e-02 0.0000000000000000e+00  3.4629696510653035e-02 5.5415697396834315e-02 0.0000000000000000e+00  3.0574413099556996e-02 1.2762436597107638e-01 0.0000000000000000e+00  -1.1260907258220913e-01 -2.6535741285513570e-01 0.0000000000000000e+00  2.3245478359098279e-02 4.3507674449387121e-02 0.0000000000000000e+00  4.7313651032768404e-02 1.7510532003881493e-01 0.0000000000000000e+00  -2.0131841172445736e-02 -6.9832138483599510e-02 0.0000000000000000e+00  -6.2269679640259555e-02 -1.9202457526379207e-01 0.0000000000000000e+00  -1.1251833104672057e-02 -4.7207814387131487e-02 0.0000000000000000e+00  -2.3758287617370494e-02 -1.0613689660009620e-01 0.0000000000000000e+00  -8.9209650401931330e-03 -4.2850975881799439e-02 0.0000000000000000e+00  -4.0788176431735112e-03 -3.9749016804697432e-02 0.0000000000000000e+00  -3.4985068594891285e-03 -4.4658165736874256e-02 0.0000000000000000e+00  -9.1142047887545657e-04 -3.6993380042915580e-02 0.0000000000000000e+00  1.0940680557279033e-03 -3.3590832957502002e-02 0.0000000000000000e+00  2.9054077756566787e-03 -2.9293856442604536e-02 0.0000000000000000e+00  3.1477444435480582e-03 -2.4727779439380371e-02 0.0000000000000000e+00  1.7536384178231518e-03 -1.4943473649927787e-04 0.0000000000000000e+00  1.3645065133209375e-02 -5.1925327377577948e-02 0.0000000000000000e+00  3.5370152107395817e-03 -1.6432866531483566e-02 0.0000000000000000e+00  -1.9537046171749978e-02 8.4967567178693235e-02 0.0000000000000000e+00  8.9503109798345207e-02 -2.1959515720788506e-01 0.0000000000000000e+00  6.3270606867434853e-02 -1.4421142681283305e-01 0.0000000000000000e+00  4.0953483470135960e-01 -8.0422853940730610e-01 0.0000000000000000e+00  2.7393615466597371e-01 -5.6123415148654210e-01 0.0000000000000000e+00  -6.8562405902101775e-01 1.6131442537405603e+00 0.0000000000000000e+00  -2.3628193319514298e-01 2.8018794206649911e-01 0.0000000000000000e+00  9.5292866000424536e-01 -1.9195723275144509e+00 0.0000000000000000e+00  -3.5355606975701881e-01 8.4297155247000011e-01 0.0000000000000000e+00  -1.4865872796109705e+00 1.5987862754906406e+00 0.0000000000000000e+00  1.3973681074242625e-01 -3.6880727562029297e-01 0.0000000000000000e+00  1.1844838993541309e+00 -2.0109744093179831e+00 0.0000000000000000e+00  4.1670881915995990e+00 -7.6887789276348082e+00 0.0000000000000000e+00  -3.1127485714329095e-01 3.7528663968676457e-01 0.0000000000000000e+00  -2.5309025221100230e+00 2.3930086919091291e+00 0.0000000000000000e+00  -1.2340481343745977e+00 5.3461153426758390e+00 0.0000000000000000e+00  4.6866608669796204e+00 -2.8722667717108328e+00 0.0000000000000000e+00  2.4995474775318489e+00 -1.7281275188158900e+00 0.0000000000000000e+00  1.8152798319717700e+00 -2.9196394421708977e-01 0.0000000000000000e+00  -1.2782944574900148e+00 6.7884684844198100e+00 0.0000000000000000e+00  -2.8246929794012408e+00 6.7671441684956868e+00 0.0000000000000000e+00  3.3634401777240184e+00 1.0435138275841345e+00 0.0000000000000000e+00  5.1536338946493556e+00 1.4729499694220953e+00 0.0000000000000000e+00  -2.9348653873677919e+00 3.8073174329815846e+00 0.0000000000000000e+00  3.2541811887213523e+00 1.2444079985455951e+00 0.0000000000000000e+00  -7.1517420564824352e-01 1.7989728557384075e+00 0.0000000000000000e+00  -1.8980143097638832e-01 4.3022845907335328e-01 0.0000000000000000e+00  3.3629780366402062e-01 -1.2256193381428981e-01 0.0000000000000000e+00  4.5089953099595032e-01 -1.5427723581555108e-01 0.0000000000000000e+00  -3.7765480345812014e-01 1.0944058532138197e-01 0.0000000000000000e+00  -9.4171793838162177e-01 5.1107518134807028e-01 0.0000000000000000e+00  -2.6864333251422257e-01 -4.7503414682539206e-02 0.0000000000000000e+00  -6.4734260041846459e-01 -3.7819661816896583e-02 0.0000000000000000e+00  -6.5830140818548633e-01 -2.4087054541314940e-01 0.0000000000000000e+00  -8.9803133805491500e-02 -2.6522477580734699e-02 0.0000000000000000e+00  9.3650499557449463e-01 -2.1777968132566050e-01 0.0000000000000000e+00  2.7122364998550402e-01 2.9981818738612664e-02 0.0000000000000000e+00  4.2409330104297360e-01 3.9910542999619804e-02 0.0000000000000000e+00  2.1256948822355412e-01 3.0103464224286763e-02 0.0000000000000000e+00  1.2107360405425537e-01 1.2618921285217191e-01 0.0000000000000000e+00  -1.3119555384798898e-01 2.0437495719443120e-02 0.0000000000000000e+00  -2.4072255065800807e-01 8.6120202817214565e-04 0.0000000000000000e+00  1.0315342023749602e-01 2.9928695617666798e-02 0.0000000000000000e+00  1.1697752180319249e-01 6.3339558451949524e-02 0.0000000000000000e+00  -2.1006967005490057e-01 -8.8844326456076261e-02 0.0000000000000000e+00  -4.8090020517348070e-01 -3.3977887273109381e-01 0.0000000000000000e+00  -2.5668160454964478e-01 -1.6719964605531634e-01 0.0000000000000000e+00  6.3225120175064398e-01 9.2393317507318573e-01 0.0000000000000000e+00  1.4857574379211833e+00 3.4911560481897181e+00 0.0000000000000000e+00  -2.7926184139205064e+00 -2.2677701480475108e+00 0.0000000000000000e+00  -2.4801081007736863e+00 -3.5717616061562718e+00 0.0000000000000000e+00  -3.3406226098131581e-01 -9.6850286661015528e-01 0.0000000000000000e+00  2.1179652121808785e+00 1.5392762443454302e+00 0.0000000000000000e+00  2.3256460880064811e+00 1.8915526769843907e+00 0.0000000000000000e+00  3.5859948522155505e+00 2.2599792374444179e+00 0.0000000000000000e+00  -2.3256631657286806e+00 -5.6841111016788677e+00 0.0000000000000000e+00  -1.6243906044239567e+00 -1.5002046504930722e+00 0.0000000000000000e+00  2.2881795552403558e-01 -1.7238900122356890e-01 0.0000000000000000e+00  2.4516172226740789e+00 3.5990547472569454e+00 0.0000000000000000e+00  2.5558716438725515e-01 5.5750730870218612e-01 0.0000000000000000e+00  2.3811329307176578e-02 8.9195884686639346e-02 0.0000000000000000e+00  -9.3485938443091735e-03 -1.8259929482321343e-03 0.0000000000000000e+00  -4.2643997540436268e-02 -1.3437384439841646e-01 0.0000000000000000e+00  -1.3966133684225936e+00 -2.2780916767106114e+00 0.0000000000000000e+00  -7.1563254378372598e-01 -9.0068744937243761e-01 0.0000000000000000e+00  6.1247697601551865e-01 6.3136217200094780e-01 0.0000000000000000e+00  5.2642223244171160e-01 1.0730202562498850e+00 0.0000000000000000e+00  2.5686786645955811e-01 5.4027458061492728e-01 0.0000000000000000e+00  5.0967983853874117e-03 4.4978706375474693e-02 0.0000000000000000e+00  1.0057094134440616e-02 3.7728934595355083e-02 0.0000000000000000e+00  -2.5468349242676200e-02 -1.6078023529208060e-01 0.0000000000000000e+00  2.1863914264334598e-02 9.8037756432341930e-02 0.0000000000000000e+00  2.7194291041054985e-02 1.0462655820059082e-01 0.0000000000000000e+00  -7.5903644729525786e-03 -7.3128990966989257e-02 0.0000000000000000e+00  1.5074825347040400e-03 2.2532777899453786e-02 0.0000000000000000e+00  4.1423969195153298e-03 3.7359023515361155e-02 0.0000000000000000e+00  7.6919097809600306e-04 2.8854229622663267e-02 0.0000000000000000e+00  -9.5004484305551075e-04 3.3912254485381620e-02 0.0000000000000000e+00  -3.4519540696303754e-03 3.7796059237302677e-02 0.0000000000000000e+00  -9.0252816015924508e-03 6.0475163774543629e-02 0.0000000000000000e+00  -1.0308387252186569e-02 5.4794524703167632e-02 0.0000000000000000e+00  -2.1144703621419399e-02 8.6776129446125214e-02 0.0000000000000000e+00  -1.2784737133080593e-02 4.8653802492421544e-02 0.0000000000000000e+00  -6.4489018116336935e-02 1.8576123042005668e-01 0.0000000000000000e+00  -1.8353049828162837e-02 6.1081095073904697e-02 0.0000000000000000e+00  8.4122328355337880e-02 -2.5509526786667036e-01 0.0000000000000000e+00  1.6704575389514982e-02 -2.3968839415767142e-02 0.0000000000000000e+00  -2.1235778407441835e-01 4.8433542315636069e-01 0.0000000000000000e+00  -8.1893201867390864e-04 -1.0084674617705784e-01 0.0000000000000000e+00  1.6594892282931775e-01 -2.5157940709453519e-01 0.0000000000000000e+00  3.5159811463997097e-02 -4.6212715015842509e-02 0.0000000000000000e+00  -8.6114095630929116e-02 1.3160726786868024e-01 0.0000000000000000e+00  1.3469111633847766e-01 -1.6232882292194162e-01 0.0000000000000000e+00  -3.2253043611675675e-01 4.0885624958149525e-01 0.0000000000000000e+00  -1.8846134978717981e+00 2.0731922096361202e+00 0.0000000000000000e+00  9.0242114417678210e-02 -7.5243349074780835e-02 0.0000000000000000e+00  1.4981833707898158e+00 -2.1088504550048306e+00 0.0000000000000000e+00  1.9141805074451509e-02 -1.0173481020004188e-01 0.0000000000000000e+00  -8.3032068177923413e-01 8.4759629757736432e-01 0.0000000000000000e+00  -2.0895249682493486e+00 2.1646827994039657e+00 0.0000000000000000e+00  -2.6648894963629157e+00 3.7627717874923894e+00 0.0000000000000000e+00  -1.1432650709102277e-01 -6.6373241377387468e-02 0.0000000000000000e+00  3.5218245715212610e+00 -2.0973800380360372e+00 0.0000000000000000e+00  -2.6256516216512931e+00 4.7079188265513210e+00 0.0000000000000000e+00  -2.1802758136442679e+00 2.1285680593450209e+00 0.0000000000000000e+00  2.1785973012411084e+00 -1.1231214208931388e+00 0.0000000000000000e+00  4.0451456559894944e-01 -1.5344408706003138e-01 0.0000000000000000e+00  -6.8460866833893719e-01 5.1402515467552679e-01 0.0000000000000000e+00  -1.1022301419027161e+00 7.8833257693952097e-01 0.0000000000000000e+00  -7.9662639812404945e-01 4.1152671277841202e-01 0.0000000000000000e+00  6.9907745287110035e-01 -2.4526029033121011e-01 0.0000000000000000e+00  3.2319969240788643e-02 -2.1281297327891435e-01 0.0000000000000000e+00  -1.0600326564362881e+00 2.5931329510199191e-01 0.0000000000000000e+00  2.4851095547453575e-01 -4.0718724613222936e-02 0.0000000000000000e+00  1.5488708971758697e-01 -3.6469356011203907e-02 0.0000000000000000e+00  6.5670380482374655e-02 -9.6429748498632790e-03 0.0000000000000000e+00  1.8743046995089243e-02 -1.6574400915997042e-04 0.0000000000000000e+00  -3.4531461189864998e-02 7.9693345932508406e-03 0.0000000000000000e+00  3.8506547663822235e-02 -1.2143036877648370e-02 0.0000000000000000e+00  2.4118034447165825e-05 5.1550950964748712e-06 0.0000000000000000e+00  -6.2401987946104551e-05 -6.5036448032822341e-05 0.0000000000000000e+00  2.9351673558492548e-05 -5.5477204062299472e-05 0.0000000000000000e+00  1.6913565930752150e-05 -2.6361973781252710e-06 0.0000000000000000e+00  -5.9427720700588047e-05 7.0864484537708951e-05 0.0000000000000000e+00  1.5902080304032370e-06 4.5174186369225037e-05 0.0000000000000000e+00  2.2525156789319529e-05 5.9576464781121739e-05 0.0000000000000000e+00  -3.1681010519101063e-06 1.0998364107063217e-05 0.0000000000000000e+00  5.3093174412670112e-07 -3.4014819031748730e-05 0.0000000000000000e+00  -3.0332155933815495e-06 -4.8342786631355945e-05 0.0000000000000000e+00  9.0625805556685370e-06 1.6666393497507046e-05 0.0000000000000000e+00  5.6579054223271830e-05 -1.0843872081389491e-04 0.0000000000000000e+00  -1.7472044645739862e-05 7.8167866226424248e-05 0.0000000000000000e+00  -7.4553337111634847e-05 -2.1926549125356534e-05 0.0000000000000000e+00  -1.3913323249205658e-04 -1.6572720974366103e-04 0.0000000000000000e+00  -8.1346998668428285e-05 2.2185209720063776e-05 0.0000000000000000e+00  -1.2437163008213969e-04 9.4377612124241846e-05 0.0000000000000000e+00  -1.5444895738153555e-05 -2.2510583503074553e-05 0.0000000000000000e+00  7.6872100300768198e-05 -4.6497158582018677e-05 0.0000000000000000e+00  5.7755662474561785e-05 4.4470552050886788e-05 0.0000000000000000e+00  5.9552228094506541e-05 5.7410613471425143e-05 0.0000000000000000e+00  -1.1749775347469360e-05 -7.0233626743550779e-05 0.0000000000000000e+00  -2.6861039497132113e-06 8.2794469404267050e-05 0.0000000000000000e+00  -1.3928368073329905e-04 -1.2132648514267421e-04 0.0000000000000000e+00  -1.9934456023455141e-04 -7.0879482717329688e-07 0.0000000000000000e+00  4.2001879843791065e-05 6.7471536825482035e-05 0.0000000000000000e+00  1.2878670150197243e-04 -1.2671143121307501e-04 0.0000000000000000e+00  -1.4231810990045647e-05 -1.1776544076295590e-06 0.0000000000000000e+00  4.2482062804352963e-06 3.4684656389845521e-06 0.0000000000000000e+00  -3.4690701600809278e-05 -7.4692584343647413e-05 0.0000000000000000e+00  -9.2939454137742385e-07 -1.2348909283712903e-04 0.0000000000000000e+00  -1.6515913647198994e-05 -6.5897145950257288e-05 0.0000000000000000e+00  -1.4189582549109514e-04 -2.4803221307779534e-04 0.0000000000000000e+00  -6.7233675555502446e-05 -5.4911766725607432e-05 0.0000000000000000e+00  -5.6515413363202429e-06 -2.7711409016065096e-05 0.0000000000000000e+00  -1.1906955305947958e-06 6.2051403264208518e-07 0.0000000000000000e+00  -3.5823865923469145e-06 7.9977121733335079e-05 0.0000000000000000e+00  1.0540220742893681e-05 1.0859014017103395e-04 0.0000000000000000e+00  3.7586875052068175e-07 1.0065892091264499e-05 0.0000000000000000e+00  -5.7165914602139330e-07 -4.8290808736302116e-05 0.0000000000000000e+00  7.0414420896029110e-06 -6.2467411868975323e-05 0.0000000000000000e+00  1.1792944768453749e-05 -5.6196179612964721e-05 0.0000000000000000e+00  -1.0296730421530711e-05 -9.7537659333199350e-06 0.0000000000000000e+00  -4.6457028852512508e-06 -2.1697978744939308e-06 0.0000000000000000e+00  4.6697612288692136e-05 1.2680452691608032e-04 0.0000000000000000e+00  8.9929401918387663e-05 -2.2719215860977161e-05 0.0000000000000000e+00  9.9525224044318410e-05 -7.1492186983109456e-05 0.0000000000000000e+00  6.7947351865837416e-05 -2.2721868070411954e-05 0.0000000000000000e+00  4.0897577513912043e-05 -1.0196020419176011e-04 0.0000000000000000e+00  7.1037453252791925e-05 -8.0865002419685064e-05 0.0000000000000000e+00  -6.5923424670582593e-05 -1.3613691882369066e-04 0.0000000000000000e+00  -2.5688852435894161e-04 2.6845078025448986e-04 0.0000000000000000e+00  -1.0981592697945662e-04 -6.7598673094071757e-05 0.0000000000000000e+00  -1.2501376768736457e-04 -1.3093171295936235e-04 0.0000000000000000e+00  -1.0054880787614516e-04 -4.2346579698950644e-05 0.0000000000000000e+00  -4.5726622182409870e-07 6.3117641145605966e-05 0.0000000000000000e+00  -1.9502406860336238e-06 5.2907684899763951e-05 0.0000000000000000e+00  5.8262034686643022e-06 -5.9637396893618352e-05 0.0000000000000000e+00  1.1638790373253837e-05 -7.7398834767105571e-05 0.0000000000000000e+00  1.1116523671250196e-05 1.0340341751859900e-04 0.0000000000000000e+00  1.1406745368464560e-05 7.5569174181171217e-05 0.0000000000000000e+00  3.7194623274119663e-05 -3.4511537643232447e-05 0.0000000000000000e+00  1.0835503592684047e-05 -4.8009578034323905e-05 0.0000000000000000e+00  1.3175131592114303e-05 6.3151181005620979e-05 0.0000000000000000e+00  3.9895927417027530e-05 4.8984001559964957e-05 0.0000000000000000e+00  -4.0051885213379879e-05 -4.5724213807803308e-05 0.0000000000000000e+00  -5.2691956510017243e-05 -2.9016265346337697e-05 0.0000000000000000e+00  -5.5867053870704405e-05 3.1802686717857429e-05 0.0000000000000000e+00  -3.7158730253584245e-05 4.0179839940218353e-05 0.0000000000000000e+00  2.3483365556061907e-06 3.6092922567993943e-08 0.0000000000000000e+00  3.0010827648686401e-05 -5.7253864325632661e-06 0.0000000000000000e+00  3.1054901387020652e-05 7.1059706246174036e-06 0.0000000000000000e+00  3.3586335258449474e-06 5.2619162107102216e-08 0.0000000000000000e+00  -7.4800021268552446e-05 -4.4526631111449640e-05 0.0000000000000000e+00  -8.0927106414266836e-05 3.0761079705497567e-04 0.0000000000000000e+00  2.1889124226871825e-06 6.8552746312775296e-05 0.0000000000000000e+00  -6.4595614661664720e-05 3.3799449216001819e-05 0.0000000000000000e+00  3.1260718735370050e-05 -5.2818877562994408e-05 0.0000000000000000e+00  4.0166336656529864e-05 -1.1863241476577684e-04 0.0000000000000000e+00  5.5521759655072109e-06 -4.6551853531863292e-05 0.0000000000000000e+00  6.7169553713832225e-06 1.9505640840774120e-05 0.0000000000000000e+00  9.9800693246277772e-03 -5.7206396172116702e-03 0.0000000000000000e+00  -1.2540438192599015e-04 -2.2328781718657884e-05 0.0000000000000000e+00  -1.6224503479079946e-05 -5.0266012646616945e-05 0.0000000000000000e+00  -3.5890538145215059e-05 4.4145359274818478e-05 0.0000000000000000e+00  6.7055722781360981e-06 -4.6943958584500271e-05 0.0000000000000000e+00  9.6125069931005667e-06 1.2492575376799034e-04 0.0000000000000000e+00  -2.2365362169101384e-05 7.7035562048832670e-05 0.0000000000000000e+00  -5.2837715757898015e-06 2.7017301324647514e-05 0.0000000000000000e+00  -1.2795400416416760e-04 7.4232972861470911e-05 0.0000000000000000e+00  -8.3398394985519813e-05 5.2119621806211806e-05 0.0000000000000000e+00  -7.4184054993561279e-05 8.4555725135676270e-07 0.0000000000000000e+00  -4.9086210071759871e-05 -3.5539898762659687e-06 0.0000000000000000e+00  5.2965770191329176e-05 5.6030592029851077e-05 0.0000000000000000e+00  7.5418250317589846e-05 3.4749919871613358e-05 0.0000000000000000e+00  6.0257396597974299e-05 2.7760450364952002e-05 0.0000000000000000e+00  -1.1779533003741972e-04 -1.9747710960665962e-04 0.0000000000000000e+00  -5.4304633542611737e-05 7.1686655742880085e-05 0.0000000000000000e+00  -4.8415996978487102e-05 -1.1472773395966086e-05 0.0000000000000000e+00  -3.4539524075988636e-05 -2.5509410959094069e-06 0.0000000000000000e+00  -3.4655959572593625e-05 3.3402239167508419e-06 0.0000000000000000e+00  -5.4215613645919162e-05 1.4691581165383516e-05 0.0000000000000000e+00  -2.0370720398842626e-03 7.6661882988699978e-04 0.0000000000000000e+00  -1.1299017483136817e-04 1.8143879410914294e-05 0.0000000000000000e+00  -3.5496821716278883e-05 -1.6098384455180562e-07 0.0000000000000000e+00  5.5504204540579761e-05 -1.8628945146118229e-05 0.0000000000000000e+00  5.8594062737713193e-05 -2.7076462899966713e-05 0.0000000000000000e+00  5.6613998018940800e-05 -5.8004052130331189e-05 0.0000000000000000e+00  4.9924846207741592e-05 3.7077479331819283e-05 0.0000000000000000e+00  5.1352965372570476e-05 2.0973951624516984e-05 0.0000000000000000e+00  4.1753008475007620e-05 5.5726095518726448e-05 0.0000000000000000e+00  2.8749790416880689e-05 1.0575143364716680e-04 0.0000000000000000e+00  2.392