<?xml version="1.0"?>
<VTKFile type="UnstructuredGrid"  version="0.1"  >
<UnstructuredGrid>
<Piece  NumberOfPoints="2549" NumberOfCells="4928">
<Points>
<DataArray  type="Float64"  NumberOfComponents="3"  format="ascii">1.634807050144185 -0.04085361872933608 0  1.624899449226277 0.001752710247947589 0  1.621267537726568 0.04355253388117963 0  1.612140996726748 0.08706425855795297 0  1.600972516348035 0.1289579435080404 0  1.589932494460426 0.1737451086242103 0  1.572068455009347 0.2168330712983486 0  1.574342115942475 0.2672836390307546 0  1.522517370805446 0.2991095846232924 0  1.506178349470745 0.3305728028548782 0  1.495677644189786 0.4008046372864648 0  1.454700382279053 0.4266693612058046 0  1.429617793963489 0.4731361688968986 0  1.396781403012787 0.5128467569453964 0  1.361124220986895 0.5504870781181621 0  1.348367106951623 0.6052068678249719 0  1.271962624887752 0.6101861845191514 0  1.257128398823926 0.6444031173015347 0  1.232596148501323 0.7296330462168218 0  1.176072626813687 0.7302909682147928 0  1.142148660160984 0.7756547336247764 0  1.099321085323733 0.8102078661672214 0  1.060889530092566 0.849910014985057 0  1.020152312114896 0.8935864085298123 0  0.9643948749453034 0.9129282135392914 0  0.9338409980028983 0.9640084211396409 0  0.8819358299698264 0.9943095103935415 0  0.8340758322354208 1.021756292966108 0  0.7874036774517579 1.057606983519597 0  0.7376888628622242 1.087966092220882 0  0.6872558254860509 1.118650817745603 0  0.6368812987829671 1.149361421847675 0  0.5818338352387846 1.173128473783501 0  0.528811826218304 1.198185913520202 0  0.4747769194766735 1.223759954485027 0  0.4178478457951332 1.242383186294496 0  0.3616114506203235 1.261800975666796 0  0.3039700006037187 1.277491732611166 0  0.2456502239395933 1.291456473504096 0  0.1872401481500728 1.302805049954475 0  0.1272726342355753 1.310359695289387 0  0.06802157156985367 1.315588418925795 0  0.00812920404317035 1.318669082639312 0  -0.05175557083021338 1.318459809020929 0  -0.1116932231614959 1.315537619460788 0  -0.1713697436942522 1.309474760547684 0  -0.2309012703260108 1.301057990899405 0  -0.2898512479589914 1.288981896910125 0  -0.3478150473838101 1.27419938610068 0  -0.4064755575426688 1.257883631430924 0  -0.4627488456832707 1.237187518364285 0  -0.5184390109564629 1.213406724381325 0  -0.573580964717366 1.189309220700218 0  -0.6254286866231704 1.159344914108586 0  -0.6810115880776185 1.137734731105482 0  -0.7306964077806989 1.099092125397624 0  -0.7748393137324545 1.065104880663997 0  -0.8318411747050033 1.040811208794391 0  -0.8742687188451154 0.9989869061348251 0  -0.9196914326794614 0.9626813197254415 0  -0.965293705050764 0.9269494925048802 0  -1.006578841937673 0.8889068597458323 0  -1.059589836154348 0.8681033785010647 0  -1.081285016242478 0.788939318317908 0  -1.123627757124706 0.7767075416917727 0  -1.172834254656074 0.7443605915128807 0  -1.198187875439722 0.6954908521267579 0  -1.240217566156122 0.6676267039166356 0  -1.270750757867563 0.6122367957373722 0  -1.307489362660941 0.6130753394741951 0  -1.352499371357665 0.5478894842158041 0  -1.359582668322835 0.496003664459061 0  -1.456857458662965 0.5091276862751617 0  -1.448151831596687 0.4351094537857506 0  -1.482443813859106 0.402062604306636 0  -1.507068767691595 0.3549304670056186 0  -1.534156410012937 0.3124905893243244 0  -1.547452839584976 0.2602953648877833 0  -1.570517842966891 0.2235624682537611 0  -1.554921387720839 0.1466090905326739 0  -1.587851305191389 0.1418721114060158 0  -1.603685981378502 0.09132852959705871 0  -1.569900735325853 0.03936637886803948 0  -1.560690856520689 0.003038106351259158 0  -1.557312162135249 -0.03953193101222908 0  -1.572855014001389 -0.07040605940431123 0  -1.54970846065141 -0.1095837878863162 0  -1.567482392080374 -0.1530608504308443 0  -1.549901151552143 -0.2039901486130011 0  -1.528087162143833 -0.2130594529935403 0  -1.555424475931575 -0.2815229613744543 0  -1.534089079246922 -0.3242807063350268 0  -1.526011985547733 -0.38154394052031 0  -1.501153569669004 -0.4276447450947379 0  -1.477096137099563 -0.4764222618042913 0  -1.441596062741695 -0.5100363794768852 0  -1.442120205087936 -0.5807599487483316 0  -1.366970144324254 -0.5981919435448964 0  -1.34361458173503 -0.6268228051638803 0  -1.307174926934918 -0.6840479383647535 0  -1.271529671335563 -0.6939802256884979 0  -1.241463922563598 -0.7450618619444913 0  -1.202291322719172 -0.7764714329552052 0  -1.173682643746568 -0.8220454711373898 0  -1.130940869877623 -0.8583039159793401 0  -1.087992023046625 -0.8738840722994186 0  -1.064229233794502 -0.9460743958001726 0  -1.015848126766925 -0.9752367277491935 0  -0.9737594622864653 -1.014208081183275 0  -0.9297815916648297 -1.052903830683657 0  -0.8844910463491037 -1.091797679932465 0  -0.8392005730382212 -1.129916488722002 0  -0.7914397098829429 -1.168050398841853 0  -0.7388643797350545 -1.194310348734906 0  -0.694752685647792 -1.242237467820173 0  -0.6367008424513644 -1.270241062689839 0  -0.5842984549915226 -1.30064200508604 0  -0.5278992206594461 -1.327391846563165 0  -0.4712314990281887 -1.35272409072826 0  -0.4149842985132607 -1.376788850407495 0  -0.3538311253320647 -1.39244682565312 0  -0.2954884911827346 -1.408466649729753 0  -0.2356295538798509 -1.422408199766983 0  -0.174835757812509 -1.430422234317218 0  -0.1141782473508334 -1.437401405912246 0  -0.05300211211333827 -1.440402540069563 0  0.008174988224647359 -1.440527838729077 0  0.06931699373393634 -1.437081574847356 0  0.1303293315350831 -1.430342999470335 0  0.1904949177911977 -1.420478137324596 0  0.2502231424397887 -1.408163979601727 0  0.3091964524759027 -1.392865300867496 0  0.3675997325515804 -1.375520418906224 0  0.4246089972054095 -1.354520336324552 0  0.481774263023158 -1.334736935488587 0  0.5371007680797629 -1.30744235809351 0  0.5891153935772678 -1.281697513992458 0  0.6458554409862437 -1.257487572017043 0  0.6962321402522649 -1.224662678516295 0  0.7472047200478603 -1.193056119269013 0  0.7969149344959806 -1.160818950813343 0  0.8445460224241573 -1.125454629372153 0  0.8917801451003556 -1.093507928831678 0  0.9408331077775441 -1.06065146953106 0  0.9784656044061727 -1.020086282071185 0  1.028773391991546 -0.9896287008236293 0  1.070927059837849 -0.9487617922500792 0  1.110838584243478 -0.9092177797804571 0  1.152330762270032 -0.8723362492448675 0  1.189273891449646 -0.8294581365855607 0  1.235929533107205 -0.8082359427121462 0  1.265228844513889 -0.7416307089947897 0  1.291851008683624 -0.7152433678467558 0  1.348018192095529 -0.6913524639360407 0  1.371932211123945 -0.6435371639603281 0  1.405976542680403 -0.6040419174295097 0  1.437824506973821 -0.5628808400774272 0  1.46485751029056 -0.5171904494872798 0  1.498384029282873 -0.4813560882285006 0  1.512563844974982 -0.4193026752195116 0  1.537840704755871 -0.3933014671477562 0  1.571978738258246 -0.3517525195880652 0  1.580327746177507 -0.3028706360287796 0  1.595855507405421 -0.2579534600967847 0  1.606099097274599 -0.2124515708187796 0  1.615181251623222 -0.168812053797779 0  1.621064065709479 -0.1254654430895582 0  1.63173598099755 -0.08584550695916078 0  -0.09447671730820006 0.7867395891156832 0  0.6114687813031348 -0.7066811130408857 0  -0.7452090822777149 -0.6152402372626035 0  -0.07150754167719184 -0.8813379081069823 0  0.6075512392546546 0.6059406931921818 0  1.167447728189308 0.1945508502509515 0  -0.7609817080681482 0.5173471199647254 0  -1.231045083713143 -0.03645381098042087 0  1.172004206248661 -0.2847941852034549 0  -1.037520239506703 -0.4384560477541897 0  -0.7949304577982307 -0.05486411173471538 0  -0.4700724491229798 -0.2290571036742727 0  -1.055463457948008 0.3394951018336397 0  0.2877054467813337 -0.8556114768699069 0  0.1427016137657986 -0.2914292366545141 0  0.2520437915960534 0.7460420473202148 0  0.3449618568775141 0.1967062120786186 0  0.6633052883755062 -0.04507393026196077 0  -0.4081693516813771 -0.7740097592418934 0  -0.4457696661410833 0.6933516586754729 0  -0.2698793440923061 0.2544526232084439 0  0.9226480591157181 -0.4843191247757269 0  0.9182551315881767 0.3911944223061223 0  0.4131927127013161 -0.3209861287996602 0  0.0354944136966959 0.248786669851472 0  -0.5352119470743915 0.194792948001154 0  -0.166618580630927 -0.2837776506980291 0  0.9502808374159171 -0.04524088757983978 0  1.358139129938263 -0.04364809629801757 0  0.7673247131097035 -0.5921718948971253 0  0.7837848839078904 -0.2741050182039341 0  0.6280443646221127 -0.3726416157013077 0  0.5368746028256286 -0.1789212402577205 0  0.5062879346613651 -0.5191748068390507 0  0.9292125673981834 -0.2633491751298441 0  0.8061786598725736 -0.04511354282363779 0  -0.915685433755004 0.1527187237266026 0  -1.142395420930327 0.1492041230764407 0  -1.017037466348366 -0.04492228646754082 0  -0.9065383747951989 -0.2556350267526144 0  -1.130113191048914 -0.2349379903444709 0  -1.30920346705029 -0.3283719482975259 0  -1.38049947782075 -0.1439366564561777 0  -1.39661610494545 0.0751954664845588 0  -1.318754930702878 0.2507845858115378 0  -0.1195112459224522 -0.5823508040337668 0  -0.280160904318997 -0.5348518232987722 0  -0.241355879413549 -0.8338008119466209 0  -0.3176789952115953 -0.2577638190376094 0  -0.434715631100315 -0.4987695577516338 0  -1.231947962871329 -0.5125858043034479 0  -1.243639640668946 0.4264717300122686 0  0.349236536545177 -0.5855764220142626 0  0.2769991273260619 -0.3078664144314733 0  0.2094829752504145 -0.5767978691650547 0  -0.9066515909601007 0.4232745183287581 0  -0.7686776871412143 0.2288374228746335 0  1.359688586499081 -0.3566608143775608 0  1.231388101663131 -0.5171287631363051 0  1.224079271250667 0.4254853469916929 0  1.354017115263469 0.2678186822058349 0  -0.7548185067425173 -0.8950923186407302 0  -0.9296012299620345 -0.7558564639873672 0  -0.9357238097341579 0.6662899564299536 0  -0.7591874220177613 0.7966669677938362 0  0.7854993359016371 -0.8838755448975927 0  0.5933756361442761 -0.9967251547768654 0  0.5876860461403932 0.8924392365516538 0  0.7785867330618755 0.7839829990005152 0  0.
[...]
<PointData  Vectors="f_4860"> 
<DataArray  type="Float64"  Name="f_4860"  NumberOfComponents="3" format="ascii">2.7054477944979144e-02 1.5618541637788981e-03 0.0000000000000000e+00  -4.5943613808596948e-02 -6.4648831839833922e-03 0.0000000000000000e+00  -4.3969590024533489e-02 -7.0065968481750956e-03 0.0000000000000000e+00  1.0631777619958772e-01 2.5438564211976804e-02 0.0000000000000000e+00  1.5382651976035525e-01 4.0034013066132690e-02 0.0000000000000000e+00  5.0151061558960131e-01 1.4761766526487347e-01 0.0000000000000000e+00  1.5500838285477538e+00 3.2084543855611147e-01 0.0000000000000000e+00  -3.0766791265574372e-01 -1.8221969420423251e-01 0.0000000000000000e+00  -1.2028391354732009e+00 -1.0470698021008102e+00 0.0000000000000000e+00  1.2682477090219264e+00 4.5028056004809064e-01 0.0000000000000000e+00  -1.5374223591509517e-01 -1.1895200593147019e-01 0.0000000000000000e+00  -1.5503541489663617e+00 -1.3586333794082375e+00 0.0000000000000000e+00  -1.3630440380763995e+00 -9.7227840497763995e-01 0.0000000000000000e+00  6.5292613341231143e-01 5.0710021277141382e-01 0.0000000000000000e+00  4.6375487013432206e+00 2.8318961520254993e+00 0.0000000000000000e+00  1.0737647494132183e+00 1.0639298001416915e+00 0.0000000000000000e+00  -1.7345891416164427e+00 -2.3257256119132115e+00 0.0000000000000000e+00  1.5127696224369913e+00 6.3425327045761581e-01 0.0000000000000000e+00  1.7295252395997932e-01 1.5231478894300954e-01 0.0000000000000000e+00  -1.5126442445839821e+00 -2.5914324878583166e+00 0.0000000000000000e+00  -4.3958246252994950e+00 -4.5010607595362293e+00 0.0000000000000000e+00  -1.3163616037951626e+00 -1.3953743290062159e+00 0.0000000000000000e+00  4.7471490896517260e-01 5.0552004183882138e-01 0.0000000000000000e+00  1.9071707805209583e+00 2.7788678492284298e+00 0.0000000000000000e+00  1.2124827172596812e-01 1.8477347291740626e-01 0.0000000000000000e+00  -2.0508604000294719e+00 -2.1730368987063313e+00 0.0000000000000000e+00  -1.5551623422806363e-01 -2.0849370707974227e-01 0.0000000000000000e+00  2.6129099689645657e-01 3.9126852171203552e-01 0.0000000000000000e+00  -1.4829580194020472e-01 -2.1798649397302003e-01 0.0000000000000000e+00  -1.7846346406519630e-02 -2.6559559069939245e-02 0.0000000000000000e+00  2.4473868671602887e-02 3.9700365967514389e-02 0.0000000000000000e+00  4.2366523140669271e-02 8.3305056147175649e-02 0.0000000000000000e+00  -8.9486133741823626e-02 -1.9748671247809027e-01 0.0000000000000000e+00  1.6068864779845937e-02 3.4039731150840052e-02 0.0000000000000000e+00  4.4260451048981762e-02 1.1301449323575651e-01 0.0000000000000000e+00  -1.7181898054257384e-02 -5.4340051443625657e-02 0.0000000000000000e+00  -4.1371235338905694e-02 -1.3377398333144208e-01 0.0000000000000000e+00  -7.6102170684408449e-03 -2.9959589426482445e-02 0.0000000000000000e+00  -1.6205467400563962e-02 -7.5092194132345566e-02 0.0000000000000000e+00  -5.1125519896449440e-03 -3.0979013878151471e-02 0.0000000000000000e+00  -3.2869313035221292e-03 -3.0996929628280288e-02 0.0000000000000000e+00  -2.3952236187629716e-03 -3.4250310531256344e-02 0.0000000000000000e+00  -6.9450723579047246e-04 -2.8816096637405475e-02 0.0000000000000000e+00  6.7903865881357452e-04 -2.6778714965662247e-02 0.0000000000000000e+00  1.8082531318731169e-03 -2.3783599692177113e-02 0.0000000000000000e+00  2.5080145749637717e-03 -2.1349167763630935e-02 0.0000000000000000e+00  5.7214666382135893e-04 -2.8333154719307422e-03 0.0000000000000000e+00  9.1471174971866822e-03 -3.9669587767392350e-02 0.0000000000000000e+00  4.2431456735062996e-03 -1.7386996399538449e-02 0.0000000000000000e+00  -1.8972523629078624e-02 6.0508838713562760e-02 0.0000000000000000e+00  5.9794479855889447e-02 -1.5111401195726720e-01 0.0000000000000000e+00  3.3074887185430356e-02 -7.4604767449055628e-02 0.0000000000000000e+00  2.7079101144880313e-01 -5.4476571526749118e-01 0.0000000000000000e+00  2.0392101340368671e-01 -4.3037777369594482e-01 0.0000000000000000e+00  -6.0389777678122125e-01 1.0598375413121930e+00 0.0000000000000000e+00  -1.6197591660442542e-01 2.1252904676715878e-01 0.0000000000000000e+00  8.0272921211805692e-01 -1.3409537803747829e+00 0.0000000000000000e+00  -3.5644033421785054e-01 5.1833619142623588e-01 0.0000000000000000e+00  -9.9281084531783947e-01 1.1497960257793660e+00 0.0000000000000000e+00  1.5441142414136688e-01 -1.9762245325353450e-01 0.0000000000000000e+00  8.3367133905138868e-01 -1.0542123642506052e+00 0.0000000000000000e+00  3.3202139635707821e+00 -4.9574822766990625e+00 0.0000000000000000e+00  -3.7063860651049724e-01 2.7900621056237690e-01 0.0000000000000000e+00  -1.6062431489441615e+00 1.7145912642928469e+00 0.0000000000000000e+00  -1.6750531890047557e+00 3.2834801581265056e+00 0.0000000000000000e+00  2.7377637592038706e+00 -2.5519593485468968e+00 0.0000000000000000e+00  1.3682522374748529e+00 -1.2417401458128556e+00 0.0000000000000000e+00  8.4665425824627483e-01 -6.9974866062765639e-01 0.0000000000000000e+00  -2.1953063920595683e+00 3.5862461427064312e+00 0.0000000000000000e+00  -2.2428923140019297e+00 4.0795160429548387e+00 0.0000000000000000e+00  1.5492082477235278e+00 -6.4645518051935491e-01 0.0000000000000000e+00  1.1802128253514645e+00 -1.1426704974899349e+00 0.0000000000000000e+00  -2.3473298431812593e+00 2.2138820322631085e+00 0.0000000000000000e+00  2.0425539624637716e+00 -6.8063476619091468e-01 0.0000000000000000e+00  -8.8756228308096297e-01 6.8186555164617690e-01 0.0000000000000000e+00  -2.0126893387983280e-01 1.2931484952475333e-01 0.0000000000000000e+00  2.0805273548763312e-01 -9.3185798118767191e-02 0.0000000000000000e+00  2.9500860704009113e-01 -1.2058022161372459e-01 0.0000000000000000e+00  -2.4707683796666297e-01 6.3043691560198636e-02 0.0000000000000000e+00  -6.2002357283957277e-01 3.9280666673456366e-01 0.0000000000000000e+00  -7.4756966218450585e-02 -9.3601518181287372e-03 0.0000000000000000e+00  -4.0646822761755919e-01 -4.2947146759318829e-02 0.0000000000000000e+00  -4.3669166389099118e-01 -1.6514910857524162e-01 0.0000000000000000e+00  -6.2599319003241796e-02 -1.7782605288090111e-02 0.0000000000000000e+00  6.3551598114659924e-01 -9.7597313956751849e-02 0.0000000000000000e+00  1.4262131879073692e-01 -3.3049082250545922e-03 0.0000000000000000e+00  2.7970975168961471e-01 1.6966040043601614e-02 0.0000000000000000e+00  1.2510664669026508e-01 8.6906504480606002e-03 0.0000000000000000e+00  8.8317973512913747e-02 4.5024735056685167e-02 0.0000000000000000e+00  -6.7336546267611680e-02 -2.5957517840372236e-02 0.0000000000000000e+00  -1.6656679606161309e-01 -1.2492970294208098e-02 0.0000000000000000e+00  6.6144529085564688e-02 2.0435381107552657e-02 0.0000000000000000e+00  7.7474830361315999e-02 2.6184224661147462e-02 0.0000000000000000e+00  -1.3340260911388843e-01 -7.1832214396731861e-02 0.0000000000000000e+00  -3.1623146780407185e-01 -2.1550293306814158e-01 0.0000000000000000e+00  -2.3309534893610098e-01 -1.0442111518109791e-01 0.0000000000000000e+00  5.1986546076589590e-01 4.4552790470864645e-01 0.0000000000000000e+00  1.4649497606669069e+00 2.1461675396941078e+00 0.0000000000000000e+00  -1.8880027281797001e+00 -1.4997751592002344e+00 0.0000000000000000e+00  -1.7660058970001944e+00 -2.2725550022898284e+00 0.0000000000000000e+00  -3.6871386977005582e-01 -4.5584067963091413e-01 0.0000000000000000e+00  1.3011895184626974e+00 1.1417249950075941e+00 0.0000000000000000e+00  1.3958428364109534e+00 1.2381472742825539e+00 0.0000000000000000e+00  2.2067672042069142e+00 1.9508856754546058e+00 0.0000000000000000e+00  -2.2438846037419111e+00 -3.5736378863131186e+00 0.0000000000000000e+00  -9.9189712574101507e-01 -1.0304241093433193e+00 0.0000000000000000e+00  -2.7435089288020279e-03 1.9787238894665982e-02 0.0000000000000000e+00  1.8541615795337885e+00 2.3451466835116452e+00 0.0000000000000000e+00  1.7934310199251607e-01 2.1622286369472027e-01 0.0000000000000000e+00  2.4157911309721437e-02 2.8387289977024912e-02 0.0000000000000000e+00  1.7201996884080605e-03 1.6402765292837667e-03 0.0000000000000000e+00  -1.2818766701436770e-03 -1.3282097861042405e-02 0.0000000000000000e+00  -1.0064781986483968e+00 -1.5229279140617737e+00 0.0000000000000000e+00  -4.5068299024707215e-01 -6.1257617180712476e-01 0.0000000000000000e+00  3.6560435600001912e-01 5.0392128401573399e-01 0.0000000000000000e+00  3.8109682460912780e-01 7.0006674590677731e-01 0.0000000000000000e+00  1.7381127813948857e-01 3.3130067622365267e-01 0.0000000000000000e+00  7.7554369452683741e-03 1.6686052222227653e-02 0.0000000000000000e+00  9.9237330465457504e-03 2.3765758613260028e-02 0.0000000000000000e+00  -3.5367441125887376e-02 -1.0743509446818515e-01 0.0000000000000000e+00  1.9911788390185918e-02 7.8313307774434779e-02 0.0000000000000000e+00  1.8578195292205790e-02 7.3837702463900909e-02 0.0000000000000000e+00  -8.7456648296914980e-03 -4.9876241232737081e-02 0.0000000000000000e+00  2.2897952681972607e-03 2.1491823724538828e-02 0.0000000000000000e+00  2.4098893545163157e-03 2.8621258386425732e-02 0.0000000000000000e+00  5.6868118110576301e-04 2.2705703227287471e-02 0.0000000000000000e+00  -7.3368916459334670e-04 2.6153736439413967e-02 0.0000000000000000e+00  -2.3674448592779012e-03 2.8318848385283549e-02 0.0000000000000000e+00  -6.1209508237258306e-03 4.4396546983399329e-02 0.0000000000000000e+00  -7.1862971367997724e-03 3.8988496170062420e-02 0.0000000000000000e+00  -1.4417610891399318e-02 6.1674026407958986e-02 0.0000000000000000e+00  -8.6289799547856968e-03 3.1292474963782145e-02 0.0000000000000000e+00  -4.3263817029761426e-02 1.3004701946972541e-01 0.0000000000000000e+00  -1.7037666638112944e-02 5.0950450648518546e-02 0.0000000000000000e+00  6.9878045774382669e-02 -1.6880172068804031e-01 0.0000000000000000e+00  1.2132324941999886e-02 -2.4341603342192264e-02 0.0000000000000000e+00  -1.6366023830116858e-01 3.5251693486367675e-01 0.0000000000000000e+00  3.0852336410317101e-02 -5.9166410104233742e-02 0.0000000000000000e+00  1.1304746409160860e-01 -1.7818603228071186e-01 0.0000000000000000e+00  1.5581775192136868e-02 -2.5075536121457135e-02 0.0000000000000000e+00  -6.8757896460356821e-02 9.9993794185160051e-02 0.0000000000000000e+00  9.6850092134351043e-02 -1.3706075156916991e-01 0.0000000000000000e+00  -1.7114340543798479e-01 2.3543780387150567e-01 0.0000000000000000e+00  -1.2443999675750463e+00 1.4884498424270225e+00 0.0000000000000000e+00  5.1212415916113710e-02 -6.5753283624954209e-02 0.0000000000000000e+00  1.1149658699889924e+00 -1.4166979446734904e+00 0.0000000000000000e+00  9.6605132320749069e-03 -2.0108931383120910e-02 0.0000000000000000e+00  -5.0600715977556254e-01 5.3068387510652448e-01 0.0000000000000000e+00  -1.3327221441691872e+00 1.3707546922263043e+00 0.0000000000000000e+00  -1.9250567343543044e+00 2.4386367477608939e+00 0.0000000000000000e+00  4.2773123525950557e-02 -8.3638705863058049e-03 0.0000000000000000e+00  2.3833514411874042e+00 -1.7209695344803357e+00 0.0000000000000000e+00  -2.1715752263078536e+00 3.0540504457010083e+00 0.0000000000000000e+00  -1.3905494854167730e+00 1.4799530158477361e+00 0.0000000000000000e+00  1.4969575133171245e+00 -1.0144048715234719e+00 0.0000000000000000e+00  1.9394948301930451e-01 -1.4527977920098983e-01 0.0000000000000000e+00  -4.5895531989892441e-01 3.2080056878355373e-01 0.0000000000000000e+00  -7.1444774286707824e-01 5.1041740096914057e-01 0.0000000000000000e+00  -5.1830185241748661e-01 2.8928914878211293e-01 0.0000000000000000e+00  4.7504876385269945e-01 -2.6419608854400517e-01 0.0000000000000000e+00  9.0413245117129989e-02 -7.8096771147342772e-02 0.0000000000000000e+00  -6.6987923520192028e-01 3.0186489033968106e-01 0.0000000000000000e+00  2.1321943553794193e-01 -4.7720819909539185e-02 0.0000000000000000e+00  1.0201788822113134e-01 -2.8106132695130806e-02 0.0000000000000000e+00  4.6581349383653985e-02 -1.0127038481730683e-02 0.0000000000000000e+00  1.6250453708693265e-02 -2.7646915155802097e-03 0.0000000000000000e+00  -1.8889328322622256e-02 3.4671068451964317e-03 0.0000000000000000e+00  3.4538360241358090e-02 -6.3033036335503837e-03 0.0000000000000000e+00  1.3485761676769098e-09 -1.9988894986492896e-08 0.0000000000000000e+00  -2.2791132817431152e-08 2.8786075656982350e-08 0.0000000000000000e+00  1.5150609537936793e-07 1.8137177231267153e-07 0.0000000000000000e+00  1.0854495892988689e-09 1.7113015476526688e-08 0.0000000000000000e+00  -4.4278288236777843e-08 -5.3825436986212717e-08 0.0000000000000000e+00  -1.5961660763728591e-07 -1.4266988148694475e-07 0.0000000000000000e+00  3.6709714266950496e-07 -5.2030051419540857e-07 0.0000000000000000e+00  7.6432885621270649e-08 -7.8470222277018200e-09 0.0000000000000000e+00  -8.7356658215202309e-08 7.1399262115947707e-08 0.0000000000000000e+00  -3.8730001887567756e-08 -9.2643352627722589e-08 0.0000000000000000e+00  -1.2362806985037839e-13 2.7879949393544390e-13 0.0000000000000000e+00  -1.8283269673960891e-13 -2.6940678027359807e-13 0.0000000000000000e+00  -3.2196586312739338e-07 6.9025997625634791e-07 0.0000000000000000e+00  -1.1753644701194422e-08 3.8739358320225473e-08 0.0000000000000000e+00  -5.2096622686888831e-15 3.5481019203912116e-14 0.0000000000000000e+00  -1.1200605032000539e-08 -3.9396473966034452e-08 0.0000000000000000e+00  -1.2722870310000629e-14 -2.7901438218028308e-14 0.0000000000000000e+00  -8.4992073757421755e-14 4.8276512118405447e-14 0.0000000000000000e+00  6.7777671504328020e-08 1.2362366210645736e-07 0.0000000000000000e+00  6.2476256975138037e-08 -1.3772543589128204e-07 0.0000000000000000e+00  8.9764150629217579e-15 -2.7328216171584417e-14 0.0000000000000000e+00  -3.7831364638104550e-07 4.2869891566912961e-07 0.0000000000000000e+00  -9.6600573036030386e-07 -1.0870767013214079e-06 0.0000000000000000e+00  -2.4139641538513190e-14 5.5847604938147258e-14 0.0000000000000000e+00  -4.0994353582295290e-15 -3.2517914731630984e-14 0.0000000000000000e+00  2.3605325917764648e-14 -8.4436536843198424e-14 0.0000000000000000e+00  8.0969106761725013e-15 2.6456785591656395e-14 0.0000000000000000e+00  7.2407406988032675e-14 4.5331304982920079e-13 0.0000000000000000e+00  1.4680480663930691e-07 2.0942772426847591e-08 0.0000000000000000e+00  -1.6764977876376469e-08 1.6219817365093710e-08 0.0000000000000000e+00  -2.1653818901879327e-11 6.6376231954074750e-12 0.0000000000000000e+00  -1.2483902708116257e-10 1.4997751953347660e-10 0.0000000000000000e+00  -3.1296203668214303e-14 3.6950276374588585e-14 0.0000000000000000e+00  1.7005571262676619e-11 -2.7044107181010215e-11 0.0000000000000000e+00  -6.4296094719444998e-11 1.7872214571686369e-10 0.0000000000000000e+00  -1.1713165952220874e-12 -5.1285133603731329e-13 0.0000000000000000e+00  1.5891451755515830e-10 2.4479405207095496e-10 0.0000000000000000e+00  -2.3549717554886703e-07 3.0116272027277161e-07 0.0000000000000000e+00  -7.5666854394966957e-11 9.8368279982043454e-11 0.0000000000000000e+00  2.1599407159723531e-11 -3.3998660966809515e-11 0.0000000000000000e+00  8.4610607859578332e-08 1.0260424785661683e-07 0.0000000000000000e+00  -2.8614692880201870e-05 -1.5249468023384273e-05 0.0000000000000000e+00  4.3198456873543218e-05 -2.8195559849373568e-06 0.0000000000000000e+00  -1.7141588778945787e-04 -1.2203342775560304e-05 0.0000000000000000e+00  -1.3729955609032598e-04 1.2673807481812272e-04 0.0000000000000000e+00  2.1763252090635621e-12 1.1085528634064947e-11 0.0000000000000000e+00  1.3358762031843611e-11 2.2101471685029737e-11 0.0000000000000000e+00  7.5002793501048417e-09 2.6953540201579306e-08 0.0000000000000000e+00  7.6722256728544548e-14 1.3928243994997246e-13 0.0000000000000000e+00  5.6488073739826426e-11 9.7869081043223198e-11 0.0000000000000000e+00  -3.3520454328878112e-04 -2.9544413098726407e-04 0.0000000000000000e+00  3.8225612988058832e-05 2.1586850254186603e-04 0.0000000000000000e+00  3.3744439580254975e-12 -4.3665315473564185e-12 0.0000000000000000e+00  -1.2422602501301844e-14 4.2333790617408759e-14 0.0000000000000000e+00  -8.5015903295756733e-12 3.6475408830782149e-11 0.0000000000000000e+00  -8.0145976344998333e-08 3.2367809416741047e-07 0.0000000000000000e+00  1.6471303631574514e-10 -2.8674452414769655e-10 0.0000000000000000e+00  -1.1684544478891857e-04 6.8753505856865616e-05 0.0000000000000000e+00  2.0236678769328505e-04 -9.2072862808282579e-05 0.0000000000000000e+00  7.8964630515262677e-04 4.8788302150485740e-04 0.0000000000000000e+00  -4.2977204531943945e-05 -5.6468332437383166e-05 0.0000000000000000e+00  -1.3679586072560049e-05 -2.4870244468023913e-05 0.0000000000000000e+00  3.6268751589294923e-05 3.0873715683434358e-05 0.0000000000000000e+00  -7.6284925951686326e-06 -4.6556146306372514e-05 0.0000000000000000e+00  -2.0001440534283662e-04 2.2575949570385057e-04 0.0000000000000000e+00  -7.6593301004779468e-05 9.5321839047980716e-05 0.0000000000000000e+00  2.5885994268784845e-05 -4.1749364799136323e-05 0.0000000000000000e+00  -2.2935393366156643e-07 2.3600939712730685e-06 0.0000000000000000e+00  -1.0090537666179003e-04 -1.0140421270188659e-04 0.0000000000000000e+00  -5.9322079440185576e-07 1.7197661324206627e-05 0.0000000000000000e+00  3.0663120544081417e-07 1.0059369372644583e-06 0.0000000000000000e+00  2.0983885229377305e-06 -1.1662817394793865e-05 0.0000000000000000e+00  -5.1885563742149612e-07 -1.9181890059918734e-05 0.0000000000000000e+00  -3.2719820052218350e-08 7.1447201548342520e-08 0.0000000000000000e+00  -5.6884726965316911e-14 -5.8498369124656810e-14 0.0000000000000000e+00  -1.6227015735952910e-10 -1.5504366590530622e-10 0.0000000000000000e+00  -2.7239760571712827e-12 -4.3703990626366758e-13 0.0000000000000000e+00  -1.0019229696824795e-12 -1.2433758347146069e-11 0.0000000000000000e+00  2.0276095082332560e-13 2.4021436506181091e-13 0.0000000000000000e+00  9.3548859298168118e-11 9.8493341536799799e-11 0.0000000000000000e+00  -1.1633085970328747e-14 -4.2053489279652413e-14 0.0000000000000000e+00  -1.0653061002644066e-17 -1.2575042422214843e-17 0.0000000000000000e+00  -1.2776275896681012e-17 2.9631467693475349e-17 0.0000000000000000e+00  2.9752121772065392e-04 2.2836508212485069e-04 0.0000000000000000e+00  2.3937676620345332e-04 -1.3962091586019117e-04 0.0000000000000000e+00  -2.0232630630142774e-07 -4.2252247857106489e-07 0.0000000000000000e+00  -3.5087439266319148e-11 2.7509295614438820e-11 0.0000000000000000e+00  -1.6757343457292137e-08 2.8456074426987546e-08 0.0000000000000000e+00  -8.1593257450481488e-11 -2.3588774144277774e-10 0.0000000000000000e+00  9.8606952600165472e-13 -1.3416330587134561e-12 0.0000000000000000e+00  -1.8487149108558866e-08 -4.0476637565242813e-08 0.0000000000000000e+00  -9.2518563397002403e-13 2.2598930661129217e-11 0.0000000000000000e+00  -3.5446186724591354e-09 2.4746311012619224e-08 0.0000000000000000e+00  2.6275956479794350e-11 -6.1321670526122744e-11 0.0000000000000000e+00  3.3636488925614801e-12 -1.8611384822498678e-11 0.0000000000000000e+00  5.6229779545608403e-09 -1.8217496491105547e-08 0.0000000000000000e+00  -6.9058972677620736e-18 -1.5695420352183281e-17 0.0000000000000000e+00  1.3339283243305175e-15 2.2213441947978129e-14 0.0000000000000000e+00  9.3403172209817014e-06 -2.0156757074475283e-05 0.0000000000000000e+00  -6.5255900868672775e-06 2.7886114486978342e-05 0.0000000000000000e+00  -6.6766978510731514e-06 -3.0396905885806162e-05 0.0000000000000000e+00  4.8132070943988725e-06 9.6456905261568353e-06 0.0000000000000000e+00  2.6683593241807242e-18 -1.2471040641725515e-17 0.0000000000000000e+00  -7.7871250031149660e-12 -3.5798132554278428e-11 0.0000000000000000e+00  -3.0540180129508624e-09 -2.5148520405317956e-08 0.0000000000000000e+00  4.4092383314151007e-06 5.5582139680833652e-06 0.0000000000000000e+00  9.0211152717254987e-05 1.3522290621020236e-04 0.0000000000000000e+00  -2.0738793372209879e-07 -3.0750302875734862e-07 0.0000000000000000e+00  -1.3129037654101150e-04 2.1266599749955519e-04 0.0000000000000000e+00  2.1148553574387771e-05 -4.9831595045795045e-05 0.0000000000000000e+00  8.6005673001554664e-08 -1.6537106134065313e-07 0.0000000000000000e+00  4.1486217751936814e-13 -6.0613644421431434e-13 0.0000000000000000e+00  -