<?xml version="1.0"?>
<VTKFile type="UnstructuredGrid"  version="0.1"  >
<UnstructuredGrid>
<Piece  NumberOfPoints="2549" NumberOfCells="4928">
<Points>
<DataArray  type="Float64"  NumberOfComponents="3"  format="ascii">1.654968721301295 -0.0414305026356734 0  1.649881996161928 0.004441165887254635 0  1.637510216677464 0.04486869557789747 0  1.629145009036753 0.08869703654181618 0  1.617609735008415 0.1320319912993031 0  1.605356132066668 0.1773520907764659 0  1.588833669700942 0.2221750184757429 0  1.574678119369718 0.2701454835916547 0  1.545708328502425 0.3141095528690343 0  1.515375722039668 0.337875235695295 0  1.496732066850011 0.3948027669871815 0  1.46580600442086 0.4344290585709065 0  1.435991593983637 0.4782884536727182 0  1.403034609741061 0.5188761693167746 0  1.368879204892598 0.5581403136599157 0  1.334947275655398 0.5998509779172927 0  1.291591501398051 0.6347098089569359 0  1.254989708250082 0.6542173320090857 0  1.219553304804916 0.7028436481938516 0  1.17919794216902 0.7373218456431533 0  1.138697313792127 0.7753871262296759 0  1.096540704059597 0.811053022907836 0  1.053649833721384 0.8465077148862732 0  1.010202397777145 0.8827606603612527 0  0.9626124316196549 0.9180387073002779 0  0.9160871631457553 0.9437624509646797 0  0.8695965282894607 0.9755428932134856 0  0.8215887270553762 1.006142496095015 0  0.7724952150730255 1.035901254921929 0  0.7222935372335589 1.064534459267102 0  0.6710557691421623 1.091733748991892 0  0.6189511410990317 1.11800168185022 0  0.564910066812916 1.141565794011128 0  0.5114416157695341 1.161902283506422 0  0.4566305400013499 1.182918609515399 0  0.401091109257407 1.200885119152173 0  0.3448784154221791 1.216953722085721 0  0.2881376216129668 1.230736019578831 0  0.2309168574751261 1.242191582969275 0  0.1734171383693104 1.251773474044997 0  0.1150901473698032 1.25801378231793 0  0.05746246549014003 1.262006611417128 0  -0.0007563610025277604 1.264790549067546 0  -0.05898774184910028 1.264734099984353 0  -0.1172803153600678 1.262452362416507 0  -0.1755199355822942 1.257562624209756 0  -0.2335619181249877 1.250325736776114 0  -0.2913906734666981 1.239841903720291 0  -0.3483087148622907 1.228525836498457 0  -0.4059947858480411 1.213975607961907 0  -0.4622703570100836 1.195641461518549 0  -0.517825960264503 1.17519699051717 0  -0.5724253633887376 1.152342072403805 0  -0.6259708418230671 1.127089595132003 0  -0.6783494423074354 1.100538265444928 0  -0.7293707694709261 1.069886357821093 0  -0.7783044782144363 1.044974291838955 0  -0.8296346995152193 1.01413051640859 0  -0.8769921480698312 0.9799535364173415 0  -0.9235203955706398 0.9461467372151893 0  -0.9689634121526622 0.9118125743313398 0  -1.013005709707776 0.8754344777808036 0  -1.056249133456664 0.8418169537686129 0  -1.096834176169735 0.7967448047715572 0  -1.134207552073474 0.7710439347285259 0  -1.178541840245821 0.7411668587976394 0  -1.216881525192669 0.7047063099114059 0  -1.255318169163725 0.6712042387707572 0  -1.292677645214955 0.6365155178782776 0  -1.330566259026944 0.606389961263082 0  -1.36547945812689 0.5685310060705314 0  -1.40937998056103 0.5610194032753927 0  -1.458365254008974 0.5186753261886601 0  -1.471629487657176 0.4477402283918387 0  -1.506217436694652 0.4081770677042547 0  -1.53017470314853 0.3592497613626812 0  -1.557182141456172 0.3134238455039881 0  -1.57051844682945 0.2573422072622031 0  -1.593614005020362 0.2165791881077571 0  -1.577981844160112 0.1422442719237222 0  -1.603726173678386 0.1307898662179017 0  -1.625746938239356 0.080918406629998 0  -1.59357644920735 0.03334134746259249 0  -1.602163837273943 -0.006576213450548728 0  -1.59293485984525 -0.04451441688164095 0  -1.604656859145513 -0.08245468085520084 0  -1.597079834231911 -0.1229010253609168 0  -1.633627287087065 -0.1712671920178331 0  -1.611509382351591 -0.2221482082064088 0  -1.585979484475455 -0.2318978021018017 0  -1.605639555119003 -0.3108832964543383 0  -1.582306332122401 -0.3521668328531842 0  -1.56993781449516 -0.4103587581013717 0  -1.542632567781647 -0.4571632897475153 0  -1.518305843525312 -0.5069484782133079 0  -1.481910110572376 -0.5456681645538815 0  -1.469257719027018 -0.615665335867704 0  -1.422410891357435 -0.6641390000478766 0  -1.377161808611563 -0.6691885622860356 0  -1.34268441452715 -0.7084012448496353 0  -1.304736256715811 -0.7385290319129352 0  -1.267744034634373 -0.7739694292234405 0  -1.229580207610538 -0.8081269550952671 0  -1.191655085343041 -0.8455409730454215 0  -1.147705285325042 -0.8755658232520229 0  -1.111479748999527 -0.9022578728693594 0  -1.071517015220202 -0.9519171012034923 0  -1.028533440222872 -0.9872457314771366 0  -0.984849655068697 -1.02634264595909 0  -0.9397675297762736 -1.063228316165402 0  -0.8935167918020746 -1.099768912527173 0  -0.8460948140770397 -1.136316449397145 0  -0.7959925475963481 -1.168547444195192 0  -0.7481134356092414 -1.200037837821456 0  -0.69585333785 -1.238300775035997 0  -0.6422891237090527 -1.268027226475882 0  -0.5874113623630943 -1.297175899430788 0  -0.5313703102838775 -1.322962047072604 0  -0.4742262072114949 -1.346020328404425 0  -0.4163469238023846 -1.366993070125025 0  -0.3561983785938408 -1.382704842880673 0  -0.2979983082859942 -1.394061106428458 0  -0.2384878138845726 -1.406061793958866 0  -0.1786239722077701 -1.414143511775849 0  -0.1184285896392466 -1.419616596555985 0  -0.05807061771354357 -1.421994343469281 0  0.002311240670603197 -1.42146877384787 0  0.06266338886773566 -1.417803226793961 0  0.1228136367650088 -1.410823279606315 0  0.1821847764318726 -1.401170436707957 0  0.2411614852333623 -1.389347237210253 0  0.2996209344846276 -1.375013261640925 0  0.3574587718399833 -1.358351340887714 0  0.4145818985644499 -1.339218512487642 0  0.4708143138441115 -1.318434153543262 0  0.5261532992860742 -1.293854144439352 0  0.5794922833930982 -1.272897409817299 0  0.6349859447724491 -1.246968224082663 0  0.6873054722117777 -1.217353576936681 0  0.7387818052342565 -1.187479462437087 0  0.7891380347044715 -1.156251765725005 0  0.8382970822952371 -1.124060442172692 0  0.8863017698962741 -1.091121297048951 0  0.932731950470744 -1.05735671637437 0  0.979289719247322 -1.029672295304463 0  1.02670619896313 -0.9922123852493083 0  1.070062213995105 -0.9541530997923691 0  1.112775913868949 -0.9168796963078999 0  1.154763689518013 -0.8795322090306825 0  1.195015563880605 -0.8396944932367948 0  1.235182360064408 -0.8038568089578416 0  1.270162612227472 -0.7528748224111588 0  1.306257220890899 -0.732626983962373 0  1.349485569457414 -0.6968764915743333 0  1.383058793782296 -0.6539185488243218 0  1.416894679475788 -0.6135630978124452 0  1.449485239390975 -0.571836219258944 0  1.478853781989861 -0.5267805263173649 0  1.509446125609567 -0.4862244186514148 0  1.527224860674571 -0.4275763617603835 0  1.55728514249567 -0.4035914790352085 0  1.585576873929421 -0.3584106350083923 0  1.598623770345739 -0.3092358629903213 0  1.614090610662321 -0.2633436488151327 0  1.625119658388044 -0.2169984805494989 0  1.634783451128176 -0.1724891070898303 0  1.642083645790792 -0.1282510378768627 0  1.650740919859949 -0.08643013050957954 0  -0.103557375867331 0.7488004072853137 0  0.6127144780407794 -0.704271836628876 0  -0.7703940855752542 -0.6224191653314184 0  -0.08108096355649318 -0.8736370970987706 0  0.6073855242727035 0.584399721786595 0  1.179000902546041 0.1907883717487655 0  -0.7813367675665008 0.4967387532460963 0  -1.268788461660155 -0.05305153555430438 0  1.185471755708007 -0.2895405036343351 0  -1.07506146969551 -0.4562648110168055 0  -0.8261094241889394 -0.06994729031487464 0  -0.4929870995173276 -0.2397579727951144 0  -1.083400644179429 0.3306348607673376 0  0.2829667524363039 -0.8477326134537044 0  0.1362964903097733 -0.2974769383571637 0  0.2463645851142552 0.7121411717392439 0  0.3435206949632667 0.1791738317015433 0  0.6689854842191136 -0.0539300869226628 0  -0.4236577696836326 -0.7725174717810011 0  -0.4588767805450898 0.6619556841785754 0  -0.2856979399326212 0.2321191402641349 0  0.9308271251642787 -0.4875757816790594 0  0.924498323469342 0.3816245910601741 0  0.4131710064684349 -0.3254927488329425 0  0.02691702639887533 0.2270851980583044 0  -0.5577836367098115 0.1751953291647659 0  -0.1810656410305722 -0.2914221039083025 0  0.9610180912308822 -0.05153116518292861 0  1.374671775591139 -0.04640841495251858 0  0.7721585379640795 -0.5930770704488416 0  0.7913926619922289 -0.2789556070880061 0  0.6323006054426265 -0.376000474100711 0  0.5398844051906744 -0.1861099049276552 0  0.507371241292761 -0.5194873123958839 0  0.9393147304299605 -0.2681604304269964 0  0.8145169727230387 -0.05270133115133116 0  -0.9461094960883927 0.13795246007402 0  -1.17376765664757 0.1384833875600847 0  -1.052538957356107 -0.06059900274824595 0  -0.9416897492400548 -0.2704869991135176 0  -1.17126141355093 -0.2538321908492915 0  -1.354488279644373 -0.3520455126476842 0  -1.42897172407683 -0.1637702330497586 0  -1.42467214088724 0.06401101506605358 0  -1.345477677919145 0.2494051162744781 0  -0.1316526287441283 -0.5820244324096168 0  -0.2962234989266712 -0.5369224665690278 0  -0.2536213764242202 -0.8288646874092408 0  -0.3362873882659962 -0.2668914674183946 0  -0.4547967204470845 -0.5031669307060711 0  -1.27240407101605 -0.5411426354665106 0  -1.269760610865991 0.4306571772988085 0  0.346917725230015 -0.5840063028641274 0  0.2738597708173829 -0.3130251203046701 0  0.2043658037052952 -0.5753603349225762 0  -0.9313998441360125 0.4085309660779993 0  -0.7955472039518586 0.2114562843420779 0  1.374395886240288 -0.3623925297350268 0  1.242603743074287 -0.5232408757221221 0  1.231626866771749 0.4247527253835759 0  1.365011749923794 0.2682594353878069 0  -0.770784997951048 -0.8993090876376371 0  -0.9528758434549401 -0.7666292045667318 0  -0.9518846157890626 0.6508027457249671 0  -0.7702565939936221 0.7727858322788562 0  0.7858131890081712 -0.8817774966284549 0  0.589985601930349 -0.9893926323550437 0  0.5810300453178624 0.864655529296418 0  0.7754514429977515 0.7658968743000253 0  0.009903551034100341 
[...]
<PointData  Vectors="f_2186"> 
<DataArray  type="Float64"  Name="f_2186"  NumberOfComponents="3" format="ascii">1.8480373732683467e-02 4.4372781085174427e-03 0.0000000000000000e+00  4.9049268149794939e-01 9.8245375882074923e-02 0.0000000000000000e+00  -6.8202008595491859e-02 -1.7388194891638321e-02 0.0000000000000000e+00  -6.8265432767632165e-03 -1.7996662594447102e-03 0.0000000000000000e+00  3.7304976157946007e-02 1.0257418588577715e-02 0.0000000000000000e+00  4.8655774953082077e-02 1.5415934494741637e-02 0.0000000000000000e+00  3.8135995123296219e-02 5.8575559305907229e-03 0.0000000000000000e+00  -7.7167081567448392e-01 -3.4275649906732758e-01 0.0000000000000000e+00  1.4131257471628533e+00 1.2307253018612436e+00 0.0000000000000000e+00  4.5195248133387872e-01 3.1493477512506490e-01 0.0000000000000000e+00  -9.4905406494500433e-01 -5.2569858607483744e-01 0.0000000000000000e+00  -2.7305802367680332e-01 -1.8257913847314305e-01 0.0000000000000000e+00  -2.1379436570503577e-01 -1.6030367796854125e-01 0.0000000000000000e+00  1.6057290195272265e-02 1.4294759987236512e-02 0.0000000000000000e+00  5.8470729349531514e-02 4.1462053159441403e-02 0.0000000000000000e+00  -6.5861855659170265e-01 -6.3934351939413403e-01 0.0000000000000000e+00  1.3540607447039787e+00 1.9589726230347244e+00 0.0000000000000000e+00  5.0591940715350492e-01 5.7697749542595966e-01 0.0000000000000000e+00  -1.2888898913190741e+00 -1.2201003795948064e+00 0.0000000000000000e+00  -3.5010450663120496e-01 -3.7028264182045922e-01 0.0000000000000000e+00  -1.9730723676316966e-01 -2.2199608007742783e-01 0.0000000000000000e+00  2.0844435244465275e-03 3.0691384892279502e-03 0.0000000000000000e+00  -1.3940478297174151e-02 -1.6972771874474640e-02 0.0000000000000000e+00  -1.2381673891185864e-01 -1.5609999624284085e-01 0.0000000000000000e+00  3.9385207329602645e-01 6.0713912387270041e-01 0.0000000000000000e+00  -2.5696879482921764e-01 -4.1523918258920106e-01 0.0000000000000000e+00  -1.1930007049632985e-01 -1.8291290507510252e-01 0.0000000000000000e+00  8.7545943823586578e-03 1.4724235320213629e-02 0.0000000000000000e+00  -2.9620723949353216e-02 -5.0671856360956599e-02 0.0000000000000000e+00  -6.9262321470910200e-03 -1.2389097402512836e-02 0.0000000000000000e+00  -2.2506864224515925e-02 -4.4097217817692588e-02 0.0000000000000000e+00  -4.7501393278774048e-02 -1.0066563957429962e-01 0.0000000000000000e+00  2.8655311731827393e-02 7.0217186076501806e-02 0.0000000000000000e+00  -8.0682822198754455e-03 -2.1839293013065083e-02 0.0000000000000000e+00  -4.0448581393229321e-02 -1.1463705734116673e-01 0.0000000000000000e+00  -9.8227544470628272e-03 -3.2246810416999255e-02 0.0000000000000000e+00  -1.9147244857846971e-02 -7.2449639317336167e-02 0.0000000000000000e+00  -9.4230417542097798e-03 -4.2318868021653751e-02 0.0000000000000000e+00  -1.1916648748630217e-02 -6.5703188200508730e-02 0.0000000000000000e+00  -8.4673792685474262e-03 -6.0927415086355401e-02 0.0000000000000000e+00  -2.9363974394769443e-03 -3.3316251857232235e-02 0.0000000000000000e+00  -2.7799265933802731e-03 -4.7854211653975347e-02 0.0000000000000000e+00  -1.0725004899135272e-03 -4.5699332906294153e-02 0.0000000000000000e+00  7.9234043337845128e-04 -4.0292021817627192e-02 0.0000000000000000e+00  2.2103295554490279e-03 -3.6027634932883669e-02 0.0000000000000000e+00  2.5709422479086421e-03 -2.4931977359119801e-02 0.0000000000000000e+00  5.4618918367832954e-03 -3.5357374686547205e-02 0.0000000000000000e+00  4.8216122159187762e-03 -2.6138692645147479e-02 0.0000000000000000e+00  -8.5089015385205226e-03 3.7288326206609726e-02 0.0000000000000000e+00  1.0104360507545852e-02 -3.3940720302143984e-02 0.0000000000000000e+00  1.5817239166241240e-02 -4.6202420223583847e-02 0.0000000000000000e+00  3.1922196129128854e-03 -7.8257900915843608e-03 0.0000000000000000e+00  3.3044481765694293e-02 -7.4395376600876112e-02 0.0000000000000000e+00  1.6687308283638744e-05 7.5503582114405166e-04 0.0000000000000000e+00  1.2519163356546481e-01 -2.2814835449256438e-01 0.0000000000000000e+00  -7.9895103048711492e-03 1.4154280615791603e-02 0.0000000000000000e+00  -1.8347125998532612e-01 3.2727299743048505e-01 0.0000000000000000e+00  1.0663166270341555e-01 -1.6002532763698149e-01 0.0000000000000000e+00  6.5293594512425210e-03 -9.8721709569112616e-03 0.0000000000000000e+00  -3.9984362210885886e-03 5.5948725887585348e-03 0.0000000000000000e+00  1.0980718607547216e-01 -1.3915495555655910e-01 0.0000000000000000e+00  1.7083112375190099e-01 -2.0734225390128774e-01 0.0000000000000000e+00  4.1406596637690579e-01 -4.4936208342576450e-01 0.0000000000000000e+00  -7.9755696787315478e-01 9.1256456763198079e-01 0.0000000000000000e+00  1.2810789751477647e-01 -1.8525913113298872e-01 0.0000000000000000e+00  3.8004094130774657e-01 -4.7286411462122113e-01 0.0000000000000000e+00  -1.0789587992857457e-02 8.2945856368913072e-03 0.0000000000000000e+00  1.6716872035167571e-01 -1.8470043267254807e-01 0.0000000000000000e+00  3.0377489837704130e-01 -3.4177977130441123e-01 0.0000000000000000e+00  1.1941370829657953e+00 -1.2998460180473606e+00 0.0000000000000000e+00  1.5520491794755681e-01 -3.3551069050500282e-01 0.0000000000000000e+00  -1.3519361522527178e+00 2.6173972366349765e+00 0.0000000000000000e+00  6.2050489347706639e-01 -2.9243588856864228e-01 0.0000000000000000e+00  -1.8399310715145986e-01 8.7700796942024817e-02 0.0000000000000000e+00  -3.0663318606735362e-01 1.9503087465048416e-01 0.0000000000000000e+00  -1.0381309772152811e-01 6.0479929537022879e-02 0.0000000000000000e+00  2.8456264978940260e-01 -1.1708608394613980e-01 0.0000000000000000e+00  2.3126479168845918e-01 -8.6808376574804710e-02 0.0000000000000000e+00  -2.5774904717107511e-01 6.1256390319909593e-02 0.0000000000000000e+00  -1.0332627746982299e+00 4.9194153009797381e-01 0.0000000000000000e+00  -3.2332032582487252e-01 1.5349194060765928e-01 0.0000000000000000e+00  -5.9704397148200805e-01 -1.9291341347831361e-02 0.0000000000000000e+00  -2.8205275479191311e-01 -3.9332913624202027e-02 0.0000000000000000e+00  -1.3520179467928291e+00 -2.3067927508240643e-02 0.0000000000000000e+00  2.0430595491799936e-01 -1.4332696908028145e-02 0.0000000000000000e+00  1.7184695582764311e+00 -1.1370206703657494e-01 0.0000000000000000e+00  9.4530439782686015e-01 -1.9120199845473573e-01 0.0000000000000000e+00  2.6804914405085029e-01 -7.5599125330542130e-03 0.0000000000000000e+00  4.2884995835304029e-01 2.7992882192847385e-01 0.0000000000000000e+00  6.0141842616089591e-01 2.8368340995518115e-01 0.0000000000000000e+00  2.5969175606844647e-01 5.7932965444704214e-02 0.0000000000000000e+00  9.7498790554320369e-02 3.1702684226936340e-02 0.0000000000000000e+00  6.1492295696423234e-02 2.4773707281525791e-02 0.0000000000000000e+00  -6.1143014759061323e-02 -3.5423571434090396e-02 0.0000000000000000e+00  -1.2852116991768456e-01 -8.6158399493324600e-02 0.0000000000000000e+00  5.1112843290614655e-02 2.9650447791183317e-02 0.0000000000000000e+00  6.2928856697897873e-01 3.1964503230549263e-01 0.0000000000000000e+00  -5.4545150424756728e-01 -1.0582030597543901e+00 0.0000000000000000e+00  2.4474063255461811e-01 4.7719910221386597e-01 0.0000000000000000e+00  9.6375135578411275e-01 1.0384472897348194e+00 0.0000000000000000e+00  2.6405706461653788e-01 2.9300541216767301e-01 0.0000000000000000e+00  1.2509379374028395e-01 1.3418825695070680e-01 0.0000000000000000e+00  -1.8740317854122398e-03 3.9910090814366600e-04 0.0000000000000000e+00  2.5104651545411727e-01 3.0533174212871528e-01 0.0000000000000000e+00  2.4229378373899038e-01 3.3460444667045908e-01 0.0000000000000000e+00  -5.8882298161809232e-01 -6.1783187915766102e-01 0.0000000000000000e+00  2.5613436813475604e-01 2.5619659798810857e-01 0.0000000000000000e+00  1.5520099345673238e-01 1.7659914696572868e-01 0.0000000000000000e+00  7.4313141316479273e-02 8.7069326115991816e-02 0.0000000000000000e+00  -1.9003799058490733e-03 -2.5139301477683637e-03 0.0000000000000000e+00  5.2732916932073616e-03 7.0457696966000020e-03 0.0000000000000000e+00  2.5421961153516844e-03 3.4334021215113955e-03 0.0000000000000000e+00  3.8593637417850310e-02 5.9561287150841934e-02 0.0000000000000000e+00  -1.1448481334891303e-01 -1.6585643880962103e-01 0.0000000000000000e+00  8.0589122049198186e-02 1.2566544856594600e-01 0.0000000000000000e+00  5.6702257092846320e-03 1.1348466991031037e-02 0.0000000000000000e+00  3.9566020114269539e-02 7.9368936991481884e-02 0.0000000000000000e+00  -4.6240762026203168e-03 -1.0784229821843639e-02 0.0000000000000000e+00  1.5524388539232346e-02 4.1804345350745752e-02 0.0000000000000000e+00  1.7729575680048269e-02 5.4772039046439971e-02 0.0000000000000000e+00  -2.5738262774527895e-02 -1.1104953831754374e-01 0.0000000000000000e+00  1.5401863189175595e-03 9.0509183115602132e-03 0.0000000000000000e+00  8.7350437722669826e-03 5.1834509058797933e-02 0.0000000000000000e+00  6.1276722300924861e-04 5.4548070938478833e-03 0.0000000000000000e+00  1.6034099792499366e-03 2.4528226429631095e-02 0.0000000000000000e+00  2.4568485503741601e-04 1.6023552408273366e-02 0.0000000000000000e+00  -7.3706520583318683e-04 2.1082893376518082e-02 0.0000000000000000e+00  -1.5548000569752564e-03 1.7659103867898228e-02 0.0000000000000000e+00  -3.3947218763421155e-03 2.4305606441425431e-02 0.0000000000000000e+00  -4.5859445384861400e-03 2.5287215976788676e-02 0.0000000000000000e+00  -6.0083442140115165e-03 2.6961352546425753e-02 0.0000000000000000e+00  -5.9393122704485043e-03 2.2242234622841420e-02 0.0000000000000000e+00  -1.0951861221040256e-02 3.5216535397322953e-02 0.0000000000000000e+00  -4.1660841666609121e-03 1.1592712571207166e-02 0.0000000000000000e+00  -3.1804004511448568e-02 7.8719123164252128e-02 0.0000000000000000e+00  -3.4605187640752511e-03 8.5477435955401467e-03 0.0000000000000000e+00  5.1099070012838400e-02 -1.1774159298005145e-01 0.0000000000000000e+00  -3.7138219791226119e-02 7.1319137274979766e-02 0.0000000000000000e+00  -9.1291552211766099e-03 1.6447666998101844e-02 0.0000000000000000e+00  9.6904687764916308e-04 -1.7202923089553572e-03 0.0000000000000000e+00  -1.1216619291769963e-02 1.7740080317398300e-02 0.0000000000000000e+00  6.8993370271954535e-03 -1.0556838669792267e-02 0.0000000000000000e+00  -4.7745678744543912e-02 6.8414713983780392e-02 0.0000000000000000e+00  -1.3795270972479354e-01 2.0850818066476418e-01 0.0000000000000000e+00  1.9272565415487719e-01 -2.7783463456723012e-01 0.0000000000000000e+00  -3.5806213038215046e-02 4.2288694449475944e-02 0.0000000000000000e+00  -6.4450472479546904e-03 7.3699459471093867e-03 0.0000000000000000e+00  3.2269898100230499e-03 -3.9170878729461430e-03 0.0000000000000000e+00  -8.2259654695605020e-02 8.8011245367458357e-02 0.0000000000000000e+00  -1.6245435305882824e-01 1.6392535607844930e-01 0.0000000000000000e+00  -5.5603650484892198e-01 5.0086372864090345e-01 0.0000000000000000e+00  2.4760234156987279e-01 -2.6910192101141933e-01 0.0000000000000000e+00  6.0116648534025530e-01 -8.3683016377455954e-01 0.0000000000000000e+00  -2.6993170545445849e-01 2.5295876435758491e-01 0.0000000000000000e+00  3.4191816265277813e-02 -2.4333536704569201e-02 0.0000000000000000e+00  1.9047635603630694e-02 -1.5721448455301885e-02 0.0000000000000000e+00  -6.8801122986708041e-02 4.9681069147991752e-02 0.0000000000000000e+00  -9.0796421333206215e-02 5.7810009496199841e-02 0.0000000000000000e+00  -3.4438209402620279e-01 1.8333133222024608e-01 0.0000000000000000e+00  1.0087888139151242e-01 -6.8204379313215685e-02 0.0000000000000000e+00  4.4093529352524252e-01 -3.7216866635255147e-01 0.0000000000000000e+00  -1.7900317953541070e-01 7.2623263602447571e-02 0.0000000000000000e+00  2.6355305811651814e-02 -5.9258601572914089e-03 0.0000000000000000e+00  3.2241020515579033e-02 -9.2777814812546981e-03 0.0000000000000000e+00  3.4339034234002461e-02 -7.8103625673217603e-03 0.0000000000000000e+00  2.7922997310949493e-02 -5.3055028558617132e-03 0.0000000000000000e+00  2.6356277484981934e-02 -5.0869327112979873e-03 0.0000000000000000e+00  -1.6497052296234330e-01 2.5722987630486520e-02 0.0000000000000000e+00  1.5954807822344526e-09 -2.8954822371419474e-08 0.0000000000000000e+00  -6.2227732180609380e-09 9.6690984639676357e-09 0.0000000000000000e+00  2.7176387506836827e-08 3.0664079695283492e-08 0.0000000000000000e+00  8.9618596701720958e-10 1.5030583805143055e-08 0.0000000000000000e+00  -1.3377912226607334e-08 -2.2608142375735512e-08 0.0000000000000000e+00  -6.6458804466813373e-08 -4.0014671718729944e-08 0.0000000000000000e+00  4.1187169093126675e-08 -4.9571351477875717e-08 0.0000000000000000e+00  8.2269238115029969e-08 -1.2094894074670310e-08 0.0000000000000000e+00  -1.7432700508152659e-08 8.9450126637629039e-09 0.0000000000000000e+00  8.3586574779760236e-08 9.0066901754746411e-08 0.0000000000000000e+00  4.7947783861381300e-14 1.3704277326788302e-13 0.0000000000000000e+00  2.8711857795379547e-15 5.3764572419409547e-15 0.0000000000000000e+00  8.7985770876086406e-08 -8.9293934327035388e-08 0.0000000000000000e+00  -6.2642013263062910e-09 2.0152782203825266e-08 0.0000000000000000e+00  -3.3005113186011443e-15 2.3630515247515280e-14 0.0000000000000000e+00  -9.6774737003087022e-09 -3.6865485241455197e-08 0.0000000000000000e+00  -9.3935953381923563e-15 -2.1890100256364127e-14 0.0000000000000000e+00  2.1318598323098015e-14 9.5583890131165722e-15 0.0000000000000000e+00  9.7033135906255406e-09 1.9552005316971191e-08 0.0000000000000000e+00  1.4119836803989725e-08 -3.0805338102051296e-08 0.0000000000000000e+00  5.0838630775110476e-15 -2.0783685501288983e-14 0.0000000000000000e+00  -3.8185129402204932e-08 3.6227586550154701e-08 0.0000000000000000e+00  -9.1344019554903000e-08 -9.1833227168363881e-08 0.0000000000000000e+00  -1.6752338113595540e-15 2.0862162806569958e-15 0.0000000000000000e+00  -4.3640449164371323e-15 -4.2898859982971247e-14 0.0000000000000000e+00  -8.8215108780296541e-15 2.1027801517783125e-14 0.0000000000000000e+00  1.0913445893816755e-15 1.4988550772299912e-15 0.0000000000000000e+00  1.6256125614425864e-13 1.1492305333951039e-13 0.0000000000000000e+00  4.3208290109190526e-08 1.7062520541523927e-09 0.0000000000000000e+00  2.1452969375550662e-08 -3.0907642347215262e-08 0.0000000000000000e+00  -7.7764600232508642e-12 6.3056483154943697e-12 0.0000000000000000e+00  -1.7782913287896762e-11 2.6498334778091912e-11 0.0000000000000000e+00  -7.9477920962486873e-15 1.2328245543448401e-14 0.0000000000000000e+00  -6.5057588281558803e-12 1.1247147107503972e-11 0.0000000000000000e+00  -7.9854910697465488e-11 6.3856267743055824e-11 0.0000000000000000e+00  -1.3712444819735319e-13 -5.6147483614670766e-14 0.0000000000000000e+00  5.6296569337042533e-11 2.2274063939939196e-11 0.0000000000000000e+00  2.9998866114919633e-08 9.0030536633025340e-08 0.0000000000000000e+00  -2.1490330124123435e-11 2.9330133142078464e-11 0.0000000000000000e+00  1.0141803344579155e-10 7.6907155524175438e-11 0.0000000000000000e+00  7.2532147735335342e-08 -3.1618492273034837e-09 0.0000000000000000e+00  -6.0749083635163733e-06 -7.2726485905452748e-06 0.0000000000000000e+00  3.4987802420741979e-04 -1.2349754782823446e-05 0.0000000000000000e+00  -2.3435472082200759e-04 2.5486868461303231e-05 0.0000000000000000e+00  -3.0397378496425358e-05 2.6237750267917512e-05 0.0000000000000000e+00  2.3749450252455321e-12 1.6274538772899630e-11 0.0000000000000000e+00  6.0771468703705100e-12 1.4535034239191501e-11 0.0000000000000000e+00  -9.7053454855651085e-10 -6.4950176571669561e-09 0.0000000000000000e+00  1.0792059056640687e-14 2.1629400897330415e-14 0.0000000000000000e+00  1.0285597681688927e-11 1.8895447917523414e-11 0.0000000000000000e+00  7.0946468196034834e-05 6.8824842475298810e-05 0.0000000000000000e+00  4.6293462813460243e-05 -1.5030639545129834e-05 0.0000000000000000e+00  -9.4172825771865880e-12 2.4256325475989342e-11 0.0000000000000000e+00  -7.7647339819438648e-15 2.5120960081363280e-14 0.0000000000000000e+00  -4.9617163917616401e-12 2.2062232864574765e-11 0.0000000000000000e+00  4.4529103302232296e-10 -7.6692211639189955e-09 0.0000000000000000e+00  4.5746350200416831e-11 -4.9471653328176498e-11 0.0000000000000000e+00  -5.9831468093136528e-05 3.0250298545793478e-05 0.0000000000000000e+00  1.4143745929241721e-05 -1.7659330266337104e-05 0.0000000000000000e+00  2.1070936700644116e-05 3.2543982504356041e-05 0.0000000000000000e+00  -1.7376081964534410e-04 -9.0616735453809765e-05 0.0000000000000000e+00  3.8099995915067686e-06 4.7154139219992877e-06 0.0000000000000000e+00  6.3365623679312527e-05 6.5032700360092657e-05 0.0000000000000000e+00  9.9547889128540461e-05 -1.0851051481405501e-04 0.0000000000000000e+00  5.0450802971600877e-06 -5.3560969170143826e-06 0.0000000000000000e+00  -1.4219081252618041e-05 2.0912686577309741e-05 0.0000000000000000e+00  -4.4031285350635183e-06 7.2859190553093951e-06 0.0000000000000000e+00  -9.9868813854285213e-06 -1.9175765521658273e-05 0.0000000000000000e+00  -3.2703071326782224e-05 -5.1227515166157999e-05 0.0000000000000000e+00  -4.8444374866509467e-07 1.3569360278618413e-05 0.0000000000000000e+00  2.4549892747975752e-06 1.6485455709011907e-05 0.0000000000000000e+00  2.8428827607972893e-06 -2.0154932850028245e-05 0.0000000000000000e+00  -6.4597302976195509e-07 -2.8300409306711991e-05 0.0000000000000000e+00  3.0165742233385922e-09 -8.1593160204117026e-09 0.0000000000000000e+00  -1.8265077342863761e-14 -3.0980875042871490e-14 0.0000000000000000e+00  -3.3842222056659467e-11 -5.3538266515339626e-11 0.0000000000000000e+00  -1.2212852873833509e-11 -2.3909881166504472e-11 0.0000000000000000e+00  6.4101874560266339e-12 7.6451824651021403e-12 0.0000000000000000e+00  3.2480475839809430e-14 3.6665379417409297e-14 0.0000000000000000e+00  2.6645485371145495e-11 2.8937357259986940e-11 0.0000000000000000e+00  -1.1683220679850249e-14 -4.4801234208301683e-14 0.0000000000000000e+00  -9.9879006378673372e-18 -2.7113992838468762e-17 0.0000000000000000e+00  -2.1506498939966213e-17 -2.1588361808065207e-17 0.0000000000000000e+00  1.0279661076049218e-05 1.4825600464696916e-05 0.0000000000000000e+00  6.3338245043428181e-06 -1.0281077240911201e-05 0.0000000000000000e+00  2.1166404662902330e-08 3.6602728754969280e-08 0.0000000000000000e+00  -2.3252453072713507e-11 -2.2232913605964482e-11 0.0000000000000000e+00  4.0249700736119446e-08 6.3359674165258102e-08 0.0000000000000000e+00  -1.9113783098570311e-10 -1.6288526495682825e-10 0.0000000000000000e+00  -1.3449122374653726e-11 -3.9897505274148108e-11 0.0000000000000000e+00  -4.3283625738585513e-09 -9.6558132478851918e-09 0.0000000000000000e+00  -6.7116769012660797e-13 1.7150827876050394e-11 0.0000000000000000e+00  -2.3041971784677023e-09 1.6506039706247268e-08 0.0000000000000000e+00  9.6537007846318429e-12 -2.6783187493904853e-11 0.0000000000000000e+00  3.6329341407528812e-12 -2.6351402031538270e-11 0.0000000000000000e+00  2.8921772241230088e-09 -1.1670153658076432e-08 0.0000000000000000e+00  -3.3820198834880504e-17 3.6093868035272825e-18 0.0000000000000000e+00  1.0690710724489700e-15 1.8890087071317745e-14 0.0000000000000000e+00  -9.6992088433861778e-06 2.4596144935679116e-05 0.0000000000000000e+00  -3.6345479420431497e-06 1.6138518058472074e-05 0.0000000000000000e+00  -6.1549836121099929e-06 -3.3305802986987206e-05 0.0000000000000000e+00  -1.2714454919534901e-05 -3.7270324929707273e-05 0.0000000000000000e+00  1.2908053555300539e-18 -2.6228611674116398e-17 0.0000000000000000e+00  -7.5642076480764238e-12 -4.1537804580156130e-11 0.0000000000000000e+00  -3.3101884847507956e-09 -3.3293450938916570e-08 0.0000000000000000e+00  4.8580550776341063e-06 1.1345666829696291e-05 0.0000000000000000e+00  1.9605807759999499e-05 3.2659841668011389e-05 0.0000000000000000e+00  5.4986366060369536e-09 9.0976315330427733e-09 0.0000000000000000e+00  3.1672191553541378e-05 -5.8292249827423136e-05 0.0000000000000000e+00  7.2691597769287085e-06 -2.0004592637689462e-05 0.0000000000000000e+00  -2.1058658377813405e-08 4.0535997816853371e-08 0.0000000000000000e+00  4.4249752303978167e-14 -5.2529728015806724e-14 0.0000000000000000e+00  1.4481989727768333e