<?xml version="1.0"?>
<VTKFile type="UnstructuredGrid"  version="0.1"  >
<UnstructuredGrid>
<Piece  NumberOfPoints="2549" NumberOfCells="4928">
<Points>
<DataArray  type="Float64"  NumberOfComponents="3"  format="ascii">2 0 0  1.996686137018095 0.05754231104100042 0  1.986882897305854 0.1143419787233611 0  1.970975633076588 0.1697461736080849 0  1.949521707683106 0.2232516020504374 0  1.92316148102163 0.2745222750136555 0  1.892542813236142 0.323373506980794 0  1.858271349552875 0.3697389590748243 0  1.820885526891715 0.4136350740557075 0  1.780849258848747 0.4551307277194839 0  1.738554874553317 0.4943245260370203 0  1.694330878507049 0.5313291997757913 0  1.648451186236745 0.5662615752889001 0  1.601144123217999 0.5992364926897525 0  1.552600433702648 0.6303633660965611 0  1.502980077905183 0.659744436395664 0  1.452417851070797 0.6874740696729748 0  1.401027953784824 0.7136386818120056 0  1.348907720609051 0.7383169985313379 0  1.29614058371176 0.7615805254953902 0  1.242798492047359 0.7834940823268561 0  1.188943861023348 0.8041163621228731 0  1.134631154358537 0.8235004771642536 0  1.079908172939354 0.8416944721837589 0  1.024817109964837 0.8587417963397553 0  0.9693954136298085 0.8746817324080646 0  0.9136765221153764 0.8895497755796398 0  0.8576904445844472 0.9033779803145155 0  0.801464266694953 0.9161952615587904 0  0.7450225714102614 0.9280276623152515 0  0.6883877952988928 0.9388985892101885 0  0.6315805321092666 0.9488290192996544 0  0.5746197931158087 0.9578376811025375 0  0.5175232373657314 0.9659412118222429 0  0.4603073510223729 0.9731542969378965 0  0.4029876351072817 0.9794897863110468 0  0.3455787518345055 0.9849587968895583 0  0.2880946601251717 0.9895707992366389 0  0.2305487379218517 0.993333690086398 0  0.1729538938792191 0.9962538520116265 0  0.115322670663361 0.998336201090478 0  0.05766733915096163 0.9995842233142798 0  -1.322274611685462e-09 1 0  -0.05766734179523565 0.9995842232761419 0  -0.1153226733068079 0.9983362010141388 0  -0.1729538991952786 0.996253851780904 0  -0.2305487459060017 0.9933336896231258 0  -0.2880946707711053 0.9895707984617989 0  -0.3455787651340506 0.9849587957230019 0  -0.4029876510566202 0.9794897846705534 0  -0.4603073696092293 0.9731542947399749 0  -0.5175232585755485 0.9659412089813419 0  -0.5746198169315506 0.9578376775306909 0  -0.6315805531144443 0.9488290158041717 0  -0.6883878135015997 0.9388985858736937 0  -0.745022586820829 0.9280276592223424 0  -0.8014642793262121 0.9161952587964145 0  -0.8576904516640802 0.9033779786341188 0  -0.9136765236872437 0.8895497751760147 0  -0.9693954097454738 0.8746817334843007 0  -1.02481710068483 0.8587417991084308 0  -1.07990816384232 0.8416944751016707 0  -1.134631145449371 0.8235004802330488 0  -1.188943852307292 0.8041163653447019 0  -1.242798483530528 0.7834940857042606 0  -1.296140602082296 0.7615805176791459 0  -1.348907765262195 0.7383169781359747 0  -1.401028023999701 0.7136386473502353 0  -1.452417945986507 0.6874740195411637 0  -1.502980204542554 0.659744364271727 0  -1.55260059049229 0.6303632695523657 0  -1.601144308255775 0.5992363690857174 0  -1.648451397199867 0.566261421754521 0  -1.694331058738459 0.5313290560928818 0  -1.738555024805723 0.4943243939263901 0  -1.780849380123489 0.4551306090875966 0  -1.820885620520759 0.4136349710133106 0  -1.858271414561462 0.3697388773931348 0  -1.892542852486391 0.3233734495527862 0  -1.923161498240549 0.2745222448569359 0  -1.949521707638369 0.2232516021481025 0  -1.970975633050448 0.1697461736839625 0  -1.986882897293919 0.1143419787752093 0  -1.99668613701505 0.05754231106741577 0  -2 -2.119381739288827e-14 0  -1.996686137015017 -0.05754231106770592 0  -1.986882897293798 -0.114341978775735 0  -1.970975633050334 -0.1697461736842945 0  -1.949521707638351 -0.2232516021481412 0  -1.923161498240437 -0.2745222448571329 0  -1.892542852486365 -0.3233734495528243 0  -1.858271414561291 -0.36973887739335 0  -1.820885620520727 -0.4136349710133463 0  -1.780849380123318 -0.4551306090877636 0  -1.738555024805688 -0.4943243939264208 0  -1.69433105873832 -0.5313290560929934 0  -1.648451397199832 -0.5662614217545467 0  -1.601144308255667 -0.5992363690857894 0  -1.552600590492252 -0.6303632695523889 0  -1.50298020454247 -0.659744364271775 0  -1.452417945986467 -0.6874740195411845 0  -1.40102802399929 -0.713638647350437 0  -1.348907765261459 -0.7383169781363109 0  -1.296140602081886 -0.7615805176793204 0  -1.242798483530485 -0.7834940857042775 0  -1.188943852307122 -0.8041163653447646 0  -1.134631145449091 -0.8235004802331454 0  -1.079908163842153 -0.8416944751017243 0  -1.02481710068479 -0.8587417991084427 0  -0.9693954097453934 -0.874681733484323 0  -0.9136765236871304 -0.8895497751760438 0  -0.8576904516640044 -0.9033779786341368 0  -0.8014642793261747 -0.9161952587964226 0  -0.7450225868207132 -0.9280276592223656 0  -0.688387813501408 -0.9388985858737288 0  -0.6315805531141928 -0.9488290158042135 0  -0.574619816931241 -0.9578376775307373 0  -0.5175232585753057 -0.9659412089813745 0  -0.4603073696090547 -0.9731542947399956 0  -0.4029876510565167 -0.979489784670564 0  -0.3455787651340186 -0.9849587957230047 0  -0.2880946707710729 -0.9895707984618012 0  -0.2305487459059683 -0.9933336896231277 0  -0.1729538991952446 -0.9962538517809054 0  -0.1153226733067752 -0.9983362010141397 0  -0.05766734179520062 -0.9995842232761424 0  -1.322240462585813e-09 -1 0  0.05766733915099533 -0.9995842233142793 0  0.1153226706633956 -0.998336201090477 0  0.1729538938792597 -0.9962538520116249 0  0.2305487379218985 -0.9933336900863954 0  0.2880946601252248 -0.9895707992366352 0  0.3455787518345641 -0.9849587968895532 0  0.4029876351073326 -0.9794897863110416 0  0.4603073510224157 -0.9731542969378913 0  0.5175232373657652 -0.9659412118222385 0  0.5746197931158308 -0.9578376811025342 0  0.6315805321096187 -0.9488290192995957 0  0.6883877952995736 -0.9388985892100637 0  0.7450225714112517 -0.9280276623150527 0  0.8014642666962468 -0.9161952615585074 0  0.857690444585461 -0.903377980314275 0  0.9136765221161084 -0.8895497755794518 0  0.9693954136301919 -0.8746817324079583 0  1.02481710996487 -0.8587417963397453 0  1.079908172939512 -0.8416944721837082 0  1.134631154358807 -0.8235004771641605 0  1.188943861023504 -0.8041163621228153 0  1.242798492047385 -0.7834940823268459 0  1.296140583712152 -0.7615805254952235 0  1.348907720609768 -0.7383169985310102 0  1.401027953785216 -0.7136386818118133 0  1.452417851070815 -0.6874740696729649 0  1.502980077905247 -0.6597444363956275 0  1.552600433702669 -0.6303633660965483 0  1.601144123218091 -0.5992364926896914 0  1.648451186236767 -0.5662615752888848 0  1.694330878507175 -0.5313291997756912 0  1.738554874553337 -0.4943245260370026 0  1.780849258848903 -0.4551307277193312 0  1.820885526891733 -0.4136350740556869 0  1.858271349553032 -0.3697389590746263 0  1.892542813236154 -0.3233735069807763 0  1.923161481021729 -0.2745222750134805 0  1.949521707683112 -0.223251602050424 0  1.970975633076692 -0.1697461736077827 0  1.986882897305967 -0.11434197872287 0  1.996686137018124 -0.05754231104074863 0  -0.1152904195579733 0.6070198455084121 0  0.7139314807447402 -0.5185554509125195 0  -0.9021804071087454 -0.4712698952622889 0  -0.08853261806707058 -0.5931971952512098 0  0.7139314807447157 0.5185554509125249 0  1.417801984821762 0.2291367688541014 0  -0.9202096744148912 0.4669291729068617 0  -1.545989679638069 -0.002355595176244116 0  1.419175259971926 -0.2295798938383525 0  -1.262514497274744 -0.369291382563445 0  -1.008975443817403 -0.0113108633010534 0  -0.6062327478577832 -0.13746405873719 0  -1.281728968624498 0.3515475904410956 0  0.3284986955774252 -0.5906094157356263 0  0.1737280740022324 -0.1722626988402368 0  0.2893086492827969 0.5872833258737034 0  0.428425950012378 0.185265744956867 0  0.8258750024497795 0.002678618671304442 0  -0.4906311993153011 -0.5380519337330318 0  -0.5319151236343942 0.5610340701502295 0  -0.3492448427637153 0.2242372176230919 0  1.101084670418347 -0.3819430866711396 0  1.10085579138347 0.3827620940547057 0  0.5114738231755741 -0.2037878442320408 0  0.0378548298353058 0.2177192870939484 0  -0.68351177520046 0.1879874044068832 0  -0.2205094860969659 -0.1665034527494929 0  1.17295745818125 0.0006108973493657318 0  1.665541930433108 -2.306912664895724e-05 0  0.907508075581543 -0.4502492687918292 0  0.9634798364340638 -0.1896322339999175 0  0.7699032415972596 -0.2579384161206076 0  0.6686744128126767 -0.100554612780368 0  0.6127026519601571 -0.36117164757228 0  1.137021064299799 -0.190666094660887 0  0.9994162303155147 0.001644758010335187 0  -1.145352206220951 0.1701183635700213 0  -1.413859324131283 0.1745959976324259 0  -1.277482561727735 -0.006833229238648594 0  -1.135744970546073 -0.1903011229322492 0  -1.404252088456406 -0.1858234888698444 0  -1.597220538418949 -0.2843085084653953 0  -1.747755693638209 -0.1128035986621925 0  -1.747755693638219 0.1104480034859294 0  -1.597220538418967 0.2819529132891387 0  -0.154521052082018 -0.3798503240003511 0  -0.3555703427061332 -0.3522776932412622 0  -0.2895819086911859 -0.5656245644921211 0  -0.4133711169773747 -0.1519837557433414 0  -0.5484319735865418 -0.3377579962351108 0  -1.455482947237287 -0.4677764021589958 0  -1.465090182912182 0.4589045060978081 0  0.4199862593764998 -0.3971986299838336 0  0.3426009485889036 -0.1880252715361387 0  0.2511133847898288 -0.3814360572879312 0  -1.100969321519695 0.4092383816739789 0  -0.9645925591161468 0.2278091548029043 0  1.62003039343183 -0.3216074839470194 0  1.43579655552137 -0.4585269817556586 0  1.435109917946279 0.4583054192635382 0  1.619343755856739 0.3213859214549047 0  -0.85182234321746 -0.6937325770293555 0  -1.072489445319615 -0.627381990483283 0  -1.081504078972709 0.6252116293055613 0  -0.8608369768705514 0.6915622158516382 0  0.8693742953548055 -0.6886486236261325 0  0.6442756369302858 -0.738196566007527 0  0.644275636930262 0.7381965660075314 0  0.8693742953547762 0.6886486236261405 0  0.01339502629816219 -0.7957666981708436 0  -0.2170556
[...]
<PointData  Vectors="f_45"> 
<DataArray  type="Float64"  Name="f_45"  NumberOfComponents="3" format="ascii">2.2409162591670573e-01 -3.1616107878026266e-13 0.0000000000000000e+00  2.1820215055769496e-01 5.0980149911162266e-02 0.0000000000000000e+00  2.0149607705950837e-01 9.7949817331269437e-02 0.0000000000000000e+00  1.7647039281531399e-01 1.3794871099233361e-01 0.0000000000000000e+00  1.4626231007762949e-01 1.6956747894701632e-01 0.0000000000000000e+00  1.1379403820806708e-01 1.9279945933987899e-01 0.0000000000000000e+00  8.1297829869770591e-02 2.0854042081041438e-01 0.0000000000000000e+00  5.0224533613877388e-02 2.1807623503639800e-01 0.0000000000000000e+00  2.1371020347723559e-02 2.2272822193334355e-01 0.0000000000000000e+00  -4.9279941928130162e-03 2.2366990691761865e-01 0.0000000000000000e+00  -2.8627269115131460e-02 2.2186363940014861e-01 0.0000000000000000e+00  -4.9844021787263930e-02 2.1806210276252758e-01 0.0000000000000000e+00  -6.8774713702418541e-02 2.1283712666670129e-01 0.0000000000000000e+00  -8.5644838586107469e-02 2.0661531536749739e-01 0.0000000000000000e+00  -1.0068076952767309e-01 1.9971124261226769e-01 0.0000000000000000e+00  -1.1409531244942724e-01 1.9235504142502094e-01 0.0000000000000000e+00  -1.2608132719591814e-01 1.8471403912720835e-01 0.0000000000000000e+00  -1.3680985776191298e-01 1.7690919035872685e-01 0.0000000000000000e+00  -1.4643064533409320e-01 1.6902732974198084e-01 0.0000000000000000e+00  -1.5507377573695841e-01 1.6113022312563627e-01 0.0000000000000000e+00  -1.6285177515811905e-01 1.5326121575127027e-01 0.0000000000000000e+00  -1.6986177366765712e-01 1.4545011280106482e-01 0.0000000000000000e+00  -1.7618755561466004e-01 1.3771675961499641e-01 0.0000000000000000e+00  -1.8190141130167289e-01 1.3007367338980902e-01 0.0000000000000000e+00  -1.8706576522109353e-01 1.2252798017239502e-01 0.0000000000000000e+00  -1.9173458214540312e-01 1.1508284617726597e-01 0.0000000000000000e+00  -1.9595457086911153e-01 1.0773853455572577e-01 0.0000000000000000e+00  -1.9976620593715869e-01 1.0049318997956820e-01 0.0000000000000000e+00  -2.0320459321996703e-01 9.3343418764706448e-02 0.0000000000000000e+00  -2.0630019947188452e-01 8.6284720866511136e-02 0.0000000000000000e+00  -2.0907946768293037e-01 7.9311809451272267e-02 0.0000000000000000e+00  -2.1156533511469683e-01 7.2418847225883293e-02 0.0000000000000000e+00  -2.1377766891462141e-01 6.5599621112962164e-02 0.0000000000000000e+00  -2.1573363269357396e-01 5.8847668518967430e-02 0.0000000000000000e+00  -2.1744799350710800e-01 5.2156370080902577e-02 0.0000000000000000e+00  -2.1893337918008413e-01 4.5519014329169848e-02 0.0000000000000000e+00  -2.2020049218187876e-01 3.8928843990654105e-02 0.0000000000000000e+00  -2.2125828702013781e-01 3.2379085574190961e-02 0.0000000000000000e+00  -2.2211411526759389e-01 2.5862968297727554e-02 0.0000000000000000e+00  -2.2277384243262260e-01 1.9373734373907769e-02 0.0000000000000000e+00  -2.2324193970697931e-01 1.2904642678837673e-02 0.0000000000000000e+00  -2.2352155294989770e-01 6.4489685877680367e-03 0.0000000000000000e+00  -2.2361455078030162e-01 -1.6051726039842193e-10 0.0000000000000000e+00  -2.2352155294337769e-01 -6.4489688714950092e-03 0.0000000000000000e+00  -2.2324193968865272e-01 -1.2904643075022263e-02 0.0000000000000000e+00  -2.2277384238713271e-01 -1.9373734960791734e-02 0.0000000000000000e+00  -2.2211411516843946e-01 -2.5862969217752722e-02 0.0000000000000000e+00  -2.2125828685082607e-01 -3.2379086793649987e-02 0.0000000000000000e+00  -2.2020049191860525e-01 -3.8928845521963108e-02 0.0000000000000000e+00  -2.1893337880354199e-01 -4.5519016181661591e-02 0.0000000000000000e+00  -2.1744799299912707e-01 -5.2156372240031584e-02 0.0000000000000000e+00  -2.1573363200361054e-01 -5.8847671071574723e-02 0.0000000000000000e+00  -2.1377766810941792e-01 -6.5599623768651888e-02 0.0000000000000000e+00  -2.1156533423573412e-01 -7.2418849815791692e-02 0.0000000000000000e+00  -2.0907946684883827e-01 -7.9311811660911072e-02 0.0000000000000000e+00  -2.0630019866268212e-01 -8.6284722814987835e-02 0.0000000000000000e+00  -2.0320459252840159e-01 -9.3343420255932577e-02 0.0000000000000000e+00  -1.9976620546898230e-01 -1.0049319091306280e-01 0.0000000000000000e+00  -1.9595457074615968e-01 -1.0773853477067866e-01 0.0000000000000000e+00  -1.9173458249027256e-01 -1.1508284560262183e-01 0.0000000000000000e+00  -1.8706576589842860e-01 -1.2252797913856500e-01 0.0000000000000000e+00  -1.8190141225331788e-01 -1.3007367204866652e-01 0.0000000000000000e+00  -1.7618755650140272e-01 -1.3771675845052633e-01 0.0000000000000000e+00  -1.6986177502783451e-01 -1.4545011123866949e-01 0.0000000000000000e+00  -1.6285177523914862e-01 -1.5326121562807554e-01 0.0000000000000000e+00  -1.5507377318695456e-01 -1.6113022553294851e-01 0.0000000000000000e+00  -1.4643063746011004e-01 -1.6902733656636718e-01 0.0000000000000000e+00  -1.3680984413268105e-01 -1.7690920087654163e-01 0.0000000000000000e+00  -1.2608130562854941e-01 -1.8471405392405030e-01 0.0000000000000000e+00  -1.1409528047757869e-01 -1.9235506041395858e-01 0.0000000000000000e+00  -1.0068072464372502e-01 -1.9971126541407128e-01 0.0000000000000000e+00  -8.5644775559091169e-02 -2.0661534144943577e-01 0.0000000000000000e+00  -6.8774639041117150e-02 -2.1283715088007593e-01 0.0000000000000000e+00  -4.9843940039220824e-02 -2.1806212166516764e-01 0.0000000000000000e+00  -2.8627191776465021e-02 -2.2186364937138381e-01 0.0000000000000000e+00  -4.9279204036142598e-03 -2.2366990858556293e-01 0.0000000000000000e+00  2.1371086384446555e-02 -2.2272821564286488e-01 0.0000000000000000e+00  5.0224588076473647e-02 -2.1807622262172638e-01 0.0000000000000000e+00  8.1297868742077325e-02 -2.0854040540426141e-01 0.0000000000000000e+00  1.1379405641634316e-01 -1.9279944890423203e-01 0.0000000000000000e+00  1.4626231544062765e-01 -1.6956747404880010e-01 0.0000000000000000e+00  1.7647039120445615e-01 -1.3794871228375744e-01 0.0000000000000000e+00  2.0149607740707312e-01 -9.7949817018483779e-02 0.0000000000000000e+00  2.1820215037460314e-01 -5.0980150015921787e-02 0.0000000000000000e+00  2.2409162603859897e-01 3.9267323352093978e-13 0.0000000000000000e+00  2.1820215037407228e-01 5.0980150016913466e-02 0.0000000000000000e+00  2.0149607740527098e-01 9.7949817018655724e-02 0.0000000000000000e+00  1.7647039120463073e-01 1.3794871228501232e-01 0.0000000000000000e+00  1.4626231543973942e-01 1.6956747404846526e-01 0.0000000000000000e+00  1.1379405640890206e-01 1.9279944889619416e-01 0.0000000000000000e+00  8.1297868738022958e-02 2.0854040539759944e-01 0.0000000000000000e+00  5.0224588072542521e-02 2.1807622261299714e-01 0.0000000000000000e+00  2.1371086381664878e-02 2.2272821563394968e-01 0.0000000000000000e+00  -4.9279204053556897e-03 2.2366990857575042e-01 0.0000000000000000e+00  -2.8627191777471708e-02 2.2186364936186012e-01 0.0000000000000000e+00  -4.9843940038751547e-02 2.1806212165276709e-01 0.0000000000000000e+00  -6.8774639041676994e-02 2.1283715087594471e-01 0.0000000000000000e+00  -8.5644775555906577e-02 2.0661534143552307e-01 0.0000000000000000e+00  -1.0068072464109173e-01 1.9971126540358711e-01 0.0000000000000000e+00  -1.1409528047367203e-01 1.9235506040208064e-01 0.0000000000000000e+00  -1.2608130562430217e-01 1.8471405391259829e-01 0.0000000000000000e+00  -1.3680984412780028e-01 1.7690920086492623e-01 0.0000000000000000e+00  -1.4643063745488924e-01 1.6902733655490473e-01 0.0000000000000000e+00  -1.5507377318072393e-01 1.6113022552103520e-01 0.0000000000000000e+00  -1.6285177523425579e-01 1.5326121561814637e-01 0.0000000000000000e+00  -1.6986177502616145e-01 1.4545011123185653e-01 0.0000000000000000e+00  -1.7618755649767540e-01 1.3771675844182216e-01 0.0000000000000000e+00  -1.8190141224951342e-01 1.3007367204005110e-01 0.0000000000000000e+00  -1.8706576589395646e-01 1.2252797912949831e-01 0.0000000000000000e+00  -1.9173458248514003e-01 1.1508284559322234e-01 0.0000000000000000e+00  -1.9595457074118858e-01 1.0773853476137105e-01 0.0000000000000000e+00  -1.9976620546137394e-01 1.0049319090241128e-01 0.0000000000000000e+00  -2.0320459252820677e-01 9.3343420249197742e-02 0.0000000000000000e+00  -2.0630019867006810e-01 8.6284722811489509e-02 0.0000000000000000e+00  -2.0907946685126072e-01 7.9311811654719885e-02 0.0000000000000000e+00  -2.1156533423831811e-01 7.2418849809557262e-02 0.0000000000000000e+00  -2.1377766811042884e-01 6.5599623761720516e-02 0.0000000000000000e+00  -2.1573363200381276e-01 5.8847671064441956e-02 0.0000000000000000e+00  -2.1744799299845519e-01 5.2156372232788142e-02 0.0000000000000000e+00  -2.1893337880234884e-01 4.5519016174642143e-02 0.0000000000000000e+00  -2.2020049191658134e-01 3.8928845514909972e-02 0.0000000000000000e+00  -2.2125828684843965e-01 3.2379086787326074e-02 0.0000000000000000e+00  -2.2211411516647525e-01 2.5862969212083847e-02 0.0000000000000000e+00  -2.2277384238549794e-01 1.9373734955927209e-02 0.0000000000000000e+00  -2.2324193968748829e-01 1.2904643071034991e-02 0.0000000000000000e+00  -2.2352155294270612e-01 6.4489688684488261e-03 0.0000000000000000e+00  -2.2361455078011225e-01 1.5840998217371201e-10 0.0000000000000000e+00  -2.2352155295016227e-01 -6.4489685887963912e-03 0.0000000000000000e+00  -2.2324193970745290e-01 -1.2904642679315865e-02 0.0000000000000000e+00  -2.2277384243309700e-01 -1.9373734373009811e-02 0.0000000000000000e+00  -2.2211411526798636e-01 -2.5862968296035353e-02 0.0000000000000000e+00  -2.2125828702012709e-01 -3.2379085571583692e-02 0.0000000000000000e+00  -2.2020049218130658e-01 -3.8928843987189196e-02 0.0000000000000000e+00  -2.1893337917895234e-01 -4.5519014324915043e-02 0.0000000000000000e+00  -2.1744799350499641e-01 -5.2156370075784893e-02 0.0000000000000000e+00  -2.1573363269152235e-01 -5.8847668513381947e-02 0.0000000000000000e+00  -2.1377766890946018e-01 -6.5599621105873071e-02 0.0000000000000000e+00  -2.1156533511122064e-01 -7.2418847219050286e-02 0.0000000000000000e+00  -2.0907946767889854e-01 -7.9311809443987163e-02 0.0000000000000000e+00  -2.0630019946784750e-01 -8.6284720859027164e-02 0.0000000000000000e+00  -2.0320459321594248e-01 -9.3343418757057942e-02 0.0000000000000000e+00  -1.9976620593327518e-01 -1.0049318997183912e-01 0.0000000000000000e+00  -1.9595457086550755e-01 -1.0773853454799311e-01 0.0000000000000000e+00  -1.9173458214202080e-01 -1.1508284616952591e-01 0.0000000000000000e+00  -1.8706576521848692e-01 -1.2252798016510111e-01 0.0000000000000000e+00  -1.8190141129879286e-01 -1.3007367338223938e-01 0.0000000000000000e+00  -1.7618755561231669e-01 -1.3771675960780491e-01 0.0000000000000000e+00  -1.6986177366567937e-01 -1.4545011279412112e-01 0.0000000000000000e+00  -1.6285177515651947e-01 -1.5326121574463250e-01 0.0000000000000000e+00  -1.5507377573570630e-01 -1.6113022311938255e-01 0.0000000000000000e+00  -1.4643064533318340e-01 -1.6902732973611947e-01 0.0000000000000000e+00  -1.3680985776142451e-01 -1.7690919035324348e-01 0.0000000000000000e+00  -1.2608132719594567e-01 -1.8471403912245646e-01 0.0000000000000000e+00  -1.1409531244931399e-01 -1.9235504141969301e-01 0.0000000000000000e+00  -1.0068076952786968e-01 -1.9971124260729439e-01 0.0000000000000000e+00  -8.5644838586585975e-02 -2.0661531536275807e-01 0.0000000000000000e+00  -6.8774713703119161e-02 -2.1283712666219870e-01 0.0000000000000000e+00  -4.9844021788275079e-02 -2.1806210275819810e-01 0.0000000000000000e+00  -2.8627269116341204e-02 -2.2186363939637707e-01 0.0000000000000000e+00  -4.9279941944787038e-03 -2.2366990691348793e-01 0.0000000000000000e+00  2.1371020346260705e-02 -2.2272822193159614e-01 0.0000000000000000e+00  5.0224533612234050e-02 -2.1807623503516793e-01 0.0000000000000000e+00  8.1297829868144780e-02 -2.0854042080931681e-01 0.0000000000000000e+00  1.1379403820630724e-01 -1.9279945933920142e-01 0.0000000000000000e+00  1.4626231007600052e-01 -1.6956747894661142e-01 0.0000000000000000e+00  1.7647039281375049e-01 -1.3794871099219208e-01 0.0000000000000000e+00  2.0149607705843309e-01 -9.7949817331401151e-02 0.0000000000000000e+00  2.1820215055614203e-01 -5.0980149911677215e-02 0.0000000000000000e+00  -2.1054380039978796e-01 -7.6031510181981857e-02 0.0000000000000000e+00  -5.0647660889015463e-02 -2.1821256050311102e-01 0.0000000000000000e+00  5.1651014071274308e-03 2.2392720620867249e-01 0.0000000000000000e+00  -2.1668683208188017e-01 5.5991007884652028e-02 0.0000000000000000e+00  -3.8582653924357391e-02 2.2070112678678031e-01 0.0000000000000000e+00  1.6509188532158592e-01 1.5146811646397443e-01 0.0000000000000000e+00  1.9514079762193822e-02 -2.2316876070812133e-01 0.0000000000000000e+00  2.2431918884752231e-01 3.2460992342851179e-03 0.0000000000000000e+00  1.6186616772001208e-01 -1.5489868886790178e-01 0.0000000000000000e+00  8.3057007145110107e-02 2.0800228291428452e-01 0.0000000000000000e+00  2.2363093941953874e-01 1.4635655040590037e-02 0.0000000000000000e+00  1.8176012974867828e-01 1.3113903021057763e-01 0.0000000000000000e+00  9.8686145072021517e-02 -2.0108829046099502e-01 0.0000000000000000e+00  -1.7516714374142434e-01 -1.3937058429296048e-01 0.0000000000000000e+00  -1.0806228503162639e-01 -1.9844281503186231e-01 0.0000000000000000e+00  -1.7925412975699870e-01 1.3410747210776627e-01 0.0000000000000000e+00  1.4063786232691344e-01 1.7510797806357642e-01 0.0000000000000000e+00  2.2424224866989720e-01 -7.9721614349607360e-03 0.0000000000000000e+00  -1.0334005770434801e-01 1.9863564256432914e-01 0.0000000000000000e+00  -9.0665581965623701e-02 -2.0475412313331370e-01 0.0000000000000000e+00  9.1490143167445151e-02 -2.0518996273687265e-01 0.0000000000000000e+00  7.1515255387543511e-02 -2.1230243517691139e-01 0.0000000000000000e+00  7.8477239946956379e-02 2.0984611703380715e-01 0.0000000000000000e+00  1.1730550241688133e-01 -1.9110543740321459e-01 0.0000000000000000e+00  -2.2571999992772129e-01 9.6026166653925792e-03 0.0000000000000000e+00  1.7777708169741716e-01 -1.3627829344201692e-01 0.0000000000000000e+00  -1.1608086269499548e-04 2.2494766733960070e-01 0.0000000000000000e+00  2.2389898903349525e-01 -4.2168137698208015e-03 0.0000000000000000e+00  2.2405113111102654e-01 -1.0979061664052492e-03 0.0000000000000000e+00  1.7054653357663794e-02 -2.2344092289257414e-01 0.0000000000000000e+00  1.7558230527501203e-01 -1.3934807023715398e-01 0.0000000000000000e+00  1.2700041247978705e-01 -1.8487273332436771e-01 0.0000000000000000e+00  2.0012019360737757e-01 -1.0126920194089087e-01 0.0000000000000000e+00  2.9949842341097089e-02 -2.2214804759888848e-01 0.0000000000000000e+00  1.7939681848523567e-01 -1.3409325652946077e-01 0.0000000000000000e+00  2.2399101819376022e-01 -5.6638287269739117e-03 0.0000000000000000e+00  1.9285158804966318e-01 -1.1405198742177065e-01 0.0000000000000000e+00  1.8864770395143540e-01 -1.2107389158619651e-01 0.0000000000000000e+00  2.2383412310813453e-01 8.3630783334795802e-03 0.0000000000000000e+00  1.7997063850777836e-01 1.3341834790876014e-01 0.0000000000000000e+00  1.8173777354142545e-01 1.3120734745813004e-01 0.0000000000000000e+00  1.2699565234013421e-01 1.8496547384239334e-01 0.0000000000000000e+00  2.0506921015243482e-01 9.1029375649790814e-02 0.0000000000000000e+00  2.0624306254007294e-01 -8.8365615018309612e-02 0.0000000000000000e+00  1.3001391268696180e-01 -1.8288384694819479e-01 0.0000000000000000e+00  -1.7253927175152053e-01 1.4301618166963359e-01 0.0000000000000000e+00  -4.9058793478471724e-02 2.1867928202982340e-01 0.0000000000000000e+00  -1.6958523927836580e-01 1.4613209746821046e-01 0.0000000000000000e+00  1.3970964201582262e-01 1.7572021806015503e-01 0.0000000000000000e+00  3.7007839352545084e-02 2.2096691809529043e-01 0.0000000000000000e+00  1.3005663203893734e-02 2.2374707305055408e-01 0.0000000000000000e+00  2.0585937811459253e-02 -2.2320987735176817e-01 0.0000000000000000e+00  -6.3345930597149214e-02 -2.1492970364669206e-01 0.0000000000000000e+00  5.8257286917283227e-02 -2.1715040243819481e-01 0.0000000000000000e+00  -1.4497717050961209e-01 -1.7101629633965906e-01 0.0000000000000000e+00  6.3279634788682357e-02 -2.1492491125196794e-01 0.0000000000000000e+00  1.6772772017727219e-01 -1.4867822731232827e-01 0.0000000000000000e+00  1.0230268403813686e-01 -1.9937032154855441e-01 0.0000000000000000e+00  1.8589138135568773e-02 -2.2326710812773257e-01 0.0000000000000000e+00  2.1275818500606003e-02 2.2304150653349994e-01 0.0000000000000000e+00  1.0405211998941816e-01 1.9847343177439014e-01 0.0000000000000000e+00  -1.2656774965696013e-01 1.8469812663588589e-01 0.0000000000000000e+00  -8.3660063867662865e-02 2.0771619531803856e-01 0.0000000000000000e+00  -7.8258902516172221e-02 -2.0985183322114404e-01 0.0000000000000000e+00  -1.2028333652639701e-01 -1.8889226966589437e-01 0.0000000000000000e+00  -1.2467031065306874e-01 -1.8600444018207077e-01 0.0000000000000000e+00  -1.6306157177825609e-01 -1.5333959085396504e-01 0.0000000000000000e+00  -1.5908561619402856e-01 1.5749738005108616e-01 0.0000000000000000e+00  -1.2029516084492067e-01 1.8889528584686907e-01 0.0000000000000000e+00  -2.2367337946929175e-01 8.2192639315937133e-04 0.0000000000000000e+00  -2.1388275904280224e-01 6.5564668643747590e-02 0.0000000000000000e+00  -2.1155764344064062e-01 -7.2790521014112916e-02 0.0000000000000000e+00  -2.2357867270255494e-01 -6.7243945994890017e-03 0.0000000000000000e+00  -1.1152714760797422e-01 -1.9414911145386154e-01 0.0000000000000000e+00  2.1231070958605378e-01 7.2626568999891145e-02 0.0000000000000000e+00  1.4060855437901210e-01 1.7477310149555825e-01 0.0000000000000000e+00  4.7603199721931055e-02 2.1913723323896575e-01 0.0000000000000000e+00  9.9562381868396888e-02 2.0072348207682800e-01 0.0000000000000000e+00  2.1327093761867749e-01 6.8658129539822962e-02 0.0000000000000000e+00  1.5164153403034442e-01 1.6499679310568582e-01 0.0000000000000000e+00  -4.3972183208233415e-03 2.2533276006267636e-01 0.0000000000000000e+00  -1.5348425641428226e-01 2.0319745983389179e-01 0.0000000000000000e+00  2.2438374742338896e-01 -2.9994862528549361e-02 0.0000000000000000e+00  -5.2770910611959938e-02 2.1761639331476942e-01 0.0000000000000000e+00  -4.4415451957250954e-02 -2.1951899763984456e-01 0.0000000000000000e+00  4.8293383519929796e-02 2.1872740002356661e-01 0.0000000000000000e+00  1.8251081460542207e-01 1.3015738265077284e-01 0.0000000000000000e+00  2.7209194120207510e-02 2.2245757996106380e-01 0.0000000000000000e+00  1.8445081035717228e-01 1.2706416843331717e-01 0.0000000000000000e+00  -6.4626580409782863e-02 2.1466711516950324e-01 0.0000000000000000e+00  -1.0442872462012971e-01 1.9809936115076238e-01 0.0000000000000000e+00  -2.2360232323168430e-01 -1.6303348857348930e-02 0.0000000000000000e+00  -2.1776092021346538e-01 -5.1762005784347066e-02 0.0000000000000000e+00  -1.0977598734987016e-02 -2.2383188790342365e-01 0.0000000000000000e+00  -1.2337533990943084e-01 -1.8723203668360297e-01 0.0000000000000000e+00  -1.5430695904417049e-01 -1.6226579674228725e-01 0.0000000000000000e+00  2.2172365512722852e-01 -3.5669466383321254e-02 0.0000000000000000e+00  -2.0106757747056647e-01 1.0094398362751288e-01 0.0000000000000000e+00  -1.9266957811057445e-01 -1.1379567553953206e-01 0.0000000000000000e+00  -2.1607197640873693e-01 -5.7908234023944405e-02 0.0000000000000000e+00  -2.1690173196103313e-01 5.4716663979684062e-02 0.0000000000000000e+00  -1.9200625252760156e-01 1.1493089167708578e-01 0.0000000000000000e+00  -1.5618274510406657e-01 -2.2035264095251517e-01 0.0000000000000000e+00  -1.8739824236685801e-01 1.2310689376259033e-01 0.0000000000000000e+00  -2.2122076006132105e-01 3.4063983281918155e-02 0.0000000000000000e+00  -1.9070334945210529e-01 1.1708493836579563e-01 0.0000000000000000e+00  -1.5666351800312925e-01 1.5990333338961568e-01 0.0000000000000000e+00  -4.1026895563792770e-02 2.2014743763423275e-01 0.0000000000000000e+00  -1.5406430899295903e-01 -1.6244611509002602e-01 0.0000000000000000e+00  -1.8700041543795515e-01 -1.2296267545109592e-01 0.0000000000000000e+00  -2.9080600197281363e-02 -2.2205710970164710e-01 0.0000000000000000e+00  2.1592818994964477e-01 -5.971424863