<?xml version="1.0"?>
<VTKFile type="UnstructuredGrid"  version="0.1"  >
<UnstructuredGrid>
<Piece  NumberOfPoints="2549" NumberOfCells="4928">
<Points>
<DataArray  type="Float64"  NumberOfComponents="3"  format="ascii">1.654968721301295 -0.0414305026356734 0  1.649881996161928 0.004441165887254635 0  1.637510216677464 0.04486869557789747 0  1.629145009036753 0.08869703654181618 0  1.617609735008415 0.1320319912993031 0  1.605356132066668 0.1773520907764659 0  1.588833669700942 0.2221750184757429 0  1.574678119369718 0.2701454835916547 0  1.545708328502425 0.3141095528690343 0  1.515375722039668 0.337875235695295 0  1.496732066850011 0.3948027669871815 0  1.46580600442086 0.4344290585709065 0  1.435991593983637 0.4782884536727182 0  1.403034609741061 0.5188761693167746 0  1.368879204892598 0.5581403136599157 0  1.334947275655398 0.5998509779172927 0  1.291591501398051 0.6347098089569359 0  1.254989708250082 0.6542173320090857 0  1.219553304804916 0.7028436481938516 0  1.17919794216902 0.7373218456431533 0  1.138697313792127 0.7753871262296759 0  1.096540704059597 0.811053022907836 0  1.053649833721384 0.8465077148862732 0  1.010202397777145 0.8827606603612527 0  0.9626124316196549 0.9180387073002779 0  0.9160871631457553 0.9437624509646797 0  0.8695965282894607 0.9755428932134856 0  0.8215887270553762 1.006142496095015 0  0.7724952150730255 1.035901254921929 0  0.7222935372335589 1.064534459267102 0  0.6710557691421623 1.091733748991892 0  0.6189511410990317 1.11800168185022 0  0.564910066812916 1.141565794011128 0  0.5114416157695341 1.161902283506422 0  0.4566305400013499 1.182918609515399 0  0.401091109257407 1.200885119152173 0  0.3448784154221791 1.216953722085721 0  0.2881376216129668 1.230736019578831 0  0.2309168574751261 1.242191582969275 0  0.1734171383693104 1.251773474044997 0  0.1150901473698032 1.25801378231793 0  0.05746246549014003 1.262006611417128 0  -0.0007563610025277604 1.264790549067546 0  -0.05898774184910028 1.264734099984353 0  -0.1172803153600678 1.262452362416507 0  -0.1755199355822942 1.257562624209756 0  -0.2335619181249877 1.250325736776114 0  -0.2913906734666981 1.239841903720291 0  -0.3483087148622907 1.228525836498457 0  -0.4059947858480411 1.213975607961907 0  -0.4622703570100836 1.195641461518549 0  -0.517825960264503 1.17519699051717 0  -0.5724253633887376 1.152342072403805 0  -0.6259708418230671 1.127089595132003 0  -0.6783494423074354 1.100538265444928 0  -0.7293707694709261 1.069886357821093 0  -0.7783044782144363 1.044974291838955 0  -0.8296346995152193 1.01413051640859 0  -0.8769921480698312 0.9799535364173415 0  -0.9235203955706398 0.9461467372151893 0  -0.9689634121526622 0.9118125743313398 0  -1.013005709707776 0.8754344777808036 0  -1.056249133456664 0.8418169537686129 0  -1.096834176169735 0.7967448047715572 0  -1.134207552073474 0.7710439347285259 0  -1.178541840245821 0.7411668587976394 0  -1.216881525192669 0.7047063099114059 0  -1.255318169163725 0.6712042387707572 0  -1.292677645214955 0.6365155178782776 0  -1.330566259026944 0.606389961263082 0  -1.36547945812689 0.5685310060705314 0  -1.40937998056103 0.5610194032753927 0  -1.458365254008974 0.5186753261886601 0  -1.471629487657176 0.4477402283918387 0  -1.506217436694652 0.4081770677042547 0  -1.53017470314853 0.3592497613626812 0  -1.557182141456172 0.3134238455039881 0  -1.57051844682945 0.2573422072622031 0  -1.593614005020362 0.2165791881077571 0  -1.577981844160112 0.1422442719237222 0  -1.603726173678386 0.1307898662179017 0  -1.625746938239356 0.080918406629998 0  -1.59357644920735 0.03334134746259249 0  -1.602163837273943 -0.006576213450548728 0  -1.59293485984525 -0.04451441688164095 0  -1.604656859145513 -0.08245468085520084 0  -1.597079834231911 -0.1229010253609168 0  -1.633627287087065 -0.1712671920178331 0  -1.611509382351591 -0.2221482082064088 0  -1.585979484475455 -0.2318978021018017 0  -1.605639555119003 -0.3108832964543383 0  -1.582306332122401 -0.3521668328531842 0  -1.56993781449516 -0.4103587581013717 0  -1.542632567781647 -0.4571632897475153 0  -1.518305843525312 -0.5069484782133079 0  -1.481910110572376 -0.5456681645538815 0  -1.469257719027018 -0.615665335867704 0  -1.422410891357435 -0.6641390000478766 0  -1.377161808611563 -0.6691885622860356 0  -1.34268441452715 -0.7084012448496353 0  -1.304736256715811 -0.7385290319129352 0  -1.267744034634373 -0.7739694292234405 0  -1.229580207610538 -0.8081269550952671 0  -1.191655085343041 -0.8455409730454215 0  -1.147705285325042 -0.8755658232520229 0  -1.111479748999527 -0.9022578728693594 0  -1.071517015220202 -0.9519171012034923 0  -1.028533440222872 -0.9872457314771366 0  -0.984849655068697 -1.02634264595909 0  -0.9397675297762736 -1.063228316165402 0  -0.8935167918020746 -1.099768912527173 0  -0.8460948140770397 -1.136316449397145 0  -0.7959925475963481 -1.168547444195192 0  -0.7481134356092414 -1.200037837821456 0  -0.69585333785 -1.238300775035997 0  -0.6422891237090527 -1.268027226475882 0  -0.5874113623630943 -1.297175899430788 0  -0.5313703102838775 -1.322962047072604 0  -0.4742262072114949 -1.346020328404425 0  -0.4163469238023846 -1.366993070125025 0  -0.3561983785938408 -1.382704842880673 0  -0.2979983082859942 -1.394061106428458 0  -0.2384878138845726 -1.406061793958866 0  -0.1786239722077701 -1.414143511775849 0  -0.1184285896392466 -1.419616596555985 0  -0.05807061771354357 -1.421994343469281 0  0.002311240670603197 -1.42146877384787 0  0.06266338886773566 -1.417803226793961 0  0.1228136367650088 -1.410823279606315 0  0.1821847764318726 -1.401170436707957 0  0.2411614852333623 -1.389347237210253 0  0.2996209344846276 -1.375013261640925 0  0.3574587718399833 -1.358351340887714 0  0.4145818985644499 -1.339218512487642 0  0.4708143138441115 -1.318434153543262 0  0.5261532992860742 -1.293854144439352 0  0.5794922833930982 -1.272897409817299 0  0.6349859447724491 -1.246968224082663 0  0.6873054722117777 -1.217353576936681 0  0.7387818052342565 -1.187479462437087 0  0.7891380347044715 -1.156251765725005 0  0.8382970822952371 -1.124060442172692 0  0.8863017698962741 -1.091121297048951 0  0.932731950470744 -1.05735671637437 0  0.979289719247322 -1.029672295304463 0  1.02670619896313 -0.9922123852493083 0  1.070062213995105 -0.9541530997923691 0  1.112775913868949 -0.9168796963078999 0  1.154763689518013 -0.8795322090306825 0  1.195015563880605 -0.8396944932367948 0  1.235182360064408 -0.8038568089578416 0  1.270162612227472 -0.7528748224111588 0  1.306257220890899 -0.732626983962373 0  1.349485569457414 -0.6968764915743333 0  1.383058793782296 -0.6539185488243218 0  1.416894679475788 -0.6135630978124452 0  1.449485239390975 -0.571836219258944 0  1.478853781989861 -0.5267805263173649 0  1.509446125609567 -0.4862244186514148 0  1.527224860674571 -0.4275763617603835 0  1.55728514249567 -0.4035914790352085 0  1.585576873929421 -0.3584106350083923 0  1.598623770345739 -0.3092358629903213 0  1.614090610662321 -0.2633436488151327 0  1.625119658388044 -0.2169984805494989 0  1.634783451128176 -0.1724891070898303 0  1.642083645790792 -0.1282510378768627 0  1.650740919859949 -0.08643013050957954 0  -0.103557375867331 0.7488004072853137 0  0.6127144780407794 -0.704271836628876 0  -0.7703940855752542 -0.6224191653314184 0  -0.08108096355649318 -0.8736370970987706 0  0.6073855242727035 0.584399721786595 0  1.179000902546041 0.1907883717487655 0  -0.7813367675665008 0.4967387532460963 0  -1.268788461660155 -0.05305153555430438 0  1.185471755708007 -0.2895405036343351 0  -1.07506146969551 -0.4562648110168055 0  -0.8261094241889394 -0.06994729031487464 0  -0.4929870995173276 -0.2397579727951144 0  -1.083400644179429 0.3306348607673376 0  0.2829667524363039 -0.8477326134537044 0  0.1362964903097733 -0.2974769383571637 0  0.2463645851142552 0.7121411717392439 0  0.3435206949632667 0.1791738317015433 0  0.6689854842191136 -0.0539300869226628 0  -0.4236577696836326 -0.7725174717810011 0  -0.4588767805450898 0.6619556841785754 0  -0.2856979399326212 0.2321191402641349 0  0.9308271251642787 -0.4875757816790594 0  0.924498323469342 0.3816245910601741 0  0.4131710064684349 -0.3254927488329425 0  0.02691702639887533 0.2270851980583044 0  -0.5577836367098115 0.1751953291647659 0  -0.1810656410305722 -0.2914221039083025 0  0.9610180912308822 -0.05153116518292861 0  1.374671775591139 -0.04640841495251858 0  0.7721585379640795 -0.5930770704488416 0  0.7913926619922289 -0.2789556070880061 0  0.6323006054426265 -0.376000474100711 0  0.5398844051906744 -0.1861099049276552 0  0.507371241292761 -0.5194873123958839 0  0.9393147304299605 -0.2681604304269964 0  0.8145169727230387 -0.05270133115133116 0  -0.9461094960883927 0.13795246007402 0  -1.17376765664757 0.1384833875600847 0  -1.052538957356107 -0.06059900274824595 0  -0.9416897492400548 -0.2704869991135176 0  -1.17126141355093 -0.2538321908492915 0  -1.354488279644373 -0.3520455126476842 0  -1.42897172407683 -0.1637702330497586 0  -1.42467214088724 0.06401101506605358 0  -1.345477677919145 0.2494051162744781 0  -0.1316526287441283 -0.5820244324096168 0  -0.2962234989266712 -0.5369224665690278 0  -0.2536213764242202 -0.8288646874092408 0  -0.3362873882659962 -0.2668914674183946 0  -0.4547967204470845 -0.5031669307060711 0  -1.27240407101605 -0.5411426354665106 0  -1.269760610865991 0.4306571772988085 0  0.346917725230015 -0.5840063028641274 0  0.2738597708173829 -0.3130251203046701 0  0.2043658037052952 -0.5753603349225762 0  -0.9313998441360125 0.4085309660779993 0  -0.7955472039518586 0.2114562843420779 0  1.374395886240288 -0.3623925297350268 0  1.242603743074287 -0.5232408757221221 0  1.231626866771749 0.4247527253835759 0  1.365011749923794 0.2682594353878069 0  -0.770784997951048 -0.8993090876376371 0  -0.9528758434549401 -0.7666292045667318 0  -0.9518846157890626 0.6508027457249671 0  -0.7702565939936221 0.7727858322788562 0  0.7858131890081712 -0.8817774966284549 0  0.589985601930349 -0.9893926323550437 0  0.5810300453178624 0.864655529296418 0  0.7754514429977515 0.7658968743000253 0  0.009903551034100341 
[...]
<PointData  Vectors="f_45"> 
<DataArray  type="Float64"  Name="f_45"  NumberOfComponents="3" format="ascii">2.2635078094965019e-01 -7.2011818624674638e-04 0.0000000000000000e+00  1.9805680963609676e-01 1.0283353746324653e-01 0.0000000000000000e+00  1.9481738284934250e-01 1.0645609693316441e-01 0.0000000000000000e+00  2.0393834500034635e-01 9.0696084736287000e-02 0.0000000000000000e+00  1.9503504444471592e-01 1.1153186287587892e-01 0.0000000000000000e+00  1.7792584370562911e-01 1.3383028105940942e-01 0.0000000000000000e+00  1.8251951810088465e-01 1.2728651617844550e-01 0.0000000000000000e+00  1.6714065301593295e-01 1.5449643121050793e-01 0.0000000000000000e+00  -2.5421098851248238e-02 2.3894026043171221e-01 0.0000000000000000e+00  9.3030703245253990e-02 1.5164668448983251e-01 0.0000000000000000e+00  1.4822069429954277e-01 1.6371460128734050e-01 0.0000000000000000e+00  4.6939092412908036e-02 2.2527325101596099e-01 0.0000000000000000e+00  7.7917475111333456e-02 2.0778504247829729e-01 0.0000000000000000e+00  2.6541618728501241e-02 2.2364404946291527e-01 0.0000000000000000e+00  4.6573809450363934e-02 2.1853226499199765e-01 0.0000000000000000e+00  1.7453848230978054e-02 2.2324628241304087e-01 0.0000000000000000e+00  -1.2575792333408403e-01 2.0071064521476795e-01 0.0000000000000000e+00  -1.7798632748045240e-03 1.9636236560656919e-01 0.0000000000000000e+00  4.0327592234644022e-02 2.2065284713286118e-01 0.0000000000000000e+00  -4.1890970156689800e-02 2.2232815725626609e-01 0.0000000000000000e+00  -1.6274176292017089e-02 2.2228513390613150e-01 0.0000000000000000e+00  -4.5470009742338606e-02 2.1963315632723285e-01 0.0000000000000000e+00  -3.9146023752812537e-02 2.1957595748218259e-01 0.0000000000000000e+00  -4.4240392066805467e-02 2.2088005994935245e-01 0.0000000000000000e+00  -9.9384369145490051e-02 1.9878591802956713e-01 0.0000000000000000e+00  -1.0447207010438003e-01 1.9661393294593096e-01 0.0000000000000000e+00  -8.0272392730108305e-02 2.0926355143118455e-01 0.0000000000000000e+00  -1.0144100725154652e-01 1.9937147958128085e-01 0.0000000000000000e+00  -1.0750485763927957e-01 1.9607789079912291e-01 0.0000000000000000e+00  -1.2039463961905504e-01 1.8841557431404249e-01 0.0000000000000000e+00  -1.2830820616006400e-01 1.8326155893646173e-01 0.0000000000000000e+00  -1.4118322330442981e-01 1.7346801386469088e-01 0.0000000000000000e+00  -1.6249939294860194e-01 1.5362901491629660e-01 0.0000000000000000e+00  -1.6627027246525680e-01 1.4969474792381030e-01 0.0000000000000000e+00  -1.7237889358280284e-01 1.4206400006388731e-01 0.0000000000000000e+00  -1.8672285969955205e-01 1.2351670485096405e-01 0.0000000000000000e+00  -1.9392883762650762e-01 1.1129953855269335e-01 0.0000000000000000e+00  -2.0310208548086578e-01 9.3565801912023266e-02 0.0000000000000000e+00  -2.0885384113417318e-01 8.0415644698444463e-02 0.0000000000000000e+00  -2.1517065261528273e-01 6.0554496257323912e-02 0.0000000000000000e+00  -2.2069969833617548e-01 3.6715043567464349e-02 0.0000000000000000e+00  -2.2206363518681563e-01 2.7137237482415571e-02 0.0000000000000000e+00  -2.2321948700767599e-01 1.1244996342910211e-02 0.0000000000000000e+00  -2.2363644407334893e-01 -9.3955738007545399e-03 0.0000000000000000e+00  -2.2182120221811560e-01 -2.7409911465552956e-02 0.0000000000000000e+00  -2.1927316107230244e-01 -4.5276016142818745e-02 0.0000000000000000e+00  -2.1279702886090701e-01 -6.8065175411147247e-02 0.0000000000000000e+00  -2.0792401084032006e-01 -8.2750495602467583e-02 0.0000000000000000e+00  -2.0343504580482313e-01 -9.3038883237364978e-02 0.0000000000000000e+00  -1.8858885073754855e-01 -1.2015021328985551e-01 0.0000000000000000e+00  -1.7491319164320332e-01 -1.3959814209506952e-01 0.0000000000000000e+00  -1.6464030277355693e-01 -1.5144895366220862e-01 0.0000000000000000e+00  -1.4811478974420017e-01 -1.6731066599708624e-01 0.0000000000000000e+00  -1.4039983999531544e-01 -1.7478472610582180e-01 0.0000000000000000e+00  -1.1353082794761155e-01 -1.9222443711669523e-01 0.0000000000000000e+00  -1.1664987904178932e-01 -1.8987889490326240e-01 0.0000000000000000e+00  -1.2687741134929326e-01 -1.8465548015960004e-01 0.0000000000000000e+00  -8.3397850281198713e-02 -2.0764065487107769e-01 0.0000000000000000e+00  -6.6336264426539546e-02 -2.1355381366837226e-01 0.0000000000000000e+00  -6.9802367705138590e-02 -2.1282652497988561e-01 0.0000000000000000e+00  -4.4993194032289845e-02 -2.1842892659422505e-01 0.0000000000000000e+00  -6.0133447556382204e-02 -2.1751601800007925e-01 0.0000000000000000e+00  -4.9584029985200997e-03 -2.2058078141873694e-01 0.0000000000000000e+00  -6.1295082231384032e-03 -2.1824315554835044e-01 0.0000000000000000e+00  -1.1105786239268398e-01 -2.0338945980510789e-01 0.0000000000000000e+00  -3.9720202448343261e-02 -2.1615038866712682e-01 0.0000000000000000e+00  -1.6196377080146023e-02 -2.2360244563150750e-01 0.0000000000000000e+00  -1.9327982921771104e-02 -2.2420066688615853e-01 0.0000000000000000e+00  -4.7759561620861216e-02 -2.1311053221462387e-01 0.0000000000000000e+00  1.3004947052722480e-02 -2.4689056435739079e-01 0.0000000000000000e+00  -9.3428900175388435e-02 -1.2472348650004614e-01 0.0000000000000000e+00  -1.8208083413443410e-01 -1.7280139141244141e-01 0.0000000000000000e+00  1.4669384438846500e-01 -1.4805862073512721e-01 0.0000000000000000e+00  1.4515949454370736e-01 -1.2110772945938414e-01 0.0000000000000000e+00  5.8125287910356475e-02 -2.1952473883589324e-01 0.0000000000000000e+00  1.2939116739050538e-01 -1.9178866654452673e-01 0.0000000000000000e+00  1.6290825765766739e-01 -1.2830018817900374e-01 0.0000000000000000e+00  1.5300571984271241e-01 -1.7314082331608557e-01 0.0000000000000000e+00  1.9884749902346796e-01 -1.6762760291163539e-02 0.0000000000000000e+00  8.9306892447332753e-02 7.6270489211315406e-02 0.0000000000000000e+00  9.9332605613735702e-03 -2.8848747962720384e-01 0.0000000000000000e+00  1.4349889855753734e-01 8.2473988648260096e-02 0.0000000000000000e+00  1.0999289490201110e-01 1.0428941429401473e-01 0.0000000000000000e+00  2.3167656330369107e-01 -1.8154807514685452e-02 0.0000000000000000e+00  1.7238264313122378e-01 -1.5120383444429831e-02 0.0000000000000000e+00  2.2824186729570317e-01 2.4086429304968552e-03 0.0000000000000000e+00  9.6518105018696163e-02 -1.1720960637413842e-01 0.0000000000000000e+00  1.2866325340555160e-01 -8.8593572542850704e-02 0.0000000000000000e+00  1.3794204980070250e-02 2.8425960452866111e-01 0.0000000000000000e+00  8.4119651068959481e-02 -9.9865645845375120e-02 0.0000000000000000e+00  1.9529927720617740e-01 7.0170353067308218e-03 0.0000000000000000e+00  1.5765174485187128e-01 1.6823875319195572e-01 0.0000000000000000e+00  1.6632243567515326e-01 1.2065508220676587e-01 0.0000000000000000e+00  1.3203221407872201e-01 1.9254707327068840e-01 0.0000000000000000e+00  5.0138926098241401e-02 2.2059774914714253e-01 0.0000000000000000e+00  1.2879725106988574e-01 1.1934695640449808e-01 0.0000000000000000e+00  1.7185993865585408e-01 1.5321050395945593e-01 0.0000000000000000e+00  -1.5637315475271338e-01 1.6254137011386921e-01 0.0000000000000000e+00  -9.9082925974814370e-02 1.0727273650081984e-01 0.0000000000000000e+00  2.2622093270486948e-02 2.5089177394049067e-01 0.0000000000000000e+00  -4.6820750561449131e-02 2.1217455196954871e-01 0.0000000000000000e+00  -1.1792022684518179e-02 2.2514693420780241e-01 0.0000000000000000e+00  -8.8259523649991973e-03 2.2416028198066945e-01 0.0000000000000000e+00  -3.4375657473996117e-02 2.1594714077165617e-01 0.0000000000000000e+00  -1.0661892283597718e-01 2.0773034115507960e-01 0.0000000000000000e+00  1.8894732943023431e-02 2.1755865683570677e-01 0.0000000000000000e+00  1.3989156978868539e-02 2.1866978740468657e-01 0.0000000000000000e+00  -4.7208130629759142e-02 2.2123994516879933e-01 0.0000000000000000e+00  -2.6652548229442741e-02 2.2136091850220618e-01 0.0000000000000000e+00  -5.2954677439865448e-02 2.1758580540290745e-01 0.0000000000000000e+00  -4.9574700690236846e-02 2.1843753587407203e-01 0.0000000000000000e+00  -7.4799562188453669e-02 2.0999858816848491e-01 0.0000000000000000e+00  -1.0008211276176009e-01 2.0076259713661401e-01 0.0000000000000000e+00  -6.8811900684245239e-02 2.1331829174873576e-01 0.0000000000000000e+00  -8.9753770744744638e-02 2.0273146765713262e-01 0.0000000000000000e+00  -1.2706804791197554e-01 1.8568087870606204e-01 0.0000000000000000e+00  -1.3232247059672467e-01 1.7967132638914626e-01 0.0000000000000000e+00  -1.5552254356392523e-01 1.6098910781086320e-01 0.0000000000000000e+00  -1.6494046976150506e-01 1.5140934130123104e-01 0.0000000000000000e+00  -1.8278181189902046e-01 1.2866356850112073e-01 0.0000000000000000e+00  -2.0431279281359563e-01 9.1529750323737974e-02 0.0000000000000000e+00  -2.0639826084800506e-01 8.6266571944624032e-02 0.0000000000000000e+00  -2.0999628566715262e-01 7.5844108868919222e-02 0.0000000000000000e+00  -2.1877670414071895e-01 4.8327349504844255e-02 0.0000000000000000e+00  -2.2152365059108423e-01 2.9709484312542198e-02 0.0000000000000000e+00  -2.2368917813563505e-01 6.5985621791932129e-03 0.0000000000000000e+00  -2.2317987396499489e-01 -1.5006436390841236e-02 0.0000000000000000e+00  -2.2019866325191187e-01 -3.9451469658906155e-02 0.0000000000000000e+00  -2.1490575670542103e-01 -6.2011019241678608e-02 0.0000000000000000e+00  -2.0946163642639518e-01 -7.8569157934808329e-02 0.0000000000000000e+00  -2.0250098943803910e-01 -9.4795281368209305e-02 0.0000000000000000e+00  -1.9424993388144710e-01 -1.1113434671017829e-01 0.0000000000000000e+00  -1.8324353483871630e-01 -1.2785727613967915e-01 0.0000000000000000e+00  -1.7626996227643615e-01 -1.3836926381232492e-01 0.0000000000000000e+00  -1.5672765198950037e-01 -1.5899225471074352e-01 0.0000000000000000e+00  -1.5592989721868286e-01 -1.5987211644141425e-01 0.0000000000000000e+00  -1.5964096195115354e-01 -1.5695444383978205e-01 0.0000000000000000e+00  -1.2627514901770656e-01 -1.8459276853728884e-01 0.0000000000000000e+00  -1.1127460719105080e-01 -1.9414005565283948e-01 0.0000000000000000e+00  -1.0665981048453900e-01 -1.9645930431012654e-01 0.0000000000000000e+00  -9.3097201762923895e-02 -2.0335823276547416e-01 0.0000000000000000e+00  -8.7338801031339314e-02 -2.0588477752283751e-01 0.0000000000000000e+00  -6.7068745699950208e-02 -2.1388704718766677e-01 0.0000000000000000e+00  -9.2752433563053058e-02 -2.0252655306028403e-01 0.0000000000000000e+00  -8.6273614368578999e-02 -2.0470787219136921e-01 0.0000000000000000e+00  -3.2054950640968874e-02 -2.2296924838745688e-01 0.0000000000000000e+00  -2.7901265462781405e-02 -2.2128285559898267e-01 0.0000000000000000e+00  -3.4071248096841117e-02 -2.2170110504111126e-01 0.0000000000000000e+00  -4.8033307715371976e-03 -2.2280113957419440e-01 0.0000000000000000e+00  -3.1590430662627400e-02 -2.2413327801131167e-01 0.0000000000000000e+00  5.1234351722616089e-02 -2.1791732468928091e-01 0.0000000000000000e+00  1.0884804498129039e-02 -1.9572443950550983e-01 0.0000000000000000e+00  -1.1990857089845314e-01 -2.0570233923893660e-01 0.0000000000000000e+00  2.4829495151877039e-02 -2.2192389308901436e-01 0.0000000000000000e+00  5.5165417771360602e-02 -2.1671694874087985e-01 0.0000000000000000e+00  3.4534725160879826e-02 -2.2253704769142865e-01 0.0000000000000000e+00  8.6208488444990239e-02 -2.0452672565938027e-01 0.0000000000000000e+00  5.4565389141700636e-02 -2.2365143818662550e-01 0.0000000000000000e+00  1.5499064961024120e-01 -1.5739617703156508e-01 0.0000000000000000e+00  9.8487540028115439e-02 -1.4602808115990445e-01 0.0000000000000000e+00  -1.7727966419906562e-02 -2.3935901684407604e-01 0.0000000000000000e+00  1.7546623254360247e-01 -1.4592801032601746e-01 0.0000000000000000e+00  1.8945114038829367e-01 -1.1642000448044418e-01 0.0000000000000000e+00  1.8471724962339167e-01 -1.2465258827119120e-01 0.0000000000000000e+00  2.0415191710251851e-01 -9.3849422945675942e-02 0.0000000000000000e+00  2.0828008165957132e-01 -7.9828812297513957e-02 0.0000000000000000e+00  2.0824068201317891e-01 -8.0936265387474435e-02 0.0000000000000000e+00  2.1022409958264632e-01 -7.6969091319392377e-02 0.0000000000000000e+00  -2.1601961633606939e-01 -5.8282272672233515e-02 0.0000000000000000e+00  -9.3534591466677415e-04 -2.2394969941853982e-01 0.0000000000000000e+00  6.3921631774461682e-02 2.1454830586415291e-01 0.0000000000000000e+00  -2.1860412882905403e-01 4.7986836309195410e-02 0.0000000000000000e+00  -6.1712686121011412e-02 2.1512936402713620e-01 0.0000000000000000e+00  1.7363407955797733e-01 1.4126313312558789e-01 0.0000000000000000e+00  2.5399932148505465e-02 -2.2236357065186188e-01 0.0000000000000000e+00  2.2347380475390524e-01 -1.3523246833236472e-02 0.0000000000000000e+00  1.9674077137211310e-01 -1.0685506045933325e-01 0.0000000000000000e+00  1.4243336350047994e-01 1.7271102582186673e-01 0.0000000000000000e+00  2.2251296557056721e-01 -2.6327052821119207e-02 0.0000000000000000e+00  2.0816989425644294e-01 8.3785682459352431e-02 0.0000000000000000e+00  1.2476488285144989e-01 -1.8583529470291885e-01 0.0000000000000000e+00  -1.6221780132040506e-01 -1.5422419173194618e-01 0.0000000000000000e+00  6.5337431346911501e-02 -2.2047438444428719e-01 0.0000000000000000e+00  -1.9541608046052000e-01 1.0895898282281220e-01 0.0000000000000000e+00  6.6828210320970978e-03 2.2432055516645319e-01 0.0000000000000000e+00  2.1619043971641977e-01 6.0590787878931178e-02 0.0000000000000000e+00  -8.9721677892651938e-02 2.0510657099229399e-01 0.0000000000000000e+00  -1.1460266427309479e-01 -1.9219186727062387e-01 0.0000000000000000e+00  -2.9257641339053873e-02 -2.2250277798354887e-01 0.0000000000000000e+00  1.3362449936571619e-01 -1.7965923441222084e-01 0.0000000000000000e+00  8.3947635554925154e-02 2.0747663521300497e-01 0.0000000000000000e+00  1.6525548544135626e-01 -1.5209741371300980e-01 0.0000000000000000e+00  -2.2436369962114422e-01 1.5911140367154820e-04 0.0000000000000000e+00  1.2215977225041222e-01 -1.8775903361351842e-01 0.0000000000000000e+00  1.2376414960602550e-01 1.9050578570051341e-01 0.0000000000000000e+00  2.2107174949276526e-01 3.5283188515962821e-02 0.0000000000000000e+00  2.2331394324677775e-01 1.5445128170327003e-02 0.0000000000000000e+00  7.8923771434143836e-02 -2.0962112508996425e-01 0.0000000000000000e+00  2.0451201652707182e-01 -9.1765791881360623e-02 0.0000000000000000e+00  1.6626090637177379e-01 -1.5073434505798008e-01 0.0000000000000000e+00  2.2226805153780974e-01 -3.2209943776960910e-02 0.0000000000000000e+00  6.6967917493462550e-02 -2.1407514267043895e-01 0.0000000000000000e+00  2.0655866793123320e-01 -8.6427409314539641e-02 0.0000000000000000e+00  2.1921009906130778e-01 4.6251865890502022e-02 0.0000000000000000e+00  1.8550698574866614e-01 -1.2539809797553444e-01 0.0000000000000000e+00  1.9625693507725175e-01 -1.0778743267437729e-01 0.0000000000000000e+00  2.2310013470878126e-01 -1.8427361469615215e-02 0.0000000000000000e+00  2.0436864207579925e-01 9.1569418204712955e-02 0.0000000000000000e+00  2.0734970940932765e-01 8.4648611349481290e-02 0.0000000000000000e+00  1.8554425342612438e-01 1.2577709034024712e-01 0.0000000000000000e+00  2.2296364690078385e-01 1.5938551270919019e-02 0.0000000000000000e+00  2.2052897546982006e-01 -3.6475262363308676e-02 0.0000000000000000e+00  1.7609554589113557e-01 -1.3851425700510434e-01 0.0000000000000000e+00  -1.7454339019676693e-01 1.4079777777480090e-01 0.0000000000000000e+00  -4.1035626619187415e-02 2.2057441436961031e-01 0.0000000000000000e+00  -1.7037240033917703e-01 1.4518934492041857e-01 0.0000000000000000e+00  1.8773193356861270e-01 1.2442452125166871e-01 0.0000000000000000e+00  5.6806845957740014e-02 2.1687874418965863e-01 0.0000000000000000e+00  8.6426642018859301e-02 2.0684394437113016e-01 0.0000000000000000e+00  7.9774927523167019e-02 -2.0939855786777292e-01 0.0000000000000000e+00  -4.1430845078469732e-02 -2.2035229255917119e-01 0.0000000000000000e+00  1.3903671313143107e-01 -1.7802189514154973e-01 0.0000000000000000e+00  -1.2883448009049980e-01 -1.8372485969819002e-01 0.0000000000000000e+00  8.1670374174241681e-02 -2.0839491205616162e-01 0.0000000000000000e+00  1.4714010450094872e-01 -1.6890602101388913e-01 0.0000000000000000e+00  1.6451994415499535e-01 -1.5176340900154245e-01 0.0000000000000000e+00  1.0794752213453275e-01 -1.9613234699325421e-01 0.0000000000000000e+00  8.4210030730573315e-02 2.0735712434907921e-01 0.0000000000000000e+00  1.4765420414924457e-01 1.6814075474309728e-01 0.0000000000000000e+00  -3.4324650675007132e-02 2.2106072667091334e-01 0.0000000000000000e+00  2.1579660044777196e-02 2.2264583541992308e-01 0.0000000000000000e+00  -4.7194981917102292e-03 -2.2362542851010997e-01 0.0000000000000000e+00  -6.0053616096954546e-02 -2.1548104177985725e-01 0.0000000000000000e+00  -3.6050794804838610e-02 -2.2083091173618496e-01 0.0000000000000000e+00  -1.0028565516177994e-01 -1.9998627986952167e-01 0.0000000000000000e+00  -1.2816587570071350e-01 1.8333150970407611e-01 0.0000000000000000e+00  -6.9643040315893662e-02 2.1258089399596117e-01 0.0000000000000000e+00  -2.2345926267670374e-01 -1.1188490236307245e-02 0.0000000000000000e+00  -2.0854791483636095e-01 8.1042585310160967e-02 0.0000000000000000e+00  -2.0874880057966322e-01 -8.0444722075973113e-02 0.0000000000000000e+00  -2.2369856334822419e-01 -1.4642211281061046e-03 0.0000000000000000e+00  -8.2215552829230445e-02 -2.0822655584138478e-01 0.0000000000000000e+00  1.5568745703917616e-01 1.6180873749252328e-01 0.0000000000000000e+00  7.9887595686382068e-02 2.0944716144678358e-01 0.0000000000000000e+00  -4.0874626038574870e-02 2.2027218525231704e-01 0.0000000000000000e+00  1.3155028731085447e-01 1.8145124735007223e-01 0.0000000000000000e+00  2.2340348537358340e-01 1.8044703245640174e-02 0.0000000000000000e+00  1.8300951333912416e-01 1.2927969423320076e-01 0.0000000000000000e+00  -1.3496805088558306e-01 1.7934100800152555e-01 0.0000000000000000e+00  -1.3936646499825650e-02 2.3148237692960830e-01 0.0000000000000000e+00  1.6737244844109961e-01 1.5276119495331342e-01 0.0000000000000000e+00  4.3995267890511149e-02 2.1940488589473567e-01 0.0000000000000000e+00  2.6632779906675924e-02 -2.2215563811975533e-01 0.0000000000000000e+00  1.1159522531216874e-01 1.9406560673226367e-01 0.0000000000000000e+00  1.5252240773791081e-01 1.6408917877155862e-01 0.0000000000000000e+00  1.7205960989943064e-02 2.2318673605936593e-01 0.0000000000000000e+00  1.7050580263100640e-01 1.4504342113995511e-01 0.0000000000000000e+00  -1.4505117676418972e-01 1.7055728979878551e-01 0.0000000000000000e+00  -1.3611768578072217e-01 1.7760058225611694e-01 0.0000000000000000e+00  -2.2195303754151047e-01 -3.2365331872912323e-02 0.0000000000000000e+00  -2.1476439499049604e-01 -6.3049336024033092e-02 0.0000000000000000e+00  -8.8794274436337292e-02 -2.0555281348320337e-01 0.0000000000000000e+00  -1.7445323065251125e-01 -1.4035012153356843e-01 0.0000000000000000e+00  -1.7673228849234207e-01 -1.3725184167654705e-01 0.0000000000000000e+00  2.0635346349863040e-01 8.9823573973383877e-02 0.0000000000000000e+00  -1.1719079796549815e-01 2.1713947353218141e-01 0.0000000000000000e+00  -1.5529239663788980e-01 -1.6103648196096387e-01 0.0000000000000000e+00  -2.0407780283402252e-01 -9.1683868978308561e-02 0.0000000000000000e+00  -2.1319434813088148e-01 6.7746791425829789e-02 0.0000000000000000e+00  -1.7740268747892168e-01 1.3626316774732763e-01 0.0000000000000000e+00  5.0628141877765181e-02 -2.2681541360600035e-01 0.0000000000000000e+00  -2.1033088246394027e-01 7.6594052891175185e-02 0.0000000000000000e+00  -2.2211447907762971e-01 2.6842135511933145e-02 0.0000000000000000e+00  -1.6479056454629168e-01 1.5134512037829706e-01 0.0000000000000000e+00  -9.5149115520546557e-02 2.0247529863129532e-01 0.0000000000000000e+00  -2.9345712214563033e-03 2.2384679021272127e-01 0.0000000000000000e+00  -1.1451812851121589e-01 -1.9215844414318772e-01 0.0000000000000000e+00  -1.7150174016188982e-01 -1.4364439973788198e-01 0.0000000000000000e+00  -4.2129033946567890e-02 -2.1977498355440095e-01 0.0000000000000000e+00  1.9539658123388712e-01 -1.0961291106965303e-01 0.0000000000000000e+