<?xml version="1.0"?>
<VTKFile type="UnstructuredGrid"  version="0.1"  >
<UnstructuredGrid>
<Piece  NumberOfPoints="2549" NumberOfCells="4928">
<Points>
<DataArray  type="Float64"  NumberOfComponents="3"  format="ascii">1.618180861049562 -0.04488917437682226 0  1.608827219315335 -0.002288375677399437 0  1.605569596462541 0.03964057120819764 0  1.596569152138533 0.08317394431209028 0  1.585842609338914 0.1254530045321451 0  1.575008747042549 0.1704600170795871 0  1.553807479432758 0.2138574812394246 0  1.559601340336262 0.2648856612800299 0  1.507810429962781 0.2977820589224346 0  1.486811624873354 0.3266589363163446 0  1.476927463402228 0.3961673688092541 0  1.439030231380107 0.423731805487179 0  1.416342084140446 0.4700925892001179 0  1.382743566572221 0.5091864991425492 0  1.338479545678451 0.5453398551270469 0  1.329327747970473 0.605957191832852 0  1.255564603680575 0.6076204729876304 0  1.230828540391695 0.633947784867354 0  1.198758434476278 0.7125532579574372 0  1.152608549288543 0.7158541452515738 0  1.13012169809242 0.7704249001764676 0  1.082546306494929 0.7890575740311498 0  1.046891600625337 0.8327963031961477 0  1.002965910867047 0.8675455679033579 0  0.954907193539568 0.9028730357823205 0  0.9365220468537159 0.9653437439100019 0  0.8733046446458459 0.985029530531083 0  0.8276827268015916 1.012128376694465 0  0.7829112870827045 1.055504944265671 0  0.7324345109352726 1.084369669962442 0  0.6816343050618114 1.116018559923152 0  0.6323251201545601 1.147176767102852 0  0.577870187055836 1.174878519272611 0  0.523749386699798 1.198576894425501 0  0.4705240100944324 1.224991546075381 0  0.4131233664124782 1.245610412144157 0  0.3570498401865643 1.265309585453495 0  0.2989718730787224 1.281150603631125 0  0.2405762775415059 1.295751519354842 0  0.1819333640898484 1.307342425637963 0  0.1216332361257558 1.315320846458068 0  0.06204447553679995 1.3207158567392 0  0.001805801909462217 1.323805291042392 0  -0.05841304466283737 1.323518098410345 0  -0.1186840959705651 1.320353704431433 0  -0.1786350023221403 1.313988934490457 0  -0.2384304796774762 1.304956707100961 0  -0.2975391434326843 1.292463694686743 0  -0.3556176035657099 1.277117758682836 0  -0.4142471061703002 1.259153000886551 0  -0.4705242992987889 1.23846592228818 0  -0.525342269083691 1.213159058828923 0  -0.5813157763079352 1.190936451959451 0  -0.633526161107102 1.162758627133135 0  -0.6863540060735825 1.129354443077097 0  -0.7341922647473155 1.09472060703307 0  -0.7846367159448775 1.068861031349396 0  -0.8361250803517477 1.030759821969499 0  -0.8728034056488656 0.9871503864175709 0  -0.9237307025518378 0.954476031811282 0  -0.9641246668640319 0.9158940730723544 0  -1.016018519991958 0.8990545688223948 0  -1.055169613631007 0.8585077220361361 0  -1.085604493152617 0.7816974913992573 0  -1.127210532556596 0.7578124579859624 0  -1.192740650617049 0.7472307239372875 0  -1.203465768240735 0.685343011938134 0  -1.242803534719077 0.6713809458651639 0  -1.280862823183254 0.6030101868901288 0  -1.314947181655919 0.5913593153169592 0  -1.366700681482008 0.537953377028652 0  -1.370113855748962 0.4886513770573905 0  -1.454292853528384 0.5074518536399837 0  -1.469043007990763 0.4334683670851009 0  -1.493317505394713 0.3953046007003668 0  -1.518144502954263 0.3483661574376058 0  -1.543341771346279 0.3061277769932277 0  -1.555547236085684 0.2546213115686051 0  -1.577129808667127 0.2181691559631062 0  -1.561063257771721 0.1417651735354183 0  -1.594969701525033 0.1383092211779228 0  -1.608553880421445 0.08725748531402187 0  -1.574476485200594 0.03570358291941787 0  -1.565643266150369 -0.0009734548322393551 0  -1.562193354001535 -0.04342211250396445 0  -1.575349430539132 -0.07437401908246373 0  -1.553184490668983 -0.1129350017454859 0  -1.570470558924746 -0.1562180896812994 0  -1.552537980522685 -0.2068332904080752 0  -1.530728863880977 -0.2157601721572148 0  -1.557489606193623 -0.283939673069609 0  -1.536813141549638 -0.3266962001263038 0  -1.528838627200968 -0.3836119442966335 0  -1.504073068916453 -0.4296193527970288 0  -1.480086365353046 -0.4783697960381292 0  -1.444308902619619 -0.5119329011414643 0  -1.44520444236819 -0.5840430420769962 0  -1.371909630587922 -0.6032527589906035 0  -1.342200984823841 -0.6252340911269046 0  -1.306027398027637 -0.676895899829373 0  -1.275662128801952 -0.6938907670514413 0  -1.24458791402601 -0.7493007421685602 0  -1.207059852823528 -0.7727271527601921 0  -1.190514097894622 -0.8269176863897824 0  -1.133362618372951 -0.8445716292863193 0  -1.096462179469289 -0.8745865224405897 0  -1.071437684232455 -0.9486018243719245 0  -1.028907998688605 -0.986250955810822 0  -0.9802815654873986 -1.013034261262593 0  -0.939260414169691 -1.054739149766651 0  -0.8961164171612737 -1.095279743232397 0  -0.8527585098124645 -1.137266477423925 0  -0.7995192888112695 -1.168532725360423 0  -0.7492941772809305 -1.199958510552942 0  -0.7092872817300141 -1.254029440180521 0  -0.6474788142395324 -1.280287291276601 0  -0.595248721147475 -1.306377625141339 0  -0.5387392356736922 -1.334155932976885 0  -0.4819456560966503 -1.359645919077486 0  -0.4265061492814087 -1.383964083408726 0  -0.3651178882048253 -1.402505339449206 0  -0.3064882245868614 -1.418126673729392 0  -0.2466313460055465 -1.432045103887751 0  -0.1855392731435776 -1.441171093030945 0  -0.1246716829676662 -1.44825271294841 0  -0.06322822579516379 -1.451502496028374 0  -0.001775774713161421 -1.451753793025885 0  0.05961853400089926 -1.448355797888665 0  0.1209159013735084 -1.441650374440032 0  0.1812822223856903 -1.43162896575234 0  0.2412862172682119 -1.419199125338074 0  0.3002584434613989 -1.40349263326451 0  0.3590779116762837 -1.386283063121666 0  0.4159460442962539 -1.365237882553755 0  0.4734259044013549 -1.343328359250215 0  0.5278854959336948 -1.315585153139436 0  0.5812565765099722 -1.292449806317456 0  0.6373317064325023 -1.263607350902521 0  0.685620367002818 -1.230043822044587 0  0.7379026676170548 -1.198989601314115 0  0.7874331620993629 -1.16643354455975 0  0.8334389889898123 -1.127497793107695 0  0.8793258432443219 -1.095588220953309 0  0.9336998481776272 -1.069361977430275 0  0.9651488566462009 -1.021015246260234 0  1.009533842059903 -0.9831641081076663 0  1.055658417744479 -0.9482995923499211 0  1.093514105246328 -0.9058689642909438 0  1.132862335825953 -0.8714260931120227 0  1.171471075684872 -0.8335841485065009 0  1.211639628564905 -0.8057069933409861 0  1.235233305648056 -0.7384165344200009 0  1.273790639622952 -0.7238435412086738 0  1.329679722625986 -0.695471017642226 0  1.344442418739378 -0.6433872195033312 0  1.386083497392351 -0.6073828558419818 0  1.418589371412949 -0.5665871959729045 0  1.446248170259557 -0.5212376754345304 0  1.480536154442454 -0.4865177253658649 0  1.494333831178723 -0.4230028770162558 0  1.52033523494148 -0.3975080545348247 0  1.556543405497703 -0.35601155664689 0  1.562132078849757 -0.3070347378853485 0  1.579130826274046 -0.2621389999272209 0  1.589453369166987 -0.2165674018146011 0  1.598749929036643 -0.1728868636811275 0  1.604642425047756 -0.1293711824306367 0  1.614984359574269 -0.08978607916484359 0  -0.101326970024717 0.7883866234241236 0  0.5968536921087594 -0.7118358795050589 0  -0.750980142639145 -0.6193630160915532 0  -0.08115214687394001 -0.8894961718788397 0  0.5940372915371436 0.6028833673820255 0  1.152761480802548 0.1890331544534138 0  -0.7665670913251456 0.5136087167212323 0  -1.235747451100335 -0.03873603466482517 0  1.156126810892236 -0.2872943051317412 0  -1.041276738860704 -0.4400293693346721 0  -0.8003103500609526 -0.05739810447956462 0  -0.4767287351289523 -0.2327539788465469 0  -1.062704312276286 0.3359650737446827 0  0.2762736172145168 -0.863489279828643 0  0.1317630603416101 -0.2961398024861443 0  0.2429649389323087 0.747158420785431 0  0.3329215995318494 0.1939152141185551 0  0.6491825594303589 -0.04914924093427747 0  -0.4163855340279677 -0.7806702130839167 0  -0.451047492777035 0.6923910249559894 0  -0.2772121293738958 0.2526182234294641 0  0.9056991861113005 -0.4861471512206085 0  0.9022063446484976 0.383311792602186 0  0.4001844326271825 -0.325537184859446 0  0.02605256073672152 0.2470399478590247 0  -0.5414806765719744 0.1923536220264079 0  -0.1752705833628247 -0.2882828541262722 0  0.9355337673713648 -0.04940932306732933 0  1.343096730919105 -0.04736263969249727 0  0.7510394031989854 -0.5953803774507176 0  0.7686777397185015 -0.2774451727341716 0  0.6134408056092207 -0.3765759120700568 0  0.5232263907694263 -0.1829409965239778 0  0.4924009426333217 -0.5241405126674229 0  0.9137298546600383 -0.2662365325673648 0  0.7916109034314854 -0.04929331754538479 0  -0.9216088054702306 0.1500840932762208 0  -1.148642362289048 0.1465673125543689 0  -1.022015205949015 -0.04711685974874141 0  -0.9110840230380751 -0.2579439049112629 0  -1.134072314554118 -0.2367382724906421 0  -1.312562982919653 -0.3301875660712892 0  -1.384038489367674 -0.1464002164198757 0  -1.402228908816074 0.0719680607423574 0  -1.326687204845393 0.2475180954518824 0  -0.1287453501850573 -0.5886676321178962 0  -0.2883505302293141 -0.5405948571739043 0  -0.2503402619451465 -0.8412877930518553 0  -0.3252901186384535 -0.2619068912170195 0  -0.4419038189236665 -0.5038794873682106 0  -1.235126471579101 -0.5130777065536075 0  -1.253114455741088 0.4214967294445428 0  0.3366792459803608 -0.5915580638053431 0  0.265023736673534 -0.3125795986078287 0  0.198001175929423 -0.5830710825285139 0  -0.9131371978349644 0.4194562866682021 0  -0.7746631364230444 0.2260773600357583 0  1.342986898285611 -0.3596245434231558 0  1.212971959923206 -0.5182638798002857 0  1.209205106087045 0.4191958359022299 0  1.338451134860843 0.2631726667663291 0  -0.7625917645204927 -0.9003334227338738 0  -0.9356991998084736 -0.7588808233339022 0  -0.9413459270279104 0.6604889104786086 0  -0.762421529951395 0.791770711336714 0  0.770445991635201 -0.8880821167178983 0  0.5811631604380294 -1.003695192715711 0  0.5783779252631943 0.8915057838741141 0  0.7654088300057438 0.779001918700588 0  0.00758554
[...]
<PointData  Vectors="f_45"> 
<DataArray  type="Float64"  Name="f_45"  NumberOfComponents="3" format="ascii">2.1391273422764989e-01 5.1743437202817592e-02 0.0000000000000000e+00  2.0960613379897861e-01 7.2366888744993654e-02 0.0000000000000000e+00  2.1865861521603525e-01 4.6566985893553237e-02 0.0000000000000000e+00  1.9349776390405229e-01 1.1432771407653933e-01 0.0000000000000000e+00  2.1305262168592246e-01 8.1757239201268581e-02 0.0000000000000000e+00  1.4304295645574522e-01 1.8128489040025758e-01 0.0000000000000000e+00  2.2034505102425897e-01 3.3295889995543580e-02 0.0000000000000000e+00  5.1835017907639343e-02 4.7546219483837700e-02 0.0000000000000000e+00  -1.1281644582588719e-01 2.7876231894759623e-01 0.0000000000000000e+00  2.4106276730880277e-01 8.4301710130972693e-02 0.0000000000000000e+00  7.9437093789344770e-02 1.1542865210066654e-01 0.0000000000000000e+00  4.9947699146302691e-04 2.1534310638464399e-01 0.0000000000000000e+00  1.4996580940223531e-01 1.8263612537858351e-01 0.0000000000000000e+00  -8.7781312877389800e-02 2.4695486390894683e-01 0.0000000000000000e+00  1.5565793505232636e-01 1.5136029011325511e-01 0.0000000000000000e+00  -3.6686546845339867e-03 -4.3335190568276104e-03 0.0000000000000000e+00  -2.5350710320188374e-01 8.4892898296079655e-02 0.0000000000000000e+00  2.2310703444705068e-01 2.2356742688616749e-01 0.0000000000000000e+00  -3.1074741718038219e-02 8.0632923231589174e-02 0.0000000000000000e+00  -1.7599169090736444e-02 8.9125288794366958e-02 0.0000000000000000e+00  4.2721581829514896e-02 1.6625090068097659e-01 0.0000000000000000e+00  -1.0626301397091589e-01 1.8194948302085992e-01 0.0000000000000000e+00  5.5642826896024684e-02 2.2562597163496845e-01 0.0000000000000000e+00  -1.3450706629862499e-01 2.2559265226362743e-01 0.0000000000000000e+00  1.2423020569580234e-01 1.6653860767132145e-01 0.0000000000000000e+00  2.7697035853206237e-02 1.0502589439199027e-01 0.0000000000000000e+00  -2.2969715369292876e-01 1.5780204240475357e-01 0.0000000000000000e+00  -1.1911468447817569e-02 2.2384200241730418e-01 0.0000000000000000e+00  -5.4770200931505211e-02 2.0883406514861236e-01 0.0000000000000000e+00  -1.2321954784873547e-01 1.9154409306439094e-01 0.0000000000000000e+00  -8.7134294367020540e-02 2.0567041017838023e-01 0.0000000000000000e+00  -1.1185990003633017e-01 1.9375453247364730e-01 0.0000000000000000e+00  -1.4944355239461701e-01 1.6679169256374993e-01 0.0000000000000000e+00  -1.3979468946411441e-01 1.7473669420829269e-01 0.0000000000000000e+00  -1.5187939471466441e-01 1.6159886263138873e-01 0.0000000000000000e+00  -1.7683916228818469e-01 1.3903184907811506e-01 0.0000000000000000e+00  -1.8199562612381617e-01 1.2834174161673742e-01 0.0000000000000000e+00  -1.9674833737343228e-01 1.0744825596049221e-01 0.0000000000000000e+00  -2.0081150228322034e-01 9.8183107988443680e-02 0.0000000000000000e+00  -2.1221820354434229e-01 7.0829093452441802e-02 0.0000000000000000e+00  -2.1851466568170985e-01 4.7904768215530504e-02 0.0000000000000000e+00  -2.2134758403802765e-01 3.2623507453393666e-02 0.0000000000000000e+00  -2.2331851090542473e-01 1.0650910115566237e-02 0.0000000000000000e+00  -2.2346785311832609e-01 -1.2973856434300936e-02 0.0000000000000000e+00  -2.2073104056856860e-01 -3.5419809550945439e-02 0.0000000000000000e+00  -2.1660959011531153e-01 -5.6427720377013595e-02 0.0000000000000000e+00  -2.0958305316853543e-01 -7.7878433259158705e-02 0.0000000000000000e+00  -1.9940457404735354e-01 -1.0162061092118099e-01 0.0000000000000000e+00  -1.8954227660843700e-01 -1.1838703692174156e-01 0.0000000000000000e+00  -1.8126175278121964e-01 -1.3214856813084896e-01 0.0000000000000000e+00  -1.5227281802133463e-01 -1.6314259115980997e-01 0.0000000000000000e+00  -1.5570310824456279e-01 -1.6047688743104294e-01 0.0000000000000000e+00  -1.4810017235434944e-01 -1.6570776004595222e-01 0.0000000000000000e+00  -1.0876748294858231e-01 -1.9709246750753329e-01 0.0000000000000000e+00  -7.2496278006662557e-02 -2.1266441046546519e-01 0.0000000000000000e+00  -1.0026991216267056e-01 -1.9461869745872543e-01 0.0000000000000000e+00  -1.2481793606307180e-01 -1.9227231782129833e-01 0.0000000000000000e+00  1.6621412278948391e-02 -2.2642233515204147e-01 0.0000000000000000e+00  -3.5770121986168864e-02 -2.0400518319841587e-01 0.0000000000000000e+00  -4.8067623655270231e-02 -2.2668675779609060e-01 0.0000000000000000e+00  -9.4612223430171769e-02 -1.6517627307588842e-01 0.0000000000000000e+00  -1.4232816477215710e-01 -1.7930515654674098e-01 0.0000000000000000e+00  1.4965501919967833e-01 -1.8605940726164441e-01 0.0000000000000000e+00  9.8384410714102186e-02 -1.6852033956091070e-01 0.0000000000000000e+00  -2.8989957546539347e-01 -1.3266408241892921e-01 0.0000000000000000e+00  4.6534446104750229e-02 -5.0929553324321357e-02 0.0000000000000000e+00  7.3743886772713457e-02 -9.9157027990178920e-02 0.0000000000000000e+00  -9.6193650661191513e-03 -1.8920960636493239e-01 0.0000000000000000e+00  6.5823162300485488e-02 -1.6258118918207010e-01 0.0000000000000000e+00  -1.5940348886613623e-01 -2.0666008891792281e-01 0.0000000000000000e+00  2.0548754495349372e-01 -1.7711719413334731e-01 0.0000000000000000e+00  -9.3406935718160888e-02 9.6875551497007856e-02 0.0000000000000000e+00  -5.0272998830426220e-02 2.9158904788667155e-02 0.0000000000000000e+00  2.4773459750876586e-01 -1.6670037625410333e-01 0.0000000000000000e+00  7.9680339603966213e-02 -1.9579666539922749e-01 0.0000000000000000e+00  1.1363705748696515e-01 -2.0487333835015878e-01 0.0000000000000000e+00  1.6760639856682741e-01 -1.2543406135897639e-01 0.0000000000000000e+00  1.4332944852491936e-01 -1.7517164752139106e-01 0.0000000000000000e+00  2.1737626936383581e-01 -1.9468007608757183e-02 0.0000000000000000e+00  4.0620286417795901e-02 1.0615395463713748e-01 0.0000000000000000e+00  -1.5775344628946083e-02 -1.7048305991178767e-01 0.0000000000000000e+00  1.8392911004569909e-01 7.1751280693593558e-02 0.0000000000000000e+00  9.1645652545212092e-02 2.1173921771069582e-01 0.0000000000000000e+00  2.4303398440856983e-01 8.1679103135706574e-02 0.0000000000000000e+00  1.9326999010759277e-01 -1.1677108828854697e-01 0.0000000000000000e+00  1.2006418513626008e-01 8.0019522560313985e-02 0.0000000000000000e+00  1.2179232985096551e-01 2.1678757833784007e-02 0.0000000000000000e+00  2.1785313518856664e-01 -7.0034845989824276e-02 0.0000000000000000e+00  2.3663165773075621e-02 2.6406151322715921e-01 0.0000000000000000e+00  5.7756447800896046e-02 -1.3926827493185870e-01 0.0000000000000000e+00  1.7754121391822747e-01 -2.1775859161040381e-02 0.0000000000000000e+00  1.8310197033507444e-01 1.4762542382634988e-01 0.0000000000000000e+00  1.7366244050043558e-01 9.7650402769821051e-02 0.0000000000000000e+00  1.4809158856746824e-01 1.9023143449575383e-01 0.0000000000000000e+00  1.6548490465828181e-02 2.2969853850616961e-01 0.0000000000000000e+00  1.7677261806802128e-01 7.9183689670116977e-02 0.0000000000000000e+00  3.6199649879745444e-02 1.6385196107763740e-02 0.0000000000000000e+00  -2.5587119830239496e-01 1.7384706946955406e-01 0.0000000000000000e+00  9.1993247990550614e-02 2.2193288173506356e-01 0.0000000000000000e+00  -2.7382438364466972e-02 2.0043133651955966e-01 0.0000000000000000e+00  5.2326418530006517e-02 1.8463559751619552e-01 0.0000000000000000e+00  1.0694994286887744e-02 2.0425214160843586e-01 0.0000000000000000e+00  8.0486765990278875e-02 1.6435084146351747e-01 0.0000000000000000e+00  3.1368787900524449e-02 1.0043131359589516e-01 0.0000000000000000e+00  -2.2530332080367893e-01 1.8645894405938970e-01 0.0000000000000000e+00  1.4458747792933427e-01 1.6435584193675273e-01 0.0000000000000000e+00  1.2196275950407481e-01 1.6456409664050101e-01 0.0000000000000000e+00  -1.2628152260702902e-01 2.1787838833619824e-01 0.0000000000000000e+00  -5.5598670528590910e-02 1.9827447263119136e-01 0.0000000000000000e+00  7.4017993497128261e-03 2.2914001420569130e-01 0.0000000000000000e+00  -5.2355589872471837e-03 2.2524875292385216e-01 0.0000000000000000e+00  -4.8968985291376547e-02 2.1005555045897092e-01 0.0000000000000000e+00  -1.4902937891899859e-01 1.9029654353175801e-01 0.0000000000000000e+00  2.5831680161910134e-02 2.1769309792633548e-01 0.0000000000000000e+00  -2.8108219609500006e-02 1.8637291151229540e-01 0.0000000000000000e+00  -1.8255728193519377e-01 1.6121455352921854e-01 0.0000000000000000e+00  -1.2115329570458548e-01 1.8404297036093922e-01 0.0000000000000000e+00  -1.4704590261048164e-01 1.6961121281125330e-01 0.0000000000000000e+00  -1.4619407853520003e-01 1.6995598003748238e-01 0.0000000000000000e+00  -1.6856794434862249e-01 1.4506314298299081e-01 0.0000000000000000e+00  -1.9415151846503842e-01 1.1280351019946434e-01 0.0000000000000000e+00  -1.9547997201047829e-01 1.0887809907763737e-01 0.0000000000000000e+00  -2.0785869997997528e-01 8.1383365789211640e-02 0.0000000000000000e+00  -2.1666757173955623e-01 5.7471818812195020e-02 0.0000000000000000e+00  -2.1991174906617289e-01 3.8776085682813918e-02 0.0000000000000000e+00  -2.2368018673421772e-01 1.2116706562364186e-02 0.0000000000000000e+00  -2.2324295258596275e-01 -1.0984734948496647e-02 0.0000000000000000e+00  -2.2086869744329990e-01 -3.6729419703646293e-02 0.0000000000000000e+00  -2.1495585428032191e-01 -6.1185093470405190e-02 0.0000000000000000e+00  -2.0913281044872414e-01 -8.0203041185153104e-02 0.0000000000000000e+00  -1.9896580808915856e-01 -1.0124758301718750e-01 0.0000000000000000e+00  -1.9261100881533874e-01 -1.1488655964728832e-01 0.0000000000000000e+00  -1.7757985850158375e-01 -1.3444299856170294e-01 0.0000000000000000e+00  -1.7149289864319262e-01 -1.4538658242259742e-01 0.0000000000000000e+00  -1.4644520345829856e-01 -1.6705898623404322e-01 0.0000000000000000e+00  -1.3796531629346931e-01 -1.7532519124993404e-01 0.0000000000000000e+00  -1.5325358853150661e-01 -1.6512883637226217e-01 0.0000000000000000e+00  -9.6656311265986269e-02 -2.0068676259635526e-01 0.0000000000000000e+00  -8.7198174555979391e-02 -2.0508822991980480e-01 0.0000000000000000e+00  -1.1049993838349725e-01 -1.9620330649711409e-01 0.0000000000000000e+00  -5.8118108888835743e-02 -2.1475436951933344e-01 0.0000000000000000e+00  -3.3335890928082111e-02 -2.2233605990279739e-01 0.0000000000000000e+00  -1.5186091623767531e-01 -1.8652752387799917e-01 0.0000000000000000e+00  -1.8014299156900206e-02 -1.8291951190594510e-01 0.0000000000000000e+00  6.7501135776904087e-02 -2.1873601739848028e-01 0.0000000000000000e+00  -8.7749283102485587e-02 -2.1786026768923508e-01 0.0000000000000000e+00  -5.4068316342610959e-03 -2.1767625696765633e-01 0.0000000000000000e+00  1.1671337935550306e-03 -2.2315964540894054e-01 0.0000000000000000e+00  -4.9259567555670902e-03 -2.2129787247216090e-01 0.0000000000000000e+00  -8.1093316800390766e-02 -2.2727933996336952e-01 0.0000000000000000e+00  9.7393985538473435e-02 -1.6815120509065601e-01 0.0000000000000000e+00  9.0269216680170086e-02 -1.2707358958414197e-01 0.0000000000000000e+00  -2.5808379445703811e-01 -1.8369360972147911e-01 0.0000000000000000e+00  6.9475892572864878e-02 -1.4076259619548942e-01 0.0000000000000000e+00  1.1164615119924221e-01 -1.5882853957400614e-01 0.0000000000000000e+00  -4.6510307448296984e-02 -2.4147154858713038e-01 0.0000000000000000e+00  1.2093046221767717e-01 -1.9416792212002268e-01 0.0000000000000000e+00  2.0485575881086831e-02 -2.3171647249906996e-01 0.0000000000000000e+00  1.2544664781335202e-01 -1.4073022869351104e-01 0.0000000000000000e+00  1.6202958362803707e-01 -1.1517113896596053e-01 0.0000000000000000e+00  -5.0152121784949766e-02 -2.7479309199975643e-01 0.0000000000000000e+00  1.4165101525268350e-01 -1.1897192309863666e-01 0.0000000000000000e+00  2.1133555317950595e-01 -8.2883438967206124e-02 0.0000000000000000e+00  1.7157869816589347e-01 -1.4132189575032930e-01 0.0000000000000000e+00  2.0887161170662305e-01 -8.7342790462730635e-02 0.0000000000000000e+00  2.1170119092195566e-01 -7.0295722449197545e-02 0.0000000000000000e+00  2.0333536120281517e-01 -8.3813041173096486e-02 0.0000000000000000e+00  2.0879071857992162e-01 -9.6609398165192290e-02 0.0000000000000000e+00  -2.1597527232617464e-01 -5.8517391495171621e-02 0.0000000000000000e+00  -1.9008527359435704e-02 -2.2304390846879801e-01 0.0000000000000000e+00  5.4873262524248470e-02 2.1696509271017020e-01 0.0000000000000000e+00  -2.2067548723594621e-01 3.7076478894534394e-02 0.0000000000000000e+00  -3.4797756906687335e-02 2.2109336094697216e-01 0.0000000000000000e+00  1.8447771508252653e-01 1.2677162200895786e-01 0.0000000000000000e+00  3.8987539471002690e-02 -2.2037633347920269e-01 0.0000000000000000e+00  2.2345494502257768e-01 -1.4486236128922853e-02 0.0000000000000000e+00  1.9483795590945863e-01 -1.1016990659221405e-01 0.0000000000000000e+00  1.5034780210960855e-01 1.6576057993005372e-01 0.0000000000000000e+00  2.2403178406983240e-01 -5.5042804605086948e-03 0.0000000000000000e+00  1.7127510945326752e-01 1.4497232592977310e-01 0.0000000000000000e+00  1.1647462890215719e-01 -1.9114636918008943e-01 0.0000000000000000e+00  -1.6957894955225711e-01 -1.4600203282424226e-01 0.0000000000000000e+00  -9.5779141940075446e-02 -2.0443069106531522e-01 0.0000000000000000e+00  -1.8852865920165879e-01 1.2052491968237002e-01 0.0000000000000000e+00  5.8404738759992393e-02 2.1703640191988435e-01 0.0000000000000000e+00  2.2400509455655723e-01 1.5799424161092784e-02 0.0000000000000000e+00  -1.1210644420266613e-01 1.9368384506843972e-01 0.0000000000000000e+00  -1.0479536778028199e-01 -1.9772299292461767e-01 0.0000000000000000e+00  6.4128031305671620e-03 -2.2468767978849166e-01 0.0000000000000000e+00  1.2667535717339382e-01 -1.8453314107049218e-01 0.0000000000000000e+00  1.0827096391834344e-01 1.9587701945780220e-01 0.0000000000000000e+00  1.0325969805304688e-01 -1.9924182827761866e-01 0.0000000000000000e+00  -2.2449528259183843e-01 8.0079302933081832e-03 0.0000000000000000e+00  1.4776117793758245e-01 -1.6846169913786699e-01 0.0000000000000000e+00  -4.4849431087188030e-02 2.2119413675635619e-01 0.0000000000000000e+00  2.2354390807976415e-01 1.1774925902092457e-02 0.0000000000000000e+00  2.2371352065251840e-01 6.7023278411881410e-03 0.0000000000000000e+00  6.4506888294387874e-02 -2.1439537192177949e-01 0.0000000000000000e+00  1.8991499764887093e-01 -1.1893314263184489e-01 0.0000000000000000e+00  1.3451103676047965e-01 -1.7948653747368742e-01 0.0000000000000000e+00  2.0445341351754559e-01 -9.2878818770443822e-02 0.0000000000000000e+00  2.4001616902571733e-02 -2.2283672726918172e-01 0.0000000000000000e+00  1.9833132095238881e-01 -1.0381952042057364e-01 0.0000000000000000e+00  2.2361698137477021e-01 1.3577391394033286e-02 0.0000000000000000e+00  1.8884839383740198e-01 -1.2035769175825251e-01 0.0000000000000000e+00  1.9037619435929740e-01 -1.1807981207119574e-01 0.0000000000000000e+00  2.2336674023570813e-01 -1.5062868390751608e-02 0.0000000000000000e+00  2.0003960273622323e-01 1.0061710115192035e-01 0.0000000000000000e+00  2.0851501181122092e-01 8.1585248613188791e-02 0.0000000000000000e+00  1.9101549404105223e-01 1.1708956777340643e-01 0.0000000000000000e+00  2.2116881673766275e-01 3.0630245454605513e-02 0.0000000000000000e+00  2.2170133284190202e-01 -3.0278471570909744e-02 0.0000000000000000e+00  1.5134939182168242e-01 -1.6599183349177743e-01 0.0000000000000000e+00  -2.0178755488768427e-01 9.7102196088684395e-02 0.0000000000000000e+00  -1.0665012352012246e-01 1.9702392565177648e-01 0.0000000000000000e+00  -1.8349613678690915e-01 1.2807731048841542e-01 0.0000000000000000e+00  1.0566551489770877e-01 1.9873983266118136e-01 0.0000000000000000e+00  -1.9405256483222236e-03 2.2402231164779654e-01 0.0000000000000000e+00  1.1469714987011105e-01 1.9237027734519085e-01 0.0000000000000000e+00  1.7104131778749438e-02 -2.2393536011342907e-01 0.0000000000000000e+00  -8.2107132304711186e-02 -2.0838686368139048e-01 0.0000000000000000e+00  3.7019736419525780e-02 -2.2207788334840234e-01 0.0000000000000000e+00  -1.5629167770277635e-01 -1.6049513299957766e-01 0.0000000000000000e+00  8.8314717479457489e-02 -2.0563423492994959e-01 0.0000000000000000e+00  1.5836143441226849e-01 -1.5848184529218159e-01 0.0000000000000000e+00  1.6912108791383232e-01 -1.4648479803281303e-01 0.0000000000000000e+00  1.2117962629239898e-01 -1.8797063353473648e-01 0.0000000000000000e+00  9.5958738901873258e-02 2.0205742165673049e-01 0.0000000000000000e+00  1.6020572733256011e-01 1.5607944794737980e-01 0.0000000000000000e+00  -2.2406408863314808e-02 2.2256531859941414e-01 0.0000000000000000e+00  4.8635184358260392e-02 2.1824425553206728e-01 0.0000000000000000e+00  1.8265676847994704e-02 -2.2287195171576207e-01 0.0000000000000000e+00  -4.4490892791039696e-02 -2.1918807975531604e-01 0.0000000000000000e+00  -2.7171515635033876e-02 -2.2200891857765478e-01 0.0000000000000000e+00  -9.6903173647919991e-02 -2.0162158493195007e-01 0.0000000000000000e+00  -1.0234572134355148e-01 1.9893390190776564e-01 0.0000000000000000e+00  -3.0841347111364457e-02 2.2141299780852527e-01 0.0000000000000000e+00  -2.2345696088698266e-01 -1.1272903028922010e-02 0.0000000000000000e+00  -2.0801347756275831e-01 8.2405079360647809e-02 0.0000000000000000e+00  -2.0634727990112636e-01 -8.6461404038630493e-02 0.0000000000000000e+00  -2.2372444879887937e-01 1.0575371307406688e-03 0.0000000000000000e+00  -9.8534917292181015e-02 -2.0093219028749648e-01 0.0000000000000000e+00  1.9105842769384665e-01 1.1831228868484336e-01 0.0000000000000000e+00  1.1209366719912589e-01 1.9422056118818748e-01 0.0000000000000000e+00  -1.0809688969927178e-02 2.2386862234794466e-01 0.0000000000000000e+00  9.5912256740481108e-02 2.0247895666418997e-01 0.0000000000000000e+00  2.1612095392336519e-01 5.9547610956533624e-02 0.0000000000000000e+00  1.6820701531117796e-01 1.4796199822377876e-01 0.0000000000000000e+00  -9.9975234857915055e-02 2.0146933876666548e-01 0.0000000000000000e+00  -4.9632861405566539e-03 2.5852622098455114e-01 0.0000000000000000e+00  2.2628175462393701e-01 2.9390956077525350e-02 0.0000000000000000e+00  8.1249328600457277e-02 2.0815290723235338e-01 0.0000000000000000e+00  4.0298371723005412e-02 -2.1971157048109355e-01 0.0000000000000000e+00  1.1283202594962052e-01 1.9325555330941085e-01 0.0000000000000000e+00  1.7466946595051411e-01 1.4032560397835420e-01 0.0000000000000000e+00  4.6557085612931405e-02 2.1894986160302018e-01 0.0000000000000000e+00  1.8635487051835822e-01 1.2402799021165083e-01 0.0000000000000000e+00  -1.2797035159124495e-01 1.8380416329056565e-01 0.0000000000000000e+00  -1.1875574636699382e-01 1.8967485018895427e-01 0.0000000000000000e+00  -2.2068992172902788e-01 -3.8164474182543741e-02 0.0000000000000000e+00  -2.1499605381589609e-01 -6.2079912371196838e-02 0.0000000000000000e+00  -7.4783475966345450e-02 -2.1112333945381428e-01 0.0000000000000000e+00  -1.6956960836588775e-01 -1.4630735779318510e-01 0.0000000000000000e+00  -1.7278099323476992e-01 -1.4222079265074761e-01 0.0000000000000000e+00  2.2533426330768225e-01 -1.3334752169210959e-03 0.0000000000000000e+00  -2.2152652601190154e-01 4.0341933434088949e-02 0.0000000000000000e+00  -1.5364400125936950e-01 -1.6259600120324574e-01 0.0000000000000000e+00  -2.0377344379795512e-01 -9.2361868806230624e-02 0.0000000000000000e+00  -2.0962063699320796e-01 7.8175157742649840e-02 0.0000000000000000e+00  -1.6421579149938395e-01 1.5192506752962889e-01 0.0000000000000000e+00  1.7405757051869958e-01 -1.9624361984574856e-01 0.0000000000000000e+00  -2.0613321996111197e-01 8.7377321791029458e-02 0.0000000000000000e+00  -2.2127923020048759e-01 3.3159806714368009e-02 0.0000000000000000e+00  -1.6253292257846597e-01 1.5376079867645956e-01 0.0000000000000000e+00  -8.8103417617518942e-02 2.0552909601041194e-01 0.0000000000000000e+00  -2.3878238397603693e-02 2.2251519717531246e-01 0.0000000000000000e+00  -9.9409184988672683e-02 -2.0038616592232486e-01 0.0000000000000000e+00  -1.6338218351926992e-01 -1.5282612336262111e-01 0.0000000000000000e+00  -2.8302674448079771e-02 -2.2198508545370649e-01 0.0000000000000000e+00  2.0820437982817872e-01 -8.2901508129408233e-02 0.0000000000000000e+00  8.351192708