<?xml version="1.0"?>
<VTKFile type="UnstructuredGrid"  version="0.1"  >
<UnstructuredGrid>
<Piece  NumberOfPoints="2549" NumberOfCells="4928">
<Points>
<DataArray  type="Float64"  NumberOfComponents="3"  format="ascii">1.613670329309574 -0.04265327732849997 0  1.604385695946832 -9.027462765174958e-05 0  1.601072468022644 0.04186882279438164 0  1.591935516342072 0.08536295198178835 0  1.581232136251904 0.1277287703947328 0  1.57009185825572 0.1727112374622341 0  1.548255451501562 0.2162207371523205 0  1.554754092844622 0.2674930902498974 0  1.502629602593571 0.3004510864990432 0  1.480481744876723 0.3284918970695539 0  1.470234892978115 0.3978992049747739 0  1.433123359673238 0.425590635498162 0  1.41151655915014 0.4721141338035946 0  1.376487341238476 0.5100660293278471 0  1.331933823163639 0.5472971313341563 0  1.322548207629301 0.608862364922007 0  1.249615651341257 0.6113986524569057 0  1.221807368088603 0.6348254254876392 0  1.191175265977839 0.7144709327278366 0  1.14380708957182 0.7154232286822741 0  1.123393930140343 0.7733571495718106 0  1.074037745644244 0.7867476068212744 0  1.04123270338718 0.8319303776597813 0  0.9955350814461206 0.8651038074981479 0  0.9475491944391592 0.9015273133320445 0  0.9284931002100988 0.9635678804759649 0  0.867822509195831 0.9887078026342967 0  0.8196283597455201 1.009839491647459 0  0.7773756866404444 1.055582178643206 0  0.7266144318745067 1.084752854871323 0  0.6757144431517002 1.115688778704713 0  0.6268415076508687 1.147552434539493 0  0.572206734945368 1.175074039837078 0  0.5180512583594311 1.198821700671483 0  0.4650960038556395 1.225721945036824 0  0.4074138608273432 1.246145821461338 0  0.3514344687828471 1.265862536120631 0  0.2932315533894367 1.281672767392851 0  0.23480926481406 1.296290089050917 0  0.176081767237426 1.307791160633676 0  0.1156907515459434 1.315728389844253 0  0.0560067642096769 1.321021618474207 0  -0.004327742480219168 1.323970438941697 0  -0.06463648463129924 1.323515976540077 0  -0.12499350197624 1.320149213454231 0  -0.185014706839856 1.313557907943779 0  -0.2448752082549583 1.304256942896153 0  -0.3040194188074671 1.291484131638124 0  -0.3621321619792413 1.275864202295681 0  -0.4207184226700544 1.25744920000164 0  -0.4771179147774713 1.2367950480706 0  -0.5318400469268851 1.211026531655415 0  -0.5876811489673011 1.187958288237327 0  -0.6398373907894332 1.159678531941837 0  -0.6928114448356477 1.126473375681161 0  -0.7408013534242652 1.091116366446731 0  -0.7897327464893029 1.062587906996467 0  -0.843904717553997 1.028108564499119 0  -0.8783627169360632 0.9816613075808833 0  -0.9290169233035784 0.9513427573412493 0  -0.9709445776493913 0.9107789976816106 0  -1.018153418461268 0.886780162885936 0  -1.062941994745996 0.8537367305480745 0  -1.089792264964616 0.7747340365182556 0  -1.131508808241973 0.7529910871596105 0  -1.197156115325584 0.742792466279794 0  -1.208311540114575 0.680465762641785 0  -1.245681933170126 0.6652700579731053 0  -1.287416030569425 0.5980143497644276 0  -1.320888348406579 0.5824299873019698 0  -1.37373851374569 0.528844388732889 0  -1.371929859261485 0.4802122778988951 0  -1.454224793641022 0.5008278342976372 0  -1.471532652015029 0.4267659842035606 0  -1.495757584188611 0.3887314310724359 0  -1.520531314977793 0.341776668032423 0  -1.545764424588414 0.2996522995338797 0  -1.557744987311643 0.2482827757787792 0  -1.5790017403704 0.2119072096678411 0  -1.562984645718467 0.1355539447834072 0  -1.597126243821015 0.1323836523573501 0  -1.610140653235913 0.08125145659972542 0  -1.575981903068618 0.0297189454914038 0  -1.567179151313769 -0.007038225949522484 0  -1.56370179863571 -0.04946128049381897 0  -1.576243960415051 -0.08044303749456994 0  -1.554190630027101 -0.1188410173520881 0  -1.571103207325178 -0.1621391653084223 0  -1.553165956414159 -0.2126351489457294 0  -1.531387441653018 -0.2215010532429686 0  -1.557920636308681 -0.2895318339601393 0  -1.537310706140248 -0.3322847373189393 0  -1.529361336279226 -0.3891311046799516 0  -1.504595917088282 -0.4351083550879351 0  -1.48062866096921 -0.4838503853236212 0  -1.444768865463589 -0.5173634206231179 0  -1.445954983565132 -0.5896598059874306 0  -1.373123864388032 -0.6098181928925585 0  -1.34253533687092 -0.6304427150999063 0  -1.306684345265643 -0.6821077018020142 0  -1.276487925816416 -0.6993776733688045 0  -1.24488752222462 -0.7551416011756127 0  -1.207179656497035 -0.7779515355823696 0  -1.192147255838677 -0.8332742063365353 0  -1.134208986178825 -0.8502147580050693 0  -1.096391897354153 -0.878448261785449 0  -1.074475266095566 -0.9540487036772961 0  -1.028337632632367 -0.9885236662915204 0  -0.9824820489234108 -1.01818174972005 0  -0.9405120585449193 -1.060628514411323 0  -0.896304344286935 -1.099606482359897 0  -0.8541962986737587 -1.142401825541024 0  -0.8008208321307942 -1.174615326761586 0  -0.7488101769527423 -1.203830274780249 0  -0.7104721634754455 -1.259086910297109 0  -0.6482143514922767 -1.287129153625591 0  -0.5954410082960693 -1.310481543003442 0  -0.5389808548057986 -1.338940761096194 0  -0.4820081771735362 -1.363805508249758 0  -0.4267710969805322 -1.388304157515624 0  -0.3651963570597983 -1.406677206048941 0  -0.3065521467708073 -1.422175606870456 0  -0.2466851735659759 -1.435987771068485 0  -0.1855201032903906 -1.445065367137624 0  -0.1246344687477395 -1.452039008154462 0  -0.0631383134262746 -1.4551748196854 0  -0.001655517074412178 -1.455310502441505 0  0.05977352174484513 -1.451783266040318 0  0.1210985695313292 -1.444944033663871 0  0.1814805173467162 -1.434768692392451 0  0.2415024819382785 -1.422182569602946 0  0.3004508244578246 -1.406287312029525 0  0.3592899303573346 -1.388906628281628 0  0.4160542546263556 -1.367651783699206 0  0.4736323690465898 -1.345728891233524 0  0.5279129411039972 -1.317496177402053 0  0.5811375330213949 -1.294004002156113 0  0.6375740773707274 -1.265606681302819 0  0.6852173752905315 -1.231033458620664 0  0.7373512378190258 -1.199872664793643 0  0.7871239006864357 -1.167452791453973 0  0.8318465964771544 -1.126931059430195 0  0.8790507164418424 -1.097944163790829 0  0.9332373001635693 -1.06962492990324 0  0.9620044376079773 -1.019726403722276 0  1.008619481146971 -0.9836625300920447 0  1.054360472306708 -0.9478729736879631 0  1.091396456969514 -0.9048178915522788 0  1.130331872532148 -0.8698371646384114 0  1.169591969475055 -0.8332541102314659 0  1.209442362749675 -0.8050210605317869 0  1.232641810200227 -0.737128892836532 0  1.271393660253218 -0.7224712929957069 0  1.328757607995542 -0.6950984602463043 0  1.34155616886796 -0.6419095857321437 0  1.383314831311098 -0.6057248999603253 0  1.416180896190121 -0.5650993255551012 0  1.443514113003978 -0.5196459532161964 0  1.47770972556286 -0.4849520300745123 0  1.491094140751427 -0.4211445937561078 0  1.517128737293751 -0.3956473213724365 0  1.553561807115316 -0.354021056376506 0  1.558391590491055 -0.3050068766918461 0  1.57549187950728 -0.2600601437935703 0  1.58566568029695 -0.2144386870112794 0  1.59481058747706 -0.1707072906555749 0  1.600513144213203 -0.1271496141788574 0  1.610765402850729 -0.08756524978339064 0  -0.1061139892732074 0.7875028164526648 0  0.5948233939292535 -0.7129811482438096 0  -0.7520113656433071 -0.6237071531664308 0  -0.08227169565567305 -0.8926555759326193 0  0.5882382283076454 0.602312526140267 0  1.148081630179804 0.1896317850193276 0  -0.7700659833819326 0.5098451379277693 0  -1.237138816073247 -0.04393346967392935 0  1.152855265561731 -0.2865882322906737 0  -1.042271037571783 -0.4448287224215018 0  -0.8020846820239613 -0.06134339205360985 0  -0.4785613035663653 -0.236042939879686 0  -1.065533274122959 0.3313094509992646 0  0.2749072489795462 -0.8657597507747914 0  0.1292830961925148 -0.2981443421482874 0  0.2377528565373995 0.7468105379456658 0  0.32893253971261 0.1927723612965623 0  0.6455462370165447 -0.04992081131464014 0  -0.4175628052686646 -0.784518141027613 0  -0.4552348499156219 0.6901500039599917 0  -0.2803536506916163 0.2504358839203065 0  0.9029576076203553 -0.4861548173222539 0  0.8968019608175516 0.3827166230628364 0  0.3974733110746443 -0.3269672719154327 0  0.02244182632340588 0.2455170954572747 0  -0.5441368729369233 0.1893531184340701 0  -0.1773870647989801 -0.2909485952003312 0  0.9317407388632751 -0.04946666255890771 0  1.339054377276292 -0.04602644490606591 0  0.7486088255480355 -0.5959307064774229 0  0.7655603615212594 -0.277909958021511 0  0.610655248720345 -0.377486830182688 0  0.5200550799316122 -0.1840098222484334 0  0.4900459947888635 -0.5254696454951086 0  0.9105144304991964 -0.2662814531098576 0  0.7878848030276152 -0.04974079983255533 0  -0.9237935603530252 0.1458733437827466 0  -1.150591755061569 0.1415425904643616 0  -1.023572737252064 -0.05169753810118796 0  -0.9123798334778274 -0.2623198865833788 0  -1.135161310864963 -0.2416759712357417 0  -1.313313167651192 -0.3355439705518082 0  -1.385002983130672 -0.1518724192182786 0  -1.403945222618904 0.06619471198609977 0  -1.328839426845578 0.2415671911114045 0  -0.130381793955424 -0.591603658046399 0  -0.2899191369148678 -0.5438418253023881 0  -0.2514970350434834 -0.8447930430872713 0  -0.3272641345978221 -0.2648784465101657 0  -0.443370112982583 -0.507432644378483 0  -1.235946851349456 -0.5184671562418048 0  -1.255972496513733 0.4158605625228438 0  0.3346218685740067 -0.5933723037873363 0  0.2624261808856381 -0.314308841951202 0  0.196057427325749 -0.5852302114244142 0  -0.9163869733639644 0.4152007508746822 0  -0.7772062912987727 0.2223587931187553 0  1.339776314406733 -0.3583177354663044 0  1.210241292945801 -0.5173370295173155 0  1.203690126380661 0.4203303272468205 0  1.333152056679056 0.2644634726898319 0  -0.7635954758012928 -0.9051057937194924 0  -0.936434428077269 -0.7635789467724116 0  -0.9454357026216111 0.6554904544764656 0  -0.7669879659477571 0.7878309730062842 0  0.7686982107836005 -0.8887239609930228 0  0.5799542021931272 -1.005180629415084 0  0.5722731983940712 0.8914317135206486 0  0.7587441940755631 0.7785692884590634 0  0.007083111393068373 -
[...]
<PointData  Vectors="f_44"> 
<DataArray  type="Float64"  Name="f_44"  NumberOfComponents="3" format="ascii">2.1425277641607263e-01 5.3123222951973574e-02 0.0000000000000000e+00  2.0978573209441917e-01 7.1584495608441684e-02 0.0000000000000000e+00  2.1815146989152134e-01 4.8102455731177364e-02 0.0000000000000000e+00  1.9336090935432340e-01 1.1453049312547754e-01 0.0000000000000000e+00  2.1300215339954837e-01 8.2200494492495002e-02 0.0000000000000000e+00  1.3989873731935204e-01 1.8608732961864935e-01 0.0000000000000000e+00  2.1673928225547504e-01 3.1171385608999156e-02 0.0000000000000000e+00  5.3647954121262838e-02 4.2922318844939245e-02 0.0000000000000000e+00  -1.2208420345564751e-01 2.8185844093157092e-01 0.0000000000000000e+00  2.3194937695660145e-01 8.7798633277166152e-02 0.0000000000000000e+00  8.3355627421675516e-02 1.1762414811284519e-01 0.0000000000000000e+00  1.1307912048963087e-02 2.1204518020868013e-01 0.0000000000000000e+00  1.4210073511029142e-01 1.7993292203691658e-01 0.0000000000000000e+00  -9.4219103583449773e-02 2.4984155657049106e-01 0.0000000000000000e+00  1.5820627923637073e-01 1.5073327572045264e-01 0.0000000000000000e+00  5.6783258612960515e-03 -1.0232800360403381e-04 0.0000000000000000e+00  -2.7880000998164145e-01 8.8926637889549437e-02 0.0000000000000000e+00  2.0832053325491748e-01 2.2000592115460524e-01 0.0000000000000000e+00  -2.5973583627636299e-02 6.5804566687268459e-02 0.0000000000000000e+00  -3.1350071884157261e-03 7.1673740247990489e-02 0.0000000000000000e+00  3.6796004645326473e-02 1.3664903658672103e-01 0.0000000000000000e+00  -1.0930079763975799e-01 1.5648131030279741e-01 0.0000000000000000e+00  6.2661591784249737e-02 2.2361539604456951e-01 0.0000000000000000e+00  -1.4359356882609545e-01 2.2435175702644480e-01 0.0000000000000000e+00  1.2246835249075223e-01 1.6507184091316449e-01 0.0000000000000000e+00  4.8701340899966597e-02 1.3146207895778711e-01 0.0000000000000000e+00  -2.4027439469983256e-01 1.6071594189130739e-01 0.0000000000000000e+00  -2.6803030953372428e-02 1.9889845434601100e-01 0.0000000000000000e+00  -2.8980436959694263e-02 2.1589864103359216e-01 0.0000000000000000e+00  -1.3312492249589439e-01 1.8822898159352885e-01 0.0000000000000000e+00  -8.4456433321749458e-02 2.0645390548073933e-01 0.0000000000000000e+00  -1.0874507665143153e-01 1.9510017213484179e-01 0.0000000000000000e+00  -1.5193279779557847e-01 1.6520472641082662e-01 0.0000000000000000e+00  -1.3678714674572071e-01 1.7703692625564743e-01 0.0000000000000000e+00  -1.5086318811182248e-01 1.6193569809334263e-01 0.0000000000000000e+00  -1.7800450016061006e-01 1.3787993677028632e-01 0.0000000000000000e+00  -1.8167751007737157e-01 1.2857594754583501e-01 0.0000000000000000e+00  -1.9696046054401245e-01 1.0720399690183198e-01 0.0000000000000000e+00  -2.0089190265249127e-01 9.7906427922440795e-02 0.0000000000000000e+00  -2.1247417433868176e-01 7.0195831157153832e-02 0.0000000000000000e+00  -2.1859564004471352e-01 4.7429844645615615e-02 0.0000000000000000e+00  -2.2150482581283693e-01 3.1618676345557900e-02 0.0000000000000000e+00  -2.2336851817781597e-01 9.5097988007157401e-03 0.0000000000000000e+00  -2.2338755557508785e-01 -1.4328024148580204e-02 0.0000000000000000e+00  -2.2048290572979459e-01 -3.6933849103106660e-02 0.0000000000000000e+00  -2.1617579449926544e-01 -5.8105144742966103e-02 0.0000000000000000e+00  -2.0883481819377203e-01 -7.9795048178647202e-02 0.0000000000000000e+00  -1.9872108446770009e-01 -1.0307487018864539e-01 0.0000000000000000e+00  -1.8776587445335727e-01 -1.2100288239495904e-01 0.0000000000000000e+00  -1.8070021232024797e-01 -1.3319788975610011e-01 0.0000000000000000e+00  -1.5181108281077921e-01 -1.6313917406207917e-01 0.0000000000000000e+00  -1.5134409371007462e-01 -1.6476271865010531e-01 0.0000000000000000e+00  -1.4533587807352541e-01 -1.6838931339168650e-01 0.0000000000000000e+00  -1.0916164739247818e-01 -1.9678463539781021e-01 0.0000000000000000e+00  -7.6276580292266138e-02 -2.1038932042445802e-01 0.0000000000000000e+00  -7.8393589268477268e-02 -2.0542470062938276e-01 0.0000000000000000e+00  -1.3759991297651342e-01 -1.9339839222716704e-01 0.0000000000000000e+00  1.1591921572611115e-02 -2.1348574312678920e-01 0.0000000000000000e+00  -1.6946623883420199e-02 -2.0098656862259537e-01 0.0000000000000000e+00  -7.0624448717581459e-02 -2.1523994850285436e-01 0.0000000000000000e+00  -4.1577950162786349e-02 -1.9924767085625206e-01 0.0000000000000000e+00  -1.6717868531714003e-01 -2.0595544226110477e-01 0.0000000000000000e+00  1.1797451077270706e-01 -1.6320652745809688e-01 0.0000000000000000e+00  1.1803273525883463e-01 -1.5477649674385788e-01 0.0000000000000000e+00  -3.0481124626629136e-01 -1.2682369345001140e-01 0.0000000000000000e+00  4.6453364329527180e-02 -5.0044463868697348e-02 0.0000000000000000e+00  8.7930584132290851e-02 -1.0804215251729832e-01 0.0000000000000000e+00  -1.7748856089949548e-02 -1.9955268713741844e-01 0.0000000000000000e+00  6.1728993449913450e-02 -1.8209146816333349e-01 0.0000000000000000e+00  -1.4339280417727385e-01 -2.2923853536257127e-01 0.0000000000000000e+00  1.9463121793755173e-01 -1.4987805375833177e-01 0.0000000000000000e+00  -8.6204998964186902e-02 1.3034410282312178e-01 0.0000000000000000e+00  -4.8193635695263755e-02 2.0576287442058024e-02 0.0000000000000000e+00  2.4150692483826350e-01 -1.7699026701000187e-01 0.0000000000000000e+00  8.1482219027322944e-02 -1.9302988455652453e-01 0.0000000000000000e+00  1.1306695081008919e-01 -2.0576441038267246e-01 0.0000000000000000e+00  1.6722796814704252e-01 -1.2494931491453153e-01 0.0000000000000000e+00  1.4521812233513684e-01 -1.7325932439220568e-01 0.0000000000000000e+00  2.1907667080387491e-01 -1.9183216268939176e-02 0.0000000000000000e+00  3.8904121506506316e-02 1.0661602608095680e-01 0.0000000000000000e+00  -1.5028663152972948e-02 -1.6489258497771794e-01 0.0000000000000000e+00  1.8501205102568791e-01 7.3841641237958236e-02 0.0000000000000000e+00  9.1116916116114388e-02 2.1115921846502145e-01 0.0000000000000000e+00  2.4247216326787926e-01 8.0605013887899687e-02 0.0000000000000000e+00  1.9644504812297542e-01 -1.1279360850161460e-01 0.0000000000000000e+00  1.2277083355815699e-01 8.2682033717017517e-02 0.0000000000000000e+00  1.2262954886885145e-01 2.2134002102087939e-02 0.0000000000000000e+00  2.1938825141195797e-01 -6.7927173927271267e-02 0.0000000000000000e+00  2.2571530062993655e-02 2.6326982331989907e-01 0.0000000000000000e+00  5.8104834790732550e-02 -1.3875803245135618e-01 0.0000000000000000e+00  1.7819066304544795e-01 -2.1201570490554947e-02 0.0000000000000000e+00  1.8329519571222372e-01 1.4715871667893893e-01 0.0000000000000000e+00  1.7352410331080409e-01 9.7810455186811335e-02 0.0000000000000000e+00  1.4816962496758124e-01 1.9002583576573354e-01 0.0000000000000000e+00  1.6372387294019526e-02 2.3032007475783722e-01 0.0000000000000000e+00  1.7498497002561067e-01 7.6504462011731181e-02 0.0000000000000000e+00  4.1040117197570940e-02 1.9096447417556915e-02 0.0000000000000000e+00  -2.6189023161514441e-01 1.7592654744325398e-01 0.0000000000000000e+00  8.2565299152819738e-02 2.1671320847705350e-01 0.0000000000000000e+00  -2.1148676355261308e-02 2.0232509608884119e-01 0.0000000000000000e+00  5.3765211480002177e-02 1.8625783618534805e-01 0.0000000000000000e+00  5.6907603925037036e-03 2.0478262638269867e-01 0.0000000000000000e+00  8.3801654230684822e-02 1.5500879834107226e-01 0.0000000000000000e+00  3.8368129544248161e-02 9.0476980222224210e-02 0.0000000000000000e+00  -2.4487647912534360e-01 1.8378067213295846e-01 0.0000000000000000e+00  1.5358255052407532e-01 1.5197233447750599e-01 0.0000000000000000e+00  1.0798745322856547e-01 1.4803695994860749e-01 0.0000000000000000e+00  -1.3652427704599410e-01 2.2525611610747187e-01 0.0000000000000000e+00  -2.8503708957335346e-02 2.0850681267999979e-01 0.0000000000000000e+00  -1.0058415640121835e-02 2.2589526234588878e-01 0.0000000000000000e+00  -6.9799286517638259e-03 2.2436257656510045e-01 0.0000000000000000e+00  -3.4076919725774084e-02 2.1309190569527442e-01 0.0000000000000000e+00  -1.6164351242672303e-01 1.8678278768144779e-01 0.0000000000000000e+00  2.1020684314161001e-02 2.0647798327583938e-01 0.0000000000000000e+00  -1.0701401168587293e-02 1.9157483462069738e-01 0.0000000000000000e+00  -1.9144557874996940e-01 1.5738866042413727e-01 0.0000000000000000e+00  -1.2851855780977234e-01 1.7699155913216452e-01 0.0000000000000000e+00  -1.4438535979106693e-01 1.7166789998153284e-01 0.0000000000000000e+00  -1.4879171863876642e-01 1.6776684763138497e-01 0.0000000000000000e+00  -1.6730461833933860e-01 1.4590738516711496e-01 0.0000000000000000e+00  -1.9538710850334556e-01 1.1118921109187764e-01 0.0000000000000000e+00  -1.9569586285056542e-01 1.0831251458072146e-01 0.0000000000000000e+00  -2.0812326800866721e-01 8.0826283992263895e-02 0.0000000000000000e+00  -2.1678978376019289e-01 5.6945082678511380e-02 0.0000000000000000e+00  -2.2007352890119503e-01 3.7895346388155497e-02 0.0000000000000000e+00  -2.2372136370879417e-01 1.1296448414289369e-02 0.0000000000000000e+00  -2.2319553822840221e-01 -1.1873121301986816e-02 0.0000000000000000e+00  -2.2072131589983637e-01 -3.7638472421267867e-02 0.0000000000000000e+00  -2.1466418799227172e-01 -6.2173239278332813e-02 0.0000000000000000e+00  -2.0876639160691957e-01 -8.1191760722253981e-02 0.0000000000000000e+00  -1.9835292018613337e-01 -1.0239411239402847e-01 0.0000000000000000e+00  -1.9205599921777636e-01 -1.1588833600344252e-01 0.0000000000000000e+00  -1.7646563393115167e-01 -1.3579211166101454e-01 0.0000000000000000e+00  -1.7129611212831994e-01 -1.4576010259408115e-01 0.0000000000000000e+00  -1.4535728138210549e-01 -1.6769486427578822e-01 0.0000000000000000e+00  -1.3364281202426026e-01 -1.7860418863439934e-01 0.0000000000000000e+00  -1.5586531431167566e-01 -1.6399923249350726e-01 0.0000000000000000e+00  -9.4198391424567207e-02 -2.0057556419601569e-01 0.0000000000000000e+00  -7.9198960614765432e-02 -2.0820031215502852e-01 0.0000000000000000e+00  -1.1607989952197892e-01 -1.9456523186869429e-01 0.0000000000000000e+00  -4.5464995706253182e-02 -2.1779506141116853e-01 0.0000000000000000e+00  -3.8173344698172615e-02 -2.1565645473421557e-01 0.0000000000000000e+00  -1.6624024050557001e-01 -1.8706936436584343e-01 0.0000000000000000e+00  1.0390942890940637e-02 -1.8428377338898266e-01 0.0000000000000000e+00  6.3215642275075298e-02 -2.0676584448943711e-01 0.0000000000000000e+00  -1.0011658375542469e-01 -2.1889221254823088e-01 0.0000000000000000e+00  6.9606788425227379e-03 -2.1818242495623719e-01 0.0000000000000000e+00  9.4804632454306564e-03 -2.2269582745148853e-01 0.0000000000000000e+00  -9.8741499648543618e-03 -2.2128598357339371e-01 0.0000000000000000e+00  -8.7347532731618299e-02 -2.2825966164819975e-01 0.0000000000000000e+00  1.0307526174820858e-01 -1.6683383583206329e-01 0.0000000000000000e+00  9.2097956902961076e-02 -1.2513602292590992e-01 0.0000000000000000e+00  -2.6582298114441527e-01 -1.8227035742536044e-01 0.0000000000000000e+00  6.8362168983291130e-02 -1.2711791371093725e-01 0.0000000000000000e+00  1.2037844358183702e-01 -1.4963453155078091e-01 0.0000000000000000e+00  -5.0801042089189508e-02 -2.4470317907681327e-01 0.0000000000000000e+00  1.2090480002355684e-01 -1.9300798254423290e-01 0.0000000000000000e+00  2.2535843540442000e-02 -2.3144364595659292e-01 0.0000000000000000e+00  1.2635255611221419e-01 -1.3886470710387866e-01 0.0000000000000000e+00  1.6316560235236366e-01 -1.1256370663794638e-01 0.0000000000000000e+00  -5.1213179228374719e-02 -2.7660684770818700e-01 0.0000000000000000e+00  1.4206494167769437e-01 -1.1492059291145208e-01 0.0000000000000000e+00  2.1199229470013509e-01 -7.9069996152307462e-02 0.0000000000000000e+00  1.7128072188943910e-01 -1.4219208142432119e-01 0.0000000000000000e+00  2.0978273897497135e-01 -8.5450940205793774e-02 0.0000000000000000e+00  2.1221644040708856e-01 -6.8527766465866891e-02 0.0000000000000000e+00  2.0383942764184518e-01 -8.2716730369777502e-02 0.0000000000000000e+00  2.0922341847636569e-01 -9.4376978236564255e-02 0.0000000000000000e+00  -2.1677844507452992e-01 -5.5481520788021418e-02 0.0000000000000000e+00  -2.0546443914673914e-02 -2.2289967929784998e-01 0.0000000000000000e+00  6.5362394060238263e-02 2.1403668716405544e-01 0.0000000000000000e+00  -2.1857474975517760e-01 4.7958603218658066e-02 0.0000000000000000e+00  -2.4710849998221766e-02 2.2245349444758358e-01 0.0000000000000000e+00  1.8801324500608282e-01 1.2144479163511082e-01 0.0000000000000000e+00  4.4124429602722073e-02 -2.1937643721966743e-01 0.0000000000000000e+00  2.2328817394340839e-01 -1.6835824768688314e-02 0.0000000000000000e+00  1.9444958512339944e-01 -1.1083313079510994e-01 0.0000000000000000e+00  1.5508622076916007e-01 1.6133148930281996e-01 0.0000000000000000e+00  2.2377798853218553e-01 -1.1568872295697006e-02 0.0000000000000000e+00  1.7984674353880706e-01 1.3411284842867791e-01 0.0000000000000000e+00  1.1592033652823344e-01 -1.9147063444602519e-01 0.0000000000000000e+00  -1.7351501982188480e-01 -1.4130291760026872e-01 0.0000000000000000e+00  -9.7789713183755997e-02 -2.0424802380622420e-01 0.0000000000000000e+00  -1.8464495479557558e-01 1.2640881293945860e-01 0.0000000000000000e+00  7.3378140194589769e-02 2.1240350524375215e-01 0.0000000000000000e+00  2.2434048333160850e-01 9.1722429542740198e-03 0.0000000000000000e+00  -1.0026782794263758e-01 2.0008009335148513e-01 0.0000000000000000e+00  -1.0284462932595041e-01 -1.9874501078478837e-01 0.0000000000000000e+00  4.1584226173989030e-03 -2.2478372606487793e-01 0.0000000000000000e+00  1.2636030605332077e-01 -1.8473484926088532e-01 0.0000000000000000e+00  1.1784244490574133e-01 1.9025571953752132e-01 0.0000000000000000e+00  9.9461638526209359e-02 -2.0118571412650010e-01 0.0000000000000000e+00  -2.2175743842034459e-01 3.6569127653317414e-02 0.0000000000000000e+00  1.4518333058971847e-01 -1.7066305648535873e-01 0.0000000000000000e+00  -1.0754568133019331e-02 2.2539603709414108e-01 0.0000000000000000e+00  2.2374181575901961e-01 6.7531128904632122e-03 0.0000000000000000e+00  2.2374830816993208e-01 5.1426206195091442e-03 0.0000000000000000e+00  6.3900312635128423e-02 -2.1456226187356056e-01 0.0000000000000000e+00  1.8796671080220745e-01 -1.2195969350872371e-01 0.0000000000000000e+00  1.3140976356271161e-01 -1.8175538194080548e-01 0.0000000000000000e+00  2.0225649383231301e-01 -9.7528286855983928e-02 0.0000000000000000e+00  1.9505751562873198e-02 -2.2327765917656298e-01 0.0000000000000000e+00  1.9703463562267565e-01 -1.0623687679258249e-01 0.0000000000000000e+00  2.2388164430841737e-01 7.6752233813046165e-03 0.0000000000000000e+00  1.8742682679800435e-01 -1.2252963058509726e-01 0.0000000000000000e+00  1.8890740875460735e-01 -1.2041554876430234e-01 0.0000000000000000e+00  2.2304126657537279e-01 -1.9202118239572536e-02 0.0000000000000000e+00  2.0305939582774710e-01 9.4350446842314209e-02 0.0000000000000000e+00  2.1003210015188775e-01 7.7579643615257501e-02 0.0000000000000000e+00  1.9238476785930927e-01 1.1482192125356472e-01 0.0000000000000000e+00  2.2127010812349079e-01 2.9916410432729641e-02 0.0000000000000000e+00  2.2166741500957216e-01 -3.0639931410208786e-02 0.0000000000000000e+00  1.4839284505748768e-01 -1.6870688709129208e-01 0.0000000000000000e+00  -1.9133374755639251e-01 1.1640423950982723e-01 0.0000000000000000e+00  -8.7487719640925277e-02 2.0627020671077470e-01 0.0000000000000000e+00  -1.7576744974579234e-01 1.3851230854825555e-01 0.0000000000000000e+00  1.2247532890790773e-01 1.8869968706106310e-01 0.0000000000000000e+00  1.5380851284170225e-02 2.2350227571762668e-01 0.0000000000000000e+00  1.1903510525348705e-01 1.8970671538857986e-01 0.0000000000000000e+00  1.1017486274697268e-02 -2.2438386528182533e-01 0.0000000000000000e+00  -8.8968555342032185e-02 -2.0556100638102176e-01 0.0000000000000000e+00  3.4978169649820701e-02 -2.2255520884812047e-01 0.0000000000000000e+00  -1.6444378121827097e-01 -1.5215495206917762e-01 0.0000000000000000e+00  9.0944061278812022e-02 -2.0445571321367992e-01 0.0000000000000000e+00  1.5708788812109109e-01 -1.5970429331286351e-01 0.0000000000000000e+00  1.6986299211913058e-01 -1.4560856670368902e-01 0.0000000000000000e+00  1.2307431746724860e-01 -1.8670188136939575e-01 0.0000000000000000e+00  1.0490082192502789e-01 1.9754067245420473e-01 0.0000000000000000e+00  1.6351213735512254e-01 1.5260678411706419e-01 0.0000000000000000e+00  -1.2069473999190405e-02 2.2336505092378797e-01 0.0000000000000000e+00  5.7721626358652398e-02 2.1597303911908144e-01 0.0000000000000000e+00  3.2243776593756358e-02 -2.2121880046737891e-01 0.0000000000000000e+00  -2.9487443097464559e-02 -2.2166792636557803e-01 0.0000000000000000e+00  -2.2389490134200055e-02 -2.2253014378592967e-01 0.0000000000000000e+00  -9.5510128735093514e-02 -2.0228909704214393e-01 0.0000000000000000e+00  -9.5820301505146990e-02 2.0217206663881060e-01 0.0000000000000000e+00  -1.9477128649025247e-02 2.2270382943449285e-01 0.0000000000000000e+00  -2.2362172428293348e-01 -7.4269158965544714e-03 0.0000000000000000e+00  -2.0611662979301310e-01 8.7054479905209689e-02 0.0000000000000000e+00  -2.0614950413152422e-01 -8.6942954880940532e-02 0.0000000000000000e+00  -2.2371904596997763e-01 2.2158368582247765e-03 0.0000000000000000e+00  -1.0191330472958279e-01 -1.9923871525227135e-01 0.0000000000000000e+00  1.9580764859954833e-01 1.1017852758232800e-01 0.0000000000000000e+00  1.2086334568602848e-01 1.8887206329142397e-01 0.0000000000000000e+00  9.0947500531722624e-04 2.2413407305690378e-01 0.0000000000000000e+00  1.0768233073027256e-01 1.9645969409079106e-01 0.0000000000000000e+00  2.1836817216801158e-01 5.0561724721720915e-02 0.0000000000000000e+00  1.7438486018918203e-01 1.4060706457930719e-01 0.0000000000000000e+00  -7.4566670331864870e-02 2.1230359460530046e-01 0.0000000000000000e+00  1.4983429052832986e-01 1.7468772646703046e-01 0.0000000000000000e+00  2.2577955118854914e-01 2.7814018330250177e-02 0.0000000000000000e+00  8.7567752877908064e-02 2.0555138917950039e-01 0.0000000000000000e+00  4.5959488476666463e-02 -2.1859709285584977e-01 0.0000000000000000e+00  1.2029193317968873e-01 1.8869835087321613e-01 0.0000000000000000e+00  1.7997708878485219e-01 1.3342249581548413e-01 0.0000000000000000e+00  5.7347238589404388e-02 2.1637168806894733e-01 0.0000000000000000e+00  1.9060716078827253e-01 1.1736514928214467e-01 0.0000000000000000e+00  -1.1735837277221900e-01 1.9077750794349679e-01 0.0000000000000000e+00  -1.1119953976510664e-01 1.9421280533515239e-01 0.0000000000000000e+00  -2.2308344937989327e-01 -1.9951641539909689e-02 0.0000000000000000e+00  -2.1733264946910749e-01 -5.3334497205855487e-02 0.0000000000000000e+00  -7.6617896002913993e-02 -2.1046192981225714e-01 0.0000000000000000e+00  -1.7275568033368144e-01 -1.4253806498546312e-01 0.0000000000000000e+00  -1.7329734616379588e-01 -1.4159568052394453e-01 0.0000000000000000e+00  2.2513652657281946e-01 -6.6567419365884933e-03 0.0000000000000000e+00  -2.0722117479588681e-01 8.9562222875180619e-02 0.0000000000000000e+00  -1.5419375105623867e-01 -1.6207886223924298e-01 0.0000000000000000e+00  -2.0482827507733314e-01 -9.0007938805718876e-02 0.0000000000000000e+00  -2.0871498313298445e-01 8.0571084916342559e-02 0.0000000000000000e+00  -1.6119039040677105e-01 1.5513868945747875e-01 0.0000000000000000e+00  2.4342611887346749e-01 -6.1579800384155677e-02 0.0000000000000000e+00  -2.0112037686367515e-01 9.8408442105211824e-02 0.0000000000000000e+00  -2.2042526730202006e-01 3.8457259590205302e-02 0.0000000000000000e+00  -1.5779618749085064e-01 1.5862883437970313e-01 0.0000000000000000e+00  -7.9764136283260928e-02 2.0891066483733781e-01 0.0000000000000000e+00  -1.1228425734857233e-02 2.2351447209609629e-01 0.0000000000000000e+00  -9.2178404832146940e-02 -2.0382938949746982e-01 0.0000000000000000e+00  -1.6144827614663229e-01 -1.5487926298068500e-01 0.0000000000000000e+00  -2.3736308525692300e-02 -2.2250822741025658e-01 0.0000000000000000e+00  2.0623447140071552e-01 -8.7622853333657144e-02 0.0000000000000000e+00  8.35474660812763