<?xml version="1.0"?>
<VTKFile type="UnstructuredGrid"  version="0.1"  >
<UnstructuredGrid>
<Piece  NumberOfPoints="2549" NumberOfCells="4928">
<Points>
<DataArray  type="Float64"  NumberOfComponents="3"  format="ascii">1.613670329309574 -0.04265327732849997 0  1.604385695946832 -9.027462765174958e-05 0  1.601072468022644 0.04186882279438164 0  1.591935516342072 0.08536295198178835 0  1.581232136251904 0.1277287703947328 0  1.57009185825572 0.1727112374622341 0  1.548255451501562 0.2162207371523205 0  1.554754092844622 0.2674930902498974 0  1.502629602593571 0.3004510864990432 0  1.480481744876723 0.3284918970695539 0  1.470234892978115 0.3978992049747739 0  1.433123359673238 0.425590635498162 0  1.41151655915014 0.4721141338035946 0  1.376487341238476 0.5100660293278471 0  1.331933823163639 0.5472971313341563 0  1.322548207629301 0.608862364922007 0  1.249615651341257 0.6113986524569057 0  1.221807368088603 0.6348254254876392 0  1.191175265977839 0.7144709327278366 0  1.14380708957182 0.7154232286822741 0  1.123393930140343 0.7733571495718106 0  1.074037745644244 0.7867476068212744 0  1.04123270338718 0.8319303776597813 0  0.9955350814461206 0.8651038074981479 0  0.9475491944391592 0.9015273133320445 0  0.9284931002100988 0.9635678804759649 0  0.867822509195831 0.9887078026342967 0  0.8196283597455201 1.009839491647459 0  0.7773756866404444 1.055582178643206 0  0.7266144318745067 1.084752854871323 0  0.6757144431517002 1.115688778704713 0  0.6268415076508687 1.147552434539493 0  0.572206734945368 1.175074039837078 0  0.5180512583594311 1.198821700671483 0  0.4650960038556395 1.225721945036824 0  0.4074138608273432 1.246145821461338 0  0.3514344687828471 1.265862536120631 0  0.2932315533894367 1.281672767392851 0  0.23480926481406 1.296290089050917 0  0.176081767237426 1.307791160633676 0  0.1156907515459434 1.315728389844253 0  0.0560067642096769 1.321021618474207 0  -0.004327742480219168 1.323970438941697 0  -0.06463648463129924 1.323515976540077 0  -0.12499350197624 1.320149213454231 0  -0.185014706839856 1.313557907943779 0  -0.2448752082549583 1.304256942896153 0  -0.3040194188074671 1.291484131638124 0  -0.3621321619792413 1.275864202295681 0  -0.4207184226700544 1.25744920000164 0  -0.4771179147774713 1.2367950480706 0  -0.5318400469268851 1.211026531655415 0  -0.5876811489673011 1.187958288237327 0  -0.6398373907894332 1.159678531941837 0  -0.6928114448356477 1.126473375681161 0  -0.7408013534242652 1.091116366446731 0  -0.7897327464893029 1.062587906996467 0  -0.843904717553997 1.028108564499119 0  -0.8783627169360632 0.9816613075808833 0  -0.9290169233035784 0.9513427573412493 0  -0.9709445776493913 0.9107789976816106 0  -1.018153418461268 0.886780162885936 0  -1.062941994745996 0.8537367305480745 0  -1.089792264964616 0.7747340365182556 0  -1.131508808241973 0.7529910871596105 0  -1.197156115325584 0.742792466279794 0  -1.208311540114575 0.680465762641785 0  -1.245681933170126 0.6652700579731053 0  -1.287416030569425 0.5980143497644276 0  -1.320888348406579 0.5824299873019698 0  -1.37373851374569 0.528844388732889 0  -1.371929859261485 0.4802122778988951 0  -1.454224793641022 0.5008278342976372 0  -1.471532652015029 0.4267659842035606 0  -1.495757584188611 0.3887314310724359 0  -1.520531314977793 0.341776668032423 0  -1.545764424588414 0.2996522995338797 0  -1.557744987311643 0.2482827757787792 0  -1.5790017403704 0.2119072096678411 0  -1.562984645718467 0.1355539447834072 0  -1.597126243821015 0.1323836523573501 0  -1.610140653235913 0.08125145659972542 0  -1.575981903068618 0.0297189454914038 0  -1.567179151313769 -0.007038225949522484 0  -1.56370179863571 -0.04946128049381897 0  -1.576243960415051 -0.08044303749456994 0  -1.554190630027101 -0.1188410173520881 0  -1.571103207325178 -0.1621391653084223 0  -1.553165956414159 -0.2126351489457294 0  -1.531387441653018 -0.2215010532429686 0  -1.557920636308681 -0.2895318339601393 0  -1.537310706140248 -0.3322847373189393 0  -1.529361336279226 -0.3891311046799516 0  -1.504595917088282 -0.4351083550879351 0  -1.48062866096921 -0.4838503853236212 0  -1.444768865463589 -0.5173634206231179 0  -1.445954983565132 -0.5896598059874306 0  -1.373123864388032 -0.6098181928925585 0  -1.34253533687092 -0.6304427150999063 0  -1.306684345265643 -0.6821077018020142 0  -1.276487925816416 -0.6993776733688045 0  -1.24488752222462 -0.7551416011756127 0  -1.207179656497035 -0.7779515355823696 0  -1.192147255838677 -0.8332742063365353 0  -1.134208986178825 -0.8502147580050693 0  -1.096391897354153 -0.878448261785449 0  -1.074475266095566 -0.9540487036772961 0  -1.028337632632367 -0.9885236662915204 0  -0.9824820489234108 -1.01818174972005 0  -0.9405120585449193 -1.060628514411323 0  -0.896304344286935 -1.099606482359897 0  -0.8541962986737587 -1.142401825541024 0  -0.8008208321307942 -1.174615326761586 0  -0.7488101769527423 -1.203830274780249 0  -0.7104721634754455 -1.259086910297109 0  -0.6482143514922767 -1.287129153625591 0  -0.5954410082960693 -1.310481543003442 0  -0.5389808548057986 -1.338940761096194 0  -0.4820081771735362 -1.363805508249758 0  -0.4267710969805322 -1.388304157515624 0  -0.3651963570597983 -1.406677206048941 0  -0.3065521467708073 -1.422175606870456 0  -0.2466851735659759 -1.435987771068485 0  -0.1855201032903906 -1.445065367137624 0  -0.1246344687477395 -1.452039008154462 0  -0.0631383134262746 -1.4551748196854 0  -0.001655517074412178 -1.455310502441505 0  0.05977352174484513 -1.451783266040318 0  0.1210985695313292 -1.444944033663871 0  0.1814805173467162 -1.434768692392451 0  0.2415024819382785 -1.422182569602946 0  0.3004508244578246 -1.406287312029525 0  0.3592899303573346 -1.388906628281628 0  0.4160542546263556 -1.367651783699206 0  0.4736323690465898 -1.345728891233524 0  0.5279129411039972 -1.317496177402053 0  0.5811375330213949 -1.294004002156113 0  0.6375740773707274 -1.265606681302819 0  0.6852173752905315 -1.231033458620664 0  0.7373512378190258 -1.199872664793643 0  0.7871239006864357 -1.167452791453973 0  0.8318465964771544 -1.126931059430195 0  0.8790507164418424 -1.097944163790829 0  0.9332373001635693 -1.06962492990324 0  0.9620044376079773 -1.019726403722276 0  1.008619481146971 -0.9836625300920447 0  1.054360472306708 -0.9478729736879631 0  1.091396456969514 -0.9048178915522788 0  1.130331872532148 -0.8698371646384114 0  1.169591969475055 -0.8332541102314659 0  1.209442362749675 -0.8050210605317869 0  1.232641810200227 -0.737128892836532 0  1.271393660253218 -0.7224712929957069 0  1.328757607995542 -0.6950984602463043 0  1.34155616886796 -0.6419095857321437 0  1.383314831311098 -0.6057248999603253 0  1.416180896190121 -0.5650993255551012 0  1.443514113003978 -0.5196459532161964 0  1.47770972556286 -0.4849520300745123 0  1.491094140751427 -0.4211445937561078 0  1.517128737293751 -0.3956473213724365 0  1.553561807115316 -0.354021056376506 0  1.558391590491055 -0.3050068766918461 0  1.57549187950728 -0.2600601437935703 0  1.58566568029695 -0.2144386870112794 0  1.59481058747706 -0.1707072906555749 0  1.600513144213203 -0.1271496141788574 0  1.610765402850729 -0.08756524978339064 0  -0.1061139892732074 0.7875028164526648 0  0.5948233939292535 -0.7129811482438096 0  -0.7520113656433071 -0.6237071531664308 0  -0.08227169565567305 -0.8926555759326193 0  0.5882382283076454 0.602312526140267 0  1.148081630179804 0.1896317850193276 0  -0.7700659833819326 0.5098451379277693 0  -1.237138816073247 -0.04393346967392935 0  1.152855265561731 -0.2865882322906737 0  -1.042271037571783 -0.4448287224215018 0  -0.8020846820239613 -0.06134339205360985 0  -0.4785613035663653 -0.236042939879686 0  -1.065533274122959 0.3313094509992646 0  0.2749072489795462 -0.8657597507747914 0  0.1292830961925148 -0.2981443421482874 0  0.2377528565373995 0.7468105379456658 0  0.32893253971261 0.1927723612965623 0  0.6455462370165447 -0.04992081131464014 0  -0.4175628052686646 -0.784518141027613 0  -0.4552348499156219 0.6901500039599917 0  -0.2803536506916163 0.2504358839203065 0  0.9029576076203553 -0.4861548173222539 0  0.8968019608175516 0.3827166230628364 0  0.3974733110746443 -0.3269672719154327 0  0.02244182632340588 0.2455170954572747 0  -0.5441368729369233 0.1893531184340701 0  -0.1773870647989801 -0.2909485952003312 0  0.9317407388632751 -0.04946666255890771 0  1.339054377276292 -0.04602644490606591 0  0.7486088255480355 -0.5959307064774229 0  0.7655603615212594 -0.277909958021511 0  0.610655248720345 -0.377486830182688 0  0.5200550799316122 -0.1840098222484334 0  0.4900459947888635 -0.5254696454951086 0  0.9105144304991964 -0.2662814531098576 0  0.7878848030276152 -0.04974079983255533 0  -0.9237935603530252 0.1458733437827466 0  -1.150591755061569 0.1415425904643616 0  -1.023572737252064 -0.05169753810118796 0  -0.9123798334778274 -0.2623198865833788 0  -1.135161310864963 -0.2416759712357417 0  -1.313313167651192 -0.3355439705518082 0  -1.385002983130672 -0.1518724192182786 0  -1.403945222618904 0.06619471198609977 0  -1.328839426845578 0.2415671911114045 0  -0.130381793955424 -0.591603658046399 0  -0.2899191369148678 -0.5438418253023881 0  -0.2514970350434834 -0.8447930430872713 0  -0.3272641345978221 -0.2648784465101657 0  -0.443370112982583 -0.507432644378483 0  -1.235946851349456 -0.5184671562418048 0  -1.255972496513733 0.4158605625228438 0  0.3346218685740067 -0.5933723037873363 0  0.2624261808856381 -0.314308841951202 0  0.196057427325749 -0.5852302114244142 0  -0.9163869733639644 0.4152007508746822 0  -0.7772062912987727 0.2223587931187553 0  1.339776314406733 -0.3583177354663044 0  1.210241292945801 -0.5173370295173155 0  1.203690126380661 0.4203303272468205 0  1.333152056679056 0.2644634726898319 0  -0.7635954758012928 -0.9051057937194924 0  -0.936434428077269 -0.7635789467724116 0  -0.9454357026216111 0.6554904544764656 0  -0.7669879659477571 0.7878309730062842 0  0.7686982107836005 -0.8887239609930228 0  0.5799542021931272 -1.005180629415084 0  0.5722731983940712 0.8914317135206486 0  0.7587441940755631 0.7785692884590634 0  0.007083111393068373 -
[...]
<PointData  Vectors="f_14883"> 
<DataArray  type="Float64"  Name="f_14883"  NumberOfComponents="3" format="ascii">9.9796858596484550e-01 1.2060257062412250e-01 0.0000000000000000e+00  9.8625727303768540e-01 1.6339877766942557e-01 0.0000000000000000e+00  9.9500629169285282e-01 1.0848018929524265e-01 0.0000000000000000e+00  9.6607881050450584e-01 2.6470089695339061e-01 0.0000000000000000e+00  9.8500194362053006e-01 1.8259357092842723e-01 0.0000000000000000e+00  9.0285669364519272e-01 4.5785559398254461e-01 0.0000000000000000e+00  1.0167418671508375e+00 4.6729973059980875e-02 0.0000000000000000e+00  9.1565736435394496e-01 3.8356458559381734e-01 0.0000000000000000e+00  5.0975411524864445e-01 9.5502245025506316e-01 0.0000000000000000e+00  1.0148496165318273e+00 1.6608847155244319e-01 0.0000000000000000e+00  8.8961752444811992e-01 4.5766128078987028e-01 0.0000000000000000e+00  7.3000091056776750e-01 6.9543329111567209e-01 0.0000000000000000e+00  9.1134524346469659e-01 4.3958432870344483e-01 0.0000000000000000e+00  5.6402788084646904e-01 8.7271567427212404e-01 0.0000000000000000e+00  9.9046428687663191e-01 3.2856774467463729e-01 0.0000000000000000e+00  6.5581346365521098e-01 6.9065788932368866e-01 0.0000000000000000e+00  4.9119940442848370e-02 1.1034583101404354e+00 0.0000000000000000e+00  1.0138099102339413e+00 3.4479435573347667e-01 0.0000000000000000e+00  6.3890390815491505e-01 7.6475327217767441e-01 0.0000000000000000e+00  6.9398393311690632e-01 7.1680793481526628e-01 0.0000000000000000e+00  7.8420139120119503e-01 6.2808000186588120e-01 0.0000000000000000e+00  4.7886270295089328e-01 8.9456631540132781e-01 0.0000000000000000e+00  8.1029910316170306e-01 6.0738317920626783e-01 0.0000000000000000e+00  4.7360907813001502e-01 9.1862644893747702e-01 0.0000000000000000e+00  9.0235100180300321e-01 4.5744870980809760e-01 0.0000000000000000e+00  8.0311598030892006e-01 6.0362466092140665e-01 0.0000000000000000e+00  2.5297361794419410e-01 1.0322649108234525e+00 0.0000000000000000e+00  6.5692320318755759e-01 7.5504358107019098e-01 0.0000000000000000e+00  6.5911071153271428e-01 7.5477696375662251e-01 0.0000000000000000e+00  4.5991441265961519e-01 8.9253610656008930e-01 0.0000000000000000e+00  5.5745043465452804e-01 8.3039298354700486e-01 0.0000000000000000e+00  5.0680940134048702e-01 8.6278840214219654e-01 0.0000000000000000e+00  4.0216548846738565e-01 9.1642458237627933e-01 0.0000000000000000e+00  4.4086850232458297e-01 8.9766201518117816e-01 0.0000000000000000e+00  3.9898964200006248e-01 9.1733137743628568e-01 0.0000000000000000e+00  3.2359712876387126e-01 9.4646026937360273e-01 0.0000000000000000e+00  3.0311165751636432e-01 9.5302929954165938e-01 0.0000000000000000e+00  2.4666161784787177e-01 9.6936137587003024e-01 0.0000000000000000e+00  2.2485450770909970e-01 9.7479368905397479e-01 0.0000000000000000e+00  1.5887860881019572e-01 9.8252614039730513e-01 0.0000000000000000e+00  1.0650115808272805e-01 1.0279164281438660e+00 0.0000000000000000e+00  7.2529708799444037e-02 8.7131838011127294e-01 0.0000000000000000e+00  1.2079990212662995e-02 1.1618929187865363e+00 0.0000000000000000e+00  2.8997007650015078e-02 -1.3809284388433074e+00 0.0000000000000000e+00  8.2856792634033199e-02 -9.4182922756762355e-01 0.0000000000000000e+00  1.3103276174321613e-01 -9.9383594380172902e-01 0.0000000000000000e+00  1.8148952561808177e-01 -9.8475720408657386e-01 0.0000000000000000e+00  2.3701589425955946e-01 -9.7130878363811990e-01 0.0000000000000000e+00  2.8235069204707375e-01 -9.5942243735093424e-01 0.0000000000000000e+00  3.1236663936758019e-01 -9.5032253506731257e-01 0.0000000000000000e+00  3.9931748321006511e-01 -9.1726636181954579e-01 0.0000000000000000e+00  4.0213700084116294e-01 -9.1545429418611479e-01 0.0000000000000000e+00  4.1661867425667876e-01 -9.0959834692503694e-01 0.0000000000000000e+00  5.0774587487165790e-01 -8.6219879661703569e-01 0.0000000000000000e+00  5.7431847029374195e-01 -8.1914681988858451e-01 0.0000000000000000e+00  5.6691002042923322e-01 -8.2322077464638166e-01 0.0000000000000000e+00  4.5795728281541881e-01 -8.9828179113400941e-01 0.0000000000000000e+00  7.2714011545018697e-01 -6.9317837751189137e-01 0.0000000000000000e+00  6.7610844397240277e-01 -7.3660029865544252e-01 0.0000000000000000e+00  5.8660683831386851e-01 -8.1185889050202775e-01 0.0000000000000000e+00  6.2979269353592571e-01 -7.7453549497437113e-01 0.0000000000000000e+00  4.2398640814533622e-01 -9.4776418007326513e-01 0.0000000000000000e+00  8.9393055992349102e-01 -4.7131218154523929e-01 0.0000000000000000e+00  9.0298202910628234e-01 -4.6392946249520994e-01 0.0000000000000000e+00  8.1801567811140688e-02 -1.1429652929866696e+00 0.0000000000000000e+00  8.3698373314289298e-01 -5.2788768600862679e-01 0.0000000000000000e+00  9.0535630380586973e-01 -4.3396695603730212e-01 0.0000000000000000e+00  6.7907701541882537e-01 -7.4578130836907908e-01 0.0000000000000000e+00  8.1186208645871882e-01 -5.9324636822021282e-01 0.0000000000000000e+00  4.6573942659739048e-01 -9.0608850973240873e-01 0.0000000000000000e+00  1.0687249020809348e+00 -4.8981535504932550e-01 0.0000000000000000e+00  3.4006076284543535e-01 1.6139826267288231e+00 0.0000000000000000e+00  3.0252008348638565e-01 -1.2227013521305165e-01 0.0000000000000000e+00  1.1283537734741789e+00 -3.7321513145289248e-01 0.0000000000000000e+00  8.1312934949156512e-01 -5.4126305717858048e-01 0.0000000000000000e+00  8.6447442493227278e-01 -5.1270053515778236e-01 0.0000000000000000e+00  9.4828190467907658e-01 -3.1849771603054872e-01 0.0000000000000000e+00  9.1235211188986665e-01 -4.2508449076098126e-01 0.0000000000000000e+00  1.0129175201135088e+00 -5.9105594681767938e-02 0.0000000000000000e+00  9.2432522920396665e-01 4.5507652178607888e-01 0.0000000000000000e+00  8.3040561723690864e-01 -7.4781416630915187e-01 0.0000000000000000e+00  1.0033332224300242e+00 2.1912322686072952e-01 0.0000000000000000e+00  8.5104244559786080e-01 5.5728062721246774e-01 0.0000000000000000e+00  9.9649117975711765e-01 1.6409579822733350e-01 0.0000000000000000e+00  9.8928957502644332e-01 -2.6834806382423965e-01 0.0000000000000000e+00  9.7326309924265830e-01 2.6098285474626837e-01 0.0000000000000000e+00  9.9570304538039323e-01 8.5843707026450389e-02 0.0000000000000000e+00  1.0071850364262054e+00 -1.7238464553432953e-01 0.0000000000000000e+00  8.1568323082435623e-01 8.0713695137875141e-01 0.0000000000000000e+00  9.0300237678879169e-01 -4.9422508840348978e-01 0.0000000000000000e+00  1.0036848138595287e+00 -5.7305876710221942e-02 0.0000000000000000e+00  9.4928095588841288e-01 3.4337906194127843e-01 0.0000000000000000e+00  9.6563663748939688e-01 2.5725681704466924e-01 0.0000000000000000e+00  9.0065877124949512e-01 4.3915473976847180e-01 0.0000000000000000e+00  7.4143552694922543e-01 7.0316568341481323e-01 0.0000000000000000e+00  1.0088321569424872e+00 1.6344943700158093e-01 0.0000000000000000e+00  8.7770882810049666e-01 4.3350516457610488e-01 0.0000000000000000e+00  1.9764714124972077e-01 1.0996886643323611e+00 0.0000000000000000e+00  8.3989816363737702e-01 5.7054689499189259e-01 0.0000000000000000e+00  6.7564016402873339e-01 7.4168311192347547e-01 0.0000000000000000e+00  7.9786708296155928e-01 6.0399693823625922e-01 0.0000000000000000e+00  7.1992450910386530e-01 6.9918679840687814e-01 0.0000000000000000e+00  8.6263281658373037e-01 5.1088819039966060e-01 0.0000000000000000e+00  7.9902412815358070e-01 5.9758677917205838e-01 0.0000000000000000e+00  2.6268707599120827e-01 1.0608492609655147e+00 0.0000000000000000e+00  9.3868941882494916e-01 3.9210512969463579e-01 0.0000000000000000e+00  8.8927473799009760e-01 4.7082627756529377e-01 0.0000000000000000e+00  4.8515449961280477e-01 9.1230135391475664e-01 0.0000000000000000e+00  6.5769546109391597e-01 7.5167559569868525e-01 0.0000000000000000e+00  6.9140642685019538e-01 7.2269551984294311e-01 0.0000000000000000e+00  6.9634441236514000e-01 7.1793120394248833e-01 0.0000000000000000e+00  6.4894364119951153e-01 7.6221589634428244e-01 0.0000000000000000e+00  4.1263260802303381e-01 9.3007195406914545e-01 0.0000000000000000e+00  7.4253062177843432e-01 6.7604931353746089e-01 0.0000000000000000e+00  6.8387758127451148e-01 7.3514088080609974e-01 0.0000000000000000e+00  3.3126026508613293e-01 9.6044540850287652e-01 0.0000000000000000e+00  4.5408481757935609e-01 8.8994100458801784e-01 0.0000000000000000e+00  4.2210503914736774e-01 9.0671835910298348e-01 0.0000000000000000e+00  4.1028358931041964e-01 9.1213331008785259e-01 0.0000000000000000e+00  3.5106909978937728e-01 9.3688467292917832e-01 0.0000000000000000e+00  2.5580699147438807e-01 9.6727303558623356e-01 0.0000000000000000e+00  2.5012056537869704e-01 9.6788970958700860e-01 0.0000000000000000e+00  1.8417293636086030e-01 9.8366711592099698e-01 0.0000000000000000e+00  1.2817203479858186e-01 1.0003495700444713e+00 0.0000000000000000e+00  8.5544253082971033e-02 9.1694092737956390e-01 0.0000000000000000e+00  1.9802450818467005e-02 1.3664632005470514e+00 0.0000000000000000e+00  2.0157255466961815e-02 -1.4172556999170314e+00 0.0000000000000000e+00  8.4978556499148011e-02 -8.7751889130195992e-01 0.0000000000000000e+00  1.4059779985716961e-01 -1.0111080769977729e+00 0.0000000000000000e+00  1.8437434756284485e-01 -9.8149132747977219e-01 0.0000000000000000e+00  2.3605427133391621e-01 -9.7154865414603353e-01 0.0000000000000000e+00  2.6816676456300531e-01 -9.6367118458187395e-01 0.0000000000000000e+00  3.2210300783893087e-01 -9.4679292500255152e-01 0.0000000000000000e+00  3.4528711810237933e-01 -9.3872983250876985e-01 0.0000000000000000e+00  4.1536951504988706e-01 -9.0998108188424998e-01 0.0000000000000000e+00  4.4770656977686729e-01 -8.9416011768833670e-01 0.0000000000000000e+00  3.9464680955266440e-01 -9.2057609327808554e-01 0.0000000000000000e+00  5.3645913906011611e-01 -8.4517213459322105e-01 0.0000000000000000e+00  5.6769835371801258e-01 -8.2338818453752782e-01 0.0000000000000000e+00  4.9427778656117122e-01 -8.7141941300543746e-01 0.0000000000000000e+00  6.3123991884377773e-01 -7.7688761689744623e-01 0.0000000000000000e+00  6.4255576790314983e-01 -7.6715322093521132e-01 0.0000000000000000e+00  4.0380347990037674e-01 -9.3577820763063524e-01 0.0000000000000000e+00  7.2377260595732740e-01 -6.9471865603690197e-01 0.0000000000000000e+00  8.0758669327301347e-01 -5.9861991625180377e-01 0.0000000000000000e+00  5.4087928323774315e-01 -8.5485676917543185e-01 0.0000000000000000e+00  7.1828209501083629e-01 -6.9668135711940160e-01 0.0000000000000000e+00  7.2209584063959853e-01 -6.9184953263693560e-01 0.0000000000000000e+00  6.9099069610773689e-01 -7.2192705182704686e-01 0.0000000000000000e+00  5.6773153075780802e-01 -8.4408553094947070e-01 0.0000000000000000e+00  8.7497726029288858e-01 -4.9477634176282254e-01 0.0000000000000000e+00  8.8309500396192631e-01 -4.8433034887365833e-01 0.0000000000000000e+00  2.2825709817515816e-01 -1.0817059659783428e+00 0.0000000000000000e+00  8.4268706517598257e-01 -5.4695983095510936e-01 0.0000000000000000e+00  9.0565977730332436e-01 -4.3571362199471353e-01 0.0000000000000000e+00  6.3305610525623490e-01 -8.0195597680391739e-01 0.0000000000000000e+00  8.7975829839865083e-01 -4.8622478695324700e-01 0.0000000000000000e+00  7.4316462163923924e-01 -6.8175346746534427e-01 0.0000000000000000e+00  9.1465334851484603e-01 -4.0951317324313752e-01 0.0000000000000000e+00  9.5878707377401906e-01 -3.0746037693930967e-01 0.0000000000000000e+00  6.3570982458268932e-01 -8.3254633257965738e-01 0.0000000000000000e+00  9.4386876943725995e-01 -3.4543790751358550e-01 0.0000000000000000e+00  9.8753099421229895e-01 -1.7363792452115287e-01 0.0000000000000000e+00  9.4294632876932649e-01 -3.4031424825460549e-01 0.0000000000000000e+00  9.8207026823646404e-01 -1.9216773849550772e-01 0.0000000000000000e+00  9.8785642232134430e-01 -1.5559298622630377e-01 0.0000000000000000e+00  9.8085186105738376e-01 -1.9106074835465223e-01 0.0000000000000000e+00  9.8471066171256338e-01 -2.1285224349878504e-01 0.0000000000000000e+00  1.2488978146499652e-01 -1.0158367117211815e+00 0.0000000000000000e+00  6.7406021583334252e-01 -7.3904770729010194e-01 0.0000000000000000e+00  8.0393675218801852e-01 5.9508060558325782e-01 0.0000000000000000e+00  1.0698066065996285e-01 9.8098306279222436e-01 0.0000000000000000e+00  6.6709937103055406e-01 7.4530381374607924e-01 0.0000000000000000e+00  9.5941027417288882e-01 2.8291408269985191e-01 0.0000000000000000e+00  7.7383399162911715e-01 -6.3368496191668200e-01 0.0000000000000000e+00  9.9965092370298003e-01 -3.7634234809847490e-02 0.0000000000000000e+00  9.6687694874665731e-01 -2.5620318181521495e-01 0.0000000000000000e+00  9.2025504480023190e-01 3.9186404617214882e-01 0.0000000000000000e+00  1.0002052376235355e+00 -2.5838449097223219e-02 0.0000000000000000e+00  9.4993866652737657e-01 3.1519676668814495e-01 0.0000000000000000e+00  8.7140773373421332e-01 -4.9109754231140024e-01 0.0000000000000000e+00  3.3517217508157965e-01 -9.4234592304323805e-01 0.0000000000000000e+00  5.3622882904123093e-01 -8.3829015490503656e-01 0.0000000000000000e+00  2.9572918643307716e-01 9.5561195442798796e-01 0.0000000000000000e+00  8.1548281798975664e-01 5.8103819162845594e-01 0.0000000000000000e+00  1.0008351495702632e+00 2.0448228895235190e-02 0.0000000000000000e+00  5.2546412080396709e-01 8.5108447775554419e-01 0.0000000000000000e+00  5.1992153609785274e-01 -8.5445275038618551e-01 0.0000000000000000e+00  7.1463725560719860e-01 -7.0152084025463712e-01 0.0000000000000000e+00  8.8468722402543376e-01 -4.6671473099630167e-01 0.0000000000000000e+00  8.7385500066975541e-01 4.8664622234565880e-01 0.0000000000000000e+00  8.5029577738803208e-01 -5.2816461424820271e-01 0.0000000000000000e+00  6.6798222035171745e-02 1.3780546787297734e+00 0.0000000000000000e+00  9.0823213503959854e-01 -4.1978126386361980e-01 0.0000000000000000e+00  6.9172896612764956e-01 7.2536637059526043e-01 0.0000000000000000e+00  1.0001728752986572e+00 1.5090454130708529e-02 0.0000000000000000e+00  1.0001754050982363e+00 1.1492326984613286e-02 0.0000000000000000e+00  8.0194503281871710e-01 -5.9791781890877405e-01 0.0000000000000000e+00  9.5938548277561442e-01 -2.8397754349739446e-01 0.0000000000000000e+00  8.9117275792129214e-01 -4.5537418976365035e-01 0.0000000000000000e+00  9.7591769034365572e-01 -2.2302816771317585e-01 0.0000000000000000e+00  7.3768432404732964e-01 -6.7603569079285042e-01 0.0000000000000000e+00  9.6986702711372164e-01 -2.4480568648576018e-01 0.0000000000000000e+00  1.0003259018691344e+00 1.7141573199834784e-02 0.0000000000000000e+00  9.5874056959306231e-01 -2.8558283253515887e-01 0.0000000000000000e+00  9.6047540613851590e-01 -2.8010416577474440e-01 0.0000000000000000e+00  9.9938324202608630e-01 -4.2940079381958103e-02 0.0000000000000000e+00  9.7678678149269393e-01 2.1584933989158259e-01 0.0000000000000000e+00  9.8472913091828529e-01 1.7605577957854296e-01 0.0000000000000000e+00  9.6449453587881684e-01 2.6592046873855368e-01 0.0000000000000000e+00  9.9785213829977604e-01 6.7054881850503262e-02 0.0000000000000000e+00  9.9800056833282558e-01 -6.8500660490316112e-02 0.0000000000000000e+00  9.1232654281467207e-01 -4.1231950180051419e-01 0.0000000000000000e+00  2.6994887937355200e-01 9.6052863278739120e-01 0.0000000000000000e+00  5.5235203359406693e-01 8.3425984914129736e-01 0.0000000000000000e+00  3.2761674305462235e-01 9.4510588104764282e-01 0.0000000000000000e+00  8.8014683050161835e-01 4.7800665139848708e-01 0.0000000000000000e+00  7.3134388406828277e-01 6.8273998528727187e-01 0.0000000000000000e+00  8.7538236231226230e-01 4.8420184029478375e-01 0.0000000000000000e+00  7.2526065651166305e-01 -6.9003168244144253e-01 0.0000000000000000e+00  5.4924999487356652e-01 -8.3619950524696596e-01 0.0000000000000000e+00  7.6152575682932366e-01 -6.5114649113622436e-01 0.0000000000000000e+00  3.6489099770951267e-01 -9.3125346585581370e-01 0.0000000000000000e+00  8.3873572649781514e-01 -5.4488730534967711e-01 0.0000000000000000e+00  9.2272469548002300e-01 -3.8667577693821814e-01 0.0000000000000000e+00  9.3810721016236009e-01 -3.4707338356876338e-01 0.0000000000000000e+00  8.8058133058262722e-01 -4.7426094560726906e-01 0.0000000000000000e+00  8.5711672328405197e-01 5.1544272712971873e-01 0.0000000000000000e+00  9.3056214936020965e-01 3.6683641714753301e-01 0.0000000000000000e+00  6.8784131953405947e-01 7.2601232349251177e-01 0.0000000000000000e+00  7.9324621745877466e-01 6.0904656364031995e-01 0.0000000000000000e+00  7.5645514563653660e-01 -6.5415593815459838e-01 0.0000000000000000e+00  6.5890412558127975e-01 -7.5235287063073830e-01 0.0000000000000000e+00  6.7084006417198627e-01 -7.4171093579925906e-01 0.0000000000000000e+00  5.3534270828995556e-01 -8.4477493328500219e-01 0.0000000000000000e+00  5.3472686454457630e-01 8.4518858823597232e-01 0.0000000000000000e+00  6.7562774538983483e-01 7.3724412958207997e-01 0.0000000000000000e+00  7.7397782013975047e-03 -1.0890533825209134e+00 0.0000000000000000e+00  1.9848752182550067e-01 9.8209747654965129e-01 0.0000000000000000e+00  1.9825227853197197e-01 -9.8211756262742300e-01 0.0000000000000000e+00  -2.5986930524327177e-04 3.0234214774667251e-01 0.0000000000000000e+00  5.2194075874708457e-01 -8.5323835626182132e-01 0.0000000000000000e+00  9.6853117362024010e-01 2.5379855985953637e-01 0.0000000000000000e+00  8.7784561779907200e-01 4.8044287585616802e-01 0.0000000000000000e+00  7.0898100459893987e-01 7.0609604855159880e-01 0.0000000000000000e+00  8.6085133002087999e-01 5.0983301378881252e-01 0.0000000000000000e+00  9.9415725782622344e-01 1.1360208833304797e-01 0.0000000000000000e+00  9.4343205317305789e-01 3.3296808650164939e-01 0.0000000000000000e+00  5.7920214462836650e-01 8.1703418454590204e-01 0.0000000000000000e+00  9.1018975427680682e-01 4.0753063465804079e-01 0.0000000000000000e+00  1.0025932004276235e+00 6.1574291843084328e-02 0.0000000000000000e+00  8.3427824871211287e-01 5.5147407473178456e-01 0.0000000000000000e+00  7.7655296032765442e-01 -6.3026371931681280e-01 0.0000000000000000e+00  8.7697534350438378e-01 4.8095593455059127e-01 0.0000000000000000e+00  9.5003471527653915e-01 3.1374394828265134e-01 0.0000000000000000e+00  7.9274396407574543e-01 6.1000320248213291e-01 0.0000000000000000e+00  9.6243229221883042e-01 2.7254283592962120e-01 0.0000000000000000e+00  4.8809670449887577e-01 8.7330858648763443e-01 0.0000000000000000e+00  5.0166844389878729e-01 8.6531791914466594e-01 0.0000000000000000e+00  3.7030453778804297e-02 -1.3796365374671742e+00 0.0000000000000000e+00  1.1975978384311374e-01 -1.0150885381711798e+00 0.0000000000000000e+00  5.7379745867738008e-01 -8.1952832316097290e-01 0.0000000000000000e+00  3.3827551441387277e-01 -9.4112186516001606e-01 0.0000000000000000e+00  3.3594582765426623e-01 -9.4207751913509463e-01 0.0000000000000000e+00  1.0017685443526108e+00 -1.4823601957683338e-02 0.0000000000000000e+00  2.1060268465921339e-01 1.0559989783990582e+00 0.0000000000000000e+00  3.9421734471467568e-01 -9.1915387965531936e-01 0.0000000000000000e+00  2.0558091083671004e-01 -9.7901167916645360e-01 0.0000000000000000e+00  1.8319018500477652e-01 9.8476352354425878e-01 0.0000000000000000e+00  3.7388230334184386e-01 9.2762449057720775e-01 0.0000000000000000e+00  1.0224312827143038e+00 -9.5344430764778679e-02 0.0000000000000000e+00  2.2584654981709976e-01 9.6828364531466926e-01 0.0000000000000000e+00  8.6544597675057136e-02 9.0261935578105312e-01 0.0000000000000000e+00  3.8396569273648484e-01 9.2352922825616335e-01 0.0000000000000000e+00  5.6725048275212209e-01 8.2372227815064614e-01 0.0000000000000000e+00  6.8929439282918470e-01 7.2479039820041702e-01 0.0000000000000000e+00  5.4225693435277611e-01 -8.4035574064202767e-01 0.0000000000000000e+00  3.7312515992376560e-01 -9.2793317530128749e-01 0.0000000000000000e+00  6.6868201650969872e-01 -7.4380825429004327e-01 0.0000000000000000e+00  9.8042605628454971e-01 -1.9965038853645020e-01 0.0000000000000000e+00  8.2890231275471038e-01 -5.6009634808647191e-01 0.0000000000000000e+00  1.0003406491867268e+00 1.1060888063304625e-02 0.0000000000000000e+00  9.750194