<?xml version="1.0"?>
<VTKFile type="UnstructuredGrid"  version="0.1"  >
<UnstructuredGrid>
<Piece  NumberOfPoints="2549" NumberOfCells="4928">
<Points>
<DataArray  type="Float64"  NumberOfComponents="3"  format="ascii">1.654968721301295 -0.0414305026356734 0  1.649881996161928 0.004441165887254635 0  1.637510216677464 0.04486869557789747 0  1.629145009036753 0.08869703654181618 0  1.617609735008415 0.1320319912993031 0  1.605356132066668 0.1773520907764659 0  1.588833669700942 0.2221750184757429 0  1.574678119369718 0.2701454835916547 0  1.545708328502425 0.3141095528690343 0  1.515375722039668 0.337875235695295 0  1.496732066850011 0.3948027669871815 0  1.46580600442086 0.4344290585709065 0  1.435991593983637 0.4782884536727182 0  1.403034609741061 0.5188761693167746 0  1.368879204892598 0.5581403136599157 0  1.334947275655398 0.5998509779172927 0  1.291591501398051 0.6347098089569359 0  1.254989708250082 0.6542173320090857 0  1.219553304804916 0.7028436481938516 0  1.17919794216902 0.7373218456431533 0  1.138697313792127 0.7753871262296759 0  1.096540704059597 0.811053022907836 0  1.053649833721384 0.8465077148862732 0  1.010202397777145 0.8827606603612527 0  0.9626124316196549 0.9180387073002779 0  0.9160871631457553 0.9437624509646797 0  0.8695965282894607 0.9755428932134856 0  0.8215887270553762 1.006142496095015 0  0.7724952150730255 1.035901254921929 0  0.7222935372335589 1.064534459267102 0  0.6710557691421623 1.091733748991892 0  0.6189511410990317 1.11800168185022 0  0.564910066812916 1.141565794011128 0  0.5114416157695341 1.161902283506422 0  0.4566305400013499 1.182918609515399 0  0.401091109257407 1.200885119152173 0  0.3448784154221791 1.216953722085721 0  0.2881376216129668 1.230736019578831 0  0.2309168574751261 1.242191582969275 0  0.1734171383693104 1.251773474044997 0  0.1150901473698032 1.25801378231793 0  0.05746246549014003 1.262006611417128 0  -0.0007563610025277604 1.264790549067546 0  -0.05898774184910028 1.264734099984353 0  -0.1172803153600678 1.262452362416507 0  -0.1755199355822942 1.257562624209756 0  -0.2335619181249877 1.250325736776114 0  -0.2913906734666981 1.239841903720291 0  -0.3483087148622907 1.228525836498457 0  -0.4059947858480411 1.213975607961907 0  -0.4622703570100836 1.195641461518549 0  -0.517825960264503 1.17519699051717 0  -0.5724253633887376 1.152342072403805 0  -0.6259708418230671 1.127089595132003 0  -0.6783494423074354 1.100538265444928 0  -0.7293707694709261 1.069886357821093 0  -0.7783044782144363 1.044974291838955 0  -0.8296346995152193 1.01413051640859 0  -0.8769921480698312 0.9799535364173415 0  -0.9235203955706398 0.9461467372151893 0  -0.9689634121526622 0.9118125743313398 0  -1.013005709707776 0.8754344777808036 0  -1.056249133456664 0.8418169537686129 0  -1.096834176169735 0.7967448047715572 0  -1.134207552073474 0.7710439347285259 0  -1.178541840245821 0.7411668587976394 0  -1.216881525192669 0.7047063099114059 0  -1.255318169163725 0.6712042387707572 0  -1.292677645214955 0.6365155178782776 0  -1.330566259026944 0.606389961263082 0  -1.36547945812689 0.5685310060705314 0  -1.40937998056103 0.5610194032753927 0  -1.458365254008974 0.5186753261886601 0  -1.471629487657176 0.4477402283918387 0  -1.506217436694652 0.4081770677042547 0  -1.53017470314853 0.3592497613626812 0  -1.557182141456172 0.3134238455039881 0  -1.57051844682945 0.2573422072622031 0  -1.593614005020362 0.2165791881077571 0  -1.577981844160112 0.1422442719237222 0  -1.603726173678386 0.1307898662179017 0  -1.625746938239356 0.080918406629998 0  -1.59357644920735 0.03334134746259249 0  -1.602163837273943 -0.006576213450548728 0  -1.59293485984525 -0.04451441688164095 0  -1.604656859145513 -0.08245468085520084 0  -1.597079834231911 -0.1229010253609168 0  -1.633627287087065 -0.1712671920178331 0  -1.611509382351591 -0.2221482082064088 0  -1.585979484475455 -0.2318978021018017 0  -1.605639555119003 -0.3108832964543383 0  -1.582306332122401 -0.3521668328531842 0  -1.56993781449516 -0.4103587581013717 0  -1.542632567781647 -0.4571632897475153 0  -1.518305843525312 -0.5069484782133079 0  -1.481910110572376 -0.5456681645538815 0  -1.469257719027018 -0.615665335867704 0  -1.422410891357435 -0.6641390000478766 0  -1.377161808611563 -0.6691885622860356 0  -1.34268441452715 -0.7084012448496353 0  -1.304736256715811 -0.7385290319129352 0  -1.267744034634373 -0.7739694292234405 0  -1.229580207610538 -0.8081269550952671 0  -1.191655085343041 -0.8455409730454215 0  -1.147705285325042 -0.8755658232520229 0  -1.111479748999527 -0.9022578728693594 0  -1.071517015220202 -0.9519171012034923 0  -1.028533440222872 -0.9872457314771366 0  -0.984849655068697 -1.02634264595909 0  -0.9397675297762736 -1.063228316165402 0  -0.8935167918020746 -1.099768912527173 0  -0.8460948140770397 -1.136316449397145 0  -0.7959925475963481 -1.168547444195192 0  -0.7481134356092414 -1.200037837821456 0  -0.69585333785 -1.238300775035997 0  -0.6422891237090527 -1.268027226475882 0  -0.5874113623630943 -1.297175899430788 0  -0.5313703102838775 -1.322962047072604 0  -0.4742262072114949 -1.346020328404425 0  -0.4163469238023846 -1.366993070125025 0  -0.3561983785938408 -1.382704842880673 0  -0.2979983082859942 -1.394061106428458 0  -0.2384878138845726 -1.406061793958866 0  -0.1786239722077701 -1.414143511775849 0  -0.1184285896392466 -1.419616596555985 0  -0.05807061771354357 -1.421994343469281 0  0.002311240670603197 -1.42146877384787 0  0.06266338886773566 -1.417803226793961 0  0.1228136367650088 -1.410823279606315 0  0.1821847764318726 -1.401170436707957 0  0.2411614852333623 -1.389347237210253 0  0.2996209344846276 -1.375013261640925 0  0.3574587718399833 -1.358351340887714 0  0.4145818985644499 -1.339218512487642 0  0.4708143138441115 -1.318434153543262 0  0.5261532992860742 -1.293854144439352 0  0.5794922833930982 -1.272897409817299 0  0.6349859447724491 -1.246968224082663 0  0.6873054722117777 -1.217353576936681 0  0.7387818052342565 -1.187479462437087 0  0.7891380347044715 -1.156251765725005 0  0.8382970822952371 -1.124060442172692 0  0.8863017698962741 -1.091121297048951 0  0.932731950470744 -1.05735671637437 0  0.979289719247322 -1.029672295304463 0  1.02670619896313 -0.9922123852493083 0  1.070062213995105 -0.9541530997923691 0  1.112775913868949 -0.9168796963078999 0  1.154763689518013 -0.8795322090306825 0  1.195015563880605 -0.8396944932367948 0  1.235182360064408 -0.8038568089578416 0  1.270162612227472 -0.7528748224111588 0  1.306257220890899 -0.732626983962373 0  1.349485569457414 -0.6968764915743333 0  1.383058793782296 -0.6539185488243218 0  1.416894679475788 -0.6135630978124452 0  1.449485239390975 -0.571836219258944 0  1.478853781989861 -0.5267805263173649 0  1.509446125609567 -0.4862244186514148 0  1.527224860674571 -0.4275763617603835 0  1.55728514249567 -0.4035914790352085 0  1.585576873929421 -0.3584106350083923 0  1.598623770345739 -0.3092358629903213 0  1.614090610662321 -0.2633436488151327 0  1.625119658388044 -0.2169984805494989 0  1.634783451128176 -0.1724891070898303 0  1.642083645790792 -0.1282510378768627 0  1.650740919859949 -0.08643013050957954 0  -0.103557375867331 0.7488004072853137 0  0.6127144780407794 -0.704271836628876 0  -0.7703940855752542 -0.6224191653314184 0  -0.08108096355649318 -0.8736370970987706 0  0.6073855242727035 0.584399721786595 0  1.179000902546041 0.1907883717487655 0  -0.7813367675665008 0.4967387532460963 0  -1.268788461660155 -0.05305153555430438 0  1.185471755708007 -0.2895405036343351 0  -1.07506146969551 -0.4562648110168055 0  -0.8261094241889394 -0.06994729031487464 0  -0.4929870995173276 -0.2397579727951144 0  -1.083400644179429 0.3306348607673376 0  0.2829667524363039 -0.8477326134537044 0  0.1362964903097733 -0.2974769383571637 0  0.2463645851142552 0.7121411717392439 0  0.3435206949632667 0.1791738317015433 0  0.6689854842191136 -0.0539300869226628 0  -0.4236577696836326 -0.7725174717810011 0  -0.4588767805450898 0.6619556841785754 0  -0.2856979399326212 0.2321191402641349 0  0.9308271251642787 -0.4875757816790594 0  0.924498323469342 0.3816245910601741 0  0.4131710064684349 -0.3254927488329425 0  0.02691702639887533 0.2270851980583044 0  -0.5577836367098115 0.1751953291647659 0  -0.1810656410305722 -0.2914221039083025 0  0.9610180912308822 -0.05153116518292861 0  1.374671775591139 -0.04640841495251858 0  0.7721585379640795 -0.5930770704488416 0  0.7913926619922289 -0.2789556070880061 0  0.6323006054426265 -0.376000474100711 0  0.5398844051906744 -0.1861099049276552 0  0.507371241292761 -0.5194873123958839 0  0.9393147304299605 -0.2681604304269964 0  0.8145169727230387 -0.05270133115133116 0  -0.9461094960883927 0.13795246007402 0  -1.17376765664757 0.1384833875600847 0  -1.052538957356107 -0.06059900274824595 0  -0.9416897492400548 -0.2704869991135176 0  -1.17126141355093 -0.2538321908492915 0  -1.354488279644373 -0.3520455126476842 0  -1.42897172407683 -0.1637702330497586 0  -1.42467214088724 0.06401101506605358 0  -1.345477677919145 0.2494051162744781 0  -0.1316526287441283 -0.5820244324096168 0  -0.2962234989266712 -0.5369224665690278 0  -0.2536213764242202 -0.8288646874092408 0  -0.3362873882659962 -0.2668914674183946 0  -0.4547967204470845 -0.5031669307060711 0  -1.27240407101605 -0.5411426354665106 0  -1.269760610865991 0.4306571772988085 0  0.346917725230015 -0.5840063028641274 0  0.2738597708173829 -0.3130251203046701 0  0.2043658037052952 -0.5753603349225762 0  -0.9313998441360125 0.4085309660779993 0  -0.7955472039518586 0.2114562843420779 0  1.374395886240288 -0.3623925297350268 0  1.242603743074287 -0.5232408757221221 0  1.231626866771749 0.4247527253835759 0  1.365011749923794 0.2682594353878069 0  -0.770784997951048 -0.8993090876376371 0  -0.9528758434549401 -0.7666292045667318 0  -0.9518846157890626 0.6508027457249671 0  -0.7702565939936221 0.7727858322788562 0  0.7858131890081712 -0.8817774966284549 0  0.589985601930349 -0.9893926323550437 0  0.5810300453178624 0.864655529296418 0  0.7754514429977515 0.7658968743000253 0  0.009903551034100341 
[...]
<PointData  Vectors="PointNormal"> 
<DataArray  type="Float64"  Name="PointNormal"  NumberOfComponents="3" format="ascii">9.9996487877183760e-01 8.3810036883517555e-03 0.0000000000000000e+00  9.7932347932311592e-01 2.0230057549712166e-01 0.0000000000000000e+00  9.7067237718160260e-01 2.4040618997150776e-01 0.0000000000000000e+00  9.7493326902296973e-01 2.2249746279943436e-01 0.0000000000000000e+00  9.6584524202941224e-01 2.5911960259529987e-01 0.0000000000000000e+00  9.5275556565487252e-01 3.0373809789630268e-01 0.0000000000000000e+00  9.4921852382307015e-01 3.1461753611512461e-01 0.0000000000000000e+00  9.0695829095770308e-01 4.2122043927506930e-01 0.0000000000000000e+00  7.3548375456960535e-01 6.7754235791144191e-01 0.0000000000000000e+00  8.1887805233081890e-01 5.7396753863862782e-01 0.0000000000000000e+00  8.8252308272401769e-01 4.7026908090931996e-01 0.0000000000000000e+00  8.0810917243153624e-01 5.8903273714795990e-01 0.0000000000000000e+00  8.0238446767648086e-01 5.9680747819672175e-01 0.0000000000000000e+00  7.6550563291037521e-01 6.4342919267195664e-01 0.0000000000000000e+00  7.6521238506230083e-01 6.4377791647994975e-01 0.0000000000000000e+00  7.0507563182883126e-01 7.0913211279787247e-01 0.0000000000000000e+00  5.5088885858692749e-01 8.3457861552090606e-01 0.0000000000000000e+00  6.5588406661198262e-01 7.5486163709949405e-01 0.0000000000000000e+00  7.3388834670398306e-01 6.7927011900428413e-01 0.0000000000000000e+00  6.6740342626813376e-01 7.4469635866274764e-01 0.0000000000000000e+00  6.6560085485331855e-01 7.4630791367808214e-01 0.0000000000000000e+00  6.4151886146105497e-01 7.6710726133293239e-01 0.0000000000000000e+00  6.3890170745494101e-01 7.6928837779545389e-01 0.0000000000000000e+00  6.1834782814538003e-01 7.8590455109249202e-01 0.0000000000000000e+00  5.4088174391702992e-01 8.4109865003890738e-01 0.0000000000000000e+00  5.2468572562781679e-01 8.5129600570096142e-01 0.0000000000000000e+00  5.5098331880267748e-01 8.3451625652301531e-01 0.0000000000000000e+00  5.2796203498259697e-01 8.4926797279600452e-01 0.0000000000000000e+00  5.0694893822174558e-01 8.6197608669605486e-01 0.0000000000000000e+00  4.8221405351717450e-01 8.7605342679001919e-01 0.0000000000000000e+00  4.5954708720813775e-01 8.8815340715358182e-01 0.0000000000000000e+00  4.2509680980137132e-01 9.0514788973774696e-01 0.0000000000000000e+00  3.7770549791555369e-01 9.2592578365890843e-01 0.0000000000000000e+00  3.5675853226748194e-01 9.3419663329213087e-01 0.0000000000000000e+00  3.3301998352904788e-01 9.4291976889357498e-01 0.0000000000000000e+00  2.9135931972922524e-01 9.5661368734036167e-01 0.0000000000000000e+00  2.5549195703106981e-01 9.6681118109609898e-01 0.0000000000000000e+00  2.1621482729677738e-01 9.7634581397014475e-01 0.0000000000000000e+00  1.8036367766554773e-01 9.8359999175424895e-01 0.0000000000000000e+00  1.3543648006848577e-01 9.9078603132394771e-01 0.0000000000000000e+00  8.7766435112179214e-02 9.9614108080517372e-01 0.0000000000000000e+00  5.8445779791524613e-02 9.9829058436136753e-01 0.0000000000000000e+00  2.3404223790190151e-02 9.9972608363930304e-01 0.0000000000000000e+00  -2.0044793266976613e-02 9.9979908294761122e-01 0.0000000000000000e+00  -6.1404045111888253e-02 9.9811299122088237e-01 0.0000000000000000e+00  -1.0371616543131956e-01 9.9460693594415628e-01 0.0000000000000000e+00  -1.5111223464273121e-01 9.8851661217264331e-01 0.0000000000000000e+00  -1.8669677585954850e-01 9.8241758630617437e-01 0.0000000000000000e+00  -2.1985508677497506e-01 9.7553254216308338e-01 0.0000000000000000e+00  -2.7732898698051589e-01 9.6077501683815703e-01 0.0000000000000000e+00  -3.2762055598910561e-01 9.4480938357606781e-01 0.0000000000000000e+00  -3.6583094531292137e-01 9.3068132002928594e-01 0.0000000000000000e+00  -4.0643986889737543e-01 9.1367753226764004e-01 0.0000000000000000e+00  -4.3938995102923051e-01 8.9829642709660740e-01 0.0000000000000000e+00  -4.8387075616334729e-01 8.7513946964464506e-01 0.0000000000000000e+00  -4.8463105369011472e-01 8.7471866437112744e-01 0.0000000000000000e+00  -4.8467046013790138e-01 8.7469683037593948e-01 0.0000000000000000e+00  -5.5061535579188792e-01 8.3475908498570572e-01 0.0000000000000000e+00  -5.8650613909004279e-01 8.0994478133369785e-01 0.0000000000000000e+00  -5.9534369443379598e-01 8.0347114789388607e-01 0.0000000000000000e+00  -6.1997542077188894e-01 7.8462123195763644e-01 0.0000000000000000e+00  -6.2536266379896210e-01 7.8033424807979967e-01 0.0000000000000000e+00  -6.8110582877636461e-01 7.3218498346173522e-01 0.0000000000000000e+00  -6.5943857148470386e-01 7.5175845218940696e-01 0.0000000000000000e+00  -5.6274489208918022e-01 8.2663062272549337e-01 0.0000000000000000e+00  -6.2617608122111890e-01 7.7968167562574064e-01 0.0000000000000000e+00  -6.7325069931752635e-01 7.3941429244264811e-01 0.0000000000000000e+00  -6.6882618493702073e-01 7.4341881489681860e-01 0.0000000000000000e+00  -6.5187065669760669e-01 7.5833017013477122e-01 0.0000000000000000e+00  -6.8076258685111934e-01 7.3250412991584701e-01 0.0000000000000000e+00  -4.7737035571607755e-01 8.7870219271577188e-01 0.0000000000000000e+00  -4.2696741207392302e-01 9.0426701201962290e-01 0.0000000000000000e+00  -8.6711181137493676e-01 4.9811354787244666e-01 0.0000000000000000e+00  -8.9973706360659700e-01 4.3643237319495254e-01 0.0000000000000000e+00  -8.3267896955978904e-01 5.5375602358154796e-01 0.0000000000000000e+00  -8.8047072593330455e-01 4.7410051758512106e-01 0.0000000000000000e+00  -9.2754469423124175e-01 3.7371224251216623e-01 0.0000000000000000e+00  -9.3069986261396109e-01 3.6578376909091243e-01 0.0000000000000000e+00  -9.8814924015397354e-01 1.5349618621687205e-01 0.0000000000000000e+00  -8.9045745460936521e-01 4.5506650231654100e-01 0.0000000000000000e+00  -7.0810451888213632e-01 7.0610763367825036e-01 0.0000000000000000e+00  -9.9600860644205536e-01 -8.9257245607037503e-02 0.0000000000000000e+00  -9.8175228973962991e-01 -1.9016424898227813e-01 0.0000000000000000e+00  -9.9991069101281016e-01 -1.3364505164216101e-02 0.0000000000000000e+00  -9.9953449013335915e-01 3.0509064781563761e-02 0.0000000000000000e+00  -9.9836260409110755e-01 5.7202366668019297e-02 0.0000000000000000e+00  -9.7344791817480736e-01 2.2890860752958517e-01 0.0000000000000000e+00  -9.9298443560755167e-01 1.1824512946059110e-01 0.0000000000000000e+00  -6.9092533764544839e-01 -7.2292612195128436e-01 0.0000000000000000e+00  -8.8652126111242313e-01 -4.6268785762719000e-01 0.0000000000000000e+00  -9.9086874156366300e-01 -1.3483003000831414e-01 0.0000000000000000e+00  -9.3521444562870737e-01 -3.5408182767178203e-01 0.0000000000000000e+00  -9.3277029477848972e-01 -3.6047132643089602e-01 0.0000000000000000e+00  -8.8171338943329203e-01 -4.7178543734843681e-01 0.0000000000000000e+00  -8.2279122282532802e-01 -5.6834373722387532e-01 0.0000000000000000e+00  -8.9308169458816067e-01 -4.4989452851922895e-01 0.0000000000000000e+00  -8.8994177417798392e-01 -4.5607415907168231e-01 0.0000000000000000e+00  -4.4107780133085445e-01 -8.9746887030868061e-01 0.0000000000000000e+00  -4.6209156009270669e-01 -8.8683222206406576e-01 0.0000000000000000e+00  -6.8913590425384330e-01 -7.2463211733143440e-01 0.0000000000000000e+00  -6.5750288466552076e-01 -7.5345202677842671e-01 0.0000000000000000e+00  -6.7945381654944670e-01 -7.3371827779904109e-01 0.0000000000000000e+00  -6.8480535212130689e-01 -7.2872603199420072e-01 0.0000000000000000e+00  -6.3574638328422550e-01 -7.7189800889821358e-01 0.0000000000000000e+00  -5.7873551881493046e-01 -8.1551529676764078e-01 0.0000000000000000e+00  -6.9188418766661797e-01 -7.2200849777333242e-01 0.0000000000000000e+00  -7.1075114152998919e-01 -7.0344354060138847e-01 0.0000000000000000e+00  -6.5107641774848257e-01 -7.5901218583880681e-01 0.0000000000000000e+00  -6.5023152891098013e-01 -7.5973611129792240e-01 0.0000000000000000e+00  -6.2660574313245299e-01 -7.7933641174618951e-01 0.0000000000000000e+00  -6.1519136614609404e-01 -7.8837781743229085e-01 0.0000000000000000e+00  -5.7624935441695924e-01 -8.1727393298332818e-01 0.0000000000000000e+00  -5.4527206757262969e-01 -8.3825913196640423e-01 0.0000000000000000e+00  -5.7030790314108382e-01 -8.2143100478057196e-01 0.0000000000000000e+00  -5.3905837279793734e-01 -8.4226840776348721e-01 0.0000000000000000e+00  -4.7719085921623094e-01 -8.7879968359147431e-01 0.0000000000000000e+00  -4.4372705784876332e-01 -8.9616198208408748e-01 0.0000000000000000e+00  -3.9621210818072139e-01 -9.1815900874030976e-01 0.0000000000000000e+00  -3.5749417508791492e-01 -9.3391536810259812e-01 0.0000000000000000e+00  -2.9702167249786937e-01 -9.5487073788370347e-01 0.0000000000000000e+00  -2.2223391241878029e-01 -9.7499337852676826e-01 0.0000000000000000e+00  -1.9459607499839776e-01 -9.8088346280035632e-01 0.0000000000000000e+00  -1.6581971363367889e-01 -9.8615608428404722e-01 0.0000000000000000e+00  -1.1219480258514278e-01 -9.9368623129883449e-01 0.0000000000000000e+00  -6.4977398125492497e-02 -9.9788673592389288e-01 0.0000000000000000e+00  -1.5334321197307635e-02 -9.9988242238446112e-01 0.0000000000000000e+00  3.4675719264219397e-02 -9.9939861641564676e-01 0.0000000000000000e+00  8.7979424202244416e-02 -9.9612229214943360e-01 0.0000000000000000e+00  1.3790890285447144e-01 -9.9044491745552210e-01 0.0000000000000000e+00  1.7854953094505294e-01 -9.8393092491256806e-01 0.0000000000000000e+00  2.1740056892832318e-01 -9.7608247224793532e-01 0.0000000000000000e+00  2.5753318222732718e-01 -9.6626945519966956e-01 0.0000000000000000e+00  2.9727818935944189e-01 -9.5479090806897182e-01 0.0000000000000000e+00  3.3218457360671011e-01 -9.4321440248637434e-01 0.0000000000000000e+00  3.7650334283798026e-01 -9.2641525939063973e-01 0.0000000000000000e+00  3.8589926550393888e-01 -9.2254092423237277e-01 0.0000000000000000e+00  3.9469464061587195e-01 -9.1881235335029521e-01 0.0000000000000000e+00  4.5830435688935128e-01 -8.8879531752605345e-01 0.0000000000000000e+00  4.9727638372914862e-01 -8.6759218425782314e-01 0.0000000000000000e+00  5.1453771209314680e-01 -8.5746775031714750e-01 0.0000000000000000e+00  5.3746831237462978e-01 -8.4328394576985011e-01 0.0000000000000000e+00  5.5683902116415551e-01 -8.3062043347665437e-01 0.0000000000000000e+00  5.7701442550102344e-01 -8.1673395470233989e-01 0.0000000000000000e+00  5.5020296295867610e-01 -8.3503095724140297e-01 0.0000000000000000e+00  5.6673831371988448e-01 -8.2389786002995646e-01 0.0000000000000000e+00  6.4002311517148702e-01 -7.6835565465882094e-01 0.0000000000000000e+00  6.5860230281350884e-01 -7.5249120043276474e-01 0.0000000000000000e+00  6.6106075845883205e-01 -7.5033237543493603e-01 0.0000000000000000e+00  6.8426919618943971e-01 -7.2922950238334294e-01 0.0000000000000000e+00  6.8482535599639915e-01 -7.2870723324556430e-01 0.0000000000000000e+00  7.5060059108774113e-01 -6.6075619759388837e-01 0.0000000000000000e+00  6.7453279040009628e-01 -7.3824488801146448e-01 0.0000000000000000e+00  5.6555866449559100e-01 -8.2470806775122762e-01 0.0000000000000000e+00  7.1680299802349212e-01 -6.9727574317807262e-01 0.0000000000000000e+00  7.7721747820660936e-01 -6.2923206495708628e-01 0.0000000000000000e+00  7.7731364633970190e-01 -6.2911326103816678e-01 0.0000000000000000e+00  8.1366503583053673e-01 -5.8133399132245078e-01 0.0000000000000000e+00  8.1852361408565821e-01 -5.7447288289714116e-01 0.0000000000000000e+00  8.9143267423256944e-01 -4.5315316098485930e-01 0.0000000000000000e+00  8.2767761564107278e-01 -5.6120385295069786e-01 0.0000000000000000e+00  7.4624203988189730e-01 -6.6567470878267920e-01 0.0000000000000000e+00  9.1736073976161081e-01 -3.9805687174577215e-01 0.0000000000000000e+00  9.5761080901335693e-01 -2.8806516356682915e-01 0.0000000000000000e+00  9.6123483389720310e-01 -2.7573101766507258e-01 0.0000000000000000e+00  9.7507995180128149e-01 -2.2185375271834062e-01 0.0000000000000000e+00  9.8225393417356588e-01 -1.8755588180740185e-01 0.0000000000000000e+00  9.8314971364640036e-01 -1.8280218969421824e-01 0.0000000000000000e+00  9.8893470908948600e-01 -1.4835141104180163e-01 0.0000000000000000e+00  0.0000000000000000e+00 0.0000000000000000e+00 0.0000000000000000e+00  0.0000000000000000e+00 0.0000000000000000e+00 0.0000000000000000e+00  0.0000000000000000e+00 0.0000000000000000e+00 0.0000000000000000e+00  0.0000000000000000e+00 0.0000000000000000e+00 0.0000000000000000e+00  0.0000000000000000e+00 0.0000000000000000e+00 0.0000000000000000e+00  0.0000000000000000e+00 0.0000000000000000e+00 0.0000000000000000e+00  0.0000000000000000e+00 0.0000000000000000e+00 0.0000000000000000e+00  0.0000000000000000e+00 0.0000000000000000e+00 0.0000000000000000e+00  0.0000000000000000e+00 0.0000000000000000e+00 0.0000000000000000e+00  0.0000000000000000e+00 0.0000000000000000e+00 0.0000000000000000e+00  0.0000000000000000e+00 0.0000000000000000e+00 0.0000000000000000e+00  0.0000000000000000e+00 0.0000000000000000e+00 0.0000000000000000e+00  0.0000000000000000e+00 0.0000000000000000e+00 0.0000000000000000e+00  0.0000000000000000e+00 0.0000000000000000e+00 0.0000000000000000e+00  0.0000000000000000e+00 0.0000000000000000e+00 0.0000000000000000e+00  0.0000000000000000e+00 0.0000000000000000e+00 0.0000000000000000e+00  0.0000000000000000e+00 0.0000000000000000e+00 0.0000000000000000e+00  0.0000000000000000e+00 0.0000000000000000e+00 0.0000000000000000e+00  0.0000000000000000e+00 0.0000000000000000e+00 0.0000000000000000e+00  0.0000000000000000e+00 0.0000000000000000e+00 0.0000000000000000e+00  0.0000000000000000e+00 0.0000000000000000e+00 0.0000000000000000e+00  0.0000000000000000e+00 0.0000000000000000e+00 0.0000000000000000e+00  0.0000000000000000e+00 0.0000000000000000e+00 0.0000000000000000e+00  0.0000000000000000e+00 0.0000000000000000e+00 0.0000000000000000e+00  0.0000000000000000e+00 0.0000000000000000e+00 0.0000000000000000e+00  0.0000000000000000e+00 0.0000000000000000e+00 0.0000000000000000e+00  0.0000000000000000e+00 0.0000000000000000e+00 0.0000000000000000e+00  0.0000000000000000e+00 0.0000000000000000e+00 0.0000000000000000e+00  0.0000000000000000e+00 0.0000000000000000e+00 0.0000000000000000e+00  0.0000000000000000e+00 0.0000000000000000e+00 0.0000000000000000e+00  0.0000000000000000e+00 0.0000000000000000e+00 0.0000000000000000e+00  0.0000000000000000e+00 0.0000000000000000e+00 0.0000000000000000e+00  0.0000000000000000e+00 0.0000000000000000e+00 0.0000000000000000e+00  0.0000000000000000e+00 0.0000000000000000e+00 0.0000000000000000e+00  0.0000000000000000e+00 0.0000000000000000e+00 0.0000000000000000e+00  0.0000000000000000e+00 0.0000000000000000e+00 0.0000000000000000e+00  0.0000000000000000e+00 0.0000000000000000e+00 0.0000000000000000e+00  0.0000000000000000e+00 0.0000000000000000e+00 0.0000000000000000e+00  0.0000000000000000e+00 0.0000000000000000e+00 0.0000000000000000e+00  0.0000000000000000e+00 0.0000000000000000e+00 0.0000000000000000e+00  0.0000000000000000e+00 0.0000000000000000e+00 0.0000000000000000e+00  0.0000000000000000e+00 0.0000000000000000e+00 0.0000000000000000e+00  0.0000000000000000e+00 0.0000000000000000e+00 0.0000000000000000e+00  0.0000000000000000e+00 0.0000000000000000e+00 0.0000000000000000e+00  0.0000000000000000e+00 0.0000000000000000e+00 0.0000000000000000e+00  0.0000000000000000e+00 0.0000000000000000e+00 0.0000000000000000e+00  0.0000000000000000e+00 0.0000000000000000e+00 0.0000000000000000e+00  0.0000000000000000e+00 0.0000000000000000e+00 0.0000000000000000e+00  0.0000000000000000e+00 0.0000000000000000e+00 0.0000000000000000e+00  0.0000000000000000e+00 0.0000000000000000e+00 0.0000000000000000e+00  0.0000000000000000e+00 0.0000000000000000e+00 0.0000000000000000e+00  0.0000000000000000e+00 0.0000000000000000e+00 0.0000000000000000e+00  0.0000000000000000e+00 0.0000000000000000e+00 0.0000000000000000e+00  0.0000000000000000e+00 0.0000000000000000e+00 0.0000000000000000e+00  0.0000000000000000e+00 0.0000000000000000e+00 0.0000000000000000e+00  0.0000000000000000e+00 0.0000000000000000e+00 0.0000000000000000e+00  0.0000000000000000e+00 0.0000000000000000e+00 0.0000000000000000e+00  0.0000000000000000e+00 0.0000000000000000e+00 0.0000000000000000e+00  0.0000000000000000e+00 0.0000000000000000e+00 0.0000000000000000e+00  0.0000000000000000e+00 0.0000000000000000e+00 0.0000000000000000e+00  0.0000000000000000e+00 0.0000000000000000e+00 0.0000000000000000e+00  0.0000000000000000e+00 0.0000000000000000e+00 0.0000000000000000e+00  0.0000000000000000e+00 0.0000000000000000e+00 0.0000000000000000e+00  0.0000000000000000e+00 0.0000000000000000e+00 0.0000000000000000e+00  0.0000000000000000e+00 0.0000000000000000e+00 0.0000000000000000e+00  0.0000000000000000e+00 0.0000000000000000e+00 0.0000000000000000e+00  0.0000000000000000e+00 0.0000000000000000e+00 0.0000000000000000e+00  0.0000000000000000e+00 0.0000000000000000e+00 0.0000000000000000e+00  0.0000000000000000e+00 0.0000000000000000e+00 0.0000000000000000e+00  0.0000000000000000e+00 0.0000000000000000e+00 0.0000000000000000e+00  0.0000000000000000e+00 0.0000000000000000e+00 0.0000000000000000e+00  0.0000000000000000e+00 0.0000000000000000e+00 0.0000000000000000e+00  0.0000000000000000e+00 0.0000000000000000e+00 0.0000000000000000e+00  0.0000000000000000e+00 0.0000000000000000e+00 0.0000000000000000e+00  0.0000000000000000e+00 0.0000000000000000e+00 0.0000000000000000e+00  0.0000000000000000e+00 0.0000000000000000e+00 0.0000000000000000e+00  0.0000000000000000e+00 0.0000000000000000e+00 0.0000000000000000e+00  0.0000000000000000e+00 0.0000000000000000e+00 0.0000000000000000e+00  0.0000000000000000e+00 0.0000000000000000e+00 0.0000000000000000e+00  0.0000000000000000e+00 0.0000000000000000e+00 0.0000000000000000e+00  0.0000000000000000e+00 0.0000000000000000e+00 0.0000000000000000e+00  0.0000000000000000e+00 0.0000000000000000e+00 0.0000000000000000e+00  0.0000000000000000e+00 0.0000000000000000e+00 0.0000000000000000e+00  0.0000000000000000e+00 0.0000000000000000e+00 0.0000000000000000e+00  0.0000000000000000e+00 0.0000000000000000e+00 0.0000000000000000e+00  0.0000000000000000e+00 0.0000000000000000e+00 0.0000000000000000e+00  0.0000000000000000e+00 0.0000000000000000e+00 0.0000000000000000e+00  0.0000000000000000e+00 0.0000000000000000e+00 0.0000000000000000e+00  0.0000000000000000e+00 0.0000000000000000e+00 0.0000000000000000e+00  0.0000000000000000e+00 0.0000000000000000e+00 0.0000000000000000e+00  0.0000000000000000e+00 0.0000000000000000e+00 0.0000000000000000e+00  0.0000000000000000e+00 0.0000000000000000e+00 0.0000000000000000e+00  0.0000000000000000e+00 0.0000000000000000e+00 0.0000000000000000e+00  0.0000000000000000e+00 0.0000000000000000e+00 0.0000000000000000e+00  0.0000000000000000e+00 0.0000000000000000e+00 0.0000000000000000e+00  0.0000000000000000e+00 0.0000000000000000e+00 0.0000000000000000e+00  0.0000000000000000e+00 0.0000000000000000e+00 0.0000000000000000e+00  0.0000000000000000e+00 0.0000000000000000e+00 0.0000000000000000e+00  0.0000000000000000e+00 0.0000000000000000e+00 0.0000000000000000e+00  0.0000000000000000e+00 0.0000000000000000e+00 0.0000000000000000e+00  0.0000000000000000e+00 0.0000000000000000e+00 0.0000000000000000e+00  0.0000000000000000e+00 0.0000000000000000e+00 0.0000000000000000e+00  0.0000000000000000e+00 0.0000000000000000e+00 0.0000000000000000e+00  0.0000000000000000e+00 0.0000000000000000e+00 0.0000000000000000e+00  0.0000000000000000e+00 0.0000000000000000e+00 0.0000000000000000e+00  0.0000000000000000e+00 0.0000000000000000e+00 0.0000000000000000e+00  0.0000000000000000e+00 0.0000000000000000e+00 0.0000000000000000e+00  0.0000000000000000e+00 0.0000000000000000e+00 0.0000000000000000e+00  0.0000000000000000e+00 0.0000000000000000e+00 0.0000000000000000e+00  0.0000000000000000e+00 0.0000000000000000e+00 0.0000000000000000e+00  0.0000000000000000e+00 0.0000000000000000e+00 0.0000000000000000e+00  0.0000000000000000e+00 0.0000000000000000e+00 0.0000000000000000e+00  0.0000000000000000e+00 0.0000000000000000e+00 0.0000000000000000e+00  0.0000000000000000e+00 0.0000000000000000e