<?xml version="1.0"?>
<VTKFile type="UnstructuredGrid"  version="0.1"  >
<UnstructuredGrid>
<Piece  NumberOfPoints="2549" NumberOfCells="4928">
<Points>
<DataArray  type="Float64"  NumberOfComponents="3"  format="ascii">2 0 0  1.996686137018095 0.05754231104100042 0  1.986882897305854 0.1143419787233611 0  1.970975633076588 0.1697461736080849 0  1.949521707683106 0.2232516020504374 0  1.92316148102163 0.2745222750136555 0  1.892542813236142 0.323373506980794 0  1.858271349552875 0.3697389590748243 0  1.820885526891715 0.4136350740557075 0  1.780849258848747 0.4551307277194839 0  1.738554874553317 0.4943245260370203 0  1.694330878507049 0.5313291997757913 0  1.648451186236745 0.5662615752889001 0  1.601144123217999 0.5992364926897525 0  1.552600433702648 0.6303633660965611 0  1.502980077905183 0.659744436395664 0  1.452417851070797 0.6874740696729748 0  1.401027953784824 0.7136386818120056 0  1.348907720609051 0.7383169985313379 0  1.29614058371176 0.7615805254953902 0  1.242798492047359 0.7834940823268561 0  1.188943861023348 0.8041163621228731 0  1.134631154358537 0.8235004771642536 0  1.079908172939354 0.8416944721837589 0  1.024817109964837 0.8587417963397553 0  0.9693954136298085 0.8746817324080646 0  0.9136765221153764 0.8895497755796398 0  0.8576904445844472 0.9033779803145155 0  0.801464266694953 0.9161952615587904 0  0.7450225714102614 0.9280276623152515 0  0.6883877952988928 0.9388985892101885 0  0.6315805321092666 0.9488290192996544 0  0.5746197931158087 0.9578376811025375 0  0.5175232373657314 0.9659412118222429 0  0.4603073510223729 0.9731542969378965 0  0.4029876351072817 0.9794897863110468 0  0.3455787518345055 0.9849587968895583 0  0.2880946601251717 0.9895707992366389 0  0.2305487379218517 0.993333690086398 0  0.1729538938792191 0.9962538520116265 0  0.115322670663361 0.998336201090478 0  0.05766733915096163 0.9995842233142798 0  -1.322274611685462e-09 1 0  -0.05766734179523565 0.9995842232761419 0  -0.1153226733068079 0.9983362010141388 0  -0.1729538991952786 0.996253851780904 0  -0.2305487459060017 0.9933336896231258 0  -0.2880946707711053 0.9895707984617989 0  -0.3455787651340506 0.9849587957230019 0  -0.4029876510566202 0.9794897846705534 0  -0.4603073696092293 0.9731542947399749 0  -0.5175232585755485 0.9659412089813419 0  -0.5746198169315506 0.9578376775306909 0  -0.6315805531144443 0.9488290158041717 0  -0.6883878135015997 0.9388985858736937 0  -0.745022586820829 0.9280276592223424 0  -0.8014642793262121 0.9161952587964145 0  -0.8576904516640802 0.9033779786341188 0  -0.9136765236872437 0.8895497751760147 0  -0.9693954097454738 0.8746817334843007 0  -1.02481710068483 0.8587417991084308 0  -1.07990816384232 0.8416944751016707 0  -1.134631145449371 0.8235004802330488 0  -1.188943852307292 0.8041163653447019 0  -1.242798483530528 0.7834940857042606 0  -1.296140602082296 0.7615805176791459 0  -1.348907765262195 0.7383169781359747 0  -1.401028023999701 0.7136386473502353 0  -1.452417945986507 0.6874740195411637 0  -1.502980204542554 0.659744364271727 0  -1.55260059049229 0.6303632695523657 0  -1.601144308255775 0.5992363690857174 0  -1.648451397199867 0.566261421754521 0  -1.694331058738459 0.5313290560928818 0  -1.738555024805723 0.4943243939263901 0  -1.780849380123489 0.4551306090875966 0  -1.820885620520759 0.4136349710133106 0  -1.858271414561462 0.3697388773931348 0  -1.892542852486391 0.3233734495527862 0  -1.923161498240549 0.2745222448569359 0  -1.949521707638369 0.2232516021481025 0  -1.970975633050448 0.1697461736839625 0  -1.986882897293919 0.1143419787752093 0  -1.99668613701505 0.05754231106741577 0  -2 -2.119381739288827e-14 0  -1.996686137015017 -0.05754231106770592 0  -1.986882897293798 -0.114341978775735 0  -1.970975633050334 -0.1697461736842945 0  -1.949521707638351 -0.2232516021481412 0  -1.923161498240437 -0.2745222448571329 0  -1.892542852486365 -0.3233734495528243 0  -1.858271414561291 -0.36973887739335 0  -1.820885620520727 -0.4136349710133463 0  -1.780849380123318 -0.4551306090877636 0  -1.738555024805688 -0.4943243939264208 0  -1.69433105873832 -0.5313290560929934 0  -1.648451397199832 -0.5662614217545467 0  -1.601144308255667 -0.5992363690857894 0  -1.552600590492252 -0.6303632695523889 0  -1.50298020454247 -0.659744364271775 0  -1.452417945986467 -0.6874740195411845 0  -1.40102802399929 -0.713638647350437 0  -1.348907765261459 -0.7383169781363109 0  -1.296140602081886 -0.7615805176793204 0  -1.242798483530485 -0.7834940857042775 0  -1.188943852307122 -0.8041163653447646 0  -1.134631145449091 -0.8235004802331454 0  -1.079908163842153 -0.8416944751017243 0  -1.02481710068479 -0.8587417991084427 0  -0.9693954097453934 -0.874681733484323 0  -0.9136765236871304 -0.8895497751760438 0  -0.8576904516640044 -0.9033779786341368 0  -0.8014642793261747 -0.9161952587964226 0  -0.7450225868207132 -0.9280276592223656 0  -0.688387813501408 -0.9388985858737288 0  -0.6315805531141928 -0.9488290158042135 0  -0.574619816931241 -0.9578376775307373 0  -0.5175232585753057 -0.9659412089813745 0  -0.4603073696090547 -0.9731542947399956 0  -0.4029876510565167 -0.979489784670564 0  -0.3455787651340186 -0.9849587957230047 0  -0.2880946707710729 -0.9895707984618012 0  -0.2305487459059683 -0.9933336896231277 0  -0.1729538991952446 -0.9962538517809054 0  -0.1153226733067752 -0.9983362010141397 0  -0.05766734179520062 -0.9995842232761424 0  -1.322240462585813e-09 -1 0  0.05766733915099533 -0.9995842233142793 0  0.1153226706633956 -0.998336201090477 0  0.1729538938792597 -0.9962538520116249 0  0.2305487379218985 -0.9933336900863954 0  0.2880946601252248 -0.9895707992366352 0  0.3455787518345641 -0.9849587968895532 0  0.4029876351073326 -0.9794897863110416 0  0.4603073510224157 -0.9731542969378913 0  0.5175232373657652 -0.9659412118222385 0  0.5746197931158308 -0.9578376811025342 0  0.6315805321096187 -0.9488290192995957 0  0.6883877952995736 -0.9388985892100637 0  0.7450225714112517 -0.9280276623150527 0  0.8014642666962468 -0.9161952615585074 0  0.857690444585461 -0.903377980314275 0  0.9136765221161084 -0.8895497755794518 0  0.9693954136301919 -0.8746817324079583 0  1.02481710996487 -0.8587417963397453 0  1.079908172939512 -0.8416944721837082 0  1.134631154358807 -0.8235004771641605 0  1.188943861023504 -0.8041163621228153 0  1.242798492047385 -0.7834940823268459 0  1.296140583712152 -0.7615805254952235 0  1.348907720609768 -0.7383169985310102 0  1.401027953785216 -0.7136386818118133 0  1.452417851070815 -0.6874740696729649 0  1.502980077905247 -0.6597444363956275 0  1.552600433702669 -0.6303633660965483 0  1.601144123218091 -0.5992364926896914 0  1.648451186236767 -0.5662615752888848 0  1.694330878507175 -0.5313291997756912 0  1.738554874553337 -0.4943245260370026 0  1.780849258848903 -0.4551307277193312 0  1.820885526891733 -0.4136350740556869 0  1.858271349553032 -0.3697389590746263 0  1.892542813236154 -0.3233735069807763 0  1.923161481021729 -0.2745222750134805 0  1.949521707683112 -0.223251602050424 0  1.970975633076692 -0.1697461736077827 0  1.986882897305967 -0.11434197872287 0  1.996686137018124 -0.05754231104074863 0  -0.1152904195579733 0.6070198455084121 0  0.7139314807447402 -0.5185554509125195 0  -0.9021804071087454 -0.4712698952622889 0  -0.08853261806707058 -0.5931971952512098 0  0.7139314807447157 0.5185554509125249 0  1.417801984821762 0.2291367688541014 0  -0.9202096744148912 0.4669291729068617 0  -1.545989679638069 -0.002355595176244116 0  1.419175259971926 -0.2295798938383525 0  -1.262514497274744 -0.369291382563445 0  -1.008975443817403 -0.0113108633010534 0  -0.6062327478577832 -0.13746405873719 0  -1.281728968624498 0.3515475904410956 0  0.3284986955774252 -0.5906094157356263 0  0.1737280740022324 -0.1722626988402368 0  0.2893086492827969 0.5872833258737034 0  0.428425950012378 0.185265744956867 0  0.8258750024497795 0.002678618671304442 0  -0.4906311993153011 -0.5380519337330318 0  -0.5319151236343942 0.5610340701502295 0  -0.3492448427637153 0.2242372176230919 0  1.101084670418347 -0.3819430866711396 0  1.10085579138347 0.3827620940547057 0  0.5114738231755741 -0.2037878442320408 0  0.0378548298353058 0.2177192870939484 0  -0.68351177520046 0.1879874044068832 0  -0.2205094860969659 -0.1665034527494929 0  1.17295745818125 0.0006108973493657318 0  1.665541930433108 -2.306912664895724e-05 0  0.907508075581543 -0.4502492687918292 0  0.9634798364340638 -0.1896322339999175 0  0.7699032415972596 -0.2579384161206076 0  0.6686744128126767 -0.100554612780368 0  0.6127026519601571 -0.36117164757228 0  1.137021064299799 -0.190666094660887 0  0.9994162303155147 0.001644758010335187 0  -1.145352206220951 0.1701183635700213 0  -1.413859324131283 0.1745959976324259 0  -1.277482561727735 -0.006833229238648594 0  -1.135744970546073 -0.1903011229322492 0  -1.404252088456406 -0.1858234888698444 0  -1.597220538418949 -0.2843085084653953 0  -1.747755693638209 -0.1128035986621925 0  -1.747755693638219 0.1104480034859294 0  -1.597220538418967 0.2819529132891387 0  -0.154521052082018 -0.3798503240003511 0  -0.3555703427061332 -0.3522776932412622 0  -0.2895819086911859 -0.5656245644921211 0  -0.4133711169773747 -0.1519837557433414 0  -0.5484319735865418 -0.3377579962351108 0  -1.455482947237287 -0.4677764021589958 0  -1.465090182912182 0.4589045060978081 0  0.4199862593764998 -0.3971986299838336 0  0.3426009485889036 -0.1880252715361387 0  0.2511133847898288 -0.3814360572879312 0  -1.100969321519695 0.4092383816739789 0  -0.9645925591161468 0.2278091548029043 0  1.62003039343183 -0.3216074839470194 0  1.43579655552137 -0.4585269817556586 0  1.435109917946279 0.4583054192635382 0  1.619343755856739 0.3213859214549047 0  -0.85182234321746 -0.6937325770293555 0  -1.072489445319615 -0.627381990483283 0  -1.081504078972709 0.6252116293055613 0  -0.8608369768705514 0.6915622158516382 0  0.8693742953548055 -0.6886486236261325 0  0.6442756369302858 -0.738196566007527 0  0.644275636930262 0.7381965660075314 0  0.8693742953547762 0.6886486236261405 0  0.01339502629816219 -0.7957666981708436 0  -0.2170556
[...]
<PointData  Vectors="f_614"> 
<DataArray  type="Float64"  Name="f_614"  NumberOfComponents="3" format="ascii">-2.7602502295896389e-04 -3.3144402108538720e-05 0.0000000000000000e+00  -2.7744331268493355e-04 -4.2480916122996623e-05 0.0000000000000000e+00  -2.7949814450271170e-04 -5.5578626516370910e-05 0.0000000000000000e+00  -2.7346449923186793e-04 -6.4839309653014961e-05 0.0000000000000000e+00  -2.6552957813975289e-04 -7.2975688600907454e-05 0.0000000000000000e+00  -2.5424427916396927e-04 -7.7736147389751665e-05 0.0000000000000000e+00  -2.4296731482815979e-04 -8.0958790804040815e-05 0.0000000000000000e+00  -2.2687458414652589e-04 -7.9674780386535676e-05 0.0000000000000000e+00  -2.2014175871143223e-04 -7.9620416949338567e-05 0.0000000000000000e+00  -2.1237882944726312e-04 -9.3804393619351060e-05 0.0000000000000000e+00  -1.9345824616264509e-04 -7.9617407239871050e-05 0.0000000000000000e+00  -1.8281989926895113e-04 -7.7520112963907844e-05 0.0000000000000000e+00  -1.6996767380248658e-04 -7.0378497292945480e-05 0.0000000000000000e+00  -1.5848761078155022e-04 -6.4288258698382342e-05 0.0000000000000000e+00  -1.4697698304803991e-04 -5.7778441949316283e-05 0.0000000000000000e+00  -1.3442624179982801e-04 -4.7914766782697066e-05 0.0000000000000000e+00  -1.2866107973819708e-04 -4.2211408572831159e-05 0.0000000000000000e+00  -1.1683059642779381e-04 -4.7537079842335945e-05 0.0000000000000000e+00  -1.0348353264330765e-04 -2.8378680269989057e-05 0.0000000000000000e+00  -9.3554113234192021e-05 -1.9406943881789538e-05 0.0000000000000000e+00  -8.3280942604185842e-05 -6.4855648777442249e-06 0.0000000000000000e+00  -7.3922525571000947e-05 5.5493286279703196e-06 0.0000000000000000e+00  -6.4785056509722368e-05 1.8405790177615655e-05 0.0000000000000000e+00  -5.5764620129767019e-05 3.2852950541994965e-05 0.0000000000000000e+00  -4.9763742676145704e-05 4.7437528768418069e-05 0.0000000000000000e+00  -4.2646600387242524e-05 5.5264574845292127e-05 0.0000000000000000e+00  -3.5263995060732587e-05 6.8794494107076671e-05 0.0000000000000000e+00  -2.8881374023256767e-05 8.2211612624399523e-05 0.0000000000000000e+00  -2.3175241297541922e-05 9.5764794690510812e-05 0.0000000000000000e+00  -1.8183227341362006e-05 1.0920543756148056e-04 0.0000000000000000e+00  -1.3865620925384479e-05 1.2226812782536298e-04 0.0000000000000000e+00  -1.0103512808187871e-05 1.3533813004045284e-04 0.0000000000000000e+00  -7.7677810423141341e-06 1.4698249032687259e-04 0.0000000000000000e+00  -4.8652972769578610e-06 1.5676885734734343e-04 0.0000000000000000e+00  -2.9414488168183685e-06 1.6781145006200188e-04 0.0000000000000000e+00  -1.5172206798997760e-06 1.7711626627290106e-04 0.0000000000000000e+00  -5.6026912986107621e-07 1.8559594015693000e-04 0.0000000000000000e+00  3.4369190236065014e-08 1.9293217627375331e-04 0.0000000000000000e+00  2.9449564261948709e-07 1.9908631430630178e-04 0.0000000000000000e+00  3.7059559207299242e-07 2.0441569762669599e-04 0.0000000000000000e+00  -1.8601863484624419e-07 2.0774206498196153e-04 0.0000000000000000e+00  -1.6389892865727939e-07 2.0993791048227816e-04 0.0000000000000000e+00  -6.0508774420251906e-07 2.1183243925403713e-04 0.0000000000000000e+00  -1.0563200430917039e-06 2.1211990136656868e-04 0.0000000000000000e+00  -1.5661136426079330e-06 2.1129292912189449e-04 0.0000000000000000e+00  -2.0528291096125061e-06 2.0904701794308204e-04 0.0000000000000000e+00  -2.4105377751888167e-06 2.0559363772239028e-04 0.0000000000000000e+00  -2.6368021564741971e-06 2.0021688420679415e-04 0.0000000000000000e+00  -2.1839597825920512e-06 1.9485363262036447e-04 0.0000000000000000e+00  -2.4057078331366883e-06 1.8758865863308306e-04 0.0000000000000000e+00  -1.5703899206833926e-06 1.7798973342285934e-04 0.0000000000000000e+00  -2.4216135116363673e-07 1.6740462522866256e-04 0.0000000000000000e+00  1.7555628342503809e-06 1.5560351589849117e-04 0.0000000000000000e+00  4.4877690331017899e-06 1.4260846346226500e-04 0.0000000000000000e+00  8.0306969553314255e-06 1.2931174365698786e-04 0.0000000000000000e+00  1.2521453879922383e-05 1.1348695887900073e-04 0.0000000000000000e+00  1.8527840889420687e-05 1.0302322643403246e-04 0.0000000000000000e+00  2.2444601719088771e-05 8.8602030219576681e-05 0.0000000000000000e+00  2.9347500493930004e-05 7.2323008993061387e-05 0.0000000000000000e+00  3.6700011339867180e-05 5.7172002984710841e-05 0.0000000000000000e+00  4.4682950825734103e-05 4.2456620178327104e-05 0.0000000000000000e+00  5.3521963307635135e-05 2.6992002143306323e-05 0.0000000000000000e+00  6.2705609594165501e-05 1.4653178828451283e-05 0.0000000000000000e+00  7.3687740910045516e-05 -5.8972484585157493e-06 0.0000000000000000e+00  8.6872745165642953e-05 -9.9601207805877097e-06 0.0000000000000000e+00  9.4079009469179948e-05 -1.6330927105205202e-05 0.0000000000000000e+00  1.0562099205562093e-04 -2.6888534579655093e-05 0.0000000000000000e+00  1.1656788386878094e-04 -3.3947526863582471e-05 0.0000000000000000e+00  1.2779224061724160e-04 -4.0766801330308853e-05 0.0000000000000000e+00  1.3793115641248834e-04 -4.2683522406916016e-05 0.0000000000000000e+00  1.4969690589231984e-04 -4.9465810785467351e-05 0.0000000000000000e+00  1.5341146215579603e-04 -3.0573572648259819e-05 0.0000000000000000e+00  1.5206891455271451e-04 -3.8068876452688727e-05 0.0000000000000000e+00  1.7816125686502643e-04 -6.6871062160834521e-05 0.0000000000000000e+00  1.8587007048885705e-04 -6.8917860977708322e-05 0.0000000000000000e+00  2.0053974157996712e-04 -7.6704678179932340e-05 0.0000000000000000e+00  2.1096278325166993e-04 -8.0168900407458034e-05 0.0000000000000000e+00  2.3020237418560968e-04 -8.9917336104745327e-05 0.0000000000000000e+00  2.3914307797282330e-04 -8.5435409156023282e-05 0.0000000000000000e+00  2.7614372326434985e-04 -1.0582237834657096e-04 0.0000000000000000e+00  2.7663642716798677e-04 -7.3969388744160624e-05 0.0000000000000000e+00  2.7618295584887388e-04 -7.1062213643171600e-05 0.0000000000000000e+00  3.1464515846925519e-04 -6.4800505050093452e-05 0.0000000000000000e+00  3.1561783979288543e-04 -5.1294819614371598e-05 0.0000000000000000e+00  3.2565211212380021e-04 -3.5611533505295804e-05 0.0000000000000000e+00  3.1362342229560350e-04 -1.9929895829995940e-05 0.0000000000000000e+00  3.1184245044950929e-04 -6.8472372681454427e-06 0.0000000000000000e+00  2.6987867677061560e-04 -1.2168146668308635e-06 0.0000000000000000e+00  2.7040986022940799e-04 8.8271515338590625e-07 0.0000000000000000e+00  2.6974561101198580e-04 3.4099554204264965e-05 0.0000000000000000e+00  2.2952263789388958e-04 9.9921224787888232e-06 0.0000000000000000e+00  2.2077206595111205e-04 1.4057635632132606e-05 0.0000000000000000e+00  2.0075824482045337e-04 2.6209703295796863e-06 0.0000000000000000e+00  1.9057344987333689e-04 -1.6261445278013644e-06 0.0000000000000000e+00  1.7619934502430100e-04 -1.0099267429509685e-05 0.0000000000000000e+00  1.6993675853275498e-04 -1.1471286768710468e-05 0.0000000000000000e+00  1.4335494253825125e-04 -3.9523131290525815e-05 0.0000000000000000e+00  1.4298673351858547e-04 -5.1922104769669769e-05 0.0000000000000000e+00  1.4035102550455090e-04 -3.1060234186917374e-05 0.0000000000000000e+00  1.2823663201225608e-04 -3.8925504462288298e-05 0.0000000000000000e+00  1.1814535141652502e-04 -4.0844009897400598e-05 0.0000000000000000e+00  1.0662719149193381e-04 -4.8264625498402759e-05 0.0000000000000000e+00  9.5462046120736707e-05 -5.5847981567164973e-05 0.0000000000000000e+00  8.3588413391075562e-05 -6.7168364292880873e-05 0.0000000000000000e+00  7.6074558564354685e-05 -7.3657390038196378e-05 0.0000000000000000e+00  6.1971282646076134e-05 -7.8513206019675846e-05 0.0000000000000000e+00  5.0491304183111237e-05 -1.0273329677627754e-04 0.0000000000000000e+00  4.1099778895424897e-05 -1.1644100510032972e-04 0.0000000000000000e+00  3.1973956492874278e-05 -1.3408067748051783e-04 0.0000000000000000e+00  2.3702303975295762e-05 -1.5083726614486327e-04 0.0000000000000000e+00  1.6127785508044643e-05 -1.6817530988090323e-04 0.0000000000000000e+00  9.2765100695717464e-06 -1.8635077661040674e-04 0.0000000000000000e+00  4.3773853838613146e-06 -2.0188174831901515e-04 0.0000000000000000e+00  -2.4726790308225575e-06 -2.1760814287927194e-04 0.0000000000000000e+00  -5.9724194788736250e-06 -2.3952175132981431e-04 0.0000000000000000e+00  -8.5668564758878827e-06 -2.5535856853733496e-04 0.0000000000000000e+00  -1.0233236345482668e-05 -2.7147057752004020e-04 0.0000000000000000e+00  -1.1077641366857465e-05 -2.8561667047298359e-04 0.0000000000000000e+00  -1.1135070081952183e-05 -2.9829282693154372e-04 0.0000000000000000e+00  -1.0687418196694350e-05 -3.1000262836356889e-04 0.0000000000000000e+00  -8.4956907678577893e-06 -3.1819683772613464e-04 0.0000000000000000e+00  -7.9229100119369751e-06 -3.2359224637332565e-04 0.0000000000000000e+00  -6.3512543828834371e-06 -3.3018248346859089e-04 0.0000000000000000e+00  -4.5360584100203747e-06 -3.3431172799595459e-04 0.0000000000000000e+00  -2.4847330659771229e-06 -3.3702431643347611e-04 0.0000000000000000e+00  -3.2262073467436102e-07 -3.3792809615451093e-04 0.0000000000000000e+00  1.8489935942749273e-06 -3.3717501907829563e-04 0.0000000000000000e+00  3.9968397733922582e-06 -3.3457520278374519e-04 0.0000000000000000e+00  5.9927728812905558e-06 -3.2998966281267068e-04 0.0000000000000000e+00  7.3847060420903677e-06 -3.2393326775706586e-04 0.0000000000000000e+00  8.4901978491709979e-06 -3.1681083769908588e-04 0.0000000000000000e+00  9.2210194875222428e-06 -3.0835396992343143e-04 0.0000000000000000e+00  9.5040160043353073e-06 -2.9871403519852877e-04 0.0000000000000000e+00  9.2754107656938472e-06 -2.8778298094128067e-04 0.0000000000000000e+00  8.4055702573566793e-06 -2.7622388528429669e-04 0.0000000000000000e+00  6.9040495362471875e-06 -2.6233034609369078e-04 0.0000000000000000e+00  3.8979922218139591e-06 -2.5204778297181215e-04 0.0000000000000000e+00  2.7243301302643079e-06 -2.3851136382645346e-04 0.0000000000000000e+00  -8.6585847023671761e-07 -2.2276399018129358e-04 0.0000000000000000e+00  -4.9926129415961381e-06 -2.0756144009762782e-04 0.0000000000000000e+00  -9.8609855934202341e-06 -1.9204520333319792e-04 0.0000000000000000e+00  -1.5514689832179041e-05 -1.7654596948673331e-04 0.0000000000000000e+00  -2.1899801775867454e-05 -1.6125721717559938e-04 0.0000000000000000e+00  -2.9330770527558339e-05 -1.4613998717312966e-04 0.0000000000000000e+00  -3.6421912574038413e-05 -1.3674439917177412e-04 0.0000000000000000e+00  -4.2561579181105732e-05 -1.2041433045248016e-04 0.0000000000000000e+00  -5.1655152290961301e-05 -1.0452209810256685e-04 0.0000000000000000e+00  -6.0934357723643652e-05 -9.0210667348067613e-05 0.0000000000000000e+00  -7.0427842023497512e-05 -7.6830501363069301e-05 0.0000000000000000e+00  -8.0900015865237388e-05 -6.2491174193257050e-05 0.0000000000000000e+00  -9.0980288436287875e-05 -5.2431848341465110e-05 0.0000000000000000e+00  -1.0469227324619541e-04 -3.1388912479476356e-05 0.0000000000000000e+00  -1.1692850414393292e-04 -3.6122331431526535e-05 0.0000000000000000e+00  -1.2279560675826655e-04 -2.9705644142964649e-05 0.0000000000000000e+00  -1.3563331193629859e-04 -1.8844146182218739e-05 0.0000000000000000e+00  -1.4739955499384251e-04 -1.1461284098203044e-05 0.0000000000000000e+00  -1.5917275747663400e-04 -4.4597151760474354e-06 0.0000000000000000e+00  -1.7238167721385082e-04 3.6389387666609866e-06 0.0000000000000000e+00  -1.8328699915501614e-04 6.4800859084702440e-06 0.0000000000000000e+00  -2.0289951853946599e-04 2.2043492767158138e-05 0.0000000000000000e+00  -2.1088030751685021e-04 8.0348760163827210e-06 0.0000000000000000e+00  -2.1815558049888858e-04 9.0626592529871759e-06 0.0000000000000000e+00  -2.3513523431233199e-04 1.1310115192364011e-05 0.0000000000000000e+00  -2.4725669628752672e-04 8.9429009586782530e-06 0.0000000000000000e+00  -2.5952163943605442e-04 5.0024972007401060e-06 0.0000000000000000e+00  -2.6895374555881314e-04 -2.1943467856380971e-06 0.0000000000000000e+00  -2.7583940121213985e-04 -1.1127247323194135e-05 0.0000000000000000e+00  -2.7675617372653995e-04 -2.3110255575064723e-05 0.0000000000000000e+00  9.3864349525138129e-06 1.1342444942152123e-04 0.0000000000000000e+00  -8.0973602163168651e-05 -1.4857310857308524e-04 0.0000000000000000e+00  1.0542905722679294e-04 -1.2091941605530354e-04 0.0000000000000000e+00  5.9613236084619210e-06 -2.2435192147804864e-04 0.0000000000000000e+00  -8.5236765177609705e-05 5.2675416699256168e-05 0.0000000000000000e+00  -1.9104086582057692e-04 -3.0678717684268724e-05 0.0000000000000000e+00  1.1109832547871231e-04 2.3847664271387730e-05 0.0000000000000000e+00  2.2176097438233102e-04 -4.0556752302448211e-05 0.0000000000000000e+00  -1.8696280341113538e-04 -4.7968487836786069e-05 0.0000000000000000e+00  1.4996242206338713e-04 -6.9578742762688368e-05 0.0000000000000000e+00  1.4629281570277089e-04 -4.6909141611056988e-05 0.0000000000000000e+00  9.0596518672364509e-05 -8.1835131246339512e-05 0.0000000000000000e+00  1.5866265955605531e-04 -1.6730183739006429e-05 0.0000000000000000e+00  -3.6425554512897050e-05 -2.0569855817446250e-04 0.0000000000000000e+00  -2.9945266953967241e-05 -1.0017139161354151e-04 0.0000000000000000e+00  -3.4355251334833397e-05 9.9886276692432379e-05 0.0000000000000000e+00  -6.7924204039289041e-05 -4.8735306042589579e-06 0.0000000000000000e+00  -1.2551161458453268e-04 -4.5286964475173798e-05 0.0000000000000000e+00  5.3578743705334805e-05 -1.8757243043837540e-04 0.0000000000000000e+00  5.8430674471443493e-05 8.0737291222676680e-05 0.0000000000000000e+00  5.0837522264875337e-05 6.3055381128343853e-06 0.0000000000000000e+00  -1.3620603620325469e-04 -8.4506156006335854e-05 0.0000000000000000e+00  -1.4108597433130237e-04 -9.1000239562527207e-07 0.0000000000000000e+00  -7.8642253365711343e-05 -9.7363923680721370e-05 0.0000000000000000e+00  -8.7502427491443815e-06 7.4927287714848016e-06 0.0000000000000000e+00  1.0058251079251886e-04 -1.0233660193693879e-05 0.0000000000000000e+00  3.1555076053115017e-05 -9.9934920927047697e-05 0.0000000000000000e+00  -1.6955149356029430e-04 -4.1713650025835470e-05 0.0000000000000000e+00  -2.3269612387357495e-04 -3.7108276660695700e-05 0.0000000000000000e+00  -1.0827963009397080e-04 -1.1426224132560995e-04 0.0000000000000000e+00  -1.3766973955346793e-04 -7.1458698470470880e-05 0.0000000000000000e+00  -1.1008210892370653e-04 -9.4449646384082764e-05 0.0000000000000000e+00  -1.0303200609760190e-04 -6.8444233717829741e-05 0.0000000000000000e+00  -8.4265128533916848e-05 -1.2665253185888310e-04 0.0000000000000000e+00  -1.5816506709587087e-04 -6.1995468612887554e-05 0.0000000000000000e+00  -1.4791940607398083e-04 -4.3476871329333075e-05 0.0000000000000000e+00  1.5939416810604657e-04 -2.5732722796801012e-05 0.0000000000000000e+00  1.9207333398697007e-04 -2.8890088057872961e-05 0.0000000000000000e+00  1.7995488349730216e-04 -4.3012618807677890e-05 0.0000000000000000e+00  1.5524417704481451e-04 -6.4148700945014715e-05 0.0000000000000000e+00  1.8639253992438064e-04 -5.4406961583557680e-05 0.0000000000000000e+00  1.9418580701966075e-04 -5.4189603345831188e-05 0.0000000000000000e+00  2.5502717564910313e-04 -4.0773307510052846e-05 0.0000000000000000e+00  2.5846684220078296e-04 -3.7149590735900653e-05 0.0000000000000000e+00  2.0139428839985757e-04 -2.6038237611728423e-05 0.0000000000000000e+00  1.8294738670311754e-05 -1.6173928672741253e-04 0.0000000000000000e+00  4.7477475023569612e-05 -1.4771581866221249e-04 0.0000000000000000e+00  2.8768425813572580e-05 -2.1059209833369579e-04 0.0000000000000000e+00  6.1666982969102831e-05 -9.1926169340042559e-05 0.0000000000000000e+00  7.4908202511565902e-05 -1.3232714757676825e-04 0.0000000000000000e+00  1.4646310097698960e-04 -5.8692986646011887e-05 0.0000000000000000e+00  1.5626365763695286e-04 -2.2597863039199704e-05 0.0000000000000000e+00  -5.8454827317187861e-05 -1.4944613830423500e-04 0.0000000000000000e+00  -5.4992942217216519e-05 -9.9999879014825096e-05 0.0000000000000000e+00  -3.7398064867626865e-05 -1.5513942210771602e-04 0.0000000000000000e+00  1.3565558190694593e-04 -5.6593247678368221e-07 0.0000000000000000e+00  1.3523628413143055e-04 -1.3082296368661171e-05 0.0000000000000000e+00  -1.9650760575323336e-04 -3.2628036630405923e-05 0.0000000000000000e+00  -1.5455424995766641e-04 -5.1771115173170781e-05 0.0000000000000000e+00  -1.6278644093962360e-04 -2.6842155103969810e-05 0.0000000000000000e+00  -2.0346560474635567e-04 -4.2501188853678198e-05 0.0000000000000000e+00  6.4829876213129544e-05 -1.6446120848662518e-04 0.0000000000000000e+00  9.5690881491739885e-05 -1.1139777126675899e-04 0.0000000000000000e+00  1.0369557054691713e-04 2.0472893135524610e-05 0.0000000000000000e+00  7.2464306301543404e-05 6.4978893141774406e-05 0.0000000000000000e+00  -6.6848885077307432e-05 -1.5450309840185790e-04 0.0000000000000000e+00  -4.3432027999949419e-05 -2.0095685307801328e-04 0.0000000000000000e+00  -5.0596473289919722e-05 1.0116717063110931e-04 0.0000000000000000e+00  -7.5138281885619743e-05 6.1798600539107816e-05 0.0000000000000000e+00  -2.7931802112494805e-06 -2.8153142980270808e-04 0.0000000000000000e+00  8.7681073761285707e-06 -2.7757993750104578e-04 0.0000000000000000e+00  1.1548130152053359e-05 1.5941686765935653e-04 0.0000000000000000e+00  -2.4697352652497080e-06 1.6463659240947192e-04 0.0000000000000000e+00  -5.8255711860426580e-05 -1.7820154732845067e-04 0.0000000000000000e+00  -9.7925698392386655e-05 -2.8047839358935866e-05 0.0000000000000000e+00  -1.1189777206837306e-04 1.7034391840429962e-06 0.0000000000000000e+00  -8.1550589643613846e-05 2.9173306743791893e-05 0.0000000000000000e+00  1.0373806494404598e-04 -1.0838875961412631e-04 0.0000000000000000e+00  1.1973460935526228e-04 -6.1655128728352012e-05 0.0000000000000000e+00  1.3183242607688422e-04 -8.1461598247007961e-05 0.0000000000000000e+00  -3.8701995717417034e-05 1.8276158225959790e-06 0.0000000000000000e+00  -1.9858430535130708e-05 -4.6703926323222321e-05 0.0000000000000000e+00  -5.0436407739245433e-05 -4.9921322299058310e-05 0.0000000000000000e+00  1.1804992685947808e-04 -7.7763479901596117e-05 0.0000000000000000e+00  1.2762778638986572e-04 -7.6613375270123227e-06 0.0000000000000000e+00  1.2865135781557028e-04 -9.0876326971184559e-05 0.0000000000000000e+00  -1.3949392409946486e-04 -1.6467163711433034e-05 0.0000000000000000e+00  -1.1297850911940706e-04 2.3912280519985347e-05 0.0000000000000000e+00  -1.6062628878116730e-04 -2.2298360153756260e-05 0.0000000000000000e+00  -5.2149377018478813e-05 4.6597148212719077e-05 0.0000000000000000e+00  -5.9468489640165260e-05 7.7860130708082897e-05 0.0000000000000000e+00  -9.1718714997949822e-06 -1.6228935562201421e-04 0.0000000000000000e+00  -1.5622870407500487e-05 -2.1969627245294819e-04 0.0000000000000000e+00  5.8408915154929790e-05 4.6398286943893375e-05 0.0000000000000000e+00  2.8960691165392162e-05 5.9782994756471027e-05 0.0000000000000000e+00  3.3247532690390701e-05 1.0072908290617748e-04 0.0000000000000000e+00  -7.5819796531504763e-05 -5.2176562706774544e-05 0.0000000000000000e+00  5.8364312772951503e-07 -1.0168690053111433e-04 0.0000000000000000e+00  -2.6732260244872433e-05 -2.3729108027826650e-04 0.0000000000000000e+00  -1.2972089753438413e-05 -2.6861854783706465e-04 0.0000000000000000e+00  -1.4901814778803663e-05 1.5558012638485915e-04 0.0000000000000000e+00  -3.1337628606916365e-05 1.3290790846132036e-04 0.0000000000000000e+00  1.1758304652722413e-05 -4.6399669378118128e-05 0.0000000000000000e+00  -2.5402803988900637e-05 5.6558903702212431e-05 0.0000000000000000e+00  -1.2328090724588776e-05 1.0991415861126909e-04 0.0000000000000000e+00  2.2751542680841406e-05 -2.5446804243633368e-04 0.0000000000000000e+00  4.3677665473869704e-05 -2.1165261224848840e-04 0.0000000000000000e+00  7.9990595463149517e-05 -1.5544492714325553e-04 0.0000000000000000e+00  4.8833445588416518e-05 1.0303305555550838e-04 0.0000000000000000e+00  2.7409381144387730e-05 1.3909199239995251e-04 0.0000000000000000e+00  8.4808161902472011e-05 5.2265559186031208e-05 0.0000000000000000e+00  1.249629612663793