<?xml version="1.0"?>
<VTKFile type="UnstructuredGrid"  version="0.1"  >
<UnstructuredGrid>
<Piece  NumberOfPoints="2549" NumberOfCells="4928">
<Points>
<DataArray  type="Float64"  NumberOfComponents="3"  format="ascii">1.634807050144185 -0.04085361872933608 0  1.624899449226277 0.001752710247947589 0  1.621267537726568 0.04355253388117963 0  1.612140996726748 0.08706425855795297 0  1.600972516348035 0.1289579435080404 0  1.589932494460426 0.1737451086242103 0  1.572068455009347 0.2168330712983486 0  1.574342115942475 0.2672836390307546 0  1.522517370805446 0.2991095846232924 0  1.506178349470745 0.3305728028548782 0  1.495677644189786 0.4008046372864648 0  1.454700382279053 0.4266693612058046 0  1.429617793963489 0.4731361688968986 0  1.396781403012787 0.5128467569453964 0  1.361124220986895 0.5504870781181621 0  1.348367106951623 0.6052068678249719 0  1.271962624887752 0.6101861845191514 0  1.257128398823926 0.6444031173015347 0  1.232596148501323 0.7296330462168218 0  1.176072626813687 0.7302909682147928 0  1.142148660160984 0.7756547336247764 0  1.099321085323733 0.8102078661672214 0  1.060889530092566 0.849910014985057 0  1.020152312114896 0.8935864085298123 0  0.9643948749453034 0.9129282135392914 0  0.9338409980028983 0.9640084211396409 0  0.8819358299698264 0.9943095103935415 0  0.8340758322354208 1.021756292966108 0  0.7874036774517579 1.057606983519597 0  0.7376888628622242 1.087966092220882 0  0.6872558254860509 1.118650817745603 0  0.6368812987829671 1.149361421847675 0  0.5818338352387846 1.173128473783501 0  0.528811826218304 1.198185913520202 0  0.4747769194766735 1.223759954485027 0  0.4178478457951332 1.242383186294496 0  0.3616114506203235 1.261800975666796 0  0.3039700006037187 1.277491732611166 0  0.2456502239395933 1.291456473504096 0  0.1872401481500728 1.302805049954475 0  0.1272726342355753 1.310359695289387 0  0.06802157156985367 1.315588418925795 0  0.00812920404317035 1.318669082639312 0  -0.05175557083021338 1.318459809020929 0  -0.1116932231614959 1.315537619460788 0  -0.1713697436942522 1.309474760547684 0  -0.2309012703260108 1.301057990899405 0  -0.2898512479589914 1.288981896910125 0  -0.3478150473838101 1.27419938610068 0  -0.4064755575426688 1.257883631430924 0  -0.4627488456832707 1.237187518364285 0  -0.5184390109564629 1.213406724381325 0  -0.573580964717366 1.189309220700218 0  -0.6254286866231704 1.159344914108586 0  -0.6810115880776185 1.137734731105482 0  -0.7306964077806989 1.099092125397624 0  -0.7748393137324545 1.065104880663997 0  -0.8318411747050033 1.040811208794391 0  -0.8742687188451154 0.9989869061348251 0  -0.9196914326794614 0.9626813197254415 0  -0.965293705050764 0.9269494925048802 0  -1.006578841937673 0.8889068597458323 0  -1.059589836154348 0.8681033785010647 0  -1.081285016242478 0.788939318317908 0  -1.123627757124706 0.7767075416917727 0  -1.172834254656074 0.7443605915128807 0  -1.198187875439722 0.6954908521267579 0  -1.240217566156122 0.6676267039166356 0  -1.270750757867563 0.6122367957373722 0  -1.307489362660941 0.6130753394741951 0  -1.352499371357665 0.5478894842158041 0  -1.359582668322835 0.496003664459061 0  -1.456857458662965 0.5091276862751617 0  -1.448151831596687 0.4351094537857506 0  -1.482443813859106 0.402062604306636 0  -1.507068767691595 0.3549304670056186 0  -1.534156410012937 0.3124905893243244 0  -1.547452839584976 0.2602953648877833 0  -1.570517842966891 0.2235624682537611 0  -1.554921387720839 0.1466090905326739 0  -1.587851305191389 0.1418721114060158 0  -1.603685981378502 0.09132852959705871 0  -1.569900735325853 0.03936637886803948 0  -1.560690856520689 0.003038106351259158 0  -1.557312162135249 -0.03953193101222908 0  -1.572855014001389 -0.07040605940431123 0  -1.54970846065141 -0.1095837878863162 0  -1.567482392080374 -0.1530608504308443 0  -1.549901151552143 -0.2039901486130011 0  -1.528087162143833 -0.2130594529935403 0  -1.555424475931575 -0.2815229613744543 0  -1.534089079246922 -0.3242807063350268 0  -1.526011985547733 -0.38154394052031 0  -1.501153569669004 -0.4276447450947379 0  -1.477096137099563 -0.4764222618042913 0  -1.441596062741695 -0.5100363794768852 0  -1.442120205087936 -0.5807599487483316 0  -1.366970144324254 -0.5981919435448964 0  -1.34361458173503 -0.6268228051638803 0  -1.307174926934918 -0.6840479383647535 0  -1.271529671335563 -0.6939802256884979 0  -1.241463922563598 -0.7450618619444913 0  -1.202291322719172 -0.7764714329552052 0  -1.173682643746568 -0.8220454711373898 0  -1.130940869877623 -0.8583039159793401 0  -1.087992023046625 -0.8738840722994186 0  -1.064229233794502 -0.9460743958001726 0  -1.015848126766925 -0.9752367277491935 0  -0.9737594622864653 -1.014208081183275 0  -0.9297815916648297 -1.052903830683657 0  -0.8844910463491037 -1.091797679932465 0  -0.8392005730382212 -1.129916488722002 0  -0.7914397098829429 -1.168050398841853 0  -0.7388643797350545 -1.194310348734906 0  -0.694752685647792 -1.242237467820173 0  -0.6367008424513644 -1.270241062689839 0  -0.5842984549915226 -1.30064200508604 0  -0.5278992206594461 -1.327391846563165 0  -0.4712314990281887 -1.35272409072826 0  -0.4149842985132607 -1.376788850407495 0  -0.3538311253320647 -1.39244682565312 0  -0.2954884911827346 -1.408466649729753 0  -0.2356295538798509 -1.422408199766983 0  -0.174835757812509 -1.430422234317218 0  -0.1141782473508334 -1.437401405912246 0  -0.05300211211333827 -1.440402540069563 0  0.008174988224647359 -1.440527838729077 0  0.06931699373393634 -1.437081574847356 0  0.1303293315350831 -1.430342999470335 0  0.1904949177911977 -1.420478137324596 0  0.2502231424397887 -1.408163979601727 0  0.3091964524759027 -1.392865300867496 0  0.3675997325515804 -1.375520418906224 0  0.4246089972054095 -1.354520336324552 0  0.481774263023158 -1.334736935488587 0  0.5371007680797629 -1.30744235809351 0  0.5891153935772678 -1.281697513992458 0  0.6458554409862437 -1.257487572017043 0  0.6962321402522649 -1.224662678516295 0  0.7472047200478603 -1.193056119269013 0  0.7969149344959806 -1.160818950813343 0  0.8445460224241573 -1.125454629372153 0  0.8917801451003556 -1.093507928831678 0  0.9408331077775441 -1.06065146953106 0  0.9784656044061727 -1.020086282071185 0  1.028773391991546 -0.9896287008236293 0  1.070927059837849 -0.9487617922500792 0  1.110838584243478 -0.9092177797804571 0  1.152330762270032 -0.8723362492448675 0  1.189273891449646 -0.8294581365855607 0  1.235929533107205 -0.8082359427121462 0  1.265228844513889 -0.7416307089947897 0  1.291851008683624 -0.7152433678467558 0  1.348018192095529 -0.6913524639360407 0  1.371932211123945 -0.6435371639603281 0  1.405976542680403 -0.6040419174295097 0  1.437824506973821 -0.5628808400774272 0  1.46485751029056 -0.5171904494872798 0  1.498384029282873 -0.4813560882285006 0  1.512563844974982 -0.4193026752195116 0  1.537840704755871 -0.3933014671477562 0  1.571978738258246 -0.3517525195880652 0  1.580327746177507 -0.3028706360287796 0  1.595855507405421 -0.2579534600967847 0  1.606099097274599 -0.2124515708187796 0  1.615181251623222 -0.168812053797779 0  1.621064065709479 -0.1254654430895582 0  1.63173598099755 -0.08584550695916078 0  -0.09447671730820006 0.7867395891156832 0  0.6114687813031348 -0.7066811130408857 0  -0.7452090822777149 -0.6152402372626035 0  -0.07150754167719184 -0.8813379081069823 0  0.6075512392546546 0.6059406931921818 0  1.167447728189308 0.1945508502509515 0  -0.7609817080681482 0.5173471199647254 0  -1.231045083713143 -0.03645381098042087 0  1.172004206248661 -0.2847941852034549 0  -1.037520239506703 -0.4384560477541897 0  -0.7949304577982307 -0.05486411173471538 0  -0.4700724491229798 -0.2290571036742727 0  -1.055463457948008 0.3394951018336397 0  0.2877054467813337 -0.8556114768699069 0  0.1427016137657986 -0.2914292366545141 0  0.2520437915960534 0.7460420473202148 0  0.3449618568775141 0.1967062120786186 0  0.6633052883755062 -0.04507393026196077 0  -0.4081693516813771 -0.7740097592418934 0  -0.4457696661410833 0.6933516586754729 0  -0.2698793440923061 0.2544526232084439 0  0.9226480591157181 -0.4843191247757269 0  0.9182551315881767 0.3911944223061223 0  0.4131927127013161 -0.3209861287996602 0  0.0354944136966959 0.248786669851472 0  -0.5352119470743915 0.194792948001154 0  -0.166618580630927 -0.2837776506980291 0  0.9502808374159171 -0.04524088757983978 0  1.358139129938263 -0.04364809629801757 0  0.7673247131097035 -0.5921718948971253 0  0.7837848839078904 -0.2741050182039341 0  0.6280443646221127 -0.3726416157013077 0  0.5368746028256286 -0.1789212402577205 0  0.5062879346613651 -0.5191748068390507 0  0.9292125673981834 -0.2633491751298441 0  0.8061786598725736 -0.04511354282363779 0  -0.915685433755004 0.1527187237266026 0  -1.142395420930327 0.1492041230764407 0  -1.017037466348366 -0.04492228646754082 0  -0.9065383747951989 -0.2556350267526144 0  -1.130113191048914 -0.2349379903444709 0  -1.30920346705029 -0.3283719482975259 0  -1.38049947782075 -0.1439366564561777 0  -1.39661610494545 0.0751954664845588 0  -1.318754930702878 0.2507845858115378 0  -0.1195112459224522 -0.5823508040337668 0  -0.280160904318997 -0.5348518232987722 0  -0.241355879413549 -0.8338008119466209 0  -0.3176789952115953 -0.2577638190376094 0  -0.434715631100315 -0.4987695577516338 0  -1.231947962871329 -0.5125858043034479 0  -1.243639640668946 0.4264717300122686 0  0.349236536545177 -0.5855764220142626 0  0.2769991273260619 -0.3078664144314733 0  0.2094829752504145 -0.5767978691650547 0  -0.9066515909601007 0.4232745183287581 0  -0.7686776871412143 0.2288374228746335 0  1.359688586499081 -0.3566608143775608 0  1.231388101663131 -0.5171287631363051 0  1.224079271250667 0.4254853469916929 0  1.354017115263469 0.2678186822058349 0  -0.7548185067425173 -0.8950923186407302 0  -0.9296012299620345 -0.7558564639873672 0  -0.9357238097341579 0.6662899564299536 0  -0.7591874220177613 0.7966669677938362 0  0.7854993359016371 -0.8838755448975927 0  0.5933756361442761 -0.9967251547768654 0  0.5876860461403932 0.8924392365516538 0  0.7785867330618755 0.7839829990005152 0  0.
[...]
<PointData  Vectors="f_4920"> 
<DataArray  type="Float64"  Name="f_4920"  NumberOfComponents="3" format="ascii">-4.2398576462723153e-04 -1.0388991357848145e-04 0.0000000000000000e+00  -4.0978956212591166e-04 -1.0401730843753039e-04 0.0000000000000000e+00  -4.0019263092272412e-04 -1.0071622377471294e-04 0.0000000000000000e+00  -3.9692961405176128e-04 -1.0015378157136432e-04 0.0000000000000000e+00  -3.8561216506826940e-04 -9.0309180797423533e-05 0.0000000000000000e+00  -3.8024479166593801e-04 -8.4672920847934951e-05 0.0000000000000000e+00  -4.6546572679683954e-04 -7.6775571757292725e-05 0.0000000000000000e+00  -3.7556122380856956e-04 -6.2053001304889150e-05 0.0000000000000000e+00  -3.7460331071813882e-04 -3.4679651969746878e-05 0.0000000000000000e+00  -4.9352700381580326e-04 -1.0062117523670594e-04 0.0000000000000000e+00  -4.7762866926278307e-04 -1.1910438245658340e-04 0.0000000000000000e+00  -3.9904038591053267e-04 -7.5632958207821557e-05 0.0000000000000000e+00  -3.3809541175582660e-04 -7.8399772084684698e-05 0.0000000000000000e+00  -3.5714368143645726e-04 -9.3811721591782502e-05 0.0000000000000000e+00  -5.7737416558535084e-04 -1.3222918137216407e-04 0.0000000000000000e+00  -4.8498855736974557e-04 1.8438916821075705e-05 0.0000000000000000e+00  -4.1765457117953097e-04 -6.6727006443584625e-05 0.0000000000000000e+00  -6.7011187266362380e-04 -2.6771138535229691e-04 0.0000000000000000e+00  -8.6350339927679918e-04 -4.3754652474859590e-04 0.0000000000000000e+00  -5.9763744620452725e-04 -3.6920280927432898e-04 0.0000000000000000e+00  -3.0566538479165139e-04 -1.3474118235554507e-04 0.0000000000000000e+00  -4.2656222364921608e-04 -5.4055287542007933e-04 0.0000000000000000e+00  -3.5634220017465669e-04 -4.3763836446723256e-04 0.0000000000000000e+00  -4.3742989710862521e-04 -6.6567925105056409e-04 0.0000000000000000e+00  -2.4041121891560122e-04 -2.5683901766392655e-04 0.0000000000000000e+00  7.1361742728836316e-05 3.4891603172316573e-05 0.0000000000000000e+00  -2.1901156053760328e-04 -2.3845216874959115e-04 0.0000000000000000e+00  -1.6095948998395428e-04 -2.4563030993736217e-04 0.0000000000000000e+00  -1.1305854177366896e-04 -5.3676530828984236e-05 0.0000000000000000e+00  -1.3249600650202712e-04 -9.2059319541230140e-05 0.0000000000000000e+00  -1.4186039379444936e-04 -6.7182101044328390e-05 0.0000000000000000e+00  -1.1470668393551069e-04 -5.5927240890447897e-05 0.0000000000000000e+00  -9.9490247018574457e-05 4.4835452124326774e-05 0.0000000000000000e+00  -1.2760516315982935e-04 1.0005249448303154e-05 0.0000000000000000e+00  -1.0693928982505947e-04 3.1400951429765529e-05 0.0000000000000000e+00  -1.1893141264557943e-04 8.2527902681531442e-05 0.0000000000000000e+00  -1.1476960799596217e-04 8.9732621123486602e-05 0.0000000000000000e+00  -1.2590194967940907e-04 9.3583793773634430e-05 0.0000000000000000e+00  -1.2781511039573751e-04 1.0987704601286304e-04 0.0000000000000000e+00  -1.3373788624715930e-04 1.1611840902807929e-04 0.0000000000000000e+00  -1.4221378058489181e-04 1.2698918544660625e-04 0.0000000000000000e+00  -1.5081627712370169e-04 1.3129441293136592e-04 0.0000000000000000e+00  -1.5963853450555874e-04 1.3158413035134462e-04 0.0000000000000000e+00  -1.6815401593388087e-04 1.2966156756221713e-04 0.0000000000000000e+00  -1.7665092230335057e-04 1.2354891117436297e-04 0.0000000000000000e+00  -1.8364755553358240e-04 1.1591803300054991e-04 0.0000000000000000e+00  -1.9037595732856110e-04 1.0027672183416603e-04 0.0000000000000000e+00  -1.9442463782179970e-04 8.9720971090074769e-05 0.0000000000000000e+00  -1.9734560124964849e-04 7.5413643678655289e-05 0.0000000000000000e+00  -1.9657503546124028e-04 3.3395095127755860e-05 0.0000000000000000e+00  -1.9661027562447610e-04 3.3583350394571824e-05 0.0000000000000000e+00  -1.7433461240934795e-04 -5.2725795396062280e-06 0.0000000000000000e+00  -1.9568010643601915e-04 4.3092315336542326e-05 0.0000000000000000e+00  -2.0498160930440849e-04 8.8851079272211008e-05 0.0000000000000000e+00  -1.3438256386556102e-04 -2.1317741783862402e-04 0.0000000000000000e+00  -8.7038763210390912e-05 -1.1024247189351631e-04 0.0000000000000000e+00  -2.4903564698544096e-04 9.9010040818860840e-05 0.0000000000000000e+00  -1.0669074883718834e-04 -2.5608036912656476e-04 0.0000000000000000e+00  3.9508181313933094e-05 -3.0053540610996537e-04 0.0000000000000000e+00  -1.0153543268263622e-04 -2.0860692351557788e-04 0.0000000000000000e+00  3.2455928732632825e-05 -2.8073024736844743e-04 0.0000000000000000e+00  -2.4111991357063871e-04 2.6508973122792005e-04 0.0000000000000000e+00  1.1608496453926409e-04 -2.4352690749476202e-04 0.0000000000000000e+00  -1.0913094457371904e-04 -1.8236209908965021e-04 0.0000000000000000e+00  -9.0221574287640923e-05 -4.8160089806484422e-04 0.0000000000000000e+00  -5.0805140851874740e-04 7.5409054481747668e-05 0.0000000000000000e+00  -1.3336510631024417e-04 -2.5767424119683036e-04 0.0000000000000000e+00  -6.5268106204423768e-05 9.8719380277297785e-05 0.0000000000000000e+00  -2.5638912940390338e-04 -2.3406807772239523e-04 0.0000000000000000e+00  -1.8868720311421817e-04 -5.5218220533916973e-04 0.0000000000000000e+00  -3.6085363708054404e-04 -2.5056713679489154e-04 0.0000000000000000e+00  -2.6903140971665089e-04 -1.8468918305888368e-04 0.0000000000000000e+00  6.5448341814043854e-05 -4.0126130932102517e-05 0.0000000000000000e+00  -5.3396377486259134e-04 -3.9205025307271464e-05 0.0000000000000000e+00  -2.7753155451268715e-04 -1.7025301937808425e-04 0.0000000000000000e+00  -2.8272034454222139e-04 -1.6528952980525010e-04 0.0000000000000000e+00  -2.3430909523284741e-04 -1.6017875025549393e-04 0.0000000000000000e+00  -2.0646851216407440e-04 -1.4260184613770600e-04 0.0000000000000000e+00  -1.6864499318985051e-04 -1.3544661820302775e-04 0.0000000000000000e+00  -1.5658838795101535e-04 -1.2140532333322581e-04 0.0000000000000000e+00  -1.8149773613994655e-04 -8.8724341822190954e-05 0.0000000000000000e+00  -1.2409897336166674e-04 -1.0170280741290098e-04 0.0000000000000000e+00  -1.1663971793110656e-04 -9.1260726954556437e-05 0.0000000000000000e+00  -1.2626558943934610e-04 -1.0015963547593851e-04 0.0000000000000000e+00  -1.2446644423465516e-04 -9.7063028605868314e-05 0.0000000000000000e+00  -6.3592292745896992e-05 -9.9047868436575963e-05 0.0000000000000000e+00  -8.8665027676099157e-05 -8.3322798607505768e-05 0.0000000000000000e+00  -7.6287927773177088e-05 -7.8359434435948993e-05 0.0000000000000000e+00  -6.7318250099564642e-05 -7.0361893139922520e-05 0.0000000000000000e+00  -6.7437196480674624e-05 -6.6738180433854473e-05 0.0000000000000000e+00  -5.2761578382133547e-05 -5.9508329546280679e-05 0.0000000000000000e+00  -6.9593385677504889e-05 -5.9481628971897421e-05 0.0000000000000000e+00  -7.2214569572548018e-05 -5.0617534680226425e-05 0.0000000000000000e+00  -7.4592445359225959e-05 -4.8239615899424516e-05 0.0000000000000000e+00  -7.6393596610096001e-05 -4.7549286550275202e-05 0.0000000000000000e+00  -6.9323363614385712e-05 -4.6260828185803256e-05 0.0000000000000000e+00  -7.8708354586670850e-05 -8.1678315504242753e-05 0.0000000000000000e+00  -1.2600226711000228e-04 -1.2677815760399932e-04 0.0000000000000000e+00  3.6261021116918141e-05 4.2872869985005178e-05 0.0000000000000000e+00  2.9587381884416291e-05 1.8529521225998791e-04 0.0000000000000000e+00  -1.0550645424107255e-04 4.6132587467939270e-06 0.0000000000000000e+00  -7.9917234795285998e-05 -1.0604311802923187e-04 0.0000000000000000e+00  -1.2207902311828578e-04 9.8074031767770228e-05 0.0000000000000000e+00  -4.3025353418384973e-04 -1.2203055419941734e-04 0.0000000000000000e+00  -6.1695795058090922e-05 3.5394338596043989e-04 0.0000000000000000e+00  -2.1692341899445382e-04 -1.6346333795216130e-05 0.0000000000000000e+00  -1.8326851013932826e-04 -6.2373191094984421e-05 0.0000000000000000e+00  -3.3462803029712240e-04 -2.8100943456695109e-04 0.0000000000000000e+00  -1.6606192535343118e-04 3.2259930746609529e-05 0.0000000000000000e+00  -2.4216382064489586e-04 -4.4457483601746618e-05 0.0000000000000000e+00  -2.9756829550595879e-04 -8.7280786745579035e-05 0.0000000000000000e+00  -3.4650507945382079e-04 -1.8595062448802509e-04 0.0000000000000000e+00  -2.0631341583061564e-04 -9.7236966995770206e-06 0.0000000000000000e+00  -2.6724892985913472e-04 -1.4292461262244133e-04 0.0000000000000000e+00  -3.7160659805451609e-04 -2.9969418227677829e-04 0.0000000000000000e+00  -2.7562132541070764e-04 -2.5420784319514191e-04 0.0000000000000000e+00  -2.8027272587971818e-04 -1.4504360695735102e-04 0.0000000000000000e+00  -2.7742546766063638e-04 -1.7108105529772033e-04 0.0000000000000000e+00  -2.7427589810994659e-04 -1.7538149628137985e-04 0.0000000000000000e+00  -2.9486541956055053e-04 -1.8178761963680274e-04 0.0000000000000000e+00  -2.8892450391428831e-04 -2.5566880219098889e-04 0.0000000000000000e+00  -2.8158042379670907e-04 -2.4551597174228627e-04 0.0000000000000000e+00  -2.8163581664740147e-04 -2.4496341999124448e-04 0.0000000000000000e+00  -2.7402894278844833e-04 -2.7344594844974759e-04 0.0000000000000000e+00  -2.6865775884068186e-04 -2.7610923923614079e-04 0.0000000000000000e+00  -2.6183532177846529e-04 -2.8251698567380594e-04 0.0000000000000000e+00  -2.5479904956353497e-04 -2.8578606326212731e-04 0.0000000000000000e+00  -2.4835433382578321e-04 -2.8707094785744688e-04 0.0000000000000000e+00  -2.4106971975829971e-04 -2.8797001984979810e-04 0.0000000000000000e+00  -2.3593720814767214e-04 -2.8402234131507086e-04 0.0000000000000000e+00  -2.2888661979854555e-04 -2.8112027026313386e-04 0.0000000000000000e+00  -2.2890338230899059e-04 -2.7075490423985341e-04 0.0000000000000000e+00  -2.1826090124877725e-04 -2.7428324358241867e-04 0.0000000000000000e+00  -2.2182730302253002e-04 -2.7321224312115515e-04 0.0000000000000000e+00  -2.1382481819645874e-04 -2.1877241331252098e-04 0.0000000000000000e+00  -2.3593719249623082e-04 -2.0750464785769730e-04 0.0000000000000000e+00  -2.0114755595947132e-04 -2.7445660869983491e-04 0.0000000000000000e+00  -2.1834888244986217e-04 -1.5563560922773174e-04 0.0000000000000000e+00  -2.7150421612788517e-04 -1.3719163113519946e-04 0.0000000000000000e+00  -2.3791249573931950e-04 -1.5136055488272558e-04 0.0000000000000000e+00  -2.4263801101810330e-04 -1.4311774543981055e-04 0.0000000000000000e+00  -2.8364005865540371e-04 -5.2432085285959842e-05 0.0000000000000000e+00  -3.1877740014267980e-04 -5.1949653724529940e-05 0.0000000000000000e+00  -1.8246670272415781e-04 -2.2269263632305892e-04 0.0000000000000000e+00  -3.3950270561382918e-04 -2.4211803218375708e-05 0.0000000000000000e+00  -4.9220638224717588e-04 1.6594160470038123e-04 0.0000000000000000e+00  -3.9037586443108042e-04 1.1848445109797677e-05 0.0000000000000000e+00  -4.4261490618099361e-04 8.5454765199629638e-05 0.0000000000000000e+00  -4.9730824691057956e-04 2.2780301612947415e-05 0.0000000000000000e+00  -4.5501885319106176e-04 -1.0548560514687986e-04 0.0000000000000000e+00  -6.2092767853664447e-04 6.4694194800708836e-05 0.0000000000000000e+00  -7.6681670444410290e-04 8.1949743207093508e-05 0.0000000000000000e+00  -4.6137538056169222e-04 -2.2051396463092929e-04 0.0000000000000000e+00  -4.6925042871382848e-04 -1.0525745092046355e-04 0.0000000000000000e+00  -7.0255938011420027e-04 3.4673367716949358e-06 0.0000000000000000e+00  -5.0814772077778666e-04 -8.5969612625123851e-05 0.0000000000000000e+00  -4.9150871326814809e-04 -9.5219808198773934e-05 0.0000000000000000e+00  -4.7534294782071662e-04 -1.0397963593870914e-04 0.0000000000000000e+00  -4.5582360132527305e-04 -1.3246900992711774e-04 0.0000000000000000e+00  -4.6542170357141596e-04 -9.5202931746286260e-05 0.0000000000000000e+00  -4.4690818912897690e-04 -1.0814180582704490e-04 0.0000000000000000e+00  -3.9407590376522018e-04 -1.0952432466660740e-04 0.0000000000000000e+00  -4.6434351526109739e-04 -1.0711518971756521e-04 0.0000000000000000e+00  -4.2677568577791168e-04 -1.0767586341385352e-04 0.0000000000000000e+00  -4.2470987576226176e-04 -1.0590721345463916e-04 0.0000000000000000e+00  -4.1917743527960887e-04 -1.0487098805984700e-04 0.0000000000000000e+00  -4.1887382249799365e-04 -1.0056403649210804e-04 0.0000000000000000e+00  -4.2722743258589660e-04 -1.0146790863217418e-04 0.0000000000000000e+00  -1.7367917612725144e-04 4.2666262214422736e-05 0.0000000000000000e+00  -3.7335552207941157e-04 -1.3134889601322048e-04 0.0000000000000000e+00  -1.4738212418020225e-04 -1.0366329169121427e-04 0.0000000000000000e+00  -2.4648803133493015e-04 -2.0743658100624875e-04 0.0000000000000000e+00  -3.4391828302404417e-04 -7.7944197843536256e-05 0.0000000000000000e+00  -3.7425918107835050e-04 -1.4128230295643010e-04 0.0000000000000000e+00  -1.4176707592820445e-04 -9.4003537040470770e-05 0.0000000000000000e+00  -1.1992116162666003e-04 -5.6209901344259358e-05 0.0000000000000000e+00  -4.0522121983989855e-04 -6.4083830642620133e-05 0.0000000000000000e+00  -9.5832860799696768e-05 -3.8224224668174695e-05 0.0000000000000000e+00  -1.3712241916229802e-04 -6.3143663423426860e-05 0.0000000000000000e+00  -1.6976381982839546e-04 -9.3182846243094943e-05 0.0000000000000000e+00  -1.8437246210905740e-04 -8.8343939404097118e-05 0.0000000000000000e+00  -2.9213632737426162e-04 -2.0060642808797003e-04 0.0000000000000000e+00  -2.7912394222374661e-04 -1.1966041937644763e-04 0.0000000000000000e+00  -2.3058570203487717e-04 2.8836827132313026e-05 0.0000000000000000e+00  -3.0680646181521727e-04 -7.0884306080555413e-05 0.0000000000000000e+00  -3.6020670248357924e-04 -1.0389555394113348e-04 0.0000000000000000e+00  -2.0990421800157904e-04 -1.6881993531199139e-04 0.0000000000000000e+00  -1.3364770598984894e-04 -2.3515918865290670e-05 0.0000000000000000e+00  -1.8662658240830890e-04 -4.5943888990769315e-05 0.0000000000000000e+00  -4.3282988911988413e-04 -4.6634525703245951e-05 0.0000000000000000e+00  -4.0891315394737959e-04 -2.0144054303208455e-04 0.0000000000000000e+00  -3.3200573045971357e-04 -1.1580614575453680e-04 0.0000000000000000e+00  -2.4043963806058037e-04 -4.3983720719302756e-05 0.0000000000000000e+00  -1.5956369439578083e-04 -6.1089964270813680e-05 0.0000000000000000e+00  -2.2073676485698528e-04 -1.1413212859715906e-04 0.0000000000000000e+00  -3.7611991789975545e-04 -1.0653012864106149e-04 0.0000000000000000e+00  -3.8358347358722613e-04 -9.5370253991177052e-05 0.0000000000000000e+00  -4.1595617950350672e-04 -8.1763749792875407e-05 0.0000000000000000e+00  -3.8556977288496430e-04 -8.5178417819002680e-05 0.0000000000000000e+00  -3.7279961645058572e-04 -1.0021624182888701e-04 0.0000000000000000e+00  -3.4822331783722918e-04 -1.0235371855012831e-04 0.0000000000000000e+00  -3.5461245265077485e-04 -1.2644940457772283e-04 0.0000000000000000e+00  -3.9514400554430882e-04 -7.3738622801725371e-05 0.0000000000000000e+00  -3.7155961871333923e-04 -1.0668611489562977e-04 0.0000000000000000e+00  -1.5088951372611099e-04 -6.5604830852538046e-05 0.0000000000000000e+00  -1.5926033246489962e-04 -6.5346480082055592e-05 0.0000000000000000e+00  -1.2690795430648377e-04 -5.4204296515944683e-05 0.0000000000000000e+00  -1.1593350572321575e-04 -5.7216665034310555e-05 0.0000000000000000e+00  -1.0099633873426895e-04 -4.3977332773257859e-05 0.0000000000000000e+00  -8.5768870468463067e-05 -4.4212372255327301e-05 0.0000000000000000e+00  -9.0292446661704079e-05 -6.0752624370145718e-05 0.0000000000000000e+00  -1.4311321569928346e-04 -8.0185009621465333e-05 0.0000000000000000e+00  -2.0233303309505934e-04 -8.1106143650010472e-05 0.0000000000000000e+00  -2.3579671103611538e-04 -1.6039528043640869e-04 0.0000000000000000e+00  -2.0909058668655252e-04 -1.4558141118393747e-04 0.0000000000000000e+00  -2.2957454049504664e-04 -1.9011565721884532e-04 0.0000000000000000e+00  -1.9414963240497560e-04 -1.0473571236030112e-04 0.0000000000000000e+00  -1.8349812869627254e-04 -1.2925059195594774e-04 0.0000000000000000e+00  -8.1096879811791290e-05 -1.0306756201466547e-05 0.0000000000000000e+00  -2.4155455867109858e-04 -1.2496009237336519e-04 0.0000000000000000e+00  -3.2069047966799792e-04 -1.5226225563199364e-04 0.0000000000000000e+00  -3.0561492811074180e-04 -1.1983816456952476e-04 0.0000000000000000e+00  -2.9320923946352025e-04 -1.5959028768528825e-04 0.0000000000000000e+00  -1.6488871021394421e-04 -9.5861711346622051e-05 0.0000000000000000e+00  -1.5235093778878954e-04 -6.9005134154757528e-05 0.0000000000000000e+00  -4.2633571857938281e-04 -7.6154435321666115e-05 0.0000000000000000e+00  -4.7039260652997022e-04 -2.9220419172314180e-05 0.0000000000000000e+00  -3.7879643793125190e-04 -1.6120170159842622e-04 0.0000000000000000e+00  -3.9656842766744212e-04 -1.1919045515239740e-04 0.0000000000000000e+00  -1.9862087430286859e-04 -1.3211154856889861e-04 0.0000000000000000e+00  -1.5586039796900605e-04 -7.5408082432614344e-05 0.0000000000000000e+00  -1.4248856022517037e-04 -1.4628491983224273e-04 0.0000000000000000e+00  -8.1187263710981783e-05 -1.2354086671465412e-04 0.0000000000000000e+00  -3.8466381177681714e-04 -1.0725854083767119e-04 0.0000000000000000e+00  -3.1216308148500159e-04 -1.7766330215006977e-04 0.0000000000000000e+00  -2.3615735773864580e-04 -2.3757516836996076e-05 0.0000000000000000e+00  -3.3503666272367908e-04 -1.2723482008770165e-04 0.0000000000000000e+00  -2.5014773314967431e-04 -2.5174890962216442e-04 0.0000000000000000e+00  -2.4715919448974315e-04 -2.3211893168172392e-04 0.0000000000000000e+00  -1.5685285472681647e-04 7.1833944793594571e-05 0.0000000000000000e+00  -1.6500768013059721e-04 9.4148945764633052e-05 0.0000000000000000e+00  -3.2885658575125716e-04 -1.7152182498449535e-04 0.0000000000000000e+00  -3.3773097857441796e-04 -9.5344557187355296e-05 0.0000000000000000e+00  -3.6073786288576899e-04 -1.1035707630628307e-04 0.0000000000000000e+00  -3.2646096012700881e-04 -6.6137638300605846e-05 0.0000000000000000e+00  -1.5491808665592656e-04 -1.0448567479943763e-04 0.0000000000000000e+00  -1.4884517511562235e-04 -7.5391371684973676e-05 0.0000000000000000e+00  -1.3003695753558992e-04 -7.6276513126314198e-05 0.0000000000000000e+00  -2.7340213010467975e-04 -5.4498298089034832e-05 0.0000000000000000e+00  -2.6216596660036786e-04 -8.3239938724586989e-05 0.0000000000000000e+00  -2.9278768411640987e-04 -9.0096905576341466e-05 0.0000000000000000e+00  -9.6346667957861848e-05 -1.7856890673574025e-05 0.0000000000000000e+00  -1.9094296714914659e-04 -1.3932326745249321e-04 0.0000000000000000e+00  -1.1570827002904961e-04 -6.7361693442051455e-05 0.0000000000000000e+00  -3.7421924751732046e-04 -1.3362803488965746e-04 0.0000000000000000e+00  -4.0065411082608482e-04 -1.5464917426281048e-04 0.0000000000000000e+00  -3.7794399844520525e-04 -1.4718708116107462e-04 0.0000000000000000e+00  -2.8047322557271426e-04 -2.7202820240472316e-05 0.0000000000000000e+00  -2.8034914902396130e-04 -1.3425615650348480e-05 0.0000000000000000e+00  -2.6223600214374449e-04 -1.6421964957717618e-04 0.0000000000000000e+00  -2.6616111841559049e-04 -2.1038906911625583e-04 0.0000000000000000e+00  -1.6106359390176655e-04 -2.9004630898875130e-05 0.0000000000000000e+00  -1.8141742103233857e-04 -7.4535288149197664e-06 0.0000000000000000e+00  -1.5290802964952325e-04 1.5808349622209840e-05 0.0000000000000000e+00  -3.1833969774702834e-04 -9.5873270699521631e-05 0.0000000000000000e+00  -2.4926344104171915e-04 -1.1854318452486210e-04 0.0000000000000000e+00  -2.7380694774983285e-04 -2.2259936266160577e-04 0.0000000000000000e+00  -2.5453726572126779e-04 -2.4928787534393780e-04 0.0000000000000000e+00  -1.7209292449319087e-04 8.2889293563536488e-05 0.0000000000000000e+00  -1.9143168049540394e-04 4.2389652075812736e-05 0.0000000000000000e+00  -2.3253702853677854e-04 -7.9541290042902622e-05 0.0000000000000000e+00  -2.4228662810120609e-04 -6.9079762415578723e-06 0.0000000000000000e+00  -1.9932042091218912e-04 4.4730041954955061e-05 0.0000000000000000e+00  -2.4421489857951280e-04 -1.9821667125116885e-04 0.0000000000000000e+00  -2.4086803813286724e-04 -1.7693119049882355e-04 0.0000000000000000e+00  -1.8127935144098302e-04 -1.4031305081040881e-04 0.0000000000000000e+00  -1.1137087892410063e-04 -4.1102176749022970e-05 0.0000000000000000e+00 