<?xml version="1.0"?>
<VTKFile type="UnstructuredGrid"  version="0.1"  >
<UnstructuredGrid>
<Piece  NumberOfPoints="2549" NumberOfCells="4928">
<Points>
<DataArray  type="Float64"  NumberOfComponents="3"  format="ascii">1.618245106213434 -0.04491181847849551 0  1.608892044455734 -0.002310465862893441 0  1.605635013081149 0.03961830638997991 0  1.596635933677852 0.08315200146532155 0  1.585909541150056 0.125430241133141 0  1.575079182285975 0.1704375726535878 0  1.553886200056345 0.2138340255265793 0  1.559671755637453 0.2648596936672824 0  1.507884428980519 0.2977549107182242 0  1.48689995088419 0.3266422881971944 0  1.477020274296708 0.3961521223467545 0  1.439112867204423 0.4237149487758116 0  1.416410941941777 0.4700736777998406 0  1.382830477956676 0.5091822365707174 0  1.338570542643717 0.5453218757208119 0  1.329422241429367 0.6059271380132952 0  1.255647993201051 0.6075796608299489 0  1.230952153798003 0.6339456413112106 0  1.198865546967073 0.7125413850938298 0  1.152727414071323 0.7158689834775143 0  1.13020860606756 0.7703914061890129 0  1.082658498462436 0.7890925194711246 0  1.046969912898244 0.8328147663730557 0  1.00306520675909 0.8675833127856496 0  0.9550038117064127 0.9028954394117943 0  0.9366285660782435 0.9653713743885596 0  0.8733806908863263 0.9849949725517606 0  0.8277883521579226 1.01216135898418 0  0.782987328163724 1.05551024403409 0  0.7325132376082388 1.084370025051303 0  0.6817144038534553 1.116026516923559 0  0.6324005689417361 1.147176764000392 0  0.5779474974646216 1.174879858632108 0  0.5238272495323731 1.198576743576777 0  0.4705996034678821 1.224986554150252 0  0.4132020874886652 1.245606932492993 0  0.3571282628079813 1.265306156179432 0  0.2990519556943668 1.281147349555448 0  0.2406574461897598 1.295748545613973 0  0.1820160119685432 1.307340925307135 0  0.121717408431478 1.315320210345895 0  0.06213031074470907 1.320717106930927 0  0.001893323789046962 1.323809087731162 0  -0.05832408707763061 1.323524714003828 0  -0.1185936498139705 1.320363748803537 0  -0.1785434763322828 1.314002808711768 0  -0.2383378311591577 1.304975050346052 0  -0.2974459603739054 1.292486622343332 0  -0.3555238599326245 1.277145231556877 0  -0.4141542698653735 1.259188127334352 0  -0.4704289345748519 1.238499367989073 0  -0.5252489567537031 1.213200764243059 0  -0.5812247188750229 1.190992514268052 0  -0.6334357807366239 1.162815659392657 0  -0.686260906978617 1.129407488221161 0  -0.7340963594686047 1.094785778839283 0  -0.7845672686928233 1.068972460383484 0  -0.836008782081456 1.030808069375384 0  -0.8727254305125398 0.9872472418336545 0  -0.9236576605186269 0.9545326117756142 0  -0.9640258953346454 0.9159834672170503 0  -1.015997588561526 0.8992619273719229 0  -1.055055267227033 0.8585906086770505 0  -1.085547943764889 0.7818157988222185 0  -1.127152037370317 0.7578950066111148 0  -1.192680012801338 0.747306257703574 0  -1.203397449904966 0.6854254520800067 0  -1.242767101554732 0.6714829297087175 0  -1.280765958234903 0.6030935114513412 0  -1.31485995653259 0.5915057220781338 0  -1.366595216556124 0.5381017054347537 0  -1.370091707764892 0.4887892432458233 0  -1.454300882810854 0.5075602592856264 0  -1.469009791552258 0.4335780074846853 0  -1.493284890207258 0.3954120957371796 0  -1.518112531150276 0.348473844747601 0  -1.54330910904547 0.3062336068924691 0  -1.555518015841385 0.2547249802730292 0  -1.577105538013369 0.2182715847302053 0  -1.561038121625175 0.1418666950899697 0  -1.594941060509355 0.1384063168035865 0  -1.608533597525442 0.08735576368249227 0  -1.574456974307537 0.03580150672137712 0  -1.565623106108164 -0.0008743794095196905 0  -1.562174132613165 -0.04332345556714581 0  -1.575339087936776 -0.07427511676511497 0  -1.553171938295008 -0.1128385847069219 0  -1.570462389259013 -0.1561217658384986 0  -1.552530770696657 -0.2067386600637794 0  -1.53072142763136 -0.2156664131667378 0  -1.557485475087127 -0.2838475054973559 0  -1.53680757087495 -0.3266042074667415 0  -1.52883286717166 -0.3835211879687563 0  -1.504067337065849 -0.4295291050908092 0  -1.480080261967145 -0.4782796558101614 0  -1.444304006632882 -0.5118434430778931 0  -1.445194750188978 -0.5839505079477161 0  -1.371892107883238 -0.6031442153263026 0  -1.342198135597651 -0.6251480836800911 0  -1.306019169830058 -0.6768098441358478 0  -1.275651017204355 -0.6938000202687012 0  -1.244585689547789 -0.7492041712425082 0  -1.20706003455973 -0.7726404160892766 0  -1.190489422425625 -0.8268122896608046 0  -1.13335086187208 -0.8444780024652604 0  -1.096465594101095 -0.8745226009632941 0  -1.07138815997182 -0.9485108485773205 0  -1.028919534200406 -0.986213658786965 0  -0.9802462562455837 -1.012947927638485 0  -0.9392411159087709 -1.05464045113685 0  -0.8961148078923052 -1.095207085664714 0  -0.852735927704386 -1.137180184991065 0  -0.7994988276888263 -1.168430230744181 0  -0.749303791057677 -1.19989334141547 0  -0.7092685683842965 -1.25394427181536 0  -0.6474673004752202 -1.280171056564649 0  -0.595246608346199 -1.306307770982811 0  -0.5387361529899397 -1.334074700285732 0  -0.4819454012981085 -1.359574930426751 0  -0.4265024789648447 -1.383889929299558 0  -0.3651172387662165 -1.402433888238706 0  -0.3064877264872935 -1.418057117375936 0  -0.24663095296764 -1.431977083360391 0  -0.1855400133901827 -1.441103716678537 0  -0.1246726910555476 -1.448186923069908 0  -0.06323005437030957 -1.451438359822446 0  -0.001778099648928225 -1.451691356825254 0  0.05961565256886668 -1.448295283748038 0  0.1209125456070245 -1.441591828370718 0  0.1812786205979292 -1.431572760032216 0  0.241282258853908 -1.419145240158881 0  0.3002549141044577 -1.403441664314365 0  0.35907391609655 -1.386234608108662 0  0.4159438681810919 -1.365192689571472 0  0.4734217310623588 -1.343282732883607 0  0.5278844714978789 -1.315548008400451 0  0.581258067172601 -1.292418475269796 0  0.6373261877655459 -1.263567088002501 0  0.6856265068097693 -1.230021726607514 0  0.7379112631830431 -1.19896864094412 0  0.7874368871905859 -1.166409487744586 0  0.8334663326329306 -1.127502757703636 0  0.8793279029072822 -1.095537212180293 0  0.9337055022023817 -1.06935040063743 0  0.9652037799681324 -1.021032055634403 0  1.009546580185016 -0.9831466068900206 0  1.05567800263351 -0.9482989623629777 0  1.093548939470782 -0.9058797030148467 0  1.132904658875088 -0.8714463937131117 0  1.17149971749687 -0.8335786680366106 0  1.211674545664367 -0.8057088257277435 0  1.235275066996541 -0.7384295471507626 0  1.273828532880433 -0.7238571945901515 0  1.329688097223896 -0.6954640831126213 0  1.344488485338234 -0.6434017211176838 0  1.38612702233752 -0.6074001054226786 0  1.418624947861784 -0.5666003638351919 0  1.446289426391313 -0.5212521540161356 0  1.480578419856105 -0.4865306589287787 0  1.494383309679224 -0.4230215397408509 0  1.52038335361802 -0.3975257564378751 0  1.556585148267417 -0.3560308135203545 0  1.56218932761262 -0.307054823127122 0  1.579184582179721 -0.2621595485113883 0  1.589508867752635 -0.2165885713443515 0  1.598807133057613 -0.1729085767688668 0  1.604701807018151 -0.1293937257650312 0  1.615047409412163 -0.08980909714010508 0  -0.1012610601256708 0.7884062399834341 0  0.5968845812219078 -0.7118119292914021 0  -0.750966196503504 -0.6192895845942915 0  -0.08113598040121255 -0.8894408995525389 0  0.5941169313240279 0.6028959979639187 0  1.152828228928435 0.1890320102917159 0  -0.7665194844715937 0.513675106799082 0  -1.235729504089184 -0.03864951025168101 0  1.156175252348665 -0.2872974598379323 0  -1.041263710631691 -0.4399491815302902 0  -0.800286802296758 -0.05733066108719299 0  -0.4767038483350265 -0.2326970586056436 0  -1.062665507249143 0.3360441667006672 0  0.2762938714932766 -0.8634476654670933 0  0.1317983347726835 -0.2961034717864066 0  0.243036537610316 0.7471684858800708 0  0.3329772294628572 0.1939372938723469 0  0.6492347140597413 -0.0491323503377863 0  -0.4163687351970637 -0.7806042879650181 0  -0.4509902796563117 0.6924330680947974 0  -0.2771694449676307 0.252657940044742 0  0.9057406415719726 -0.4861407859360099 0  0.9022819615121073 0.3833256510939315 0  0.4002237388552335 -0.3255098063681968 0  0.02610224033495449 0.2470685557608742 0  -0.5414449038867266 0.1924066212718253 0  -0.175241110508153 -0.2882359369713556 0  0.9355886531229579 -0.04940222072988124 0  1.343155400501262 -0.04737349684454793 0  0.7510764248478478 -0.5953657913734095 0  0.7687235646545715 -0.2774323001499889 0  0.6134818796045116 -0.3765563126477486 0  0.5232721294726118 -0.1829194323885849 0  0.4924358857296942 -0.5241142367053681 0  0.9137772546816088 -0.2662295900830365 0  0.7916646122665838 -0.04928096918674833 0  -0.9215795553849302 0.1501560350214254 0  -1.148616527667237 0.1466515261982353 0  -1.021994808313463 -0.0470396418001949 0  -0.9110670273625121 -0.2578700527305172 0  -1.134058360530721 -0.2366558549059262 0  -1.312553813552964 -0.3300989940887496 0  -1.384026526518472 -0.1463098058456365 0  -1.402206464933703 0.07206323954622031 0  -1.326658564808154 0.2476163770752093 0  -0.1287220549473005 -0.5886162446758141 0  -0.2883285053614405 -0.5405385971731448 0  -0.2503236349016367 -0.8412272048067321 0  -0.3252629652274147 -0.2618550578016837 0  -0.4418835267525131 -0.503818408999913 0  -1.235115809738977 -0.5129884119675677 0  -1.253075365617035 0.421590476403934 0  0.3367095646831458 -0.5915241663748874 0  0.265061044196736 -0.3125475927349704 0  0.1980294893338707 -0.5830318647777613 0  -0.9130925562028329 0.4195299202292807 0  -0.7746288956485889 0.2261419098217133 0  1.343034847492074 -0.3596355970073134 0  1.213013390470554 -0.5182701857602235 0  1.209282535393977 0.4191884055230044 0  1.338526161057709 0.2631628050514443 0  -0.7625771346449731 -0.9002529260067028 0  -0.9356895267576988 -0.7588020922073911 0  -0.9412897691179536 0.6605757017490066 0  -0.7623587995064716 0.791841152687795 0  0.7704734057541052 -0.8880653316490642 0  0.5811817657737682 -1.003665127517102 0  0.5784611493537274 0.8915112085502086 0  0.7654993634242319 0.7790128888408393 0  0.00759256458031
[...]
<CellData  Scalars="f_8133"> 
<DataArray  type="Float64"  Name="f_8133"  format="ascii">1.1179169421352685e-01   1.1180096144600681e-01   1.1179009475153132e-01   1.1179648239954208e-01   1.1180070043716865e-01   1.1179424740337580e-01   1.1180355570294333e-01   1.1180299986394800e-01   1.1178968844689087e-01   1.1180115758417916e-01   1.1178873024335713e-01   1.1179411397760707e-01   1.1179084212549625e-01   1.1180456767548444e-01   1.1178928328015063e-01   1.1178720966390140e-01   1.1180158908577599e-01   1.1179419065506277e-01   1.1180392764341553e-01   1.1180412957259753e-01   1.1178827276377423e-01   1.1180429465643010e-01   1.1178564860290914e-01   1.1178981941336644e-01   1.1180599330375902e-01   1.1179349979241524e-01   1.1179839153860993e-01   1.1180707535460561e-01   1.1180450824985851e-01   1.1178673328717990e-01   1.1180527428829902e-01   1.1180589179655713e-01   1.1178856925987567e-01   1.1180144665812471e-01   1.1178687429966921e-01   1.1179269630745468e-01   1.1180299620734094e-01   1.1179867484475234e-01   1.1179872101267108e-01   1.1180567453777820e-01   1.1179195326666498e-01   1.1179746823673684e-01   1.1177107346955449e-01   1.1177515202474127e-01   1.1179516237153007e-01   1.1179832616848673e-01   1.1176858122536583e-01   1.1176424567331365e-01   1.1178330690628947e-01   1.1180714735973445e-01   1.1178208240385835e-01   1.1177580931205154e-01   1.1180844679424283e-01   1.1178852174295216e-01   1.1179903940745668e-01   1.1180755114674890e-01   1.1179077108566141e-01   1.1179847527330981e-01   1.1175901382760674e-01   1.1175346814300301e-01   1.1178417573646586e-01   1.1180055412727705e-01   1.1174667801079162e-01   1.1174926540913017e-01   1.1176699745558587e-01   1.1175947080969117e-01   1.1173732565003516e-01   1.1182112447579974e-01   1.1176364071284436e-01   1.1181736469294959e-01   1.1178273273364361e-01   1.1178341416665502e-01   1.1173944675912061e-01   1.1175861649276803e-01   1.1173331491056042e-01   1.1181759858489655e-01   1.1180022649797412e-01   1.1178321954168244e-01   1.1179949086380035e-01   1.1180208568564948e-01   1.1175819801571230e-01   1.1181823193244989e-01   1.1178444814409684e-01   1.1178359167353367e-01   1.1179628678883609e-01   1.1178398148004103e-01   1.1179987054567972e-01   1.1179874946295645e-01   1.1178659946469771e-01   1.1180370359167038e-01   1.1178703502626430e-01   1.1179081239449920e-01   1.1178341425714043e-01   1.1180196456623161e-01   1.1178853258951803e-01   1.1178729486076240e-01   1.1172859875286575e-01   1.1175681364727783e-01   1.1172311558481039e-01   1.1181611466593254e-01   1.1176230431476133e-01   1.1182259016178332e-01   1.1178116918306658e-01   1.1178748533118152e-01   1.1172476706466661e-01   1.1175039947162581e-01   1.1168454870343485e-01   1.1178461513829155e-01   1.1180081685292231e-01   1.1178153641616702e-01   1.1176901163495483e-01   1.1177831115766022e-01   1.1179948386531656e-01   1.1179080905933129e-01   1.1179911479124226e-01   1.1179767379536877e-01   1.1179333013412750e-01   1.1180154933648928e-01   1.1179321108201186e-01   1.1179479829053730e-01   1.1180169572951784e-01   1.1179032696503848e-01   1.1178137920384665e-01   1.1178502107242523e-01   1.1180016213115417e-01   1.1179538890177532e-01   1.1178799748279174e-01   1.1179058741545123e-01   1.1182049436520412e-01   1.1180186223266499e-01   1.1179362339486285e-01   1.1182854340141785e-01   1.1179186792024609e-01   1.1179546341982376e-01   1.1179146799591791e-01   1.1180143564925692e-01   1.1179974803708281e-01   1.1179315890590825e-01   1.1179610583531314e-01   1.1180360049459008e-01   1.1183074943643999e-01   1.1180153213026724e-01   1.1179358529743644e-01   1.1183482987176815e-01   1.1179218973216999e-01   1.1180118643070945e-01   1.1179324021056378e-01   1.1179378206523494e-01   1.1179903763478118e-01   1.1179259957998036e-01   1.1180236702180922e-01   1.1180229070133955e-01   1.1179216840767700e-01   1.1179875935827591e-01   1.1179220080749258e-01   1.1179225676282604e-01   1.1178979213125981e-01   1.1179252758928097e-01   1.1178862133664302e-01   1.1180136787734005e-01   1.1179475462880663e-01   1.1179183724693226e-01   1.1179304823994407e-01   1.1180121262585094e-01   1.1179214007232187e-01   1.1180038917814675e-01   1.1179396582000994e-01   1.1179389424398643e-01   1.1179040524845524e-01   1.1179332543671222e-01   1.1178527634467457e-01   1.1180110898875238e-01   1.1179873696556032e-01   1.1179322398336664e-01   1.1179697963867304e-01   1.1179790966776842e-01   1.1183871030271622e-01   1.1180119124975152e-01   1.1179095921728685e-01   1.1184262713552999e-01   1.1178690409096882e-01   1.1179015021440859e-01   1.1178837289570670e-01   1.1180214151153615e-01   1.1180167425471300e-01   1.1179108216646420e-01   1.1179658687789810e-01   1.1180071190367677e-01   1.1184707191335921e-01   1.1179402983024390e-01   1.1178199932060245e-01   1.1185543556163906e-01   1.1181914283234021e-01   1.1180045362692841e-01   1.1181739140198897e-01   1.1178903748009190e-01   1.1180025053944367e-01   1.1179052729245374e-01   1.1179416549386526e-01   1.1179578845834759e-01   1.1181679047012252e-01   1.1179940873324522e-01   1.1181616759063211e-01   1.1179232705066772e-01   1.1179761282624595e-01   1.1179735603831788e-01   1.1179678007425202e-01   1.1179575251609075e-01   1.1179845017064095e-01   1.1179257121590375e-01   1.1179445692762674e-01   1.1179387201951814e-01   1.1179968940123063e-01   1.1179713746231255e-01   1.1179725403128403e-01   1.1179677133881215e-01   1.1179354702648159e-01   1.1178484227389195e-01   1.1180798911172780e-01   1.1179476052436417e-01   1.1179656547460155e-01   1.1179426797916320e-01   1.1179787572528996e-01   1.1179770599038313e-01   1.1181468216974665e-01   1.1179867176913906e-01   1.1181688321826411e-01   1.1179641132021646e-01   1.1179428299462398e-01   1.1178588522669343e-01   1.1180143852571187e-01   1.1179116149134399e-01   1.1180759964015177e-01   1.1180801681831118e-01   1.1183499955814903e-01   1.1183175002771548e-01   1.1178786683337313e-01   1.1180676732432457e-01   1.1183370621324706e-01   1.1183117242011084e-01   1.1179530983262810e-01   1.1179868303965282e-01   1.1179653611087395e-01   1.1179789629128101e-01   1.1179578816727834e-01   1.1178571428089558e-01   1.1180917973305041e-01   1.1179836121019908e-01   1.1178489840496404e-01   1.1180893314098472e-01   1.1182873446054560e-01   1.1182589720153095e-01   1.1178635712846213e-01   1.1180489300165214e-01   1.1182299184661829e-01   1.1182496802096582e-01   1.1181937147344731e-01   1.1180489653448911e-01   1.1180320304857248e-01   1.1182222230757452e-01   1.1179354968566377e-01   1.1179355088195485e-01   1.1179244149145265e-01   1.1179998220978386e-01   1.1180967802317460e-01   1.1179570180034649e-01   1.1180878624189701e-01   1.1180055902061470e-01   1.1182330472305393e-01   1.1180235752388501e-01   1.1179451644303541e-01   1.1182339260323111e-01   1.1179488240511370e-01   1.1179796831349725e-01   1.1179281278584302e-01   1.1179374431202689e-01   1.1179965266951586e-01   1.1179494111881078e-01   1.1180064898349103e-01   1.1180195483033695e-01   1.1179436208894483e-01   1.1179852341183576e-01   1.1179458332244578e-01   1.1179537399243263e-01   1.1179315355024654e-01   1.1179303136485257e-01   1.1179351018319975e-01   1.1180269928168589e-01   1.1181021682851013e-01   1.1179499715932412e-01   1.1181096051003205e-01   1.1179733918833314e-01   1.1179585535837970e-01   1.1179637481646006e-01   1.1179378685373573e-01   1.1179257181178587e-01   1.1181203619808389e-01   1.1179267949244250e-01   1.1181454926728139e-01   1.1179117444055069e-01   1.1179967164665218e-01   1.1179393605843688e-01   1.1179790471544751e-01   1.1179689016375750e-01   1.1182346993326435e-01   1.1180323026290499e-01   1.1179266866673107e-01   1.1182333247511091e-01   1.1179359147605782e-01   1.1179322496986953e-01   1.1179486544650805e-01   1.1180383219460083e-01   1.1180051884259010e-01   1.1179481909267856e-01   1.1179704408770207e-01   1.1180009457838079e-01   1.1182328885802340e-01   1.1179855067743243e-01   1.1179085013965036e-01   1.1182725032441086e-01   7.8420218649409526e-02   1.0864354470180887e-01   1.1432538161928754e-01   9.9864440376062791e-02   1.1122353863211483e-01   1.1151037971126271e-01   1.1155480781262649e-01   1.0961707311605351e-01   1.1151633875961982e-01   1.1191583619120023e-01   1.1180563118875410e-01   1.1200819771021904e-01   1.1366771742962517e-01   1.1476618865295707e-01   1.1156145486182262e-01   1.0995811059214426e-01   1.1175796073804728e-01   1.1175534576021963e-01   1.1182288516378465e-01   1.1179390783259224e-01   1.1178507735961708e-01   1.1179883691546168e-01   1.1164115160175322e-01   1.1177965515643125e-01   1.1183630942147178e-01   1.1180805285157226e-01   1.1179829871134367e-01   1.1184558423873335e-01   1.1195463020631082e-01   1.1210080725484178e-01   1.1169746178486038e-01   1.0804369410650007e-01   1.1180257193102910e-01   1.1181402075088612e-01   1.1178741218160704e-01   1.1178833398188304e-01   1.1180981114642466e-01   1.1179127933458663e-01   1.1180410528298097e-01   1.1180995397067126e-01   1.1179864711242851e-01   1.1180353684808868e-01   1.1178005881675569e-01   1.1177506460576735e-01   1.1178193358662786e-01   1.1182739395128241e-01   1.1179368672042217e-01   1.1174659252689625e-01   1.0983101329662250e-01   1.1319023093094813e-01   1.1216890169026390e-01   1.0303419216620770e-01   1.1229623315804568e-01   1.1374259188584186e-01   1.1244879532501767e-01   1.0677030262628046e-01   1.1137494374049532e-01   1.1174272056063278e-01   1.1200820955578523e-01   1.1118472134182991e-01   9.0219597307586066e-02   9.6033627317747464e-02   1.1420055224990937e-01   7.2030985545357806e-02   5.7272922770157893e-02   9.1844588772815636e-02   1.1584685534246372e-01   8.7172489237504577e-02   1.1224856814065806e-01   1.1185060509055614e-01   1.1211156339074334e-01   1.1080043990233354e-01   1.1130019388380100e-01   1.1196317372668638e-01   1.1190698909143007e-01   1.1152276945241514e-01   1.0755299281404179e-01   1.1125139974640137e-01   1.1206595250590816e-01   1.0990583649732877e-01   1.1182805415432318e-01   1.1173458062394223e-01   1.1184656083516324e-01   1.1182539805379650e-01   1.1175115543615000e-01   1.1178322830747285e-01   1.1172012624805339e-01   1.1164565347325599e-01   1.1181938453065075e-01   1.1173486150041161e-01   1.1180255178562087e-01   1.1180649742237403e-01   1.1171530685796864e-01   1.1218796323064076e-01   1.1179799026126677e-01   1.0966333701444740e-01   1.1176476724603762e-01   1.1181921431388081e-01   1.1177163561538270e-01   1.1176165212062525e-01   1.1181303943010784e-01   1.1177812986977714e-01   1.1181207184536680e-01   1.1181843997088384e-01   1.1177112664607237e-01   1.1180625908604806e-01   1.1177491877680837e-01   1.1178840383683851e-01   1.1176233613865599e-01   1.1181656222365069e-01   1.1177411706309169e-01   1.1177200916635292e-01   1.1020972722835121e-01   1.1346844184367029e-01   1.1182474570253625e-01   1.1145277480029672e-01   1.1165489643714266e-01   1.1214602809979676e-01   1.1158754126884096e-01   1.0992957293516613e-01   1.1172968625750128e-01   1.1179452839260508e-01   1.1171698664417019e-01   1.1160710507815684e-01   1.1905275345389939e-01   1.1393245366612513e-01   1.1147153144941217e-01   7.3071949899689265e-02   1.1179929820494358e-01   1.1179078483405634e-01   1.1179846668008345e-01   1.1179993779262687e-01   1.1178888077184479e-01   1.1180096735120475e-01   1.1178914078915257e-01   1.1179244133577515e-01   1.1179849678436164e-01   1.1178402825317713e-01   1.1179834488099433e-01   1.1180152445773048e-01   1.1180022456140445e-01   1.1179191819282162e-01   1.1180013090527426e-01   1.1180029643652256e-01   1.1177785224711374e-01   1.1180266280580217e-01   1.1178040581699210e-01   1.1178540078872540e-01   1.1179911648934768e-01   1.1178594041527538e-01   1.1179926913944017e-01   1.1180041290861205e-01   1.1178336890291608e-01   1.1180056659019857e-01   1.1178367506930344e-01   1.1178837733828879e-01   1.1178934479073585e-01   1.1180016598398324e-01   1.1178995474550842e-01   1.1179243943136224e-01   1.1179793192431828e-01   1.1176841325775677e-01   1.1179556247651280e-01   1.1180233699232427e-01   1.1176008548872973e-01   1.1180461825472070e-01   1.1176871501122458e-01   1.1177659645735902e-01   1.1179675263661334e-01   1.1175155556134607e-01   1.1171788337218440e-01   1.1176644419668455e-01   1.1180054168093723e-01   1.1177753715083122e-01   1.1177367017572094e-01   1.1178201763688191e-01   1.1180037424544667e-01   1.1179274917204650e-01   1.1179904325286494e-01   1.1179999903117226e-01   1.1179148170250457e-01   1.1180028011168001e-01   1.1179108828650870e-01   1.1179437606815591e-01   1.1180035519909630e-01   1.1178778876801237e-01   1.1178672828495091e-01   1.1179028250138381e-01   1.1180087174388659e-01   1.1179237745086137e-01   1.1179215226663604e-01   1.1179614212297302e-01   1.1180421138607975e-01   1.1179887201366066e-01   1.1179845886082192e-01   1.1179910431420008e-01   1.1179614288217056e-01   1.1179262519108966e-01   1.1179019320725345e-01   1.1179492723325592e-01   1.1179927427657728e-01   1.1179430306599272e-01   1.1179846792171630e-01   1.1179262276769761e-01   1.1180137719584644e-01   1.1179103351346212e-01   1.1179595233093929e-01   1.1180289736927708e-01   1.1179063677506715e-01   1.1179139246106029e-01   1.1177670006072014e-01   1.1178556360846738e-01   1.1180093003540621e-01   1.1177521656207896e-01   1.1180441795185331e-01   1.1179818598113701e-01   1.1175879911187861e-01   1.1181399025962460e-01   1.1173149145120109e-01   1.1175911977869508e-01   1.1178401709266866e-01   1.1179943482825963e-01   1.1177392739568741e-01   1.1178452279600443e-01   1.1179844172159936e-01   1.1178473491164569e-01   1.1179879474708138e-01   1.1179196567582964e-01   1.1177109375680554e-01   1.1179665664374477e-01   1.1172552797064178e-01   1.1176151929338803e-01   1.1180457506489756e-01   1.1175423371674618e-01   1.1180119588776753e-01   1.1181620207802871e-01   1.1181086575682946e-01   1.1172758037493609e-01   1.1182891536947118e-01   1.1182905871990786e-01   1.1180579520182303e-01   1.1177524611588077e-01   1.1180551192812443e-01   1.1180977784088796e-01   1.1176140520057233e-01   1.1181333863361254e-01   1.1174700180415961e-01   1.1176597963064586e-01   1.1181533018360873e-01   1.1173992747431710e-01   1.1182466985708671e-01   1.1181895096165242e-01   1.1181003537670964e-01   1.1175826394279513e-01   1.1181830412010202e-01   1.1180074870654096e-01   8.2386938305978638e-02   1.1365833498852120e-01   1.1244588305249316e-01   1.1406128889405792e-01   1.1119699123449678e-01   1.1168930171781079e-01   1.1196115117620790e-01   1.1101858634282283e-01   1.1167041147977405e-01   1.1184475848740563e-01   1.1173253041219920e-01   1.1184355549072007e-01   1.1144231562194390e-01   1.1193714110652089e-01   1.1185788574152017e-01   1.1180848033888895e-01   1.1179652950847535e-01   1.1179809061107894e-01   1.1180524431749532e-01   1.1177226270211907e-01   1.1179453696284065e-01   1.1180713636685756e-01   1.1179928051492691e-01   1.1177982018247334e-01   1.1179856154643797e-01   1.1180265837198940e-01   1.1179123886154385e-01   1.1179608233706548e-01   1.1175582685176545e-01   1.1178451469658585e-01   1.1180309966148733e-01   1.1177784882140109e-01   1.1176721545212030e-01   1.1179879068217626e-01   1.1177055444596048e-01   1.1179581843079919e-01   1.1180031085829555e-01   1.1180369977563304e-01   1.1179568709851374e-01   1.1180332448340008e-01   1.1178213566513151e-01   1.1179349570378609e-01   1.1175958633514377e-01   1.1177583783153351e-01   1.1180019026210546e-01   1.1179249249294414e-01   1.1177105432563528e-01   1.1177232077766686e-01   1.1180286276808181e-01   1.1179182704714007e-01   1.1180012581815178e-01   1.1179984014959075e-01   1.1179542424747638e-01   1.1180915657217377e-01   1.1178790824755917e-01   1.1179453481012142e-01   1.1180485766828147e-01   1.1178930370230990e-01   1.1177329692106501e-01   1.1177480998285638e-01   1.1181080408122132e-01   1.1178660933653962e-01   1.1177566170203172e-01   1.1178409258620167e-01   1.1178482205400532e-01   1.1178087884990136e-01   1.1177321455895152e-01   1.1181416726847544e-01   1.1178090817307970e-01   1.1181111537171774e-01   1.1178984587019108e-01   1.1178655977794627e-01   1.1176794601487487e-01   1.1178274257251655e-01   1.1176143811355306e-01   1.1180555417226987e-01   1.1180462284794979e-01   1.1177778727279178e-01   1.1179742077945549e-01   1.1180711815508962e-01   1.1178682042969262e-01   1.1179868338685797e-01   1.1180417362875242e-01   1.1179516078602951e-01   1.1177115785969841e-01   1.1180706415882606e-01   1.1175588901977283e-01   1.1179188629035812e-01   1.1182427546321340e-01   1.1173702038753396e-01   1.1188538668569510e-01   1.1184442753324658e-01   1.1178964645684035e-01   1.1180273473799535e-01   1.1177251639563819e-01   1.1177652609842910e-01   1.1175543824902683e-01   1.1179120949083128e-01   1.1174969138938069e-01   1.1178887314633019e-01   1.1179864049246901e-01   1.1179014355563324e-01   1.1181159813657697e-01   1.1181583765899916e-01   1.1175442684441944e-01   1.1179339634703313e-01   1.1173503744045588e-01   1.1176050981210976e-01   1.1176187754650518e-01   1.1182181016703811e-01   1.1173103120466650e-01   1.1169020113092722e-01   1.1178978107548222e-01   1.1176526083682292e-01   1.1189154467852480e-01   1.1209716350914446e-01   1.1197506526902291e-01   1.1150427701457533e-01   1.1260554842372909e-01   1.1050449538914769e-01   1.1162889309308063e-01   1.1193949492352452e-01   1.1150981583090791e-01   1.1110736819543557e-01   1.1472435700159218e-01   1.0934138252295861e-01   1.0991500074953242e-01   7.9262878328833136e-02   1.1181547122563115e-01   1.1180172869918237e-01   1.1180156422692104e-01   1.1181189227679006e-01   1.1179360549559818e-01   1.1179284517340053e-01   1.1178801074779970e-01   1.1179721411555388e-01   1.1180656157625586e-01   1.1179153723400215e-01   1.1180677229360590e-01   1.1179937476008354e-01   1.1181583989014920e-01   1.1179586708591149e-01   1.1179398764271054e-01   1.1181927284611282e-01   1.1178638248289510e-01   1.1180087138442842e-01   1.1177685817215659e-01   1.1178426375046292e-01   1.1180578487963562e-01   1.1177695094333882e-01   1.1180605685777652e-01   1.1180274175111964e-01   1.1176546114289650e-01   1.1181174991179182e-01   1.1174661504322642e-01   1.1176359073847539e-01   1.1178314473781065e-01   1.1179320962156748e-01   1.1177436004148036e-01   1.1179197847809264e-01   1.1180820150725922e-01   1.1177933032713831e-01   1.1181038366169975e-01   1.1180523512614082e-01   1.1177290622961786e-01   1.1180947696164656e-01   1.1175783086979309e-01   1.1176833804350542e-01   1.1180548637990705e-01   1.1176803180672626e-01   1.1179486760045350e-01   1.1181887691744531e-01   1.1181207865062419e-01   1.1175398560098498e-01   1.1181750211096698e-01   1.1182384839724072e-01   1.1182535571160639e-01   1.1178565814809832e-01   1.1179502166958533e-01   1.1183620539731229e-01   1.1175949012792981e-01   1.1179883733306836e-01   1.1173311356216631e-01   1.1177246140395940e-01   1.1181352598041491e-01   1.1174154842913342e-01   1.1182886334820888e-01   1.1183776137656168e-01   1.1185236036642840e-01   1.1175228424802439e-01   1.1182889468185989e-01   1.1190417773808378e-01   1.1178991301995334e-01   1.1180314572030181e-01   1.1178748250427638e-01   1.1179523536055118e-01   1.1180304163775881e-01   1.1179403402252749e-01   1.1180439523349030e-01   1.1180444046709145e-01   1.1178846338156198e-01   1.1180274254676892e-01   1.1178812086989719e-01   1.1179404713870468e-01   1.1178990675735856e-01   1.1180389229417556e-01   1.1179081518281107e-01   1.1178774893602131e-01   1.1180256513708683e-01   1.1179459449592478e-01   1.1180297292003363e-01   1.1180402165430622e-01   1.1179053477805934e-01   1.1180227090676917e-01   1.1178925207707589e-01   1.1179133118615708e-01   1.1180306398558379e-01   1.1179646595469005e-01   1.1179521617099636e-01   1.1180304336169332e-01   1.1180354269