<?xml version="1.0"?>
<VTKFile type="UnstructuredGrid"  version="0.1"  >
<UnstructuredGrid>
<Piece  NumberOfPoints="2549" NumberOfCells="4928">
<Points>
<DataArray  type="Float64"  NumberOfComponents="3"  format="ascii">0.6198748852051805 -0.1657220105426936 0  0.6094695735934272 -0.1548622695739827 0  0.5893921747922957 -0.1635511538584934 0  0.6036531369172482 -0.1544503746569899 0  0.6218738169843414 -0.1416268409540999 0  0.6519400852017836 -0.1141584619351028 0  0.677706239095343 -0.08142044703941009 0  0.7238984288202457 -0.02863494285785406 0  0.7201767333345539 0.01553298930901464 0  0.7189551116124315 -0.01389124037727141 0  0.7712636437400916 0.09623748983766506 0  0.7802313821622934 0.1437286349562521 0  0.7986128172243121 0.2143690888241727 0  0.8087060693102479 0.2777951991978408 0  0.8177155184624484 0.3414711563499797 0  0.8308488689060429 0.4201706024821787 0  0.8091124523798117 0.4764170268088189 0  0.816874971645855 0.4759532826003259 0  0.8314900573925127 0.5964235971813926 0  0.8283700175408 0.6645458060864425 0  0.8263937790264297 0.751066257938135 0  0.8193312331683433 0.8318630052627247 0  0.8107058718099251 0.9155294280523318 0  0.801085072290519 1.005959224893734 0  0.7759983965841086 1.095929440181846 0  0.7561624116935959 1.151004606634525 0  0.7373565468117135 1.233522246115023 0  0.7132835744681634 1.314436043436513 0  0.6855880602072434 1.395019235011344 0  0.6541064347034514 1.474054850122654 0  0.6190596906719704 1.550239228337003 0  0.5810629680683272 1.625519669501919 0  0.5357808879042381 1.6927501327369 0  0.4931967509809421 1.74978549855896 0  0.4456001069382811 1.812211547247906 0  0.3954015317077828 1.865071117675552 0  0.3427774061852001 1.912938497674208 0  0.288266506076352 1.954231680605405 0  0.2320212161349491 1.988765261617907 0  0.1748068718395841 2.018332340145106 0  0.1143925774891298 2.037046526000286 0  0.05684784450767523 2.049273775725671 0  -0.003025440043287207 2.059162196270186 0  -0.06294894201069418 2.060183730108985 0  -0.1231532415198476 2.054800846623611 0  -0.1832180447433411 2.041488941496314 0  -0.2426014347819458 2.021301878235077 0  -0.3012786815534763 1.990655219495769 0  -0.3564985640470109 1.959226958824824 0  -0.4150161902223036 1.917433077835969 0  -0.4681593192126463 1.863102961854272 0  -0.5187340653313667 1.802964335124655 0  -0.5658420027602987 1.735855257023147 0  -0.6091417079489353 1.661871333115497 0  -0.6482343287249426 1.585457304158633 0  -0.6824153174212171 1.495462453617346 0  -0.7088250748791087 1.431311390966577 0  -0.7454674430686363 1.346388129732002 0  -0.7669390212175937 1.251164820141322 0  -0.7858953530461379 1.160541748407855 0  -0.8014023465561594 1.071024900000066 0  -0.8122983473041443 0.9766544858182024 0  -0.8211030974785434 0.8967663743753052 0  -0.8205051477570644 0.7746301230521231 0  -0.8084347577023132 0.7336934818013221 0  -0.8257455547363963 0.6799258821531199 0  -0.8208028049840904 0.6038743052376992 0  -0.8181886046557963 0.543901013032323 0  -0.813456742900299 0.4836400128896194 0  -0.8133244224801123 0.4463267522371469 0  -0.8041160610306908 0.3830342156250289 0  -0.8340869974767949 0.4463685058444183 0  -0.8881068244362946 0.3759170394910774 0  -0.8035247744133268 0.1969737452887092 0  -0.8092046723614378 0.1497350890378485 0  -0.7781506722236533 0.07160721818793492 0  -0.7660717042624094 0.01279046897602043 0  -0.7072595436334137 -0.07984780313059181 0  -0.6968274626222744 -0.1038035962273302 0  -0.5424428819187996 -0.2545896468759189 0  -0.5663395717984352 -0.1465953415727006 0  -0.5900608538060785 -0.1855648945318955 0  -0.413657104947643 -0.2096605464752579 0  -0.4185969380506227 -0.1989317870044422 0  -0.371739439380999 -0.1780576675265002 0  -0.4285690255369996 -0.1571917902176856 0  -0.4276706450462515 -0.1485781651164622 0  -0.621582249197256 -0.1758302470184488 0  -0.5974724064913111 -0.2188380263812117 0  -0.574433443180508 -0.1040244738358081 0  -0.7449296630169171 -0.2734128371588802 0  -0.7544110848057308 -0.299450699232687 0  -0.8170943964184603 -0.4005301193654479 0  -0.8279821307566336 -0.4632613317267704 0  -0.8575582996841831 -0.5448207310739692 0  -0.8446472660745451 -0.5886854899365458 0  -0.9316766845085758 -0.7638770782071758 0  -0.8862106406627395 -0.8588468929341382 0  -0.8508454629694975 -0.7856644404869757 0  -0.8617970444811897 -0.8543718865832164 0  -0.8616911889038419 -0.8916940690281875 0  -0.867892066539621 -0.9549617748424508 0  -0.8715975346577753 -1.017556885972136 0  -0.8781985351265081 -1.097422339143725 0  -0.8624256907087116 -1.151781035895259 0  -0.8790874390767414 -1.196682395443144 0  -0.8821746245335347 -1.337166964114533 0  -0.8744092693650285 -1.423899500603373 0  -0.8649473182204186 -1.529145186511032 0  -0.8508838898689146 -1.628868064208639 0  -0.8330375961469072 -1.73042632458056 0  -0.8113079013161456 -1.83513186168617 0  -0.7795773524068681 -1.925604000391498 0  -0.757385981974826 -2.016068373618725 0  -0.7182499108957761 -2.1365073425228 0  -0.6744148354936322 -2.225621858490888 0  -0.6257859986586544 -2.315190565130938 0  -0.572911465409593 -2.394024561346292 0  -0.5159827200188156 -2.464618429397714 0  -0.4564247420399885 -2.529502926488409 0  -0.3880572189733075 -2.575942984353678 0  -0.3277092208307578 -2.60753203032843 0  -0.2623050178203855 -2.644246106966082 0  -0.1956341912453465 -2.667812491760678 0  -0.1277463386366608 -2.68345778318152 0  -0.05928044546857242 -2.689224704048697 0  0.009244966649134174 -2.685875095391478 0  0.07765153801795663 -2.672460237233005 0  0.1452865350698484 -2.64828451515383 0  0.2098774240897115 -2.615920190796954 0  0.2729997271677535 -2.577387878581825 0  0.334199757562836 -2.531340648853792 0  0.3930988318562406 -2.478528972882197 0  0.4493646889358018 -2.418404691017445 0  0.5023352023091991 -2.354273723359375 0  0.5520434850470012 -2.277592942290692 0  0.5941097542249005 -2.218076595961595 0  0.6452021827609403 -2.141385838431863 0  0.68405850294839 -2.052718540116532 0  0.720059506703271 -1.965834862803192 0  0.7521593387291456 -1.876421278224497 0  0.7801169954245657 -1.786107827747942 0  0.8041775132367711 -1.695835861457449 0  0.8227415609924003 -1.605381668273607 0  0.8427075470946779 -1.542463792198616 0  0.8671002770339833 -1.443766124446109 0  0.8763553929040004 -1.346110967676995 0  0.8842720724052857 -1.255169698863153 0  0.8906592819298973 -1.167646589142192 0  0.8916405043859651 -1.074036396461509 0  0.8940062784283286 -1.000476240238336 0  0.8775665875542389 -0.8705832442091951 0  0.8677753303511504 -0.8680857268305975 0  0.8890020441139141 -0.8082726571104508 0  0.8744338740211761 -0.724584097007642 0  0.8641463482488784 -0.6565429131807066 0  0.852587398853597 -0.588560151169122 0  0.8324224924379208 -0.5131345059423862 0  0.8221198787782563 -0.4619240964946514 0  0.7663516661515732 -0.3449132638835405 0  0.766483989307482 -0.3734606939737733 0  0.7674934470585892 -0.3244256628096904 0  0.716866641674494 -0.2668229310189563 0  0.6868779995840955 -0.2298077702200892 0  0.6519135105028397 -0.1982391160467235 0  0.6262069052826265 -0.1807179075359732 0  0.6076858912452676 -0.1699782153388407 0  0.6129052683854241 -0.1730935889160722 0  -0.06835824479540423 1.174142092616018 0  0.3090634699288969 -1.261420993777946 0  -0.3750351209747806 -1.075866975538807 0  -0.05872600002476097 -1.714956802641453 0  0.2877476548566671 0.7819325344088057 0  0.4625976557188773 0.07574318043275777 0  -0.3647180470213296 0.5861674942638003 0  -0.4371848077264138 -0.2051393566884852 0  0.4843612429162492 -0.4694223330222829 0  -0.5127023869578083 -0.7171850963768869 0  -0.2775113653035486 -0.2458565713563383 0  -0.1532501544959607 -0.5466397149688875 0  -0.4884156708442213 0.2678966717460635 0  0.14637092301294 -1.619102206607939 0  0.02400173923239618 -0.6731196569079444 0  0.1175323926086299 1.086714709335865 0  0.0888049298159328 0.1608980919355722 0  0.1983169295271161 -0.2237562037045645 0  -0.222737480788627 -1.475914085924909 0  -0.2397617512771767 0.9647205262636129 0  -0.09505723143933864 0.2557649081872638 0  0.4200544894020736 -0.8044738667028188 0  0.3954259197269582 0.3782120820765793 0  0.1182625563470174 -0.6906074626356477 0  -0.005896383910416102 0.2551829309513724 0  -0.1805992212378658 0.1368191034384138 0  -0.06273410583139083 -0.6661780573847313 0  0.3251999903797786 -0.2079573527798116 0  0.5020613110652332 -0.1855644524301275 0  0.366109925111689 -1.021560475419879 0  0.2751311386667241 -0.5469257263522719 0  0.219492696978727 -0.7301866480410214 0  0.1535143823246672 -0.4427757813695167 0  0.1913770092905728 -0.9944343068666954 0  0.3461957288204448 -0.5006434377253247 0  0.2598191999456106 -0.2157395986363302 0  -0.3483813656907181 0.04145474958601625 0  -0.4534926541964326 0.0301455573430611 0  -0.3777081442412242 -0.221896323277038 0  -0.3595240853220004 -0.5110446276573228 0  -0.4722893888345029 -0.4578582967876328 0  -0.6262915033206453 -0.5552565251945512 0  -0.4726198153926935 -0.3166701362124568 0  -0.4554214826343042 -0.07529995019357386 0  -0.5902490964196792 0.1517617252304966 0  -0.06304735873045922 -1.188546757637414 0  -0.1181829675882851 -1.090856786552325 0  -0.145739779623323 -1.6185850561606 0  -0.1050362021318605 -0.6116146024435543 0  -0.1738909610287123 -0.999393734118952 0  -0.723167442352339 -0.7612413353890553 0  -0.6837718947274177 0.3459151909018096 0  0.1277121227905605 -1.144429321505009 0  0.067636237502821 -0.6880246666102642 0  0.0641230604516945 -1.157133167826511 0  -0.4226914119849653 0.4064087192900605 0  -0.2884111384589941 0.1623976729595984 0  0.6374923646656633 -0.484747667099049 0  0.6630253057330381 -0.7173825576215125 0  0.621177713248161 0.3240946437436891 0  0.6020157321249606 0.1088799771865137 0  -0.5276729621518123 -1.516038619462481 0  -0.5940350378609156 -1.184370846817078 0  -0.5630262262381234 0.7275760949831843 0  -0.4985154453628344 1.01645668156051 0  0.5351298699682683 -1.461164115635422 0  0.4271154969305387 -1.742980831397594 0  0.3912932
[...]
<PointData  Vectors="f_44"> 
<DataArray  type="Float64"  Name="f_44"  NumberOfComponents="3" format="ascii">5.3730860993515005e-02 8.5893988366907120e-02 0.0000000000000000e+00  -9.7720602456325731e-02 4.5505110867204504e-02 0.0000000000000000e+00  -1.4661583690370938e-01 -2.4090084109131929e-01 0.0000000000000000e+00  -7.7559454480991663e-02 -1.9480042550203197e-01 0.0000000000000000e+00  -5.6726667461146248e-02 -2.2508308275683969e-01 0.0000000000000000e+00  3.3632935260677413e-02 -2.1053422422672147e-01 0.0000000000000000e+00  2.0977640234474303e-02 -2.5241159689019260e-01 0.0000000000000000e+00  9.5758465866495251e-02 -1.2245926273606958e-01 0.0000000000000000e+00  2.7438041359546844e-01 9.2004729570333385e-02 0.0000000000000000e+00  1.4510029495977619e-01 -1.6330294269414442e-01 0.0000000000000000e+00  1.5876194529565524e-01 -1.5010445525328533e-01 0.0000000000000000e+00  2.0931267625586306e-01 -8.6774235953998885e-02 0.0000000000000000e+00  1.9839352937708024e-01 -1.0109213331455848e-01 0.0000000000000000e+00  2.1775655348280357e-01 -4.9245502062792115e-02 0.0000000000000000e+00  2.1274852300871336e-01 -9.6243768696775783e-02 0.0000000000000000e+00  2.0996825931636207e-01 1.9500571131515210e-02 0.0000000000000000e+00  7.8914924756160784e-02 1.9962550406580201e-01 0.0000000000000000e+00  1.7404084054471142e-01 -6.8491263297315613e-02 0.0000000000000000e+00  2.3323659525631901e-01 -2.2316708429515855e-02 0.0000000000000000e+00  2.2084105655169614e-01 2.1819009218688054e-02 0.0000000000000000e+00  2.2299631870109859e-01 1.8508215237998362e-02 0.0000000000000000e+00  2.1816187677455273e-01 4.9270912684727525e-02 0.0000000000000000e+00  2.2166714237082469e-01 3.7675395996592760e-02 0.0000000000000000e+00  2.0804492306747538e-01 7.7105955469579560e-02 0.0000000000000000e+00  1.7551751204046165e-01 1.4348480789632306e-01 0.0000000000000000e+00  1.8959765811968718e-01 1.1368086200955778e-01 0.0000000000000000e+00  1.9913842803829893e-01 1.0264404847070051e-01 0.0000000000000000e+00  1.8019117730560510e-01 1.3303421370405605e-01 0.0000000000000000e+00  1.7088434170766795e-01 1.4433011998649484e-01 0.0000000000000000e+00  1.5247182082347091e-01 1.6325099829351594e-01 0.0000000000000000e+00  1.4298362255256172e-01 1.7314323587968730e-01 0.0000000000000000e+00  1.1051480509680923e-01 1.9325169872758866e-01 0.0000000000000000e+00  6.6892759492162640e-02 2.1436690984482679e-01 0.0000000000000000e+00  6.5739333375726988e-02 2.1403844523782550e-01 0.0000000000000000e+00  3.9092955812899399e-02 2.1946262878203562e-01 0.0000000000000000e+00  -7.2970056748023274e-03 2.2445174830288409e-01 0.0000000000000000e+00  -3.8400424245655866e-02 2.2051656218553464e-01 0.0000000000000000e+00  -8.3274593965234442e-02 2.0715683882882377e-01 0.0000000000000000e+00  -1.1282244346200264e-01 1.9523785314658101e-01 0.0000000000000000e+00  -1.5686335618192801e-01 1.5732967860431232e-01 0.0000000000000000e+00  -2.0041800074042795e-01 1.0252734359744761e-01 0.0000000000000000e+00  -2.0735805288012679e-01 8.5790345159601322e-02 0.0000000000000000e+00  -2.1827965761867632e-01 4.2809205634406051e-02 0.0000000000000000e+00  -2.2504138272464108e-01 -1.7910316234606264e-02 0.0000000000000000e+00  -2.1214800431161565e-01 -6.7442913080293612e-02 0.0000000000000000e+00  -1.9436376590605930e-01 -1.1533617777272326e-01 0.0000000000000000e+00  -1.5010598956213345e-01 -1.6375157257212661e-01 0.0000000000000000e+00  -1.1836793375682582e-01 -1.9082666706735055e-01 0.0000000000000000e+00  -1.0210556675352077e-01 -2.0046437048599941e-01 0.0000000000000000e+00  -3.1068336355001024e-02 -2.2036142271467837e-01 0.0000000000000000e+00  2.6440712132729732e-02 -2.2364256023280785e-01 0.0000000000000000e+00  5.5389042547557638e-02 -2.1650926282826957e-01 0.0000000000000000e+00  9.5916513537669668e-02 -2.0193008879324045e-01 0.0000000000000000e+00  1.1825440103691441e-01 -1.9108642379292703e-01 0.0000000000000000e+00  1.5210922952261757e-01 -1.6258845201392624e-01 0.0000000000000000e+00  1.7075450418655511e-01 -1.4487555859187126e-01 0.0000000000000000e+00  1.4606805231133613e-01 -1.7280374665889073e-01 0.0000000000000000e+00  1.7823685066471404e-01 -1.2877123249734798e-01 0.0000000000000000e+00  2.0935795993186312e-01 -8.4997728714564943e-02 0.0000000000000000e+00  2.0530133494065148e-01 -8.7408054471443619e-02 0.0000000000000000e+00  2.1564391882538070e-01 -6.0060817087534239e-02 0.0000000000000000e+00  2.1723790549267333e-01 -5.0066958733278447e-02 0.0000000000000000e+00  2.2384889936034280e-01 -3.7298287225711380e-02 0.0000000000000000e+00  2.1636743338172312e-01 6.7063675593659125e-02 0.0000000000000000e+00  1.7142331676925962e-01 -2.8484816526933104e-02 0.0000000000000000e+00  2.0521111150279941e-01 -6.7047281310110410e-02 0.0000000000000000e+00  2.2730792077533854e-01 5.1344876537269900e-02 0.0000000000000000e+00  2.2045265429933708e-01 2.0665386377055183e-02 0.0000000000000000e+00  2.2175585093507935e-01 2.9304026020514826e-02 0.0000000000000000e+00  2.2507960428814558e-01 -1.2654146531866367e-02 0.0000000000000000e+00  1.9220282990589185e-01 2.1690061854715961e-01 0.0000000000000000e+00  7.1545867975777069e-02 -1.2502066743508919e-01 0.0000000000000000e+00  1.0206185893674713e-01 3.7760858777717302e-02 0.0000000000000000e+00  1.7611784548078255e-01 1.7444733087193592e-01 0.0000000000000000e+00  1.8095509559920309e-01 3.9929917961419467e-02 0.0000000000000000e+00  1.9019589915654053e-01 1.4674572317034063e-01 0.0000000000000000e+00  1.3312177990429558e-01 1.4884111887240081e-01 0.0000000000000000e+00  1.0677053396946884e-01 2.1086798757538347e-01 0.0000000000000000e+00  -1.3805255686903158e-02 2.2264947789573519e-01 0.0000000000000000e+00  5.7534204638860505e-02 2.0535093989021339e-01 0.0000000000000000e+00  2.6469062602389154e-01 -5.4943269715815923e-02 0.0000000000000000e+00  -1.6969073409244842e-01 -3.1284874669178730e-02 0.0000000000000000e+00  -2.0877886165573489e-01 1.1989548930479874e-01 0.0000000000000000e+00  -3.5620760902408385e-02 -1.6126477881612433e-01 0.0000000000000000e+00  -2.1251317664743510e-01 -1.2161513682121882e-02 0.0000000000000000e+00  -7.6252883804374214e-02 1.9309362459636450e-01 0.0000000000000000e+00  -2.1464543388551313e-01 -1.0477443986837752e-01 0.0000000000000000e+00  -1.6415565514888170e-01 1.9254225608861055e-02 0.0000000000000000e+00  2.7370542517511887e-01 6.2596094483857723e-02 0.0000000000000000e+00  5.7480388433306030e-02 -2.0385996108686230e-01 0.0000000000000000e+00  -7.1591885612039457e-03 -2.2102467921688118e-01 0.0000000000000000e+00  1.1579008268954184e-01 -2.0523293086954680e-01 0.0000000000000000e+00  1.3400040845289662e-01 -1.4381508126827836e-01 0.0000000000000000e+00  2.0364517965121004e-01 -1.4025737376278319e-01 0.0000000000000000e+00  1.7387169595995300e-01 -3.9498756186751504e-03 0.0000000000000000e+00  1.4687143711140596e-01 -1.6340252067956529e-01 0.0000000000000000e+00  1.3401958405926187e-01 -4.5498880083429991e-02 0.0000000000000000e+00  1.3470300020071749e-01 9.3030550260548475e-02 0.0000000000000000e+00  1.6974507793669258e-01 -2.1683957185448277e-01 0.0000000000000000e+00  2.3106934264703510e-01 9.0599566282441348e-03 0.0000000000000000e+00  2.1928674153430641e-01 -3.2642706271720438e-02 0.0000000000000000e+00  2.2016675627999047e-01 -2.9713992876600089e-02 0.0000000000000000e+00  2.2421509810953352e-01 -5.8416223463494191e-02 0.0000000000000000e+00  2.1136108383481855e-01 5.9435726435006109e-02 0.0000000000000000e+00  1.6483823474325610e-01 -1.3394316041555059e-03 0.0000000000000000e+00  2.0901440906240051e-01 -7.7644983639155535e-02 0.0000000000000000e+00  2.2677714357249859e-01 3.0059940034510058e-02 0.0000000000000000e+00  2.1886762770039322e-01 3.9771825994153520e-02 0.0000000000000000e+00  2.1873425367252911e-01 4.7986516150840569e-02 0.0000000000000000e+00  2.1110035065171193e-01 7.2655924756435203e-02 0.0000000000000000e+00  2.1206818437498534e-01 7.5784187225322264e-02 0.0000000000000000e+00  1.8684686692654359e-01 1.1968081639669918e-01 0.0000000000000000e+00  1.8325618073123373e-01 1.2586921570425741e-01 0.0000000000000000e+00  1.9780145626483620e-01 1.0767035398736551e-01 0.0000000000000000e+00  1.5871343218215378e-01 1.5634396744990947e-01 0.0000000000000000e+00  1.2702592182807776e-01 1.8548899357753351e-01 0.0000000000000000e+00  1.0809104098442990e-01 1.9555010857636018e-01 0.0000000000000000e+00  6.2174043953191989e-02 2.1450652652936941e-01 0.0000000000000000e+00  4.0927187634123577e-02 2.2248029367880079e-01 0.0000000000000000e+00  -2.6481659323247652e-02 2.1941341396203007e-01 0.0000000000000000e+00  -1.2035161975837348e-01 1.9229835755583910e-01 0.0000000000000000e+00  -1.1735385863768215e-01 1.9041570951704920e-01 0.0000000000000000e+00  -1.3936609213314929e-01 1.7195797036174923e-01 0.0000000000000000e+00  -1.9351331306963002e-01 1.1831005670190332e-01 0.0000000000000000e+00  -2.1147905736470266e-01 7.0158321007955757e-02 0.0000000000000000e+00  -2.2491175368487479e-01 7.3542662608866455e-03 0.0000000000000000e+00  -2.1786516649858911e-01 -5.2748810524052364e-02 0.0000000000000000e+00  -1.9227507015317916e-01 -1.1565994019568446e-01 0.0000000000000000e+00  -1.5244252656621760e-01 -1.6410631854236371e-01 0.0000000000000000e+00  -1.1822938387453211e-01 -1.9059632110060981e-01 0.0000000000000000e+00  -8.2522569123680056e-02 -2.0768905202068785e-01 0.0000000000000000e+00  -4.3325374594012173e-02 -2.2018510454953497e-01 0.0000000000000000e+00  -2.3860086515553841e-03 -2.2309237519730699e-01 0.0000000000000000e+00  2.5378784225101859e-02 -2.2362245087800897e-01 0.0000000000000000e+00  7.2053205933815367e-02 -2.1051900898734255e-01 0.0000000000000000e+00  9.0809302937378988e-02 -2.0416018592779087e-01 0.0000000000000000e+00  6.7540351413535191e-02 -2.1594435078407645e-01 0.0000000000000000e+00  1.2171314276504756e-01 -1.8425423768852855e-01 0.0000000000000000e+00  1.6120922248348185e-01 -1.5765371646328399e-01 0.0000000000000000e+00  1.6266111875861983e-01 -1.5262642418400682e-01 0.0000000000000000e+00  1.8014027445258732e-01 -1.3284794315477944e-01 0.0000000000000000e+00  1.8789380379479007e-01 -1.2168884258259823e-01 0.0000000000000000e+00  2.0358264043058069e-01 -9.3306167697802617e-02 0.0000000000000000e+00  1.9604664095079935e-01 -1.0347870131417421e-01 0.0000000000000000e+00  1.8524560514597652e-01 -1.2941693436774396e-01 0.0000000000000000e+00  2.1111109662853469e-01 -6.9557165909287580e-02 0.0000000000000000e+00  2.2227015453081803e-01 -3.2470054639127083e-02 0.0000000000000000e+00  2.1965556478976350e-01 -4.1865418200918242e-02 0.0000000000000000e+00  2.2351608922114924e-01 -1.3362542975093313e-02 0.0000000000000000e+00  2.2085233355511974e-01 -1.4334103232309546e-02 0.0000000000000000e+00  2.3466459506861453e-01 2.1140414608833188e-02 0.0000000000000000e+00  1.6867666954786917e-01 8.4905443501891845e-02 0.0000000000000000e+00  7.9917196096565737e-02 -1.5721155752830238e-01 0.0000000000000000e+00  2.1486093649715032e-01 -2.0748236965390607e-02 0.0000000000000000e+00  2.0994117502726803e-01 1.0069338320410100e-01 0.0000000000000000e+00  2.1677835919277297e-01 5.3763284985798375e-02 0.0000000000000000e+00  1.9691087970440302e-01 1.0429738478349343e-01 0.0000000000000000e+00  2.0739566951552729e-01 9.0258694297794803e-02 0.0000000000000000e+00  1.5843415017495593e-01 1.5354456710228548e-01 0.0000000000000000e+00  1.4363470576177070e-01 1.5839649470609946e-01 0.0000000000000000e+00  2.7804710919081427e-01 -8.0214851848628532e-02 0.0000000000000000e+00  9.7314280875463621e-02 1.3762498051374511e-01 0.0000000000000000e+00  1.7846950706381804e-02 2.4763071905974818e-01 0.0000000000000000e+00  2.7985719584625392e-02 2.1309572656666279e-01 0.0000000000000000e+00  -5.8187761379582204e-02 2.2334894195789307e-01 0.0000000000000000e+00  -9.8455229898746804e-02 1.8910122447574881e-01 0.0000000000000000e+00  -1.2200165441671149e-01 2.3717764199251487e-01 0.0000000000000000e+00  -4.1842670233747006e-02 -1.7008566205191850e-01 0.0000000000000000e+00  -2.2102283794255020e-01 -3.4600046434517001e-02 0.0000000000000000e+00  -7.4243778523065559e-02 -2.1149514055912016e-01 0.0000000000000000e+00  2.0338252662375381e-01 9.4997060367711855e-02 0.0000000000000000e+00  -2.0065426830700508e-01 9.9146565055894892e-02 0.0000000000000000e+00  2.5699039344639379e-02 2.2280154132668106e-01 0.0000000000000000e+00  9.9598329328365445e-02 -2.0044614769149882e-01 0.0000000000000000e+00  8.5099831164396483e-02 -2.0751705474869950e-01 0.0000000000000000e+00  3.8676774873179755e-02 -2.2490357255712393e-01 0.0000000000000000e+00  2.1759196489701874e-01 5.1642136768161755e-02 0.0000000000000000e+00  1.9047203037194421e-01 -1.1784178045688430e-01 0.0000000000000000e+00  1.2560272705127484e-01 -1.8931626897146536e-01 0.0000000000000000e+00  3.8871843123601618e-02 -2.2290122602255058e-01 0.0000000000000000e+00  2.2367835390319341e-01 7.0546009833736328e-03 0.0000000000000000e+00  -2.1269733491309073e-01 -7.0117587850022173e-02 0.0000000000000000e+00  -1.0513094950399092e-01 -2.2119942530171119e-01 0.0000000000000000e+00  -1.8146027556941011e-01 1.3087081367936529e-01 0.0000000000000000e+00  -2.2272469698428779e-03 -2.2052285262216756e-01 0.0000000000000000e+00  2.1181311090467625e-01 8.3566512745703106e-02 0.0000000000000000e+00  -4.3979892462698893e-02 2.1961343566121388e-01 0.0000000000000000e+00  -1.3743916071328524e-01 -1.7657407975182776e-01 0.0000000000000000e+00  -2.2560095373976771e-01 1.8420119031599097e-02 0.0000000000000000e+00  2.0551124118275915e-01 -8.9470405578971041e-02 0.0000000000000000e+00  2.2386072026837867e-01 -1.6246874921297127e-02 0.0000000000000000e+00  2.2486056398399196e-01 6.2651797800747297e-02 0.0000000000000000e+00  -2.0854823320350657e-01 -8.1266153880929753e-02 0.0000000000000000e+00  4.0443260261857246e-02 2.1702344057913814e-01 0.0000000000000000e+00  9.9614365527036425e-02 -2.1199161590096541e-01 0.0000000000000000e+00  2.2413617402006714e-01 -5.8546444879916237e-03 0.0000000000000000e+00  2.0966071588472865e-01 -8.1799714401067036e-02 0.0000000000000000e+00  1.0773626948305487e-01 -1.9704793001646287e-01 0.0000000000000000e+00  2.1568039623393678e-01 6.3076576485764035e-02 0.0000000000000000e+00  2.2259790310333702e-01 -4.8204260066229701e-02 0.0000000000000000e+00  1.0207178946969779e-01 2.0066258106091472e-01 0.0000000000000000e+00  9.1121820267098599e-03 -2.2867021718390088e-01 0.0000000000000000e+00  2.1652432248962067e-01 5.6601852397095684e-02 0.0000000000000000e+00  2.2245302684801704e-01 3.3355541755736323e-02 0.0000000000000000e+00  2.2017292409844008e-01 3.9770502300206671e-02 0.0000000000000000e+00  2.2066931788445793e-01 3.8337560700569359e-02 0.0000000000000000e+00  1.0381713354269043e-01 -2.0017714108642531e-01 0.0000000000000000e+00  9.9193435631745749e-02 -2.0099338213615139e-01 0.0000000000000000e+00  7.6372919362955261e-02 -2.1095597735235294e-01 0.0000000000000000e+00  1.4678463423913907e-01 -1.6995099808247996e-01 0.0000000000000000e+00  -1.2497030765669315e-02 -2.2639225389805120e-01 0.0000000000000000e+00  2.2699384348444065e-01 -8.9605942714378363e-03 0.0000000000000000e+00  1.9987173883064180e-01 1.0041885365683385e-01 0.0000000000000000e+00  -4.1437467664118280e-02 2.2286413222262258e-01 0.0000000000000000e+00  1.0464131497785251e-01 2.0159187634248232e-01 0.0000000000000000e+00  -1.4149947770712865e-01 1.7342320987879803e-01 0.0000000000000000e+00  6.4294410907649424e-02 -2.2037042003692947e-01 0.0000000000000000e+00  1.9407600322420457e-01 1.1689054600998575e-01 0.0000000000000000e+00  2.0438300999503961e-01 -9.1154678423543536e-02 0.0000000000000000e+00  2.2007366587759117e-01 4.0185194236840256e-02 0.0000000000000000e+00  -2.1030112342671944e-01 -7.7833134358784431e-02 0.0000000000000000e+00  1.1203123884331781e-01 2.1803820730295304e-01 0.0000000000000000e+00  -2.1201674112734603e-01 7.3429873882562696e-02 0.0000000000000000e+00  2.0283435548503051e-01 -9.5645336246613269e-02 0.0000000000000000e+00  2.1448109968338006e-01 6.7099124533607959e-02 0.0000000000000000e+00  2.1248589275954149e-01 6.9672073515849225e-02 0.0000000000000000e+00  2.2322420504776189e-01 -1.4792014614348549e-02 0.0000000000000000e+00  1.8884125896318310e-01 -1.2225999616645425e-01 0.0000000000000000e+00  -1.1821624809851419e-01 -1.9552898523013432e-01 0.0000000000000000e+00  1.3434527603990987e-01 1.7917940655803266e-01 0.0000000000000000e+00  2.1115476243975109e-01 7.4236042069549729e-02 0.0000000000000000e+00  1.6426442081430562e-01 -1.5224747004801498e-01 0.0000000000000000e+00  7.4848530565751484e-02 -2.1126864377545079e-01 0.0000000000000000e+00  6.7328351572784773e-02 -2.1383087822632318e-01 0.0000000000000000e+00  -2.8643914118155950e-02 -2.2252301055831283e-01 0.0000000000000000e+00  -2.3983730371142683e-03 2.2401425202290312e-01 0.0000000000000000e+00  9.9299054462577738e-02 2.0067877050460070e-01 0.0000000000000000e+00  -2.2384352356230675e-01 -7.4037605978496436e-03 0.0000000000000000e+00  -1.8372528432287502e-01 1.2796664027830937e-01 0.0000000000000000e+00  -1.9030807345427461e-01 -1.1797772368838351e-01 0.0000000000000000e+00  -2.2351258532811444e-01 1.2670100636853209e-02 0.0000000000000000e+00  -1.7548419419966299e-01 -1.3903459465163970e-01 0.0000000000000000e+00  1.9219586719595932e-01 -1.2479769466233659e-01 0.0000000000000000e+00  2.1613293481832205e-01 -6.8698451931009680e-02 0.0000000000000000e+00  1.3600554059737804e-01 1.8769031079031354e-01 0.0000000000000000e+00  2.2325540702249516e-01 -3.5413705425917749e-02 0.0000000000000000e+00  -6.4909611665516856e-03 -2.2370444006054382e-01 0.0000000000000000e+00  1.5468929718772206e-01 -1.6345915499943431e-01 0.0000000000000000e+00  -1.5727952379802429e-01 -1.6088375555551243e-01 0.0000000000000000e+00  -2.0702496734040851e-01 8.6247165754285551e-02 0.0000000000000000e+00  -1.4620506317968729e-01 1.7244344116003846e-01 0.0000000000000000e+00  2.2335426612254308e-01 -1.3261549003318615e-02 0.0000000000000000e+00  2.1410955982006136e-01 -6.5127217751678429e-02 0.0000000000000000e+00  2.2137396747761778e-01 -3.5584719756448828e-02 0.0000000000000000e+00  1.8440722426733028e-01 -1.2668011079489355e-01 0.0000000000000000e+00  1.7971113896251453e-01 1.3520263298136934e-01 0.0000000000000000e+00  1.7440829328703755e-01 -1.3994519515567408e-01 0.0000000000000000e+00  -1.2644093869671572e-01 1.8399625875724118e-01 0.0000000000000000e+00  -1.0449938001361828e-01 1.9788627185697916e-01 0.0000000000000000e+00  -1.3617694749129020e-01 1.7978245279345606e-01 0.0000000000000000e+00  -2.2321260697582454e-01 1.7432838466556917e-02 0.0000000000000000e+00  -1.6554896748093387e-01 -1.5068437743707261e-01 0.0000000000000000e+00  -2.1479236542820482e-01 -6.2473420255705910e-02 0.0000000000000000e+00  -1.9362749005647750e-01 -1.1208591801041064e-01 0.0000000000000000e+00  -1.5883926607686669e-03 2.2319370752422588e-01 0.0000000000000000e+00  8.0275363084680043e-02 -2.2816462854266312e-01 0.0000000000000000e+00  -1.0411595849699291e-01 -1.9863819791995543e-01 0.0000000000000000e+00  -1.8724913389397957e-01 -1.2320037764900159e-01 0.0000000000000000e+00  -1.8735717750289857e-01 1.2264806707421612e-01 0.0000000000000000e+00  -9.8612519705861781e-02 2.0114403916725318e-01 0.0000000000000000e+00  -2.2110407533021548e-01 3.5593229099801227e-02 0.0000000000000000e+00  -1.9731466556862426e-01 1.0506901751289924e-01 0.0000000000000000e+00  -2.1780975431949420e-01 5.0997179960679255e-02 0.0000000000000000e+00  -9.3567610344359856e-02 2.0347415685433348e-01 0.0000000000000000e+00  2.6276334938910486e-02 2.2245956640780556e-01 0.0000000000000000e+00  9.4924784237691795e-02 2.0321038665466998e-01 0.0000000000000000e+00  -8.9326962653530056e-03 -2.2395586844218754e-01 0.0000000000000000e+00  -1.1042048821343842e-01 -1.9493817779868314e-01 0.0000000000000000e+00  -5.2879976557533639e-02 -2.1745376126034316e-01 0.0000000000000000e+00  2.1539893419962414e-01 7.6339449943015919e-02 0.0000000000000000e+00  1.6650150445657699e-01 -1.5820175904241937e-01 0.0000