<?xml version="1.0"?>
<VTKFile type="UnstructuredGrid"  version="0.1"  >
<UnstructuredGrid>
<Piece  NumberOfPoints="2549" NumberOfCells="4928">
<Points>
<DataArray  type="Float64"  NumberOfComponents="3"  format="ascii">1.30993744260259 -0.08286100527134679 0  1.303077855305761 -0.04865997926649115 0  1.288137536049075 -0.02460458756756617 0  1.287314384996918 0.007647899475547476 0  1.285697762333724 0.04081238054816877 0  1.287550783111707 0.08018190653927634 0  1.285124526165742 0.1209765299706919 0  1.291084889186561 0.1705520081084851 0  1.270531130113135 0.2145840316823611 0  1.249902185230589 0.2206197436711062 0  1.254909259146704 0.2952810079373427 0  1.237281130334671 0.3375289173660217 0  1.223532001730529 0.3903153320565364 0  1.204925096264124 0.4385158459437967 0  1.185157976082548 0.4859172612232704 0  1.166914473405613 0.5399575194389213 0  1.130765151725304 0.5819455482408968 0  1.10895146271534 0.5947959822061658 0  1.090198889000782 0.6673702978563653 0  1.06225530062628 0.7130631657909164 0  1.034596135536894 0.7672801701324956 0  1.004137547095846 0.8179896836927989 0  0.9726685130842311 0.8695149526082927 0  0.9404966226149365 0.9238268485387463 0  0.9004077532744729 0.9773356182608005 0  0.8627789126617023 1.012843169521295 0  0.8255165344635449 1.061536010847332 0  0.7854870095263053 1.108907011875514 0  0.7435261634510981 1.155607248285067 0  0.6995645030568564 1.201041256218953 0  0.6537237429854317 1.244568908773596 0  0.6063217500887969 1.287174344400786 0  0.5552003405100233 1.325293906919719 0  0.5053599941733367 1.357863355190601 0  0.452953728980327 1.392682922092901 0  0.3991945834075323 1.422280451993299 0  0.3441780790098528 1.448948647281883 0  0.2881805831007619 1.471901239921022 0  0.2312849770284004 1.491049475852152 0  0.1738803828594016 1.507293096078366 0  0.1148576240762454 1.517691363545382 0  0.05725759182931843 1.524428999519975 0  -0.001512720682780909 1.529581098135093 0  -0.06030814190296491 1.529883976692564 0  -0.1192379574133277 1.526568523818875 0  -0.1780859719693099 1.518871396638609 0  -0.2365750903439737 1.507317783929102 0  -0.2946866761622908 1.490113008978784 0  -0.3510386645905307 1.472092877273913 0  -0.4090019206394619 1.448461431253261 0  -0.4642333444109378 1.418128628297123 0  -0.5181286619534575 1.384452772052998 0  -0.5702309098459246 1.346846467276919 0  -0.6203611305316898 1.305350174459834 0  -0.6683110711132711 1.262177945016163 0  -0.713718952121023 1.211745056419844 0  -0.7551446771026604 1.173753324881496 0  -0.8015789473663583 1.124883054183061 0  -0.8403077724524187 1.070357297658668 0  -0.8776453813958058 1.017611740946078 0  -0.9131097236204946 0.9648833495542486 0  -0.9461032555732322 0.9091744804599365 0  -0.9778671214639572 0.860133427304177 0  -1.004724500032178 0.7893732441984125 0  -1.025616620616421 0.7585937837527913 0  -1.060943078409346 0.720753199916133 0  -1.084855285123143 0.671095641686837 0  -1.109608314327749 0.6287698301912791 0  -1.132937344443403 0.5855570162153916 0  -1.158152313511333 0.553035558254437 0  -1.17835832576149 0.5066987425886973 0  -1.217615652866285 0.5228024374650679 0  -1.268279110818081 0.4710892306227992 0  -1.248927916575893 0.3641514006907955 0  -1.27387984858358 0.3220297414821193 0  -1.279500026173571 0.2633689136377658 0  -1.293478662391584 0.2132127199946655 0  -1.282765479097438 0.1449455371312715 0  -1.294685157554333 0.109784926662728 0  -1.232802190079674 0.009966298990508493 0  -1.257930639718402 0.03832813028770093 0  -1.280518243428263 -0.007909360423966505 0  -1.200270001120781 -0.04765928385002433 0  -1.207641537532836 -0.07069473796851322 0  -1.185869719690499 -0.08902883376326071 0  -1.212627581276008 -0.1073670506426958 0  -1.207276771170025 -0.1314600719460986 0  -1.296278941123795 -0.1727882103513717 0  -1.273497057064831 -0.2210448142646764 0  -1.248797470710473 -0.1892733593464705 0  -1.318736257751641 -0.2983931433558523 0  -1.306341249683511 -0.3345947883130185 0  -1.318990008469594 -0.4070825451893971 0  -1.304415755439976 -0.459195970407267 0  -1.298056662244936 -0.519572562500195 0  -1.269489162406433 -0.5600072730147696 0  -1.290064040854204 -0.6650692499808613 0  -1.243677474459203 -0.7290416310099638 0  -1.201723026730875 -0.7080138550196823 0  -1.18238862451183 -0.7570581254274957 0  -1.157054567445154 -0.789584044284686 0  -1.134460045269456 -0.8343002110964439 0  -1.110252649959617 -0.8779369320542234 0  -1.087169568604197 -0.9295014284115226 0  -1.052612087119598 -0.9676375607997685 0  -1.034015645691932 -1.000399380393954 0  -1.008402884991313 -1.080333722173839 0  -0.9771587166035908 -1.132796987852549 0  -0.9448822094526043 -1.193943492809737 0  -0.910139649807154 -1.251774898846481 0  -0.8733570599170187 -1.309988049878302 0  -0.834499176490075 -1.369254920160154 0  -0.7905208158665215 -1.42089962959396 0  -0.7512042843977697 -1.472048016420545 0  -0.7033188621985921 -1.537702964198265 0  -0.6529976943039125 -1.587225437147551 0  -0.6002029077949477 -1.636514121330838 0  -0.5452173619924493 -1.679982885163833 0  -0.4881450448139352 -1.718886362068855 0  -0.4297061965482525 -1.754496355579486 0  -0.3668179920536631 -1.780450890038341 0  -0.3079019458009153 -1.798551414395115 0  -0.2464268818631769 -1.818789898294605 0  -0.1842940452202955 -1.832033171770792 0  -0.121534505971718 -1.84089699209783 0  -0.05847389363188652 -1.84440446366242 0  0.004622482663446855 -1.842937547695739 0  0.06765943858447598 -1.836022230273642 0  0.130304602866622 -1.823310358122154 0  0.1914156589844856 -1.80608702140429 0  0.251774232544826 -1.78536078433411 0  0.3111472088440304 -1.760455724045214 0  0.3693387918454024 -1.731743884885875 0  0.4261761620215672 -1.698947238664243 0  0.4813212766658074 -1.663714010148633 0  0.5347833612063831 -1.621767077056465 0  0.5843647736703657 -1.587957138532065 0  0.6383913574352795 -1.545107428865729 0  0.6862231491239819 -1.495808564663298 0  0.7325410390572614 -1.446931262559122 0  0.7768118027126962 -1.396308269891502 0  0.8189037200050133 -1.344742904031108 0  0.8589270176764398 -1.29269281851845 0  0.8960684873112961 -1.240031700340782 0  0.9337623285297739 -1.200602794269181 0  0.9735042249867476 -1.142730298314909 0  1.005493273631404 -1.084805722420578 0  1.036607966714395 -1.029643030492984 0  1.066728886988641 -0.9755703357345191 0  1.093890544049058 -0.9178084609783661 0  1.121456999519048 -0.8693966193846729 0  1.139297270669728 -0.7921109630105042 0  1.160096590710983 -0.7777798982517812 0  1.195991061009581 -0.7340085467530392 0  1.213517153861923 -0.6774737315520951 0  1.232645235733485 -0.627889702935199 0  1.250519292545182 -0.5774108632290034 0  1.263376685472548 -0.5222318528590387 0  1.280337376665797 -0.478124311265827 0  1.273600462500238 -0.4000219958014359 0  1.293684758099607 -0.3935478840147301 0  1.312882398305811 -0.3470823109421584 0  1.304704727455324 -0.2950982189998663 0  1.305019740302912 -0.2521650226167849 0  1.300717609092976 -0.2107453590485737 0  1.298591269179659 -0.175232040571878 0  1.297284394275617 -0.1421600970308553 0  1.304795702701774 -0.1153179499784104 0  -0.09182433217668877 0.8905809690622153 0  0.5114974753368186 -0.8899882223452327 0  -0.638607764041763 -0.7735684354005478 0  -0.07362930904591578 -1.154076998946331 0  0.5008395678006914 0.6502439926606653 0  0.9401998202703197 0.1524399746434296 0  -0.6424638607181103 0.526548333585331 0  -0.9915872436822414 -0.1037474759323646 0  0.9517682514440876 -0.3495011134303176 0  -0.8876084421162762 -0.5432382394701659 0  -0.6432434045604758 -0.1285837173286959 0  -0.379741451176872 -0.3420518868530388 0  -0.8850723197343596 0.3097221310935795 0  0.2374348092951826 -1.104855811171783 0  0.09886490661731429 -0.4226911778740906 0  0.2034205209457134 0.8369990176047843 0  0.2586154399141554 0.1730819184462196 0  0.5120959659884479 -0.1105387925166301 0  -0.356684340051964 -1.00698300982897 0  -0.3858384374557855 0.7628772982069212 0  -0.222151037101527 0.2400010629051779 0  0.7605695799102103 -0.5932084766869792 0  0.748140855555214 0.3804870880656425 0  0.3148681897612957 -0.4471976534338442 0  0.01597922296244485 0.2364511090226604 0  -0.4320554982191629 0.1624032539226485 0  -0.1416217959641784 -0.4163407550671122 0  0.7490787242805144 -0.1036732277152229 0  1.083801620749171 -0.0927937607783882 0  0.636809000346616 -0.7359048721058541 0  0.6193054875503939 -0.3682789801760947 0  0.4946979692879933 -0.4940625320808145 0  0.4110943975686719 -0.2716651970749424 0  0.402039830625365 -0.6778029772194878 0  0.7416083965601219 -0.3456547661931059 0  0.6296177151305626 -0.1070474203129975 0  -0.7468667859558344 0.1057865565780188 0  -0.9336759891638577 0.1023707774877435 0  -0.8275953529844796 -0.1143647762578433 0  -0.7476345279340366 -0.350672875294786 0  -0.9382707386454545 -0.3218408928287386 0  -1.111756020869797 -0.4197825168299733 0  -1.110187754515451 -0.2147368674373246 0  -1.101588588136261 0.01757402664617777 0  -1.093734817419323 0.2168573192598176 0  -0.1087842054062386 -0.7841985408188825 0  -0.2368766551472092 -0.7215672398967934 0  -0.2176608441572545 -1.092104810326361 0  -0.2592036595546177 -0.3817991790934478 0  -0.3611614673076271 -0.6685758651770315 0  -1.089325194794813 -0.6145088687740256 0  -1.0744310388198 0.4024098484998088 0  0.2738491910835301 -0.7708139757444211 0  0.2051185930458623 -0.4380249690732014 0  0.1576182226207616 -0.7692846125572212 0  -0.7618303667523301 0.4078235504820197 0  -0.6265018487875704 0.1951034138812514 0  1.128761379048747 -0.4031775755230342 0  1.049410930627204 -0.5879547696885855 0  1.02814381559722 0.3912000315036137 0  1.11067974399085 0.2151329493207092 0  -0.6897476526846361 -1.104885598245918 0  -0.8332622415902653 -0.9058764186501804 0  -0.8222651526054162 0.6763938621443728 0  -0.6796762111166929 0.8540094487060743 0  0.7022520826615369 -1.074906369630777 0  0.5356955669304122 -1.24058869870256 0  0.5177844537054628 0.9911144925853046 0  0.6815285906407268 0.8431451249739101 0  0.00641207
[...]
<PointData  Vectors="f_44"> 
<DataArray  type="Float64"  Name="f_44"  NumberOfComponents="3" format="ascii">2.3092537347668426e-01 -1.3608275642123613e-04 0.0000000000000000e+00  1.3992937741513209e-01 1.8217265714886602e-01 0.0000000000000000e+00  1.5072319448851901e-01 1.0697870496684235e-01 0.0000000000000000e+00  2.4209366997227119e-01 3.5351605502743363e-04 0.0000000000000000e+00  2.1749639837259035e-01 -6.8477499145123740e-03 0.0000000000000000e+00  2.2490376173582263e-01 1.6892938606146869e-02 0.0000000000000000e+00  2.1681511560807362e-01 -4.1019910569060312e-02 0.0000000000000000e+00  2.2425862871063720e-01 4.1430435399789876e-02 0.0000000000000000e+00  -3.1734913654264708e-02 2.2497762023001910e-01 0.0000000000000000e+00  1.0885387600460517e-01 -3.6741153858328893e-02 0.0000000000000000e+00  2.3138977771941791e-01 4.4256725579744041e-02 0.0000000000000000e+00  1.6140791187529890e-01 1.5723873178556133e-01 0.0000000000000000e+00  1.9367224714535322e-01 1.1185456165419869e-01 0.0000000000000000e+00  1.4835704046171491e-01 1.7034634171570848e-01 0.0000000000000000e+00  1.8182669665313106e-01 1.3409716719517709e-01 0.0000000000000000e+00  1.3394246021328615e-01 1.7266612538877671e-01 0.0000000000000000e+00  -8.1872459360648575e-02 2.4305260449528723e-01 0.0000000000000000e+00  1.2197040218698985e-01 1.1069942097306142e-01 0.0000000000000000e+00  1.7834184052711063e-01 1.4487569037414563e-01 0.0000000000000000e+00  1.0036958896353619e-01 2.0176551959529759e-01 0.0000000000000000e+00  1.2838022850756292e-01 1.8246339193593478e-01 0.0000000000000000e+00  9.6038918545978319e-02 2.0299947437149812e-01 0.0000000000000000e+00  1.0901697541816803e-01 1.9445763604153635e-01 0.0000000000000000e+00  9.6897037398700411e-02 2.0405238859244104e-01 0.0000000000000000e+00  1.3129322578678959e-02 2.2222615908671794e-01 0.0000000000000000e+00  1.9289832404854591e-02 2.1915429587315999e-01 0.0000000000000000e+00  6.0294168183737673e-02 2.1692577493183224e-01 0.0000000000000000e+00  2.6349896199464297e-02 2.2213255717497821e-01 0.0000000000000000e+00  1.7738398892176332e-02 2.2295937927690687e-01 0.0000000000000000e+00  -3.7665862810248541e-03 2.2349143386824102e-01 0.0000000000000000e+00  -1.5282166971785124e-02 2.2345369847680499e-01 0.0000000000000000e+00  -4.1098409016642759e-02 2.1964093163598777e-01 0.0000000000000000e+00  -8.3038320161986784e-02 2.0793514566397178e-01 0.0000000000000000e+00  -8.6375874804539732e-02 2.0645310453696916e-01 0.0000000000000000e+00  -1.0001056902279008e-01 1.9938434998087531e-01 0.0000000000000000e+00  -1.3159599806941702e-01 1.8158911840615774e-01 0.0000000000000000e+00  -1.4789351306436480e-01 1.6771260896810603e-01 0.0000000000000000e+00  -1.7010707779572082e-01 1.4507997344156170e-01 0.0000000000000000e+00  -1.8375188461644507e-01 1.2848183738478311e-01 0.0000000000000000e+00  -2.0054227959177681e-01 9.8100852456588686e-02 0.0000000000000000e+00  -2.1593206566134729e-01 5.9735360060462761e-02 0.0000000000000000e+00  -2.1880757056550976e-01 4.7412066828100827e-02 0.0000000000000000e+00  -2.2215118653627283e-01 2.2147066202765651e-02 0.0000000000000000e+00  -2.2395223717356075e-01 -1.2286394741471796e-02 0.0000000000000000e+00  -2.1940894441007605e-01 -4.1370164385424325e-02 0.0000000000000000e+00  -2.1323205181428526e-01 -7.0116232814230309e-02 0.0000000000000000e+00  -1.9634180680847324e-01 -1.0580410441075871e-01 0.0000000000000000e+00  -1.8429778705261057e-01 -1.2736917063594283e-01 0.0000000000000000e+00  -1.7546436384263325e-01 -1.3925938826356055e-01 0.0000000000000000e+00  -1.3919003749267525e-01 -1.7475613003509863e-01 0.0000000000000000e+00  -1.0713658008644994e-01 -1.9695316486888340e-01 0.0000000000000000e+00  -8.6234743730220151e-02 -2.0645226559135860e-01 0.0000000000000000e+00  -5.3138841166204473e-02 -2.1691026958886445e-01 0.0000000000000000e+00  -3.7561025296721277e-02 -2.2164458078517094e-01 0.0000000000000000e+00  7.9467785291188926e-03 -2.2265590781228373e-01 0.0000000000000000e+00  8.1594692933488165e-03 -2.2200718382079945e-01 0.0000000000000000e+00  -1.8825069020424967e-02 -2.2487222038133059e-01 0.0000000000000000e+00  4.8229055649365235e-02 -2.1733587937289484e-01 0.0000000000000000e+00  8.0762731296933010e-02 -2.0920746173588495e-01 0.0000000000000000e+00  7.2992534790425043e-02 -2.1183415220762894e-01 0.0000000000000000e+00  1.0309488465455409e-01 -1.9744556782691944e-01 0.0000000000000000e+00  9.0482339836688228e-02 -2.0767109200654157e-01 0.0000000000000000e+00  1.3587316552869799e-01 -1.6963560588213231e-01 0.0000000000000000e+00  1.6226747235947650e-01 -1.5618601311461178e-01 0.0000000000000000e+00  7.4943721363107335e-03 -2.3597720443999098e-01 0.0000000000000000e+00  8.1646158420687079e-02 -1.9390009499459865e-01 0.0000000000000000e+00  1.3782119169760679e-01 -1.7934583991855338e-01 0.0000000000000000e+00  1.2181231006608617e-01 -1.9432927060456739e-01 0.0000000000000000e+00  7.1951721769938609e-02 -1.8881291615317475e-01 0.0000000000000000e+00  1.4531359632130969e-01 -2.5878754361209705e-01 0.0000000000000000e+00  6.7084635808710123e-03 7.2172639396840932e-02 0.0000000000000000e+00  -1.3629630628343639e-01 -1.2255164021013341e-01 0.0000000000000000e+00  1.6227082368033074e-01 -4.8109266706908890e-02 0.0000000000000000e+00  1.8750016573479625e-01 3.0255128592406550e-02 0.0000000000000000e+00  1.4933736990711352e-01 -1.5452094521568419e-01 0.0000000000000000e+00  2.2381261954276965e-01 -7.5477041163468497e-02 0.0000000000000000e+00  1.9627438442741771e-01 5.5623193077402279e-03 0.0000000000000000e+00  2.1419677087613551e-01 -1.8586810300314317e-02 0.0000000000000000e+00  1.3001478792583984e-01 7.0535264272805848e-02 0.0000000000000000e+00  5.6732666372129661e-02 2.9208424536841543e-01 0.0000000000000000e+00  1.3735148173469708e-01 -8.5208535406352273e-02 0.0000000000000000e+00  -4.6923473432224125e-02 4.2055678548420905e-02 0.0000000000000000e+00  -1.0070780627268543e-01 1.4609832049732033e-01 0.0000000000000000e+00  1.6201784236968020e-01 5.6590302173399928e-02 0.0000000000000000e+00  -1.6384768113877304e-01 -3.3978915669045447e-03 0.0000000000000000e+00  1.3084494834856766e-01 -8.2503879018752765e-02 0.0000000000000000e+00  -1.0068227990377730e-01 -1.5199394586922482e-01 0.0000000000000000e+00  -6.0892667338762460e-02 -3.9878271010246588e-02 0.0000000000000000e+00  1.6122253791535412e-01 8.1464904747767741e-02 0.0000000000000000e+00  6.1434187565057259e-02 -2.8938394990300254e-01 0.0000000000000000e+00  1.2044392970982465e-01 -7.8193126287949416e-02 0.0000000000000000e+00  2.1408640164465867e-01 1.2910257273958010e-02 0.0000000000000000e+00  1.9334530020279445e-01 -1.1964748823998094e-02 0.0000000000000000e+00  2.2814637866494061e-01 7.7968561328139424e-02 0.0000000000000000e+00  1.3194362387163314e-01 1.6566735092178680e-01 0.0000000000000000e+00  1.6141420318707367e-01 -2.9595068400903923e-02 0.0000000000000000e+00  1.9177027717368822e-01 4.9306871428217158e-02 0.0000000000000000e+00  -7.1654260407472831e-02 1.0265678808014143e-01 0.0000000000000000e+00  1.1322364158191213e-02 -9.7883081656235230e-02 0.0000000000000000e+00  1.5396659234690716e-01 2.5799702167793481e-01 0.0000000000000000e+00  7.5080165139855271e-02 1.8511749495120539e-01 0.0000000000000000e+00  1.3266109923098929e-01 1.8804849338879595e-01 0.0000000000000000e+00  1.4755053144368416e-01 1.7176583897768963e-01 0.0000000000000000e+00  8.7562156499278690e-02 1.8996105349933159e-01 0.0000000000000000e+00  2.7073700571597168e-02 2.3127449337439210e-01 0.0000000000000000e+00  1.8615526095187110e-01 1.3400606732652368e-01 0.0000000000000000e+00  1.4867968544113860e-01 1.5626913483260230e-01 0.0000000000000000e+00  1.0795572917834836e-01 1.9936277065050600e-01 0.0000000000000000e+00  1.2277830971235808e-01 1.8589282036715196e-01 0.0000000000000000e+00  9.5032038899624832e-02 2.0275451151267232e-01 0.0000000000000000e+00  1.0008129583338285e-01 2.0116957436962860e-01 0.0000000000000000e+00  6.0333290162813871e-02 2.1358046861544902e-01 0.0000000000000000e+00  3.5030577053523006e-02 2.2135980798993879e-01 0.0000000000000000e+00  7.7731414228821308e-02 2.1179485757340921e-01 0.0000000000000000e+00  3.5221559870918830e-02 2.1778014238139920e-01 0.0000000000000000e+00  -1.5824456120048812e-02 2.2526358236165539e-01 0.0000000000000000e+00  -2.8358754939506740e-02 2.2108513732803270e-01 0.0000000000000000e+00  -7.0779300426758215e-02 2.1240054275413767e-01 0.0000000000000000e+00  -8.8316148618308124e-02 2.0652722399746687e-01 0.0000000000000000e+00  -1.2867134942580519e-01 1.8205388416553089e-01 0.0000000000000000e+00  -1.7987482331936114e-01 1.3469820603445615e-01 0.0000000000000000e+00  -1.8116071731676311e-01 1.3116137663179889e-01 0.0000000000000000e+00  -1.8960358260505719e-01 1.1676282891327544e-01 0.0000000000000000e+00  -2.1218254422965138e-01 7.4455882925196296e-02 0.0000000000000000e+00  -2.1876226658094494e-01 4.4748561676935979e-02 0.0000000000000000e+00  -2.2401458343012806e-01 6.8005020504048512e-03 0.0000000000000000e+00  -2.2195756056657964e-01 -2.8721154243249145e-02 0.0000000000000000e+00  -2.1310669587213596e-01 -6.8614467173224683e-02 0.0000000000000000e+00  -1.9819054808260875e-01 -1.0389225183006666e-01 0.0000000000000000e+00  -1.8404230502486305e-01 -1.2749147175941167e-01 0.0000000000000000e+00  -1.6701297123238248e-01 -1.4859101349872930e-01 0.0000000000000000e+00  -1.4719180525617523e-01 -1.6893116360453958e-01 0.0000000000000000e+00  -1.2237815554101508e-01 -1.8668108536845371e-01 0.0000000000000000e+00  -1.0695759042222272e-01 -1.9760553578553630e-01 0.0000000000000000e+00  -6.7385338466550149e-02 -2.1239042488921542e-01 0.0000000000000000e+00  -6.3518608338081567e-02 -2.1360882357481328e-01 0.0000000000000000e+00  -7.8509708504201664e-02 -2.1080238353642183e-01 0.0000000000000000e+00  -1.7004627171892921e-02 -2.2225828160415603e-01 0.0000000000000000e+00  1.3876319200166421e-02 -2.2386724641701830e-01 0.0000000000000000e+00  1.7995228265484397e-02 -2.2264887893062710e-01 0.0000000000000000e+00  3.9579410687999694e-02 -2.2022470453954290e-01 0.0000000000000000e+00  4.7349380643825614e-02 -2.1853812426668595e-01 0.0000000000000000e+00  7.7664152677146187e-02 -2.1116774465998567e-01 0.0000000000000000e+00  3.8865539488449202e-02 -2.1715690376213406e-01 0.0000000000000000e+00  3.4829047325750206e-02 -2.1979739029776205e-01 0.0000000000000000e+00  1.1034304528399302e-01 -1.9688873318464098e-01 0.0000000000000000e+00  1.2105855165234800e-01 -1.8725583565770063e-01 0.0000000000000000e+00  1.0990375144632498e-01 -1.9579390523100432e-01 0.0000000000000000e+00  1.3956385486317227e-01 -1.7393026241952089e-01 0.0000000000000000e+00  1.1390393958685530e-01 -1.9469044475945357e-01 0.0000000000000000e+00  1.8383831065177056e-01 -1.3405255407506125e-01 0.0000000000000000e+00  1.3746250033398455e-01 -1.0606884058292429e-01 0.0000000000000000e+00  -6.1074835972645750e-02 -2.5089792410310918e-01 0.0000000000000000e+00  1.4007576995924170e-01 -1.6449765863926602e-01 0.0000000000000000e+00  1.8915628725607589e-01 -1.2499215600719776e-01 0.0000000000000000e+00  1.5746829698126791e-01 -1.6151949590624864e-01 0.0000000000000000e+00  1.9939343158231893e-01 -1.0156570317015318e-01 0.0000000000000000e+00  1.6994687093517799e-01 -1.4771914751851067e-01 0.0000000000000000e+00  2.3296368146237600e-01 -3.3532018630281567e-02 0.0000000000000000e+00  1.1186877035566839e-01 4.0478149199807731e-02 0.0000000000000000e+00  -9.6450822503056331e-03 -2.2215930389891708e-01 0.0000000000000000e+00  2.2707054016191164e-01 -2.4099656225389555e-02 0.0000000000000000e+00  2.1360961199004561e-01 6.0093813757269000e-02 0.0000000000000000e+00  2.2407896294799645e-01 4.6335018269784605e-03 0.0000000000000000e+00  2.1760212479665381e-01 4.6936296517344607e-02 0.0000000000000000e+00  2.2756684043526348e-01 3.2239376600439323e-02 0.0000000000000000e+00  2.0638457489122058e-01 -4.5266886486705779e-02 0.0000000000000000e+00  1.9433615369100635e-01 -1.2556077258562706e-01 0.0000000000000000e+00  -2.2321496900468318e-01 -1.5247257527681420e-02 0.0000000000000000e+00  -1.2380307540896507e-02 -2.2343202431129086e-01 0.0000000000000000e+00  8.2108626755550501e-02 2.0828636123972544e-01 0.0000000000000000e+00  -2.2255835526345721e-01 2.3139338388304981e-02 0.0000000000000000e+00  -1.5485874634615369e-02 2.2323499836781222e-01 0.0000000000000000e+00  2.0176603005369381e-01 9.6625605450017790e-02 0.0000000000000000e+00  4.8224408209831789e-03 -2.2367076797197710e-01 0.0000000000000000e+00  2.0099763151565497e-01 -9.8642482462609524e-02 0.0000000000000000e+00  2.0946728340428639e-01 -7.8585899324303057e-02 0.0000000000000000e+00  2.2163391092632553e-01 3.2594540846911033e-02 0.0000000000000000e+00  2.1135270735622630e-01 -7.4690675679776983e-02 0.0000000000000000e+00  1.5665369126309281e-01 1.6181822497128731e-01 0.0000000000000000e+00  1.4331639355317541e-01 -1.7179011115217258e-01 0.0000000000000000e+00  -1.6534913324536521e-01 -1.5072922121391091e-01 0.0000000000000000e+00  -4.3932713873183885e-02 -2.2166525042042962e-01 0.0000000000000000e+00  -1.7072116483883529e-01 1.4461354340172508e-01 0.0000000000000000e+00  8.1304611124471501e-02 2.0945686533716998e-01 0.0000000000000000e+00  2.2458519104712613e-01 6.5383327463179554e-03 0.0000000000000000e+00  -1.3041677179397412e-01 1.8183743848583411e-01 0.0000000000000000e+00  -1.4806854739215583e-01 -1.6771739837402888e-01 0.0000000000000000e+00  -1.7583938559056464e-01 -1.3918210426853331e-01 0.0000000000000000e+00  1.4345129374296334e-01 -1.7171698896619558e-01 0.0000000000000000e+00  1.3301066024116404e-01 1.7991431240225461e-01 0.0000000000000000e+00  8.3769581528106055e-02 -2.0816840922914387e-01 0.0000000000000000e+00  -1.5872922743773696e-01 1.5862295639279400e-01 0.0000000000000000e+00  2.9576063283167801e-02 -2.2222733517659135e-01 0.0000000000000000e+00  -1.9906288362772168e-01 1.0465618191262527e-01 0.0000000000000000e+00  2.2363076732010398e-01 9.0261029845114631e-03 0.0000000000000000e+00  2.2311422989669502e-01 1.5657336975167160e-02 0.0000000000000000e+00  7.5553846698023938e-02 -2.1065758584110705e-01 0.0000000000000000e+00  1.8697720970981174e-01 -1.2342785848439283e-01 0.0000000000000000e+00  1.2200552802834277e-01 -1.8816461947086069e-01 0.0000000000000000e+00  1.9592915314938375e-01 -1.0989445586713972e-01 0.0000000000000000e+00  7.6222738979338416e-03 -2.2392129156589732e-01 0.0000000000000000e+00  2.0122827036863325e-01 -9.7966250267013860e-02 0.0000000000000000e+00  2.2389355423446469e-01 7.7947798549455561e-03 0.0000000000000000e+00  1.6214624860372417e-01 -1.5425793221390849e-01 0.0000000000000000e+00  1.9737151726846086e-01 -1.0529358079113270e-01 0.0000000000000000e+00  2.0377307843282735e-01 -9.2172651969048808e-02 0.0000000000000000e+00  2.2386405147485816e-01 6.6715121789220656e-03 0.0000000000000000e+00  1.9751865092444587e-01 -1.0527732054680733e-01 0.0000000000000000e+00  5.0099719234195150e-02 -2.2019997188694676e-01 0.0000000000000000e+00  1.2153313437533673e-01 -1.8834225475560251e-01 0.0000000000000000e+00  2.2100037707228490e-01 3.6185517475850686e-02 0.0000000000000000e+00  2.0960151208099767e-01 -7.8857904331708389e-02 0.0000000000000000e+00  -2.1976900938661645e-01 4.2414425083199404e-02 0.0000000000000000e+00  -1.6551884843464973e-01 1.5071816979241376e-01 0.0000000000000000e+00  -1.9454487438729601e-01 1.1052823888917850e-01 0.0000000000000000e+00  1.2510071044255109e-02 2.2597599929718820e-01 0.0000000000000000e+00  -5.8801667462564107e-02 2.1614252013675839e-01 0.0000000000000000e+00  2.2487851797482913e-01 1.1235551361866464e-03 0.0000000000000000e+00  1.5078593301192370e-01 -1.6557144888350409e-01 0.0000000000000000e+00  -9.3531830755731057e-02 -2.0343157435645212e-01 0.0000000000000000e+00  3.1158470667621070e-02 -2.2291570116598788e-01 0.0000000000000000e+00  -1.5600583270571880e-01 -1.6068161843085219e-01 0.0000000000000000e+00  8.1425795283431135e-02 -2.0837496164039337e-01 0.0000000000000000e+00  1.0152838054572692e-01 -1.9963527160126743e-01 0.0000000000000000e+00  2.0865959968617445e-01 -8.0396109935021012e-02 0.0000000000000000e+00  1.7305177631474547e-01 -1.4174288105689553e-01 0.0000000000000000e+00  1.6318762148888019e-01 1.5298754506250509e-01 0.0000000000000000e+00  2.0168792235720739e-01 9.6536499612026497e-02 0.0000000000000000e+00  2.8606555619571428e-02 2.2193051912384529e-01 0.0000000000000000e+00  1.1353864326478380e-01 1.9273922653329878e-01 0.0000000000000000e+00  5.6760642410324379e-02 -2.1634779129217926e-01 0.0000000000000000e+00  -1.0728061748174100e-02 -2.2350096245132850e-01 0.0000000000000000e+00  2.3913088624210557e-02 -2.2241049889278977e-01 0.0000000000000000e+00  -5.4662582690264153e-02 -2.1694562576503035e-01 0.0000000000000000e+00  -6.4802351873459035e-02 2.1412813719654791e-01 0.0000000000000000e+00  1.2015751532488248e-02 2.2336304702688703e-01 0.0000000000000000e+00  -2.2264313438461458e-01 -2.2669305684148298e-02 0.0000000000000000e+00  -2.0559729367000004e-01 8.8409256208692819e-02 0.0000000000000000e+00  -2.0766041907643118e-01 -8.3386466405663176e-02 0.0000000000000000e+00  -2.2300516386774197e-01 1.8369812750907710e-02 0.0000000000000000e+00  -9.4972969634338197e-02 -2.0258316600639659e-01 0.0000000000000000e+00  1.9579584823674404e-01 1.1043458153293052e-01 0.0000000000000000e+00  1.1672158764609984e-01 1.9143547573670955e-01 0.0000000000000000e+00  1.7027226570839201e-04 2.2406645702545280e-01 0.0000000000000000e+00  8.4730916382069518e-02 2.0761278825580226e-01 0.0000000000000000e+00  2.2395065067183931e-01 1.8211283320604166e-02 0.0000000000000000e+00  1.9553529274094603e-01 1.0970760451089422e-01 0.0000000000000000e+00  -2.6213837587563276e-02 2.2335829565024612e-01 0.0000000000000000e+00  2.2492748344127447e-01 5.6975775474207672e-02 0.0000000000000000e+00  2.2698335975815298e-01 3.9013518074285610e-03 0.0000000000000000e+00  1.7096702768274291e-01 1.4454025497904993e-01 0.0000000000000000e+00  1.0081487149908398e-01 -1.9962858824764698e-01 0.0000000000000000e+00  1.7367560653663888e-01 1.4135759964086045e-01 0.0000000000000000e+00  1.7944610241185505e-01 1.3409964542547101e-01 0.0000000000000000e+00  6.7397010072526048e-02 2.1339570496253382e-01 0.0000000000000000e+00  1.9374947616883140e-01 1.1201249834712315e-01 0.0000000000000000e+00  -1.0236977103490617e-01 1.9913072171935661e-01 0.0000000000000000e+00  -9.9392196545674341e-02 2.0046312349420101e-01 0.0000000000000000e+00  -2.1368342166329468e-01 -6.6932888058655243e-02 0.0000000000000000e+00  -2.1226872027675528e-01 -7.0775228941304225e-02 0.0000000000000000e+00  -1.7370307080871894e-01 -1.4105437627729048e-01 0.0000000000000000e+00  -2.1859049922704915e-01 -4.7783492012113057e-02 0.0000000000000000e+00  -2.0092621778205599e-01 -9.8412072583825033e-02 0.0000000000000000e+00  2.2450680818135876e-01 -1.9537187575556437e-02 0.0000000000000000e+00  -1.8127904600601286e-01 -1.3473998664666903e-01 0.0000000000000000e+00  -1.2331941902065194e-01 -1.8669402011129971e-01 0.0000000000000000e+00  -1.9145749214612279e-01 -1.1585573601955278e-01 0.0000000000000000e+00  -1.9826360109993418e-01 1.0371307912167757e-01 0.0000000000000000e+00  -1.3716257673306681e-01 1.7676741229129958e-01 0.0000000000000000e+00  -2.2077334348300701e-01 1.2376366967919640e-01 0.0000000000000000e+00  -1.7629590752253763e-01 1.3790759138095338e-01 0.0000000000000000e+00  -2.1233161685436763e-01 7.0497814301912584e-02 0.0000000000000000e+00  -1.4891461798441141e-01 1.6709221813330910e-01 0.0000000000000000e+00  -5.8980274130055611e-02 2.1589672903967913e-01 0.0000000000000000e+00  -3.1592413242638784e-02 2.2157198915895882e-01 0.0000000000000000e+00  -8.0057812097492839e-02 -2.0896361178473119e-01 0.0000000000000000e+00  -1.5721300407452099e-01 -1.5926977575554588e-01 0.0000000000000000e+00  -7.7451503310029937e-02 -2.0988372114972109e-01 0.0000000000000000e+00  1.5936516645663223e-01 -1.5787815751761197e-01 0.0000000000000000e+00  -6.3430763003317538e-03 -2.2379666927954020e-