<?xml version="1.0"?>
<VTKFile type="UnstructuredGrid"  version="0.1"  >
<UnstructuredGrid>
<Piece  NumberOfPoints="2549" NumberOfCells="4928">
<Points>
<DataArray  type="Float64"  NumberOfComponents="3"  format="ascii">1.826628011340194 0.0100575475002409 0  1.823135000265728 0.05644548717862849 0  1.808311387533298 0.09836827340630702 0  1.794374680468875 0.1405924617923867 0  1.775238225291221 0.1805919223205764 0  1.754600722811564 0.2202017332171663 0  1.72991629808953 0.2578971287312279 0  1.705561241460526 0.29637981975479 0  1.670381447758591 0.3281516463499278 0  1.637901727065702 0.351262129209719 0  1.613380988937464 0.3928660200378405 0  1.579556460076418 0.4239313898709761 0  1.546693465735438 0.4573560056125953 0  1.511598347338283 0.4888295594136551 0  1.475392492911507 0.5193213132069064 0  1.438692677306982 0.5509665676920789 0  1.396143303276453 0.5756356035656803 0  1.358408440753897 0.5958410345493996 0  1.321989146108169 0.6320205110037731 0  1.281189253790137 0.659494607652736 0  1.24036429604343 0.6892057388089283 0  1.198156710497378 0.7176523371771615 0  1.15515565176094 0.7461940421608604 0  1.11131249545737 0.7754474106536915 0  1.064849990081697 0.8035507522378681 0  1.018358258080917 0.8278724684022571 0  0.9712686735976157 0.8556530158113096 0  0.9225640332528287 0.8827054156445658 0  0.8724991711960045 0.9094255190718389 0  0.8209932583055999 0.9356734353364616 0  0.7680003494328508 0.9612534052663736 0  0.7135086906743019 0.986455874586136 0  0.6569646076065137 1.009947143681228 0  0.5995565806881394 1.031908368690805 0  0.5402502423183887 1.054088599316469 0  0.4792521550209046 1.074090134268229 0  0.4166750749040721 1.092524904472041 0  0.3525980093184423 1.108972399555262 0  0.2871369992588051 1.123211787803495 0  0.2204820341844999 1.135379617203326 0  0.1525621058353182 1.144453633208759 0  0.084254698551046 1.150735923793695 0  0.01516313773801866 1.154772688350481 0  -0.0541557924514829 1.155449675457937 0  -0.1234379905281298 1.153198374237343 0  -0.1923729318410038 1.147816124048409 0  -0.2606625377346803 1.139565287349514 0  -0.3280285439171433 1.127925022521365 0  -0.3939535733863837 1.114569486986938 0  -0.459120070772783 1.098451247626388 0  -0.5224170985326431 1.079361198442996 0  -0.5840893680610273 1.058500292273549 0  -0.6440191665299476 1.035809260283684 0  -0.7021389606456954 1.011422007799143 0  -0.758496681876425 0.9861486763456656 0  -0.8127742264934451 0.9581325610720863 0  -0.8650207204443339 0.9335454348818869 0  -0.9175773187019238 0.9066589646700989 0  -0.9672066260801068 0.8773070764284939 0  -1.015480014365409 0.8484109560106454 0  -1.062445110407672 0.8194297634329286 0  -1.107881999763706 0.7894135119164518 0  -1.152611608376111 0.7613577470637722 0  -1.194367052385267 0.726162921525954 0  -1.234693304982883 0.7022979537037961 0  -1.279157050215225 0.6783390602745889 0  -1.319670311244088 0.6484500643962918 0  -1.359685233111481 0.6200239518576985 0  -1.398412479644057 0.5903270204507104 0  -1.437335819713156 0.5629462282446879 0  -1.472755845268795 0.5296805387655245 0  -1.515721385583411 0.5145811673279334 0  -1.556821140747306 0.4763914214243465 0  -1.579327193955058 0.4274512631017408 0  -1.611388133972919 0.3947525020444431 0  -1.638871467671421 0.3582299873715347 0  -1.668494464383773 0.3242884589538682 0  -1.691580957447247 0.2858133030811305 0  -1.723010123250737 0.2552155388227295 0  -1.727261666698382 0.2057779256952108 0  -1.765433993856883 0.1912922122173512 0  -1.806948573959035 0.1534324271411052 0  -1.805308336467848 0.1055704001997733 0  -1.820896726071893 0.06186192780492102 0  -1.819151713964946 0.01677767361497101 0  -1.822109673396046 -0.02836796995310506 0  -1.806732838115838 -0.07222781780855372 0  -1.810540944510304 -0.1206403116052465 0  -1.767671438231513 -0.1583329273271906 0  -1.729004666126833 -0.1710146654131197 0  -1.72776885391978 -0.2224723158699743 0  -1.696515111779721 -0.2529929693210915 0  -1.674770067744285 -0.2924633135608322 0  -1.645903624967829 -0.3270323204932357 0  -1.619314869262276 -0.3643771403361525 0  -1.587632952974112 -0.3972666254574649 0  -1.566862323894331 -0.4474744436047649 0  -1.527131830155018 -0.4892869336669797 0  -1.483872094730211 -0.5033091488355533 0  -1.449275165632159 -0.5378693816294827 0  -1.410806196158238 -0.5656491249467813 0  -1.372734094424925 -0.5961400930549239 0  -1.333274329757774 -0.6251600129655339 0  -1.293353095042447 -0.6557373847847024 0  -1.249395990908072 -0.6794708279663697 0  -1.210340742041598 -0.704078067379078 0  -1.169622262805728 -0.7419007355630511 0  -1.125603102522498 -0.7710098932097357 0  -1.080992598681268 -0.8027242407751953 0  -1.034804069581974 -0.8333349753793675 0  -0.9872190745739213 -0.8639278476503087 0  -0.9380456435286415 -0.894603368770808 0  -0.8865965984825608 -0.9220876988570571 0  -0.8356710172332853 -0.9504550715822152 0  -0.7817109838319578 -0.9830441802366696 0  -0.7254717446885087 -1.010920948514463 0  -0.6673772852507432 -1.03872580517522 0  -0.607249016425095 -1.064634269325361 0  -0.5451503111060786 -1.088843318017943 0  -0.4811866436980877 -1.111624308404724 0  -0.4147499159174703 -1.130865211577643 0  -0.3477179852658824 -1.147002729177503 0  -0.2787439977883059 -1.162067861167185 0  -0.2084873464589185 -1.173202847481433 0  -0.1372755672786296 -1.181180817666258 0  -0.06543689692164995 -1.185596052779103 0  0.006661384785164023 -1.186520795640971 0  0.07867949157625517 -1.183823911666986 0  0.1502312931655496 -1.177646956344854 0  0.2209189182291789 -1.168060160348644 0  0.2905306214849256 -1.155395597938891 0  0.3587389133061956 -1.139721681090491 0  0.425326916119763 -1.121418369829022 0  0.490112536392949 -1.100629056110705 0  0.5529934854627949 -1.078109604664995 0  0.6137583958584885 -1.052529635470083 0  0.6720183389801322 -1.028726477402889 0  0.7299522146544918 -1.002668562466247 0  0.7850042874649672 -0.9741147885942564 0  0.8383242695477536 -0.9456410814480153 0  0.8899269210551251 -0.9166026021267033 0  0.9398846702992197 -0.8872662210327988 0  0.9883099152898539 -0.8577355770672477 0  1.034997506341958 -0.8277721501281665 0  1.081017369193692 -0.8013360928403864 0  1.126831256567618 -0.7711860457810085 0  1.17004108869689 -0.7402191648873969 0  1.212346771231603 -0.710058613918927 0  1.253857789021454 -0.680176820560449 0  1.293937075607571 -0.6490705564311805 0  1.334070886538549 -0.6205317598302116 0  1.369603894482288 -0.5827688604384642 0  1.406511316197533 -0.5619300636882975 0  1.448569378920672 -0.5367739549139888 0  1.484632562278367 -0.5043176955072772 0  1.520210845454402 -0.4731034273530865 0  1.554642057942175 -0.4408912550621691 0  1.586792560660852 -0.4067331069210113 0  1.620024690981196 -0.3751464293525703 0  1.643555030395896 -0.3325661609939796 0  1.675516372414929 -0.3094637462497499 0  1.710248130070829 -0.2773384619180873 0  1.733799000176725 -0.2383248340107201 0  1.757721900952265 -0.2002214012127885 0  1.77756878016169 -0.160277237157847 0  1.795624494878096 -0.1199476337510465 0  1.80940953805973 -0.07784265138684397 0  1.822065149992389 -0.0354873592156664 0  -0.1073310831691326 0.7032004122285322 0  0.7030203018344836 -0.519132470638226 0  -0.8685183414799037 -0.4420636236018699 0  -0.08793198339308116 -0.7130261562522566 0  0.6926165235795787 0.5127313260447947 0  1.306761199197185 0.1905793564219263 0  -0.8748302309641516 0.4507595941961325 0  -1.412453759836438 0.01131528611918503 0  1.311222504442004 -0.1781104872861565 0  -1.184672772401979 -0.3035407102647619 0  -0.914851867065172 -0.0005785922016416367 0  -0.5491200116523356 -0.138123750803129 0  -1.193166057246163 0.3095370274412318 0  0.342894541443905 -0.6752829208284388 0  0.1440181630642986 -0.2219596406377595 0  0.2960489075433005 0.6504733516438327 0  0.3634308339081336 0.1875827063859749 0  0.738832831527469 0.005150555219227429 0  -0.4895714961361612 -0.5919673719748437 0  -0.5201001281134694 0.6088110994624564 0  -0.312063222604429 0.2553617887222835 0  1.037525435388136 -0.3297856329462021 0  1.031210309423764 0.3375718084495427 0  0.458843935599169 -0.2134127143518861 0  0.02369915705653375 0.2280656523261307 0  -0.6176980178359031 0.1984060591763305 0  -0.2092875453112059 -0.2058563960526861 0  1.068633139532319 0.005511314691078894 0  1.526091788888709 0.007984279929269278 0  0.8703888471601677 -0.4181108181998132 0  0.881059579033121 -0.1660717652839219 0  0.7075091590590527 -0.2463186077292575 0  0.594197028569887 -0.09680002340380467 0  0.5776666846076283 -0.3704360088222384 0  1.044726110260677 -0.1583256084525364 0  0.9042542703432767 0.005286671779480579 0  -1.047188688277809 0.1580237318535977 0  -1.296637055326992 0.154475787008804 0  -1.165261671865633 0.005885139623232057 0  -1.04349458324977 -0.1550764007355095 0  -1.291863361852019 -0.1394353697283234 0  -1.47500088107365 -0.2154476571010012 0  -1.597222756514385 -0.07129656047801987 0  -1.595450810114257 0.09892319494692675 0  -1.470096036933761 0.2407278434837294 0  -0.1492208548952326 -0.4606672770456862 0  -0.3390050475657823 -0.4050174305148835 0  -0.2934973564675416 -0.6600113612234472 0  -0.3776437432902324 -0.1695613784006132 0  -0.5163322690781711 -0.3603604699733552 0  -1.377360134099908 -0.3770771165336813 0  -1.376222520397417 0.3942908797036954 0  0.4045729979698731 -0.4387324925673134 0  0.3009772730513353 -0.2133341488366725 0  0.2447457682327304 -0.4474456751787088 0  -1.034066954133192 0.3749903054171126 0  -0.8828956909469028 0.2191214408632399 0  1.502099323257391 -0.2454249791214422 0  1.356900084890339 -0.3690262271022711 0  1.349653393465969 0.3817101798072199 0  1.497098526049081 0.2607428729638899 0  -0.8720332788977946 -0.6780725861401454 0  -1.061281991740034 -0.5652260714070794 0  -1.056865705447866 0.5803693582078194 0  -0.86559782155281 0.6862284644231468 0  0.8902712514860599 -0.6640256913042414 0  0.6856118600543811 -0.7694504229161393 0  0.6743675093538239 0.7562459913104085 0  0.878857585791112 0.6612875759986083 0  0.020223
[...]
<PointData  Vectors="f_48"> 
<DataArray  type="Float64"  Name="f_48"  NumberOfComponents="3" format="ascii">-4.0510617984612232e-09 -4.6670219709164083e-09 0.0000000000000000e+00  2.9834537602582866e-07 -3.7156603923211870e-07 0.0000000000000000e+00  1.2352797265722055e-06 -3.6774207568614321e-08 0.0000000000000000e+00  1.0124416005642391e-06 -6.6263729654608679e-07 0.0000000000000000e+00  1.4780271142622782e-06 -1.1622652887244483e-07 0.0000000000000000e+00  2.1562478381212527e-06 -7.8250110722456455e-08 0.0000000000000000e+00  1.2128492753433592e-06 -4.7528385700284902e-07 0.0000000000000000e+00  2.4843162439207395e-06 -2.3145510969751347e-06 0.0000000000000000e+00  1.3450625097805696e-07 7.2834823452713348e-06 0.0000000000000000e+00  4.8159432896059849e-06 -1.9784537209737618e-06 0.0000000000000000e+00  1.1430157695571696e-06 -4.0081471584488631e-06 0.0000000000000000e+00  2.8157708758240823e-06 6.3502396280855621e-06 0.0000000000000000e+00  2.9346377826106941e-06 -2.4187020698674939e-06 0.0000000000000000e+00  2.7186481320906954e-06 5.1517788135535416e-06 0.0000000000000000e+00  2.6491811780554981e-06 -6.1661312144925093e-07 0.0000000000000000e+00  4.2129116274191058e-06 3.7473108588071350e-07 0.0000000000000000e+00  -3.9837817968109336e-06 1.1692583433228410e-05 0.0000000000000000e+00  6.5612726343669701e-06 -6.6336834868893089e-07 0.0000000000000000e+00  3.0624746260183996e-06 -3.5208623851671360e-06 0.0000000000000000e+00  6.7126119907817341e-07 9.2020035512445977e-06 0.0000000000000000e+00  3.4336784522828675e-06 -1.3860436859908044e-07 0.0000000000000000e+00  1.1995674422221915e-06 6.1603550579014322e-06 0.0000000000000000e+00  2.5193969327108744e-06 2.5253335383152094e-06 0.0000000000000000e+00  2.5736075972497495e-06 1.6153231278539066e-06 0.0000000000000000e+00  -5.7397597781458597e-08 6.2743713583456522e-06 0.0000000000000000e+00  1.0920169777549481e-06 4.5780806687808907e-06 0.0000000000000000e+00  2.3435599426695584e-06 1.2657401307926660e-06 0.0000000000000000e+00  7.1018195370911615e-07 4.0123770263385491e-06 0.0000000000000000e+00  1.3527980500337537e-06 2.3768959649198111e-06 0.0000000000000000e+00  7.1540703557758919e-07 2.9459485715321562e-06 0.0000000000000000e+00  1.0217884479472560e-06 2.0554782542112409e-06 0.0000000000000000e+00  8.8656756511324003e-07 1.8580793369148710e-06 0.0000000000000000e+00  -9.4299567586241080e-08 2.4673394103454561e-06 0.0000000000000000e+00  6.6148739449124634e-07 1.3698020344206871e-06 0.0000000000000000e+00  6.0062670602971658e-07 1.0926770922892847e-06 0.0000000000000000e+00  1.3344455502852676e-07 1.1000785734578854e-06 0.0000000000000000e+00  3.2582946882552686e-07 6.6405979587794465e-07 0.0000000000000000e+00  8.0184628810274669e-08 5.1224637051685825e-07 0.0000000000000000e+00  1.2754866930631932e-07 2.0155234698261485e-07 0.0000000000000000e+00  -6.8873639446796684e-08 9.0376823013633087e-09 0.0000000000000000e+00  4.0611639639627289e-08 -2.7264034290127430e-07 0.0000000000000000e+00  -1.1682980020068075e-07 -4.9471900001126384e-07 0.0000000000000000e+00  -1.6396350073746501e-07 -7.5849386229705053e-07 0.0000000000000000e+00  -4.5405445941511778e-08 -9.7724042168923762e-07 0.0000000000000000e+00  -2.0583042622840455e-08 -1.2399949679796663e-06 0.0000000000000000e+00  -1.7104713759303789e-07 -1.4781052144050454e-06 0.0000000000000000e+00  3.0794662102664170e-07 -1.6478664070288084e-06 0.0000000000000000e+00  3.8400106964228826e-07 -1.8098312515615561e-06 0.0000000000000000e+00  -3.3145174282841706e-07 -2.4269746189260944e-06 0.0000000000000000e+00  8.2442802882568478e-07 -2.1012526273757103e-06 0.0000000000000000e+00  1.0775683016672442e-06 -2.1189462657535033e-06 0.0000000000000000e+00  4.6184707892778744e-07 -2.9422559738829578e-06 0.0000000000000000e+00  1.7355988294007508e-06 -2.0772370269160586e-06 0.0000000000000000e+00  1.7444286271183720e-07 -3.9914760154517199e-06 0.0000000000000000e+00  2.6521531498759794e-06 -1.4107066463209595e-06 0.0000000000000000e+00  2.2570643512846957e-06 -2.5372094945657887e-06 0.0000000000000000e+00  -1.0348898860918194e-06 -6.7745952520279593e-06 0.0000000000000000e+00  2.5035796831535244e-06 -2.3904131624358913e-06 0.0000000000000000e+00  2.8934887924759308e-06 -1.7519970180309460e-06 0.0000000000000000e+00  9.8305073618688234e-07 -6.0468189734029983e-06 0.0000000000000000e+00  3.7569210748451051e-06 -3.7867810864504621e-07 0.0000000000000000e+00  3.0103530874104586e-07 -8.4323896595867167e-06 0.0000000000000000e+00  3.7748663654575489e-06 4.6611295485223448e-07 0.0000000000000000e+00  6.0876487600046797e-06 2.6096611739934412e-06 0.0000000000000000e+00  -3.0029395096408526e-06 -1.2652663763289524e-05 0.0000000000000000e+00  3.8801001922629404e-06 -1.6259593013941300e-06 0.0000000000000000e+00  2.9410080337767022e-06 -2.3692354845951597e-06 0.0000000000000000e+00  3.2832950918000223e-06 -7.8633350828089581e-07 0.0000000000000000e+00  2.8481047232373668e-06 -8.0676034207609301e-06 0.0000000000000000e+00  2.2990639766947473e-06 7.5417664403009827e-06 0.0000000000000000e+00  5.9607913914192461e-06 -6.2229061361016181e-06 0.0000000000000000e+00  -5.9967285921214201e-07 -7.2383731340422934e-06 0.0000000000000000e+00  -4.1001915306058441e-07 7.5141190233695764e-06 0.0000000000000000e+00  3.6032104478633370e-06 4.4982640870134115e-06 0.0000000000000000e+00  2.3358150146369664e-06 -5.0904272137853697e-06 0.0000000000000000e+00  3.3979963706035759e-06 -1.4144864677944747e-06 0.0000000000000000e+00  1.0675850422184486e-06 3.0501381169062410e-06 0.0000000000000000e+00  4.0814603385278969e-06 -5.6173060996614453e-06 0.0000000000000000e+00  -1.0804718688289724e-06 3.5704604810626242e-06 0.0000000000000000e+00  3.8890274047608086e-06 3.0586928749226986e-06 0.0000000000000000e+00  -3.6594210816560323e-07 -3.4442895815789157e-06 0.0000000000000000e+00  7.4343897061227222e-07 3.1934266525780491e-06 0.0000000000000000e+00  -1.4929604739758737e-06 3.0868359046038192e-07 0.0000000000000000e+00  1.3294457940314317e-06 6.9278360129641238e-07 0.0000000000000000e+00  -7.8130393957075688e-07 -5.2519110079755528e-08 0.0000000000000000e+00  7.6770758762107787e-07 -2.5097532986355039e-07 0.0000000000000000e+00  -9.5192099663247143e-07 -1.1523460838048193e-07 0.0000000000000000e+00  6.6187046227252106e-07 -2.3940579323669329e-06 0.0000000000000000e+00  -1.1156401673664142e-07 2.6791718207140602e-06 0.0000000000000000e+00  2.6175309405991275e-06 -2.5599669741424010e-06 0.0000000000000000e+00  -6.6532986528729264e-07 -2.4509574218741714e-06 0.0000000000000000e+00  3.4836160269629332e-06 4.1245472490424175e-06 0.0000000000000000e+00  6.6178622634763764e-07 -2.7500316528935753e-06 0.0000000000000000e+00  3.0229188196406166e-06 9.2546595581140783e-07 0.0000000000000000e+00  1.9392258674245777e-06 4.1713352439165831e-06 0.0000000000000000e+00  3.8398933788921719e-06 -3.6834182038841646e-06 0.0000000000000000e+00  -2.2101063886995862e-06 -7.7152264754300690e-06 0.0000000000000000e+00  1.0419733504535944e-06 5.1985334795384388e-06 0.0000000000000000e+00  5.6035684961409726e-06 6.1042679127617128e-06 0.0000000000000000e+00  1.7738745220252598e-06 -8.3567438668434878e-06 0.0000000000000000e+00  2.9057329952045774e-06 7.5398090264158226e-06 0.0000000000000000e+00  3.0782305943036959e-06 2.3623557682324858e-07 0.0000000000000000e+00  2.7673533683935482e-06 1.7559256466932980e-06 0.0000000000000000e+00  3.6708496355154194e-06 1.3495032286952349e-06 0.0000000000000000e+00  -2.6140303422413142e-06 1.2335662226749911e-05 0.0000000000000000e+00  5.5681074883110671e-06 -4.1398517777558133e-06 0.0000000000000000e+00  3.5664068339448339e-06 -8.8034266193097605e-07 0.0000000000000000e+00  3.7788361040000867e-07 8.0333791093920648e-06 0.0000000000000000e+00  3.6619361418312105e-06 -6.0999788522107003e-07 0.0000000000000000e+00  1.1430559893406945e-06 5.4635606383246392e-06 0.0000000000000000e+00  2.8940721419014049e-06 6.6412710026173590e-07 0.0000000000000000e+00  1.5881613639314603e-06 3.4434308620852711e-06 0.0000000000000000e+00  -7.0702193138749492e-07 6.7287387650663315e-06 0.0000000000000000e+00  3.7976604082903142e-06 -1.3989186699678920e-06 0.0000000000000000e+00  2.3970809001611468e-06 1.2662007258568863e-06 0.0000000000000000e+00  4.3878564198255134e-08 3.5272910286793490e-06 0.0000000000000000e+00  2.3279141766218928e-06 7.9576987271272608e-07 0.0000000000000000e+00  4.3974637100908117e-07 2.4437816858713938e-06 0.0000000000000000e+00  1.6813586753446819e-06 9.7546147487435233e-07 0.0000000000000000e+00  1.3390158266132303e-06 1.1962217622739051e-06 0.0000000000000000e+00  -3.0759933086067466e-07 1.9493111040194425e-06 0.0000000000000000e+00  7.7954325949236513e-07 1.0874077941005441e-06 0.0000000000000000e+00  6.9459271997678679e-07 9.8038538835224660e-07 0.0000000000000000e+00  5.6329428192225543e-08 9.2847939489054978e-07 0.0000000000000000e+00  2.6344735020060066e-07 6.9562216474114779e-07 0.0000000000000000e+00  3.6489938562892031e-08 5.0206176226863165e-07 0.0000000000000000e+00  4.2827886864884300e-08 2.9116213444558293e-07 0.0000000000000000e+00  -3.3259612842404008e-08 6.2575585227757889e-08 0.0000000000000000e+00  3.8793011495124621e-08 -1.5612241729488687e-07 0.0000000000000000e+00  7.1934933214393830e-08 -3.8127983354623023e-07 0.0000000000000000e+00  2.0692417863280465e-07 -5.8177289452422871e-07 0.0000000000000000e+00  2.0218858848629191e-07 -8.4154118463301992e-07 0.0000000000000000e+00  6.3530534674633290e-07 -8.6850990223006087e-07 0.0000000000000000e+00  1.3325470880407711e-07 -1.5014637460117682e-06 0.0000000000000000e+00  1.2280534391643936e-06 -9.4760281582614436e-07 0.0000000000000000e+00  1.2540132176514299e-06 -1.2415758547594379e-06 0.0000000000000000e+00  -4.6526029610139767e-07 -3.3917106753832798e-06 0.0000000000000000e+00  1.6719385298192951e-06 -1.3943189669695445e-06 0.0000000000000000e+00  1.7379185645217451e-06 -1.5179237377965105e-06 0.0000000000000000e+00  1.1282650662089579e-06 -3.0561048045376460e-06 0.0000000000000000e+00  1.8975754371189194e-06 -2.0610693966006696e-06 0.0000000000000000e+00  1.2496905927877430e-06 -3.9779590940315400e-06 0.0000000000000000e+00  2.7657163323240583e-06 -8.5897123707094855e-07 0.0000000000000000e+00  1.5506465549621387e-06 -4.7052161952262178e-06 0.0000000000000000e+00  5.7037037841326344e-07 -6.3422421913644354e-06 0.0000000000000000e+00  2.8848511504313369e-06 -1.3311676912934322e-06 0.0000000000000000e+00  2.8594603947609105e-06 -2.3196728764254899e-06 0.0000000000000000e+00  1.6597618576539907e-06 -6.2814004203080887e-06 0.0000000000000000e+00  3.6289922826404421e-06 6.6251610057676884e-07 0.0000000000000000e+00  1.1600116889583989e-06 -9.5889346649158461e-06 0.0000000000000000e+00  2.9396483520004018e-06 3.9336157143840413e-06 0.0000000000000000e+00  6.8187473602493694e-06 1.3974717917311049e-06 0.0000000000000000e+00  -3.7770742063251400e-06 -1.2255375213673849e-05 0.0000000000000000e+00  4.3684014339502337e-06 -1.9757950798524565e-07 0.0000000000000000e+00  2.5974999887183840e-06 9.1275797497103866e-07 0.0000000000000000e+00  2.9526211150527828e-06 -5.0259932504377226e-06 0.0000000000000000e+00  2.8104557976917541e-06 2.7178057301032413e-06 0.0000000000000000e+00  3.0439262950617563e-06 -6.1626841834874456e-06 0.0000000000000000e+00  8.9748296797982964e-07 4.0502975499164569e-06 0.0000000000000000e+00  4.7502554000963670e-06 2.1408811004250650e-06 0.0000000000000000e+00  2.6099899420049087e-07 -7.0661581927433402e-06 0.0000000000000000e+00  2.3546723929206087e-06 2.3815479849403976e-06 0.0000000000000000e+00  1.0806990828483934e-06 6.1074180053975284e-07 0.0000000000000000e+00  2.0939158133669970e-06 7.3463832245121781e-08 0.0000000000000000e+00  1.1923402323892136e-06 4.1208927456269451e-07 0.0000000000000000e+00  1.0946140533512511e-06 4.5536312454660187e-07 0.0000000000000000e+00  9.4858132134410450e-07 2.0119870165711919e-07 0.0000000000000000e+00  1.3978742530863402e-07 2.9382177519317232e-07 0.0000000000000000e+00  3.9443915861115187e+02 -1.7923487342372616e+03 0.0000000000000000e+00  2.7648237178205868e+03 1.1648162341677384e+02 0.0000000000000000e+00  2.6339916635207837e+03 -7.7461482203696471e+02 0.0000000000000000e+00  1.5315083534281897e+02 9.5577588707736754e+02 0.0000000000000000e+00  1.7394082082816426e+03 -9.5650348406655340e+01 0.0000000000000000e+00  7.4071117154108708e+02 -1.0332445953693352e+03 0.0000000000000000e+00  3.0269481026499088e+03 8.6896429337108532e+02 0.0000000000000000e+00  -5.4457111100885962e+00 1.8561723297426983e+02 0.0000000000000000e+00  8.0174414746739615e+02 1.1857351372026803e+03 0.0000000000000000e+00  1.6098282736530559e+03 -1.1872447848594445e+03 0.0000000000000000e+00  -1.3257474397022566e+01 1.7945678074731322e+02 0.0000000000000000e+00  5.7870449403277291e+02 -8.6993684074217094e+02 0.0000000000000000e+00  1.8618964521886064e+03 1.3952076233235446e+03 0.0000000000000000e+00  1.2076964273481726e+03 -1.0679884387102145e+03 0.0000000000000000e+00  1.3167761718314250e+03 -4.4079146250982927e+02 0.0000000000000000e+00  2.0955837197738097e+02 2.0739343711098988e+02 0.0000000000000000e+00  -4.3404334158483067e+02 3.6551137595908006e+02 0.0000000000000000e+00  -2.1935586081847123e+00 7.5404337118094088e+02 0.0000000000000000e+00  2.5290529609466084e+03 1.0728746119505090e+03 0.0000000000000000e+00  2.9910314563246070e+03 -1.1790593517626207e+03 0.0000000000000000e+00  1.9291542178420457e+03 3.6387052526748585e+02 0.0000000000000000e+00  2.0287571522460321e+03 1.3903921075759192e+03 0.0000000000000000e+00  1.6066633987890675e+03 -1.0587421309142833e+03 0.0000000000000000e+00  1.6998272379298107e+03 1.2321530942993902e+03 0.0000000000000000e+00  -5.3681297756470644e+02 -1.1523644457434300e+03 0.0000000000000000e+00  1.2070799286703209e+03 1.4577199109296164e+03 0.0000000000000000e+00  8.1848918656076944e+02 1.1099668202955641e+02 0.0000000000000000e+00  -7.1521075565087440e+00 2.9462318749229240e+02 0.0000000000000000e+00  -4.8889610255347220e+00 -2.3368242916075350e+00 0.0000000000000000e+00  2.5817377922113947e+03 9.7804461024892544e+02 0.0000000000000000e+00  8.8006677580012274e+02 1.5397041813404091e+03 0.0000000000000000e+00  1.6504158041072490e+03 1.5517631270717472e+03 0.0000000000000000e+00  6.2182475659487795e+02 1.4798461609546539e+03 0.0000000000000000e+00  2.4522210367066828e+03 7.3107478678644941e+02 0.0000000000000000e+00  7.3690265190135915e+02 1.4017188566199079e+03 0.0000000000000000e+00  -6.9177646928031171e+00 4.9907709106451404e+02 0.0000000000000000e+00  6.9795603466955299e+02 1.4140631797243761e+03 0.0000000000000000e+00  6.1502148149900074e+02 1.1985363326098909e+03 0.0000000000000000e+00  -6.0132231746268250e+00 2.1150587349343391e+02 0.0000000000000000e+00  5.5248859060468703e+02 -1.0599021756059278e+03 0.0000000000000000e+00  4.3621965608258591e+02 -8.7845720135206307e+02 0.0000000000000000e+00  7.0921240033326876e+02 -7.4602217812978654e+02 0.0000000000000000e+00  7.4708210807527379e+01 -2.5241268112329757e+02 0.0000000000000000e+00  1.6358423636761626e+02 4.5621871825154795e+02 0.0000000000000000e+00  9.3101111431096763e+02 9.0280130118936154e+02 0.0000000000000000e+00  6.3561676479803600e+02 1.1718344517759670e+03 0.0000000000000000e+00  2.0589567711753439e+03 7.0231262823833970e+02 0.0000000000000000e+00  1.3312841784827722e+03 1.6263381141575351e+03 0.0000000000000000e+00  8.9605443810469342e+02 -6.4454994356261557e+02 0.0000000000000000e+00  2.3746872768081339e+03 -4.3296978618923771e+02 0.0000000000000000e+00  1.4589286475470003e+03 -4.7380268682732799e+02 0.0000000000000000e+00  1.6626231622811508e+03 5.1548519971155156e+02 0.0000000000000000e+00  2.2043373880637346e+03 -3.5739061360388217e+02 0.0000000000000000e+00  1.8049918813002084e+03 6.0457693028747678e+02 0.0000000000000000e+00  1.2700618737871155e+03 -8.2893377010137158e+02 0.0000000000000000e+00  2.4708977840173361e+03 1.3196192405750103e+03 0.0000000000000000e+00  1.2607682628645998e+03 1.6579481540569157e+03 0.0000000000000000e+00  9.6610519514059422e+02 7.1501855792381707e+02 0.0000000000000000e+00  1.6356219767218956e+03 5.9815459577616173e+02 0.0000000000000000e+00  1.5881677530412232e+03 -5.1758070346014881e+02 0.0000000000000000e+00  9.8511314597899320e+02 -6.7824602462223572e+02 0.0000000000000000e+00  2.2503928659111043e+03 4.4911388371204384e+02 0.0000000000000000e+00  2.2275071672578833e+03 -4.4460720994132224e+01 0.0000000000000000e+00  2.4964751804334528e+03 -4.6605555775180129e+01 0.0000000000000000e+00  2.5196975651888442e+03 -6.0005331738709151e+02 0.0000000000000000e+00  2.1967337486410520e+03 -3.6775955420443756e+02 0.0000000000000000e+00  1.7525109369036386e+03 -7.9911103941643808e+02 0.0000000000000000e+00  1.3116190580593304e+03 6.3584569749290870e+02 0.0000000000000000e+00  1.8142338867455471e+03 3.6813866756941155e+02 0.0000000000000000e+00  -1.7152359227479998e+01 2.2574456385313604e+02 0.0000000000000000e+00  4.1243307768776327e+02 1.0228231312240795e+03 0.0000000000000000e+00  5.4765879201749112e+02 -1.4153871132405116e+03 0.0000000000000000e+00  -4.5921897026098002e+01 -7.2687388333174874e+02 0.0000000000000000e+00  2.2986513695830226e+03 -7.0965776108745195e+02 0.0000000000000000e+00  -1.7282334157448503e+02 5.0944121522834587e+02 0.0000000000000000e+00  5.4830800620120840e+02 -5.5598182651711727e+02 0.0000000000000000e+00  6.7614526202077468e+02 -2.2550275059485674e+02 0.0000000000000000e+00  1.8452558153724201e+03 -1.2057355550318332e+03 0.0000000000000000e+00  9.5765488245300006e+01 -4.2371199177131541e+02 0.0000000000000000e+00  1.0332890865892136e+03 -1.3079082800866802e+03 0.0000000000000000e+00  -1.0120589112749208e+03 1.3316948157320635e+02 0.0000000000000000e+00  2.4384961776161131e+02 -1.1671040240826933e+03 0.0000000000000000e+00  3.3209793123508086e+02 1.4929982110848709e+03 0.0000000000000000e+00  1.9381973642569403e+03 -2.0957989082206004e+02 0.0000000000000000e+00  2.1960856397144098e+03 1.9618172544350719e+02 0.0000000000000000e+00  2.1306557413578430e+03 -1.1446498707908449e+03 0.0000000000000000e+00  3.6538893986092705e+02 -6.5102869132094293e+02 0.0000000000000000e+00  1.8220074247433504e+03 -6.8370834355047987e+02 0.0000000000000000e+00  4.5845934280645525e+02 -8.4818980169412555e+02 0.0000000000000000e+00  9.9523857694967148e+01 1.8987782334673941e+01 0.0000000000000000e+00  1.1096326176870034e+03 3.4353552720531610e+02 0.0000000000000000e+00  2.0469152408067394e+01 -1.1293002311323320e+02 0.0000000000000000e+00  1.4348395183419709e+02 -3.8937563220207130e+02 0.0000000000000000e+00  2.8983739132171982e+03 -5.3976357143641360e+02 0.0000000000000000e+00  1.6901133578460817e+03 -1.8205894160098003e+03 0.0000000000000000e+00  1.8488616461305044e+03 -2.0186797859186245e+03 0.0000000000000000e+00  1.9642428645200712e+02 1.3876532633533175e+03 0.0000000000000000e+00  -2.9545623505139421e+01 -2.0731632357547008e+02 0.0000000000000000e+00  1.0494879403571811e+03 -9.1514125631098295e+02 0.0000000000000000e+00  2.6498543234253577e+02 -5.3859151800122515e+02 0.0000000000000000e+00  1.5191345025029296e+01 3.8094740703194454e+01 0.0000000000000000e+00  6.2467243406967668e+02 5.8729687640698853e+02 0.0000000000000000e+00  -2.4051393685633465e+02 5.3421451899164083e+02 0.0000000000000000e+00  -4.7960998950318475e+02 -5.1794182776707999e+02 0.0000000000000000e+00  -2.3320358607637394e+02 -7.3507297501710991e+02 0.0000000000000000e+00  1.2296239696673158e+03 1.2866409908941616e+03 0.0000000000000000e+00  2.0071190814608126e+03 9.4591899436383756e+02 0.0000000000000000e+00  2.9088203616123315e+03 -9.1477675995043874e+00 0.0000000000000000e+00  2.1747110959311485e+03 -1.1369342287202132e+03 0.0000000000000000e+00  1.4184728894942641e+03 -1.5457157390838374e+03 0.0000000000000000e+00  3.3229938821943497e+03 3.0914756976154898e+00 0.0000000000000000e+00  2.8722113638643032e+02 1.0126128163524396e+03 0.0000000000000000e+00  2.3612847163255506e+03 1.4453971976030939e+03 0.0000000000000000e+00  -5.2440348380783135e+00 -1.642130