<?xml version="1.0"?>
<VTKFile type="UnstructuredGrid"  version="0.1"  >
<UnstructuredGrid>
<Piece  NumberOfPoints="2549" NumberOfCells="4928">
<Points>
<DataArray  type="Float64"  NumberOfComponents="3"  format="ascii">1.826628011340194 0.0100575475002409 0  1.823135000265728 0.05644548717862849 0  1.808311387533298 0.09836827340630702 0  1.794374680468875 0.1405924617923867 0  1.775238225291221 0.1805919223205764 0  1.754600722811564 0.2202017332171663 0  1.72991629808953 0.2578971287312279 0  1.705561241460526 0.29637981975479 0  1.670381447758591 0.3281516463499278 0  1.637901727065702 0.351262129209719 0  1.613380988937464 0.3928660200378405 0  1.579556460076418 0.4239313898709761 0  1.546693465735438 0.4573560056125953 0  1.511598347338283 0.4888295594136551 0  1.475392492911507 0.5193213132069064 0  1.438692677306982 0.5509665676920789 0  1.396143303276453 0.5756356035656803 0  1.358408440753897 0.5958410345493996 0  1.321989146108169 0.6320205110037731 0  1.281189253790137 0.659494607652736 0  1.24036429604343 0.6892057388089283 0  1.198156710497378 0.7176523371771615 0  1.15515565176094 0.7461940421608604 0  1.11131249545737 0.7754474106536915 0  1.064849990081697 0.8035507522378681 0  1.018358258080917 0.8278724684022571 0  0.9712686735976157 0.8556530158113096 0  0.9225640332528287 0.8827054156445658 0  0.8724991711960045 0.9094255190718389 0  0.8209932583055999 0.9356734353364616 0  0.7680003494328508 0.9612534052663736 0  0.7135086906743019 0.986455874586136 0  0.6569646076065137 1.009947143681228 0  0.5995565806881394 1.031908368690805 0  0.5402502423183887 1.054088599316469 0  0.4792521550209046 1.074090134268229 0  0.4166750749040721 1.092524904472041 0  0.3525980093184423 1.108972399555262 0  0.2871369992588051 1.123211787803495 0  0.2204820341844999 1.135379617203326 0  0.1525621058353182 1.144453633208759 0  0.084254698551046 1.150735923793695 0  0.01516313773801866 1.154772688350481 0  -0.0541557924514829 1.155449675457937 0  -0.1234379905281298 1.153198374237343 0  -0.1923729318410038 1.147816124048409 0  -0.2606625377346803 1.139565287349514 0  -0.3280285439171433 1.127925022521365 0  -0.3939535733863837 1.114569486986938 0  -0.459120070772783 1.098451247626388 0  -0.5224170985326431 1.079361198442996 0  -0.5840893680610273 1.058500292273549 0  -0.6440191665299476 1.035809260283684 0  -0.7021389606456954 1.011422007799143 0  -0.758496681876425 0.9861486763456656 0  -0.8127742264934451 0.9581325610720863 0  -0.8650207204443339 0.9335454348818869 0  -0.9175773187019238 0.9066589646700989 0  -0.9672066260801068 0.8773070764284939 0  -1.015480014365409 0.8484109560106454 0  -1.062445110407672 0.8194297634329286 0  -1.107881999763706 0.7894135119164518 0  -1.152611608376111 0.7613577470637722 0  -1.194367052385267 0.726162921525954 0  -1.234693304982883 0.7022979537037961 0  -1.279157050215225 0.6783390602745889 0  -1.319670311244088 0.6484500643962918 0  -1.359685233111481 0.6200239518576985 0  -1.398412479644057 0.5903270204507104 0  -1.437335819713156 0.5629462282446879 0  -1.472755845268795 0.5296805387655245 0  -1.515721385583411 0.5145811673279334 0  -1.556821140747306 0.4763914214243465 0  -1.579327193955058 0.4274512631017408 0  -1.611388133972919 0.3947525020444431 0  -1.638871467671421 0.3582299873715347 0  -1.668494464383773 0.3242884589538682 0  -1.691580957447247 0.2858133030811305 0  -1.723010123250737 0.2552155388227295 0  -1.727261666698382 0.2057779256952108 0  -1.765433993856883 0.1912922122173512 0  -1.806948573959035 0.1534324271411052 0  -1.805308336467848 0.1055704001997733 0  -1.820896726071893 0.06186192780492102 0  -1.819151713964946 0.01677767361497101 0  -1.822109673396046 -0.02836796995310506 0  -1.806732838115838 -0.07222781780855372 0  -1.810540944510304 -0.1206403116052465 0  -1.767671438231513 -0.1583329273271906 0  -1.729004666126833 -0.1710146654131197 0  -1.72776885391978 -0.2224723158699743 0  -1.696515111779721 -0.2529929693210915 0  -1.674770067744285 -0.2924633135608322 0  -1.645903624967829 -0.3270323204932357 0  -1.619314869262276 -0.3643771403361525 0  -1.587632952974112 -0.3972666254574649 0  -1.566862323894331 -0.4474744436047649 0  -1.527131830155018 -0.4892869336669797 0  -1.483872094730211 -0.5033091488355533 0  -1.449275165632159 -0.5378693816294827 0  -1.410806196158238 -0.5656491249467813 0  -1.372734094424925 -0.5961400930549239 0  -1.333274329757774 -0.6251600129655339 0  -1.293353095042447 -0.6557373847847024 0  -1.249395990908072 -0.6794708279663697 0  -1.210340742041598 -0.704078067379078 0  -1.169622262805728 -0.7419007355630511 0  -1.125603102522498 -0.7710098932097357 0  -1.080992598681268 -0.8027242407751953 0  -1.034804069581974 -0.8333349753793675 0  -0.9872190745739213 -0.8639278476503087 0  -0.9380456435286415 -0.894603368770808 0  -0.8865965984825608 -0.9220876988570571 0  -0.8356710172332853 -0.9504550715822152 0  -0.7817109838319578 -0.9830441802366696 0  -0.7254717446885087 -1.010920948514463 0  -0.6673772852507432 -1.03872580517522 0  -0.607249016425095 -1.064634269325361 0  -0.5451503111060786 -1.088843318017943 0  -0.4811866436980877 -1.111624308404724 0  -0.4147499159174703 -1.130865211577643 0  -0.3477179852658824 -1.147002729177503 0  -0.2787439977883059 -1.162067861167185 0  -0.2084873464589185 -1.173202847481433 0  -0.1372755672786296 -1.181180817666258 0  -0.06543689692164995 -1.185596052779103 0  0.006661384785164023 -1.186520795640971 0  0.07867949157625517 -1.183823911666986 0  0.1502312931655496 -1.177646956344854 0  0.2209189182291789 -1.168060160348644 0  0.2905306214849256 -1.155395597938891 0  0.3587389133061956 -1.139721681090491 0  0.425326916119763 -1.121418369829022 0  0.490112536392949 -1.100629056110705 0  0.5529934854627949 -1.078109604664995 0  0.6137583958584885 -1.052529635470083 0  0.6720183389801322 -1.028726477402889 0  0.7299522146544918 -1.002668562466247 0  0.7850042874649672 -0.9741147885942564 0  0.8383242695477536 -0.9456410814480153 0  0.8899269210551251 -0.9166026021267033 0  0.9398846702992197 -0.8872662210327988 0  0.9883099152898539 -0.8577355770672477 0  1.034997506341958 -0.8277721501281665 0  1.081017369193692 -0.8013360928403864 0  1.126831256567618 -0.7711860457810085 0  1.17004108869689 -0.7402191648873969 0  1.212346771231603 -0.710058613918927 0  1.253857789021454 -0.680176820560449 0  1.293937075607571 -0.6490705564311805 0  1.334070886538549 -0.6205317598302116 0  1.369603894482288 -0.5827688604384642 0  1.406511316197533 -0.5619300636882975 0  1.448569378920672 -0.5367739549139888 0  1.484632562278367 -0.5043176955072772 0  1.520210845454402 -0.4731034273530865 0  1.554642057942175 -0.4408912550621691 0  1.586792560660852 -0.4067331069210113 0  1.620024690981196 -0.3751464293525703 0  1.643555030395896 -0.3325661609939796 0  1.675516372414929 -0.3094637462497499 0  1.710248130070829 -0.2773384619180873 0  1.733799000176725 -0.2383248340107201 0  1.757721900952265 -0.2002214012127885 0  1.77756878016169 -0.160277237157847 0  1.795624494878096 -0.1199476337510465 0  1.80940953805973 -0.07784265138684397 0  1.822065149992389 -0.0354873592156664 0  -0.1073310831691326 0.7032004122285322 0  0.7030203018344836 -0.519132470638226 0  -0.8685183414799037 -0.4420636236018699 0  -0.08793198339308116 -0.7130261562522566 0  0.6926165235795787 0.5127313260447947 0  1.306761199197185 0.1905793564219263 0  -0.8748302309641516 0.4507595941961325 0  -1.412453759836438 0.01131528611918503 0  1.311222504442004 -0.1781104872861565 0  -1.184672772401979 -0.3035407102647619 0  -0.914851867065172 -0.0005785922016416367 0  -0.5491200116523356 -0.138123750803129 0  -1.193166057246163 0.3095370274412318 0  0.342894541443905 -0.6752829208284388 0  0.1440181630642986 -0.2219596406377595 0  0.2960489075433005 0.6504733516438327 0  0.3634308339081336 0.1875827063859749 0  0.738832831527469 0.005150555219227429 0  -0.4895714961361612 -0.5919673719748437 0  -0.5201001281134694 0.6088110994624564 0  -0.312063222604429 0.2553617887222835 0  1.037525435388136 -0.3297856329462021 0  1.031210309423764 0.3375718084495427 0  0.458843935599169 -0.2134127143518861 0  0.02369915705653375 0.2280656523261307 0  -0.6176980178359031 0.1984060591763305 0  -0.2092875453112059 -0.2058563960526861 0  1.068633139532319 0.005511314691078894 0  1.526091788888709 0.007984279929269278 0  0.8703888471601677 -0.4181108181998132 0  0.881059579033121 -0.1660717652839219 0  0.7075091590590527 -0.2463186077292575 0  0.594197028569887 -0.09680002340380467 0  0.5776666846076283 -0.3704360088222384 0  1.044726110260677 -0.1583256084525364 0  0.9042542703432767 0.005286671779480579 0  -1.047188688277809 0.1580237318535977 0  -1.296637055326992 0.154475787008804 0  -1.165261671865633 0.005885139623232057 0  -1.04349458324977 -0.1550764007355095 0  -1.291863361852019 -0.1394353697283234 0  -1.47500088107365 -0.2154476571010012 0  -1.597222756514385 -0.07129656047801987 0  -1.595450810114257 0.09892319494692675 0  -1.470096036933761 0.2407278434837294 0  -0.1492208548952326 -0.4606672770456862 0  -0.3390050475657823 -0.4050174305148835 0  -0.2934973564675416 -0.6600113612234472 0  -0.3776437432902324 -0.1695613784006132 0  -0.5163322690781711 -0.3603604699733552 0  -1.377360134099908 -0.3770771165336813 0  -1.376222520397417 0.3942908797036954 0  0.4045729979698731 -0.4387324925673134 0  0.3009772730513353 -0.2133341488366725 0  0.2447457682327304 -0.4474456751787088 0  -1.034066954133192 0.3749903054171126 0  -0.8828956909469028 0.2191214408632399 0  1.502099323257391 -0.2454249791214422 0  1.356900084890339 -0.3690262271022711 0  1.349653393465969 0.3817101798072199 0  1.497098526049081 0.2607428729638899 0  -0.8720332788977946 -0.6780725861401454 0  -1.061281991740034 -0.5652260714070794 0  -1.056865705447866 0.5803693582078194 0  -0.86559782155281 0.6862284644231468 0  0.8902712514860599 -0.6640256913042414 0  0.6856118600543811 -0.7694504229161393 0  0.6743675093538239 0.7562459913104085 0  0.878857585791112 0.6612875759986083 0  0.020223
[...]
<PointData  Vectors="f_2180"> 
<DataArray  type="Float64"  Name="f_2180"  NumberOfComponents="3" format="ascii">1.0036703766108117e+00 -2.1796574763453438e-02 0.0000000000000000e+00  9.7843882019516504e-01 2.2518210718670853e-01 0.0000000000000000e+00  9.4282522103637689e-01 3.3786024850891777e-01 0.0000000000000000e+00  9.3223073494205710e-01 3.6235701487146671e-01 0.0000000000000000e+00  8.9366621513210220e-01 4.5093612895273411e-01 0.0000000000000000e+00  8.5854860346915385e-01 5.1348873966039710e-01 0.0000000000000000e+00  8.4876346806950553e-01 5.2891585032391930e-01 0.0000000000000000e+00  7.8861225005178559e-01 6.1850612202560207e-01 0.0000000000000000e+00  5.5731822292346545e-01 8.4961789024479206e-01 0.0000000000000000e+00  7.7758902517675843e-01 6.3045071000676645e-01 0.0000000000000000e+00  8.0721290611552343e-01 5.9269864138989858e-01 0.0000000000000000e+00  6.6398185406400445e-01 7.5213799713416352e-01 0.0000000000000000e+00  7.0965365331532426e-01 7.0437935958958009e-01 0.0000000000000000e+00  6.4076462762588038e-01 7.6898790908274228e-01 0.0000000000000000e+00  6.6372568693080691e-01 7.4806050449656181e-01 0.0000000000000000e+00  5.9512997928520128e-01 8.0458433688480691e-01 0.0000000000000000e+00  4.2828482304866711e-01 9.1320913936843440e-01 0.0000000000000000e+00  6.3024049640496294e-01 7.7755692433353019e-01 0.0000000000000000e+00  6.5817812673209908e-01 7.5344419394776729e-01 0.0000000000000000e+00  5.5001507544749340e-01 8.3711256984894311e-01 0.0000000000000000e+00  5.8609330563369033e-01 8.1015995335740099e-01 0.0000000000000000e+00  5.4810220473160853e-01 8.3695538507609268e-01 0.0000000000000000e+00  5.5788696318310738e-01 8.2993118231423690e-01 0.0000000000000000e+00  5.4489819275597529e-01 8.3871366090828914e-01 0.0000000000000000e+00  4.7969889554069067e-01 8.7828207024720739e-01 0.0000000000000000e+00  4.8341437021323813e-01 8.7563828543179700e-01 0.0000000000000000e+00  5.0558730977277877e-01 8.6281574559044494e-01 0.0000000000000000e+00  4.7492080716534363e-01 8.8023533456818659e-01 0.0000000000000000e+00  4.6414005791904750e-01 8.8583797585454604e-01 0.0000000000000000e+00  4.4326870553303538e-01 8.9650410540628300e-01 0.0000000000000000e+00  4.2910159728466890e-01 9.0331474726671268e-01 0.0000000000000000e+00  4.0378990610589560e-01 9.1497309701051344e-01 0.0000000000000000e+00  3.6584162720441454e-01 9.3084995696481498e-01 0.0000000000000000e+00  3.5589227413406654e-01 9.3454704785679199e-01 0.0000000000000000e+00  3.3353036460927238e-01 9.4282219985344462e-01 0.0000000000000000e+00  2.9544542286164283e-01 9.5546317110351497e-01 0.0000000000000000e+00  2.6705599944658359e-01 9.6374827902585236e-01 0.0000000000000000e+00  2.2974662101309670e-01 9.7345437286969072e-01 0.0000000000000000e+00  1.9733016580805199e-01 9.7976282410420834e-01 0.0000000000000000e+00  1.5715883037208950e-01 9.8978821305205322e-01 0.0000000000000000e+00  1.0982776374413156e-01 9.9499677826841759e-01 0.0000000000000000e+00  7.5853410467415061e-02 9.3628179364686037e-01 0.0000000000000000e+00  3.3904286727216938e-02 1.4254542702225197e+00 0.0000000000000000e+00  5.1234714702825960e-03 -8.8709914475867679e-01 0.0000000000000000e+00  5.6459636690148911e-02 -9.2728079457547030e-01 0.0000000000000000e+00  9.7746282013593727e-02 -1.0174429978643500e+00 0.0000000000000000e+00  1.4669285199465354e-01 -9.8583665532112830e-01 0.0000000000000000e+00  1.8588902317139119e-01 -9.8283942624966947e-01 0.0000000000000000e+00  2.1605797865700641e-01 -9.7659314776947326e-01 0.0000000000000000e+00  2.6596043880290771e-01 -9.6412428991964672e-01 0.0000000000000000e+00  3.0635502116210989e-01 -9.5200415771072722e-01 0.0000000000000000e+00  3.3592538997084143e-01 -9.4200511114722518e-01 0.0000000000000000e+00  3.7334387296791383e-01 -9.2775333544781269e-01 0.0000000000000000e+00  3.9353774939362596e-01 -9.1949691035115555e-01 0.0000000000000000e+00  4.4080208462200510e-01 -8.9769972009240973e-01 0.0000000000000000e+00  4.4697728866256847e-01 -8.9450593826992608e-01 0.0000000000000000e+00  4.2770810785065527e-01 -9.0451388962845747e-01 0.0000000000000000e+00  4.8714108564551689e-01 -8.7354584626710463e-01 0.0000000000000000e+00  5.1700448303038160e-01 -8.5598453498539862e-01 0.0000000000000000e+00  5.1294509515041775e-01 -8.5870629679126331e-01 0.0000000000000000e+00  5.4770873483537086e-01 -8.3664153185830870e-01 0.0000000000000000e+00  5.2527256883215723e-01 -8.5187974939115985e-01 0.0000000000000000e+00  6.0131003903657010e-01 -7.9917000832615170e-01 0.0000000000000000e+00  6.0934700184926915e-01 -7.9383572612354902e-01 0.0000000000000000e+00  4.5046754993207533e-01 -8.9736602571032387e-01 0.0000000000000000e+00  5.4171265374753275e-01 -8.4088219703668921e-01 0.0000000000000000e+00  5.9429558321962339e-01 -8.0444226396755969e-01 0.0000000000000000e+00  5.9988804583510102e-01 -8.0000598697557579e-01 0.0000000000000000e+00  5.6963892228308055e-01 -8.2321617969495042e-01 0.0000000000000000e+00  6.7535745684026272e-01 -7.4068739633847802e-01 0.0000000000000000e+00  5.0588001161841289e-01 -8.6250869636620187e-01 0.0000000000000000e+00  4.5444030340011599e-01 -9.1131948576721955e-01 0.0000000000000000e+00  8.6886983048236166e-01 -5.2038128172124587e-01 0.0000000000000000e+00  8.4355401460842483e-01 -5.3551270135278684e-01 0.0000000000000000e+00  7.3394385549505137e-01 -6.8379167568039756e-01 0.0000000000000000e+00  7.7343143350453913e-01 -6.3530796724223604e-01 0.0000000000000000e+00  8.3486864972826580e-01 -5.4917760768005885e-01 0.0000000000000000e+00  7.3647320168293173e-01 -6.9675469988819139e-01 0.0000000000000000e+00  9.4789927602946722e-01 -3.3497402564270340e-01 0.0000000000000000e+00  9.2114195074082783e-01 -3.7598867075852477e-01 0.0000000000000000e+00  4.0948737596632395e-01 -1.0404729302370508e+00 0.0000000000000000e+00  9.6109360590486859e-01 -3.1574127451338202e-01 0.0000000000000000e+00  9.9723541256837778e-01 -1.0556154986363751e-01 0.0000000000000000e+00  9.8025204616176986e-01 -2.0140828967299998e-01 0.0000000000000000e+00  1.0035669873525104e+00 -1.7753301618631197e-02 0.0000000000000000e+00  9.8229494421130992e-01 1.9439100106493012e-01 0.0000000000000000e+00  1.0009802782593329e+00 7.4236688250064117e-02 0.0000000000000000e+00  9.6587642720149325e-01 2.9783859089718606e-01 0.0000000000000000e+00  3.7939992018887225e-01 1.0792677112023230e+00 0.0000000000000000e+00  9.5007850683885842e-01 2.8164057523553376e-01 0.0000000000000000e+00  9.6124572618951232e-01 2.9507411849687770e-01 0.0000000000000000e+00  7.4790760979630244e-01 6.8747179340715769e-01 0.0000000000000000e+00  8.5353700303068658e-01 5.1979893525066923e-01 0.0000000000000000e+00  7.8827710610219504e-01 6.1689672627733749e-01 0.0000000000000000e+00  7.4541357889084547e-01 6.7167949062253884e-01 0.0000000000000000e+00  8.5316043784263884e-01 5.1897067902110483e-01 0.0000000000000000e+00  9.0072422690196063e-01 4.7157469199359603e-01 0.0000000000000000e+00  4.7727266249884392e-01 8.9833549275514846e-01 0.0000000000000000e+00  5.0059381933343094e-01 8.6616224374511208e-01 0.0000000000000000e+00  6.9814215920931999e-01 7.2075277161160090e-01 0.0000000000000000e+00  5.8004386518659345e-01 8.1600708220759899e-01 0.0000000000000000e+00  6.1600660975591204e-01 7.8763544375494443e-01 0.0000000000000000e+00  6.0929494807821016e-01 7.9320768783315498e-01 0.0000000000000000e+00  5.4841870177043772e-01 8.3645004859434924e-01 0.0000000000000000e+00  4.5778009889309329e-01 8.9485494609594685e-01 0.0000000000000000e+00  6.4693110978164936e-01 7.6422430945583308e-01 0.0000000000000000e+00  6.3032698927703523e-01 7.7651316059249009e-01 0.0000000000000000e+00  5.4729474200392891e-01 8.3807639838909287e-01 0.0000000000000000e+00  5.7705788012270387e-01 8.1667455166151892e-01 0.0000000000000000e+00  5.3999835324908663e-01 8.4193344013749616e-01 0.0000000000000000e+00  5.4281855780064370e-01 8.3991043640642360e-01 0.0000000000000000e+00  4.9874803851603078e-01 8.6700979605331607e-01 0.0000000000000000e+00  4.6475727805767098e-01 8.8598033690797817e-01 0.0000000000000000e+00  5.1610782898461560e-01 8.5664895032609878e-01 0.0000000000000000e+00  4.8452902143619742e-01 8.7495750645598991e-01 0.0000000000000000e+00  4.3114733534503180e-01 9.0247901632605287e-01 0.0000000000000000e+00  4.1862850344103708e-01 9.0821410708002070e-01 0.0000000000000000e+00  3.7636812209870102e-01 9.2658281903368578e-01 0.0000000000000000e+00  3.5254317995402251e-01 9.3586532362632080e-01 0.0000000000000000e+00  3.0942577842248481e-01 9.5113218379706044e-01 0.0000000000000000e+00  2.5039527667201283e-01 9.6844951648686839e-01 0.0000000000000000e+00  2.2599323101976601e-01 9.7342817671311310e-01 0.0000000000000000e+00  1.8784680194515938e-01 9.8461079849112632e-01 0.0000000000000000e+00  1.3229510231179514e-01 9.9265551666068019e-01 0.0000000000000000e+00  8.6795293245919475e-02 9.3224705412809383e-01 0.0000000000000000e+00  3.5783615164714948e-02 1.4381411268262942e+00 0.0000000000000000e+00  5.1968013352011611e-03 -8.7405050419421737e-01 0.0000000000000000e+00  6.3078020802953744e-02 -9.3138748387499926e-01 0.0000000000000000e+00  1.1048314934301244e-01 -1.0162759936866632e+00 0.0000000000000000e+00  1.5688751994571096e-01 -9.8415287021794240e-01 0.0000000000000000e+00  2.0183378485784215e-01 -9.7978307953238641e-01 0.0000000000000000e+00  2.4444510104619666e-01 -9.6985172944996756e-01 0.0000000000000000e+00  2.8719016501728772e-01 -9.5793728038025461e-01 0.0000000000000000e+00  3.1830482118501691e-01 -9.4814809288624780e-01 0.0000000000000000e+00  3.6755925796185274e-01 -9.3011502161715409e-01 0.0000000000000000e+00  3.8682038775052602e-01 -9.2212489271585174e-01 0.0000000000000000e+00  3.8490695165107630e-01 -9.2325085431134435e-01 0.0000000000000000e+00  4.3936757004371668e-01 -8.9848483469771034e-01 0.0000000000000000e+00  4.6908099155015992e-01 -8.8317974893918594e-01 0.0000000000000000e+00  4.7875050426974758e-01 -8.7803549677329973e-01 0.0000000000000000e+00  5.0025740543658581e-01 -8.6592888976753202e-01 0.0000000000000000e+00  5.1054286754803369e-01 -8.6000836851441920e-01 0.0000000000000000e+00  5.3871206103419678e-01 -8.4252324326736217e-01 0.0000000000000000e+00  5.1643450889050579e-01 -8.5654436429031866e-01 0.0000000000000000e+00  5.1411394204790950e-01 -8.5845975667238483e-01 0.0000000000000000e+00  5.7423694728078856e-01 -8.1887601306172053e-01 0.0000000000000000e+00  5.8515265868544686e-01 -8.1092584190937089e-01 0.0000000000000000e+00  5.7458414201733465e-01 -8.1896429448198560e-01 0.0000000000000000e+00  6.1135944070961035e-01 -7.9126066589654420e-01 0.0000000000000000e+00  5.7249812629228114e-01 -8.2196101011451328e-01 0.0000000000000000e+00  6.8053423301370719e-01 -7.3332892863610466e-01 0.0000000000000000e+00  6.5560708266766954e-01 -7.5656487181635113e-01 0.0000000000000000e+00  4.4205037861628815e-01 -9.0740353048178679e-01 0.0000000000000000e+00  6.0893662673304505e-01 -7.9415780401259506e-01 0.0000000000000000e+00  6.7988688310852852e-01 -7.3344729656620711e-01 0.0000000000000000e+00  6.5589372291419734e-01 -7.5614283375083113e-01 0.0000000000000000e+00  7.2553190314044724e-01 -6.8802942502176434e-01 0.0000000000000000e+00  6.7724263146186447e-01 -7.4045370144441158e-01 0.0000000000000000e+00  8.2163910447493116e-01 -5.7274538908784134e-01 0.0000000000000000e+00  7.9175158397671241e-01 -6.1283082223474084e-01 0.0000000000000000e+00  5.6321447957889048e-01 -8.4725769363834902e-01 0.0000000000000000e+00  7.9971437057004591e-01 -6.0430469272032283e-01 0.0000000000000000e+00  8.5995456985866692e-01 -5.1047284193350584e-01 0.0000000000000000e+00  8.6701259123882357e-01 -4.9932463818975331e-01 0.0000000000000000e+00  9.0551218142447443e-01 -4.2594983578316659e-01 0.0000000000000000e+00  9.3445763510406066e-01 -3.5713526099958293e-01 0.0000000000000000e+00  9.5305953327383430e-01 -3.0696947132120556e-01 0.0000000000000000e+00  9.8138125151055489e-01 -2.0636963385487492e-01 0.0000000000000000e+00  1.0902003259640487e-01 -9.4393760888148115e-01 0.0000000000000000e+00  7.2218192260709446e-01 -6.9218095142644742e-01 0.0000000000000000e+00  8.0071777431237934e-01 5.9951986018206327e-01 0.0000000000000000e+00  8.5234436782687911e-02 9.3593276426999494e-01 0.0000000000000000e+00  7.2622124375024866e-01 6.8798337844179358e-01 0.0000000000000000e+00  9.5182791053186688e-01 3.0779116063692274e-01 0.0000000000000000e+00  7.9883904242054937e-01 -6.0206500952071029e-01 0.0000000000000000e+00  1.0004835721215968e+00 -8.1863368200476832e-03 0.0000000000000000e+00  9.5605496572889037e-01 -2.9437731810133272e-01 0.0000000000000000e+00  8.9259632280758849e-01 4.5155098111672126e-01 0.0000000000000000e+00  1.0003560850549580e+00 1.0473937045016294e-02 0.0000000000000000e+00  9.5643774980051077e-01 2.9420905869062508e-01 0.0000000000000000e+00  8.9439258149434997e-01 -4.4802144657211324e-01 0.0000000000000000e+00  4.1214852608154551e-01 -9.1141799917312660e-01 0.0000000000000000e+00  5.8780271628379932e-01 -8.1436953398496648e-01 0.0000000000000000e+00  3.8947106548109245e-01 9.2131964283525125e-01 0.0000000000000000e+00  9.1013995401272307e-01 4.1687915317241375e-01 0.0000000000000000e+00  1.0006128065529827e+00 -5.5331126609602290e-03 0.0000000000000000e+00  5.5242105373061001e-01 8.3391279279431940e-01 0.0000000000000000e+00  5.6308774276727158e-01 -8.2675317538917314e-01 0.0000000000000000e+00  7.6924546282880069e-01 -6.4126880347310777e-01 0.0000000000000000e+00  8.8473663450865025e-01 -4.6677947722842583e-01 0.0000000000000000e+00  8.8025384476219581e-01 4.7521473683799675e-01 0.0000000000000000e+00  8.9100933637906654e-01 -4.5548505075847884e-01 0.0000000000000000e+00  2.2559824382752100e-01 1.0419953567279190e+00 0.0000000000000000e+00  9.4061720696602591e-01 -3.4085462236931030e-01 0.0000000000000000e+00  6.5557523003329454e-01 7.5827254455722393e-01 0.0000000000000000e+00  1.0002530574071755e+00 3.8384333106245188e-03 0.0000000000000000e+00  1.0004047602277795e+00 8.2095493171054391e-03 0.0000000000000000e+00  8.2303076758555938e-01 -5.6864845206740722e-01 0.0000000000000000e+00  9.6640999521232129e-01 -2.5869885136868115e-01 0.0000000000000000e+00  9.1784944702926030e-01 -3.9843241026197351e-01 0.0000000000000000e+00  9.8047310016192213e-01 -1.9996163349366849e-01 0.0000000000000000e+00  8.0196615393196158e-01 -5.9824549091546420e-01 0.0000000000000000e+00  9.7078273277752747e-01 -2.4110224524356527e-01 0.0000000000000000e+00  1.0003483143774261e+00 2.8953304644066270e-04 0.0000000000000000e+00  9.7367910080929798e-01 -2.2943922294675070e-01 0.0000000000000000e+00  9.7189996868348538e-01 -2.3721857532179474e-01 0.0000000000000000e+00  1.0002876458507930e+00 -1.4569632377985404e-04 0.0000000000000000e+00  9.7092763587215380e-01 2.4076816384533323e-01 0.0000000000000000e+00  9.7318161359975430e-01 2.3192018175163670e-01 0.0000000000000000e+00  9.2876910893034859e-01 3.7235444586353644e-01 0.0000000000000000e+00  9.8915071198577109e-01 1.5077454691891859e-01 0.0000000000000000e+00  9.8522650894595876e-01 -1.7481650861016199e-01 0.0000000000000000e+00  9.2130142750559862e-01 -3.9046682001407096e-01 0.0000000000000000e+00  2.4850473019653543e-01 9.8187027345807976e-01 0.0000000000000000e+00  5.8205274170962928e-01 8.1388550258281200e-01 0.0000000000000000e+00  3.3721650390804581e-01 9.4162484944503566e-01 0.0000000000000000e+00  8.8823169421221604e-01 4.6221651619748655e-01 0.0000000000000000e+00  7.6769863506961900e-01 6.4158170420974847e-01 0.0000000000000000e+00  8.1018090932842457e-01 5.8723893512181369e-01 0.0000000000000000e+00  8.0633648441615979e-01 -5.9249153729479498e-01 0.0000000000000000e+00  6.4866108975109582e-01 -7.6170262872804406e-01 0.0000000000000000e+00  8.1253546443923341e-01 -5.8499868591446236e-01 0.0000000000000000e+00  4.7816697911686251e-01 -8.7901763434588354e-01 0.0000000000000000e+00  8.5770668888508661e-01 -5.1478677483481416e-01 0.0000000000000000e+00  9.4741193829701198e-01 -3.2140416146051559e-01 0.0000000000000000e+00  8.9360592955594453e-01 -4.4986683342255229e-01 0.0000000000000000e+00  8.2053651773747238e-01 -5.7234903676578341e-01 0.0000000000000000e+00  8.1016476460523523e-01 5.8695841532203563e-01 0.0000000000000000e+00  8.8575868390648782e-01 4.6514357785003735e-01 0.0000000000000000e+00  6.3494327491278335e-01 7.7277734314606672e-01 0.0000000000000000e+00  7.1493241771158833e-01 6.9948846319974067e-01 0.0000000000000000e+00  7.0139254513939886e-01 -7.1310586180199720e-01 0.0000000000000000e+00  6.2070794690081654e-01 -7.8429518349873706e-01 0.0000000000000000e+00  6.4705165102419715e-01 -7.6271387354064157e-01 0.0000000000000000e+00  5.4183059303417014e-01 -8.4067336740548582e-01 0.0000000000000000e+00  5.3186318580734493e-01 8.4704711767961249e-01 0.0000000000000000e+00  6.3380745976654662e-01 7.7380238202665541e-01 0.0000000000000000e+00  2.6350268599577304e-02 -1.4175243079773898e+00 0.0000000000000000e+00  1.9166990896157618e-01 9.8035723067061020e-01 0.0000000000000000e+00  1.8459310774863244e-01 -9.8179326661456823e-01 0.0000000000000000e+00  2.4590052245321084e-02 1.3982159620603929e+00 0.0000000000000000e+00  5.9432092408486137e-01 -8.0457435730357130e-01 0.0000000000000000e+00  9.8867679093439076e-01 1.5519102806188853e-01 0.0000000000000000e+00  9.2371586307048015e-01 3.8466687812867723e-01 0.0000000000000000e+00  8.0982498249307655e-01 5.8771224023691004e-01 0.0000000000000000e+00  8.7917119964081680e-01 4.7743680698992907e-01 0.0000000000000000e+00  9.9305941118824437e-01 1.2147571900696479e-01 0.0000000000000000e+00  9.4424924486565476e-01 3.3048977992630785e-01 0.0000000000000000e+00  7.5493086628283634e-01 6.5884214381662254e-01 0.0000000000000000e+00  -3.2746056890361828e-02 -3.1864238123155680e-01 0.0000000000000000e+00  9.9682787515584181e-01 -1.1183971015910608e-01 0.0000000000000000e+00  7.4511399187110938e-01 6.6737479992925308e-01 0.0000000000000000e+00  7.3893237661982980e-01 -6.7424820402909902e-01 0.0000000000000000e+00  8.5826349268488844e-01 5.1378868918243392e-01 0.0000000000000000e+00  9.6654664638663923e-01 2.5821000200988942e-01 0.0000000000000000e+00  8.2179695672173403e-01 5.7047304900244578e-01 0.0000000000000000e+00  9.6906981277559956e-01 2.4792214713168623e-01 0.0000000000000000e+00  6.3511397852326312e-01 7.7318183669513307e-01 0.0000000000000000e+00  5.9381637379768004e-01 8.0498934337364980e-01 0.0000000000000000e+00  1.3697927466431140e-01 -8.8931455294066952e-01 0.0000000000000000e+00  1.8269326641738945e-01 -9.8109269093221407e-01 0.0000000000000000e+00  6.3922691418740252e-01 -7.6973359335395142e-01 0.0000000000000000e+00  3.6617617718755263e-01 -9.3232480508512106e-01 0.0000000000000000e+00  3.6305465740796522e-01 -9.3219597978622581e-01 0.0000000000000000e+00  9.9840441410108915e-01 -7.2786094990211422e-02 0.0000000000000000e+00  9.2975642437980333e-03 6.8574712314500341e-01 0.0000000000000000e+00  4.1519183735971482e-01 -9.0989865164089923e-01 0.0000000000000000e+00  2.2910600829576183e-01 -9.7315079599828569e-01 0.0000000000000000e+00  2.1562422384288912e-01 9.7613281121468864e-01 0.0000000000000000e+00  3.9826673209881353e-01 9.1744542264233131e-01 0.0000000000000000e+00  1.0701512879394157e+00 2.6402455218249488e-01 0.0000000000000000e+00  3.6274055628400237e-01 9.3391863534320330e-01 0.0000000000000000e+00  1.5019036896985019e-01 1.0181243927945696e+00 0.0000000000000000e+00  3.7303064487582022e-01 9.2799374956597469e-01 0.0000000000000000e+00  5.3632671565954393e-01 8.4418499011466142e-01 0.0000000000000000e+00  7.0835984922952200e-01 7.0623882559000650e-01 0.0000000000000000e+00  5.1894187678849346e-01 -8.5501045565991707e-01 0.0000000000000000e+00  3.6371119804158292e-01 -9.3170001998842900e-01 0.0000000000000000e+00  7.0763240606257516e-01 -7.0698421733854622e-01 0.0000000000000000e+00  9.9032027279704737e-01 -1.4180565632949066e-01 0.0000000000000000e+00  8.7224267020366442e-01 -4.8990616702736356e-01 0.0000000000000000e+00  1.0009119511212499e+00 8.3667460510504759e-03 0.0000000000000000e+00  9.4434