<?xml version="1.0"?>
<VTKFile type="UnstructuredGrid"  version="0.1"  >
<UnstructuredGrid>
<Piece  NumberOfPoints="2549" NumberOfCells="4928">
<Points>
<DataArray  type="Float64"  NumberOfComponents="3"  format="ascii">2 0 0  1.996686137018095 0.05754231104100042 0  1.986882897305854 0.1143419787233611 0  1.970975633076588 0.1697461736080849 0  1.949521707683106 0.2232516020504374 0  1.92316148102163 0.2745222750136555 0  1.892542813236142 0.323373506980794 0  1.858271349552875 0.3697389590748243 0  1.820885526891715 0.4136350740557075 0  1.780849258848747 0.4551307277194839 0  1.738554874553317 0.4943245260370203 0  1.694330878507049 0.5313291997757913 0  1.648451186236745 0.5662615752889001 0  1.601144123217999 0.5992364926897525 0  1.552600433702648 0.6303633660965611 0  1.502980077905183 0.659744436395664 0  1.452417851070797 0.6874740696729748 0  1.401027953784824 0.7136386818120056 0  1.348907720609051 0.7383169985313379 0  1.29614058371176 0.7615805254953902 0  1.242798492047359 0.7834940823268561 0  1.188943861023348 0.8041163621228731 0  1.134631154358537 0.8235004771642536 0  1.079908172939354 0.8416944721837589 0  1.024817109964837 0.8587417963397553 0  0.9693954136298085 0.8746817324080646 0  0.9136765221153764 0.8895497755796398 0  0.8576904445844472 0.9033779803145155 0  0.801464266694953 0.9161952615587904 0  0.7450225714102614 0.9280276623152515 0  0.6883877952988928 0.9388985892101885 0  0.6315805321092666 0.9488290192996544 0  0.5746197931158087 0.9578376811025375 0  0.5175232373657314 0.9659412118222429 0  0.4603073510223729 0.9731542969378965 0  0.4029876351072817 0.9794897863110468 0  0.3455787518345055 0.9849587968895583 0  0.2880946601251717 0.9895707992366389 0  0.2305487379218517 0.993333690086398 0  0.1729538938792191 0.9962538520116265 0  0.115322670663361 0.998336201090478 0  0.05766733915096163 0.9995842233142798 0  -1.322274611685462e-09 1 0  -0.05766734179523565 0.9995842232761419 0  -0.1153226733068079 0.9983362010141388 0  -0.1729538991952786 0.996253851780904 0  -0.2305487459060017 0.9933336896231258 0  -0.2880946707711053 0.9895707984617989 0  -0.3455787651340506 0.9849587957230019 0  -0.4029876510566202 0.9794897846705534 0  -0.4603073696092293 0.9731542947399749 0  -0.5175232585755485 0.9659412089813419 0  -0.5746198169315506 0.9578376775306909 0  -0.6315805531144443 0.9488290158041717 0  -0.6883878135015997 0.9388985858736937 0  -0.745022586820829 0.9280276592223424 0  -0.8014642793262121 0.9161952587964145 0  -0.8576904516640802 0.9033779786341188 0  -0.9136765236872437 0.8895497751760147 0  -0.9693954097454738 0.8746817334843007 0  -1.02481710068483 0.8587417991084308 0  -1.07990816384232 0.8416944751016707 0  -1.134631145449371 0.8235004802330488 0  -1.188943852307292 0.8041163653447019 0  -1.242798483530528 0.7834940857042606 0  -1.296140602082296 0.7615805176791459 0  -1.348907765262195 0.7383169781359747 0  -1.401028023999701 0.7136386473502353 0  -1.452417945986507 0.6874740195411637 0  -1.502980204542554 0.659744364271727 0  -1.55260059049229 0.6303632695523657 0  -1.601144308255775 0.5992363690857174 0  -1.648451397199867 0.566261421754521 0  -1.694331058738459 0.5313290560928818 0  -1.738555024805723 0.4943243939263901 0  -1.780849380123489 0.4551306090875966 0  -1.820885620520759 0.4136349710133106 0  -1.858271414561462 0.3697388773931348 0  -1.892542852486391 0.3233734495527862 0  -1.923161498240549 0.2745222448569359 0  -1.949521707638369 0.2232516021481025 0  -1.970975633050448 0.1697461736839625 0  -1.986882897293919 0.1143419787752093 0  -1.99668613701505 0.05754231106741577 0  -2 -2.119381739288827e-14 0  -1.996686137015017 -0.05754231106770592 0  -1.986882897293798 -0.114341978775735 0  -1.970975633050334 -0.1697461736842945 0  -1.949521707638351 -0.2232516021481412 0  -1.923161498240437 -0.2745222448571329 0  -1.892542852486365 -0.3233734495528243 0  -1.858271414561291 -0.36973887739335 0  -1.820885620520727 -0.4136349710133463 0  -1.780849380123318 -0.4551306090877636 0  -1.738555024805688 -0.4943243939264208 0  -1.69433105873832 -0.5313290560929934 0  -1.648451397199832 -0.5662614217545467 0  -1.601144308255667 -0.5992363690857894 0  -1.552600590492252 -0.6303632695523889 0  -1.50298020454247 -0.659744364271775 0  -1.452417945986467 -0.6874740195411845 0  -1.40102802399929 -0.713638647350437 0  -1.348907765261459 -0.7383169781363109 0  -1.296140602081886 -0.7615805176793204 0  -1.242798483530485 -0.7834940857042775 0  -1.188943852307122 -0.8041163653447646 0  -1.134631145449091 -0.8235004802331454 0  -1.079908163842153 -0.8416944751017243 0  -1.02481710068479 -0.8587417991084427 0  -0.9693954097453934 -0.874681733484323 0  -0.9136765236871304 -0.8895497751760438 0  -0.8576904516640044 -0.9033779786341368 0  -0.8014642793261747 -0.9161952587964226 0  -0.7450225868207132 -0.9280276592223656 0  -0.688387813501408 -0.9388985858737288 0  -0.6315805531141928 -0.9488290158042135 0  -0.574619816931241 -0.9578376775307373 0  -0.5175232585753057 -0.9659412089813745 0  -0.4603073696090547 -0.9731542947399956 0  -0.4029876510565167 -0.979489784670564 0  -0.3455787651340186 -0.9849587957230047 0  -0.2880946707710729 -0.9895707984618012 0  -0.2305487459059683 -0.9933336896231277 0  -0.1729538991952446 -0.9962538517809054 0  -0.1153226733067752 -0.9983362010141397 0  -0.05766734179520062 -0.9995842232761424 0  -1.322240462585813e-09 -1 0  0.05766733915099533 -0.9995842233142793 0  0.1153226706633956 -0.998336201090477 0  0.1729538938792597 -0.9962538520116249 0  0.2305487379218985 -0.9933336900863954 0  0.2880946601252248 -0.9895707992366352 0  0.3455787518345641 -0.9849587968895532 0  0.4029876351073326 -0.9794897863110416 0  0.4603073510224157 -0.9731542969378913 0  0.5175232373657652 -0.9659412118222385 0  0.5746197931158308 -0.9578376811025342 0  0.6315805321096187 -0.9488290192995957 0  0.6883877952995736 -0.9388985892100637 0  0.7450225714112517 -0.9280276623150527 0  0.8014642666962468 -0.9161952615585074 0  0.857690444585461 -0.903377980314275 0  0.9136765221161084 -0.8895497755794518 0  0.9693954136301919 -0.8746817324079583 0  1.02481710996487 -0.8587417963397453 0  1.079908172939512 -0.8416944721837082 0  1.134631154358807 -0.8235004771641605 0  1.188943861023504 -0.8041163621228153 0  1.242798492047385 -0.7834940823268459 0  1.296140583712152 -0.7615805254952235 0  1.348907720609768 -0.7383169985310102 0  1.401027953785216 -0.7136386818118133 0  1.452417851070815 -0.6874740696729649 0  1.502980077905247 -0.6597444363956275 0  1.552600433702669 -0.6303633660965483 0  1.601144123218091 -0.5992364926896914 0  1.648451186236767 -0.5662615752888848 0  1.694330878507175 -0.5313291997756912 0  1.738554874553337 -0.4943245260370026 0  1.780849258848903 -0.4551307277193312 0  1.820885526891733 -0.4136350740556869 0  1.858271349553032 -0.3697389590746263 0  1.892542813236154 -0.3233735069807763 0  1.923161481021729 -0.2745222750134805 0  1.949521707683112 -0.223251602050424 0  1.970975633076692 -0.1697461736077827 0  1.986882897305967 -0.11434197872287 0  1.996686137018124 -0.05754231104074863 0  -0.1152904195579733 0.6070198455084121 0  0.7139314807447402 -0.5185554509125195 0  -0.9021804071087454 -0.4712698952622889 0  -0.08853261806707058 -0.5931971952512098 0  0.7139314807447157 0.5185554509125249 0  1.417801984821762 0.2291367688541014 0  -0.9202096744148912 0.4669291729068617 0  -1.545989679638069 -0.002355595176244116 0  1.419175259971926 -0.2295798938383525 0  -1.262514497274744 -0.369291382563445 0  -1.008975443817403 -0.0113108633010534 0  -0.6062327478577832 -0.13746405873719 0  -1.281728968624498 0.3515475904410956 0  0.3284986955774252 -0.5906094157356263 0  0.1737280740022324 -0.1722626988402368 0  0.2893086492827969 0.5872833258737034 0  0.428425950012378 0.185265744956867 0  0.8258750024497795 0.002678618671304442 0  -0.4906311993153011 -0.5380519337330318 0  -0.5319151236343942 0.5610340701502295 0  -0.3492448427637153 0.2242372176230919 0  1.101084670418347 -0.3819430866711396 0  1.10085579138347 0.3827620940547057 0  0.5114738231755741 -0.2037878442320408 0  0.0378548298353058 0.2177192870939484 0  -0.68351177520046 0.1879874044068832 0  -0.2205094860969659 -0.1665034527494929 0  1.17295745818125 0.0006108973493657318 0  1.665541930433108 -2.306912664895724e-05 0  0.907508075581543 -0.4502492687918292 0  0.9634798364340638 -0.1896322339999175 0  0.7699032415972596 -0.2579384161206076 0  0.6686744128126767 -0.100554612780368 0  0.6127026519601571 -0.36117164757228 0  1.137021064299799 -0.190666094660887 0  0.9994162303155147 0.001644758010335187 0  -1.145352206220951 0.1701183635700213 0  -1.413859324131283 0.1745959976324259 0  -1.277482561727735 -0.006833229238648594 0  -1.135744970546073 -0.1903011229322492 0  -1.404252088456406 -0.1858234888698444 0  -1.597220538418949 -0.2843085084653953 0  -1.747755693638209 -0.1128035986621925 0  -1.747755693638219 0.1104480034859294 0  -1.597220538418967 0.2819529132891387 0  -0.154521052082018 -0.3798503240003511 0  -0.3555703427061332 -0.3522776932412622 0  -0.2895819086911859 -0.5656245644921211 0  -0.4133711169773747 -0.1519837557433414 0  -0.5484319735865418 -0.3377579962351108 0  -1.455482947237287 -0.4677764021589958 0  -1.465090182912182 0.4589045060978081 0  0.4199862593764998 -0.3971986299838336 0  0.3426009485889036 -0.1880252715361387 0  0.2511133847898288 -0.3814360572879312 0  -1.100969321519695 0.4092383816739789 0  -0.9645925591161468 0.2278091548029043 0  1.62003039343183 -0.3216074839470194 0  1.43579655552137 -0.4585269817556586 0  1.435109917946279 0.4583054192635382 0  1.619343755856739 0.3213859214549047 0  -0.85182234321746 -0.6937325770293555 0  -1.072489445319615 -0.627381990483283 0  -1.081504078972709 0.6252116293055613 0  -0.8608369768705514 0.6915622158516382 0  0.8693742953548055 -0.6886486236261325 0  0.6442756369302858 -0.738196566007527 0  0.644275636930262 0.7381965660075314 0  0.8693742953547762 0.6886486236261405 0  0.01339502629816219 -0.7957666981708436 0  -0.2170556
[...]
<PointData  Vectors="f_499"> 
<DataArray  type="Float64"  Name="f_499"  NumberOfComponents="3" format="ascii">8.2870498885219482e-02 -7.8639138538658419e-04 0.0000000000000000e+00  7.8097650214664027e-02 1.1071311954358702e-02 0.0000000000000000e+00  1.7519503631725308e-01 5.0072359197504031e-02 0.0000000000000000e+00  2.3535149333355238e-01 9.2762911633391870e-02 0.0000000000000000e+00  2.8488688264951023e-01 1.4433455711900339e-01 0.0000000000000000e+00  3.0532788180217957e-01 1.8920505243779165e-01 0.0000000000000000e+00  3.1379693930950414e-01 2.2945963283233917e-01 0.0000000000000000e+00  2.8950458603864565e-01 2.4736337445139406e-01 0.0000000000000000e+00  2.9862432290499941e-01 2.8924068210053944e-01 0.0000000000000000e+00  3.7733855941836780e-01 4.1264499715853903e-01 0.0000000000000000e+00  3.3093104842399035e-01 3.9754242283030028e-01 0.0000000000000000e+00  3.0786121091448398e-01 4.0835351320606567e-01 0.0000000000000000e+00  2.7279419802731580e-01 3.9601499507732463e-01 0.0000000000000000e+00  2.4094278294764171e-01 3.8141529408965086e-01 0.0000000000000000e+00  2.1364407210301525e-01 3.6727381296720818e-01 0.0000000000000000e+00  1.8393698131883829e-01 3.4322111191773153e-01 0.0000000000000000e+00  1.6377611801914702e-01 3.2902285483806870e-01 0.0000000000000000e+00  1.7815865445396292e-01 3.8866281405883657e-01 0.0000000000000000e+00  1.4968053918103749e-01 3.5008814975059399e-01 0.0000000000000000e+00  1.3486729366256786e-01 3.3984773767693072e-01 0.0000000000000000e+00  1.1727409630468771e-01 3.1780939522528001e-01 0.0000000000000000e+00  1.0235653829568339e-01 2.9841847675873157e-01 0.0000000000000000e+00  8.8266560308310690e-02 2.7713131064265967e-01 0.0000000000000000e+00  7.5407825741234849e-02 2.5520727371719493e-01 0.0000000000000000e+00  5.8799074303186198e-02 2.1452908614883953e-01 0.0000000000000000e+00  5.0907467960178809e-02 2.0130525107870795e-01 0.0000000000000000e+00  4.2141567933051058e-02 1.8071933411364896e-01 0.0000000000000000e+00  3.4393746367776340e-02 1.6057730958305275e-01 0.0000000000000000e+00  2.7481762462619280e-02 1.4028019724057134e-01 0.0000000000000000e+00  2.1297913627182533e-02 1.1946116597970924e-01 0.0000000000000000e+00  1.5915649053950452e-02 9.8764476584214611e-02 0.0000000000000000e+00  1.1114051867072452e-02 7.7267695844529499e-02 0.0000000000000000e+00  7.0322326330933289e-03 5.5162472791773658e-02 0.0000000000000000e+00  4.3291636364761335e-03 3.9942508430723431e-02 0.0000000000000000e+00  1.6315686008749786e-03 1.9187195595858426e-02 0.0000000000000000e+00  -2.0021021844645866e-04 1.6165099007965961e-03 0.0000000000000000e+00  -1.4641795075503617e-03 -1.5189652421907864e-02 0.0000000000000000e+00  -2.1640482398894924e-03 -3.0245406566217183e-02 0.0000000000000000e+00  -2.3473028483657786e-03 -4.3105888339137081e-02 0.0000000000000000e+00  -2.1826619689524996e-03 -5.4402062441493849e-02 0.0000000000000000e+00  -1.6149574018598405e-03 -6.1266334511257417e-02 0.0000000000000000e+00  -9.0991810210925411e-04 -6.4814698738875645e-02 0.0000000000000000e+00  1.0493733717183070e-05 -6.8232747422910564e-02 0.0000000000000000e+00  9.4496748090845532e-04 -6.7363386221193616e-02 0.0000000000000000e+00  1.8109380557955941e-03 -6.3940438931305549e-02 0.0000000000000000e+00  2.4793059045818190e-03 -5.7405345842682622e-02 0.0000000000000000e+00  2.8622191994671091e-03 -4.8642825984384325e-02 0.0000000000000000e+00  2.7924596327360256e-03 -3.5909610198862400e-02 0.0000000000000000e+00  2.4004654886181555e-03 -2.5020813329855431e-02 0.0000000000000000e+00  1.3595376073527237e-03 -8.8031694877985685e-03 0.0000000000000000e+00  -3.7347080518590405e-04 9.1503442725479472e-03 0.0000000000000000e+00  -2.6456009426713443e-03 2.7495581941590453e-02 0.0000000000000000e+00  -5.5963848943808014e-03 4.6646195439855598e-02 0.0000000000000000e+00  -9.2845060319523276e-03 6.6644219425942355e-02 0.0000000000000000e+00  -1.3477713302390257e-02 8.5465876830095641e-02 0.0000000000000000e+00  -1.9280089805084156e-02 1.0984512648052969e-01 0.0000000000000000e+00  -2.2803247566944514e-02 1.1699079228347693e-01 0.0000000000000000e+00  -3.0714131528553422e-02 1.4449254329444788e-01 0.0000000000000000e+00  -3.8828407497361481e-02 1.6710530538475624e-01 0.0000000000000000e+00  -4.7408659562790646e-02 1.8789782501077748e-01 0.0000000000000000e+00  -5.6669873790309105e-02 2.0744609710331188e-01 0.0000000000000000e+00  -6.7577074837375725e-02 2.2910732259369287e-01 0.0000000000000000e+00  -7.6781242674493017e-02 2.4108229994805180e-01 0.0000000000000000e+00  -9.4879320492594107e-02 2.7764811983776166e-01 0.0000000000000000e+00  -8.8079236573310002e-02 2.3785244207291090e-01 0.0000000000000000e+00  -9.3548008659868384e-02 2.3593265311648615e-01 0.0000000000000000e+00  -1.1060185698782828e-01 2.5813342836263747e-01 0.0000000000000000e+00  -1.2572480682691203e-01 2.7245044083227077e-01 0.0000000000000000e+00  -1.4542704856354433e-01 2.9240200420092199e-01 0.0000000000000000e+00  -1.6234455914305454e-01 3.0165604848399280e-01 0.0000000000000000e+00  -1.9333817522448768e-01 3.3319004082093245e-01 0.0000000000000000e+00  -1.8678762522564241e-01 2.9155582489789650e-01 0.0000000000000000e+00  -3.0693548481343674e-01 4.4361889247602021e-01 0.0000000000000000e+00  -4.7005866378339145e-01 6.2003855090952709e-01 0.0000000000000000e+00  -4.8819525879121972e-01 5.9052770040496128e-01 0.0000000000000000e+00  -5.3227603909082943e-01 5.7809740618739835e-01 0.0000000000000000e+00  -5.5343924749505391e-01 5.3628735702183927e-01 0.0000000000000000e+00  -5.8191915431971419e-01 4.9739591561573648e-01 0.0000000000000000e+00  -5.3716497375793038e-01 3.9497367498228492e-01 0.0000000000000000e+00  -5.7777640584598700e-01 3.7375638440976966e-01 0.0000000000000000e+00  -1.9195592831212258e-01 1.0939954070057238e-01 0.0000000000000000e+00  1.2372342453715294e-02 1.3643429134742990e-02 0.0000000000000000e+00  -1.1683868776264544e-01 3.2172227745874457e-02 0.0000000000000000e+00  -5.0428023831064359e-02 1.2281271964154858e-02 0.0000000000000000e+00  -6.9611338436627854e-02 -9.1900405635944523e-05 0.0000000000000000e+00  -4.8942594654578335e-02 -1.2694335025442339e-02 0.0000000000000000e+00  -1.1996524803236217e-01 -3.2728099539375125e-02 0.0000000000000000e+00  2.4670873336287289e-02 -1.0340362844208020e-02 0.0000000000000000e+00  -2.0347605093187832e-01 -1.1629459195602034e-01 0.0000000000000000e+00  -6.2615762774928152e-01 -4.0424919744311533e-01 0.0000000000000000e+00  -5.7246392533045176e-01 -4.1981410761837157e-01 0.0000000000000000e+00  -6.1843055412937775e-01 -5.2764679331998032e-01 0.0000000000000000e+00  -5.8438932024109536e-01 -5.6525858626734682e-01 0.0000000000000000e+00  -5.5980508436708454e-01 -6.0702765291698035e-01 0.0000000000000000e+00  -5.1186103246881021e-01 -6.1821788455919979e-01 0.0000000000000000e+00  -4.9272602001192284e-01 -6.4891111177277871e-01 0.0000000000000000e+00  -3.2628749123442496e-01 -4.7068308296401784e-01 0.0000000000000000e+00  -1.8587377564370441e-01 -2.8889235000552671e-01 0.0000000000000000e+00  -1.9474372000391554e-01 -3.3507030653541131e-01 0.0000000000000000e+00  -1.6114092756741710e-01 -2.9876288229621856e-01 0.0000000000000000e+00  -1.4406058933859914e-01 -2.8904279961512708e-01 0.0000000000000000e+00  -1.2348739769268285e-01 -2.6703100935734281e-01 0.0000000000000000e+00  -1.0848405469085359e-01 -2.5257466474089879e-01 0.0000000000000000e+00  -9.0829647975594022e-02 -2.2872348033061080e-01 0.0000000000000000e+00  -8.9462251786713062e-02 -2.4113999296013691e-01 0.0000000000000000e+00  -1.0124515682692127e-01 -2.9568866899908575e-01 0.0000000000000000e+00  -8.0845035052585501e-02 -2.5301621173397981e-01 0.0000000000000000e+00  -7.1504261993816279e-02 -2.4159957599504656e-01 0.0000000000000000e+00  -5.9794198029869398e-02 -2.1796196119444772e-01 0.0000000000000000e+00  -4.9837654542193278e-02 -1.9665970736073660e-01 0.0000000000000000e+00  -4.0997109039523728e-02 -1.7549157821017472e-01 0.0000000000000000e+00  -3.2362779176379995e-02 -1.5146971061003459e-01 0.0000000000000000e+00  -2.8000052306019620e-02 -1.4239400704391356e-01 0.0000000000000000e+00  -2.5909649403802731e-02 -1.4601563631692349e-01 0.0000000000000000e+00  -1.7882039284470304e-02 -1.1136471045019006e-01 0.0000000000000000e+00  -1.2987442394049377e-02 -9.0709912953857053e-02 0.0000000000000000e+00  -8.2270387764630144e-03 -6.5344890036114031e-02 0.0000000000000000e+00  -4.4919933270824676e-03 -4.1980491732871841e-02 0.0000000000000000e+00  -1.5570145596455773e-03 -1.9242996387880643e-02 0.0000000000000000e+00  7.9670868973816830e-04 3.5856147572784955e-03 0.0000000000000000e+00  2.2387774410660395e-03 2.4348862825862860e-02 0.0000000000000000e+00  2.8406232037572346e-03 3.7342610626067044e-02 0.0000000000000000e+00  3.0282086719267800e-03 5.3027401901496810e-02 0.0000000000000000e+00  2.6579707206432633e-03 6.3603161890704224e-02 0.0000000000000000e+00  1.9363999136780001e-03 7.1563307778356455e-02 0.0000000000000000e+00  9.7372487703087254e-04 7.5920130759497592e-02 0.0000000000000000e+00  -8.9032804661800933e-05 7.7144849728740292e-02 0.0000000000000000e+00  -1.1243396113288534e-03 7.4287698939091429e-02 0.0000000000000000e+00  -1.9871374093429917e-03 6.9938050570342317e-02 0.0000000000000000e+00  -2.6062773686406594e-03 6.1878649003469691e-02 0.0000000000000000e+00  -2.9281344054601310e-03 5.0965897447204214e-02 0.0000000000000000e+00  -2.7920511568235613e-03 3.7347188318494526e-02 0.0000000000000000e+00  -2.1344857771072767e-03 2.1703132846705688e-02 0.0000000000000000e+00  -8.6852103585562958e-04 4.0534979556495947e-03 0.0000000000000000e+00  9.5602000984244546e-04 -1.3892909498754510e-02 0.0000000000000000e+00  3.8729738419700887e-03 -3.7068651689095185e-02 0.0000000000000000e+00  6.1706689190072486e-03 -4.8557195725262493e-02 0.0000000000000000e+00  1.0876099436078934e-02 -7.5625500334049023e-02 0.0000000000000000e+00  1.6143282040062667e-02 -9.9767028703757560e-02 0.0000000000000000e+00  2.1899153787225997e-02 -1.2232153686343211e-01 0.0000000000000000e+00  2.8481458790632963e-02 -1.4480606138146868e-01 0.0000000000000000e+00  3.5817835634484124e-02 -1.6660360323334431e-01 0.0000000000000000e+00  4.4064189165855042e-02 -1.8832679212337183e-01 0.0000000000000000e+00  5.3263570809415892e-02 -2.0995989327237685e-01 0.0000000000000000e+00  6.1918778648713854e-02 -2.2526200103210997e-01 0.0000000000000000e+00  7.9684928091885182e-02 -2.6892075587085945e-01 0.0000000000000000e+00  9.3188379964601886e-02 -2.9190960138075867e-01 0.0000000000000000e+00  1.0811199452552608e-01 -3.1453123700936619e-01 0.0000000000000000e+00  1.2386431578003977e-01 -3.3502584987468886e-01 0.0000000000000000e+00  1.4246080644364864e-01 -3.5836790413621250e-01 0.0000000000000000e+00  1.5793419899830605e-01 -3.6880345310341439e-01 0.0000000000000000e+00  1.8818072642901920e-01 -4.0999737273967524e-01 0.0000000000000000e+00  1.7198525556280286e-01 -3.4513533356987369e-01 0.0000000000000000e+00  1.9185513693579448e-01 -3.5755287267872232e-01 0.0000000000000000e+00  2.2299370714089808e-01 -3.8286582116122519e-01 0.0000000000000000e+00  2.5149801367254743e-01 -3.9764163057159424e-01 0.0000000000000000e+00  2.8512521165527310e-01 -4.1340985518639367e-01 0.0000000000000000e+00  3.2211218773555178e-01 -4.2674258466329257e-01 0.0000000000000000e+00  3.4659600674735802e-01 -4.1583696502626250e-01 0.0000000000000000e+00  3.9613078758595971e-01 -4.3265338133724629e-01 0.0000000000000000e+00  3.1385075064832318e-01 -3.0354129101195770e-01 0.0000000000000000e+00  3.0589557835088582e-01 -2.6079601224473792e-01 0.0000000000000000e+00  3.3336767116171762e-01 -2.4317941721707176e-01 0.0000000000000000e+00  3.2718099678801449e-01 -2.0208176911754433e-01 0.0000000000000000e+00  3.0893523393579747e-01 -1.5575913067870470e-01 0.0000000000000000e+00  2.6156962387727256e-01 -1.0248006740731840e-01 0.0000000000000000e+00  1.9723007810632193e-01 -5.5482632429115088e-02 0.0000000000000000e+00  1.0780560335200731e-01 -1.6238012087844794e-02 0.0000000000000000e+00  7.6097980564502032e-06 3.1676417194649120e-06 0.0000000000000000e+00  -3.1456578059748091e-05 -1.1132884457984688e-04 0.0000000000000000e+00  1.4888210324049677e-05 -1.2768679581913581e-04 0.0000000000000000e+00  5.4093499953919097e-06 -1.1060145762405366e-06 0.0000000000000000e+00  -2.7545271336687075e-05 1.0741910092827521e-04 0.0000000000000000e+00  2.0391719781624496e-06 9.3408662677605726e-05 0.0000000000000000e+00  8.4719005640484106e-06 1.1566477932482048e-04 0.0000000000000000e+00  -8.3514071450155390e-06 4.2715233141083289e-07 0.0000000000000000e+00  1.8509632426625712e-06 -9.4616776438297015e-05 0.0000000000000000e+00  -3.5439027456890640e-06 -1.2914266797855317e-04 0.0000000000000000e+00  1.0139638555736817e-05 7.1577534709553730e-07 0.0000000000000000e+00  2.1289718520408203e-05 -6.5322241122054597e-05 0.0000000000000000e+00  3.8421522102652199e-09 1.3085418977393888e-04 0.0000000000000000e+00  -4.5720713931871442e-05 -3.9855663680873812e-05 0.0000000000000000e+00  -5.5681217952554412e-05 -1.1494901500724131e-04 0.0000000000000000e+00  -4.7502499100125466e-05 3.7345762252812589e-05 0.0000000000000000e+00  -3.8422663587574571e-05 3.5799348838657817e-05 0.0000000000000000e+00  -1.5180831439823078e-05 -1.5329186746035480e-05 0.0000000000000000e+00  3.5200286480544597e-05 -7.0114211809565167e-05 0.0000000000000000e+00  2.6915307613483320e-05 7.0536722782831121e-05 0.0000000000000000e+00  2.4974924948439111e-06 -6.7209960243515005e-06 0.0000000000000000e+00  -2.7652861988113726e-06 -1.4354174988173043e-04 0.0000000000000000e+00  6.6032373379349947e-08 1.4153729309107703e-04 0.0000000000000000e+00  -5.4746704729215475e-05 -6.3989339743031153e-05 0.0000000000000000e+00  -1.5324598350728455e-04 1.9224814981626216e-05 0.0000000000000000e+00  1.9540729749462077e-05 3.7937175960582760e-05 0.0000000000000000e+00  7.4481632635036961e-05 -5.8882309174317830e-05 0.0000000000000000e+00  -1.8384291484895390e-05 -4.6455047485690119e-06 0.0000000000000000e+00  1.6361917093879247e-05 1.6545917323646539e-06 0.0000000000000000e+00  -1.2696311602430668e-05 -1.3237339604047678e-04 0.0000000000000000e+00  3.8311743217204542e-07 -1.5088157778573729e-04 0.0000000000000000e+00  -3.5279195247979472e-06 -7.9962917604355744e-05 0.0000000000000000e+00  -4.8862590231149838e-05 -1.5023503136196421e-04 0.0000000000000000e+00  -3.0674227496861056e-05 -3.7445428873660575e-05 0.0000000000000000e+00  -6.5992743670503963e-06 -4.1706331736057458e-05 0.0000000000000000e+00  -2.3778799880427425e-07 -4.4458294577975606e-06 0.0000000000000000e+00  -3.6966830293094083e-06 1.2122099234566225e-04 0.0000000000000000e+00  1.4531867948796006e-05 2.0608242250162425e-04 0.0000000000000000e+00  2.8292622485695225e-07 -1.1908952955118200e-05 0.0000000000000000e+00  -5.6472717169340093e-07 -1.1466084488241551e-04 0.0000000000000000e+00  1.2891733506319739e-05 -2.0527438357215941e-04 0.0000000000000000e+00  -1.2947974569953272e-05 -1.7790815447845044e-04 0.0000000000000000e+00  -1.1350381166003144e-05 -1.6403836040532638e-04 0.0000000000000000e+00  -2.0874669070087870e-05 1.7501216805261945e-04 0.0000000000000000e+00  -1.5388664807039709e-05 1.6959189395573292e-04 0.0000000000000000e+00  2.2304018567915823e-05 -7.6239069010954042e-06 0.0000000000000000e+00  2.3291560334705831e-05 -3.8882355947532284e-05 0.0000000000000000e+00  3.1302536479994034e-05 -2.9630307603337495e-05 0.0000000000000000e+00  1.6392379119633068e-05 -5.2291140528487113e-05 0.0000000000000000e+00  2.4669210286884508e-05 -6.0611394797293808e-05 0.0000000000000000e+00  -5.2048834571034690e-05 -2.5673862521915982e-04 0.0000000000000000e+00  -4.7672047909905549e-05 2.3793381237570275e-04 0.0000000000000000e+00  -4.6810201818822505e-05 -5.6822693560628084e-05 0.0000000000000000e+00  -5.5397436843845817e-05 -8.2566496989175029e-05 0.0000000000000000e+00  -3.0162350138136611e-05 -3.3626578558853718e-05 0.0000000000000000e+00  -3.1676285664813676e-06 1.1870604152459637e-04 0.0000000000000000e+00  -6.7316738217507838e-06 6.9683808234289652e-05 0.0000000000000000e+00  1.1682531973466933e-05 -1.7378351848034232e-04 0.0000000000000000e+00  2.3209751582809878e-05 -1.9677616641255248e-04 0.0000000000000000e+00  2.4712243122760724e-05 1.9688178442765834e-04 0.0000000000000000e+00  1.4833720582769382e-05 1.7598297386467687e-04 0.0000000000000000e+00  1.6544564177240308e-05 -1.7252375904046912e-04 0.0000000000000000e+00  4.8366357776506112e-06 -1.6755034496363392e-04 0.0000000000000000e+00  -6.0257922117611410e-07 1.7779852356761145e-04 0.0000000000000000e+00  1.1255944458374463e-05 1.6901862285309169e-04 0.0000000000000000e+00  -1.8216443707174833e-05 -1.7502736935784814e-04 0.0000000000000000e+00  -3.3704116867339768e-05 -1.2310129557233557e-04 0.0000000000000000e+00  -3.3012719602275813e-05 1.3211016763556223e-04 0.0000000000000000e+00  -1.4456771383909695e-05 1.7706697674512475e-04 0.0000000000000000e+00  -2.8674293988885282e-06 8.3630035802780022e-07 0.0000000000000000e+00  2.4087094282660307e-05 -2.0718285105061467e-05 0.0000000000000000e+00  2.3133480447233671e-05 2.4080329046024057e-05 0.0000000000000000e+00  -2.1996555124298767e-06 -9.9315914414143682e-07 0.0000000000000000e+00  -4.0409211075700740e-05 -7.6100146759574511e-05 0.0000000000000000e+00  -3.4119470684977122e-05 1.6226987034349675e-04 0.0000000000000000e+00  2.5934897898693954e-06 7.1746865502069510e-05 0.0000000000000000e+00  -2.4202347715927689e-05 3.0152552024263952e-06 0.0000000000000000e+00  1.5366275729579822e-05 -6.1470278250222850e-05 0.0000000000000000e+00  2.0753970924618329e-05 -1.1056666535135890e-04 0.0000000000000000e+00  2.7487752792211193e-06 -8.1709716957078192e-05 0.0000000000000000e+00  -9.3642353841999655e-06 1.0913286976906033e-05 0.0000000000000000e+00  -1.2770560202059668e-02 1.8582256100932198e-02 0.0000000000000000e+00  -3.8383553375628755e-05 -2.0838299586737816e-05 0.0000000000000000e+00  -1.2993009719030908e-05 -1.9415580430734664e-04 0.0000000000000000e+00  -1.6375707131634828e-05 1.9808882725840931e-04 0.0000000000000000e+00  1.4243070536907470e-06 -1.2285909492397529e-04 0.0000000000000000e+00  4.8717340963214790e-06 1.3836156827065808e-04 0.0000000000000000e+00  -6.6913252185402092e-06 1.2202451663482350e-04 0.0000000000000000e+00  -6.4568120609568972e-06 3.0111177536278847e-05 0.0000000000000000e+00  -3.8308140835743051e-05 4.5081933497379857e-05 0.0000000000000000e+00  -4.1566780628500116e-05 8.0771279226079070e-05 0.0000000000000000e+00  -6.1587363627553353e-05 5.9378704011010146e-06 0.0000000000000000e+00  -3.2802972428857004e-05 -7.7988012799342992e-06 0.0000000000000000e+00  1.0313142747271734e-05 3.0915398187347933e-05 0.0000000000000000e+00  1.0537599761702133e-05 5.7999215966275338e-06 0.0000000000000000e+00  2.8126017282325996e-05 3.4798763365145104e-05 0.0000000000000000e+00  -2.4269337859297418e-05 -8.6041301857604151e-05 0.0000000000000000e+00  -1.1084827960957018e-04 3.4106196639388693e-05 0.0000000000000000e+00  -3.8884464125370883e-05 -7.0581824001341478e-05 0.0000000000000000e+00  -3.0807101390574977e-05 -2.2004740332004849e-05 0.0000000000000000e+00  -3.0081019191361105e-05 1.8962700638476692e-05 0.0000000000000000e+00  -4.1376407264175500e-05 7.4648197635969284e-05 0.0000000000000000e+00  -5.9578041810149545e-03 -3.8657244683501090e-04 0.0000000000000000e+00  -4.9580628970444273e-05 1.6099464431176103e-05 0.0000000000000000e+00  -2.6997667676129187e-05 2.1099361437485148e-06 0.0000000000000000e+00  3.7987151461333127e-05 -7.2479177884691076e-05 0.0000000000000000e+00  3.2646693093114042e-05 -1.2443601132157241e-04 0.0000000000000000e+00  2.6811899856093297e-05 -1.0819096129256696e-04 0.0000000000000000e+00  2.5265264787538043e-05 1.2901460342712630e-04 0.0000000000000000e+00  3.3202913176375932e-05 7.7537270467863234e-05 0.0000000000000000e+00  1.7255993116539807e-05 1.0333689397688968e-04 0.0000000000000000e+00  1.7707109866822750e-05 8.9059978836882319e-05 0.0000000000000000e+00  1.3