<?xml version="1.0"?>
<VTKFile type="UnstructuredGrid"  version="0.1"  >
<UnstructuredGrid>
<Piece  NumberOfPoints="2549" NumberOfCells="4928">
<Points>
<DataArray  type="Float64"  NumberOfComponents="3"  format="ascii">1.826628011340194 0.0100575475002409 0  1.823135000265728 0.05644548717862849 0  1.808311387533298 0.09836827340630702 0  1.794374680468875 0.1405924617923867 0  1.775238225291221 0.1805919223205764 0  1.754600722811564 0.2202017332171663 0  1.72991629808953 0.2578971287312279 0  1.705561241460526 0.29637981975479 0  1.670381447758591 0.3281516463499278 0  1.637901727065702 0.351262129209719 0  1.613380988937464 0.3928660200378405 0  1.579556460076418 0.4239313898709761 0  1.546693465735438 0.4573560056125953 0  1.511598347338283 0.4888295594136551 0  1.475392492911507 0.5193213132069064 0  1.438692677306982 0.5509665676920789 0  1.396143303276453 0.5756356035656803 0  1.358408440753897 0.5958410345493996 0  1.321989146108169 0.6320205110037731 0  1.281189253790137 0.659494607652736 0  1.24036429604343 0.6892057388089283 0  1.198156710497378 0.7176523371771615 0  1.15515565176094 0.7461940421608604 0  1.11131249545737 0.7754474106536915 0  1.064849990081697 0.8035507522378681 0  1.018358258080917 0.8278724684022571 0  0.9712686735976157 0.8556530158113096 0  0.9225640332528287 0.8827054156445658 0  0.8724991711960045 0.9094255190718389 0  0.8209932583055999 0.9356734353364616 0  0.7680003494328508 0.9612534052663736 0  0.7135086906743019 0.986455874586136 0  0.6569646076065137 1.009947143681228 0  0.5995565806881394 1.031908368690805 0  0.5402502423183887 1.054088599316469 0  0.4792521550209046 1.074090134268229 0  0.4166750749040721 1.092524904472041 0  0.3525980093184423 1.108972399555262 0  0.2871369992588051 1.123211787803495 0  0.2204820341844999 1.135379617203326 0  0.1525621058353182 1.144453633208759 0  0.084254698551046 1.150735923793695 0  0.01516313773801866 1.154772688350481 0  -0.0541557924514829 1.155449675457937 0  -0.1234379905281298 1.153198374237343 0  -0.1923729318410038 1.147816124048409 0  -0.2606625377346803 1.139565287349514 0  -0.3280285439171433 1.127925022521365 0  -0.3939535733863837 1.114569486986938 0  -0.459120070772783 1.098451247626388 0  -0.5224170985326431 1.079361198442996 0  -0.5840893680610273 1.058500292273549 0  -0.6440191665299476 1.035809260283684 0  -0.7021389606456954 1.011422007799143 0  -0.758496681876425 0.9861486763456656 0  -0.8127742264934451 0.9581325610720863 0  -0.8650207204443339 0.9335454348818869 0  -0.9175773187019238 0.9066589646700989 0  -0.9672066260801068 0.8773070764284939 0  -1.015480014365409 0.8484109560106454 0  -1.062445110407672 0.8194297634329286 0  -1.107881999763706 0.7894135119164518 0  -1.152611608376111 0.7613577470637722 0  -1.194367052385267 0.726162921525954 0  -1.234693304982883 0.7022979537037961 0  -1.279157050215225 0.6783390602745889 0  -1.319670311244088 0.6484500643962918 0  -1.359685233111481 0.6200239518576985 0  -1.398412479644057 0.5903270204507104 0  -1.437335819713156 0.5629462282446879 0  -1.472755845268795 0.5296805387655245 0  -1.515721385583411 0.5145811673279334 0  -1.556821140747306 0.4763914214243465 0  -1.579327193955058 0.4274512631017408 0  -1.611388133972919 0.3947525020444431 0  -1.638871467671421 0.3582299873715347 0  -1.668494464383773 0.3242884589538682 0  -1.691580957447247 0.2858133030811305 0  -1.723010123250737 0.2552155388227295 0  -1.727261666698382 0.2057779256952108 0  -1.765433993856883 0.1912922122173512 0  -1.806948573959035 0.1534324271411052 0  -1.805308336467848 0.1055704001997733 0  -1.820896726071893 0.06186192780492102 0  -1.819151713964946 0.01677767361497101 0  -1.822109673396046 -0.02836796995310506 0  -1.806732838115838 -0.07222781780855372 0  -1.810540944510304 -0.1206403116052465 0  -1.767671438231513 -0.1583329273271906 0  -1.729004666126833 -0.1710146654131197 0  -1.72776885391978 -0.2224723158699743 0  -1.696515111779721 -0.2529929693210915 0  -1.674770067744285 -0.2924633135608322 0  -1.645903624967829 -0.3270323204932357 0  -1.619314869262276 -0.3643771403361525 0  -1.587632952974112 -0.3972666254574649 0  -1.566862323894331 -0.4474744436047649 0  -1.527131830155018 -0.4892869336669797 0  -1.483872094730211 -0.5033091488355533 0  -1.449275165632159 -0.5378693816294827 0  -1.410806196158238 -0.5656491249467813 0  -1.372734094424925 -0.5961400930549239 0  -1.333274329757774 -0.6251600129655339 0  -1.293353095042447 -0.6557373847847024 0  -1.249395990908072 -0.6794708279663697 0  -1.210340742041598 -0.704078067379078 0  -1.169622262805728 -0.7419007355630511 0  -1.125603102522498 -0.7710098932097357 0  -1.080992598681268 -0.8027242407751953 0  -1.034804069581974 -0.8333349753793675 0  -0.9872190745739213 -0.8639278476503087 0  -0.9380456435286415 -0.894603368770808 0  -0.8865965984825608 -0.9220876988570571 0  -0.8356710172332853 -0.9504550715822152 0  -0.7817109838319578 -0.9830441802366696 0  -0.7254717446885087 -1.010920948514463 0  -0.6673772852507432 -1.03872580517522 0  -0.607249016425095 -1.064634269325361 0  -0.5451503111060786 -1.088843318017943 0  -0.4811866436980877 -1.111624308404724 0  -0.4147499159174703 -1.130865211577643 0  -0.3477179852658824 -1.147002729177503 0  -0.2787439977883059 -1.162067861167185 0  -0.2084873464589185 -1.173202847481433 0  -0.1372755672786296 -1.181180817666258 0  -0.06543689692164995 -1.185596052779103 0  0.006661384785164023 -1.186520795640971 0  0.07867949157625517 -1.183823911666986 0  0.1502312931655496 -1.177646956344854 0  0.2209189182291789 -1.168060160348644 0  0.2905306214849256 -1.155395597938891 0  0.3587389133061956 -1.139721681090491 0  0.425326916119763 -1.121418369829022 0  0.490112536392949 -1.100629056110705 0  0.5529934854627949 -1.078109604664995 0  0.6137583958584885 -1.052529635470083 0  0.6720183389801322 -1.028726477402889 0  0.7299522146544918 -1.002668562466247 0  0.7850042874649672 -0.9741147885942564 0  0.8383242695477536 -0.9456410814480153 0  0.8899269210551251 -0.9166026021267033 0  0.9398846702992197 -0.8872662210327988 0  0.9883099152898539 -0.8577355770672477 0  1.034997506341958 -0.8277721501281665 0  1.081017369193692 -0.8013360928403864 0  1.126831256567618 -0.7711860457810085 0  1.17004108869689 -0.7402191648873969 0  1.212346771231603 -0.710058613918927 0  1.253857789021454 -0.680176820560449 0  1.293937075607571 -0.6490705564311805 0  1.334070886538549 -0.6205317598302116 0  1.369603894482288 -0.5827688604384642 0  1.406511316197533 -0.5619300636882975 0  1.448569378920672 -0.5367739549139888 0  1.484632562278367 -0.5043176955072772 0  1.520210845454402 -0.4731034273530865 0  1.554642057942175 -0.4408912550621691 0  1.586792560660852 -0.4067331069210113 0  1.620024690981196 -0.3751464293525703 0  1.643555030395896 -0.3325661609939796 0  1.675516372414929 -0.3094637462497499 0  1.710248130070829 -0.2773384619180873 0  1.733799000176725 -0.2383248340107201 0  1.757721900952265 -0.2002214012127885 0  1.77756878016169 -0.160277237157847 0  1.795624494878096 -0.1199476337510465 0  1.80940953805973 -0.07784265138684397 0  1.822065149992389 -0.0354873592156664 0  -0.1073310831691326 0.7032004122285322 0  0.7030203018344836 -0.519132470638226 0  -0.8685183414799037 -0.4420636236018699 0  -0.08793198339308116 -0.7130261562522566 0  0.6926165235795787 0.5127313260447947 0  1.306761199197185 0.1905793564219263 0  -0.8748302309641516 0.4507595941961325 0  -1.412453759836438 0.01131528611918503 0  1.311222504442004 -0.1781104872861565 0  -1.184672772401979 -0.3035407102647619 0  -0.914851867065172 -0.0005785922016416367 0  -0.5491200116523356 -0.138123750803129 0  -1.193166057246163 0.3095370274412318 0  0.342894541443905 -0.6752829208284388 0  0.1440181630642986 -0.2219596406377595 0  0.2960489075433005 0.6504733516438327 0  0.3634308339081336 0.1875827063859749 0  0.738832831527469 0.005150555219227429 0  -0.4895714961361612 -0.5919673719748437 0  -0.5201001281134694 0.6088110994624564 0  -0.312063222604429 0.2553617887222835 0  1.037525435388136 -0.3297856329462021 0  1.031210309423764 0.3375718084495427 0  0.458843935599169 -0.2134127143518861 0  0.02369915705653375 0.2280656523261307 0  -0.6176980178359031 0.1984060591763305 0  -0.2092875453112059 -0.2058563960526861 0  1.068633139532319 0.005511314691078894 0  1.526091788888709 0.007984279929269278 0  0.8703888471601677 -0.4181108181998132 0  0.881059579033121 -0.1660717652839219 0  0.7075091590590527 -0.2463186077292575 0  0.594197028569887 -0.09680002340380467 0  0.5776666846076283 -0.3704360088222384 0  1.044726110260677 -0.1583256084525364 0  0.9042542703432767 0.005286671779480579 0  -1.047188688277809 0.1580237318535977 0  -1.296637055326992 0.154475787008804 0  -1.165261671865633 0.005885139623232057 0  -1.04349458324977 -0.1550764007355095 0  -1.291863361852019 -0.1394353697283234 0  -1.47500088107365 -0.2154476571010012 0  -1.597222756514385 -0.07129656047801987 0  -1.595450810114257 0.09892319494692675 0  -1.470096036933761 0.2407278434837294 0  -0.1492208548952326 -0.4606672770456862 0  -0.3390050475657823 -0.4050174305148835 0  -0.2934973564675416 -0.6600113612234472 0  -0.3776437432902324 -0.1695613784006132 0  -0.5163322690781711 -0.3603604699733552 0  -1.377360134099908 -0.3770771165336813 0  -1.376222520397417 0.3942908797036954 0  0.4045729979698731 -0.4387324925673134 0  0.3009772730513353 -0.2133341488366725 0  0.2447457682327304 -0.4474456751787088 0  -1.034066954133192 0.3749903054171126 0  -0.8828956909469028 0.2191214408632399 0  1.502099323257391 -0.2454249791214422 0  1.356900084890339 -0.3690262271022711 0  1.349653393465969 0.3817101798072199 0  1.497098526049081 0.2607428729638899 0  -0.8720332788977946 -0.6780725861401454 0  -1.061281991740034 -0.5652260714070794 0  -1.056865705447866 0.5803693582078194 0  -0.86559782155281 0.6862284644231468 0  0.8902712514860599 -0.6640256913042414 0  0.6856118600543811 -0.7694504229161393 0  0.6743675093538239 0.7562459913104085 0  0.878857585791112 0.6612875759986083 0  0.020223
[...]
<PointData  Vectors="f_2149"> 
<DataArray  type="Float64"  Name="f_2149"  NumberOfComponents="3" format="ascii">7.6871373183485969e-02 -1.1179205862015733e-03 0.0000000000000000e+00  1.1738592991326072e-01 3.6160519902321955e-02 0.0000000000000000e+00  4.5858344275959355e-02 2.0561256123569040e-02 0.0000000000000000e+00  1.1603738923546464e-01 5.4142604446868990e-02 0.0000000000000000e+00  1.1718993964873790e-01 6.0639036254911641e-02 0.0000000000000000e+00  1.5263566934156086e-01 9.9629135345014150e-02 0.0000000000000000e+00  4.3564032032720044e-02 3.7252370495431543e-02 0.0000000000000000e+00  -4.6335438753296093e-01 -1.4673234126002374e-01 0.0000000000000000e+00  7.1294414821416197e-01 1.0327670685795676e+00 0.0000000000000000e+00  7.4728743137095932e-01 4.6509721581384578e-01 0.0000000000000000e+00  -1.1722012852028456e+00 -9.1047540919839631e-01 0.0000000000000000e+00  -4.9869911046507615e-01 -4.5128824411457336e-01 0.0000000000000000e+00  -1.4979656984261627e-01 -1.5034236881350699e-01 0.0000000000000000e+00  9.3765980792337444e-02 1.1559850014297401e-01 0.0000000000000000e+00  6.4391708471785977e-02 9.6504609455397974e-02 0.0000000000000000e+00  -1.4819563036839870e-01 9.0861844767137854e-03 0.0000000000000000e+00  2.5863215952328195e-01 5.6430765212673772e-01 0.0000000000000000e+00  7.0287016523565027e-01 6.6060780314628509e-01 0.0000000000000000e+00  -6.3362343650023245e-01 -7.6873334054867537e-01 0.0000000000000000e+00  -3.3281018081750141e-01 -4.3636339891290371e-01 0.0000000000000000e+00  -6.8022797767386067e-02 -9.0739023914626737e-02 0.0000000000000000e+00  9.2627078031077125e-03 1.7446349441063092e-02 0.0000000000000000e+00  -2.9229910606357007e-03 -1.1561375822352396e-03 0.0000000000000000e+00  3.8334329144708745e-02 7.6196563928593100e-02 0.0000000000000000e+00  1.9173356387156049e-01 3.4977171390984269e-01 0.0000000000000000e+00  -9.5609378388577193e-02 -1.7888250837933556e-01 0.0000000000000000e+00  -1.7856545981770607e-02 -3.0640177925437936e-02 0.0000000000000000e+00  1.6552712353338953e-02 3.4076535199208474e-02 0.0000000000000000e+00  4.8242852704188056e-03 1.1316525820362251e-02 0.0000000000000000e+00  1.0792578558024993e-02 2.3660211706172666e-02 0.0000000000000000e+00  -4.7807562103594208e-04 1.3586815593959816e-03 0.0000000000000000e+00  5.5818161663867228e-03 1.7082570819618066e-02 0.0000000000000000e+00  9.1044646589483868e-03 2.3233168965918455e-02 0.0000000000000000e+00  -7.7453158595840359e-03 -1.9478177097922648e-02 0.0000000000000000e+00  -7.1278914750924575e-03 -1.7450073589284590e-02 0.0000000000000000e+00  -5.0075556103821618e-03 -1.5268689908019545e-02 0.0000000000000000e+00  -7.7033258636434263e-03 -2.6627984438853523e-02 0.0000000000000000e+00  -6.3726436091568967e-03 -2.6360278449170799e-02 0.0000000000000000e+00  -6.6852639111281377e-03 -3.2716373808023100e-02 0.0000000000000000e+00  -4.6549518206221614e-03 -2.9216335246476908e-02 0.0000000000000000e+00  -3.7190507480074253e-03 -3.5029993250950048e-02 0.0000000000000000e+00  -2.4163844824669619e-03 -3.0964179245493134e-02 0.0000000000000000e+00  -5.3963391798271098e-04 -2.4847337614033047e-02 0.0000000000000000e+00  5.7621431544435762e-04 -2.4563489757502145e-02 0.0000000000000000e+00  1.5552834916905092e-03 -1.8195292786409543e-02 0.0000000000000000e+00  1.0974753629934297e-03 -6.8044465178461926e-03 0.0000000000000000e+00  2.9232034472067119e-03 -1.0871395972928003e-02 0.0000000000000000e+00  1.6238379154237515e-03 -6.4619561523637428e-03 0.0000000000000000e+00  -6.5100227578346517e-03 3.2433043428524745e-02 0.0000000000000000e+00  -3.8981923666517050e-04 9.2371350857891766e-03 0.0000000000000000e+00  -2.2438609863873701e-06 2.9671472598892848e-03 0.0000000000000000e+00  -1.1342858547284430e-02 3.5105675464242383e-02 0.0000000000000000e+00  -6.0452187333132003e-04 5.2220369806495600e-03 0.0000000000000000e+00  -1.7099124993514268e-02 4.2563189493326804e-02 0.0000000000000000e+00  1.9338290813340781e-02 -3.4135694849763698e-02 0.0000000000000000e+00  8.5903203335388773e-03 -1.8369865190541915e-02 0.0000000000000000e+00  -8.7033669675197281e-02 1.7858012154569966e-01 0.0000000000000000e+00  -3.2160583284913120e-02 7.4301079446344384e-02 0.0000000000000000e+00  -6.3185338818394065e-03 1.5055554109208339e-02 0.0000000000000000e+00  -2.2931445502060950e-02 3.9055189417359644e-02 0.0000000000000000e+00  3.2525983217367549e-02 -5.0116277639552814e-02 0.0000000000000000e+00  1.5892084394478487e-01 -2.4477562551281953e-01 0.0000000000000000e+00  1.3290501539415536e-01 -1.7491958042298145e-01 0.0000000000000000e+00  -5.6868951274003265e-01 6.8491511660666049e-01 0.0000000000000000e+00  3.3174898779565182e-01 -5.9383466510132510e-01 0.0000000000000000e+00  5.8100155627627374e-02 -2.5292524429602330e-02 0.0000000000000000e+00  2.5833866545364346e-03 1.3497690614204307e-02 0.0000000000000000e+00  1.0381217780730449e-01 -1.0604802928050611e-01 0.0000000000000000e+00  3.7752050757330846e-01 -3.5286477091773699e-01 0.0000000000000000e+00  1.1397335534427706e+00 -1.2793453072078407e+00 0.0000000000000000e+00  6.1077577987314113e-01 -1.3123841618509919e+00 0.0000000000000000e+00  -1.3676570005583166e+00 3.0023149454537350e+00 0.0000000000000000e+00  2.4960100487336900e+00 -1.4319666996944205e+00 0.0000000000000000e+00  -8.8167002742900724e-01 5.3491481815045938e-01 0.0000000000000000e+00  -8.1445416141402960e-01 7.6962434971129878e-01 0.0000000000000000e+00  2.1205684656824433e-01 -1.2204291238051884e-01 0.0000000000000000e+00  7.7016497477051193e-01 -5.7378180737063744e-01 0.0000000000000000e+00  2.4010047524223035e+00 -1.6828716482517008e+00 0.0000000000000000e+00  3.0189215558286571e+00 -1.1102139003082965e+00 0.0000000000000000e+00  -8.5297796477934706e-01 1.2984925930630105e+00 0.0000000000000000e+00  -5.9740029374905679e-01 1.6275032909787908e+00 0.0000000000000000e+00  1.3288488345843692e+00 -1.8629268271865088e-01 0.0000000000000000e+00  -7.6835829687758250e-01 8.2270566444325705e-02 0.0000000000000000e+00  -6.9264405355606540e-01 9.4343149396384759e-02 0.0000000000000000e+00  -3.6125491232146523e-01 -7.7808894606367311e-03 0.0000000000000000e+00  -4.7869774759616690e-01 -5.6431103358377248e-02 0.0000000000000000e+00  -5.4516047946837509e-01 -4.0404400350394318e-02 0.0000000000000000e+00  8.9410502632905842e-01 1.0118172304825933e-01 0.0000000000000000e+00  -4.6395900791381267e-01 -1.3148391777223745e+00 0.0000000000000000e+00  -7.7998279229759759e-01 -1.2458174710287955e+00 0.0000000000000000e+00  2.0673727714388397e+00 6.3338988664486495e-01 0.0000000000000000e+00  2.0244129080176188e+00 1.3783599739017145e+00 0.0000000000000000e+00  7.1718680847010741e-01 5.0955350726729010e-01 0.0000000000000000e+00  1.9264019104616159e-01 9.4219160830500956e-02 0.0000000000000000e+00  -7.5039122377990963e-01 -7.0106256290700020e-01 0.0000000000000000e+00  -4.9687373108755400e-01 -2.0580891255343298e-01 0.0000000000000000e+00  2.6373164448264261e+00 1.5217881614333959e+00 0.0000000000000000e+00  -8.6968445038820064e-01 -2.2783348594155766e+00 0.0000000000000000e+00  8.6978784090393357e-01 1.6550600892207403e+00 0.0000000000000000e+00  1.4366943338027449e+00 1.5344191472259150e+00 0.0000000000000000e+00  4.6604320537881516e-01 4.2541599000294716e-01 0.0000000000000000e+00  1.3340271439656728e-01 1.3388565044454290e-01 0.0000000000000000e+00  4.1376415903494630e-03 -9.1147371945260354e-03 0.0000000000000000e+00  9.2533658254702347e-02 7.8553291577950837e-02 0.0000000000000000e+00  5.4697254151830921e-01 9.7414299168171326e-01 0.0000000000000000e+00  -7.8683558204831916e-01 -8.8621637411014398e-01 0.0000000000000000e+00  1.6811879980582575e-01 1.9871461472304242e-01 0.0000000000000000e+00  2.2330979231353124e-01 3.2751968250491187e-01 0.0000000000000000e+00  5.3338059605542325e-02 7.9709477277839821e-02 0.0000000000000000e+00  -1.7801395273625835e-02 -2.7621959187645498e-02 0.0000000000000000e+00  -7.8180228960926610e-03 -1.6559251635668269e-02 0.0000000000000000e+00  -7.3079691062095525e-02 -1.3574590142417220e-01 0.0000000000000000e+00  6.6566968078547464e-02 1.2976771621174060e-01 0.0000000000000000e+00  -5.3427231453818377e-02 -9.1496011426084323e-02 0.0000000000000000e+00  1.5308806245631577e-02 1.4239843345998208e-02 0.0000000000000000e+00  -9.8939374326581292e-04 2.1542014887652747e-04 0.0000000000000000e+00  1.7398183973973115e-02 3.5360588736292664e-02 0.0000000000000000e+00  -5.6185166429374347e-03 -1.4495622656490499e-02 0.0000000000000000e+00  1.1494979656707335e-02 3.0351835471071818e-02 0.0000000000000000e+00  1.3585380669346536e-02 3.3959212272035945e-02 0.0000000000000000e+00  -4.8469701720427255e-03 -2.0361596371653762e-02 0.0000000000000000e+00  5.2670040057434132e-03 2.3005548233882199e-02 0.0000000000000000e+00  8.2633298490499656e-03 3.7577364455916702e-02 0.0000000000000000e+00  3.0693996582009751e-03 2.1277921438092037e-02 0.0000000000000000e+00  3.1104935424470090e-03 3.1312685057830920e-02 0.0000000000000000e+00  1.2104022544683569e-03 2.7876726548505405e-02 0.0000000000000000e+00  -2.4023815152385419e-04 2.9472546344949117e-02 0.0000000000000000e+00  -1.6900184121554178e-03 2.6913046471696036e-02 0.0000000000000000e+00  -3.1937641856858950e-03 2.7702162423255471e-02 0.0000000000000000e+00  -4.2168813691406768e-03 2.5683044498449981e-02 0.0000000000000000e+00  -5.4151923153037086e-03 2.4991556066562406e-02 0.0000000000000000e+00  -5.1381721168142378e-03 1.8976578654112956e-02 0.0000000000000000e+00  -8.0391641530045670e-03 2.5034644673592055e-02 0.0000000000000000e+00  -2.2784765381407951e-03 5.9320226665181344e-03 0.0000000000000000e+00  -1.5059422062121032e-02 3.4184036207372683e-02 0.0000000000000000e+00  -7.3193836685209214e-03 1.6731029514473677e-02 0.0000000000000000e+00  2.5663773731799028e-02 -5.9799725007619618e-02 0.0000000000000000e+00  -3.8605836021019719e-03 3.7319867321673240e-04 0.0000000000000000e+00  -6.2224315229116728e-03 9.8433236721233736e-03 0.0000000000000000e+00  1.0020841096264749e-02 -1.9403224631704255e-02 0.0000000000000000e+00  1.1534808453567058e-03 -3.4281636471954345e-03 0.0000000000000000e+00  1.4833421074860839e-02 -2.7638127683578522e-02 0.0000000000000000e+00  -2.4309947648086725e-02 3.8647595559940455e-02 0.0000000000000000e+00  -1.0463162877574091e-01 1.7831221335947917e-01 0.0000000000000000e+00  1.9666804508185703e-01 -3.2783058711626367e-01 0.0000000000000000e+00  3.3923736128975743e-02 -6.2016081958223619e-02 0.0000000000000000e+00  -5.7589709780877735e-03 5.9368394222571886e-03 0.0000000000000000e+00  -3.4130761201483411e-03 1.7761728829677810e-03 0.0000000000000000e+00  -8.8342334251519369e-02 1.1343450480147725e-01 0.0000000000000000e+00  -4.0660214985185106e-01 5.0828812807933121e-01 0.0000000000000000e+00  -7.1772595800760197e-01 8.2076119498780475e-01 0.0000000000000000e+00  8.5142959721992939e-01 -7.6943733073718912e-01 0.0000000000000000e+00  1.9370997244048585e-01 -4.4109842597698823e-01 0.0000000000000000e+00  -1.8000339926847592e-01 1.6680640746781012e-02 0.0000000000000000e+00  6.9866440832917404e-02 -9.7727655739429334e-02 0.0000000000000000e+00  9.4207766579995869e-02 -1.1120095913002193e-01 0.0000000000000000e+00  -1.6818014541955589e-01 1.6329407789646674e-01 0.0000000000000000e+00  -5.4293126071700559e-01 4.7236373592011793e-01 0.0000000000000000e+00  -1.2369527390030175e+00 9.1654489041831011e-01 0.0000000000000000e+00  7.7023547294593941e-01 -4.5677537657089279e-01 0.0000000000000000e+00  7.2031062912554800e-01 -1.0371020476528867e+00 0.0000000000000000e+00  -4.8819729085718655e-01 1.4809647278877672e-01 0.0000000000000000e+00  4.6407638452404774e-02 -3.7440417427096286e-02 0.0000000000000000e+00  1.5739077509915755e-01 -9.8358204292240958e-02 0.0000000000000000e+00  1.1392285426777231e-01 -5.5361456088936077e-02 0.0000000000000000e+00  1.4340385950689194e-01 -6.1513590540240908e-02 0.0000000000000000e+00  1.0304133578212601e-01 -3.7308764329016475e-02 0.0000000000000000e+00  8.0026688487092351e-02 -2.0402549755172052e-02 0.0000000000000000e+00  4.0028304875315467e-05 7.9123337748463049e-06 0.0000000000000000e+00  -1.6969497768115544e-05 -4.9962178785004901e-05 0.0000000000000000e+00  7.7873164308293355e-06 -5.8644414279770621e-05 0.0000000000000000e+00  3.1637806474453485e-05 -3.3537810942819800e-06 0.0000000000000000e+00  -1.6285298614772243e-05 4.9468654286384235e-05 0.0000000000000000e+00  4.8254934414743893e-06 5.3193211845391561e-05 0.0000000000000000e+00  6.5721795557852936e-06 6.1166122510344023e-05 0.0000000000000000e+00  -2.9273468454643040e-06 5.4037272590595222e-06 0.0000000000000000e+00  4.8549974945840882e-06 -4.7360917331883327e-05 0.0000000000000000e+00  -6.1128696641771235e-06 -6.2858422315350171e-05 0.0000000000000000e+00  3.9623488044990241e-06 5.7435774371243908e-06 0.0000000000000000e+00  2.4671455019066542e-05 -7.2886483504304011e-05 0.0000000000000000e+00  -6.1753687908046854e-06 6.9720821758007185e-05 0.0000000000000000e+00  -2.7510213822329335e-05 -1.9113254093835604e-05 0.0000000000000000e+00  -6.5935087715294810e-05 -6.3619275504458170e-05 0.0000000000000000e+00  -2.4934677658996194e-05 1.7037259605876611e-05 0.0000000000000000e+00  -2.8268978652617842e-05 1.7000228446323361e-05 0.0000000000000000e+00  -5.6129361239698721e-06 -8.0197468540032623e-06 0.0000000000000000e+00  4.6725277399070928e-05 -5.0940941311898630e-05 0.0000000000000000e+00  3.7396003411837604e-05 4.9210813030232919e-05 0.0000000000000000e+00  2.7024405084925541e-05 7.5686165494595452e-05 0.0000000000000000e+00  3.2286862417649483e-06 -6.0793934480297355e-05 0.0000000000000000e+00  3.8609907825643499e-06 6.5884218627491444e-05 0.0000000000000000e+00  -2.8233149114204280e-05 -4.6301677307180640e-05 0.0000000000000000e+00  5.6239903471971839e-05 -1.4892236691123941e-05 0.0000000000000000e+00  1.8504313152322268e-05 4.6195129291050604e-05 0.0000000000000000e+00  9.1149847239574780e-05 -1.4102840154190131e-04 0.0000000000000000e+00  -4.4536114613231905e-06 1.3776808580618217e-07 0.0000000000000000e+00  5.7521010560400638e-06 3.2934928114126060e-06 0.0000000000000000e+00  -4.5484534348431205e-06 -5.6161836809992034e-05 0.0000000000000000e+00  1.1277369945195077e-06 -5.5426248126834882e-05 0.0000000000000000e+00  -4.0829525213603767e-06 -3.6730681440374935e-05 0.0000000000000000e+00  -2.4910830510371362e-05 -7.3948247790988104e-05 0.0000000000000000e+00  -1.8693743749506632e-05 -3.0758645609115247e-05 0.0000000000000000e+00  -1.1081596434022543e-06 -1.8626601832999378e-05 0.0000000000000000e+00  -5.2513560570513094e-08 1.3361367829635656e-06 0.0000000000000000e+00  -2.1011168364944849e-06 5.5912991271977346e-05 0.0000000000000000e+00  2.1833598578951128e-06 9.0577116682036615e-05 0.0000000000000000e+00  1.1967757642493003e-07 1.3779996366345608e-06 0.0000000000000000e+00  -1.8913675836456907e-06 -4.5865800878046602e-05 0.0000000000000000e+00  3.4930254687833072e-07 -8.7847283461031124e-05 0.0000000000000000e+00  -1.2297404632200746e-05 -9.5740847301391485e-05 0.0000000000000000e+00  -1.3382038919337589e-05 -6.5975420607462045e-05 0.0000000000000000e+00  -1.2284831427799173e-05 8.2339253567968975e-05 0.0000000000000000e+00  -1.4177956262612508e-05 1.0057936090761510e-04 0.0000000000000000e+00  1.0045110945671487e-04 -2.4225396994389869e-05 0.0000000000000000e+00  6.9478619106577217e-05 -6.9426064167889571e-05 0.0000000000000000e+00  5.6606367006014182e-05 -2.7517043614940992e-05 0.0000000000000000e+00  1.5092333917447970e-05 -8.3053726890103399e-05 0.0000000000000000e+00  3.2637677845091227e-05 -6.1844520690065540e-05 0.0000000000000000e+00  -5.3143429334788820e-05 -1.5339789341669007e-04 0.0000000000000000e+00  -5.0615450259732929e-05 1.5935611712777670e-04 0.0000000000000000e+00  -3.4974699183416873e-05 -3.9790420236313884e-05 0.0000000000000000e+00  -4.5385880176483388e-05 -6.7418794970820994e-05 0.0000000000000000e+00  -1.6530829077670753e-05 -1.1558219650156841e-05 0.0000000000000000e+00  -4.1675762384652313e-06 6.2708084789820290e-05 0.0000000000000000e+00  -1.0678819029907204e-06 3.8699547732747413e-05 0.0000000000000000e+00  2.9329476203481965e-05 -1.0503325657806398e-04 0.0000000000000000e+00  3.1322313662873150e-05 -1.1309288163004582e-04 0.0000000000000000e+00  3.0939256050542243e-05 1.2105670856906519e-04 0.0000000000000000e+00  2.9269933165787163e-05 1.1219392252340645e-04 0.0000000000000000e+00  1.1111208528933849e-05 -6.5446648478091629e-05 0.0000000000000000e+00  -1.0061780655965500e-05 -7.4480147985626349e-05 0.0000000000000000e+00  -1.0961063069595992e-05 8.5459174347969584e-05 0.0000000000000000e+00  1.1506724253188585e-05 7.3669955698647528e-05 0.0000000000000000e+00  -5.1045290517660571e-06 -6.7451073598136376e-05 0.0000000000000000e+00  -2.0778824282841104e-05 -4.3072651390271851e-05 0.0000000000000000e+00  -2.0260200997097668e-05 5.3166451967326540e-05 0.0000000000000000e+00  -3.3978333088017989e-06 7.7665209256509604e-05 0.0000000000000000e+00  9.4002948041368837e-06 6.0706599306576477e-07 0.0000000000000000e+00  2.7349510531922515e-05 -6.4644041331082016e-06 0.0000000000000000e+00  3.3285857284557935e-05 1.1560427858988356e-05 0.0000000000000000e+00  1.4348081943190635e-05 -6.9016664016170693e-09 0.0000000000000000e+00  -2.5346169449670317e-05 -3.6247686523240485e-05 0.0000000000000000e+00  -1.0039983234678453e-05 7.5415733593067215e-05 0.0000000000000000e+00  -2.7446018095711976e-07 3.6442320505992109e-05 0.0000000000000000e+00  -1.9514972820406442e-05 8.6251000344149484e-06 0.0000000000000000e+00  1.1358300121918578e-05 -3.5471950711825996e-05 0.0000000000000000e+00  1.2835897236083521e-05 -6.8585360577297480e-05 0.0000000000000000e+00  7.2090876205544124e-07 -3.7939737124427798e-05 0.0000000000000000e+00  3.4035026735711459e-05 -1.9949117759511975e-05 0.0000000000000000e+00  -1.2808520311941820e-02 7.6466354926893257e-03 0.0000000000000000e+00  -2.1294579674791366e-05 -1.5269477565442633e-04 0.0000000000000000e+00  -2.9954532548564253e-05 -1.0205941557471976e-04 0.0000000000000000e+00  -2.8681540030399080e-05 1.1080936925232556e-04 0.0000000000000000e+00  -3.3989656210573303e-06 -5.4117211657421391e-05 0.0000000000000000e+00  2.7613487450845646e-06 5.3429203288147701e-05 0.0000000000000000e+00  -2.8831814669579689e-06 5.7065284041412308e-05 0.0000000000000000e+00  -1.4409690738302280e-06 1.8295679565947419e-05 0.0000000000000000e+00  -2.5472863806488350e-05 2.8527576512567618e-05 0.0000000000000000e+00  -2.5010441020458054e-05 3.8986528943626227e-05 0.0000000000000000e+00  3.4680674652071554e-06 7.9240274694189114e-07 0.0000000000000000e+00  -1.1121210774319389e-05 -3.5363142874124214e-06 0.0000000000000000e+00  4.0060716025457980e-05 5.7704519511628108e-05 0.0000000000000000e+00  7.7679206210079204e-05 3.8955560596289396e-05 0.0000000000000000e+00  5.2211738410698437e-05 3.3809693216741294e-05 0.0000000000000000e+00  -1.5796486661631481e-05 -6.6442419848696389e-05 0.0000000000000000e+00  1.7583506633231567e-04 9.0517936116864663e-05 0.0000000000000000e+00  -2.3315193640859399e-05 -2.1015080324182928e-05 0.0000000000000000e+00  -1.7030452043795392e-05 -6.5559831216946158e-06 0.0000000000000000e+00  -1.3702708623861404e-05 5.1612190770065699e-06 0.0000000000000000e+00  -2.4387220207432755e-05 2.6079822257561151e-05 0.0000000000000000e+00  1.1695279437301129e-02 5.8268807311182540e-03 0.0000000000000000e+00  -3.2748225106723333e-06 -1.1236091174896652e-06 0.0000000000000000e+00  3.4407683062460649e-06 -2.1777774762839718e-06 0.0000000000000000e+00  3.9923917403888483e-05 -2.7029369745936317e-05 0.0000000000000000e+00  2.9851419567620999e-05 -4.5564831136519823e-05 0.0000000000000000e+00  2.5365228927217886e-05 -5.9128334773129825e-05 0.0000000000000000e+00  2.8417700140607473e-05 5.4575044918112075e-05 0.0000000000000000e+00  4.1020940472957118e-05 3.5074738779758909e-05 0.0000000000000000e+00  2.0287937187077005e-05 5.7486624008478134e-05 0.0000000000000000e+00  1.2283983589929276e-05 6.0149954645127526e-05 0.0000000000000000e+00  1.02041624947249