<?xml version="1.0"?>
<VTKFile type="UnstructuredGrid"  version="0.1"  >
<UnstructuredGrid>
<Piece  NumberOfPoints="2549" NumberOfCells="4928">
<Points>
<DataArray  type="Float64"  NumberOfComponents="3"  format="ascii">2 0 0  1.996686137018095 0.05754231104100042 0  1.986882897305854 0.1143419787233611 0  1.970975633076588 0.1697461736080849 0  1.949521707683106 0.2232516020504374 0  1.92316148102163 0.2745222750136555 0  1.892542813236142 0.323373506980794 0  1.858271349552875 0.3697389590748243 0  1.820885526891715 0.4136350740557075 0  1.780849258848747 0.4551307277194839 0  1.738554874553317 0.4943245260370203 0  1.694330878507049 0.5313291997757913 0  1.648451186236745 0.5662615752889001 0  1.601144123217999 0.5992364926897525 0  1.552600433702648 0.6303633660965611 0  1.502980077905183 0.659744436395664 0  1.452417851070797 0.6874740696729748 0  1.401027953784824 0.7136386818120056 0  1.348907720609051 0.7383169985313379 0  1.29614058371176 0.7615805254953902 0  1.242798492047359 0.7834940823268561 0  1.188943861023348 0.8041163621228731 0  1.134631154358537 0.8235004771642536 0  1.079908172939354 0.8416944721837589 0  1.024817109964837 0.8587417963397553 0  0.9693954136298085 0.8746817324080646 0  0.9136765221153764 0.8895497755796398 0  0.8576904445844472 0.9033779803145155 0  0.801464266694953 0.9161952615587904 0  0.7450225714102614 0.9280276623152515 0  0.6883877952988928 0.9388985892101885 0  0.6315805321092666 0.9488290192996544 0  0.5746197931158087 0.9578376811025375 0  0.5175232373657314 0.9659412118222429 0  0.4603073510223729 0.9731542969378965 0  0.4029876351072817 0.9794897863110468 0  0.3455787518345055 0.9849587968895583 0  0.2880946601251717 0.9895707992366389 0  0.2305487379218517 0.993333690086398 0  0.1729538938792191 0.9962538520116265 0  0.115322670663361 0.998336201090478 0  0.05766733915096163 0.9995842233142798 0  -1.322274611685462e-09 1 0  -0.05766734179523565 0.9995842232761419 0  -0.1153226733068079 0.9983362010141388 0  -0.1729538991952786 0.996253851780904 0  -0.2305487459060017 0.9933336896231258 0  -0.2880946707711053 0.9895707984617989 0  -0.3455787651340506 0.9849587957230019 0  -0.4029876510566202 0.9794897846705534 0  -0.4603073696092293 0.9731542947399749 0  -0.5175232585755485 0.9659412089813419 0  -0.5746198169315506 0.9578376775306909 0  -0.6315805531144443 0.9488290158041717 0  -0.6883878135015997 0.9388985858736937 0  -0.745022586820829 0.9280276592223424 0  -0.8014642793262121 0.9161952587964145 0  -0.8576904516640802 0.9033779786341188 0  -0.9136765236872437 0.8895497751760147 0  -0.9693954097454738 0.8746817334843007 0  -1.02481710068483 0.8587417991084308 0  -1.07990816384232 0.8416944751016707 0  -1.134631145449371 0.8235004802330488 0  -1.188943852307292 0.8041163653447019 0  -1.242798483530528 0.7834940857042606 0  -1.296140602082296 0.7615805176791459 0  -1.348907765262195 0.7383169781359747 0  -1.401028023999701 0.7136386473502353 0  -1.452417945986507 0.6874740195411637 0  -1.502980204542554 0.659744364271727 0  -1.55260059049229 0.6303632695523657 0  -1.601144308255775 0.5992363690857174 0  -1.648451397199867 0.566261421754521 0  -1.694331058738459 0.5313290560928818 0  -1.738555024805723 0.4943243939263901 0  -1.780849380123489 0.4551306090875966 0  -1.820885620520759 0.4136349710133106 0  -1.858271414561462 0.3697388773931348 0  -1.892542852486391 0.3233734495527862 0  -1.923161498240549 0.2745222448569359 0  -1.949521707638369 0.2232516021481025 0  -1.970975633050448 0.1697461736839625 0  -1.986882897293919 0.1143419787752093 0  -1.99668613701505 0.05754231106741577 0  -2 -2.119381739288827e-14 0  -1.996686137015017 -0.05754231106770592 0  -1.986882897293798 -0.114341978775735 0  -1.970975633050334 -0.1697461736842945 0  -1.949521707638351 -0.2232516021481412 0  -1.923161498240437 -0.2745222448571329 0  -1.892542852486365 -0.3233734495528243 0  -1.858271414561291 -0.36973887739335 0  -1.820885620520727 -0.4136349710133463 0  -1.780849380123318 -0.4551306090877636 0  -1.738555024805688 -0.4943243939264208 0  -1.69433105873832 -0.5313290560929934 0  -1.648451397199832 -0.5662614217545467 0  -1.601144308255667 -0.5992363690857894 0  -1.552600590492252 -0.6303632695523889 0  -1.50298020454247 -0.659744364271775 0  -1.452417945986467 -0.6874740195411845 0  -1.40102802399929 -0.713638647350437 0  -1.348907765261459 -0.7383169781363109 0  -1.296140602081886 -0.7615805176793204 0  -1.242798483530485 -0.7834940857042775 0  -1.188943852307122 -0.8041163653447646 0  -1.134631145449091 -0.8235004802331454 0  -1.079908163842153 -0.8416944751017243 0  -1.02481710068479 -0.8587417991084427 0  -0.9693954097453934 -0.874681733484323 0  -0.9136765236871304 -0.8895497751760438 0  -0.8576904516640044 -0.9033779786341368 0  -0.8014642793261747 -0.9161952587964226 0  -0.7450225868207132 -0.9280276592223656 0  -0.688387813501408 -0.9388985858737288 0  -0.6315805531141928 -0.9488290158042135 0  -0.574619816931241 -0.9578376775307373 0  -0.5175232585753057 -0.9659412089813745 0  -0.4603073696090547 -0.9731542947399956 0  -0.4029876510565167 -0.979489784670564 0  -0.3455787651340186 -0.9849587957230047 0  -0.2880946707710729 -0.9895707984618012 0  -0.2305487459059683 -0.9933336896231277 0  -0.1729538991952446 -0.9962538517809054 0  -0.1153226733067752 -0.9983362010141397 0  -0.05766734179520062 -0.9995842232761424 0  -1.322240462585813e-09 -1 0  0.05766733915099533 -0.9995842233142793 0  0.1153226706633956 -0.998336201090477 0  0.1729538938792597 -0.9962538520116249 0  0.2305487379218985 -0.9933336900863954 0  0.2880946601252248 -0.9895707992366352 0  0.3455787518345641 -0.9849587968895532 0  0.4029876351073326 -0.9794897863110416 0  0.4603073510224157 -0.9731542969378913 0  0.5175232373657652 -0.9659412118222385 0  0.5746197931158308 -0.9578376811025342 0  0.6315805321096187 -0.9488290192995957 0  0.6883877952995736 -0.9388985892100637 0  0.7450225714112517 -0.9280276623150527 0  0.8014642666962468 -0.9161952615585074 0  0.857690444585461 -0.903377980314275 0  0.9136765221161084 -0.8895497755794518 0  0.9693954136301919 -0.8746817324079583 0  1.02481710996487 -0.8587417963397453 0  1.079908172939512 -0.8416944721837082 0  1.134631154358807 -0.8235004771641605 0  1.188943861023504 -0.8041163621228153 0  1.242798492047385 -0.7834940823268459 0  1.296140583712152 -0.7615805254952235 0  1.348907720609768 -0.7383169985310102 0  1.401027953785216 -0.7136386818118133 0  1.452417851070815 -0.6874740696729649 0  1.502980077905247 -0.6597444363956275 0  1.552600433702669 -0.6303633660965483 0  1.601144123218091 -0.5992364926896914 0  1.648451186236767 -0.5662615752888848 0  1.694330878507175 -0.5313291997756912 0  1.738554874553337 -0.4943245260370026 0  1.780849258848903 -0.4551307277193312 0  1.820885526891733 -0.4136350740556869 0  1.858271349553032 -0.3697389590746263 0  1.892542813236154 -0.3233735069807763 0  1.923161481021729 -0.2745222750134805 0  1.949521707683112 -0.223251602050424 0  1.970975633076692 -0.1697461736077827 0  1.986882897305967 -0.11434197872287 0  1.996686137018124 -0.05754231104074863 0  -0.1152904195579733 0.6070198455084121 0  0.7139314807447402 -0.5185554509125195 0  -0.9021804071087454 -0.4712698952622889 0  -0.08853261806707058 -0.5931971952512098 0  0.7139314807447157 0.5185554509125249 0  1.417801984821762 0.2291367688541014 0  -0.9202096744148912 0.4669291729068617 0  -1.545989679638069 -0.002355595176244116 0  1.419175259971926 -0.2295798938383525 0  -1.262514497274744 -0.369291382563445 0  -1.008975443817403 -0.0113108633010534 0  -0.6062327478577832 -0.13746405873719 0  -1.281728968624498 0.3515475904410956 0  0.3284986955774252 -0.5906094157356263 0  0.1737280740022324 -0.1722626988402368 0  0.2893086492827969 0.5872833258737034 0  0.428425950012378 0.185265744956867 0  0.8258750024497795 0.002678618671304442 0  -0.4906311993153011 -0.5380519337330318 0  -0.5319151236343942 0.5610340701502295 0  -0.3492448427637153 0.2242372176230919 0  1.101084670418347 -0.3819430866711396 0  1.10085579138347 0.3827620940547057 0  0.5114738231755741 -0.2037878442320408 0  0.0378548298353058 0.2177192870939484 0  -0.68351177520046 0.1879874044068832 0  -0.2205094860969659 -0.1665034527494929 0  1.17295745818125 0.0006108973493657318 0  1.665541930433108 -2.306912664895724e-05 0  0.907508075581543 -0.4502492687918292 0  0.9634798364340638 -0.1896322339999175 0  0.7699032415972596 -0.2579384161206076 0  0.6686744128126767 -0.100554612780368 0  0.6127026519601571 -0.36117164757228 0  1.137021064299799 -0.190666094660887 0  0.9994162303155147 0.001644758010335187 0  -1.145352206220951 0.1701183635700213 0  -1.413859324131283 0.1745959976324259 0  -1.277482561727735 -0.006833229238648594 0  -1.135744970546073 -0.1903011229322492 0  -1.404252088456406 -0.1858234888698444 0  -1.597220538418949 -0.2843085084653953 0  -1.747755693638209 -0.1128035986621925 0  -1.747755693638219 0.1104480034859294 0  -1.597220538418967 0.2819529132891387 0  -0.154521052082018 -0.3798503240003511 0  -0.3555703427061332 -0.3522776932412622 0  -0.2895819086911859 -0.5656245644921211 0  -0.4133711169773747 -0.1519837557433414 0  -0.5484319735865418 -0.3377579962351108 0  -1.455482947237287 -0.4677764021589958 0  -1.465090182912182 0.4589045060978081 0  0.4199862593764998 -0.3971986299838336 0  0.3426009485889036 -0.1880252715361387 0  0.2511133847898288 -0.3814360572879312 0  -1.100969321519695 0.4092383816739789 0  -0.9645925591161468 0.2278091548029043 0  1.62003039343183 -0.3216074839470194 0  1.43579655552137 -0.4585269817556586 0  1.435109917946279 0.4583054192635382 0  1.619343755856739 0.3213859214549047 0  -0.85182234321746 -0.6937325770293555 0  -1.072489445319615 -0.627381990483283 0  -1.081504078972709 0.6252116293055613 0  -0.8608369768705514 0.6915622158516382 0  0.8693742953548055 -0.6886486236261325 0  0.6442756369302858 -0.738196566007527 0  0.644275636930262 0.7381965660075314 0  0.8693742953547762 0.6886486236261405 0  0.01339502629816219 -0.7957666981708436 0  -0.2170556
[...]
<PointData  Vectors="f_551"> 
<DataArray  type="Float64"  Name="f_551"  NumberOfComponents="3" format="ascii">6.6799774924821545e-02 -6.3237792721607897e-05 0.0000000000000000e+00  5.6769604787273609e-02 6.5054124399224296e-03 0.0000000000000000e+00  1.2360313427235299e-01 2.8860111262293972e-02 0.0000000000000000e+00  1.6163720145163873e-01 5.5660396068696147e-02 0.0000000000000000e+00  1.9456082630620986e-01 8.8891613205889050e-02 0.0000000000000000e+00  2.0713452841116115e-01 1.1786386376331023e-01 0.0000000000000000e+00  2.1295805520350133e-01 1.4490800607457244e-01 0.0000000000000000e+00  1.9564383079175884e-01 1.5528266004272970e-01 0.0000000000000000e+00  2.0377008718813824e-01 1.8457445139899342e-01 0.0000000000000000e+00  2.6079116639927946e-01 2.6653261663222666e-01 0.0000000000000000e+00  2.2260480017225537e-01 2.5218078596508697e-01 0.0000000000000000e+00  2.0871773881261074e-01 2.6120703679105051e-01 0.0000000000000000e+00  1.8476678482656322e-01 2.5320334748622647e-01 0.0000000000000000e+00  1.6355313792898471e-01 2.4429135334722862e-01 0.0000000000000000e+00  1.4546575570241654e-01 2.3573682306846339e-01 0.0000000000000000e+00  1.2529631994900617e-01 2.1966767054979267e-01 0.0000000000000000e+00  1.1258624438085750e-01 2.1261978323333489e-01 0.0000000000000000e+00  1.2467850005928645e-01 2.5407736502559775e-01 0.0000000000000000e+00  1.0235497810947905e-01 2.2360336670438150e-01 0.0000000000000000e+00  9.2912231903118384e-02 2.1812700902641688e-01 0.0000000000000000e+00  8.0706662248516858e-02 2.0322698894739930e-01 0.0000000000000000e+00  7.0578154363031886e-02 1.9069051608657817e-01 0.0000000000000000e+00  6.0942165279177653e-02 1.7669040698731009e-01 0.0000000000000000e+00  5.2117806189754035e-02 1.6230903468157823e-01 0.0000000000000000e+00  4.0415590938505205e-02 1.3509197593529526e-01 0.0000000000000000e+00  3.5396499718098308e-02 1.2766195873308886e-01 0.0000000000000000e+00  2.9127763286042344e-02 1.1328078271856391e-01 0.0000000000000000e+00  2.3705170975450066e-02 9.9738148227051543e-02 0.0000000000000000e+00  1.8864901705124996e-02 8.6134627829450569e-02 0.0000000000000000e+00  1.4512660141915002e-02 7.2189612446445520e-02 0.0000000000000000e+00  1.0724271051299816e-02 5.8386226035984722e-02 0.0000000000000000e+00  7.3220423011170471e-03 4.3912587923613938e-02 0.0000000000000000e+00  4.3898367663882300e-03 2.9095388946009243e-02 0.0000000000000000e+00  2.6067402566153407e-03 1.9418297719764683e-02 0.0000000000000000e+00  6.2572258099787177e-04 5.1645357494309735e-03 0.0000000000000000e+00  -6.5560754914418141e-04 -6.4675177837298231e-03 0.0000000000000000e+00  -1.5408274533096501e-03 -1.7673656657526769e-02 0.0000000000000000e+00  -2.0081728037887893e-03 -2.7689827921966653e-02 0.0000000000000000e+00  -2.0937717519966233e-03 -3.6208578041103258e-02 0.0000000000000000e+00  -1.9032534682966605e-03 -4.3888455933601737e-02 0.0000000000000000e+00  -1.4058730447854726e-03 -4.8904425717921855e-02 0.0000000000000000e+00  -7.3309708272249177e-04 -5.0698644280984070e-02 0.0000000000000000e+00  1.6338353783772206e-06 -5.3193850325755423e-02 0.0000000000000000e+00  7.5739212978121948e-04 -5.2627241027670857e-02 0.0000000000000000e+00  1.4540853599150538e-03 -5.0445262934575345e-02 0.0000000000000000e+00  1.9996578450457055e-03 -4.6153403194831619e-02 0.0000000000000000e+00  2.3397344583614538e-03 -4.0450090863730172e-02 0.0000000000000000e+00  2.3104669258275949e-03 -3.1761576786552566e-02 0.0000000000000000e+00  2.1874852165192351e-03 -2.5109631041046548e-02 0.0000000000000000e+00  1.4386033615644035e-03 -1.4049632635888551e-02 0.0000000000000000e+00  2.1953388428419979e-04 -1.9609591284353374e-03 0.0000000000000000e+00  -1.3885087451548047e-03 1.0273723575881905e-02 0.0000000000000000e+00  -3.4795225243369290e-03 2.3098216420061754e-02 0.0000000000000000e+00  -6.1047232247962322e-03 3.6599059294081596e-02 0.0000000000000000e+00  -9.0273064431713821e-03 4.9103614812186440e-02 0.0000000000000000e+00  -1.3367616633918130e-02 6.6616380858411872e-02 0.0000000000000000e+00  -1.5436738791291232e-02 7.0319566987871132e-02 0.0000000000000000e+00  -2.1076046806894524e-02 8.8711046707650759e-02 0.0000000000000000e+00  -2.6760709638396961e-02 1.0406294927671519e-01 0.0000000000000000e+00  -3.2723820036912536e-02 1.1795979479788145e-01 0.0000000000000000e+00  -3.9112258104357249e-02 1.3091417753033679e-01 0.0000000000000000e+00  -4.6793052387478315e-02 1.4575504226165215e-01 0.0000000000000000e+00  -5.2731338735865836e-02 1.5276096070049874e-01 0.0000000000000000e+00  -6.6915816312316079e-02 1.8112343825421118e-01 0.0000000000000000e+00  -6.1094505430303973e-02 1.5382423635635692e-01 0.0000000000000000e+00  -6.4201069804383726e-02 1.5075188917906537e-01 0.0000000000000000e+00  -7.6097662519760079e-02 1.6634970671389704e-01 0.0000000000000000e+00  -8.6256992215346592e-02 1.7544745561433847e-01 0.0000000000000000e+00  -9.9935334283156887e-02 1.8892815681664360e-01 0.0000000000000000e+00  -1.1074302544847578e-01 1.9394319085620459e-01 0.0000000000000000e+00  -1.3387558743161498e-01 2.1738020327796453e-01 0.0000000000000000e+00  -1.2186980845656639e-01 1.8126290507431495e-01 0.0000000000000000e+00  -2.0404868964042971e-01 2.7849813049458710e-01 0.0000000000000000e+00  -3.1967544891775673e-01 3.9954500398661824e-01 0.0000000000000000e+00  -3.2834790287996213e-01 3.7252348563058041e-01 0.0000000000000000e+00  -3.5802847473076177e-01 3.6484203092293999e-01 0.0000000000000000e+00  -3.7074726747153947e-01 3.3566186267511289e-01 0.0000000000000000e+00  -3.9201175214857764e-01 3.1129568075912512e-01 0.0000000000000000e+00  -3.5592988761077105e-01 2.4167441424030173e-01 0.0000000000000000e+00  -4.0435262453447102e-01 2.3210217104867589e-01 0.0000000000000000e+00  -1.4028251658483876e-01 6.4396206987190396e-02 0.0000000000000000e+00  4.2916886415640910e-03 5.4607993017295622e-04 0.0000000000000000e+00  -9.0271356073174436e-02 2.0418303910819335e-02 0.0000000000000000e+00  -3.9557760927540341e-02 4.9365215385183941e-03 0.0000000000000000e+00  -5.5730907267383466e-02 1.8147672725867821e-05 0.0000000000000000e+00  -3.8437385400832767e-02 -4.8581742633938829e-03 0.0000000000000000e+00  -9.2820386628077858e-02 -2.0949139685489317e-02 0.0000000000000000e+00  1.2785655802703865e-02 2.1817621950975812e-03 0.0000000000000000e+00  -1.4813897061750655e-01 -6.8084222309031495e-02 0.0000000000000000e+00  -4.3755527118254783e-01 -2.5117835150487816e-01 0.0000000000000000e+00  -3.7816643429748686e-01 -2.5670551858733737e-01 0.0000000000000000e+00  -4.1589622163293744e-01 -3.3025944164520449e-01 0.0000000000000000e+00  -3.9068218881763189e-01 -3.5368251050552313e-01 0.0000000000000000e+00  -3.7584015239427715e-01 -3.8297888471856928e-01 0.0000000000000000e+00  -3.4357562272346859e-01 -3.8979253936189956e-01 0.0000000000000000e+00  -3.3437345686293862e-01 -4.1789894732304816e-01 0.0000000000000000e+00  -2.1658560965832233e-01 -2.9568503125998663e-01 0.0000000000000000e+00  -1.1987820827717970e-01 -1.7814512370998611e-01 0.0000000000000000e+00  -1.3471396005438591e-01 -2.1877534118487438e-01 0.0000000000000000e+00  -1.0959420110682268e-01 -1.9190067572803024e-01 0.0000000000000000e+00  -9.8809642787817578e-02 -1.8679532439317539e-01 0.0000000000000000e+00  -8.4514985965748371e-02 -1.7189661931308980e-01 0.0000000000000000e+00  -7.4471425846380793e-02 -1.6278862174555600e-01 0.0000000000000000e+00  -6.2120176447278776e-02 -1.4587187471681584e-01 0.0000000000000000e+00  -6.2008242021760876e-02 -1.5619198658710884e-01 0.0000000000000000e+00  -7.1374662130179928e-02 -1.9323110696819823e-01 0.0000000000000000e+00  -5.5219945497970283e-02 -1.5993974293243324e-01 0.0000000000000000e+00  -4.9314593824406013e-02 -1.5361766109028865e-01 0.0000000000000000e+00  -4.1054305876500240e-02 -1.3740513903349075e-01 0.0000000000000000e+00  -3.4201047251086157e-02 -1.2328465523409264e-01 0.0000000000000000e+00  -2.8062452656326814e-02 -1.0913147540545888e-01 0.0000000000000000e+00  -2.2004429770714602e-02 -9.2611625866521996e-02 0.0000000000000000e+00  -1.9094545731815456e-02 -8.7188846782838766e-02 0.0000000000000000e+00  -1.8046021210795678e-02 -8.9966430748867163e-02 0.0000000000000000e+00  -1.1910341807825560e-02 -6.4748104636348058e-02 0.0000000000000000e+00  -8.5904276391752469e-03 -5.1530122137268333e-02 0.0000000000000000e+00  -5.1822225805910720e-03 -3.4410586169678063e-02 0.0000000000000000e+00  -2.5470020875722294e-03 -1.8899551027196138e-02 0.0000000000000000e+00  -4.6816042241961422e-04 -3.8140545949150485e-03 0.0000000000000000e+00  1.1868044083476266e-03 1.1596450736825362e-02 0.0000000000000000e+00  2.2360758168627113e-03 2.5771724223659444e-02 0.0000000000000000e+00  2.4384696626292340e-03 3.3486070804620176e-02 0.0000000000000000e+00  2.5624803573079031e-03 4.4324979387542589e-02 0.0000000000000000e+00  2.2206468845018218e-03 5.1253596089077168e-02 0.0000000000000000e+00  1.6298107409613235e-03 5.6545465766628639e-02 0.0000000000000000e+00  8.5515344330940502e-04 5.9397465599570397e-02 0.0000000000000000e+00  5.7664841348960969e-07 6.0207357524996882e-02 0.0000000000000000e+00  -8.3827627261404657e-04 5.8247560202046259e-02 0.0000000000000000e+00  -1.6084325376780880e-03 5.5763713639652275e-02 0.0000000000000000e+00  -2.1595591851344778e-03 4.9878843800487037e-02 0.0000000000000000e+00  -2.4646968300547070e-03 4.2576806809784068e-02 0.0000000000000000e+00  -2.4273920852172339e-03 3.3451963174177902e-02 0.0000000000000000e+00  -2.0070130771157502e-03 2.2987696677837427e-02 0.0000000000000000e+00  -1.1342328542705388e-03 1.1111348080696979e-02 0.0000000000000000e+00  1.1127569724350827e-04 -7.9259609950976513e-04 0.0000000000000000e+00  2.2962638118284502e-03 -1.7166299273260525e-02 0.0000000000000000e+00  3.5998618273626695e-03 -2.3734142303016188e-02 0.0000000000000000e+00  7.0237923418765436e-03 -4.2137167961234061e-02 0.0000000000000000e+00  1.0742810808180918e-02 -5.8474158335713448e-02 0.0000000000000000e+00  1.4779461066222535e-02 -7.3512377617623456e-02 0.0000000000000000e+00  1.9402478114225092e-02 -8.8586285081000526e-02 0.0000000000000000e+00  2.4528525785097437e-02 -1.0319857160393087e-01 0.0000000000000000e+00  3.0295995931655578e-02 -1.1782480508592275e-01 0.0000000000000000e+00  3.6839673323483292e-02 -1.3285798326035533e-01 0.0000000000000000e+00  4.2374565542132071e-02 -1.4164117436112450e-01 0.0000000000000000e+00  5.4878636820004427e-02 -1.7090015202586792e-01 0.0000000000000000e+00  6.4121022071633574e-02 -1.8590753431132512e-01 0.0000000000000000e+00  7.4317147450766147e-02 -2.0079110592913116e-01 0.0000000000000000e+00  8.4996249670403312e-02 -2.1402711957954099e-01 0.0000000000000000e+00  9.7889847261638546e-02 -2.2981349334893347e-01 0.0000000000000000e+00  1.0770965929814853e-01 -2.3529669693781025e-01 0.0000000000000000e+00  1.3142992753674926e-01 -2.6783806353786677e-01 0.0000000000000000e+00  1.1799004537130132e-01 -2.2284611127115536e-01 0.0000000000000000e+00  1.3039914527544516e-01 -2.2861188818599637e-01 0.0000000000000000e+00  1.5152405426023205e-01 -2.4555352834912930e-01 0.0000000000000000e+00  1.7037460710268171e-01 -2.5447768880172433e-01 0.0000000000000000e+00  1.9275126111202623e-01 -2.6414151945660830e-01 0.0000000000000000e+00  2.1797890157649605e-01 -2.7279407491667873e-01 0.0000000000000000e+00  2.3269104622269041e-01 -2.6360105107996024e-01 0.0000000000000000e+00  2.7330027569205884e-01 -2.7930966456126444e-01 0.0000000000000000e+00  2.1361212925781806e-01 -1.9348031820442510e-01 0.0000000000000000e+00  2.0615542281498658e-01 -1.6360825875986873e-01 0.0000000000000000e+00  2.2554354232888330e-01 -1.5345718356707783e-01 0.0000000000000000e+00  2.2115718435056758e-01 -1.2582354748803881e-01 0.0000000000000000e+00  2.0996581054609162e-01 -9.5889786871018082e-02 0.0000000000000000e+00  1.7865772796507257e-01 -6.1523587858042468e-02 0.0000000000000000e+00  1.3726308211386884e-01 -3.1950071087011381e-02 0.0000000000000000e+00  7.6755817919575170e-02 -9.0010673577850409e-03 0.0000000000000000e+00  1.0380263605906468e-09 -3.7324476445935044e-08 0.0000000000000000e+00  7.9616064063153394e-09 -3.5019826095519041e-08 0.0000000000000000e+00  -1.8554566661348671e-08 -6.1037811210204166e-08 0.0000000000000000e+00  1.1199314079735572e-09 4.0487972616682413e-08 0.0000000000000000e+00  7.2445903232075230e-09 3.1944775699502159e-08 0.0000000000000000e+00  1.1133056536844306e-07 1.5044115554542058e-07 0.0000000000000000e+00  -1.8896702028819057e-08 6.2127987974633502e-08 0.0000000000000000e+00  -3.3418505496408116e-07 -5.8203637294995895e-09 0.0000000000000000e+00  1.1544706022834468e-07 -1.5597470466852875e-07 0.0000000000000000e+00  -5.2249446661524940e-08 -9.6712159312836128e-08 0.0000000000000000e+00  -2.9731610413741526e-13 -6.7230878392473752e-15 0.0000000000000000e+00  -1.0102622570853682e-14 -4.4001117204017753e-14 0.0000000000000000e+00  -5.3508720346750774e-08 9.9223742494468724e-08 0.0000000000000000e+00  -2.0268117380269698e-09 2.4838067159362491e-08 0.0000000000000000e+00  -1.3575113347363587e-15 5.1428678162748782e-14 0.0000000000000000e+00  -1.6240025952124262e-09 -2.0129085228854302e-08 0.0000000000000000e+00  1.2947397692508145e-15 5.7950267094497218e-15 0.0000000000000000e+00  4.3610607233686286e-14 -3.2406503514100615e-15 0.0000000000000000e+00  -9.1357927376334569e-10 -4.4350240242780561e-09 0.0000000000000000e+00  -2.3550554219237033e-10 1.3032195164778824e-10 0.0000000000000000e+00  2.4031410791618902e-15 -3.0491496689895105e-14 0.0000000000000000e+00  4.4263681380284461e-08 -1.1003815620680793e-07 0.0000000000000000e+00  4.2333820042583128e-08 1.0524468567226200e-07 0.0000000000000000e+00  9.7317750339786395e-16 -2.8356067352450401e-15 0.0000000000000000e+00  -1.1026767302890710e-15 -4.1777966722607968e-14 0.0000000000000000e+00  -1.0353303594634832e-14 4.4128302902181689e-14 0.0000000000000000e+00  2.3606149206371711e-15 3.0557233668767237e-14 0.0000000000000000e+00  1.8068012876558552e-13 -7.8221868781040777e-15 0.0000000000000000e+00  2.4913280496455667e-07 -3.7059278158312840e-09 0.0000000000000000e+00  1.7560366092423802e-08 -5.7455589075878005e-08 0.0000000000000000e+00  3.5011364244261158e-11 -9.9153188672582721e-11 0.0000000000000000e+00  1.4988141696739284e-11 -5.6366021325466618e-11 0.0000000000000000e+00  9.9441791486530168e-15 -4.2491474542893738e-14 0.0000000000000000e+00  4.1380115785374102e-12 -2.0349228589602944e-11 0.0000000000000000e+00  5.9914969368052407e-11 -1.2960141261384402e-10 0.0000000000000000e+00  1.0257070094162625e-13 -6.1762126753537952e-15 0.0000000000000000e+00  -1.0275498125458168e-10 1.7924654349835929e-10 0.0000000000000000e+00  -9.2019468711961767e-08 1.1970118486005732e-07 0.0000000000000000e+00  -3.2815299487031974e-10 -8.8765344526537397e-12 0.0000000000000000e+00  -1.0366116620159967e-10 -1.7946655254894810e-10 0.0000000000000000e+00  -9.6762423298480066e-08 -1.2569717701371195e-07 0.0000000000000000e+00  -1.4453819217962493e-04 -1.6130214346903014e-04 0.0000000000000000e+00  -1.8366585289704881e-04 -1.1133558158404478e-04 0.0000000000000000e+00  -1.7573009741474700e-04 1.0592976464183322e-04 0.0000000000000000e+00  -1.4240774684519291e-04 1.5894283054045032e-04 0.0000000000000000e+00  1.9824934520896213e-12 3.6793552725326961e-11 0.0000000000000000e+00  1.1881642722382032e-12 1.2679190522668371e-11 0.0000000000000000e+00  2.0088824097982448e-09 2.4584076477803154e-08 0.0000000000000000e+00  -1.3234055225281418e-15 -5.5271898699652174e-15 0.0000000000000000e+00  -4.5268192693555282e-12 -2.2764392959477068e-11 0.0000000000000000e+00  -5.4091546349248823e-05 -8.5525153896723739e-05 0.0000000000000000e+00  -5.5185319908422961e-05 8.7529275328419089e-05 0.0000000000000000e+00  -1.2943419075920507e-12 1.3290131117175531e-11 0.0000000000000000e+00  -2.3618125384876530e-15 3.0543462491612067e-14 0.0000000000000000e+00  -2.0749850311965951e-12 3.8523141940498240e-11 0.0000000000000000e+00  -2.7710841895592934e-08 6.9530487413851134e-08 0.0000000000000000e+00  -2.7809503557249357e-11 7.9490487517457739e-11 0.0000000000000000e+00  1.0481644101577138e-04 -1.1880212579216083e-04 0.0000000000000000e+00  6.7694545078327627e-05 -1.0839322547490924e-04 0.0000000000000000e+00  6.5289306065991010e-05 1.0454160229823292e-04 0.0000000000000000e+00  1.0059251653366418e-04 1.1403997610848016e-04 0.0000000000000000e+00  -1.0171263957897957e-05 -3.8912878970998148e-05 0.0000000000000000e+00  -2.2848935337322529e-05 -6.5988012852607520e-05 0.0000000000000000e+00  -2.1697853018000798e-05 6.2603972728974216e-05 0.0000000000000000e+00  -1.0054928603513686e-05 3.8374789211760528e-05 0.0000000000000000e+00  1.1153898497643445e-05 -4.2712985750211899e-05 0.0000000000000000e+00  3.1843046673938850e-06 -1.6479995666950637e-05 0.0000000000000000e+00  3.1649298051711159e-06 1.6491529638434732e-05 0.0000000000000000e+00  1.0818177251692108e-05 4.1456765702942760e-05 0.0000000000000000e+00  5.8429179301248683e-09 3.7404573199713398e-05 0.0000000000000000e+00  1.7143422039670481e-06 3.0614397836028540e-05 0.0000000000000000e+00  1.5463292205569956e-06 -2.7524003515388040e-05 0.0000000000000000e+00  5.9319996169423163e-09 -3.3099308585804366e-05 0.0000000000000000e+00  4.0555346718927684e-10 -1.2358045397745928e-09 0.0000000000000000e+00  9.9360125932809512e-15 4.2654012743744016e-14 0.0000000000000000e+00  1.2837948461673592e-11 4.8362780075254421e-11 0.0000000000000000e+00  3.8298495032173343e-12 1.9085056042034851e-11 0.0000000000000000e+00  -1.2623787343917173e-11 -4.7493667999022970e-11 0.0000000000000000e+00  -2.5212469210054784e-14 -8.1665583666573948e-14 0.0000000000000000e+00  -2.5990158409710477e-11 -7.4452776705389174e-11 0.0000000000000000e+00  -1.8201101395689998e-15 -2.3991362809821619e-14 0.0000000000000000e+00  -1.9042744914876328e-18 1.9366434752499410e-17 0.0000000000000000e+00  -3.1376313523405661e-18 3.2537054705899676e-17 0.0000000000000000e+00  -3.2275279409045073e-05 -6.9878373151697012e-05 0.0000000000000000e+00  -3.2843648950655153e-05 7.1100562778188208e-05 0.0000000000000000e+00  -2.8634261485025922e-08 -7.2093636391571354e-08 0.0000000000000000e+00  3.3492856391411920e-11 9.4873955548015666e-11 0.0000000000000000e+00  1.6940738577587573e-08 5.5469200120295013e-08 0.0000000000000000e+00  5.7239147554179797e-11 1.2378984224895799e-10 0.0000000000000000e+00  -8.1429390050380700e-13 -9.0451216819669928e-12 0.0000000000000000e+00  8.2162248507534365e-10 4.1688650561375676e-09 0.0000000000000000e+00  1.2484590469167253e-14 4.4887529520404586e-11 0.0000000000000000e+00  -1.0241932231029774e-09 3.7368653161440576e-08 0.0000000000000000e+00  1.5680563052330961e-12 -1.5564890337326546e-11 0.0000000000000000e+00  1.8850335089821233e-12 -3.4676013262922746e-11 0.0000000000000000e+00  1.9708409406788239e-09 -2.3876318433125874e-08 0.0000000000000000e+00  9.7409829915661554e-18 1.7403595524513499e-17 0.0000000000000000e+00  1.3254107899169521e-15 4.9426109681270335e-14 0.0000000000000000e+00  -1.1423096012727010e-06 1.0525655470784375e-05 0.0000000000000000e+00  -1.6340352724744405e-06 2.9194727966868984e-05 0.0000000000000000e+00  -1.4265713316569030e-06 -2.5558235626729803e-05 0.0000000000000000e+00  -7.4025387540428999e-07 -7.0942256316720039e-06 0.0000000000000000e+00  2.4061741448896910e-18 -2.3454456857220260e-18 0.0000000000000000e+00  -1.6938130410158193e-12 -3.1619544860345228e-11 0.0000000000000000e+00  -9.4354135550943011e-10 -3.4332787554721270e-08 0.0000000000000000e+00  1.0236163920609391e-06 9.7090970606440761e-06 0.0000000000000000e+00  -3.3009200835086798e-06 -1.7309129360764301e-05 0.0000000000000000e+00  -7.4713239425414921e-09 -3.3322076050018232e-08 0.0000000000000000e+00  -2.3409880338505547e-06 1.2116370302530478e-05 0.0000000000000000e+00  1.1901273728318948e-06 -1.0895989656818030e-05 0.0000000000000000e+00  -6.4054677689311611e-09 2.8080093488291251e-08 0.0000000000000000e+00  -2.4018575411449813e-14 7.7602569002400311e-14 0.0000000000000000e+00  -1.314906