<?xml version="1.0"?>
<VTKFile type="UnstructuredGrid"  version="0.1"  >
<UnstructuredGrid>
<Piece  NumberOfPoints="2549" NumberOfCells="4928">
<Points>
<DataArray  type="Float64"  NumberOfComponents="3"  format="ascii">1.778487740886435 0.009389998758444758 0  1.774509947617428 0.05215102199881966 0  1.762610077092896 0.09248106513270561 0  1.749412753193357 0.1317457992966741 0  1.731618232991096 0.1703014641574822 0  1.71297308254193 0.2065277950785288 0  1.677400394432634 0.2362424063470672 0  1.688308341435601 0.278758995331035 0  1.632260654856174 0.3173747189481825 0  1.589661205133041 0.3217527252411326 0  1.622433943119666 0.3798097217930322 0  1.573384056485557 0.4241596461014696 0  1.523042343502738 0.4379429038269156 0  1.492068761928218 0.4685229979550434 0  1.451526989816591 0.4949541707551903 0  1.439450880016802 0.5386608250571832 0  1.382778680754622 0.5617538171646511 0  1.339732614006274 0.5670081045048728 0  1.3467925020399 0.6278784585690473 0  1.29659368454899 0.6722510067122319 0  1.240300451256847 0.6783411399018053 0  1.205142978621388 0.7130706637187261 0  1.164029932674964 0.7465690123010437 0  1.114669999569257 0.7673485234589289 0  1.070087424671478 0.7936998244950293 0  1.041545063713049 0.8440412152732525 0  0.9854000839937977 0.8665521965521423 0  0.9358375364809587 0.8905113343655437 0  0.8865959880751605 0.9211358944500091 0  0.8348889916769767 0.9490955517868053 0  0.7814330790274264 0.9770161780220059 0  0.7260169986167607 1.003362430420748 0  0.6686310848373104 1.0288613396282 0  0.6099406238179401 1.052991699555195 0  0.5488384648032306 1.075986670418117 0  0.4859582373682146 1.096940014346685 0  0.4213461706354275 1.116159425263791 0  0.3550237313799664 1.132926924402084 0  0.2872152539774922 1.147358327168502 0  0.218133229956147 1.159073026704947 0  0.147857020809597 1.167739385097582 0  0.07716677686826061 1.173183379523711 0  0.005723026631384043 1.175815886148417 0  -0.06561014449267584 1.175041700913334 0  -0.1368552459666268 1.171030790835109 0  -0.2073375441953568 1.163662997555855 0  -0.2771188284587576 1.153436583998235 0  -0.3454923208429384 1.139923585182922 0  -0.4122879434294441 1.123947619584493 0  -0.4779752364443145 1.10564826530658 0  -0.5415205747497557 1.085050266625819 0  -0.6031434893217944 1.061706169505685 0  -0.6631248396887589 1.037765511077048 0  -0.7206765412556825 1.011277351912744 0  -0.7763675812850085 0.9840918504625032 0  -0.8309364875188802 0.9563237952501032 0  -0.8810767026687408 0.9266877591202506 0  -0.9315998864000304 0.8972710702516761 0  -0.9799460221217491 0.8680923481385446 0  -1.027231466844104 0.8386843692184911 0  -1.072150917720698 0.807204343499858 0  -1.114596570891365 0.7787434674195334 0  -1.181381732161938 0.773309791002992 0  -1.190078714769933 0.703087360720729 0  -1.237945622844715 0.6817477410654451 0  -1.267378750023648 0.6456932636407624 0  -1.314207553921648 0.6295913340278548 0  -1.35741571195091 0.6140360784924028 0  -1.380024028409409 0.5591647538294098 0  -1.415355155318394 0.5598962097389919 0  -1.479856561186671 0.5334599805786369 0  -1.466715032239263 0.4148560799159493 0  -1.482221315752544 0.5969910841807242 0  -1.54277198323755 0.3959169975672266 0  -1.568546351114936 0.3685738948550615 0  -1.614934650899107 0.3433634391071236 0  -1.637045734632499 0.3104917378338852 0  -1.68210494605618 0.2907474483427185 0  -1.727758288984337 0.2533670449876991 0  -1.675038418629122 0.1793909768476876 0  -1.702910693859922 0.1794057995294082 0  -1.758713423014439 0.2098561670179057 0  -1.76326566243458 0.1097698715086468 0  -1.789831460465307 0.06322496693676104 0  -1.77681788326714 0.01858603266888782 0  -1.780302210857615 -0.02353841266271938 0  -1.759647352744123 -0.06844429994622837 0  -1.783821982522734 -0.1153549389904159 0  -1.721727355325113 -0.1496642227370009 0  -1.676500697061412 -0.1506115176290883 0  -1.725547408690574 -0.2080342248530167 0  -1.686642072916039 -0.2467727077797138 0  -1.649907011021321 -0.2803108329673682 0  -1.628243425366363 -0.3154263621955563 0  -1.58281309294665 -0.3470954226331255 0  -1.553270783295477 -0.3659828059831146 0  -1.583557640372119 -0.47760254677944 0  -1.478043423857225 -0.40430474261713 0  -1.495036783050255 -0.516009367444428 0  -1.423865790348494 -0.5303378950702776 0  -1.393431383195493 -0.538185509796941 0  -1.38221149205777 -0.6110056561049554 0  -1.331794701891217 -0.6163617000032053 0  -1.272112855852623 -0.6148722845235688 0  -1.26149596348932 -0.6600832133889855 0  -1.21490070515138 -0.6957283214289733 0  -1.211189348083362 -0.7814160137754098 0  -1.124663385762137 -0.7666546676789153 0  -1.090253207842096 -0.8020110113576884 0  -1.044098269129403 -0.8349896369480544 0  -0.9952860554008613 -0.8613328385561487 0  -0.9447603923379675 -0.8868592537020414 0  -0.9021414293024012 -0.9244175924537343 0  -0.8506314538614267 -0.9584441913145547 0  -0.7992540274289605 -0.9958727405806267 0  -0.7377558939391904 -1.017278018390277 0  -0.6809214891611982 -1.046557269591663 0  -0.6199885126968511 -1.072929418188823 0  -0.5575008168144118 -1.098655351381911 0  -0.4932725366899708 -1.122374999496735 0  -0.4256651508475571 -1.142493850987164 0  -0.3575857895914877 -1.1602192874766 0  -0.2875773135002689 -1.176299460225115 0  -0.2156710862287263 -1.188039275584963 0  -0.1430688372833539 -1.196905275413934 0  -0.06951072792213361 -1.20188399460747 0  0.004306626397532426 -1.203344647590056 0  0.0781495589001391 -1.200946665581844 0  0.1515579379083851 -1.194971249274257 0  0.2240826749121835 -1.185334795844962 0  0.2955359800401733 -1.172517093795944 0  0.3654415795492508 -1.156355383700914 0  0.4337863598798454 -1.13769287395491 0  0.4999210480590028 -1.115962642275711 0  0.5644714535651763 -1.092936029002257 0  0.6264744065302967 -1.066497507491973 0  0.6854663822589577 -1.040220515209975 0  0.7439702717416081 -1.012521075755596 0  0.7993963900244824 -0.9833407534458543 0  0.8530580473177135 -0.9528531799539084 0  0.9046272605520626 -0.9226040498633933 0  0.9535033769283263 -0.8896918408164441 0  1.002524361977426 -0.8630966392273898 0  1.05782197781757 -0.8382028345222341 0  1.086115855947661 -0.7879921593333766 0  1.130301120479168 -0.7601952136934063 0  1.178442765833318 -0.7363310242679041 0  1.218912036729519 -0.7022049080526601 0  1.2543425993416 -0.6672491702559635 0  1.309407591546143 -0.6566441399352093 0  1.360285175590472 -0.6142945016049118 0  1.345485069081793 -0.5480719953314951 0  1.387996057915905 -0.5410349763571346 0  1.446365012646854 -0.5254135720401985 0  1.460522536688679 -0.481273880746657 0  1.498489159900323 -0.4520475231767483 0  1.530101168379763 -0.4219916155820884 0  1.577658171810299 -0.4044920864859355 0  1.626169083676756 -0.3642700347838973 0  1.595620443631582 -0.3042524131017265 0  1.634565905906292 -0.2967712428176328 0  1.690341678669027 -0.261449893661301 0  1.681706431732207 -0.2188376405140899 0  1.715467850446407 -0.1878082000867975 0  1.733443194221615 -0.1510840206521208 0  1.750203145758134 -0.1123988295176403 0  1.762484936542577 -0.07295304116996856 0  1.774451759159196 -0.03332276437612414 0  -0.1133245235355908 0.7137645194867533 0  0.7036380918361672 -0.5216662942860026 0  -0.8642008935741702 -0.4418778232298737 0  -0.090824140424758 -0.7219634579117894 0  0.6916667490792007 0.5230880737725956 0  1.280776460275146 0.1872052954307326 0  -0.868397956192335 0.4425459898548382 0  -1.384593365822716 0.008364060260539284 0  1.28479232535818 -0.1724897228069469 0  -1.168791153968768 -0.3000566085462542 0  -0.8982934614576966 -0.004198878625139623 0  -0.5395111591160798 -0.1388402052202833 0  -1.174833503207391 0.2979440818556976 0  0.3472177450914773 -0.6838851817669348 0  0.1531214239777478 -0.2245091147476744 0  0.2965035322130516 0.6665252658121847 0  0.362030732324116 0.1973769033839803 0  0.7283988347792907 0.009850911655901386 0  -0.4936754859875324 -0.5952291916392937 0  -0.524258297539021 0.6072244047763895 0  -0.3041717453229181 0.2520858163498536 0  1.024500455645269 -0.326198959288906 0  1.018366487515846 0.3388692020392571 0  0.45901344116478 -0.2113172417034637 0  0.02813006114188282 0.2305236413055624 0  -0.6067620760196624 0.1936110114541097 0  -0.20379334023749 -0.2098585495699435 0  1.047782032584618 0.007881545562149263 0  1.489620582495603 0.008198594449777387 0  0.8647301637088505 -0.4172424701020442 0  0.8678713171487549 -0.1630790310696558 0  0.7009604836916725 -0.2445134428447081 0  0.5889429735251894 -0.09239639953781571 0  0.5767529852983506 -0.3713328247987961 0  1.026318529408579 -0.1549763164489769 0  0.8886950566514158 0.008728976836063822 0  -1.02868572025141 0.1509963717420623 0  -1.272322894785051 0.1460295297211725 0  -1.143318186906984 0.002072005521966955 0  -1.026352893704582 -0.1558842919240593 0  -1.268794747522732 -0.1380834267947622 0  -1.44986037393551 -0.2079428080294985 0  -1.565035536061024 -0.06820653607482105 0  -1.562624882779863 0.09281238037689477 0  -1.443262877704768 0.2278402849064959 0  -0.1509162154046808 -0.4658339637330298 0  -0.3397109592532599 -0.4073014714152118 0  -0.2985969523517765 -0.6661357601645629 0  -0.3703179356432571 -0.1704812941747355 0  -0.5138708098530075 -0.3611272619215204 0  -1.360287201353295 -0.3680804976143539 0  -1.356214530410487 0.3783717309545463 0  0.4073133631620049 -0.4422235663918258 0  0.306075528731229 -0.2124020691950306 0  0.2482865642120037 -0.4525996281036149 0  -1.02150294414597 0.3647916215847964 0  -0.8687422399021053 0.2124521063942324 0  1.471772943304098 -0.2358658997348187 0  1.336541768095264 -0.3579959160520927 0  1.330209025057277 0.3727572182009474 0  1.467501125088659 0.2518232625388035 0  -0.8766943028956649 -0.6783091804053257 0  -1.060437026168654 -0.5638414758546854 0  -1.05342523880319 0.5691037270753326 0  -0.8703468339591853 0.6785701164326485 0  0.8947487285422528 -0.6660191857404562 0  0.6938319002944953 -0.7765461012631365 0  0.680955079948137 0.770540197895491 0  0.8826783552389531 0.6691747106877046 0  0.01907395188457437
[...]
<PointData  Vectors="f_7821"> 
<DataArray  type="Float64"  Name="f_7821"  NumberOfComponents="3" format="ascii">1.0034337881314630e+00 5.6670393916140684e-04 0.0000000000000000e+00  9.8196803546309397e-01 2.0478080910522078e-01 0.0000000000000000e+00  9.5419305784779940e-01 3.0369131483001249e-01 0.0000000000000000e+00  9.2326411807932818e-01 3.8633288160112272e-01 0.0000000000000000e+00  9.3233056761667010e-01 3.6893682853104787e-01 0.0000000000000000e+00  7.0186469025974596e-01 7.7688573885724033e-01 0.0000000000000000e+00  9.9223318659757798e-01 1.5853531786994648e-01 0.0000000000000000e+00  9.5201675444317202e-01 3.1954216542921260e-01 0.0000000000000000e+00  2.7244739756027087e-01 1.1904808758051710e+00 0.0000000000000000e+00  6.8114902500482677e-01 -8.6670899496521092e-01 0.0000000000000000e+00  1.0080243639526694e+00 1.5084967865847970e-01 0.0000000000000000e+00  4.5001318768999043e-01 9.9807282025968458e-01 0.0000000000000000e+00  4.6766496906076599e-01 8.7385600827330845e-01 0.0000000000000000e+00  6.0381347551908437e-01 8.1234071593920376e-01 0.0000000000000000e+00  8.4815992059389556e-01 5.3342980314075272e-01 0.0000000000000000e+00  8.2351542116706278e-01 5.7861143019825378e-01 0.0000000000000000e+00  7.4545257738307863e-02 1.1923754520536323e+00 0.0000000000000000e+00  9.0872822039800250e-01 -1.3923055524051905e-01 0.0000000000000000e+00  9.9039275308676333e-01 3.3179776453917920e-01 0.0000000000000000e+00  3.5215412974098892e-01 9.8839781629988666e-01 0.0000000000000000e+00  3.2912567489922057e-01 9.4283730014267919e-01 0.0000000000000000e+00  7.7532964672388538e-01 6.7293546346779820e-01 0.0000000000000000e+00  4.8483492258208322e-01 8.7426315718351755e-01 0.0000000000000000e+00  3.5991685485878278e-01 9.5513944624580394e-01 0.0000000000000000e+00  8.0585895775708316e-01 6.1159456984408767e-01 0.0000000000000000e+00  6.9505215691473099e-01 7.2374160276181110e-01 0.0000000000000000e+00  3.1184601778535387e-01 9.7467166429557062e-01 0.0000000000000000e+00  5.1991236266108032e-01 8.5381541951299600e-01 0.0000000000000000e+00  5.0685340634534048e-01 8.6224036722117747e-01 0.0000000000000000e+00  4.6501738348014915e-01 8.8553053143897309e-01 0.0000000000000000e+00  4.4903434912711532e-01 8.9358556530731781e-01 0.0000000000000000e+00  4.1580197014673592e-01 9.0959535587610596e-01 0.0000000000000000e+00  3.9397308978310386e-01 9.1918245991567904e-01 0.0000000000000000e+00  3.6724322661129344e-01 9.3021476330736852e-01 0.0000000000000000e+00  3.3419050474925427e-01 9.4260234712946234e-01 0.0000000000000000e+00  3.0088923909056486e-01 9.5375673905594294e-01 0.0000000000000000e+00  2.6580328495080846e-01 9.6409207923590101e-01 0.0000000000000000e+00  2.2631079712819566e-01 9.7425046902371282e-01 0.0000000000000000e+00  1.8857640082215782e-01 9.8248306459287327e-01 0.0000000000000000e+00  1.4528102839455850e-01 9.8447583769570501e-01 0.0000000000000000e+00  9.8630852440888844e-02 1.0260628753384684e+00 0.0000000000000000e+00  5.8686011522336268e-02 9.0064471298455306e-01 0.0000000000000000e+00  5.6847720769999770e-03 9.4941781503054479e-01 0.0000000000000000e+00  3.2523853843124916e-02 -1.3518471551061151e+00 0.0000000000000000e+00  8.0307657080547032e-02 -9.5524679229301812e-01 0.0000000000000000e+00  1.2434025609860046e-01 -9.9116287180854434e-01 0.0000000000000000e+00  1.6931601762536527e-01 -9.8756032194650212e-01 0.0000000000000000e+00  2.1486121897791158e-01 -9.7628010034599289e-01 0.0000000000000000e+00  2.5047091998193100e-01 -9.6826894402535035e-01 0.0000000000000000e+00  2.8612462987731541e-01 -9.5835369448585461e-01 0.0000000000000000e+00  3.3490091014415363e-01 -9.4236569177944218e-01 0.0000000000000000e+00  3.6187647970824854e-01 -9.3228998503865979e-01 0.0000000000000000e+00  3.9245806206352202e-01 -9.1992934669538307e-01 0.0000000000000000e+00  4.3447783130679640e-01 -9.0072631910993206e-01 0.0000000000000000e+00  4.3965962902524008e-01 -8.9836562910773587e-01 0.0000000000000000e+00  4.8360101599330341e-01 -8.7544470541275154e-01 0.0000000000000000e+00  5.1160229420687708e-01 -8.5922617317920635e-01 0.0000000000000000e+00  5.0582547378808906e-01 -8.6279093353758751e-01 0.0000000000000000e+00  5.2456296605277286e-01 -8.5142912378481450e-01 0.0000000000000000e+00  5.3022503831320089e-01 -8.4827868836053499e-01 0.0000000000000000e+00  6.6371199195349873e-01 -7.5614932958304293e-01 0.0000000000000000e+00  1.3233828764786887e-01 -1.0862592915674469e+00 0.0000000000000000e+00  8.3191977272157913e-01 -5.0853944483111513e-01 0.0000000000000000e+00  9.3352151501848823e-01 -3.8760545120888162e-01 0.0000000000000000e+00  5.0964899761448135e-01 -8.9801456332196827e-01 0.0000000000000000e+00  6.8922864945072360e-01 -7.2711252225322776e-01 0.0000000000000000e+00  1.5783864632784750e-01 -1.0686098242421682e+00 0.0000000000000000e+00  8.1855650623256082e-01 -5.9625783681096356e-01 0.0000000000000000e+00  8.6714411163734784e-01 -4.9115738027939093e-01 0.0000000000000000e+00  6.3434595288881859e-02 -1.1948380170058344e+00 0.0000000000000000e+00  9.5293048509476519e-01 -3.0263613063417982e-01 0.0000000000000000e+00  1.0067450946012242e+00 2.1429703907572514e-01 0.0000000000000000e+00  9.9480562749738666e-01 -1.1853121701383870e-01 0.0000000000000000e+00  9.2981524524219084e-01 -4.0303452556921709e-01 0.0000000000000000e+00  4.9365056036996108e-01 -9.0542087099791757e-01 0.0000000000000000e+00  6.9243030330711508e-01 -7.1781555901461314e-01 0.0000000000000000e+00  6.6321286445646244e-01 -7.2833774763842840e-01 0.0000000000000000e+00  4.7151282550304896e-01 -1.0713969659891756e+00 0.0000000000000000e+00  9.7496031028226526e-01 1.0985159655640106e-01 0.0000000000000000e+00  7.2075613923020243e-01 7.7137557323644934e-01 0.0000000000000000e+00  1.5201819491106433e-01 1.0953865647610719e+00 0.0000000000000000e+00  9.5131898151788807e-01 3.6782349638286432e-01 0.0000000000000000e+00  9.9249441677398420e-01 -3.5021678008549012e-01 0.0000000000000000e+00  9.8174243080051027e-01 -1.5423006283851828e-01 0.0000000000000000e+00  9.9910835708236367e-01 1.2082180963403642e-01 0.0000000000000000e+00  9.6753061428693088e-01 2.8350163154915725e-01 0.0000000000000000e+00  1.0196312620518153e+00 -1.4925523542213351e-01 0.0000000000000000e+00  9.1038525915869151e-01 1.9332914763551340e-01 0.0000000000000000e+00  1.7250292585617577e-01 1.3258712680092928e+00 0.0000000000000000e+00  4.8986938021303167e-01 -9.5986162776275141e-01 0.0000000000000000e+00  9.6768452051943732e-01 -1.6613455776870556e-01 0.0000000000000000e+00  6.5540173787180345e-01 9.3419661460699432e-01 0.0000000000000000e+00  8.0177310574006833e-01 5.8271092686438952e-01 0.0000000000000000e+00  7.6840887499254273e-01 6.3288884684535995e-01 0.0000000000000000e+00  4.5086126212522865e-01 1.0088313273601528e+00 0.0000000000000000e+00  1.0465995501097300e+00 -1.9111448649003937e-02 0.0000000000000000e+00  7.5731025812106767e-01 -6.8557986185847031e-01 0.0000000000000000e+00  8.4326012576080100e-01 -6.0202666526170134e-01 0.0000000000000000e+00  1.0012184609491082e+00 1.4150952041901607e-01 0.0000000000000000e+00  -1.7910606263936982e-02 1.2966057949463348e+00 0.0000000000000000e+00  9.9625706305498141e-01 2.3581037834436375e-01 0.0000000000000000e+00  8.8705152058807779e-01 4.5176236887242804e-01 0.0000000000000000e+00  -1.9764156343126449e-01 1.2135262571939751e+00 0.0000000000000000e+00  7.5161524693848658e-01 5.7684254641343746e-01 0.0000000000000000e+00  7.6508918397706072e-01 6.3446309663168410e-01 0.0000000000000000e+00  1.0413221748682495e+00 4.6808594462179892e-01 0.0000000000000000e+00  5.2398373121026220e-01 -4.4607035634231501e-01 0.0000000000000000e+00  -1.0415161858201825e-02 8.2119013732162371e-01 0.0000000000000000e+00  7.9637064620894993e-01 7.1046655577390205e-01 0.0000000000000000e+00  4.8526079422575730e-01 8.6965131788935668e-01 0.0000000000000000e+00  4.2865386706841235e-01 9.0664509853072672e-01 0.0000000000000000e+00  5.7884873931431546e-01 8.1660870093511795e-01 0.0000000000000000e+00  6.1675453117018064e-01 7.8732782862865214e-01 0.0000000000000000e+00  5.8647659431082932e-01 8.1163148874961888e-01 0.0000000000000000e+00  4.5520319721509661e-01 8.9144634831471192e-01 0.0000000000000000e+00  3.6370421989114449e-01 9.3300279694202071e-01 0.0000000000000000e+00  4.5550690961736290e-01 8.9085548782554669e-01 0.0000000000000000e+00  3.7642405757468594e-01 9.2673907649995757e-01 0.0000000000000000e+00  3.7253824671112989e-01 9.2811416250308276e-01 0.0000000000000000e+00  3.1450859021060684e-01 9.4951347523159468e-01 0.0000000000000000e+00  2.6364628868234391e-01 9.6481141106349755e-01 0.0000000000000000e+00  2.4260400802141219e-01 9.6959245862568433e-01 0.0000000000000000e+00  1.9310192386820371e-01 9.8398629679911642e-01 0.0000000000000000e+00  1.3969679818821346e-01 9.8552925419401738e-01 0.0000000000000000e+00  9.5124861226992735e-02 9.6956168243086283e-01 0.0000000000000000e+00  4.4211373821125277e-02 1.2973670654371106e+00 0.0000000000000000e+00  9.0571968516570242e-04 -5.4392894955301074e-01 0.0000000000000000e+00  5.8421201075351245e-02 -9.6751535307717662e-01 0.0000000000000000e+00  1.0665097389684884e-01 -1.0167198204674266e+00 0.0000000000000000e+00  1.5398415771527776e-01 -9.8362949985680426e-01 0.0000000000000000e+00  2.0195220827439217e-01 -9.8000108624525062e-01 0.0000000000000000e+00  2.4345019667246473e-01 -9.7008990656389338e-01 0.0000000000000000e+00  2.9010732668285294e-01 -9.5708048119978983e-01 0.0000000000000000e+00  3.2248984035959727e-01 -9.4670177134465772e-01 0.0000000000000000e+00  3.6429856535448518e-01 -9.3144231677243827e-01 0.0000000000000000e+00  4.0486908897958662e-01 -9.1443042203439973e-01 0.0000000000000000e+00  4.1353791478866198e-01 -9.1059314889204412e-01 0.0000000000000000e+00  4.4565507079567246e-01 -8.9539824425199266e-01 0.0000000000000000e+00  4.8476033840676436e-01 -8.7470539093666766e-01 0.0000000000000000e+00  4.9474463594018531e-01 -8.6927604258086633e-01 0.0000000000000000e+00  5.3629893149411478e-01 -8.4424405564182703e-01 0.0000000000000000e+00  5.5460529967388528e-01 -8.3183603928761296e-01 0.0000000000000000e+00  3.5798584601475780e-01 -9.5544265536624440e-01 0.0000000000000000e+00  7.0836015605996727e-01 -7.1046096273604453e-01 0.0000000000000000e+00  8.0739022040660002e-01 -6.0633448828761460e-01 0.0000000000000000e+00  4.0658337034017072e-01 -9.3367707940601918e-01 0.0000000000000000e+00  5.2702021078990680e-01 -8.4972570086907051e-01 0.0000000000000000e+00  7.6288241019226044e-01 -6.7322347306620001e-01 0.0000000000000000e+00  3.9393142121543412e-01 -9.1578765708550558e-01 0.0000000000000000e+00  3.7487043854458646e-01 -9.9992362045438621e-01 0.0000000000000000e+00  9.9636665034955296e-01 -2.6658311785830008e-01 0.0000000000000000e+00  9.2553697155123715e-01 2.2979835683073785e-01 0.0000000000000000e+00  1.9999922080024490e-02 -1.2180507157727223e+00 0.0000000000000000e+00  7.6262762628212766e-01 -6.4132835795264209e-01 0.0000000000000000e+00  8.7322762906528428e-01 -5.0133503178890537e-01 0.0000000000000000e+00  6.2034235993995557e-01 -7.9875679452199633e-01 0.0000000000000000e+00  5.1837627337661452e-01 -8.4559158945754487e-01 0.0000000000000000e+00  4.5217680005821465e-01 -1.0094171228787459e+00 0.0000000000000000e+00  1.0027387210135237e+00 -1.1794143464042617e-01 0.0000000000000000e+00  7.6929628192352295e-01 6.5427662194336877e-01 0.0000000000000000e+00  2.7139865005071917e-01 -1.2337981707208019e+00 0.0000000000000000e+00  9.4229150503083259e-01 -3.2772086008217782e-01 0.0000000000000000e+00  9.9039366531938633e-01 -1.8209812775303882e-01 0.0000000000000000e+00  7.2720792977748705e-01 -7.4246266032127284e-01 0.0000000000000000e+00  9.3811836119250636e-01 -3.5377935357153478e-01 0.0000000000000000e+00  9.3356274079412760e-01 -3.5949359113848400e-01 0.0000000000000000e+00  9.5596679779662508e-01 -2.9708553717658431e-01 0.0000000000000000e+00  9.8080255188775822e-01 -2.1178344138374308e-01 0.0000000000000000e+00  1.1935229175854335e-01 -9.9632883122367522e-01 0.0000000000000000e+00  7.5584577210881598e-01 -6.5528651905787894e-01 0.0000000000000000e+00  8.4403356999779811e-01 5.3694166468630855e-01 0.0000000000000000e+00  9.6866446093895109e-02 8.9681426017074140e-01 0.0000000000000000e+00  7.2138317339811564e-01 6.9298318975688145e-01 0.0000000000000000e+00  9.7140313215163909e-01 2.3822227944727323e-01 0.0000000000000000e+00  8.1299258467565505e-01 -5.8273591268019376e-01 0.0000000000000000e+00  9.9921302651298094e-01 -4.2612979107801020e-02 0.0000000000000000e+00  9.7825358630229464e-01 -2.0832150067147906e-01 0.0000000000000000e+00  9.6128456210384228e-01 2.7626559523913430e-01 0.0000000000000000e+00  9.9948156089636242e-01 -4.0675746607512227e-02 0.0000000000000000e+00  9.7759991908208954e-01 2.1371654920816779e-01 0.0000000000000000e+00  9.3007522975024237e-01 -3.6784231230630376e-01 0.0000000000000000e+00  4.3438561966256201e-01 -9.0107352753242853e-01 0.0000000000000000e+00  6.6514556846456230e-01 -7.5253418982722020e-01 0.0000000000000000e+00  3.6587221018575949e-01 9.3094601325142989e-01 0.0000000000000000e+00  8.6284159569483887e-01 5.0736334773921099e-01 0.0000000000000000e+00  9.9971738429221135e-01 4.1757741367673670e-02 0.0000000000000000e+00  5.8860187938540798e-01 8.0884181083467910e-01 0.0000000000000000e+00  5.6296469468938737e-01 -8.2679981380802292e-01 0.0000000000000000e+00  7.1491813498725854e-01 -7.0087277174300433e-01 0.0000000000000000e+00  9.1762722956160869e-01 -3.9812793567499483e-01 0.0000000000000000e+00  8.9626302790045587e-01 4.4412411116794048e-01 0.0000000000000000e+00  9.2132562188710987e-01 -3.9073232693943238e-01 0.0000000000000000e+00  1.5959184822982639e-01 1.1567364284039552e+00 0.0000000000000000e+00  9.2312824348666900e-01 -3.8557701627694457e-01 0.0000000000000000e+00  7.2702797156180610e-01 6.9195232744281743e-01 0.0000000000000000e+00  9.9987121978826599e-01 2.5312587841254355e-02 0.0000000000000000e+00  1.0001479447457753e+00 7.5273135946765405e-03 0.0000000000000000e+00  8.5614824621302354e-01 -5.1743356041085287e-01 0.0000000000000000e+00  9.7831579362615573e-01 -2.0900842522576585e-01 0.0000000000000000e+00  9.3836063452756113e-01 -3.4739142312505467e-01 0.0000000000000000e+00  9.9136038323551090e-01 -1.3621382392976222e-01 0.0000000000000000e+00  8.3239336983226553e-01 -5.5520196695847168e-01 0.0000000000000000e+00  9.8235286401864308e-01 -1.8816558205475772e-01 0.0000000000000000e+00  9.9975815824257375e-01 3.2741510179680702e-02 0.0000000000000000e+00  9.7352443772413855e-01 -2.2953712902306098e-01 0.0000000000000000e+00  9.8105970592271752e-01 -1.9459804655486374e-01 0.0000000000000000e+00  9.9890927518684258e-01 -4.9629363955751571e-02 0.0000000000000000e+00  9.8945176885543318e-01 1.4646326586949468e-01 0.0000000000000000e+00  9.9650871936720942e-01 8.5033486980268760e-02 0.0000000000000000e+00  9.9223129854438064e-01 1.2467019842690576e-01 0.0000000000000000e+00  9.9973355147878018e-01 6.8760359485359780e-03 0.0000000000000000e+00  1.0001482554039451e+00 1.3239654354825223e-02 0.0000000000000000e+00  9.6218923322743144e-01 -2.7387866857099802e-01 0.0000000000000000e+00  2.7944631200577530e-01 9.7235306142699174e-01 0.0000000000000000e+00  6.3114716953081618e-01 7.7657391112723173e-01 0.0000000000000000e+00  3.6595981903035329e-01 9.3096135506486366e-01 0.0000000000000000e+00  9.3211762147389410e-01 3.6627162268635016e-01 0.0000000000000000e+00  8.0981311686827295e-01 5.8763368482683132e-01 0.0000000000000000e+00  9.8070393584351845e-01 1.9733597213271892e-01 0.0000000000000000e+00  9.2582362937600948e-01 -3.7802168982520468e-01 0.0000000000000000e+00  6.8349835493373723e-01 -7.3070010491414816e-01 0.0000000000000000e+00  8.6220359238362976e-01 -5.0949104584037375e-01 0.0000000000000000e+00  5.1200582678099171e-01 -8.5984394616708781e-01 0.0000000000000000e+00  8.8297579518839253e-01 -4.6991900956889610e-01 0.0000000000000000e+00  9.4417894455340290e-01 -3.3046906794058367e-01 0.0000000000000000e+00  9.6297224113422519e-01 -2.6989137740740154e-01 0.0000000000000000e+00  9.0369285618817319e-01 -4.2882745726143484e-01 0.0000000000000000e+00  8.9134305538147929e-01 4.5389303161613653e-01 0.0000000000000000e+00  9.5984652973916496e-01 2.8066397664080128e-01 0.0000000000000000e+00  6.5505069604798882e-01 7.5592452301957491e-01 0.0000000000000000e+00  7.7796836849549611e-01 6.2553319810118524e-01 0.0000000000000000e+00  7.5404283072991718e-01 -6.5722602916199901e-01 0.0000000000000000e+00  6.4561160049704369e-01 -7.6391682014093054e-01 0.0000000000000000e+00  6.9525087373447703e-01 -7.1899469818242301e-01 0.0000000000000000e+00  5.7281896018560519e-01 -8.1991823392896557e-01 0.0000000000000000e+00  5.4223333396423357e-01 8.4044140767270437e-01 0.0000000000000000e+00  6.6493111788809023e-01 7.4708802685617715e-01 0.0000000000000000e+00  2.0591675749713358e-02 -1.3727859557705078e+00 0.0000000000000000e+00  2.0564065377027591e-01 9.7852549919003884e-01 0.0000000000000000e+00  2.0126392792597000e-01 -9.8149684485873845e-01 0.0000000000000000e+00  4.8162134254032644e-03 8.6547999854555957e-01 0.0000000000000000e+00  6.2465169519441432e-01 -7.8130625143274257e-01 0.0000000000000000e+00  9.7537330054128835e-01 2.2402724392740014e-01 0.0000000000000000e+00  9.1014098518804543e-01 4.1561058965224895e-01 0.0000000000000000e+00  7.8006042872805703e-01 6.2656614291436330e-01 0.0000000000000000e+00  9.1119726530949963e-01 4.1309590714561323e-01 0.0000000000000000e+00  9.9887778204475153e-01 5.5501077891948421e-02 0.0000000000000000e+00  9.6796665389770553e-01 2.5255193623249683e-01 0.0000000000000000e+00  6.5991060309817240e-01 7.5376019220293200e-01 0.0000000000000000e+00  1.5796146912172068e-01 -1.0107747084935665e+00 0.0000000000000000e+00  1.0013629075519461e+00 5.9891200956887762e-02 0.0000000000000000e+00  8.7560725831777830e-01 4.8291619507061728e-01 0.0000000000000000e+00  8.2642467378957341e-01 -5.6342724266303335e-01 0.0000000000000000e+00  9.1433122259513722e-01 4.0565177734526303e-01 0.0000000000000000e+00  9.6262426391665945e-01 2.7219655006299104e-01 0.0000000000000000e+00  8.2710739855723281e-01 5.6263667789251359e-01 0.0000000000000000e+00  9.7130856623212847e-01 2.3868198058918366e-01 0.0000000000000000e+00  5.8766249324930397e-01 8.0972479604647740e-01 0.0000000000000000e+00  5.7559861793051337e-01 8.1807686590727724e-01 0.0000000000000000e+00  1.4718187475748321e-01 -8.9492612822207940e-01 0.0000000000000000e+00  1.9077021203785074e-01 -9.8190564536553737e-01 0.0000000000000000e+00  6.1733843989796588e-01 -7.8728620701351937e-01 0.0000000000000000e+00  3.5225377929126872e-01 -9.3662855145991197e-01 0.0000000000000000e+00  3.6451738445330994e-01 -9.3151428453413987e-01 0.0000000000000000e+00  1.0005948935166240e+00 3.2047429872173142e-02 0.0000000000000000e+00  -3.4805812465107952e-03 5.7863414618205967e-02 0.0000000000000000e+00  4.3441875585186956e-01 -9.0091245040156931e-01 0.0000000000000000e+00  2.3629712876102618e-01 -9.7154760471907120e-01 0.0000000000000000e+00  2.0353733444487468e-01 9.7963986318706964e-01 0.0000000000000000e+00  3.9492247191118207e-01 9.1889139766372896e-01 0.0000000000000000e+00  6.3812767363199874e-01 -9.8587491465510990e-01 0.0000000000000000e+00  3.1639393022666124e-01 9.4875754970845316e-01 0.0000000000000000e+00  1.2967546738762561e-01 1.0151258513705834e+00 0.0000000000000000e+00  3.9311403780330822e-01 9.1968365546569253e-01 0.0000000000000000e+00  5.6060809662759603e-01 8.2830637754850267e-01 0.0000000000000000e+00  7.4611938556412527e-01 6.6630371880405936e-01 0.0000000000000000e+00  5.3728144603164563e-01 -8.4359684534347679e-01 0.0000000000000000e+00  3.7928433320827581e-01 -9.2545423118986925e-01 0.0000000000000000e+00  7.1163788497517377e-01 -7.0291116039506030e-01 0.0000000000000000e+00  9.8295063552141471e-01 -1.8580029390436503e-01 0.0000000000000000e+00  8.6573455356821583e-01 -5.0119895558996130e-01 0.0000000000000000e+00  1.0005726536352870e+00 4.2588378781566140e-03 0.0000000000000000e+00  9.796