<?xml version="1.0"?>
<VTKFile type="UnstructuredGrid"  version="0.1"  >
<UnstructuredGrid>
<Piece  NumberOfPoints="2549" NumberOfCells="4928">
<Points>
<DataArray  type="Float64"  NumberOfComponents="3"  format="ascii">1.826628011340194 0.0100575475002409 0  1.823135000265728 0.05644548717862849 0  1.808311387533298 0.09836827340630702 0  1.794374680468875 0.1405924617923867 0  1.775238225291221 0.1805919223205764 0  1.754600722811564 0.2202017332171663 0  1.72991629808953 0.2578971287312279 0  1.705561241460526 0.29637981975479 0  1.670381447758591 0.3281516463499278 0  1.637901727065702 0.351262129209719 0  1.613380988937464 0.3928660200378405 0  1.579556460076418 0.4239313898709761 0  1.546693465735438 0.4573560056125953 0  1.511598347338283 0.4888295594136551 0  1.475392492911507 0.5193213132069064 0  1.438692677306982 0.5509665676920789 0  1.396143303276453 0.5756356035656803 0  1.358408440753897 0.5958410345493996 0  1.321989146108169 0.6320205110037731 0  1.281189253790137 0.659494607652736 0  1.24036429604343 0.6892057388089283 0  1.198156710497378 0.7176523371771615 0  1.15515565176094 0.7461940421608604 0  1.11131249545737 0.7754474106536915 0  1.064849990081697 0.8035507522378681 0  1.018358258080917 0.8278724684022571 0  0.9712686735976157 0.8556530158113096 0  0.9225640332528287 0.8827054156445658 0  0.8724991711960045 0.9094255190718389 0  0.8209932583055999 0.9356734353364616 0  0.7680003494328508 0.9612534052663736 0  0.7135086906743019 0.986455874586136 0  0.6569646076065137 1.009947143681228 0  0.5995565806881394 1.031908368690805 0  0.5402502423183887 1.054088599316469 0  0.4792521550209046 1.074090134268229 0  0.4166750749040721 1.092524904472041 0  0.3525980093184423 1.108972399555262 0  0.2871369992588051 1.123211787803495 0  0.2204820341844999 1.135379617203326 0  0.1525621058353182 1.144453633208759 0  0.084254698551046 1.150735923793695 0  0.01516313773801866 1.154772688350481 0  -0.0541557924514829 1.155449675457937 0  -0.1234379905281298 1.153198374237343 0  -0.1923729318410038 1.147816124048409 0  -0.2606625377346803 1.139565287349514 0  -0.3280285439171433 1.127925022521365 0  -0.3939535733863837 1.114569486986938 0  -0.459120070772783 1.098451247626388 0  -0.5224170985326431 1.079361198442996 0  -0.5840893680610273 1.058500292273549 0  -0.6440191665299476 1.035809260283684 0  -0.7021389606456954 1.011422007799143 0  -0.758496681876425 0.9861486763456656 0  -0.8127742264934451 0.9581325610720863 0  -0.8650207204443339 0.9335454348818869 0  -0.9175773187019238 0.9066589646700989 0  -0.9672066260801068 0.8773070764284939 0  -1.015480014365409 0.8484109560106454 0  -1.062445110407672 0.8194297634329286 0  -1.107881999763706 0.7894135119164518 0  -1.152611608376111 0.7613577470637722 0  -1.194367052385267 0.726162921525954 0  -1.234693304982883 0.7022979537037961 0  -1.279157050215225 0.6783390602745889 0  -1.319670311244088 0.6484500643962918 0  -1.359685233111481 0.6200239518576985 0  -1.398412479644057 0.5903270204507104 0  -1.437335819713156 0.5629462282446879 0  -1.472755845268795 0.5296805387655245 0  -1.515721385583411 0.5145811673279334 0  -1.556821140747306 0.4763914214243465 0  -1.579327193955058 0.4274512631017408 0  -1.611388133972919 0.3947525020444431 0  -1.638871467671421 0.3582299873715347 0  -1.668494464383773 0.3242884589538682 0  -1.691580957447247 0.2858133030811305 0  -1.723010123250737 0.2552155388227295 0  -1.727261666698382 0.2057779256952108 0  -1.765433993856883 0.1912922122173512 0  -1.806948573959035 0.1534324271411052 0  -1.805308336467848 0.1055704001997733 0  -1.820896726071893 0.06186192780492102 0  -1.819151713964946 0.01677767361497101 0  -1.822109673396046 -0.02836796995310506 0  -1.806732838115838 -0.07222781780855372 0  -1.810540944510304 -0.1206403116052465 0  -1.767671438231513 -0.1583329273271906 0  -1.729004666126833 -0.1710146654131197 0  -1.72776885391978 -0.2224723158699743 0  -1.696515111779721 -0.2529929693210915 0  -1.674770067744285 -0.2924633135608322 0  -1.645903624967829 -0.3270323204932357 0  -1.619314869262276 -0.3643771403361525 0  -1.587632952974112 -0.3972666254574649 0  -1.566862323894331 -0.4474744436047649 0  -1.527131830155018 -0.4892869336669797 0  -1.483872094730211 -0.5033091488355533 0  -1.449275165632159 -0.5378693816294827 0  -1.410806196158238 -0.5656491249467813 0  -1.372734094424925 -0.5961400930549239 0  -1.333274329757774 -0.6251600129655339 0  -1.293353095042447 -0.6557373847847024 0  -1.249395990908072 -0.6794708279663697 0  -1.210340742041598 -0.704078067379078 0  -1.169622262805728 -0.7419007355630511 0  -1.125603102522498 -0.7710098932097357 0  -1.080992598681268 -0.8027242407751953 0  -1.034804069581974 -0.8333349753793675 0  -0.9872190745739213 -0.8639278476503087 0  -0.9380456435286415 -0.894603368770808 0  -0.8865965984825608 -0.9220876988570571 0  -0.8356710172332853 -0.9504550715822152 0  -0.7817109838319578 -0.9830441802366696 0  -0.7254717446885087 -1.010920948514463 0  -0.6673772852507432 -1.03872580517522 0  -0.607249016425095 -1.064634269325361 0  -0.5451503111060786 -1.088843318017943 0  -0.4811866436980877 -1.111624308404724 0  -0.4147499159174703 -1.130865211577643 0  -0.3477179852658824 -1.147002729177503 0  -0.2787439977883059 -1.162067861167185 0  -0.2084873464589185 -1.173202847481433 0  -0.1372755672786296 -1.181180817666258 0  -0.06543689692164995 -1.185596052779103 0  0.006661384785164023 -1.186520795640971 0  0.07867949157625517 -1.183823911666986 0  0.1502312931655496 -1.177646956344854 0  0.2209189182291789 -1.168060160348644 0  0.2905306214849256 -1.155395597938891 0  0.3587389133061956 -1.139721681090491 0  0.425326916119763 -1.121418369829022 0  0.490112536392949 -1.100629056110705 0  0.5529934854627949 -1.078109604664995 0  0.6137583958584885 -1.052529635470083 0  0.6720183389801322 -1.028726477402889 0  0.7299522146544918 -1.002668562466247 0  0.7850042874649672 -0.9741147885942564 0  0.8383242695477536 -0.9456410814480153 0  0.8899269210551251 -0.9166026021267033 0  0.9398846702992197 -0.8872662210327988 0  0.9883099152898539 -0.8577355770672477 0  1.034997506341958 -0.8277721501281665 0  1.081017369193692 -0.8013360928403864 0  1.126831256567618 -0.7711860457810085 0  1.17004108869689 -0.7402191648873969 0  1.212346771231603 -0.710058613918927 0  1.253857789021454 -0.680176820560449 0  1.293937075607571 -0.6490705564311805 0  1.334070886538549 -0.6205317598302116 0  1.369603894482288 -0.5827688604384642 0  1.406511316197533 -0.5619300636882975 0  1.448569378920672 -0.5367739549139888 0  1.484632562278367 -0.5043176955072772 0  1.520210845454402 -0.4731034273530865 0  1.554642057942175 -0.4408912550621691 0  1.586792560660852 -0.4067331069210113 0  1.620024690981196 -0.3751464293525703 0  1.643555030395896 -0.3325661609939796 0  1.675516372414929 -0.3094637462497499 0  1.710248130070829 -0.2773384619180873 0  1.733799000176725 -0.2383248340107201 0  1.757721900952265 -0.2002214012127885 0  1.77756878016169 -0.160277237157847 0  1.795624494878096 -0.1199476337510465 0  1.80940953805973 -0.07784265138684397 0  1.822065149992389 -0.0354873592156664 0  -0.1073310831691326 0.7032004122285322 0  0.7030203018344836 -0.519132470638226 0  -0.8685183414799037 -0.4420636236018699 0  -0.08793198339308116 -0.7130261562522566 0  0.6926165235795787 0.5127313260447947 0  1.306761199197185 0.1905793564219263 0  -0.8748302309641516 0.4507595941961325 0  -1.412453759836438 0.01131528611918503 0  1.311222504442004 -0.1781104872861565 0  -1.184672772401979 -0.3035407102647619 0  -0.914851867065172 -0.0005785922016416367 0  -0.5491200116523356 -0.138123750803129 0  -1.193166057246163 0.3095370274412318 0  0.342894541443905 -0.6752829208284388 0  0.1440181630642986 -0.2219596406377595 0  0.2960489075433005 0.6504733516438327 0  0.3634308339081336 0.1875827063859749 0  0.738832831527469 0.005150555219227429 0  -0.4895714961361612 -0.5919673719748437 0  -0.5201001281134694 0.6088110994624564 0  -0.312063222604429 0.2553617887222835 0  1.037525435388136 -0.3297856329462021 0  1.031210309423764 0.3375718084495427 0  0.458843935599169 -0.2134127143518861 0  0.02369915705653375 0.2280656523261307 0  -0.6176980178359031 0.1984060591763305 0  -0.2092875453112059 -0.2058563960526861 0  1.068633139532319 0.005511314691078894 0  1.526091788888709 0.007984279929269278 0  0.8703888471601677 -0.4181108181998132 0  0.881059579033121 -0.1660717652839219 0  0.7075091590590527 -0.2463186077292575 0  0.594197028569887 -0.09680002340380467 0  0.5776666846076283 -0.3704360088222384 0  1.044726110260677 -0.1583256084525364 0  0.9042542703432767 0.005286671779480579 0  -1.047188688277809 0.1580237318535977 0  -1.296637055326992 0.154475787008804 0  -1.165261671865633 0.005885139623232057 0  -1.04349458324977 -0.1550764007355095 0  -1.291863361852019 -0.1394353697283234 0  -1.47500088107365 -0.2154476571010012 0  -1.597222756514385 -0.07129656047801987 0  -1.595450810114257 0.09892319494692675 0  -1.470096036933761 0.2407278434837294 0  -0.1492208548952326 -0.4606672770456862 0  -0.3390050475657823 -0.4050174305148835 0  -0.2934973564675416 -0.6600113612234472 0  -0.3776437432902324 -0.1695613784006132 0  -0.5163322690781711 -0.3603604699733552 0  -1.377360134099908 -0.3770771165336813 0  -1.376222520397417 0.3942908797036954 0  0.4045729979698731 -0.4387324925673134 0  0.3009772730513353 -0.2133341488366725 0  0.2447457682327304 -0.4474456751787088 0  -1.034066954133192 0.3749903054171126 0  -0.8828956909469028 0.2191214408632399 0  1.502099323257391 -0.2454249791214422 0  1.356900084890339 -0.3690262271022711 0  1.349653393465969 0.3817101798072199 0  1.497098526049081 0.2607428729638899 0  -0.8720332788977946 -0.6780725861401454 0  -1.061281991740034 -0.5652260714070794 0  -1.056865705447866 0.5803693582078194 0  -0.86559782155281 0.6862284644231468 0  0.8902712514860599 -0.6640256913042414 0  0.6856118600543811 -0.7694504229161393 0  0.6743675093538239 0.7562459913104085 0  0.878857585791112 0.6612875759986083 0  0.020223
[...]
<PointData  Vectors="f_2206"> 
<DataArray  type="Float64"  Name="f_2206"  NumberOfComponents="3" format="ascii">-2.5379227442575977e-02 3.1087939066661765e-03 0.0000000000000000e+00  -2.5646822842866714e-02 1.2196659102910003e-03 0.0000000000000000e+00  -2.4192784762077535e-02 4.1642950614423986e-04 0.0000000000000000e+00  -2.4000707456091345e-02 -1.1338701144143135e-03 0.0000000000000000e+00  -2.3475241241670313e-02 -2.0658261066264631e-03 0.0000000000000000e+00  -2.2000583277744668e-02 -3.3361801270257569e-03 0.0000000000000000e+00  -2.3843600869863760e-02 -4.7284087353608936e-03 0.0000000000000000e+00  -1.4710690028162728e-02 -2.4971046000182590e-03 0.0000000000000000e+00  -2.7629498211851497e-02 -1.1529652993101389e-02 0.0000000000000000e+00  -2.2345157595715308e-02 -1.1737399263617729e-02 0.0000000000000000e+00  -1.4479960444452327e-03 5.5924333861521805e-03 0.0000000000000000e+00  -1.0950796325184422e-02 -3.7003523217139394e-03 0.0000000000000000e+00  -1.1810038570392404e-02 -6.0435600899995034e-03 0.0000000000000000e+00  -9.9659747201951351e-03 -6.5320127418562616e-03 0.0000000000000000e+00  -1.1516541699768495e-02 -8.0254902728068497e-03 0.0000000000000000e+00  -4.8639895467595352e-03 -6.0906834633602594e-03 0.0000000000000000e+00  -9.6373771615343475e-03 -7.5126535059624093e-03 0.0000000000000000e+00  -7.6089542266345421e-03 -1.1285793348647296e-02 0.0000000000000000e+00  6.4476777429565658e-03 9.6427352099200826e-03 0.0000000000000000e+00  8.1013491677089412e-04 8.1129321721788554e-04 0.0000000000000000e+00  1.7258026790523663e-04 -3.1554436311334453e-04 0.0000000000000000e+00  1.4884014430864990e-03 -2.2800717063662542e-04 0.0000000000000000e+00  2.8792044206237600e-03 1.8225228288109038e-03 0.0000000000000000e+00  2.7996936826600112e-03 1.9220550417428440e-03 0.0000000000000000e+00  2.3561802238904845e-03 -8.9353277864769498e-04 0.0000000000000000e+00  7.1343272057111887e-03 7.9900025757294550e-03 0.0000000000000000e+00  4.8331750685726704e-03 6.8739887159239834e-03 0.0000000000000000e+00  5.0474459302406235e-03 6.7289017415707716e-03 0.0000000000000000e+00  5.2855423643838667e-03 8.4776042858292332e-03 0.0000000000000000e+00  5.0312640315272024e-03 9.1310223941591731e-03 0.0000000000000000e+00  4.7540785158347474e-03 1.0350492157994991e-02 0.0000000000000000e+00  4.1710451081487738e-03 1.0807448526512163e-02 0.0000000000000000e+00  3.6511539196428721e-03 1.1702936953401237e-02 0.0000000000000000e+00  2.9292371535818160e-03 1.2854585441791898e-02 0.0000000000000000e+00  1.8789305559683354e-03 1.3138408189016935e-02 0.0000000000000000e+00  8.0901583422894922e-04 1.3477514068354056e-02 0.0000000000000000e+00  -3.3712765494764202e-04 1.3784142976220874e-02 0.0000000000000000e+00  -1.5887467796268360e-03 1.3805143729590130e-02 0.0000000000000000e+00  -2.8942200059512975e-03 1.3775442715208466e-02 0.0000000000000000e+00  -4.2371792790963491e-03 1.3375607542391229e-02 0.0000000000000000e+00  -5.5278625436051996e-03 1.3032619314449172e-02 0.0000000000000000e+00  -6.8358816496762297e-03 1.2444172513907996e-02 0.0000000000000000e+00  -8.1247453396716511e-03 1.1533507043934113e-02 0.0000000000000000e+00  -9.2171593252641324e-03 1.0626071003064829e-02 0.0000000000000000e+00  -1.0287864743415089e-02 9.5418412972903526e-03 0.0000000000000000e+00  -1.1121001826581371e-02 8.3297740222649241e-03 0.0000000000000000e+00  -1.1933781535715256e-02 7.1712612437808644e-03 0.0000000000000000e+00  -1.2476618578882501e-02 6.0449937796520064e-03 0.0000000000000000e+00  -1.2940072409862535e-02 4.4429528145149191e-03 0.0000000000000000e+00  -1.3243066243547152e-02 3.2700239254773475e-03 0.0000000000000000e+00  -1.3357742652989890e-02 2.2905541683610462e-03 0.0000000000000000e+00  -1.3351561163792058e-02 8.1905923919324130e-04 0.0000000000000000e+00  -1.3390864960434847e-02 1.2208232462112024e-04 0.0000000000000000e+00  -1.2941873226300062e-02 -1.4405596299813656e-03 0.0000000000000000e+00  -1.3094386069717455e-02 -1.2559542899709972e-03 0.0000000000000000e+00  -1.3119293422621803e-02 -2.3023304318205849e-03 0.0000000000000000e+00  -1.1470229551275669e-02 -5.6300812610008870e-03 0.0000000000000000e+00  -1.1028500891978769e-02 -6.0454009524583069e-03 0.0000000000000000e+00  -1.0363564551524198e-02 -6.1003464995645412e-03 0.0000000000000000e+00  -9.7022769717503947e-03 -7.2477548577094247e-03 0.0000000000000000e+00  -8.4709910153077019e-03 -7.8079521956275462e-03 0.0000000000000000e+00  -9.4228985600000228e-03 -5.9055142036488163e-03 0.0000000000000000e+00  -1.0458921835149713e-02 -5.2892622534138952e-03 0.0000000000000000e+00  2.8492327479621570e-04 -1.8632926516009517e-02 0.0000000000000000e+00  -7.6614472794385644e-03 -3.2791090318669744e-03 0.0000000000000000e+00  -2.6467315780064164e-03 -1.5573983174991219e-02 0.0000000000000000e+00  1.6020283123244050e-03 -1.5641262256031591e-02 0.0000000000000000e+00  1.1076820043687441e-04 -1.0955481303561165e-02 0.0000000000000000e+00  3.9576959297587871e-03 -1.7458617368523541e-02 0.0000000000000000e+00  6.4331734555467062e-04 3.2933672209057886e-03 0.0000000000000000e+00  -1.1252217464460099e-02 3.1680772178744199e-05 0.0000000000000000e+00  2.9595287715096081e-02 -6.4662401977399434e-02 0.0000000000000000e+00  -2.7336456312169747e-02 3.4718779117149765e-03 0.0000000000000000e+00  2.2690608572626975e-02 -3.0421364817868064e-02 0.0000000000000000e+00  2.3254115946727282e-02 -2.0711088929919699e-02 0.0000000000000000e+00  1.0558568240844352e-02 -1.3703744905722256e-02 0.0000000000000000e+00  1.4730605828849155e-02 -1.3992680536290809e-02 0.0000000000000000e+00  1.1631012820329174e-03 -6.0439529839088242e-03 0.0000000000000000e+00  -9.4984373463438947e-03 -9.8708864714345083e-03 0.0000000000000000e+00  3.3228579433298676e-02 -2.1344832372417136e-02 0.0000000000000000e+00  3.2729919785115226e-02 -1.5309767884683025e-02 0.0000000000000000e+00  8.5097506816301845e-03 -8.6232801663072133e-03 0.0000000000000000e+00  3.2501901908231594e-02 -9.6420524579684842e-03 0.0000000000000000e+00  2.5827468189256946e-02 -8.3890849527476618e-03 0.0000000000000000e+00  2.5735702429344288e-02 -7.4141721945730956e-03 0.0000000000000000e+00  2.4585868589476378e-02 -7.1601410175253797e-03 0.0000000000000000e+00  3.0807316928533241e-02 -5.7362635531884058e-03 0.0000000000000000e+00  1.3797502187311610e-02 -5.0962963456825444e-03 0.0000000000000000e+00  3.0119130917568761e-02 -1.9905049065009070e-03 0.0000000000000000e+00  3.2285868415305986e-02 5.2498288294179959e-03 0.0000000000000000e+00  5.1486620971591900e-04 1.4779686109677503e-04 0.0000000000000000e+00  4.8396006230600874e-03 -6.4932538962664058e-03 0.0000000000000000e+00  1.7408036479002048e-02 1.9400585652697101e-04 0.0000000000000000e+00  1.3931544235692546e-02 6.1763202588304930e-04 0.0000000000000000e+00  2.7430568654885842e-02 8.1893367800495165e-03 0.0000000000000000e+00  2.2610471494440797e-02 1.5042339605755860e-02 0.0000000000000000e+00  -2.2702132189005408e-02 -1.5365688372085809e-02 0.0000000000000000e+00  2.9256243062731332e-02 4.8750213927566115e-02 0.0000000000000000e+00  -7.6780594908706628e-03 -1.4088911449145329e-02 0.0000000000000000e+00  4.0441779246052287e-03 -1.6823566571205553e-02 0.0000000000000000e+00  8.9579576866623007e-03 5.7416377888607970e-03 0.0000000000000000e+00  5.0279252829783733e-03 -5.3510014075980686e-04 0.0000000000000000e+00  7.0712378305968241e-03 4.8071223281349251e-03 0.0000000000000000e+00  2.6721728576726933e-03 5.5646137186733070e-03 0.0000000000000000e+00  -4.8426627682565115e-03 -1.1404824465779048e-02 0.0000000000000000e+00  8.9967674880065823e-03 1.0674799304898740e-02 0.0000000000000000e+00  -6.0191021443941999e-03 -4.8585297420260824e-03 0.0000000000000000e+00  -4.1198273083545645e-03 -4.8979202892911458e-03 0.0000000000000000e+00  -2.0482054629210994e-03 -1.4165056819278280e-03 0.0000000000000000e+00  -3.1544796312116029e-03 -1.8267236657019768e-03 0.0000000000000000e+00  -3.2593032421672800e-03 -2.4023242167112943e-03 0.0000000000000000e+00  -3.3503394479260811e-03 -5.9259344798637682e-04 0.0000000000000000e+00  -6.2982519509807077e-03 -6.7185501305644822e-03 0.0000000000000000e+00  -3.3246228634546747e-03 -2.9390717281023589e-03 0.0000000000000000e+00  -5.2785927282509451e-03 -4.9673336690625553e-03 0.0000000000000000e+00  -4.4792050695172062e-03 -5.4917972910738513e-03 0.0000000000000000e+00  -4.4531354575427290e-03 -5.4933684114895935e-03 0.0000000000000000e+00  -4.0553009425822730e-03 -5.6150755961353917e-03 0.0000000000000000e+00  -3.7907749353473636e-03 -6.2307417827109062e-03 0.0000000000000000e+00  -3.6016579089749269e-03 -6.6705775692709754e-03 0.0000000000000000e+00  -2.9658683116305902e-03 -6.7525011840799199e-03 0.0000000000000000e+00  -2.4320118678027498e-03 -7.5263891080181314e-03 0.0000000000000000e+00  -1.8690480296497962e-03 -7.9257106128176082e-03 0.0000000000000000e+00  -1.0335643402006949e-03 -8.0243545545778637e-03 0.0000000000000000e+00  -3.1209376196830756e-04 -8.3471317389663038e-03 0.0000000000000000e+00  5.4731314456163524e-04 -8.4929176866556863e-03 0.0000000000000000e+00  1.4164149277982561e-03 -8.6317245502809409e-03 0.0000000000000000e+00  2.3249047709813010e-03 -8.6492956696285258e-03 0.0000000000000000e+00  3.2496017979308550e-03 -8.6317046708727606e-03 0.0000000000000000e+00  4.1581267193913536e-03 -8.4878093657533883e-03 0.0000000000000000e+00  5.0664263712946068e-03 -8.2906953980931772e-03 0.0000000000000000e+00  5.8951261339204629e-03 -7.9214928411711471e-03 0.0000000000000000e+00  6.7553533005316815e-03 -7.6533093534149289e-03 0.0000000000000000e+00  7.3766826626827896e-03 -6.9865079911505274e-03 0.0000000000000000e+00  8.2412078464463492e-03 -6.8633323812179780e-03 0.0000000000000000e+00  8.8505554008670821e-03 -6.1939770469224588e-03 0.0000000000000000e+00  9.0178431640417552e-03 -4.5565270854009852e-03 0.0000000000000000e+00  9.3824092330721202e-03 -3.9883037175171424e-03 0.0000000000000000e+00  9.4684958920224337e-03 -3.4274322207645770e-03 0.0000000000000000e+00  9.5394421644659604e-03 -2.2954793129604943e-03 0.0000000000000000e+00  9.4974045187244047e-03 -1.6656918334713733e-03 0.0000000000000000e+00  8.9769152410442282e-03 2.8375223446799856e-05 0.0000000000000000e+00  8.6026828114243396e-03 -2.0992874672095760e-04 0.0000000000000000e+00  1.0709615044558377e-02 -1.1755272936118937e-03 0.0000000000000000e+00  5.3845902392459944e-03 7.4344075622546982e-03 0.0000000000000000e+00  5.8302815644205455e-03 4.5370804285093189e-03 0.0000000000000000e+00  5.6829544037691289e-03 4.7649268799675459e-03 0.0000000000000000e+00  4.1307251393909025e-03 6.6463796510515946e-03 0.0000000000000000e+00  2.5486214403983602e-03 6.7774384761479338e-03 0.0000000000000000e+00  3.5703652553106717e-03 5.0244010931273552e-03 0.0000000000000000e+00  9.9432366639648807e-03 -3.8950692511775208e-03 0.0000000000000000e+00  -7.5424773514985782e-03 1.9281548798621543e-02 0.0000000000000000e+00  -7.6119471127536042e-03 1.2239893011936273e-02 0.0000000000000000e+00  -3.1934877977227902e-03 1.2560592814291238e-02 0.0000000000000000e+00  -1.0588838983705369e-02 1.4468375447056616e-02 0.0000000000000000e+00  -8.6955697095104385e-03 1.2753120844819337e-02 0.0000000000000000e+00  -1.0693131769718402e-02 1.2279307719561835e-02 0.0000000000000000e+00  -9.7039012559974758e-03 9.8581166583939731e-03 0.0000000000000000e+00  9.6987982104046862e-05 6.1319303171310311e-04 0.0000000000000000e+00  -2.2035225676090391e-02 1.7943039999103606e-02 0.0000000000000000e+00  -2.7170829958789874e-02 1.7525431154128066e-02 0.0000000000000000e+00  -1.3879484532166681e-02 8.6035944753242253e-03 0.0000000000000000e+00  -2.3473081762688589e-02 1.0900716251897402e-02 0.0000000000000000e+00  -2.1620500271336662e-02 9.5044122070371533e-03 0.0000000000000000e+00  -2.3101468222159027e-02 8.2471369910519683e-03 0.0000000000000000e+00  -2.3804177002692245e-02 7.3444678490342244e-03 0.0000000000000000e+00  -2.4592223521610754e-02 5.9743557991734225e-03 0.0000000000000000e+00  -2.5025073851035532e-02 4.5947353365374862e-03 0.0000000000000000e+00  -5.4467793040268529e-03 5.9107598087651328e-03 0.0000000000000000e+00  1.5127363665358067e-03 1.0988060357259255e-04 0.0000000000000000e+00  4.1221292302893548e-03 -1.8865295300888730e-03 0.0000000000000000e+00  4.2606526774596932e-04 -4.6250406084300116e-03 0.0000000000000000e+00  -1.7756446275919145e-03 7.2289901497265985e-03 0.0000000000000000e+00  -1.4251956047708444e-02 7.0742325301730317e-04 0.0000000000000000e+00  1.2326928177343575e-03 -5.7788238408144673e-03 0.0000000000000000e+00  1.6884025923235874e-02 -5.9411105387395750e-03 0.0000000000000000e+00  -1.3723819118660739e-02 5.4841383408442950e-03 0.0000000000000000e+00  1.0047275315130780e-02 -1.6849654728805820e-03 0.0000000000000000e+00  9.2080381326454137e-03 -3.8183323068791061e-03 0.0000000000000000e+00  5.7174710033084074e-03 -1.3266433907909447e-03 0.0000000000000000e+00  8.2765726553343470e-03 -8.4907610610952377e-03 0.0000000000000000e+00  3.8919847342041148e-03 -3.6705189655129511e-03 0.0000000000000000e+00  5.7563019746304251e-03 -6.1451280438041926e-04 0.0000000000000000e+00  -1.6392242213070247e-03 9.5931959589187956e-03 0.0000000000000000e+00  -1.2574113415406765e-03 6.4474104899286296e-03 0.0000000000000000e+00  -5.5413947924337547e-03 4.1671703390650039e-03 0.0000000000000000e+00  -2.6307184260379102e-04 -2.6446280632278826e-03 0.0000000000000000e+00  -4.5901397425966908e-03 -1.4030214761049983e-03 0.0000000000000000e+00  3.0113867810046898e-03 -1.7096618133298355e-03 0.0000000000000000e+00  -6.1324389855634352e-03 3.8235095324557593e-03 0.0000000000000000e+00  -7.5502031767384044e-03 2.9231527474913688e-03 0.0000000000000000e+00  7.1704818541329244e-04 2.3199750588492451e-03 0.0000000000000000e+00  1.2554305773900423e-03 2.2226027773329508e-03 0.0000000000000000e+00  4.9402001676038775e-03 -3.3969858910565154e-03 0.0000000000000000e+00  3.8378172558880632e-03 -1.9857987283281751e-03 0.0000000000000000e+00  -1.1128301418936240e-02 3.3811372047022202e-03 0.0000000000000000e+00  -1.9392109842050559e-02 3.0097417946617993e-03 0.0000000000000000e+00  -2.0149069136795308e-03 2.1441290807117613e-03 0.0000000000000000e+00  -6.6048663799098102e-03 3.3748332899790527e-03 0.0000000000000000e+00  -2.8507305689156404e-03 2.4865829234606424e-03 0.0000000000000000e+00  -2.5061085456413675e-03 3.7728270702181987e-03 0.0000000000000000e+00  4.5390252421774463e-04 8.3944536713050218e-04 0.0000000000000000e+00  -9.4325533295551815e-03 3.7913418680067560e-03 0.0000000000000000e+00  -8.2851823384073771e-03 3.7207267597846286e-03 0.0000000000000000e+00  9.5400292433916317e-03 -5.8432075036641976e-03 0.0000000000000000e+00  1.3387840815288739e-02 -7.8031990012009996e-03 0.0000000000000000e+00  1.2679521931162535e-02 -4.9389950834137480e-03 0.0000000000000000e+00  1.0369106128396860e-02 -3.0286868208242420e-03 0.0000000000000000e+00  1.4314464296284768e-02 -3.1698967186616915e-03 0.0000000000000000e+00  1.6528589870424819e-02 -5.5804954648190912e-04 0.0000000000000000e+00  2.0397618777382918e-02 -4.2199649481149066e-03 0.0000000000000000e+00  1.9864635999115483e-02 -9.1680852585418245e-03 0.0000000000000000e+00  1.4513112282999653e-02 -1.1763201780283568e-02 0.0000000000000000e+00  7.3330060805499914e-04 -2.6628789612916891e-03 0.0000000000000000e+00  1.1664440224691743e-03 -1.6579834432870714e-03 0.0000000000000000e+00  -7.1948875318776238e-04 -3.6238252146636061e-03 0.0000000000000000e+00  4.5694439694049255e-03 -9.6849328448178466e-04 0.0000000000000000e+00  2.7239613378899981e-03 -1.3710359688134757e-03 0.0000000000000000e+00  1.0470359214245557e-02 -6.4387009784529269e-04 0.0000000000000000e+00  8.1018895292766045e-03 -1.1207727542230707e-02 0.0000000000000000e+00  2.6157324274436750e-03 -8.0582693253543130e-04 0.0000000000000000e+00  3.4293203046997624e-03 1.4839897204315519e-03 0.0000000000000000e+00  3.1758643646901219e-03 -1.9277602216993940e-03 0.0000000000000000e+00  4.7125314488491938e-03 -7.2515243901440426e-03 0.0000000000000000e+00  6.6477049879462829e-03 -5.0793611961237172e-03 0.0000000000000000e+00  -1.5648348725397939e-02 8.0901705731091112e-03 0.0000000000000000e+00  -9.9986014533786100e-03 8.4673492376253143e-03 0.0000000000000000e+00  -1.1075137107034077e-02 -2.2437050727379376e-03 0.0000000000000000e+00  -1.6258675039117917e-02 -1.9957946200109288e-03 0.0000000000000000e+00  -4.5478587271645989e-04 -2.3648760689811018e-03 0.0000000000000000e+00  2.9766773693367943e-03 -1.3470485125154778e-03 0.0000000000000000e+00  -1.2624536289751254e-03 -8.0118453899344130e-03 0.0000000000000000e+00  -5.5420130622780032e-03 -5.4349572808239637e-03 0.0000000000000000e+00  3.7503626898482420e-03 6.5122820335566803e-04 0.0000000000000000e+00  5.9078201134910259e-03 -2.3855911944500748e-03 0.0000000000000000e+00  1.5642019594529937e-03 9.2973276046543381e-03 0.0000000000000000e+00  5.0777868183426598e-04 6.1953348770606535e-03 0.0000000000000000e+00  1.6257786086031028e-03 -6.6579180358476145e-03 0.0000000000000000e+00  -1.0298174914844796e-03 -5.9809417423531156e-03 0.0000000000000000e+00  -8.6687402628659090e-03 5.6528113832565383e-03 0.0000000000000000e+00  -5.8530385233271677e-03 9.5909701388058651e-03 0.0000000000000000e+00  3.4338336213036577e-03 -1.8294324608856829e-03 0.0000000000000000e+00  -2.9351833786297452e-03 5.2596148802953229e-03 0.0000000000000000e+00  -4.6618413922457688e-03 5.5935350060525354e-03 0.0000000000000000e+00  -2.4604365365455986e-03 7.2680357060210610e-03 0.0000000000000000e+00  5.0577649589630532e-03 -1.7260090962134208e-03 0.0000000000000000e+00  7.3591964376671839e-03 -2.4578864301897474e-03 0.0000000000000000e+00  7.8243684522774949e-03 -2.3815011927614568e-03 0.0000000000000000e+00  -2.2058431685720412e-04 5.2365020295978082e-03 0.0000000000000000e+00  1.3102055083491640e-02 -8.2488333058553347e-03 0.0000000000000000e+00  3.2037524109002594e-03 4.0077977404172020e-03 0.0000000000000000e+00  6.3140570689901605e-03 1.6272399870207002e-04 0.0000000000000000e+00  2.6212288816542251e-03 -1.0600410610168720e-02 0.0000000000000000e+00  7.0419286155450249e-03 -1.7367743939503343e-03 0.0000000000000000e+00  -7.5228932523793242e-03 4.0969326576265159e-03 0.0000000000000000e+00  -4.2438884174658929e-03 5.0244366758581526e-03 0.0000000000000000e+00  -1.0113087600812500e-02 3.0288682939080360e-03 0.0000000000000000e+00  -1.7367114891730397e-03 7.8519030119864591e-03 0.0000000000000000e+00  -9.3629579896811700e-04 8.9467429074386665e-03 0.0000000000000000e+00  2.1675256391814144e-03 -2.9869427606606814e-03 0.0000000000000000e+00  2.5063518261754418e-03 -4.6571253375791719e-03 0.0000000000000000e+00  -1.2596723574327643e-03 -1.4261807097634390e-03 0.0000000000000000e+00  -3.0086920147221162e-03 1.7671312650569409e-03 0.0000000000000000e+00  -5.8417544251896346e-03 2.0471378290932065e-03 0.0000000000000000e+00  1.0314057117173682e-04 4.8273219978371773e-03 0.0000000000000000e+00  5.1477058537328351e-03 -2.5012261607547542e-03 0.0000000000000000e+00  6.0785678444843496e-03 -4.7084715484188976e-03 0.0000000000000000e+00  4.2586912819522526e-03 -6.3199954091885564e-03 0.0000000000000000e+00  -2.5485359654580015e-03 1.1398787720270993e-02 0.0000000000000000e+00  4.9341907428746012e-04 1.1253134492356489e-02 0.0000000000000000e+00  1.2101404955504737e-02 -1.0784411478891793e-02 0.0000000000000000e+00  -2.1289183495359514e-03 7.1342789100434659e-03 0.0000000000000000e+00  -3.5067735243739578e-03 8.5347934392320524e-03 0.0000000000000000e+00  -2.2677727526523865e-03 -4.7340059963530239e-03 0.0000000000000000e+00  -2.0631757086068351e-03 -3.5101175291302219e-03 0.0000000000000000e+00  1.5775595712557791e-03 -2.0984239988699398e-03 0.0000000000000000e+00  -8.1368420957008657e-03 -2.4413276248925258e-03 0.0000000000000000e+00  -9.3723592886274260e-03 1.5055753712507173e-03 0.0000000000000000e+00  -1.8914232609313960e-03 -3.9173256331625703e-03 0.0000000000000000e+00  7.1704360877934172e-03 -3.6792478533108140e-03 0.00000000000000