<?xml version="1.0"?>
<VTKFile type="UnstructuredGrid"  version="0.1"  >
<UnstructuredGrid>
<Piece  NumberOfPoints="2549" NumberOfCells="4928">
<Points>
<DataArray  type="Float64"  NumberOfComponents="3"  format="ascii">0.6130240907215521 0.08046038000192719 0  0.6082770429991575 0.04876772014202498 0  0.5583108191254023 -0.01344766381307155 0  0.5581680122148851 -0.06348352091750054 0  0.5552538485480276 -0.118025835788451 0  0.5746754153410987 -0.1600420593582579 0  0.5915306920632455 -0.2004375190157348 0  0.6365904848140826 -0.2171341554854502 0  0.6168528938267244 -0.2702323475905304 0  0.6372690045843898 -0.3758180603586351 0  0.7371637896264893 -0.3173435219564176 0  0.7761355310620053 -0.3278532794627305 0  0.8343894222262851 -0.3049829821215387 0  0.8847779161802747 -0.2840189735190271 0  0.9349369073735206 -0.2579730570206763 0  0.9886808731195784 -0.2104785132330176 0  1.002221468716041 -0.2072336591853803 0  1.060071849537404 -0.2287424962888422 0  1.133559124601993 -0.112054901689181 0  1.176529944338777 -0.05510681724584343 0  1.223324924015926 0.02918733418343333 0  1.262646656815585 0.1124041625571799 0  1.298827133577765 0.2050489971371086 0  1.33114275308348 0.3117179799432193 0  1.345080150899716 0.4172134435246574 0  1.361098169238676 0.5002076203616052 0  1.37441373397329 0.6183756974329984 0  1.376679153931499 0.7379974629549182 0  1.369743502703366 0.8620373216631784 0  1.35278806657297 0.9891938464849327 0  1.325288228370557 1.117737117659669 0  1.28700580062955 1.249843861591508 0  1.233378309041449 1.374713381732063 0  1.173789983944996 1.493678466770736 0  1.099850481390499 1.62062871596648 0  1.013103794416265 1.7362925699685 0  0.9143493363910385 1.845487657549419 0  0.8041214536713364 1.94478360178562 0  0.6832548286174785 2.03235847182317 0  0.5531790163214654 2.109259973545226 0  0.4132381520390186 2.167275658036724 0  0.2703662143516367 2.208797827149601 0  0.1213051111600715 2.238181506803849 0  -0.02957494704521366 2.246507840730504 0  -0.1802452110773831 2.237233586799773 0  -0.3283061603610805 2.208752029920942 0  -0.4714590805354311 2.16318647143423 0  -0.6075656559394091 2.09640459093833 0  -0.7325772311527156 2.021844325834487 0  -0.8520470087859223 1.931181488317232 0  -0.9571852009965391 1.822809524364142 0  -1.050052134459379 1.706413875318995 0  -1.129814613718726 1.581610339554635 0  -1.196047813364453 1.449572951763945 0  -1.249258760500203 1.316899309649469 0  -1.287035704201758 1.168866874020294 0  -1.309915808271186 1.054996667480193 0  -1.336785387966829 0.9296258669219593 0  -1.341917342830148 0.7916081851958479 0  -1.338072246704956 0.664515513695059 0  -1.325841178467564 0.5442455137044131 0  -1.303698851213411 0.423446769619919 0  -1.278474848863293 0.3263586148788367 0  -1.232329452931095 0.1804888147947185 0  -1.17795705514937 0.133925029700545 0  -1.160272187145728 0.09564885844269022 0  -1.115008133117341 0.01938166821851162 0  -1.070285696893943 -0.03527891659005866 0  -1.020374215246906 -0.08970197318246265 0  -0.9778251259073741 -0.114640723944586 0  -0.9138426287043279 -0.1750985767423638 0  -0.9177609268768642 -0.07800524497655548 0  -0.9154093455793789 -0.1526985808868748 0  -0.7743001404712491 -0.2996932878362464 0  -0.7212198981432945 -0.3022507411291861 0  -0.6450260805069463 -0.3200743646408986 0  -0.6017563714248699 -0.3011371254622285 0  -0.5247477576477384 -0.3016657171029001 0  -0.5362810186011615 -0.2218898362876675 0  -0.3559628459032111 -0.2754323084368649 0  -0.4768199973864844 -0.03242351729790796 0  -0.6587591603191429 0.03923620134110389 0  -0.5342864106853489 0.04416935017172156 0  -0.5903708494697977 0.09209924496745776 0  -0.5532137117195726 0.1342213889199164 0  -0.6000744280632511 0.175852417849101 0  -0.5456824238701183 0.2225713089617152 0  -0.6874981247300904 0.2231007229480896 0  -0.4947195523836476 0.2960977964194633 0  -0.3699068413316047 0.5535383906949729 0  -0.574350863953681 0.4838356199099758 0  -0.5642209923087269 0.5642283871847179 0  -0.6519611983091891 0.5557382886067668 0  -0.7012833388794029 0.5696556996684592 0  -0.7846337804583927 0.5452536347957258 0  -0.8407462126246581 0.5411703889912342 0  -0.995738810755821 0.3840344034437079 0  -1.009044483450475 0.2803591142646876 0  -1.002772624395922 0.3860696961822951 0  -1.073339893259979 0.3152554968665631 0  -1.119523947360638 0.2871251372140411 0  -1.17467658740437 0.226349787013668 0  -1.223840281231976 0.1669387432299054 0  -1.273840545766371 0.08516454547762331 0  -1.295578542551181 0.04869197619898513 0  -1.360118970182927 -0.003809981619271818 0  -1.414560084302191 -0.170702522872392 0  -1.445467673284916 -0.2762178199658148 0  -1.474221084656615 -0.4106013324424633 0  -1.492664688438036 -0.5439076686446793 0  -1.502016930781458 -0.6845743549701631 0  -1.500531986581102 -0.8331810997275066 0  -1.482522832577264 -0.9633347792814985 0  -1.47021003012129 -1.107446958101162 0  -1.434973176145807 -1.292063340777255 0  -1.38271008570872 -1.445564477486209 0  -1.316679563487259 -1.604942698686602 0  -1.23532932137362 -1.755485691733271 0  -1.139050901585245 -1.898666480963573 0  -1.028579592189085 -2.036565974543843 0  -0.8989479714016322 -2.152210122560114 0  -0.7650811867295486 -2.249026244187415 0  -0.6161107609646692 -2.343207061975586 0  -0.4572214773046359 -2.411845817385128 0  -0.2909458250816099 -2.461093134231084 0  -0.1198237828067952 -2.487678859299826 0  0.05329108753699543 -2.492166365127769 0  0.225764558553074 -2.473501730135936 0  0.3945916506806274 -2.432822243125489 0  0.5566740886786135 -2.370704318707778 0  0.7104038064261156 -2.289828952906364 0  0.8532486855729911 -2.190777854067481 0  0.9835640661161552 -2.076635380405304 0  1.099986845392264 -1.948603944708352 0  1.201796426545449 -1.812796758754718 0  1.287404505307551 -1.658648601004997 0  1.353808160030242 -1.524948051505371 0  1.418553992468603 -1.379545364632803 0  1.461319732622722 -1.220628184283604 0  1.491436156503267 -1.068935015378754 0  1.509165501567273 -0.9194539861040743 0  1.515244250295531 -0.7744839060624658 0  1.510743667506072 -0.6350361874818187 0  1.494212155324321 -0.4994050741696235 0  1.47441918379545 -0.399496168344874 0  1.455292841964358 -0.2776270609621101 0  1.417910629063472 -0.1572499789500519 0  1.376167142688296 -0.05165437649170879 0  1.331272867839935 0.04304401180432926 0  1.278512518875499 0.1384992270171199 0  1.230213048040016 0.2039649110753791 0  1.149635479361792 0.3333198891749797 0  1.085165572084557 0.3168779782043747 0  1.067694486028645 0.3240194154574823 0  1.008857462308251 0.3780019986176205 0  0.9536779011085784 0.4098280300031478 0  0.8979781598800278 0.4367009865248407 0  0.8340243357365906 0.4654395430617476 0  0.7903134059762069 0.459100247438456 0  0.6824954312248472 0.525385806083482 0  0.6579322910772989 0.4197355483918088 0  0.6740855936954075 0.369465018177686 0  0.6225923087607179 0.3570158767796738 0  0.5996448404660149 0.3198847153920553 0  0.573898287511734 0.2805433170901921 0  0.5681665274879226 0.228642145246107 0  0.5670960233360716 0.1776526399653382 0  0.5997182408122439 0.1188973035599093 0  -0.0516157284472479 1.376464379269373 0  0.6266420494626869 -0.5231716087181709 0  -0.632883882078012 -0.237619721978937 0  -0.08372754067515521 -1.551828883259585 0  0.5434118234236194 0.4719624519706835 0  0.5294756998251489 -0.07932253060329908 0  -0.5571741268089745 0.3375725432210284 0  -0.4777023212250215 0.107011455187189 0  0.5555532157325479 0.1821753585792153 0  -0.6397806982926227 0.1567139958260202 0  -0.2559868297995548 0.07454730549424071 0  -0.1493308582142016 -0.1427415952647023 0  -0.5732256775978193 0.0154630864421853 0  0.4436654625092637 -1.267997456478126 0  -0.063951213501238 -0.5698382332204187 0  0.343230715366826 1.092803532034738 0  -0.09153497882157685 0.2038014363897298 0  0.1295376350712959 0.02245411105468834 0  -0.4821535738821825 -0.9693754396675274 0  -0.4373951594669961 0.9432503046480438 0  -0.05179188148942443 0.4732337864166245 0  0.5926107901766572 0.03531654312836036 0  0.5436919357058204 0.02123980921340179 0  0.09043472256433338 -0.2807868051908035 0  -0.07539055239487065 0.3004902089514069 0  -0.1570017162840047 0.2713366425624619 0  -0.1307339598108855 -0.4813269991750386 0  0.3383629089898016 0.03981423608307103 0  0.5499407980779176 0.06403572332069693 0  0.6105542482105413 -0.1931416640557013 0  0.3041177772265219 -0.001148484271952632 0  0.270750581291604 -0.1649799489898067 0  0.07285533887035878 -0.07051789776786141 0  0.3324149131399272 -0.4352865375719471 0  0.3986614319868231 0.06805779500591749 0  0.2381205505376099 0.03078006816349832 0  -0.3600440626758147 0.07336130983863241 0  -0.4760811736969568 0.01363431264345044 0  -0.3797154428309193 0.09491372165639661 0  -0.3977418721756496 0.09149665464166873 0  -0.5051422756213111 0.1852814642623237 0  -0.6194632796565595 0.2665783024497572 0  -0.5434921966476165 0.2192527068111886 0  -0.5293166254465238 0.01824953517390823 0  -0.5802245265373187 -0.04784764515413553 0  -0.1121194745877346 -1.026385948363032 0  -0.2230479815833258 -0.7741955914302332 0  -0.3209054909020318 -1.32071893834273 0  -0.127552127480236 -0.2926047370015161 0  -0.2916343375195757 -0.5185777861410659 0  -0.8305004421382567 0.2578178828435205 0  -0.7541488827940629 -0.05800450505509369 0  0.2966801681234857 -0.7294695306516721 0  0.009611544288356866 -0.390496289940409 0  0.2001724523330417 -0.9095130004141521 0  -0.5657503824276702 0.1352537716190482 0  -0.3110176137621949 0.1583074432855888 0  0.6765818320363172 0.2878525546575981 0  0.8046247904731174 0.2574790554714416 0  0.7514577221037998 -0.1544564963870078 0  0.6413819173954725 -0.1637584664732135 0  -1.013509828660137 -0.5684526499156742 0  -0.9828298166829676 -0.1301346378736535 0  -0.8843970907739648 0.2664734605236268 0  -0.8989237343286196 0.6488922044237064 0  1.03654994440484 -0.4916651650510032 0  0.9749654219230484 -0.9882274212764254 0  0.8850106163187579 0.882591968430548 0  0.945240618845462
[...]
<PointData  Vectors="f_44"> 
<DataArray  type="Float64"  Name="f_44"  NumberOfComponents="3" format="ascii">2.4017526690535435e-01 6.2837508959834476e-02 0.0000000000000000e+00  7.3663192560359539e-02 -2.2342664103769830e-01 0.0000000000000000e+00  9.9400489634790437e-02 -1.3287168460298532e-01 0.0000000000000000e+00  2.6836345278706863e-01 -2.5667919872881849e-03 0.0000000000000000e+00  1.6204571959467123e-01 5.6569824384796338e-02 0.0000000000000000e+00  1.9849903514977971e-01 1.8301783515162298e-01 0.0000000000000000e+00  -5.6697566124051434e-02 2.0421795124139439e-01 0.0000000000000000e+00  -4.3154681538080150e-02 -7.5754685195184857e-02 0.0000000000000000e+00  2.8391529504524438e-01 3.9431109882266377e-02 0.0000000000000000e+00  4.5822807182044747e-02 -6.1236031634780690e-02 0.0000000000000000e+00  -1.9068068264946683e-01 -1.5296364691642991e-01 0.0000000000000000e+00  -1.7811642183860849e-01 1.8745683792292071e-02 0.0000000000000000e+00  -1.5666600549608217e-01 -2.0185947744610044e-01 0.0000000000000000e+00  -1.5975049728117419e-01 -1.5398854883620108e-01 0.0000000000000000e+00  -6.3191642175824750e-02 -2.0789418882851360e-01 0.0000000000000000e+00  -3.4730836475018206e-02 -2.3334224350491339e-01 0.0000000000000000e+00  -2.7017997095533708e-01 2.0822887384142066e-01 0.0000000000000000e+00  2.7319696983905250e-02 -8.8119810994453027e-02 0.0000000000000000e+00  1.0433190855263172e-01 -2.4692072572418081e-01 0.0000000000000000e+00  7.9462319169978507e-02 -1.9573538680037780e-01 0.0000000000000000e+00  1.3724208767901491e-01 -1.8281050609930871e-01 0.0000000000000000e+00  1.5230573585532800e-01 -1.6098319484142995e-01 0.0000000000000000e+00  1.7394202807235681e-01 -1.4510959943713739e-01 0.0000000000000000e+00  2.0398594347005344e-01 -8.5110780057713137e-02 0.0000000000000000e+00  2.1482313978567505e-01 -6.3640555021342082e-02 0.0000000000000000e+00  2.1083579494458915e-01 -7.4288617574556126e-02 0.0000000000000000e+00  2.2247852098128440e-01 -2.7307474984715415e-02 0.0000000000000000e+00  2.2359889016475135e-01 8.9583536565140832e-03 0.0000000000000000e+00  2.2007968719703680e-01 4.1450055751538956e-02 0.0000000000000000e+00  2.1001261404941018e-01 7.6337046227106534e-02 0.0000000000000000e+00  1.9918021304850891e-01 1.0387910506904639e-01 0.0000000000000000e+00  1.7208932178239281e-01 1.4170185498703780e-01 0.0000000000000000e+00  1.4152980665422177e-01 1.7410122188288712e-01 0.0000000000000000e+00  1.2556269519858074e-01 1.8551470947774190e-01 0.0000000000000000e+00  8.8076694027989400e-02 2.0529383674469553e-01 0.0000000000000000e+00  4.1425878259695327e-02 2.2057151662573524e-01 0.0000000000000000e+00  9.4494180451800368e-04 2.2389617787051616e-01 0.0000000000000000e+00  -4.8006620936288803e-02 2.1847568275854082e-01 0.0000000000000000e+00  -8.7834436347843284e-02 2.0678781143436181e-01 0.0000000000000000e+00  -1.3312739247171768e-01 1.7950583807517972e-01 0.0000000000000000e+00  -1.7712266764010776e-01 1.3751778045707769e-01 0.0000000000000000e+00  -1.9851748754860321e-01 1.0496716653146661e-01 0.0000000000000000e+00  -2.1593338695604891e-01 5.6487782928570769e-02 0.0000000000000000e+00  -2.2507962274215709e-01 -2.3271377660207086e-03 0.0000000000000000e+00  -2.1625211660083760e-01 -5.5613692031281782e-02 0.0000000000000000e+00  -1.9862413341908070e-01 -1.0632523848758012e-01 0.0000000000000000e+00  -1.5962869659017290e-01 -1.5564710679151048e-01 0.0000000000000000e+00  -1.2048724562019227e-01 -1.8967417740708639e-01 0.0000000000000000e+00  -8.8121867774617585e-02 -2.0626058795173194e-01 0.0000000000000000e+00  -2.5698154560041105e-02 -2.2193810429703700e-01 0.0000000000000000e+00  3.0974103056315497e-02 -2.2259845699864667e-01 0.0000000000000000e+00  7.0859693767862691e-02 -2.1229935081327470e-01 0.0000000000000000e+00  1.1616883623393083e-01 -1.9109876564822459e-01 0.0000000000000000e+00  1.4724633419444746e-01 -1.6983078270361462e-01 0.0000000000000000e+00  1.8053870762559970e-01 -1.3103662747542197e-01 0.0000000000000000e+00  2.0581011076845793e-01 -8.8959393763940686e-02 0.0000000000000000e+00  2.0270380727016424e-01 -9.7625619470434730e-02 0.0000000000000000e+00  2.1332132603700682e-01 -5.6931025466311770e-02 0.0000000000000000e+00  2.2612943269177113e-01 5.1622844403997007e-03 0.0000000000000000e+00  2.2101450696091871e-01 2.6740496499123474e-02 0.0000000000000000e+00  2.1656721401433221e-01 6.2536008461803308e-02 0.0000000000000000e+00  1.9696594489843283e-01 9.6349404494722471e-02 0.0000000000000000e+00  2.1251280426631033e-01 1.1263732367903946e-01 0.0000000000000000e+00  1.0013803122770626e-01 1.6375181337056927e-01 0.0000000000000000e+00  -1.2829388660099226e-02 2.1922449623902410e-01 0.0000000000000000e+00  1.5883899940715154e-01 1.7533412978499704e-01 0.0000000000000000e+00  6.5448865988200502e-02 2.1009704809227572e-01 0.0000000000000000e+00  4.1629149321900073e-02 2.2894905276154598e-01 0.0000000000000000e+00  -4.0533459566684915e-02 2.0041638401991635e-01 0.0000000000000000e+00  -1.0095248352936406e-01 2.4215609048213974e-01 0.0000000000000000e+00  1.1612593437188130e-01 1.2972158582675650e-01 0.0000000000000000e+00  2.8304677473863021e-01 -5.3065702329868063e-02 0.0000000000000000e+00  8.5739441780498304e-02 1.8794257835022227e-01 0.0000000000000000e+00  -6.5243483575485609e-02 1.9145692389564112e-01 0.0000000000000000e+00  -2.6060429290427156e-01 6.2726031550817990e-02 0.0000000000000000e+00  -1.3519119736010510e-01 6.8608764014657295e-04 0.0000000000000000e+00  -3.0111371720246194e-01 -1.0737737302017156e-01 0.0000000000000000e+00  1.0459262120437933e-01 5.3019023866889149e-02 0.0000000000000000e+00  -1.1884620890844519e-01 9.4030754345071590e-02 0.0000000000000000e+00  8.3081193049214120e-03 1.5614461588445347e-01 0.0000000000000000e+00  6.9433563738104859e-02 1.9476963332889383e-01 0.0000000000000000e+00  -2.7196976473367401e-01 5.3001978127252020e-02 0.0000000000000000e+00  -1.5010598930343411e-01 8.6864874968288888e-02 0.0000000000000000e+00  3.2671505121816047e-02 1.6411886735291325e-02 0.0000000000000000e+00  -7.6245416665300346e-03 1.4717476610128210e-02 0.0000000000000000e+00  -4.3779216644426145e-03 -7.8293412307172891e-04 0.0000000000000000e+00  -1.4722915489993038e-01 -9.0714862533332163e-02 0.0000000000000000e+00  -2.7643551216224682e-01 -5.6715262687022122e-02 0.0000000000000000e+00  7.0450833598828838e-02 -1.8699257262606736e-01 0.0000000000000000e+00  1.0126257557282982e-02 -1.6248787272204798e-01 0.0000000000000000e+00  -1.2117700216156806e-01 -1.0427201196516039e-01 0.0000000000000000e+00  9.5469167593022361e-02 -6.1169045888471642e-02 0.0000000000000000e+00  -3.1608763834901088e-01 4.9055296121255205e-02 0.0000000000000000e+00  -1.4897697705657181e-01 -3.2228417633273200e-02 0.0000000000000000e+00  -2.4206910063975659e-01 -8.1315907881202326e-02 0.0000000000000000e+00  -7.4319916762610225e-02 -1.9215053218047418e-01 0.0000000000000000e+00  8.8252234211062347e-02 -1.9252354125728080e-01 0.0000000000000000e+00  2.7625871346043918e-01 1.8093435295531059e-02 0.0000000000000000e+00  1.2179970995197205e-01 -1.2839798756314649e-01 0.0000000000000000e+00  -8.6332636574472765e-02 -2.4519352912907336e-01 0.0000000000000000e+00  -3.6736843947577182e-02 -2.0185540628979978e-01 0.0000000000000000e+00  4.0898317290822828e-02 -2.2913586644626427e-01 0.0000000000000000e+00  6.4845661295886287e-02 -2.0873253769104924e-01 0.0000000000000000e+00  1.3976364350450465e-01 -1.8959302444744322e-01 0.0000000000000000e+00  -4.7615616402085600e-02 -2.3158058815517410e-01 0.0000000000000000e+00  9.8830907582527050e-02 -1.6160579578723067e-01 0.0000000000000000e+00  2.0829746753791176e-01 -1.2068009898969950e-01 0.0000000000000000e+00  1.9029589355384663e-01 -1.0875120265486007e-01 0.0000000000000000e+00  2.1222356372681331e-01 -7.6001928598761315e-02 0.0000000000000000e+00  2.1846193594591243e-01 -4.4166090075860934e-02 0.0000000000000000e+00  2.2462580925759129e-01 -1.7468304530348255e-02 0.0000000000000000e+00  2.1878110147556576e-01 3.9136290816684197e-02 0.0000000000000000e+00  2.1766619038248583e-01 5.0269112759120695e-02 0.0000000000000000e+00  2.1804595949254382e-01 5.1848715934829370e-02 0.0000000000000000e+00  1.9321919920694017e-01 1.1246236393200973e-01 0.0000000000000000e+00  1.6724143384257298e-01 1.4999046754121284e-01 0.0000000000000000e+00  1.4331136797047828e-01 1.7151583026281511e-01 0.0000000000000000e+00  1.0154466648765460e-01 1.9934348235458357e-01 0.0000000000000000e+00  7.1004253493916578e-02 2.1357314282109133e-01 0.0000000000000000e+00  1.3665405610675965e-02 2.2239389887955194e-01 0.0000000000000000e+00  -5.4730265692262206e-02 2.1791495650223888e-01 0.0000000000000000e+00  -8.0066574388023892e-02 2.0992352882516771e-01 0.0000000000000000e+00  -1.2307553034033718e-01 1.8550591068467243e-01 0.0000000000000000e+00  -1.7445688490374311e-01 1.4293027104711561e-01 0.0000000000000000e+00  -2.0156478667332947e-01 9.6487367103578289e-02 0.0000000000000000e+00  -2.2108413448258599e-01 4.0006523386570188e-02 0.0000000000000000e+00  -2.2321839179446251e-01 -1.8231953744087023e-02 0.0000000000000000e+00  -2.1124781977555609e-01 -7.5887474368673935e-02 0.0000000000000000e+00  -1.8427162614110895e-01 -1.2728787686417309e-01 0.0000000000000000e+00  -1.4787240206348440e-01 -1.6881522085668302e-01 0.0000000000000000e+00  -1.0321186214223217e-01 -1.9861339534411501e-01 0.0000000000000000e+00  -5.4438605398997079e-02 -2.1780001790491604e-01 0.0000000000000000e+00  -2.6734795302617081e-03 -2.2338109843663068e-01 0.0000000000000000e+00  4.0296597118301684e-02 -2.2145141324608306e-01 0.0000000000000000e+00  9.2882844937976314e-02 -2.0255097604510197e-01 0.0000000000000000e+00  1.3226289302304151e-01 -1.8106201739350564e-01 0.0000000000000000e+00  1.3747271240877421e-01 -1.7802205471955301e-01 0.0000000000000000e+00  1.7213815795697507e-01 -1.4006640073444576e-01 0.0000000000000000e+00  2.0409620118782848e-01 -9.5609658380971185e-02 0.0000000000000000e+00  2.1163508841313147e-01 -7.0766108478993006e-02 0.0000000000000000e+00  2.2131225491657572e-01 -3.5031027688428036e-02 0.0000000000000000e+00  2.2371360856096176e-01 -2.7889684049494630e-03 0.0000000000000000e+00  2.2171235809207798e-01 3.2663194019495648e-02 0.0000000000000000e+00  2.1009012429617602e-01 7.6117703832172118e-02 0.0000000000000000e+00  2.1243245831526808e-01 7.1637694323842024e-02 0.0000000000000000e+00  2.0148305621150867e-01 9.2243894733103987e-02 0.0000000000000000e+00  1.7252744447737592e-01 1.4595529599425899e-01 0.0000000000000000e+00  1.5140911588143152e-01 1.6215729232667703e-01 0.0000000000000000e+00  1.3713215013098665e-01 1.8246148142034457e-01 0.0000000000000000e+00  8.1585356149989269e-02 1.9564672777450159e-01 0.0000000000000000e+00  1.1058727807371133e-01 2.4197635196596778e-01 0.0000000000000000e+00  1.8628175992886149e-02 9.7518001948300945e-02 0.0000000000000000e+00  -2.8733037619939472e-01 -1.3815641389049829e-01 0.0000000000000000e+00  -1.9901850881366805e-02 2.4398391872983227e-01 0.0000000000000000e+00  -5.3655656340983897e-02 2.0875766178604901e-01 0.0000000000000000e+00  -1.4136846201145875e-01 1.7171734554054302e-01 0.0000000000000000e+00  -1.3426487793692091e-01 2.1095339393125095e-01 0.0000000000000000e+00  -1.8359068743186568e-01 1.9223863875254665e-02 0.0000000000000000e+00  -1.8706370023756910e-01 1.7133217745994905e-01 0.0000000000000000e+00  4.1485531899962472e-02 6.3124001482134789e-02 0.0000000000000000e+00  2.8716989277630228e-01 -7.0955755711815879e-02 0.0000000000000000e+00  -5.7443594950374412e-02 8.6611303136512538e-02 0.0000000000000000e+00  -1.1010031410977034e-01 -1.9212829097724182e-01 0.0000000000000000e+00  1.3294998316586856e-01 -2.2641568453537941e-01 0.0000000000000000e+00  1.3650364792465491e-01 -1.2015625630918246e-01 0.0000000000000000e+00  2.5788870828385230e-01 -3.9338394522445044e-02 0.0000000000000000e+00  1.5688212178617444e-01 1.0422539590670911e-01 0.0000000000000000e+00  1.1573122196995221e-01 2.1122795587980694e-01 0.0000000000000000e+00  -2.0667889767133815e-01 -8.6081000990696946e-02 0.0000000000000000e+00  2.2234448221576911e-01 -3.9964090933983495e-02 0.0000000000000000e+00  2.1836299480102656e-01 -5.0003945103838696e-02 0.0000000000000000e+00  -2.0663598457834281e-01 8.6403591156403059e-02 0.0000000000000000e+00  1.0532527340901834e-01 2.0097537346642391e-01 0.0000000000000000e+00  7.4252316372599686e-02 2.1267389820468202e-01 0.0000000000000000e+00  2.2175462747657493e-01 -3.1868275389078750e-02 0.0000000000000000e+00  1.4426433900256602e-01 -1.8023621610565277e-01 0.0000000000000000e+00  7.6754318147044462e-02 -2.1034673361255024e-01 0.0000000000000000e+00  3.5270613681807041e-02 -2.2102684285329777e-01 0.0000000000000000e+00  2.0872257317617463e-01 -8.0218785370458165e-02 0.0000000000000000e+00  2.2390186069918216e-01 1.5423590601253989e-03 0.0000000000000000e+00  1.1733817786243053e-01 1.9144621219603863e-01 0.0000000000000000e+00  -1.4273048454057694e-01 -1.7279072408133528e-01 0.0000000000000000e+00  -2.1590699412170473e-02 2.2683886022821215e-01 0.0000000000000000e+00  -1.9451182840033190e-01 1.1174101926151772e-01 0.0000000000000000e+00  1.0871390027939502e-01 -1.9892694856091403e-01 0.0000000000000000e+00  1.8336549559146900e-02 -2.2372620997990919e-01 0.0000000000000000e+00  5.2067229879576446e-02 2.1801219313042136e-01 0.0000000000000000e+00  2.2262302401405469e-02 -2.2291056102215537e-01 0.0000000000000000e+00  1.9991164245131740e-02 -2.2383673749217425e-01 0.0000000000000000e+00  -2.2335564320879386e-01 -4.0880529460337149e-02 0.0000000000000000e+00  -1.8177395776973296e-01 1.4339631021862828e-01 0.0000000000000000e+00  -1.4938737553720510e-01 1.7762518837252342e-01 0.0000000000000000e+00  1.1186761150529471e-01 -1.9868399683367649e-01 0.0000000000000000e+00  1.6076863286897441e-01 -1.5567061144208952e-01 0.0000000000000000e+00  1.4659890874248074e-01 1.6941821132371965e-01 0.0000000000000000e+00  1.0844954675133632e-01 -1.9493554986157577e-01 0.0000000000000000e+00  2.1182353865576181e-01 -7.2125294671473966e-02 0.0000000000000000e+00  -1.8403316120833825e-02 2.2663588849817642e-01 0.0000000000000000e+00  -1.6168769763360794e-01 -1.6066612661784641e-01 0.0000000000000000e+00  5.6029714788249377e-02 2.2217207938374817e-01 0.0000000000000000e+00  2.2815731825000665e-01 1.1157437303340127e-02 0.0000000000000000e+00  9.9185862672233713e-02 -2.0522755307658988e-01 0.0000000000000000e+00  1.2231673170340115e-02 -2.2324146479268359e-01 0.0000000000000000e+00  -5.6600597537391759e-02 -2.1744177402816320e-01 0.0000000000000000e+00  2.1464880661557939e-01 -6.3643634284887368e-02 0.0000000000000000e+00  1.8387184857756575e-01 1.2556607319730559e-01 0.0000000000000000e+00  2.0545497344562746e-01 -8.8413523863891411e-02 0.0000000000000000e+00  1.8783273056757688e-01 -1.2275241051048108e-01 0.0000000000000000e+00  2.5856345928089077e-03 -2.2377070590082426e-01 0.0000000000000000e+00  -7.5583941988603118e-02 -2.1022205674998171e-01 0.0000000000000000e+00  -8.8675887961026684e-02 -2.0476603819116612e-01 0.0000000000000000e+00  4.7390965931190070e-02 2.3220026625831774e-01 0.0000000000000000e+00  -8.1741497920966091e-03 2.2552148249674339e-01 0.0000000000000000e+00  -1.3759643965557342e-01 1.7706803891754580e-01 0.0000000000000000e+00  1.9965349496748563e-02 2.2355724895644666e-01 0.0000000000000000e+00  -1.0856344831608356e-01 1.9595976698597839e-01 0.0000000000000000e+00  2.1154215752753724e-01 7.5496621423603125e-02 0.0000000000000000e+00  1.6274518896189905e-01 1.5427297695305567e-01 0.0000000000000000e+00  3.3099333160190321e-02 -2.2226277911958245e-01 0.0000000000000000e+00  4.1764893145072521e-02 2.2070279349456098e-01 0.0000000000000000e+00  -1.6547834068693476e-01 -1.5217851349265421e-01 0.0000000000000000e+00  -9.9797965237950204e-02 2.0553913594091641e-01 0.0000000000000000e+00  -2.2267330693634027e-01 -2.8405816053569531e-02 0.0000000000000000e+00  2.0410145108515970e-01 9.3166801901937643e-02 0.0000000000000000e+00  2.0883536525031821e-01 -8.0192247344166551e-02 0.0000000000000000e+00  -1.3237310978572506e-01 -1.8435013466291969e-01 0.0000000000000000e+00  -2.2641152012729973e-01 -1.2439124286488747e-03 0.0000000000000000e+00  -2.2589925510300576e-01 1.8863972504854380e-02 0.0000000000000000e+00  -1.1154361621189628e-01 1.9769619174306444e-01 0.0000000000000000e+00  2.2343865170964677e-01 1.7113055352287333e-02 0.0000000000000000e+00  1.7658731535580707e-01 -1.3771873727729209e-01 0.0000000000000000e+00  1.9568849399596192e-01 1.0907733209884604e-01 0.0000000000000000e+00  2.1744278329556921e-01 -5.4218835639248515e-02 0.0000000000000000e+00  2.1112470324610300e-01 7.7348080615442918e-02 0.0000000000000000e+00  1.6500198418387199e-01 -1.5210905783334552e-01 0.0000000000000000e+00  1.2808028288394557e-01 1.8440870698461923e-01 0.0000000000000000e+00  2.2365458945061648e-01 -2.3107030734881857e-02 0.0000000000000000e+00  -2.2401653583696346e-01 -8.1152590191286306e-03 0.0000000000000000e+00  -1.5707707836349027e-01 1.5990781188048819e-01 0.0000000000000000e+00  -1.6958280713655616e-01 -1.4652175509833076e-01 0.0000000000000000e+00  -2.2347912294821426e-01 1.6574638917002966e-02 0.0000000000000000e+00  1.9013225725875375e-02 -2.2377096139324701e-01 0.0000000000000000e+00  1.0924878247333548e-01 -1.9812785076035258e-01 0.0000000000000000e+00  -2.3326815132561043e-01 -2.5159548684137487e-02 0.0000000000000000e+00  -2.2773651165622419e-01 -1.1794820606392682e-02 0.0000000000000000e+00  2.2314900652902653e-01 1.8472834070574731e-02 0.0000000000000000e+00  2.1415124007633365e-01 -6.4573263465568229e-02 0.0000000000000000e+00  2.0909035370896284e-01 -7.9557928032533434e-02 0.0000000000000000e+00  1.7425554634596874e-01 -1.4742466267344129e-01 0.0000000000000000e+00  1.8434200018521965e-01 1.2673794293603283e-01 0.0000000000000000e+00  2.0732079899064279e-01 8.6861827873494335e-02 0.0000000000000000e+00  1.0843078017167611e-01 -1.9560082490869704e-01 0.0000000000000000e+00  1.3638397363796304e-01 1.7724287319877230e-01 0.0000000000000000e+00  1.4929819349074369e-01 -1.6688940749976194e-01 0.0000000000000000e+00  5.7129119083592320e-02 -2.2641454565136770e-01 0.0000000000000000e+00  1.2001320779499511e-01 -1.9864029227212465e-01 0.0000000000000000e+00  2.2882248676552960e-01 -6.9136660133946723e-03 0.0000000000000000e+00  -2.0254504527247991e-01 -1.0193302777848511e-01 0.0000000000000000e+00  -1.1414240145428001e-01 1.9406966202969797e-01 0.0000000000000000e+00  -2.1196128458988481e-01 7.2845740283663071e-02 0.0000000000000000e+00  -2.1782212851226618e-01 -5.2128316740408860e-02 0.0000000000000000e+00  -3.4948366922389167e-02 -2.2117709288220896e-01 0.0000000000000000e+00  -1.4785123425957497e-01 -1.6813156538693450e-01 0.0000000000000000e+00  -1.2168562327740842e-01 -1.8800939622780422e-01 0.0000000000000000e+00  2.2499974133252298e-01 1.7623391688670543e-02 0.0000000000000000e+00  4.0816052106123178e-02 2.2449306599193669e-01 0.0000000000000000e+00  6.3998387295705894e-03 -2.2416213209697311e-01 0.0000000000000000e+00  -1.5641925673138513e-01 -1.6062884290221385e-01 0.0000000000000000e+00  -1.6597456431252186e-01 1.5070780914579068e-01 0.0000000000000000e+00  -2.9604134036875212e-02 2.2240769711073421e-01 0.0000000000000000e+00  2.2387865072574178e-01 4.9262782868498174e-03 0.0000000000000000e+00  -1.9433822572137144e-01 -1.1467299684303245e-01 0.0000000000000000e+00  -2.2305617117717572e-01 1.9823285818252035e-02 0.0000000000000000e+00  -7.8119603825527054e-03 2.2404695434740010e-01 0.0000000000000000e+00  1.5530906369187730e-01 1.6164181342385925e-01 0.0000000000000000e+00  1.9393947316240068e-01 1.1238260564145058e-01 0.0000000000000000e+00  1.3629075559430234e-01 -1.7789176936764009e-01 0.0000000000000000e+00  -2.6639182729095514e-02 -2.2255430558326508e-01 0.0000000000000000e+00  1.5646672638708692e-01 -1.6033134309095370e-01 0.0000000000000000e+00  2.0046614621252012e-01 -9.9156057391569449e-02 0.0000000000000000e+00  1.8150122741046631e-01 -1.3091284906