<?xml version="1.0"?>
<VTKFile type="UnstructuredGrid"  version="0.1"  >
<UnstructuredGrid>
<Piece  NumberOfPoints="2549" NumberOfCells="4928">
<Points>
<DataArray  type="Float64"  NumberOfComponents="3"  format="ascii">-6.6685994329903 0.502877375012045 0  -6.680870700600265 0.002701117922403955 0  -6.941692591321971 -0.6843432871293431 0  -6.859071997309055 -1.287939417176824 0  -6.764652411911133 -1.909732384442615 0  -6.504876429481691 -2.441504814810803 0  -6.238782944094462 -2.95044540549751 0  -5.777234055064578 -3.298218006926891 0  -5.704318429764476 -3.86053631123328 0  -5.366527330303486 -4.738299197768759 0  -4.520139406239355 -4.578600773921967 0  -4.044390043024474 -4.83856129546497 0  -3.439434838828629 -4.879016908526343 0  -2.876144670767778 -4.92111017111512 0  -2.307796605854398 -4.921739278386172 0  -1.711389952004845 -4.779148998783596 0  -1.361309538646428 -4.904449235691744 0  -0.7299476977615491 -5.176243681318294 0  0.002978995564936859 -4.576507377846905 0  0.548574087630616 -4.34271536663732 0  1.121088691850902 -3.930923093569537 0  1.649586334724831 -3.519084885162709 0  2.160856024478714 -3.041821273005403 0  2.650124298840143 -2.470658604319614 0  3.026461115807832 -1.900810408754607 0  3.417537636185228 -1.465781467882307 0  3.793284096227339 -0.805288212836869 0  4.10136987800352 -0.1302502531829678 0  4.353209491747533 0.5777081372112155 0  4.543556916177188 1.310316313375759 0  4.669015501996792 2.056639392019443 0  4.727988460361034 2.830171783623738 0  4.691860517651057 3.563310810037072 0  4.619190403486133 4.264299055250328 0  4.457451915823164 5.019869415866542 0  4.216213630788425 5.709507184170131 0  3.900394905312837 6.363264176013686 0  3.513262119788701 6.959650815167768 0  3.059961804769519 7.487238575941225 0  2.549360909143259 7.95254211159662 0  1.977294429261221 8.304207807004516 0  1.38703530915518 8.55716924728504 0  0.7581569516923888 8.738634417524057 0  0.1179101253924018 8.792856832365905 0  -0.5210885343729026 8.741444862174351 0  -1.143905531481541 8.574367465156143 0  -1.736238337339935 8.304913575942528 0  -2.284788328073005 7.90728200144012 0  -2.764319177750706 7.465493358919784 0  -3.209608636864758 6.927562932462297 0  -3.565793815779916 6.283499479891017 0  -3.84582873284949 5.593895373591675 0  -4.044587296851399 4.856416815180344 0  -4.159500929677001 4.078478615552756 0  -4.193831232242867 3.30140310947229 0  -4.132604570451636 2.433272751709539 0  -3.979286335232299 1.783704063070033 0  -3.852033803556262 1.067427280433121 0  -3.590181643330397 0.2774148377999717 0  -3.273625640742239 -0.4388571401984598 0  -2.906217586826921 -1.106859984666681 0  -2.47859995991164 -1.772353684159278 0  -2.033654291786386 -2.283636178230776 0  -1.46010385620606 -3.093555825592694 0  -0.8375395561482923 -3.276312514318962 0  -0.4469630087287457 -3.400492352548702 0  0.1129649356431417 -3.75502870884817 0  0.6661115204112855 -3.967096127276601 0  1.247855371136002 -4.169875934981501 0  1.77923903692732 -4.180162437080229 0  2.439636670682473 -4.403773269789694 0  2.670001825362418 -3.633523718803489 0  2.933061425428184 -3.927238594754202 0  4.055862180431603 -4.662560593464169 0  4.619789516834457 -4.484270200170961 0  5.318046242479903 -4.389900476715498 0  5.798672186328548 -4.053690631958808 0  6.476251441149311 -3.826539838207084 0  6.584093609296293 -3.084522086950049 0  7.871830078867812 -3.16269371322932 0  7.25486398143591 -1.374717894389463 0  6.230377321520209 -0.6459411534589038 0  7.091845144009644 -0.3242369499965891 0  6.792784410142778 0.2735231479426782 0  7.042414301752672 0.8388836807495892 0  6.732137043933522 1.401174744662337 0  7.0206200616042 1.991366069583328 0  6.05075879395119 2.285546930268106 0  7.142991762703544 3.022682138899388 0  7.784680107439766 4.900856727343529 0  6.34615707584291 4.721683234589676 0  6.229543724517234 5.467556526219575 0  5.484892018301387 5.64494790161236 0  4.966438377651151 5.949783820638628 0  4.223452752364907 6.003038285586995 0  3.640574229472067 6.171792475683428 0  2.431002268075237 5.373087485734545 0  2.099479596776781 4.898235401854691 0  1.88382419760981 5.722342766289387 0  1.182271740973099 5.434004767842838 0  0.6281695454249672 5.403770710178975 0  0.01366845471896183 5.16128906742522 0  -0.5672359900771913 4.919531280402541 0  -1.156765250109917 4.530576127051578 0  -1.572673852409835 4.417668801191113 0  -2.258788339030904 4.197798532939565 0  -2.884187013280967 3.256486753271564 0  -3.364655097859419 2.69253461949771 0  -3.833592000508693 1.942136117553928 0  -4.239828401574409 1.19265617176345 0  -4.590804068026681 0.3915466011107113 0  -4.875450044895862 -0.4646474854676982 0  -5.058080237145481 -1.210817261828147 0  -5.277444107449318 -2.049398277214842 0  -5.354546330028899 -3.14617830402077 0  -5.32614013182999 -4.053425651316686 0  -5.212493232906353 -5.002244059754888 0  -5.003811151064773 -5.900594226180725 0  -4.702454444460247 -6.757605458637354 0  -4.312937283135066 -7.586215971378557 0  -3.804136304306604 -8.280279588454937 0  -3.269260395511546 -8.86116733424689 0  -2.640311340022849 -9.430042266825994 0  -1.94962626237894 -9.843703636807296 0  -1.212967371899492 -10.14056703362004 0  -0.446145098117667 -10.30017569842416 0  0.3330693040479838 -10.32603978204856 0  1.108274960413987 -10.21156864094964 0  1.860753795771094 -9.963873963809306 0  2.57120511137522 -9.586569268862585 0  3.229642916073255 -9.096429082711204 0  3.820307319173764 -8.497114891929421 0  4.332986966094509 -7.807937443862993 0  4.759232699388154 -7.036453276294234 0  5.094614073041374 -6.220919683293059 0  5.329281162001926 -5.295362394214481 0  5.444547086330901 -4.502277496120266 0  5.550164659353269 -3.640806177632142 0  5.519212403569252 -2.699708558419694 0  5.410107478236348 -1.808698618963183 0  5.224596984640159 -0.9365622899683005 0  4.967401730273401 -0.09779001624046713 0  4.645346180803383 0.7011601500307555 0  4.249500049218497 1.470797381581635 0  3.834830071405992 2.0115433786282 0  3.4260623543448 2.68372684795128 0  2.90512787126296 3.340565136674019 0  2.359089371428454 3.898771048071601 0  1.795763340750822 4.382369005992999 0  1.185965178483073 4.863917927706923 0  0.6070660170488216 5.150944936508922 0  -0.1701750113611824 5.829852386855642 0  -0.842908892593299 5.589726229560408 0  -1.217554871323516 5.488779637686308 0  -1.845793137512443 5.671920163367007 0  -2.445519764966363 5.707416774140554 0  -3.042005228492853 5.7022544360469 0  -3.682585013808977 5.6984754429583 0  -4.187954304053726 5.464580308184614 0  -5.083862163801446 5.673097608548251 0  -5.44757219694848 4.794931316241161 0  -5.542889624557121 4.250285898752326 0  -6.044647839735321 3.929060141522037 0  -6.348817522451483 3.440521415021118 0  -6.648124668387999 2.925466642578427 0  -6.796581276853116 2.320180819229028 0  -6.886785065005879 1.710624388078431 0  -6.734363214268626 1.045205280213363 0  0.2826763998840604 5.416048181514417 0  0.1683725352319071 -0.5474064371978408 0  0.7809228743333374 0.9890436877586608 0  -0.05850088436759954 -6.584645245303552 0  -0.3518163775121359 0.2273492075260167 0  -4.13423729640707 -1.698733852754652 0  1.348762498122088 -0.3415497626295963 0  5.130806310443479 0.6811884695952132 0  -3.978462516524187 2.343890433771446 0  2.629571746363514 2.918242232370713 0  3.697203393794148 0.5253026916695348 0  2.249404062414602 -0.1704486620341417 0  3.146416600292243 -1.748980559552094 0  1.048290988901416 -4.82428467037625 0  -1.311767472894457 -2.657109788716374 0  0.6263215623079785 3.74678461438017 0  -2.82132985519984 0.3011138164122595 0  -3.526233543665743 0.1262754460674538 0  -0.4376460403583098 -3.233823845823628 0  0.0588346524118436 2.949885535761569 0  1.509836165200603 1.780465772582671 0  -2.076877081092214 2.225929599575735 0  -2.38141830660184 -1.876752186203444 0  -2.120020555644681 -0.6850313502243074 0  -0.6699288091032971 0.735037548703064 0  2.607176093027386 0.7089201428792505 0  0.3405875531910366 -2.134150617909154 0  -4.043258474265302 0.2456317644350238 0  -5.306965146786832 0.4003443836692628 0  -0.9484533454872177 1.15667326080897 0  -3.157533033613073 0.9883912017998628 0  -2.349800885313088 0.3230520034468977 0  -3.05519479932681 0.08717485604779811 0  -1.13909571566628 -0.8243897100701997 0  -3.477726637656301 1.426358215756641 0  -3.758681768296391 0.1837404464676048 0  3.762823690936151 -0.4346132222511593 0  4.447254116083255 -0.8314145335486707 0  4.333561931377362 0.629085213855384 0  3.476774394269073 1.570934986904738 0  4.215184241762937 2.133582468206206 0  4.513762328845985 3.158734059754308 0  5.778891162552994 1.962548310546439 0  5.867488482559876 -0.4657924234642029 0  4.759004535841335 -1.779300576981325 0  0.1104888072572529 -4.420697976267106 0  0.4726944143114128 -2.989264556922331 0  -0.4853542975089727 -5.284964401058424 0  1.372997567379742 -1.030864888606933 0  1.056553251831997 -1.46788168314733 0  2.450657709631653 4.067187879106732 0  2.978292942826062 -2.771776813607828 0  -0.3506768109548382 -2.473891759157823 0  -1.738582828289514 -1.453469136562828 0  -0.06726744306509042 -3.681916951826812 0  2.24414904780546 -1.303165431169338 0  3.120250849346053 -0.206576542180318 0  -4.276523115290126 3.487517757331839 0  -2.509026976030209 4.016510750913717 0  -2.837716306069216 -3.371456553552374 0  -4.492917734526177 -2.710766503095834 0  -1.862369127234189 0.08926696743115248 0  -0.5121167663405695 2.480413963326902 0  0.1504145972694424 -1.616901925581529 0  -1.098879210983478 0.4248746444270641 0  1.914222101917525 0.5424979924684256 0  2.711086793135052 -2.300889411438142 0  2.148869258108361 1.640667831151385 0  1.343538817171563 -0.6794037577504711 0  0.3548355538052217 -8.522590052845892 0  -1.305881092190689 -7.787459375155994 0  -0.8027404165955443 6.74271308239661 0  0.5425401254014396 7.124593804907683 0  0.7807637355484358 -2.622864993934677 0  -3.272820982501725 -0.01794818662542316 0  -2.711574620026172 -0.27380509521084
[...]
<PointData  Vectors="f_44"> 
<DataArray  type="Float64"  Name="f_44"  NumberOfComponents="3" format="ascii">2.3289482347962082e-01 3.8186663962766210e-02 0.0000000000000000e+00  1.8427545572278445e-01 -1.2762285497146458e-01 0.0000000000000000e+00  1.7995294493743844e-01 -6.4540697487029702e-02 0.0000000000000000e+00  2.3514247418230513e-01 8.2010186179113417e-02 0.0000000000000000e+00  1.6633185022295419e-01 1.1337387927110518e-01 0.0000000000000000e+00  1.5700675381482837e-01 1.8589342984632237e-01 0.0000000000000000e+00  -1.2976687495920346e-03 2.2439995363611728e-01 0.0000000000000000e+00  4.4608450869240888e-02 1.1272198696918194e-01 0.0000000000000000e+00  2.8130838415249609e-01 1.4436573851248591e-01 0.0000000000000000e+00  -3.9892651495372265e-02 2.2093635078693587e-02 0.0000000000000000e+00  -2.2144098247657662e-01 -3.4627439523679479e-03 0.0000000000000000e+00  -1.4494020552596462e-01 1.5901617843729746e-01 0.0000000000000000e+00  -2.4175306585132228e-01 -5.1920636812823389e-03 0.0000000000000000e+00  -2.1893549524368253e-01 4.6422049566252774e-02 0.0000000000000000e+00  -2.1679348259998241e-01 -7.9384293859821820e-02 0.0000000000000000e+00  -1.8164896513831799e-01 -3.9147504882429698e-02 0.0000000000000000e+00  -1.8516237337302036e-01 2.6361021474839180e-01 0.0000000000000000e+00  -7.2609095572874163e-02 -7.3716007279791426e-02 0.0000000000000000e+00  -8.2394263679273078e-02 -2.4077797424310698e-01 0.0000000000000000e+00  -1.3095493994273399e-01 -1.6734493337854719e-01 0.0000000000000000e+00  -5.1110842841428819e-02 -2.2574749321433918e-01 0.0000000000000000e+00  -4.0864630836774989e-02 -2.1702827855071344e-01 0.0000000000000000e+00  5.8542486868028831e-03 -2.2624961588551229e-01 0.0000000000000000e+00  7.5532538227032472e-02 -2.1009451214314379e-01 0.0000000000000000e+00  5.2924147438085010e-02 -2.1485845973186371e-01 0.0000000000000000e+00  6.1049893999008509e-02 -2.1063477128696198e-01 0.0000000000000000e+00  1.4074444148104320e-01 -1.7914886947491923e-01 0.0000000000000000e+00  1.5829722105058799e-01 -1.5634579704922849e-01 0.0000000000000000e+00  1.8594150210237481e-01 -1.2569307773165006e-01 0.0000000000000000e+00  2.0410496306423523e-01 -9.0957381894111719e-02 0.0000000000000000e+00  2.1756430576352537e-01 -5.6358851426529862e-02 0.0000000000000000e+00  2.2278425206992025e-01 -4.2524423944169569e-03 0.0000000000000000e+00  2.2193271187233732e-01 3.5534062817639898e-02 0.0000000000000000e+00  2.1364844119276405e-01 6.5640647785444886e-02 0.0000000000000000e+00  1.9142132061929554e-01 1.1668846139600905e-01 0.0000000000000000e+00  1.5814950589677410e-01 1.5895639019564684e-01 0.0000000000000000e+00  1.1760271261278039e-01 1.9101892588941202e-01 0.0000000000000000e+00  6.1989680250974927e-02 2.1484922032262246e-01 0.0000000000000000e+00  9.2535167353219351e-03 2.2529410834107283e-01 0.0000000000000000e+00  -5.9971942666436767e-02 2.1506376732934793e-01 0.0000000000000000e+00  -1.3298066780661383e-01 1.8130262844362902e-01 0.0000000000000000e+00  -1.7256698312112609e-01 1.4499327741726931e-01 0.0000000000000000e+00  -2.0738498886660378e-01 8.1587558636813315e-02 0.0000000000000000e+00  -2.2648994657427088e-01 -2.3154675556624272e-04 0.0000000000000000e+00  -2.1011482113782778e-01 -7.5024460708299823e-02 0.0000000000000000e+00  -1.7590395596208283e-01 -1.4292065221495340e-01 0.0000000000000000e+00  -1.0763885508261962e-01 -1.9494251818912187e-01 0.0000000000000000e+00  -4.1054652409480925e-02 -2.2158950337780667e-01 0.0000000000000000e+00  7.5623350736302979e-03 -2.2478362224192083e-01 0.0000000000000000e+00  8.3155110183854047e-02 -2.0703442356152099e-01 0.0000000000000000e+00  1.4419864796989310e-01 -1.7325093354749421e-01 0.0000000000000000e+00  1.7771251159303880e-01 -1.3567963647057768e-01 0.0000000000000000e+00  2.0629718668588146e-01 -8.8233858927074263e-02 0.0000000000000000e+00  2.1953467438824376e-01 -4.1718731490155307e-02 0.0000000000000000e+00  2.2590697308484223e-01 1.7579630934299523e-03 0.0000000000000000e+00  2.0955811336191921e-01 7.1909813241897644e-02 0.0000000000000000e+00  2.0588469455353020e-01 8.9083274356698189e-02 0.0000000000000000e+00  1.9845419104512399e-01 9.8656524710233173e-02 0.0000000000000000e+00  1.6468871870787602e-01 1.5499101613749994e-01 0.0000000000000000e+00  1.3303820309694198e-01 1.7760133099897829e-01 0.0000000000000000e+00  1.1453807438114104e-01 1.9680160293195262e-01 0.0000000000000000e+00  4.6894638828181456e-02 2.1205330630784539e-01 0.0000000000000000e+00  8.1039451054450484e-02 2.2774217632323845e-01 0.0000000000000000e+00  -1.8815142696180617e-02 1.7513689009331693e-01 0.0000000000000000e+00  -2.5247788850533570e-01 9.6072211631170176e-02 0.0000000000000000e+00  -1.0698080780642580e-01 1.8784217796834196e-01 0.0000000000000000e+00  -1.2312561712804704e-01 1.7853834067887223e-01 0.0000000000000000e+00  -1.7839573871904371e-01 1.6014049319781878e-01 0.0000000000000000e+00  -1.8692291389056570e-01 4.8276657889332809e-02 0.0000000000000000e+00  -2.6543771386998627e-01 1.1522052444485026e-01 0.0000000000000000e+00  3.4246519310148632e-02 -1.5558286444157575e-02 0.0000000000000000e+00  2.0088594890995068e-01 -5.6685982102603318e-02 0.0000000000000000e+00  -7.3971054129848113e-02 2.9204386136444449e-01 0.0000000000000000e+00  -1.1409241544685322e-01 7.1763469585045633e-02 0.0000000000000000e+00  -2.4347290861296048e-01 -1.2217814561896874e-01 0.0000000000000000e+00  -1.1604459711059534e-01 -1.1253211769428309e-01 0.0000000000000000e+00  -2.0357179026343428e-01 -2.0186970391410999e-01 0.0000000000000000e+00  1.1249801279911972e-01 -9.4060183415271698e-02 0.0000000000000000e+00  -1.1251167538926053e-01 -1.6503606168331752e-02 0.0000000000000000e+00  -1.7197036530540992e-03 7.7019929598111297e-02 0.0000000000000000e+00  1.5640286432796724e-01 2.2119117946092690e-01 0.0000000000000000e+00  -2.0639851497386535e-01 3.2298933267454248e-02 0.0000000000000000e+00  -4.4099596081485032e-02 -2.8616023003694518e-02 0.0000000000000000e+00  1.9873301387132167e-01 2.3449525193820063e-02 0.0000000000000000e+00  1.0731445738365904e-01 1.8199352920149361e-02 0.0000000000000000e+00  1.8014329967804649e-01 -3.5306663049413812e-03 0.0000000000000000e+00  -5.5679719323084575e-02 2.1668572480156544e-02 0.0000000000000000e+00  -2.2390110447630282e-01 -3.9569469300985156e-02 0.0000000000000000e+00  1.5506779378432337e-01 -2.1213401011149302e-01 0.0000000000000000e+00  -3.4251135029975768e-03 -9.1272842289576300e-02 0.0000000000000000e+00  -1.1996108642848621e-01 -3.6225392070576077e-03 0.0000000000000000e+00  9.7242974690062031e-02 8.5195249015550992e-02 0.0000000000000000e+00  -2.3675522104308935e-01 1.6951622239021472e-01 0.0000000000000000e+00  -1.3584377140132020e-01 9.2155626455576664e-02 0.0000000000000000e+00  -2.4509621509964710e-01 9.8975622178249317e-02 0.0000000000000000e+00  -1.2342365169095269e-01 -7.8238699687109448e-02 0.0000000000000000e+00  -4.8055510237147096e-02 -2.8633394127952916e-01 0.0000000000000000e+00  2.1735206987983585e-01 2.7997961824217470e-02 0.0000000000000000e+00  4.4428021489171944e-02 1.0631521636140634e-03 0.0000000000000000e+00  -2.5287302907017223e-01 -1.3865799461898817e-01 0.0000000000000000e+00  -1.8244391050066666e-01 -6.2856702253708249e-02 0.0000000000000000e+00  -1.6639925233456093e-01 -1.7160417761107483e-01 0.0000000000000000e+00  -1.1351521248455604e-01 -1.8733216357574500e-01 0.0000000000000000e+00  -1.0756119981410950e-01 -1.7938941570755076e-01 0.0000000000000000e+00  -2.5755733357762861e-01 -9.6156079932300340e-02 0.0000000000000000e+00  -4.4747938062532980e-03 -1.7815615519798519e-01 0.0000000000000000e+00  9.0806275026899849e-02 -2.2220035895466711e-01 0.0000000000000000e+00  5.1285911367509464e-02 -2.1156363905563472e-01 0.0000000000000000e+00  1.1876623389770186e-01 -1.9403496468040629e-01 0.0000000000000000e+00  1.3403803605859541e-01 -1.7744297718050686e-01 0.0000000000000000e+00  1.6654083714750711e-01 -1.5106685280482302e-01 0.0000000000000000e+00  1.9224106943939290e-01 -1.1265253912316880e-01 0.0000000000000000e+00  1.9438138363045485e-01 -1.1419267719527157e-01 0.0000000000000000e+00  2.0852626153712406e-01 -7.2425728015942950e-02 0.0000000000000000e+00  2.2624646712973948e-01 -3.7422777454078639e-03 0.0000000000000000e+00  2.2089391029418209e-01 3.2563238747601218e-02 0.0000000000000000e+00  2.1145516584810187e-01 7.4854128735069428e-02 0.0000000000000000e+00  1.8755148633935584e-01 1.2128364676365631e-01 0.0000000000000000e+00  1.6389023841296271e-01 1.5523664220434710e-01 0.0000000000000000e+00  1.0801271948426934e-01 1.9425847572464230e-01 0.0000000000000000e+00  3.6984300684140575e-02 2.2226194653424455e-01 0.0000000000000000e+00  2.9162611221834676e-03 2.2505389803920359e-01 0.0000000000000000e+00  -6.1390104883578982e-02 2.1378303914269034e-01 0.0000000000000000e+00  -1.3828381500214890e-01 1.7945542147917876e-01 0.0000000000000000e+00  -1.8518854286089337e-01 1.2517354724222218e-01 0.0000000000000000e+00  -2.1909799265845897e-01 5.3129436221787771e-02 0.0000000000000000e+00  -2.2283443528411265e-01 -2.5382735080993497e-02 0.0000000000000000e+00  -2.0107504086625425e-01 -1.0121473794539211e-01 0.0000000000000000e+00  -1.5452904742162935e-01 -1.6246817473942918e-01 0.0000000000000000e+00  -9.5685949044088642e-02 -2.0355468706385155e-01 0.0000000000000000e+00  -3.0252379843463829e-02 -2.2197523948440323e-01 0.0000000000000000e+00  3.4881492101020956e-02 -2.2203422345426904e-01 0.0000000000000000e+00  9.3950362688378794e-02 -2.0303871926618280e-01 0.0000000000000000e+00  1.3999939210447396e-01 -1.7584338237227881e-01 0.0000000000000000e+00  1.7985844841896567e-01 -1.3340997147422723e-01 0.0000000000000000e+00  2.0885322416185012e-01 -7.9820318833253384e-02 0.0000000000000000e+00  2.1609052057040368e-01 -6.2968616951732143e-02 0.0000000000000000e+00  2.2064835666948990e-01 -2.2449015098507111e-02 0.0000000000000000e+00  2.2214300072987694e-01 3.9031902512449965e-02 0.0000000000000000e+00  2.1136819894988074e-01 7.1693050969917835e-02 0.0000000000000000e+00  1.9617201443079990e-01 1.0894023828247487e-01 0.0000000000000000e+00  1.7235267834167303e-01 1.4133576637476575e-01 0.0000000000000000e+00  1.5349390602760724e-01 1.6668466099797885e-01 0.0000000000000000e+00  8.7100459794064264e-02 2.0288068364801404e-01 0.0000000000000000e+00  7.9141158464405253e-02 2.0811519200236081e-01 0.0000000000000000e+00  8.8513573138757767e-02 2.0428371004524942e-01 0.0000000000000000e+00  2.4969394360739295e-02 2.2485265444242922e-01 0.0000000000000000e+00  -1.9776955936811794e-02 2.2009567803026095e-01 0.0000000000000000e+00  -3.1142851454918942e-02 2.2879718691364032e-01 0.0000000000000000e+00  -1.1188072569058854e-01 1.8099504142704531e-01 0.0000000000000000e+00  -6.2803005515661869e-02 2.4622017962608539e-01 0.0000000000000000e+00  -7.0143878735687573e-02 8.4952314602272358e-02 0.0000000000000000e+00  -2.1580185545824923e-01 -2.3549748872655321e-01 0.0000000000000000e+00  -1.8054069897483410e-01 6.2673608856599852e-02 0.0000000000000000e+00  -2.0650935845038304e-01 1.0060292014768273e-01 0.0000000000000000e+00  -2.2281277148954207e-01 -1.6859261334863207e-02 0.0000000000000000e+00  -2.3919643147700326e-01 3.4443076037794174e-02 0.0000000000000000e+00  -1.6399298372897472e-01 -1.3605877922475609e-01 0.0000000000000000e+00  -2.2531561764874483e-01 2.5023379495178879e-02 0.0000000000000000e+00  -4.1981754600232450e-02 -1.1357206429441019e-02 0.0000000000000000e+00  2.7517605871789652e-01 -1.6716626157737696e-01 0.0000000000000000e+00  2.2160950098746343e-02 -1.1458693889667036e-01 0.0000000000000000e+00  -3.6065925335854850e-02 -2.2365268882997616e-01 0.0000000000000000e+00  1.2919929524465629e-01 -2.0366522822908570e-01 0.0000000000000000e+00  1.4492254849193448e-01 -1.4747125030440345e-01 0.0000000000000000e+00  2.2176864019470566e-01 -9.5949729478394530e-02 0.0000000000000000e+00  2.0483584716541306e-01 2.6927503619847436e-02 0.0000000000000000e+00  2.0385797706669934e-01 1.0076825422931626e-01 0.0000000000000000e+00  -1.9231005710498272e-01 1.2056372247789930e-01 0.0000000000000000e+00  -8.3655591644926836e-02 2.0910267577295535e-01 0.0000000000000000e+00  1.2338719450876088e-02 -2.2473541652990531e-01 0.0000000000000000e+00  -1.6880448539774615e-01 -1.5076628991341068e-01 0.0000000000000000e+00  -1.7458840387301292e-01 -1.4294408884744911e-01 0.0000000000000000e+00  6.0723085622170020e-02 2.1688512294242110e-01 0.0000000000000000e+00  -7.5706725285019288e-02 2.1210638372157978e-01 0.0000000000000000e+00  2.2711913397947089e-01 -1.0538716576061491e-04 0.0000000000000000e+00  -2.8970368091666489e-04 -2.2499141232473840e-01 0.0000000000000000e+00  -1.9975283288428433e-01 1.0232030982725439e-01 0.0000000000000000e+00  2.3064924672450110e-01 -4.7324368019257990e-02 0.0000000000000000e+00  2.0850813792948625e-01 -8.1176619574232819e-02 0.0000000000000000e+00  -1.8074618457917999e-01 -1.3309865484101552e-01 0.0000000000000000e+00  2.1125413390836409e-01 8.0728963200070655e-02 0.0000000000000000e+00  -5.5344413834603819e-02 -2.2341772700324253e-01 0.0000000000000000e+00  8.6286444107048818e-02 -2.1091290814301678e-01 0.0000000000000000e+00  5.8356237159582630e-02 2.1944574224109697e-01 0.0000000000000000e+00  2.1080502827017045e-01 -1.0272840799564617e-01 0.0000000000000000e+00  1.1947901963169325e-01 1.9085769648675396e-01 0.0000000000000000e+00  1.9617028397360536e-01 -1.1020364708995131e-01 0.0000000000000000e+00  2.1509634926428431e-01 6.3269340885415956e-02 0.0000000000000000e+00  -2.2431757633025065e-01 -1.4003296787247868e-02 0.0000000000000000e+00  -2.0894678403738676e-01 8.3393127434380265e-02 0.0000000000000000e+00  -1.8620002869591890e-01 -1.2670263816952346e-01 0.0000000000000000e+00  3.7415789686831492e-02 2.2389657016654055e-01 0.0000000000000000e+00  1.0752892828283343e-01 1.9642620774305117e-01 0.0000000000000000e+00  1.2914992806971101e-01 1.8359520801189289e-01 0.0000000000000000e+00  2.1785547704002772e-01 -5.7774942453699449e-02 0.0000000000000000e+00  2.2302332957675888e-01 -2.3144367032341920e-02 0.0000000000000000e+00  -1.9510563634015834e-01 1.1211704095996386e-01 0.0000000000000000e+00  -1.3666343164236142e-01 -1.8016468965607704e-01 0.0000000000000000e+00  -2.1553520934096973e-01 -6.8803093844790719e-02 0.0000000000000000e+00  -2.4602558201343359e-02 -2.2702356122460840e-01 0.0000000000000000e+00  -2.0775033995342240e-01 8.8366869847695151e-02 0.0000000000000000e+00  -4.3807417880407269e-02 -2.2119096599514373e-01 0.0000000000000000e+00  2.1604876244696578e-01 -7.3287559975283079e-02 0.0000000000000000e+00  -3.3847300960272726e-02 -2.2410941201850154e-01 0.0000000000000000e+00  4.8999376839146236e-02 -2.2022988463317919e-01 0.0000000000000000e+00  2.2540543532949861e-01 2.5067239435251413e-02 0.0000000000000000e+00  -8.8023508060000102e-02 2.0927171972996536e-01 0.0000000000000000e+00  2.0629414179131826e-02 2.2465781828132705e-01 0.0000000000000000e+00  -3.2360273814303245e-02 2.2392516265281759e-01 0.0000000000000000e+00  2.2295432137530893e-01 -2.9355256125931744e-02 0.0000000000000000e+00  2.1325485042753886e-01 -7.0116067690522088e-02 0.0000000000000000e+00  -4.6309594605468234e-02 -2.2105488019835481e-01 0.0000000000000000e+00  -2.3268930061457407e-01 2.6031456588388787e-02 0.0000000000000000e+00  3.2002617569571047e-02 2.2386191504020717e-01 0.0000000000000000e+00  -1.7245444628976314e-01 1.4593091948843553e-01 0.0000000000000000e+00  2.1776689029980562e-01 5.3480538172350899e-02 0.0000000000000000e+00  2.1606106141711109e-01 6.1998150267575970e-02 0.0000000000000000e+00  -2.0398178911657136e-01 9.4145521964818929e-02 0.0000000000000000e+00  -1.8922872124649906e-01 -1.2109391209924800e-01 0.0000000000000000e+00  -1.3260335401113582e-01 1.8372384724257035e-01 0.0000000000000000e+00  -1.5960759027952806e-01 -1.6142302210033857e-01 0.0000000000000000e+00  -4.1998122111743377e-02 2.2796514982260507e-01 0.0000000000000000e+00  -2.2277091877513192e-01 3.2251946176410431e-02 0.0000000000000000e+00  -2.2086850679532552e-01 -5.3351626453739406e-02 0.0000000000000000e+00  -2.6860752747670330e-02 -2.2314049755465412e-01 0.0000000000000000e+00  -1.9533904426006621e-01 -1.1055947121283348e-01 0.0000000000000000e+00  -1.7354788118282313e-01 1.4255272422028148e-01 0.0000000000000000e+00  1.1971469137814520e-02 2.2453968807573665e-01 0.0000000000000000e+00  1.5311649518184156e-01 -1.6426958045495255e-01 0.0000000000000000e+00  -6.3602334311466668e-02 -2.1518238795586403e-01 0.0000000000000000e+00  -9.3443766378910748e-02 2.0403097111434157e-01 0.0000000000000000e+00  1.2262745903322798e-01 1.8814187829591072e-01 0.0000000000000000e+00  2.7852989465711537e-02 2.2289520131282362e-01 0.0000000000000000e+00  1.6809644985162672e-01 1.4915192426315160e-01 0.0000000000000000e+00  1.1178787178376536e-01 -1.9541543512718962e-01 0.0000000000000000e+00  -3.1018710163854813e-02 -2.2274801710913514e-01 0.0000000000000000e+00  -1.8109235508942256e-01 -1.3506349584287541e-01 0.0000000000000000e+00  -1.7372598595346245e-01 1.4362313036838775e-01 0.0000000000000000e+00  -1.8306618795400945e-01 -1.3187002422160826e-01 0.0000000000000000e+00  -1.3695595046860040e-01 1.8027068581885519e-01 0.0000000000000000e+00  7.6055825323326762e-02 2.1222779333491867e-01 0.0000000000000000e+00  1.6312663961354856e-01 1.6150123924933366e-01 0.0000000000000000e+00  -1.3103792350708354e-01 1.8533293966152484e-01 0.0000000000000000e+00  -2.0256034860560579e-01 1.0157607444107836e-01 0.0000000000000000e+00  1.3099076799592296e-01 -1.8323264247244803e-01 0.0000000000000000e+00  2.0249575303255135e-01 -1.0683186489076693e-01 0.0000000000000000e+00  -2.0868730899130269e-01 -9.5502778787023151e-02 0.0000000000000000e+00  9.4788911956481064e-02 2.0689028849614299e-01 0.0000000000000000e+00  2.2275996020098332e-01 -3.0275835118207001e-02 0.0000000000000000e+00  1.8939738234233772e-01 -1.2330055816825478e-01 0.0000000000000000e+00  -2.0274912856005456e-01 -9.6457120234309884e-02 0.0000000000000000e+00  -2.0916090581477170e-01 8.1949842573021695e-02 0.0000000000000000e+00  -2.0679543505716183e-01 -8.8935217911004283e-02 0.0000000000000000e+00  -2.6764544667434817e-02 2.2523459492158276e-01 0.0000000000000000e+00  -2.2347400551149582e-01 -2.8864903428073276e-02 0.0000000000000000e+00  5.2481323214255339e-02 2.1975310042020549e-01 0.0000000000000000e+00  -2.2152702373755923e-01 5.2453038242706286e-02 0.0000000000000000e+00  -7.1402564189409767e-02 -2.1455927925348794e-01 0.0000000000000000e+00  2.3450513214277824e-01 -7.0274419520476902e-02 0.0000000000000000e+00  1.5025119551149671e-01 -1.7069909640124831e-01 0.0000000000000000e+00  2.1095623318584802e-01 -7.9653718961109010e-02 0.0000000000000000e+00  9.5218978144591987e-02 -2.0730498930806546e-01 0.0000000000000000e+00  -6.5769060536689114e-02 -2.1612632890347055e-01 0.0000000000000000e+00  1.7084017358524631e-01 -1.5434418054886792e-01 0.0000000000000000e+00  1.8945548865610720e-01 1.2765987699230080e-01 0.0000000000000000e+00  2.2356469448908367e-01 -2.5368659690753078e-02 0.0000000000000000e+00  8.9919123324955372e-02 -2.0679977898114624e-01 0.0000000000000000e+00  1.6583393532512447e-01 1.5380317653045256e-01 0.0000000000000000e+00  2.1579629457409913e-01 -6.5701485777543603e-02 0.0000000000000000e+00  1.8896955145841227e-01 1.1991582507217630e-01 0.0000000000000000e+00  -2.2663086344716377e-01 -4.0333237260484107e-02 0.0000000000000000e+00  2.2744050365395402e-01 4.7441304960477187e-02 0.0000000000000000e+00  6.7518742228765902e-02 2.1458905385745494e-01 0.0000000000000000e+00  2.1958370594588705e-01 4.7152126952782925e-02 0.0000000000000000e+00  2.1704700136258637e-01 -5.9133958764785576e-02 0.0000000000000000e+00  2.2440116164355384e-01 -9.7173791320391747e-03 0.0000000000000000e+00  8.7601571041603682e-02 -2.0718796216799545e-01 0.0000000000000000e+00  1.7124160447285650e-01 1.4593708913354736e-01 0.0000000000000000e+00  -2.3241760138066517e-01 1.5526777306790997e-02 0.0000000000000000e+00  -3.3662574791869