<?xml version="1.0"?>
<VTKFile type="UnstructuredGrid"  version="0.1"  >
<UnstructuredGrid>
<Piece  NumberOfPoints="2549" NumberOfCells="4928">
<Points>
<DataArray  type="Float64"  NumberOfComponents="3"  format="ascii">1.729106267719053 0.01571491796912641 0  1.725512485842521 0.05582852375604428 0  1.707864913286234 0.0893830641654641 0  1.695036644627037 0.1241934988960565 0  1.677203766445786 0.1565958524725295 0  1.659785296318401 0.1896464284566411 0  1.63843888331956 0.221066665965847 0  1.61966180565858 0.2551153038872707 0  1.585722903246209 0.2800672182654266 0  1.55749374043774 0.2928360425479762 0  1.542970678278546 0.335795610413302 0  1.514995849709189 0.3635201217995175 0  1.489454747953452 0.3960966226696737 0  1.461228848405943 0.4267256594458503 0  1.43196302621649 0.4568601584564757 0  1.402531014470495 0.4897790165463122 0  1.364488870142134 0.5127264663803273 0  1.334434964674 0.5295798579641837 0  1.306847447951422 0.5722287367695178 0  1.272779130709224 0.602071278866243 0  1.23899506079122 0.6361685455800938 0  1.203338938326519 0.6690163231451987 0  1.166700681549792 0.7027091724714518 0  1.128977426873754 0.7381834385430285 0  1.087368485147431 0.7725057899305565 0  1.045899858084665 0.8015422573989904 0  1.003664258806375 0.8365860884416239 0  0.9590554268787932 0.8710770980177192 0  0.912456304977846 0.9056175389229286 0  0.8637267696842279 0.9399741826608923 0  0.8127824111332022 0.9738279892979778 0  0.7595932798671343 1.007620980684782 0  0.7032835657575351 1.039258716381742 0  0.645700336306994 1.06901489442937 0  0.5852181186723976 1.099614144404417 0  0.5221509474723174 1.127302829994143 0  0.4566667566307033 1.153030839987187 0  0.388881143239657 1.176135799734487 0  0.3189678962608413 1.196268217769361 0  0.2472166131062203 1.213637860123657 0  0.1735092881195441 1.226644688775292 0  0.09921008821359346 1.235758755313366 0  0.02369240345943362 1.241832325547627 0  -0.05218054594562198 1.243123992310197 0  -0.1280028564651234 1.240308346675395 0  -0.2032961377042243 1.23306990219888 0  -0.2776015456383121 1.221820561070607 0  -0.3504913475617896 1.205749273554871 0  -0.4211644030283211 1.187475500822901 0  -0.4906945568631245 1.165367070539045 0  -0.5573538210520632 1.139102581775945 0  -0.6215328046466092 1.110564776625415 0  -0.6830563006790459 1.079668275582243 0  -0.7418280648820241 1.046630565796315 0  -0.7979329203372644 1.01272685223615 0  -0.8508845238092917 0.9750665683625673 0  -0.9007712185732774 0.9433049089299651 0  -0.9512636814107109 0.9085045193153377 0  -0.9973173086760923 0.8704205583830134 0  -1.041402604464123 0.8336336436817144 0  -1.08361086587677 0.7973167433654587 0  -1.123617282469486 0.760005470124766 0  -1.162725618772403 0.7264024596560542 0  -1.197417602429128 0.6823141093779083 0  -1.230134142049833 0.6566251294535349 0  -1.269603802289998 0.6315157404845256 0  -1.303224243358903 0.5978999254177202 0  -1.336429913236858 0.5673656856431466 0  -1.368034404826429 0.5356818334623304 0  -1.40041085324662 0.5084972767294784 0  -1.427843176080579 0.4730465026979263 0  -1.467670991580206 0.4669626163391797 0  -1.505279121492741 0.4258395462386234 0  -1.514637520014395 0.369020004544224 0  -1.539856757879468 0.3387433128608479 0  -1.559008891917133 0.3037233876562499 0  -1.582774439056718 0.2740310459204319 0  -1.5978175753205 0.238605167530628 0  -1.627647963055682 0.2168767140370726 0  -1.617068011455913 0.1671092461667404 0  -1.661884654854798 0.1733150553813036 0  -1.714683353220115 0.1442559447107479 0  -1.703172646003183 0.1006363872510906 0  -1.722015182416368 0.06429171221976772 0  -1.717424553070229 0.02621511502340413 0  -1.723910412610375 -0.01195740307614207 0  -1.705398429828235 -0.04853860226451427 0  -1.720296432206536 -0.09301826418578199 0  -1.665380661690167 -0.1218161727404059 0  -1.619791448062931 -0.1127916519758622 0  -1.635083479726075 -0.1657154281733712 0  -1.605527191465087 -0.1873233960304461 0  -1.592580069307536 -0.224304256243793 0  -1.569996637692866 -0.2549770331588138 0  -1.552242281769107 -0.2912818101916266 0  -1.527615268481745 -0.3218565082249802 0  -1.520968470159986 -0.3806567683955127 0  -1.485499811223403 -0.4274403762438993 0  -1.445212315864063 -0.4318412059323334 0  -1.419066081245109 -0.4693147038931933 0  -1.38739958687986 -0.4971226217374295 0  -1.356818759039345 -0.5300471562636977 0  -1.324480522286951 -0.5615092200569718 0  -1.291785122332762 -0.5962006225314799 0  -1.253107088807965 -0.6209577454887965 0  -1.22237649251724 -0.6478065247733793 0  -1.189304766318837 -0.6960008791861232 0  -1.151306505530193 -0.731249815895492 0  -1.112591316304287 -0.7712143642127436 0  -1.07159644074005 -0.8100774239453301 0  -1.028586759447741 -0.8495155134170828 0  -0.9832454389524999 -0.8896676507226856 0  -0.934483528008028 -0.9254021963911639 0  -0.886660759340357 -0.9630704910346305 0  -0.8342052671428921 -1.007876077065824 0  -0.7782855399490615 -1.045847660663978 0  -0.7195533611804632 -1.084225376975242 0  -0.6577197552156016 -1.120149115768854 0  -0.5928744656981545 -1.153918393611788 0  -0.5251735770589714 -1.185949978005189 0  -0.4536586882331619 -1.212937570495878 0  -0.3812560996692127 -1.235558190205085 0  -0.3058538269721208 -1.256980832660717 0  -0.2284749105447351 -1.27273665756298 0  -0.1496240701377976 -1.284030914533074 0  -0.0698072716802777 -1.290227706874518 0  0.01040841447057905 -1.291438743189018 0  0.09049882731546383 -1.287458736365384 0  0.1698673933230112 -1.278509256175441 0  0.2478992444260085 -1.264701208788217 0  0.3242704309891284 -1.246555421105921 0  0.3984763057204916 -1.224181552133285 0  0.4701852585301874 -1.198176879607473 0  0.5391202933661082 -1.168769895373016 0  0.6051294360855082 -1.13714696526149 0  0.6678906725106453 -1.101235623771996 0  0.7268050210288017 -1.068601425321838 0  0.7852862860859828 -1.032953305497488 0  0.8393510643080011 -0.9939239007478646 0  0.890806474749536 -0.9555486297103069 0  0.939687164131994 -0.9168317311963134 0  0.9861189222632091 -0.8782033564369685 0  1.030291198950086 -0.8398400904041329 0  1.071898683492326 -0.8013855100957835 0  1.112630015009905 -0.769045384621997 0  1.153225491108427 -0.7315250559294898 0  1.189959176762062 -0.6933734267317174 0  1.225510908223659 -0.6571511305542398 0  1.260078643569367 -0.6220608608168507 0  1.292697602298743 -0.5857836988326564 0  1.325725167373488 -0.5542775630610123 0  1.351927861124391 -0.5091545859159553 0  1.380688890331311 -0.491311560321922 0  1.417963360741848 -0.467603059080567 0  1.446400634602197 -0.4334170058008122 0  1.474685876712327 -0.4021535781012462 0  1.501874423276466 -0.3703704499346415 0  1.526302256872295 -0.3366478046902539 0  1.553351462721866 -0.3081087499675771 0  1.56632702689108 -0.2636235922109693 0  1.593746223021726 -0.2508673743589104 0  1.62698506911209 -0.225363182267534 0  1.644505605330795 -0.1904849554650634 0  1.664662137163191 -0.1584271596998993 0  1.68084525843089 -0.1248541569057724 0  1.696989479641386 -0.09193595508163237 0  1.709580773483722 -0.05731177976032933 0  1.723840844790413 -0.02308144881405763 0  -0.1028539564504097 0.7573019810085998 0  0.6968827636974642 -0.5194570442339358 0  -0.8495834295636803 -0.4256350957928842 0  -0.08759412638896211 -0.7804299468153455 0  0.6806268601741891 0.5094552558066965 0  1.244300757283361 0.1688908119288278 0  -0.8493042940231106 0.4416642061713474 0  -1.337339804948021 0.01900515684786392 0  1.250499079456423 -0.1491589461005463 0  -1.140886802161048 -0.2665559570967526 0  -0.861907355142042 0.00545831029177748 0  -0.5169940975367712 -0.1384948275902197 0  -1.14334941959585 0.2859060857538084 0  0.3509922047437999 -0.7229117674431458 0  0.1273063381617108 -0.2499141703988661 0  0.2998403028148339 0.6860177411395304 0  0.3268710810994962 0.188885997189848 0  0.6898716103836694 0.006541019527434111 0  -0.4889754130978951 -0.622294805985863 0  -0.5134541931329493 0.6356856784505839 0  -0.2911485612648304 0.2728693599655788 0  1.001773365683642 -0.3004470652259247 0  0.992034725821429 0.3121522727966385 0  0.4292396238374411 -0.2188267037942991 0  0.01573659111847446 0.2338854827692333 0  -0.5806777793183399 0.2042665524841447 0  -0.2029752036192158 -0.2279924266607323 0  1.009950710292295 0.008267799445792548 0  1.447651084269985 0.01248841377322329 0  0.8495092811731443 -0.4000329397418042 0  0.8346981842450907 -0.1528190016311743 0  0.6724124876313112 -0.239782465509123 0  0.5523034999333177 -0.0946880668794878 0  0.557958952971831 -0.37564721202534 0  0.992810198613671 -0.1401340849603392 0  0.8507256678588927 0.007335248274624862 0  -0.9919717094347915 0.1512205015131094 0  -1.230699529124579 0.1431581685330166 0  -1.102137421318201 0.01303922210803992 0  -0.9916037403955996 -0.1352624944998433 0  -1.228644703137052 -0.1133420527112178 0  -1.40625232381692 -0.1767134282085296 0  -1.512547979382234 -0.04794885149942277 0  -1.509779313132029 0.09244049014373776 0  -1.398588504848333 0.2175387417181867 0  -0.1462394939776658 -0.5061268131336872 0  -0.3296870690493349 -0.4346835327312956 0  -0.2956997958417417 -0.713103934384818 0  -0.3575470955912148 -0.1794487911453286 0  -0.4982761852922125 -0.3730743614511177 0  -1.333416051710133 -0.3260587683694418 0  -1.326234460232862 0.3579457148570069 0  0.3959030384286455 -0.4620952902705208 0  0.2775639555614531 -0.2275703923182227 0  0.2411639839193626 -0.4845760852422712 0  -0.9964343724782838 0.3557257625226253 0  -0.8369412026017031 0.2142346017721786 0  1.435763096284269 -0.202572320157055 0  1.312520820160383 -0.3186820526097406 0  1.301584098445795 0.3386253576130409 0  1.428335584282273 0.2266311581876941 0  -0.8834019302179827 -0.6692638412649646 0  -1.05497779910152 -0.5302633669267147 0  -1.043006620340142 0.5551455807153397 0  -0.8682757966865803 0.6832282292446203 0  0.9020257893098904 -0.6501752918731776 0  0.7088634855616847 -0.7870307174272337 0  0.6912941875920776 0.7663987930432768 0  0.8841919366615507 0.6458969867081215 0  0.0240650427827578 -1.03722
[...]
<PointData  Vectors="f_44"> 
<DataArray  type="Float64"  Name="f_44"  NumberOfComponents="3" format="ascii">2.4049687355210597e-01 -1.6489913939367749e-02 0.0000000000000000e+00  1.6554103861302560e-01 1.2624981163138915e-01 0.0000000000000000e+00  1.4311392012381610e-01 1.7618501842898973e-01 0.0000000000000000e+00  1.5095621034329848e-01 1.5866560108717873e-01 0.0000000000000000e+00  1.2258466603976374e-01 1.9100107379439599e-01 0.0000000000000000e+00  9.7174941141809371e-02 1.9716908675001135e-01 0.0000000000000000e+00  1.1399704489495505e-01 1.9786468421138595e-01 0.0000000000000000e+00  5.3711360239008375e-02 2.0164405739759422e-01 0.0000000000000000e+00  -1.8148352054370670e-01 2.0578905759517127e-01 0.0000000000000000e+00  6.8457768968248775e-02 1.2900584730897194e-01 0.0000000000000000e+00  1.2412056329880415e-01 1.7634761908411936e-01 0.0000000000000000e+00  -4.9780753889720041e-03 2.3213518212423162e-01 0.0000000000000000e+00  5.5663428246501251e-02 2.1588372309162096e-01 0.0000000000000000e+00  -3.2497206054024671e-03 2.2443749893049905e-01 0.0000000000000000e+00  3.1594870899984528e-02 2.2545472286121529e-01 0.0000000000000000e+00  -2.6754995544216301e-02 2.1114923075600117e-01 0.0000000000000000e+00  -1.6325287235625280e-01 1.8985378716294507e-01 0.0000000000000000e+00  2.8710418039058452e-02 1.9591444853130027e-01 0.0000000000000000e+00  5.2093554975408768e-02 2.1368964148352645e-01 0.0000000000000000e+00  -3.3083545646893794e-02 2.2475458224917708e-01 0.0000000000000000e+00  2.2988061489132958e-03 2.2296378955919677e-01 0.0000000000000000e+00  -2.5174061837742154e-02 2.2275039038182673e-01 0.0000000000000000e+00  -1.2421339253857636e-02 2.2307276383018909e-01 0.0000000000000000e+00  -2.2176528001827352e-02 2.2300151941404972e-01 0.0000000000000000e+00  -6.8251495344672897e-02 2.1303517204223454e-01 0.0000000000000000e+00  -5.9791588215182774e-02 2.1442195439252781e-01 0.0000000000000000e+00  -4.2576236984242483e-02 2.1983479396065683e-01 0.0000000000000000e+00  -6.3101881337570248e-02 2.1462304980310781e-01 0.0000000000000000e+00  -6.8944964401241815e-02 2.1271967191225832e-01 0.0000000000000000e+00  -8.1704077311477399e-02 2.0811704037103204e-01 0.0000000000000000e+00  -8.9604301526929511e-02 2.0502828796532652e-01 0.0000000000000000e+00  -1.0475557615104453e-01 1.9748004191998272e-01 0.0000000000000000e+00  -1.2563105135529942e-01 1.8508183379628992e-01 0.0000000000000000e+00  -1.2972315821230937e-01 1.8229321892483824e-01 0.0000000000000000e+00  -1.4081241952404647e-01 1.7347047410377006e-01 0.0000000000000000e+00  -1.5865887723017444e-01 1.5792210558913963e-01 0.0000000000000000e+00  -1.7006238082413841e-01 1.4521443414329363e-01 0.0000000000000000e+00  -1.8380840134826046e-01 1.2740748035656549e-01 0.0000000000000000e+00  -1.9406453628711617e-01 1.1146661908575643e-01 0.0000000000000000e+00  -2.0462455347132982e-01 9.0198592631566335e-02 0.0000000000000000e+00  -2.1438114053464383e-01 6.3945066330116151e-02 0.0000000000000000e+00  -2.1908613348566744e-01 4.5759013104387992e-02 0.0000000000000000e+00  -2.2242342974803728e-01 2.2283694657172635e-02 0.0000000000000000e+00  -2.2385263732932320e-01 -4.8783790301440170e-03 0.0000000000000000e+00  -2.2157055923971569e-01 -2.9688271030714891e-02 0.0000000000000000e+00  -2.1737823725508096e-01 -5.3876290433114864e-02 0.0000000000000000e+00  -2.0822406972929006e-01 -8.1107977215365695e-02 0.0000000000000000e+00  -1.9915280167946525e-01 -1.0223673856525024e-01 0.0000000000000000e+00  -1.9057563128318683e-01 -1.1713280514661807e-01 0.0000000000000000e+00  -1.7292093271739709e-01 -1.4182103084356740e-01 0.0000000000000000e+00  -1.5610336579469952e-01 -1.6035162053353758e-01 0.0000000000000000e+00  -1.4264104840773795e-01 -1.7234729300257981e-01 0.0000000000000000e+00  -1.2344385699398382e-01 -1.8627091306990265e-01 0.0000000000000000e+00  -1.1309454744203627e-01 -1.9357691471223432e-01 0.0000000000000000e+00  -8.4761631525307732e-02 -2.0637900061211900e-01 0.0000000000000000e+00  -8.0204438645644943e-02 -2.0834440313580863e-01 0.0000000000000000e+00  -9.5932418016584517e-02 -2.0277097819264972e-01 0.0000000000000000e+00  -5.8240721713175882e-02 -2.1549373019754597e-01 0.0000000000000000e+00  -3.6498150877266350e-02 -2.2085963069824729e-01 0.0000000000000000e+00  -4.1603025636299258e-02 -2.2000802866624999e-01 0.0000000000000000e+00  -1.7294830157249742e-02 -2.2237318651417323e-01 0.0000000000000000e+00  -3.6447954494722608e-02 -2.2297649425364241e-01 0.0000000000000000e+00  1.8023960131130910e-02 -2.1813875927645496e-01 0.0000000000000000e+00  2.9265774225500099e-02 -2.1932622101670038e-01 0.0000000000000000e+00  -1.0811668168269006e-01 -2.0656190488555809e-01 0.0000000000000000e+00  -4.3290948693828928e-02 -2.1157573342544689e-01 0.0000000000000000e+00  -1.6533325338493796e-03 -2.2591637122054203e-01 0.0000000000000000e+00  -3.8115583657313719e-03 -2.2444672120748060e-01 0.0000000000000000e+00  -3.7925257556421274e-02 -2.1553201803839570e-01 0.0000000000000000e+00  4.5891070476289646e-02 -2.4584283689645103e-01 0.0000000000000000e+00  -8.3702297822082827e-02 -1.1379967401784019e-01 0.0000000000000000e+00  -1.5034205820771743e-01 -1.6838401203073974e-01 0.0000000000000000e+00  1.7549167118973830e-01 -1.5042062338940884e-01 0.0000000000000000e+00  1.4808558115094417e-01 -1.0680316516833148e-01 0.0000000000000000e+00  6.4353129641244594e-02 -2.2857685111615308e-01 0.0000000000000000e+00  7.9684168927644281e-02 -2.0223818773941479e-01 0.0000000000000000e+00  1.3262496089422940e-01 -1.7842602239149946e-01 0.0000000000000000e+00  4.9570400403558439e-03 -2.2013351266312806e-01 0.0000000000000000e+00  1.2152522588751109e-01 -5.6372952268202790e-02 0.0000000000000000e+00  4.0634221262741993e-02 1.6395848112244532e-01 0.0000000000000000e+00  -2.6576378107354293e-01 -1.4412707370428937e-01 0.0000000000000000e+00  5.6496955300000755e-02 -4.8323247636632941e-02 0.0000000000000000e+00  1.9510229339985638e-01 -7.8184018633826128e-03 0.0000000000000000e+00  1.4711934106869504e-01 -9.7351535132450359e-02 0.0000000000000000e+00  2.4769604440690446e-01 -1.4864884685291806e-02 0.0000000000000000e+00  1.4678392105409827e-01 9.1967385559145298e-02 0.0000000000000000e+00  1.9052435003247228e-01 -1.2333076930053149e-02 0.0000000000000000e+00  4.0345981533285932e-02 3.4223476489572975e-02 0.0000000000000000e+00  -2.6222259195759989e-01 1.3526593627039854e-01 0.0000000000000000e+00  4.1177328630824531e-02 -1.9645962055993724e-01 0.0000000000000000e+00  1.1358764302345936e-01 3.6890757579475852e-02 0.0000000000000000e+00  1.9332066238346261e-02 2.1166691946221569e-01 0.0000000000000000e+00  1.5322926129767184e-01 1.6233604196461351e-01 0.0000000000000000e+00  9.6963657108587550e-02 1.9459797654679042e-01 0.0000000000000000e+00  7.8501015238140903e-02 2.2419882104169980e-01 0.0000000000000000e+00  1.4845474597652086e-01 9.0175935339597502e-02 0.0000000000000000e+00  2.0272187209613837e-01 1.3583586190597877e-01 0.0000000000000000e+00  -1.2352198915209857e-01 1.6044644978961134e-01 0.0000000000000000e+00  -8.1353952145143307e-02 9.7977495718109708e-02 0.0000000000000000e+00  6.7166745932270705e-02 2.4598839800558267e-01 0.0000000000000000e+00  -2.7414629773367161e-02 2.1620186810731395e-01 0.0000000000000000e+00  1.1413714305557354e-02 2.2421656408557752e-01 0.0000000000000000e+00  1.2566949703084028e-02 2.2647720195843574e-01 0.0000000000000000e+00  -3.7454689353936602e-02 2.1043998602057615e-01 0.0000000000000000e+00  -1.0005659822562855e-01 2.1143270983219631e-01 0.0000000000000000e+00  6.1312623101115141e-02 2.1473193979934166e-01 0.0000000000000000e+00  4.0063736611873166e-02 2.1310569071028732e-01 0.0000000000000000e+00  -1.7792247356185616e-02 2.2577487500005430e-01 0.0000000000000000e+00  5.8683566892524649e-03 2.2291682182690620e-01 0.0000000000000000e+00  -2.0582085716275282e-02 2.2292188546725736e-01 0.0000000000000000e+00  -1.7324231085111545e-02 2.2353272652514941e-01 0.0000000000000000e+00  -4.9164279485450428e-02 2.1721172207338685e-01 0.0000000000000000e+00  -6.9136839775413808e-02 2.1320020504887816e-01 0.0000000000000000e+00  -3.3374420353289795e-02 2.2183985828511973e-01 0.0000000000000000e+00  -5.6883099508636702e-02 2.1472284791985047e-01 0.0000000000000000e+00  -9.0522856973191415e-02 2.0559586103530433e-01 0.0000000000000000e+00  -9.7479703366260301e-02 2.0086255897528546e-01 0.0000000000000000e+00  -1.2149154743841226e-01 1.8793866313620572e-01 0.0000000000000000e+00  -1.3357989112144664e-01 1.7963531217108764e-01 0.0000000000000000e+00  -1.5430018958281105e-01 1.6175613259354912e-01 0.0000000000000000e+00  -1.7855446430720989e-01 1.3487839017023484e-01 0.0000000000000000e+00  -1.8650540659636730e-01 1.2389233314108368e-01 0.0000000000000000e+00  -1.9754581119591705e-01 1.0417231044401244e-01 0.0000000000000000e+00  -2.1141431926697829e-01 7.4281485477779144e-02 0.0000000000000000e+00  -2.1808002616156663e-01 4.9234630067694574e-02 0.0000000000000000e+00  -2.2291425082241104e-01 2.0547290884838147e-02 0.0000000000000000e+00  -2.2356195021193259e-01 -7.6631417975122022e-03 0.0000000000000000e+00  -2.2086821858590691e-01 -3.6144738450881300e-02 0.0000000000000000e+00  -2.1446568006033068e-01 -6.3593660860170403e-02 0.0000000000000000e+00  -2.0536392274661197e-01 -8.8952741256426812e-02 0.0000000000000000e+00  -1.9333779932692224e-01 -1.1242779499225045e-01 0.0000000000000000e+00  -1.7952010643461350e-01 -1.3373037968830470e-01 0.0000000000000000e+00  -1.6259474044069397e-01 -1.5330181269842269e-01 0.0000000000000000e+00  -1.4943055625076765e-01 -1.6707982670533997e-01 0.0000000000000000e+00  -1.2439174141706420e-01 -1.8527584833509669e-01 0.0000000000000000e+00  -1.1356229303131764e-01 -1.9272401982174550e-01 0.0000000000000000e+00  -1.1622502029019399e-01 -1.9139561901514926e-01 0.0000000000000000e+00  -8.4547296708902819e-02 -2.0675066637203085e-01 0.0000000000000000e+00  -6.4718908817679166e-02 -2.1434514895537740e-01 0.0000000000000000e+00  -5.8943000471691001e-02 -2.1559767974594737e-01 0.0000000000000000e+00  -4.4663844233480625e-02 -2.1915244872125805e-01 0.0000000000000000e+00  -3.8229022615672542e-02 -2.2038482287143379e-01 0.0000000000000000e+00  -1.8466430063665790e-02 -2.2312893839974188e-01 0.0000000000000000e+00  -3.5233792194813651e-02 -2.1997003727542694e-01 0.0000000000000000e+00  -4.2181209569162915e-02 -2.1959902541712606e-01 0.0000000000000000e+00  1.0823699706305424e-03 -2.2408015537461262e-01 0.0000000000000000e+00  9.9558897408113835e-03 -2.2320744820149652e-01 0.0000000000000000e+00  -2.7863824506298446e-03 -2.2412613375142276e-01 0.0000000000000000e+00  2.4034491834079900e-02 -2.2171322449364370e-01 0.0000000000000000e+00  -1.2590981371352703e-02 -2.2684522031363069e-01 0.0000000000000000e+00  7.0720917907812417e-02 -2.0745460838852170e-01 0.0000000000000000e+00  5.0684555789102685e-02 -1.9248556052589177e-01 0.0000000000000000e+00  -1.5203543332591402e-01 -2.0093075550091508e-01 0.0000000000000000e+00  -1.4458769798428419e-02 -2.1080775581135996e-01 0.0000000000000000e+00  4.8300468473528722e-02 -2.2310360808867227e-01 0.0000000000000000e+00  1.2509884558258196e-02 -2.2400146254041123e-01 0.0000000000000000e+00  7.2439293942715907e-02 -2.1105993844997067e-01 0.0000000000000000e+00  1.0500268802669263e-02 -2.3195475446839750e-01 0.0000000000000000e+00  1.3742145936628528e-01 -1.6615862457986486e-01 0.0000000000000000e+00  7.9143900818542001e-02 -1.1792744223567841e-01 0.0000000000000000e+00  -1.7679887892972851e-01 -2.1387700105154286e-01 0.0000000000000000e+00  6.6160348050651449e-02 -1.9669486951248519e-01 0.0000000000000000e+00  1.2952221001454045e-01 -1.8844142822259560e-01 0.0000000000000000e+00  1.0924961747845406e-01 -1.9116668176367183e-01 0.0000000000000000e+00  1.4112197504874591e-01 -1.7677126470364371e-01 0.0000000000000000e+00  1.5525124168630072e-01 -1.5660449974123009e-01 0.0000000000000000e+00  1.6287813039585114e-01 -1.5793421878482675e-01 0.0000000000000000e+00  1.7955361017539520e-01 -1.1909855517798193e-01 0.0000000000000000e+00  -2.1605006131440721e-01 -5.8517292056554995e-02 0.0000000000000000e+00  2.9504201626219417e-02 -2.2191257060573460e-01 0.0000000000000000e+00  1.0159164994322017e-01 1.9942010703792964e-01 0.0000000000000000e+00  -2.1564291961162299e-01 6.0066601615934169e-02 0.0000000000000000e+00  1.6255120395455031e-02 2.2325034700803406e-01 0.0000000000000000e+00  1.9031179592631103e-01 1.1778225726821161e-01 0.0000000000000000e+00  8.3685579597896367e-02 -2.0757141021236181e-01 0.0000000000000000e+00  2.2259211181885252e-01 -2.3380570691990416e-02 0.0000000000000000e+00  1.9983621325620496e-01 -1.0079152816974800e-01 0.0000000000000000e+00  1.6705005311114107e-01 1.4894940020430678e-01 0.0000000000000000e+00  2.2370741125635818e-01 -8.4823308551353477e-03 0.0000000000000000e+00  1.9408316063832839e-01 1.1212593426676723e-01 0.0000000000000000e+00  1.5261743501429412e-01 -1.6368700756133633e-01 0.0000000000000000e+00  -1.5485083886942633e-01 -1.6162903117133340e-01 0.0000000000000000e+00  -1.8792859740764337e-01 -1.2368807081575645e-01 0.0000000000000000e+00  -1.6703838028926568e-01 1.4897580021997098e-01 0.0000000000000000e+00  7.8124366575458279e-02 2.1046531108611399e-01 0.0000000000000000e+00  2.2365606313546352e-01 1.4690080098515032e-02 0.0000000000000000e+00  -6.0307983612420089e-02 2.1557028973258952e-01 0.0000000000000000e+00  -7.0537938534751279e-02 -2.1242458049367594e-01 0.0000000000000000e+00  2.2252166221629944e-02 -2.2368429804239245e-01 0.0000000000000000e+00  1.5533294643307288e-01 -1.6113357070773307e-01 0.0000000000000000e+00  1.3981735225143380e-01 1.7475639771578449e-01 0.0000000000000000e+00  1.2362212792757785e-01 -1.8725661113602177e-01 0.0000000000000000e+00  -2.2333401354263463e-01 2.4041022881221456e-02 0.0000000000000000e+00  1.6700550283916699e-01 -1.4922651490814048e-01 0.0000000000000000e+00  -1.8571078302804730e-03 2.2493312423248246e-01 0.0000000000000000e+00  2.2345882305320292e-01 1.1487725267595018e-02 0.0000000000000000e+00  2.2370091666686753e-01 8.9209479632770157e-03 0.0000000000000000e+00  1.0787963184928581e-01 -1.9616343598017874e-01 0.0000000000000000e+00  2.0403297837818019e-01 -9.2273720719436861e-02 0.0000000000000000e+00  1.6344924945012929e-01 -1.5336359386016524e-01 0.0000000000000000e+00  2.1186349695575396e-01 -7.3638948771172635e-02 0.0000000000000000e+00  6.4275798091444528e-02 -2.1467641555374728e-01 0.0000000000000000e+00  2.0814065625591557e-01 -8.2172824404204647e-02 0.0000000000000000e+00  2.2347905273539792e-01 1.2719817563554966e-02 0.0000000000000000e+00  2.0209587875531076e-01 -9.6161325878877310e-02 0.0000000000000000e+00  2.0224995062150602e-01 -9.5893928147801288e-02 0.0000000000000000e+00  2.2330553734040853e-01 -1.4222396074798041e-02 0.0000000000000000e+00  2.0999110826087228e-01 7.7432935549011483e-02 0.0000000000000000e+00  2.1398350745455774e-01 6.5759863600332577e-02 0.0000000000000000e+00  1.9869645752170678e-01 1.0349530214634971e-01 0.0000000000000000e+00  2.2306329281829648e-01 -1.3880165015761911e-02 0.0000000000000000e+00  2.1492453180822618e-01 -6.0937435483749559e-02 0.0000000000000000e+00  1.7556171121148617e-01 -1.3898861591108655e-01 0.0000000000000000e+00  -1.7610577744125283e-01 1.3851516937821950e-01 0.0000000000000000e+00  -5.0184787058689444e-02 2.1839089795912214e-01 0.0000000000000000e+00  -1.5548561270518421e-01 1.6104396778977242e-01 0.0000000000000000e+00  1.4019797055246225e-01 1.7553453350546211e-01 0.0000000000000000e+00  6.0897960193283147e-02 2.1555986850485237e-01 0.0000000000000000e+00  1.1697046096094983e-01 1.9116970789266291e-01 0.0000000000000000e+00  9.8984548011307558e-02 -2.0096272173294871e-01 0.0000000000000000e+00  -5.8666775330161583e-02 -2.1619659963439941e-01 0.0000000000000000e+00  2.0376582840255338e-02 -2.2421378469662498e-01 0.0000000000000000e+00  -1.5822862131685037e-01 -1.5865198812595799e-01 0.0000000000000000e+00  1.2675061219392664e-01 -1.8444996494114652e-01 0.0000000000000000e+00  1.8073365283464390e-01 -1.3215455511764740e-01 0.0000000000000000e+00  1.5764612867708458e-01 -1.5892783450928596e-01 0.0000000000000000e+00  1.1839062347242710e-01 -1.9005206496917040e-01 0.0000000000000000e+00  1.0239622814243528e-01 1.9911582564053631e-01 0.0000000000000000e+00  1.4494690675777569e-01 1.7058027994495145e-01 0.0000000000000000e+00  1.0757385687895868e-02 2.2345876218168634e-01 0.0000000000000000e+00  6.2263919921474543e-02 2.1486637866605610e-01 0.0000000000000000e+00  4.1166709570109504e-02 -2.1988996098434313e-01 0.0000000000000000e+00  -9.9682792265489446e-03 -2.2350087442354369e-01 0.0000000000000000e+00  1.1294241932360734e-02 -2.2344312105633579e-01 0.0000000000000000e+00  -5.9152105567230384e-02 -2.1576105186950112e-01 0.0000000000000000e+00  -7.2035223479130689e-02 2.1180661938521286e-01 0.0000000000000000e+00  -7.0788309966076336e-03 2.2362214048822249e-01 0.0000000000000000e+00  -2.2372424453827297e-01 -6.3209431275773522e-03 0.0000000000000000e+00  -1.9805445952798850e-01 1.0420887915270345e-01 0.0000000000000000e+00  -2.0334277066387510e-01 -9.3445262094287815e-02 0.0000000000000000e+00  -2.2352758884209781e-01 1.0609878128738646e-02 0.0000000000000000e+00  -6.2140429957888633e-02 -2.1503780046502616e-01 0.0000000000000000e+00  2.0066387710442254e-01 1.0045250191796955e-01 0.0000000000000000e+00  1.4723571942398450e-01 1.6890807397997545e-01 0.0000000000000000e+00  3.8545521792691655e-02 2.2072360447798633e-01 0.0000000000000000e+00  1.4311364917450917e-01 1.7224866408851558e-01 0.0000000000000000e+00  2.2083416645676882e-01 3.7212261055966166e-02 0.0000000000000000e+00  1.9162794949230513e-01 1.1578345164278310e-01 0.0000000000000000e+00  -9.9999202148549932e-02 2.0095870688001621e-01 0.0000000000000000e+00  -1.3250589216203246e-01 1.8093831046585795e-01 0.0000000000000000e+00  2.3311587474695761e-01 8.3735120404619071e-02 0.0000000000000000e+00  7.8515258080946684e-02 2.0959894448934704e-01 0.0000000000000000e+00  6.1317904039892734e-02 -2.1523929392326621e-01 0.0000000000000000e+00  1.4289738667515423e-01 1.7224125078964947e-01 0.0000000000000000e+00  1.9291105591011556e-01 1.1365923251004405e-01 0.0000000000000000e+00  9.1297910543645000e-02 2.0438875827803185e-01 0.0000000000000000e+00  1.9889352153237394e-01 1.0253319954484874e-01 0.0000000000000000e+00  -9.1059523351745802e-02 2.0464382669364820e-01 0.0000000000000000e+00  -7.5480029836931542e-02 2.1071624314818138e-01 0.0000000000000000e+00  -2.2391233009422176e-01 -7.9613267130984947e-03 0.0000000000000000e+00  -2.1546014550083550e-01 -6.0749569255213007e-02 0.0000000000000000e+00  -4.5523630796319575e-02 -2.1934143099789197e-01 0.0000000000000000e+00  -1.6339298233713892e-01 -1.5330159700243742e-01 0.0000000000000000e+00  -1.5920740824840621e-01 -1.5737358290247580e-01 0.0000000000000000e+00  2.2507910573730217e-01 6.0028707451186807e-03 0.0000000000000000e+00  -1.8772726298529163e-01 1.2363012231235257e-01 0.0000000000000000e+00  -1.2872303202385779e-01 -1.8300950694525397e-01 0.0000000000000000e+00  -1.9731828804811857e-01 -1.0559149361902147e-01 0.0000000000000000e+00  -2.0043014109287893e-01 9.9486996389211740e-02 0.0000000000000000e+00  -1.4022309557834781e-01 1.7434540747350333e-01 0.0000000000000000e+00  1.6640317558657022e-01 9.0882241400599056e-02 0.0000000000000000e+00  -1.9301093728897437e-01 1.1358649005063784e-01 0.0000000000000000e+00  -2.1769274722129225e-01 5.1986869171922870e-02 0.0000000000000000e+00  -1.3643521959945271e-01 1.7736938285497353e-01 0.0000000000000000e+00  -5.2202435352142598e-02 2.1755125583966572e-01 0.0000000000000000e+00  3.5163494539008702e-02 2.2103724109787706e-01 0.0000000000000000e+00  -7.1270832777623555e-02 -2.1207377511285513e-01 0.0000000000000000e+00  -1.4766406964480677e-01 -1.6812874268323946e-01 0.0000000000000000e+00  1.7876049974310693e-02 -2.2309062481498984e-01 0.0000000000000000e+00  2.1264614525499834e-01 -7.0109354046379233e-02 0.0000000000000000e+00  1.21671