<?xml version="1.0"?>
<VTKFile type="UnstructuredGrid"  version="0.1"  >
<UnstructuredGrid>
<Piece  NumberOfPoints="2549" NumberOfCells="4928">
<Points>
<DataArray  type="Float64"  NumberOfComponents="3"  format="ascii">-2.33429971649515 0.2514386875060225 0  -2.342092281791085 0.03012171448170219 0  -2.477404847008058 -0.285000654202991 0  -2.444048182116234 -0.5590966217843696 0  -2.407565352114013 -0.8432403911960886 0  -2.29085747423003 -1.083491269898574 0  -2.17312006542916 -1.313535949258358 0  -1.959481352755851 -1.464239523926033 0  -1.94171645143638 -1.723450618588786 0  -1.79283903572737 -2.141584235024638 0  -1.390792265843019 -2.042138123942473 0  -1.175029582258712 -2.153616047844589 0  -0.8954918262959419 -2.156377666618722 0  -0.6375002737748896 -2.160936839212684 0  -0.3775980860758752 -2.145687956144806 0  -0.1042049370498312 -2.059702281193966 0  0.04555415621218462 -2.108487583009385 0  0.3355401280116375 -2.231302499753144 0  0.6759433580869939 -1.919095189657784 0  0.922357335671188 -1.790567420570965 0  1.181943591949131 -1.57371450562134 0  1.419265097874089 -1.357484261519918 0  1.647743589418626 -1.109160397920575 0  1.865016235889748 -0.8144820660679277 0  2.025639112886335 -0.5210343062074257 0  2.193466524907518 -0.2955498677371212 0  2.353480309171358 0.04213078137138537 0  2.479530161293984 0.3865638635657739 0  2.577336879221243 0.7469516993850029 0  2.644289743793725 1.119171987845505 0  2.678701648647842 1.497768990614816 0  2.67978449623515 1.889500401461696 0  2.633240155383433 2.260574245569805 0  2.568356820425932 2.615120133536285 0  2.458879633422768 2.996511856402219 0  2.309600632947853 3.344498485240589 0  2.122986828573671 3.674111486451622 0  1.900678389956936 3.974610807202203 0  1.645255271345686 4.240286133013812 0  1.361157401511239 4.474397981804123 0  1.046308549962291 4.651272004047497 0  0.722351324153071 4.77837673529966 0  0.3790784751850571 4.869317208762029 0  0.03012139179858307 4.896220527821023 0  -0.3182056038398553 4.869890531594246 0  -0.6584297153384095 4.785310658468524 0  -0.9833935416229687 4.649123632782827 0  -1.286441499422055 4.44842639995096 0  -1.554948971442379 4.225226077321393 0  -1.806298143960689 3.953526358566425 0  -2.013050592694573 3.628326887315496 0  -2.18167599571252 3.279918291286508 0  -2.309603556891475 2.907127246355517 0  -2.395540741395723 2.513653815678464 0  -2.441109522872233 2.120150847672992 0  -2.438813578636232 1.680650205465941 0  -2.390375307279256 1.349949660933224 0  -2.354862127610171 0.9854026295336201 0  -2.25192908350882 0.5834823064879933 0  -2.121510525243856 0.2179122966429204 0  -1.965517343755876 -0.1240590927791249 0  -1.77925406187698 -0.4653296045288035 0  -1.584142718617878 -0.7300678489988639 0  -1.324523854256676 -1.144719730123996 0  -1.04016901983941 -1.246409214307351 0  -0.8715518054055209 -1.319455917434778 0  -0.6179714148095267 -1.508355865356098 0  -0.3674582517942078 -1.626728739963183 0  -0.1022812874252526 -1.741200957720169 0  0.1381294161923832 -1.760209036404251 0  0.4435180400950915 -1.886705000118664 0  0.5344287585533214 -1.517143674858886 0  0.6423050141141584 -1.680488586499841 0  1.180765560846572 -2.065615768685644 0  1.440617246014367 -1.994972903122285 0  1.768598431178207 -1.967384933813951 0  1.988893282903894 -1.820027830472749 0  2.308990013293925 -1.728400480406974 0  2.345775378404951 -1.380574318698631 0  2.974334290313632 -1.444085734186192 0  2.65267113689877 -0.5757331461206803 0  2.129700844234881 -0.2380974898874706 0  2.552481123357863 -0.1049474856106899 0  2.398049136563864 0.165532729505047 0  2.521207150876336 0.419441840374784 0  2.367725453459252 0.6718162167973157 0  2.516868582155201 0.9385120454037966 0  2.039891580450428 1.057900378291906 0  2.596735027532596 1.399715268375623 0  2.930759304599665 2.313167241243198 0  2.226807111678273 2.199154892518426 0  2.185636154977971 2.548908824413112 0  1.83200319889033 2.615656465299507 0  1.592794498763916 2.747326605775433 0  1.24244886377961 2.754356945830287 0  0.9731215853668735 2.820231709795217 0  0.3912754354377024 2.403413031989999 0  0.249167644260557 2.149499516384451 0  0.1656118035587792 2.545989748368499 0  -0.1603542317846858 2.387130201785532 0  -0.4121242002807499 2.358148345318895 0  -0.6936797846401641 2.223825210037392 0  -0.9580718776693251 2.090607151133115 0  -1.226452926095901 1.884497804686129 0  -1.40773616797016 1.817087357743418 0  -1.723866095669013 1.6968410837974 0  -2.009409079365029 1.216493136519209 0  -2.222281630850786 0.9254200721979928 0  -2.429204550596742 0.5416971592227429 0  -2.604611905659901 0.1589872191395635 0  -2.752240295856905 -0.2490015870326663 0  -2.866570248279933 -0.6840127320509175 0  -2.929772258235828 -1.063506260312285 0  -3.011233347135016 -1.488712968218604 0  -3.021467071765154 -2.042538444947249 0  -2.978860342472091 -2.501127333560449 0  -2.893556524918797 -2.980040868642813 0  -2.760667204820039 -3.43326771758105 0  -2.581380907034651 -3.865379876688675 0  -2.357962467095791 -4.282852878024561 0  -2.074857534720311 -4.632619192088971 0  -1.778677533141309 -4.925369066354345 0  -1.435430042964408 -5.21168797822456 0  -1.061290080787092 -5.419978744294101 0  -0.6641450226031336 -5.56945161731709 0  -0.2519062199564338 -5.649879960850152 0  0.1665346513628717 -5.663019891024279 0  0.5829711497824911 -5.605576432131959 0  0.988038233217245 -5.481105082449891 0  1.37207950262724 -5.291411560437105 0  1.730095826997577 -5.044881386398799 0  2.054200989649495 -4.743342845583028 0  2.339282858964537 -4.396448120376274 0  2.581110167247743 -4.007971531302638 0  2.777460712031895 -3.597036990115475 0  2.923402199683846 -3.130651803018359 0  3.009583439723365 -2.7300575886114 0  3.090872595731444 -2.294817598465869 0  3.103800099434413 -1.819303573814879 0  3.0775650248238 -1.368363140639118 0  3.013030625668203 -0.9263787757634039 0  2.912546087429432 -0.500583998277371 0  2.779511351459746 -0.09419481277434816 0  2.609447731424344 0.2980578245868382 0  2.429823590685431 0.5764007911442276 0  2.252985263642156 0.921016187883786 0  2.019879512810883 1.258532329754929 0  1.774016616225979 1.547327342974393 0  1.519280916399103 1.799437461833076 0  1.241052881097612 2.051168701105849 0  0.9779868688292948 2.206313968988956 0  0.6154264712120168 2.558106852521915 0  0.304754479238758 2.451126079943721 0  0.1427126032908654 2.414517600645341 0  -0.1465963519048867 2.52077839863523 0  -0.4221878208741359 2.554090140725431 0  -0.6967770211280429 2.567996430379007 0  -0.9941270676509011 2.583573121591305 0  -1.224699714750194 2.485127891073806 0  -1.651506452476271 2.60898344041446 0  -1.813343335028373 2.190648121092737 0  -1.842309137502045 1.94027346983885 0  -2.076052513249583 1.80284331727063 0  -2.212828020714877 1.582999570003819 0  -2.349301480352444 1.351107520264001 0  -2.412802821888212 1.075217322810623 0  -2.449951083849956 0.7981412046777806 0  -2.368838538625251 0.4938314845863074 0  0.08369299016304356 3.011534013511414 0  0.4411520079883237 -0.5329809440551802 0  -0.06062876638770398 0.2588868962481859 0  -0.07351675121733506 -3.588921220277381 0  0.1810575516162899 0.3729523292192708 0  -1.358217655792654 -0.7347985419502752 0  0.2142764118535986 0.0626897051386327 0  1.792408315402705 0.3394164372094845 0  -1.279643628276131 1.057155269966547 0  0.6835286245443848 1.274475424903634 0  1.344113974988373 0.2569959141842407 0  0.8215856572784094 -0.1539563603856658 0  0.9323438158338726 -0.6987164845554992 0  0.6883948422394205 -2.707447043055939 0  -0.5690196994461125 -1.414686243778305 0  0.4578151057953878 2.167033970126937 0  -1.196451952593731 0.2431897806845632 0  -1.350179270607982 0.06447703236937913 0  -0.4641386198368054 -1.88593788977833 0  -0.2365402356112753 1.755459802955899 0  0.5802956612184438 1.002351495102881 0  -0.4878962053369338 0.9219932564522977 0  -0.640281257609185 -0.7469950460743691 0  -0.8042733662345533 -0.4444095972281741 0  -0.3160369896339956 0.4763784178985062 0  0.9618321589134629 0.4484537736430668 0  0.06003903354703533 -1.150327035329323 0  -1.435150508042026 0.1231213308921948 0  -1.820711608176862 0.2001606572713069 0  -0.02047263495283735 0.3532119960085706 0  -1.097026598589505 0.3993794838999727 0  -0.7899488218579144 0.03255679366314507 0  -1.193260193257067 -0.006689878366284943 0  -0.2631965318530614 -0.5927806788212399 0  -1.170352786678251 0.6178460605478771 0  -1.379632768990438 0.09269260223896998 0  1.3087357423576 -0.132247429340569 0  1.516697395975986 -0.3284092679581224 0  1.528039684824814 0.3111259923083677 0  1.1705147118615 0.6903169319862444 0  1.405466076653265 0.9738794896681808 0  1.458270895213518 1.437212775644456 0  2.015567734457393 0.9248723559421232 0  2.059866394460828 -0.1776722099891368 0  1.580891998711184 -0.748673831846093 0  -0.02201612241238254 -2.400274150133729 0  0.0585620358026398 -1.670771125081796 0  -0.3874681031000793 -2.925294482775273 0  0.4798132252011836 -0.5914243221751372 0  0.2540606391227274 -0.9028198396912205 0  0.4975873811971827 1.799705738473868 0  0.7566013799569402 -1.15643615375501 0  0.03465472421083082 -1.435545194570829 0  -0.697990939850305 -0.8207472040494833 0  0.0919229708623692 -2.031676504557372 0  0.5715898631428824 -0.4469635247476796 0  1.077829145114953 0.01061630631129318 0  -1.328246360929148 1.58295513669241 0  -0.5366152102544195 1.77899188457903 0  -0.7013031940614682 -1.456575567144418 0  -1.436786989334719 -1.194690290820465 0  -1.357095735225824 -0.3022328047991015 0  -0.7923031058300922 0.9265159864218094 0  -0.4655447408516333 -0.4958451481379839 0  -0.9798580939270145 0.5582184301393511 0  1.391798198636165 -0.07307531557885349 0  1.677681215032669 -1.519542988722834 0  1.396572447519311 1.189432198579458 0  1.10645655626317 0.004622432937834708 0  0.184115290051692 -4.659178375508368 0  -0.7614683918956169 -4.28826868532155 0  -0.5165875044707779 3.769351201506158 0  0.2712781254770667 3.963635914103564 0  0.65098941185475
[...]
<PointData  Vectors="f_44"> 
<DataArray  type="Float64"  Name="f_44"  NumberOfComponents="3" format="ascii">2.3523634663069917e-01 4.1474422128480314e-02 0.0000000000000000e+00  1.7336475409390451e-01 -1.4208449059502676e-01 0.0000000000000000e+00  1.7153183395394475e-01 -7.5990669133946961e-02 0.0000000000000000e+00  2.4052206750730132e-01 7.3974726547590186e-02 0.0000000000000000e+00  1.6673011074225963e-01 1.0723422794452997e-01 0.0000000000000000e+00  1.6173567854686538e-01 1.8522738704148470e-01 0.0000000000000000e+00  -9.2033065136563168e-03 2.2495109671455274e-01 0.0000000000000000e+00  3.9500550375816339e-02 9.2094148428466027e-02 0.0000000000000000e+00  2.8886990566161930e-01 1.3153376230603042e-01 0.0000000000000000e+00  -3.0174400860644178e-02 6.5501180205688606e-03 0.0000000000000000e+00  -2.2088738237739691e-01 -2.6487450498462267e-02 0.0000000000000000e+00  -1.5359570329612965e-01 1.4597316464164614e-01 0.0000000000000000e+00  -2.4192261035147744e-01 -3.3992082555894906e-02 0.0000000000000000e+00  -2.2257771979156532e-01 2.1551167317710816e-02 0.0000000000000000e+00  -2.0453432573457933e-01 -1.0708687108200589e-01 0.0000000000000000e+00  -1.7239024518700077e-01 -6.6086984508749558e-02 0.0000000000000000e+00  -1.9867028839829026e-01 2.6396276234186999e-01 0.0000000000000000e+00  -5.5614547097363784e-02 -7.9500631480137446e-02 0.0000000000000000e+00  -5.3584054780041919e-02 -2.5239545936498381e-01 0.0000000000000000e+00  -1.0232805251455430e-01 -1.8498750271569492e-01 0.0000000000000000e+00  -1.7951236266216697e-02 -2.3077702713313494e-01 0.0000000000000000e+00  -6.4880962172275984e-03 -2.2066961535289864e-01 0.0000000000000000e+00  3.8914856824798290e-02 -2.2317361243495909e-01 0.0000000000000000e+00  1.0611418597103514e-01 -1.9585500328446581e-01 0.0000000000000000e+00  9.1482007340137964e-02 -2.0175959529969145e-01 0.0000000000000000e+00  9.5793136945153581e-02 -1.9824684854310790e-01 0.0000000000000000e+00  1.6511923915422130e-01 -1.5603541555558012e-01 0.0000000000000000e+00  1.8086908587900352e-01 -1.2995201575598003e-01 0.0000000000000000e+00  2.0280299214012373e-01 -9.5985898149934315e-02 0.0000000000000000e+00  2.1557035943905692e-01 -5.8783970261111672e-02 0.0000000000000000e+00  2.2354180728481829e-01 -2.3484022244319499e-02 0.0000000000000000e+00  2.2098322433335713e-01 2.8513578001447624e-02 0.0000000000000000e+00  2.1362634416043372e-01 6.9630280950846224e-02 0.0000000000000000e+00  2.0196264555522653e-01 9.6133252179673334e-02 0.0000000000000000e+00  1.7366000612218008e-01 1.4143250839316854e-01 0.0000000000000000e+00  1.3531711690786355e-01 1.7890752700231738e-01 0.0000000000000000e+00  9.2526334945618294e-02 2.0423459536488509e-01 0.0000000000000000e+00  3.6333417992510011e-02 2.2066704872727610e-01 0.0000000000000000e+00  -1.4766837399985805e-02 2.2480715396405976e-01 0.0000000000000000e+00  -7.9078956042071283e-02 2.0885800823135364e-01 0.0000000000000000e+00  -1.4525189464311847e-01 1.7142023997198397e-01 0.0000000000000000e+00  -1.7995865043849257e-01 1.3532991420531520e-01 0.0000000000000000e+00  -2.0985653872195834e-01 7.5269165098943408e-02 0.0000000000000000e+00  -2.2609621132421562e-01 -7.8470905482246240e-04 0.0000000000000000e+00  -2.1185128038724110e-01 -7.0088162349354902e-02 0.0000000000000000e+00  -1.8237878711324129e-01 -1.3396430445928006e-01 0.0000000000000000e+00  -1.2167150899879395e-01 -1.8655576949984645e-01 0.0000000000000000e+00  -6.1742640342758649e-02 -2.1658780928978821e-01 0.0000000000000000e+00  -1.6408027713889675e-02 -2.2416295360930641e-01 0.0000000000000000e+00  5.8502021486748892e-02 -2.1538357742041112e-01 0.0000000000000000e+00  1.2106118645945520e-01 -1.8999193028302766e-01 0.0000000000000000e+00  1.5814261163448720e-01 -1.5814110280881177e-01 0.0000000000000000e+00  1.9241511813807957e-01 -1.1508469621115908e-01 0.0000000000000000e+00  2.1169570463454418e-01 -7.2592244438607970e-02 0.0000000000000000e+00  2.2350335539804564e-01 -2.7862440571610456e-02 0.0000000000000000e+00  2.1869749256426882e-01 4.0207065226833170e-02 0.0000000000000000e+00  2.1824568854972992e-01 5.2082227168943881e-02 0.0000000000000000e+00  2.1026665787615764e-01 6.9118829849180816e-02 0.0000000000000000e+00  1.8485881751895591e-01 1.3049272213175159e-01 0.0000000000000000e+00  1.5845137200231962e-01 1.5542785337433132e-01 0.0000000000000000e+00  1.4098889369838638e-01 1.7843453976608364e-01 0.0000000000000000e+00  8.0239564951721964e-02 2.0180476046002582e-01 0.0000000000000000e+00  1.1072068609661287e-01 2.1603684612898616e-01 0.0000000000000000e+00  2.2467808492079014e-03 1.7600075279141689e-01 0.0000000000000000e+00  -2.3519383591703308e-01 1.3076039092439351e-01 0.0000000000000000e+00  -7.1512975919556673e-02 2.0791113621392515e-01 0.0000000000000000e+00  -9.5827851246386639e-02 1.9368252844740957e-01 0.0000000000000000e+00  -1.5307936359113014e-01 1.8505941408628898e-01 0.0000000000000000e+00  -1.7689699620815616e-01 7.4365947073505509e-02 0.0000000000000000e+00  -2.5264641239272878e-01 1.4160244875190789e-01 0.0000000000000000e+00  4.5326622941029265e-02 7.1719434764543778e-03 0.0000000000000000e+00  2.3232221663081321e-01 -4.9009746103170944e-02 0.0000000000000000e+00  -3.7392068309446969e-02 2.8655793398459756e-01 0.0000000000000000e+00  -1.1068618999896697e-01 8.9172883930489111e-02 0.0000000000000000e+00  -2.5386030049624347e-01 -1.0021916539779145e-01 0.0000000000000000e+00  -1.2101431064090551e-01 -9.8458881593685876e-02 0.0000000000000000e+00  -2.1959461948743730e-01 -1.9325571733447763e-01 0.0000000000000000e+00  1.1205778403661798e-01 -7.5945410644204916e-02 0.0000000000000000e+00  -1.1429030561395069e-01 2.2300934615488502e-03 0.0000000000000000e+00  -9.9396169649932915e-04 9.1623753965286839e-02 0.0000000000000000e+00  1.4184716137111383e-01 2.1878136666664619e-01 0.0000000000000000e+00  -2.2326796150531253e-01 3.6682448638107185e-02 0.0000000000000000e+00  -6.3100675935783876e-02 -9.4807756268471544e-03 0.0000000000000000e+00  1.8215069838978737e-01 2.4375127432736864e-02 0.0000000000000000e+00  9.4896018470227411e-02 1.8687104726605685e-02 0.0000000000000000e+00  1.6020988275587564e-01 -4.0511385558503451e-03 0.0000000000000000e+00  -7.2388889124825273e-02 2.1042789517214883e-03 0.0000000000000000e+00  -2.3827717042980823e-01 -4.3477975011298457e-02 0.0000000000000000e+00  1.4072319418850132e-01 -2.0954513008125467e-01 0.0000000000000000e+00  -1.8476362027156201e-03 -1.0473989018905105e-01 0.0000000000000000e+00  -1.2062840880409011e-01 -2.0960905932669891e-02 0.0000000000000000e+00  9.7077341305421422e-02 6.5915586667584514e-02 0.0000000000000000e+00  -2.5226518536222303e-01 1.5663038081587055e-01 0.0000000000000000e+00  -1.4059948221342020e-01 7.6037379410049913e-02 0.0000000000000000e+00  -2.5301590111750599e-01 7.5928078204037533e-02 0.0000000000000000e+00  -1.1894451391252743e-01 -9.6233496011500649e-02 0.0000000000000000e+00  -1.8280858298546421e-02 -2.7760064739723084e-01 0.0000000000000000e+00  2.3903918823951281e-01 2.3460804029533863e-02 0.0000000000000000e+00  5.7430329243012272e-02 -2.1153442704988510e-02 0.0000000000000000e+00  -2.3779753041333082e-01 -1.6248835420875429e-01 0.0000000000000000e+00  -1.7075501678632485e-01 -8.8178247546151944e-02 0.0000000000000000e+00  -1.4065762584344826e-01 -1.9358573824147307e-01 0.0000000000000000e+00  -8.6250885958676221e-02 -2.0047657324806192e-01 0.0000000000000000e+00  -7.5843418398428813e-02 -1.9867493072023315e-01 0.0000000000000000e+00  -2.4270562422901501e-01 -1.2890296553582414e-01 0.0000000000000000e+00  1.4709759646161136e-02 -1.7760859611729493e-01 0.0000000000000000e+00  1.1680217605002959e-01 -2.1089821729605862e-01 0.0000000000000000e+00  8.1571774276599146e-02 -2.0181484083428863e-01 0.0000000000000000e+00  1.4202815537923691e-01 -1.7733314976772196e-01 0.0000000000000000e+00  1.5690679885262879e-01 -1.5765479683548295e-01 0.0000000000000000e+00  1.8428476706859651e-01 -1.2901347916611663e-01 0.0000000000000000e+00  2.0593654002717532e-01 -8.4900494801450913e-02 0.0000000000000000e+00  2.0868256680604816e-01 -8.3868543469778914e-02 0.0000000000000000e+00  2.1600726891730151e-01 -4.8891171024797044e-02 0.0000000000000000e+00  2.2476742001261577e-01 2.1195066336384846e-02 0.0000000000000000e+00  2.1560109614976222e-01 5.9205353644875940e-02 0.0000000000000000e+00  2.0155113694544727e-01 9.8042764729014201e-02 0.0000000000000000e+00  1.7269326052397699e-01 1.4177546490106860e-01 0.0000000000000000e+00  1.4623499358217712e-01 1.7180961289683036e-01 0.0000000000000000e+00  8.8161042240014836e-02 2.0416177659057835e-01 0.0000000000000000e+00  1.5594564295323975e-02 2.2464052234336623e-01 0.0000000000000000e+00  -1.6942311691564627e-02 2.2436345027968738e-01 0.0000000000000000e+00  -7.6689094360413157e-02 2.0879689360762618e-01 0.0000000000000000e+00  -1.4782672258217786e-01 1.7136991943679761e-01 0.0000000000000000e+00  -1.8956738546865942e-01 1.1838521088510444e-01 0.0000000000000000e+00  -2.1964798365172608e-01 4.9897406053667749e-02 0.0000000000000000e+00  -2.2293990191739252e-01 -2.3617597670586722e-02 0.0000000000000000e+00  -2.0384364540539415e-01 -9.5111635161645280e-02 0.0000000000000000e+00  -1.6240019871812558e-01 -1.5450155156339726e-01 0.0000000000000000e+00  -1.0902865488795353e-01 -1.9659197373714135e-01 0.0000000000000000e+00  -4.8054470938327168e-02 -2.1876292608087258e-01 0.0000000000000000e+00  1.4255550904363798e-02 -2.2426199571763561e-01 0.0000000000000000e+00  7.3089031709199129e-02 -2.1134819607434543e-01 0.0000000000000000e+00  1.2006285018798979e-01 -1.9016640596332821e-01 0.0000000000000000e+00  1.6414862745331338e-01 -1.5185996372797766e-01 0.0000000000000000e+00  1.9778640089717739e-01 -1.0477350548899615e-01 0.0000000000000000e+00  2.0569488341788159e-01 -9.1334937894439694e-02 0.0000000000000000e+00  2.1633368479368234e-01 -4.8744386880096427e-02 0.0000000000000000e+00  2.2528143230957878e-01 1.1424304997484853e-02 0.0000000000000000e+00  2.1882044547862628e-01 4.3830881064179601e-02 0.0000000000000000e+00  2.0858426033385777e-01 8.2608391150881338e-02 0.0000000000000000e+00  1.8984329533754157e-01 1.1709305055806221e-01 0.0000000000000000e+00  1.7331913260175733e-01 1.4523058579814491e-01 0.0000000000000000e+00  1.1637720631050322e-01 1.8830811019471289e-01 0.0000000000000000e+00  1.1131193651753118e-01 1.9306505740751426e-01 0.0000000000000000e+00  1.1497947404395852e-01 1.9031161310533828e-01 0.0000000000000000e+00  5.4701860442444128e-02 2.1960584971794558e-01 0.0000000000000000e+00  1.1862281613118641e-02 2.2067047551986227e-01 0.0000000000000000e+00  -3.9260487588978459e-04 2.3079629130139251e-01 0.0000000000000000e+00  -8.3346017235376643e-02 1.9491786381885970e-01 0.0000000000000000e+00  -3.4840688716143715e-02 2.5476944412206803e-01 0.0000000000000000e+00  -5.4260438840598217e-02 9.0002388591968324e-02 0.0000000000000000e+00  -2.3074294309073265e-01 -2.3057649586201967e-01 0.0000000000000000e+00  -1.6959591521133460e-01 8.9952484385571546e-02 0.0000000000000000e+00  -1.9141193793576441e-01 1.2616473988741930e-01 0.0000000000000000e+00  -2.2307054024923592e-01 9.5561383068795292e-03 0.0000000000000000e+00  -2.3532951704990226e-01 6.3357306114948983e-02 0.0000000000000000e+00  -1.7216675182530217e-01 -1.1987470507517665e-01 0.0000000000000000e+00  -2.2352678385971436e-01 4.7981847852234492e-02 0.0000000000000000e+00  -3.1971917748817899e-02 3.2927575339344109e-03 0.0000000000000000e+00  2.8354056218185347e-01 -1.5632742524847276e-01 0.0000000000000000e+00  1.6719556066760628e-02 -9.3393235177306980e-02 0.0000000000000000e+00  -4.7174046701153910e-02 -2.2283363117083449e-01 0.0000000000000000e+00  1.3049105757470303e-01 -2.0545578116040164e-01 0.0000000000000000e+00  1.4419711901069382e-01 -1.4478176884956054e-01 0.0000000000000000e+00  2.2633651084554349e-01 -9.0611570604399477e-02 0.0000000000000000e+00  2.0098771882078947e-01 3.7675556469683721e-02 0.0000000000000000e+00  1.9655247130567799e-01 1.1523186051698144e-01 0.0000000000000000e+00  -1.9341093051074426e-01 1.1505657699006265e-01 0.0000000000000000e+00  -6.4379996153521621e-02 2.1655737311782539e-01 0.0000000000000000e+00  -1.2564329721108112e-03 -2.2529878437319187e-01 0.0000000000000000e+00  -2.2428102670241540e-01 5.3804036002501479e-03 0.0000000000000000e+00  -1.1250757210661463e-01 -1.9568600397415489e-01 0.0000000000000000e+00  2.0547770036630192e-02 2.2440560059553477e-01 0.0000000000000000e+00  -6.4562867638178076e-02 2.1643168871948312e-01 0.0000000000000000e+00  2.2480674458449182e-01 2.6027239535618779e-02 0.0000000000000000e+00  -7.4319074036116484e-02 -2.1250490374489561e-01 0.0000000000000000e+00  -2.1652788946515297e-01 5.9115822470452453e-02 0.0000000000000000e+00  2.2092841464883650e-01 7.3322790352992009e-02 0.0000000000000000e+00  1.4722434820084798e-01 -1.7061212228077374e-01 0.0000000000000000e+00  -1.9669828857400820e-01 -1.0831913785505325e-01 0.0000000000000000e+00  1.3957375451350465e-01 -1.7779221106482185e-01 0.0000000000000000e+00  1.5021086344765877e-01 1.7057278216846047e-01 0.0000000000000000e+00  2.2705215046905738e-01 6.7220080249008910e-03 0.0000000000000000e+00  -9.3909499122929854e-02 2.0780651062274641e-01 0.0000000000000000e+00  2.3289828406779817e-01 -3.4509639212522043e-02 0.0000000000000000e+00  1.0413216190972560e-01 1.9950007786106941e-01 0.0000000000000000e+00  9.5822697274399710e-02 -2.0435839500795475e-01 0.0000000000000000e+00  2.2640925792182520e-01 -4.8018809780260834e-03 0.0000000000000000e+00  -2.2334854901385678e-01 -2.5448180935762250e-02 0.0000000000000000e+00  -2.1474462908919653e-01 6.6909447185880572e-02 0.0000000000000000e+00  -1.2765575033691420e-01 -1.8803193931968593e-01 0.0000000000000000e+00  -1.5950828345244847e-01 1.6199511469415348e-01 0.0000000000000000e+00  4.6831079127254580e-02 2.2099670786367367e-01 0.0000000000000000e+00  1.1554836858507897e-01 1.9242363050186409e-01 0.0000000000000000e+00  2.2091744527458704e-01 -5.1174345316018770e-02 0.0000000000000000e+00  2.1835231981935310e-01 -5.3041840654432862e-02 0.0000000000000000e+00  -2.0116278190756323e-01 1.0174471264931381e-01 0.0000000000000000e+00  -9.3382569683998051e-02 -2.0630767094257230e-01 0.0000000000000000e+00  -1.9529602791962306e-01 -1.1643007602248973e-01 0.0000000000000000e+00  7.7069397848064200e-02 -2.1585263055096632e-01 0.0000000000000000e+00  -2.0567465467955590e-01 9.7934847930291224e-02 0.0000000000000000e+00  -5.7641464031421938e-02 -2.1776992319341987e-01 0.0000000000000000e+00  2.2511641569474211e-01 -4.9226037222512016e-02 0.0000000000000000e+00  -2.3574618884021740e-02 -2.2566689316070604e-01 0.0000000000000000e+00  3.8799540198751058e-02 -2.2297762241120550e-01 0.0000000000000000e+00  2.2062635516398196e-01 5.6298581401218316e-02 0.0000000000000000e+00  -1.1304877326004679e-01 1.9605164404251882e-01 0.0000000000000000e+00  -2.1231085064841400e-02 2.2494217652869666e-01 0.0000000000000000e+00  -5.7956357448129076e-02 2.1975592205442704e-01 0.0000000000000000e+00  2.1698878115588902e-01 -5.6676260726994790e-02 0.0000000000000000e+00  2.1509890619510322e-01 6.2381947760396066e-02 0.0000000000000000e+00  -2.6254571403416634e-02 -2.2594176762051571e-01 0.0000000000000000e+00  -2.0453645103188908e-01 9.6314226821660451e-02 0.0000000000000000e+00  1.8856069335431568e-02 2.2500148099280942e-01 0.0000000000000000e+00  -1.4174374515033647e-01 1.7433260924742700e-01 0.0000000000000000e+00  2.2312986047730504e-01 2.8012981231583245e-02 0.0000000000000000e+00  2.1467244437286925e-01 6.7989844141490091e-02 0.0000000000000000e+00  -2.1882269826345374e-01 4.5890101037726824e-02 0.0000000000000000e+00  -2.0648746800518480e-01 -8.4746473748676374e-02 0.0000000000000000e+00  8.1045492248285389e-02 2.2053976368955025e-01 0.0000000000000000e+00  4.4942120749200329e-02 -2.2504625542247722e-01 0.0000000000000000e+00  -4.2882276664596555e-02 -2.2536639712124634e-01 0.0000000000000000e+00  -2.2111151442646595e-01 4.2767709703338201e-02 0.0000000000000000e+00  -1.8769447865264235e-01 -1.3073955573556045e-01 0.0000000000000000e+00  -1.5666618607012076e-01 -1.6008717880896797e-01 0.0000000000000000e+00  -2.1475318480479688e-01 -6.4392052182086337e-02 0.0000000000000000e+00  -1.9592117288538452e-01 1.0982684893608963e-01 0.0000000000000000e+00  -7.3363585453093128e-03 2.2514093401091664e-01 0.0000000000000000e+00  1.6637252289759027e-01 -1.5088377395334615e-01 0.0000000000000000e+00  -4.8929021299094211e-02 -2.1901316501876936e-01 0.0000000000000000e+00  -7.1119688753608995e-02 2.1297000346614467e-01 0.0000000000000000e+00  1.5927667697029371e-01 1.5864552990346517e-01 0.0000000000000000e+00  4.6190404918035978e-02 2.2002778914083657e-01 0.0000000000000000e+00  1.9601946254188760e-01 1.1017676012763532e-01 0.0000000000000000e+00  1.6842900617962736e-01 -1.4907925913585857e-01 0.0000000000000000e+00  1.5767556504049603e-02 -2.2432792602426579e-01 0.0000000000000000e+00  -2.1877071481566260e-01 -5.1494758277735912e-02 0.0000000000000000e+00  -1.4825927771798642e-01 1.6876504818750576e-01 0.0000000000000000e+00  -1.8728779071556581e-01 -1.2440317345364099e-01 0.0000000000000000e+00  -1.9486950013828300e-01 1.1223302254802664e-01 0.0000000000000000e+00  1.7300900520624019e-01 1.4590125933910683e-01 0.0000000000000000e+00  1.0110003732887553e-01 2.0481747417176283e-01 0.0000000000000000e+00  -1.7710983039835579e-01 1.4218583013366073e-01 0.0000000000000000e+00  -2.2392124000682689e-01 -3.4875102452684950e-02 0.0000000000000000e+00  6.7020464798418597e-02 -2.1669520327513922e-01 0.0000000000000000e+00  -7.5982347458670732e-02 2.4020737706942571e-01 0.0000000000000000e+00  -2.2777028327499080e-01 6.0997942215016325e-03 0.0000000000000000e+00  -1.2236157312265299e-01 1.9303467200388888e-01 0.0000000000000000e+00  8.9280906634621307e-02 2.0527651610385411e-01 0.0000000000000000e+00  1.7853920599233933e-01 1.3851763647026427e-01 0.0000000000000000e+00  -1.8050382239652984e-01 -1.3324847624614974e-01 0.0000000000000000e+00  -1.9664151234096736e-01 1.0855709838604391e-01 0.0000000000000000e+00  -2.0140611587391746e-01 -1.0017633564631902e-01 0.0000000000000000e+00  -4.9634341088175007e-02 2.2125531223976397e-01 0.0000000000000000e+00  -2.1438792948477600e-01 -6.9751504465430672e-02 0.0000000000000000e+00  -3.3498600206060859e-03 2.2539875501133369e-01 0.0000000000000000e+00  -1.5185827867921964e-01 -1.7086828952373237e-01 0.0000000000000000e+00  7.8980919435336167e-02 -2.1182187449829024e-01 0.0000000000000000e+00  -2.2287224089505819e-01 -3.6719823779518768e-02 0.0000000000000000e+00  -1.3940565444684416e-01 -1.7605749720758707e-01 0.0000000000000000e+00  6.8212693104663810e-02 -2.1779418277272594e-01 0.0000000000000000e+00  -2.4152198223297563e-01 -3.8098302772509231e-02 0.0000000000000000e+00  -2.0201362341994242e-01 -1.0076680545964942e-01 0.0000000000000000e+00  2.2960705819578264e-01 1.1970748760316683e-02 0.0000000000000000e+00  2.9181729534611012e-02 2.2299206804394811e-01 0.0000000000000000e+00  1.9216799794600406e-01 -1.1688252326014142e-01 0.0000000000000000e+00  -3.9797759993011127e-02 -2.2131817628947634e-01 0.0000000000000000e+00  3.5463579705910526e-02 2.2233500400290973e-01 0.0000000000000000e+00  2.1976164478955748e-01 4.8686292959395250e-02 0.0000000000000000e+00  5.8058122614613107e-02 2.1681782301545430e-01 0.0000000000000000e+00  3.4414936936645456e-02 -2.3332973225385575e-01 0.0000000000000000e+00  -4.7651217795258004e-03 2.2560595302445863e-01 0.0000000000000000e+00  5.7770094421242500e-02 2.1709944383936444e-01 0.0000000000000000e+00  2.1425497046292341e-01 6.7315371623740503e-02 0.0000000000000000e+00  2.1890608587231475e-01 -5.2966131871064248e-02 0.0000000000000000e+00  2.1071384792863398e-01 -7.8285535244540849e-02 0.0000000000000000e+00  1.6051131761526609e-02 -2.2438064160511650e-01 0.0000000000000000e+00  2.0605189764289439e-01 9.2275119969155522e-02 0.0000000000000000e+00  1.2766692275193792e-01 -1.9851756785804611e-01 0.0000000000000000e+00  -7.6248723401974042e-