<?xml version="1.0"?>
<VTKFile type="UnstructuredGrid"  version="0.1"  >
<UnstructuredGrid>
<Piece  NumberOfPoints="2549" NumberOfCells="4928">
<Points>
<DataArray  type="Float64"  NumberOfComponents="3"  format="ascii">1.458212535438106 0.03142983593825281 0  1.454338834666947 0.05411473647108814 0  1.428846929266615 0.06442414960756709 0  1.419097656177485 0.07864082418402808 0  1.404885825208466 0.08994010289462165 0  1.396409111615172 0.1047705818996268 0  1.384334953402979 0.1187598249509 0  1.381052261764284 0.1404916486997171 0  1.350560279600703 0.1464993624751458 0  1.334138222026732 0.1305413573764687 0  1.347386482003775 0.1772666947895836 0  1.335660820911329 0.1957110438232437 0  1.330458309670159 0.2259316700504474 0  1.321313573593888 0.254214826201948 0  1.311325618730333 0.2833569508163902 0  1.302081951035806 0.3198135966969603 0  1.27655988921347 0.3379788630876798 0  1.267841975563176 0.3455210341163619 0  1.264787175293794 0.4061404750076977 0  1.249417677706689 0.4425620322370958 0  1.23519162953508 0.4888430088333316 0  1.217734015629691 0.5339162841675242 0  1.198770208741048 0.5819178677786501 0  1.178046680808153 0.634672404902298 0  1.149919860330024 0.6862697835213577 0  1.122404302539522 0.7284027823899164 0  1.093651995497374 0.7836224013036079 0  1.060420409173139 0.8387762157209229 0  1.023448343260739 0.895039816287067 0  0.9824309679581943 0.9519207030065332 0  0.9371770269675115 1.008757389385767 0  0.8876060276250021 1.06641294206991 0  0.8319473383992617 1.120679751660946 0  0.7738774352482565 1.172088577036498 0  0.7101288863224223 1.226073991870937 0  0.6413142598373531 1.275115873677239 0  0.5677547614269012 1.321102883084816 0  0.4896676263541423 1.362700800232334 0  0.4073870545998309 1.399202745452325 0  0.3214793323332216 1.431021868235689 0  0.2316959055757273 1.454953176460105 0  0.1407528372762253 1.471933287312452 0  0.04738480824114186 1.483664651095254 0  -0.04669375009600831 1.486663761344252 0  -0.1406830396234388 1.482280492336652 0  -0.23363837621317 1.469885952616856 0  -0.3246543453706225 1.450307432518088 0  -0.412888024352474 1.421927748647944 0  -0.4967500409225916 1.389992205922801 0  -0.5784014626696288 1.351244356407537 0  -0.6544002724948972 1.305050868811915 0  -0.7255423507176699 1.255188344269488 0  -0.7914927844265411 1.201498873633794 0  -0.8520755766496041 1.144432115788458 0  -0.9074780271729289 1.086555118598606 0  -0.9567464607977544 1.022105477502792 0  -1.000078157820343 0.9704145590635157 0  -1.044836911157342 0.9136310599965565 0  -1.080958093664941 0.8512913415900121 0  -1.113409799182772 0.7925855538791281 0  -1.142404631068711 0.7358916876224864 0  -1.167326401096652 0.6783164651478615 0  -1.190820092095434 0.6293044390790596 0  -1.205891352550965 0.5605118534111146 0  -1.217469800569138 0.5297561732028091 0  -1.243067002497699 0.5014509632899053 0  -1.257540721455612 0.4574828726994657 0  -1.271831802474015 0.421092723936058 0  -1.28365086366635 0.3838896473834972 0  -1.297841501950687 0.3572501891872297 0  -1.303085761668867 0.315729735843487 0  -1.334197674904638 0.334688863592642 0  -1.362106845785614 0.2854176707227258 0  -1.33494398129033 0.2067109529955661 0  -1.341158490953212 0.1831622317953057 0  -1.337168403710777 0.1523161662249032 0  -1.344663257592677 0.1344271208275531 0  -1.337363736079539 0.1074714576681212 0  -1.362753073624973 0.110379978521359 0  -1.310974524671277 0.05969624747654492 0  -1.374247602071227 0.1233785086145047 0  -1.458391073389782 0.1187657157375334 0  -1.419462394712446 0.0869307957269719 0  -1.447344227817686 0.07104111337211967 0  -1.434849106140458 0.05243023004682946 0  -1.451134688205733 0.03362750491542178 0  -1.423913962362673 0.01726477424670646 0  -1.469617231362739 -0.01629035468726947 0  -1.381239615741983 -0.02038074333267065 0  -1.316421397885424 0.04893894090540846 0  -1.377624106965785 -0.008057406793918032 0  -1.352782968368883 -0.004907914667542201 0  -1.364274518094345 -0.03497354147423964 0  -1.359143895262414 -0.05482345722986409 0  -1.365929538732526 -0.0882392264568323 0  -1.360899478225171 -0.1123839603569671 0  -1.39348554312014 -0.1950521150364785 0  -1.369855314191139 -0.2556443834020093 0  -1.337824041235873 -0.2333191423122779 0  -1.335151957947747 -0.2788850435146116 0  -1.322381227773252 -0.3067712239336745 0  -1.312609494079399 -0.3464556651769585 0  -1.300053279312442 -0.3847014619776327 0  -1.287429642583638 -0.4308207273836393 0  -1.263415694085444 -0.4584214052733155 0  -1.255809132727358 -0.491496684201994 0  -1.243978387188583 -0.568501278139101 0  -1.222704847218232 -0.6208051566892597 0  -1.200365531923784 -0.6836869293170446 0  -1.173797471734707 -0.7454731144063371 0  -1.143496995208352 -0.8094812516581217 0  -1.108800426240995 -0.8759573228112344 0  -1.067502776689881 -0.9346091339859054 0  -1.028298931860001 -0.9981133228468955 0  -0.9800227207843761 -1.076853568257919 0  -0.9249905267839301 -1.142866305523743 0  -0.8644869054296855 -1.210613076419747 0  -0.7979162518558973 -1.274357022556334 0  -0.7254415617872543 -1.334682492483581 0  -0.6473595030614261 -1.392410171339814 0  -0.5617386113323052 -1.440916345268751 0  -0.4744175285673525 -1.481545581948369 0  -0.3811589080382733 -1.520627975698307 0  -0.2839959218942256 -1.549219463345055 0  -0.18392546696882 -1.569725628052008 0  -0.08194720156535476 -1.580871190472894 0  0.02081683026339856 -1.582877486378035 0  0.1233303154799323 -1.575333249416489 0  0.2244121159826268 -1.558682311260404 0  0.3228445949727572 -1.53314856556481 0  0.4179921240563583 -1.499777152125446 0  0.5088579513157585 -1.458792305029934 0  0.5947917652258107 -1.411394962325393 0  0.675252951624884 -1.358050004434991 0  0.7499515211486005 -1.301139633585089 0  0.8182581076555253 -1.236530035721754 0  0.8789902489417727 -1.179365169541142 0  0.9389920400623468 -1.11707759169538 0  0.9903143333164286 -1.048949212285666 0  1.03659037808782 -0.9830695971055609 0  1.077910061567741 -0.9174682008341195 0  1.114547399940957 -0.8530287325596619 0  1.146905875784063 -0.7901304052288138 0  1.174401953354461 -0.7280892877836087 0  1.20044292005494 -0.6793489729042488 0  1.226542809277342 -0.6213556396752714 0  1.245287199165316 -0.5632463762992743 0  1.262077955423813 -0.5101858989856642 0  1.27735879509135 -0.4606276393068556 0  1.289254620885335 -0.4099868721700893 0  1.302542614137209 -0.3702381275910144 0  1.302827768463566 -0.3046704900200973 0  1.308959929591808 -0.2951490509708791 0  1.332946643578449 -0.2754616817655065 0  1.340200835501725 -0.2364706455050761 0  1.348227630206563 -0.2050706635128011 0  1.355297660316166 -0.1744793245803982 0  1.358273635237415 -0.1419664096048167 0  1.368148050890396 -0.1218929738981516 0  1.351804794933256 -0.0721164567026073 0  1.36660691915172 -0.08809967466213386 0  1.395698788671147 -0.08098740546044181 0  1.396468397425437 -0.05759640394935051 0  1.406162793304653 -0.04233204438631805 0  1.412168809178667 -0.0264567117611208 0  1.423003326206079 -0.01412573655548202 0  1.432278649661477 -0.000281580797788672 0  1.450995552562702 0.01137941341263337 0  -0.09041749334284618 0.9075841165087875 0  0.6798340466501882 -0.5203586375553522 0  -0.7969864520186152 -0.3800002963234795 0  -0.08665563471085364 -0.9676626983794812 0  0.6473222396036624 0.5003550607008681 0  1.07079952974496 0.1086448550035543 0  -0.77839891363133 0.4163992394358331 0  -1.128689930257972 0.04036590887197196 0  1.081822898940919 -0.06873799836274008 0  -1.019259107047353 -0.1638205316300602 0  -0.7148392664666811 0.02222748388460836 0  -0.4277554472157592 -0.1395255964432495 0  -1.004969870567202 0.2202645810665213 0  0.3734857139101747 -0.8552141191506653 0  0.08088460232118927 -0.3275656419574954 0  0.3103719563468708 0.7847521564053576 0  0.2253162121866144 0.192506249422829 0  0.5538682183175594 0.01040342038356378 0  -0.4873196268804891 -0.7065376782386941 0  -0.4949932626315043 0.7103372867509382 0  -0.2330522797659454 0.3215015023080656 0  0.9024620609489369 -0.2189510437807099 0  0.8832136602593881 0.2415424515385713 0  0.3470054244993082 -0.2338655633565574 0  -0.006381647598356875 0.2500516784445181 0  -0.4778437834362197 0.2205457005614062 0  -0.1854409211414658 -0.2894814005719717 0  0.8469439624033406 0.01592470154221936 0  1.229760238106862 0.02499989667309553 0  0.7915104867647454 -0.3498166106917792 0  0.7059165320561177 -0.1160057692624312 0  0.5749217336653629 -0.2216265148976385 0  0.4359325870539588 -0.08882152097860761 0  0.5032152539835048 -0.3901227764784 0  0.8485993329275429 -0.08960207525979148 0  0.7020351054022707 0.01302573853891454 0  -0.8385912126486321 0.1323226394561975 0  -1.047539734117874 0.1117203394336074 0  -0.9267922809086664 0.03291167345472844 0  -0.8474625102451263 -0.0802238660674375 0  -1.053037317817697 -0.04086061655259124 0  -1.215284109214891 -0.06911834795166386 0  -1.277340265126259 0.01690589566334696 0  -1.271802932625838 0.07443297680154612 0  -1.199956471277698 0.1531245701472347 0  -0.1379579358733136 -0.6324033022670232 0  -0.3038037953925365 -0.517089372221329 0  -0.3018176829922976 -0.8605833042775151 0  -0.301723074205055 -0.2069138265473159 0  -0.4481203969978832 -0.4083907266671245 0  -1.211349156182978 -0.1843411345798878 0  -1.187378737553542 0.2569869236162058 0  0.3718198174807912 -0.5269919505572079 0  0.2125269625340025 -0.2671155131003068 0  0.2312145830488964 -0.5877161131966112 0  -0.8918994234368728 0.3022131433712716 0  -0.7092898460872594 0.2006600487414529 0  1.251495799136708 -0.08353715636709069 0  1.189245084799397 -0.1788371234638226 0  1.168058278945311 0.2189452959625437 0  1.237327412707807 0.1318763949204835 0  -0.9149815172185055 -0.6447951055005738 0  -1.037466152883425 -0.4331447433701465 0  -1.004509161707575 0.4850795321251181 0  -0.8757146165026093 0.6748942426376023 0  0.9346772832649755 -0.6117019601202227 0  0.7734513341930837 -0.8358648688469404 0  0.7383127382538932 0.7946010200790222 0  0.8990095779683254 0.6031453497901023 0  0.0
[...]
<PointData  Vectors="f_44"> 
<DataArray  type="Float64"  Name="f_44"  NumberOfComponents="3" format="ascii">2.9836884729611418e-01 -3.2427738481977553e-02 0.0000000000000000e+00  -2.7663167423380052e-02 1.3652426614887747e-01 0.0000000000000000e+00  -1.0070568561877906e-01 1.7819394766420585e-01 0.0000000000000000e+00  3.9280130753009998e-02 2.2695628243516264e-01 0.0000000000000000e+00  2.0737563394532463e-02 1.9362688715906601e-01 0.0000000000000000e+00  5.2425657188438127e-02 2.3258063273793908e-01 0.0000000000000000e+00  1.9181024014813891e-01 1.2378587128090059e-01 0.0000000000000000e+00  -2.6914112974236463e-02 1.0482328971287319e-01 0.0000000000000000e+00  -2.1120221683561194e-01 -5.0864663028735879e-02 0.0000000000000000e+00  1.7059971408532190e-01 -2.2765785522337831e-01 0.0000000000000000e+00  1.5943462195697555e-01 2.5724809540794241e-02 0.0000000000000000e+00  1.4693849343585541e-01 1.6513055077065728e-01 0.0000000000000000e+00  2.1812289544792957e-01 7.3266760843357787e-02 0.0000000000000000e+00  1.5816344273117028e-01 1.5608934332954791e-01 0.0000000000000000e+00  2.2252244358853041e-01 1.0634158200411045e-01 0.0000000000000000e+00  8.4596880333098382e-02 1.4193257805000489e-01 0.0000000000000000e+00  -1.5110073993147544e-01 2.6522258084440986e-01 0.0000000000000000e+00  2.0000627241302030e-01 2.8626604977904861e-02 0.0000000000000000e+00  2.0180637439194435e-01 7.5018264771424342e-02 0.0000000000000000e+00  1.6237089692416576e-01 1.5976889402913388e-01 0.0000000000000000e+00  1.8247188574283296e-01 1.2749433379462777e-01 0.0000000000000000e+00  1.5859692552603988e-01 1.5884175702095019e-01 0.0000000000000000e+00  1.6888567302663099e-01 1.4704853334667106e-01 0.0000000000000000e+00  1.4761103093575684e-01 1.6752658543978999e-01 0.0000000000000000e+00  9.4634544313507901e-02 2.0414542561855686e-01 0.0000000000000000e+00  1.1148233241073890e-01 1.9191090423878904e-01 0.0000000000000000e+00  1.2297614791014687e-01 1.8697498874737958e-01 0.0000000000000000e+00  9.3852871102450497e-02 2.0337479603662231e-01 0.0000000000000000e+00  8.1176580794384737e-02 2.0836158829432419e-01 0.0000000000000000e+00  5.9083486776259832e-02 2.1558672603121470e-01 0.0000000000000000e+00  4.4175631095415939e-02 2.1966120115360291e-01 0.0000000000000000e+00  1.4953191524410308e-02 2.2282590081469814e-01 0.0000000000000000e+00  -2.0969141720538265e-02 2.2292259843430806e-01 0.0000000000000000e+00  -2.9367867639480665e-02 2.2196553226190924e-01 0.0000000000000000e+00  -5.3268503449052651e-02 2.1681502885907286e-01 0.0000000000000000e+00  -8.7269301960967438e-02 2.0645402554596509e-01 0.0000000000000000e+00  -1.1061895545107346e-01 1.9440250383021926e-01 0.0000000000000000e+00  -1.3860004497358172e-01 1.7555991717974592e-01 0.0000000000000000e+00  -1.5965943708080996e-01 1.5720176925851112e-01 0.0000000000000000e+00  -1.8206357747548221e-01 1.2979850997146411e-01 0.0000000000000000e+00  -2.0308844646164328e-01 9.4185345054933395e-02 0.0000000000000000e+00  -2.1300425138761675e-01 6.9475883497631591e-02 0.0000000000000000e+00  -2.2054697265707318e-01 3.5774258449972313e-02 0.0000000000000000e+00  -2.2423628824723088e-01 -3.9003313833338412e-03 0.0000000000000000e+00  -2.1987515222065573e-01 -3.9873754393457479e-02 0.0000000000000000e+00  -2.1156878250636185e-01 -7.4734076675760708e-02 0.0000000000000000e+00  -1.9275014654070513e-01 -1.1269605811288419e-01 0.0000000000000000e+00  -1.7401502033026978e-01 -1.4128199790497181e-01 0.0000000000000000e+00  -1.5726630439080799e-01 -1.5931296967177375e-01 0.0000000000000000e+00  -1.2195132009329127e-01 -1.8742020736904261e-01 0.0000000000000000e+00  -8.8397888373278444e-02 -2.0590229844686106e-01 0.0000000000000000e+00  -6.2434593279731762e-02 -2.1493402709027168e-01 0.0000000000000000e+00  -2.7125230018342127e-02 -2.2169930052190173e-01 0.0000000000000000e+00  -5.6120634567855404e-03 -2.2473633072171681e-01 0.0000000000000000e+00  3.8740736764429282e-02 -2.1909894876185632e-01 0.0000000000000000e+00  5.6440988159609358e-02 -2.1628713914835385e-01 0.0000000000000000e+00  3.3521203833243959e-02 -2.2271756848701368e-01 0.0000000000000000e+00  8.3701603037910105e-02 -2.0570680417811116e-01 0.0000000000000000e+00  1.2179984453067585e-01 -1.8877279253531731e-01 0.0000000000000000e+00  1.1997487261189041e-01 -1.8915307117027338e-01 0.0000000000000000e+00  1.4750169315230127e-01 -1.6661725089001642e-01 0.0000000000000000e+00  1.4145374388799001e-01 -1.7769079657926706e-01 0.0000000000000000e+00  1.7036994541750550e-01 -1.2959116437717613e-01 0.0000000000000000e+00  2.2074815002201809e-01 -8.7718597993703698e-02 0.0000000000000000e+00  5.7442397744019137e-02 -2.1431572425866052e-01 0.0000000000000000e+00  9.7572805289169451e-02 -1.7511719281985963e-01 0.0000000000000000e+00  1.9168852861989097e-01 -1.3306557435423777e-01 0.0000000000000000e+00  1.7767295126062521e-01 -1.3970484061244925e-01 0.0000000000000000e+00  1.3691020214683147e-01 -1.5181984804994061e-01 0.0000000000000000e+00  2.2502943867397454e-01 -1.8039762526706291e-01 0.0000000000000000e+00  4.6287937852124900e-02 1.6219789041382765e-01 0.0000000000000000e+00  -1.8560568262160862e-02 -8.5214521729023857e-02 0.0000000000000000e+00  1.7828495263000144e-01 -1.6045633286047856e-02 0.0000000000000000e+00  1.7615983078390748e-01 1.3431397055426156e-01 0.0000000000000000e+00  2.2235274569819038e-01 -4.8679498990608139e-02 0.0000000000000000e+00  1.7475130153569579e-01 -2.0077935540280586e-02 0.0000000000000000e+00  2.4427804796677913e-01 -2.1829497039628398e-02 0.0000000000000000e+00  -4.3316859820395813e-02 9.4319121018399801e-02 0.0000000000000000e+00  -1.0618458267796152e-01 1.5067644535186689e-01 0.0000000000000000e+00  5.7745760787817881e-02 2.8326592215568197e-01 0.0000000000000000e+00  -1.3024828082533427e-01 6.6710596533110691e-02 0.0000000000000000e+00  -1.8570990005533436e-01 6.3959450553817729e-02 0.0000000000000000e+00  -3.8454482384763747e-02 8.0524999505369482e-02 0.0000000000000000e+00  -6.2128281726740273e-02 -6.0521951902782034e-02 0.0000000000000000e+00  1.2167819265609980e-01 -2.6316039836988037e-02 0.0000000000000000e+00  -8.2057193573449067e-02 5.0172209497316787e-02 0.0000000000000000e+00  -4.2365620708780499e-02 -8.5923316106036610e-02 0.0000000000000000e+00  -1.9904567064685944e-01 -6.8175927026387903e-02 0.0000000000000000e+00  -1.1634860434949205e-01 -6.9406554823260247e-02 0.0000000000000000e+00  5.7466726279936153e-02 -2.7977165182438635e-01 0.0000000000000000e+00  -1.0997860785880623e-01 -1.5538083902799438e-01 0.0000000000000000e+00  -4.6192932487915790e-02 -1.1913450415969412e-01 0.0000000000000000e+00  2.4426524977391909e-01 -3.3157232892857720e-02 0.0000000000000000e+00  1.8849131499526645e-01 -1.9918372089056832e-02 0.0000000000000000e+00  2.1999317303837196e-01 1.7523637474302741e-02 0.0000000000000000e+00  1.6010904167539783e-01 -1.4983314549371909e-01 0.0000000000000000e+00  1.9093777349920324e-01 -5.3999159650599459e-03 0.0000000000000000e+00  4.1344554993363584e-02 5.9038007430201961e-02 0.0000000000000000e+00  5.1744059207896070e-02 -1.7863044564353739e-01 0.0000000000000000e+00  2.4025311112207223e-01 1.5241098698437128e-01 0.0000000000000000e+00  1.5709149658907864e-01 1.3196370073441230e-01 0.0000000000000000e+00  1.9272834324329319e-01 1.1625888255925677e-01 0.0000000000000000e+00  2.0719203597869662e-01 1.1127421158161602e-01 0.0000000000000000e+00  1.0666482551775544e-01 1.6858926667288182e-01 0.0000000000000000e+00  8.4370760103826492e-02 1.8758573509176579e-01 0.0000000000000000e+00  2.3782143567408903e-01 4.7893131948294004e-02 0.0000000000000000e+00  1.8315083841269811e-01 1.0980096106400204e-01 0.0000000000000000e+00  1.6341618764170021e-01 1.5739082643781424e-01 0.0000000000000000e+00  1.6858700209739200e-01 1.4536375537858559e-01 0.0000000000000000e+00  1.4401135079981112e-01 1.7144571470204259e-01 0.0000000000000000e+00  1.4179302310638445e-01 1.7464681765823992e-01 0.0000000000000000e+00  9.7736089938454035e-02 1.9924939446789050e-01 0.0000000000000000e+00  7.9073173952846826e-02 2.0921212478176235e-01 0.0000000000000000e+00  1.1385795831406351e-01 1.9461980231179768e-01 0.0000000000000000e+00  7.1563199318541049e-02 2.0960954276695840e-01 0.0000000000000000e+00  2.8414110975421094e-02 2.2345821602804908e-01 0.0000000000000000e+00  1.1437053347830880e-02 2.2280228008710254e-01 0.0000000000000000e+00  -2.8071887418724354e-02 2.2211315583753316e-01 0.0000000000000000e+00  -5.0311600448486933e-02 2.1854791786700414e-01 0.0000000000000000e+00  -8.9264596621485628e-02 2.0471227607603709e-01 0.0000000000000000e+00  -1.3456042183018385e-01 1.7916953256668475e-01 0.0000000000000000e+00  -1.4910148249457048e-01 1.6742876165376958e-01 0.0000000000000000e+00  -1.7152013788096304e-01 1.4256557750307525e-01 0.0000000000000000e+00  -1.9915339050191777e-01 1.0385641681446435e-01 0.0000000000000000e+00  -2.1257490889230260e-01 6.9078132558379676e-02 0.0000000000000000e+00  -2.2231635833718308e-01 2.8486283843066899e-02 0.0000000000000000e+00  -2.2345672274936912e-01 -1.1974518358422843e-02 0.0000000000000000e+00  -2.1775925944013227e-01 -5.2609409846928683e-02 0.0000000000000000e+00  -2.0449184477136007e-01 -9.0892982951571180e-02 0.0000000000000000e+00  -1.8594690258124580e-01 -1.2492676083344532e-01 0.0000000000000000e+00  -1.6189581805318931e-01 -1.5437280650225460e-01 0.0000000000000000e+00  -1.3450463129703483e-01 -1.7927045049655577e-01 0.0000000000000000e+00  -1.0218160326511291e-01 -1.9861485025517789e-01 0.0000000000000000e+00  -7.6122201194721364e-02 -2.1139825063729309e-01 0.0000000000000000e+00  -3.2762747533087173e-02 -2.2033959431988345e-01 0.0000000000000000e+00  -8.1528379048566406e-03 -2.2378398944776462e-01 0.0000000000000000e+00  -1.0971894962655385e-02 -2.2413970737380698e-01 0.0000000000000000e+00  3.6924347932540048e-02 -2.1969026747831605e-01 0.0000000000000000e+00  7.2913342468635331e-02 -2.1232448555257222e-01 0.0000000000000000e+00  8.4211695461647723e-02 -2.0686279866874421e-01 0.0000000000000000e+00  1.0700487542952722e-01 -1.9648313244027532e-01 0.0000000000000000e+00  1.2019684174312915e-01 -1.8891747201252412e-01 0.0000000000000000e+00  1.4512051761531328e-01 -1.7017359967805040e-01 0.0000000000000000e+00  1.3906377860206204e-01 -1.7384265951043162e-01 0.0000000000000000e+00  1.2830110831967759e-01 -1.8431518640136169e-01 0.0000000000000000e+00  1.6845321616448636e-01 -1.4664852519859309e-01 0.0000000000000000e+00  1.8626358355634939e-01 -1.2420288741457336e-01 0.0000000000000000e+00  1.7989874696647251e-01 -1.3414192587461787e-01 0.0000000000000000e+00  1.9737409049447022e-01 -1.0242740077055940e-01 0.0000000000000000e+00  1.8566523054554082e-01 -1.3247548052039082e-01 0.0000000000000000e+00  2.0428646456484637e-01 -5.3204579814139119e-02 0.0000000000000000e+00  2.2496806989949855e-01 -4.5991113420954886e-03 0.0000000000000000e+00  -7.6508641058967319e-02 -2.7403812159624136e-01 0.0000000000000000e+00  9.7221705483600915e-02 -1.3105904214796033e-01 0.0000000000000000e+00  2.3686790629027674e-01 -7.4431208839816423e-02 0.0000000000000000e+00  1.8206646885341063e-01 -1.2575244017546103e-01 0.0000000000000000e+00  2.2578314759487261e-01 -3.8704764686631261e-02 0.0000000000000000e+00  1.7844919434291062e-01 -1.3206461047778625e-01 0.0000000000000000e+00  1.6489028782211212e-01 -3.0236172602410385e-03 0.0000000000000000e+00  1.6829224100596557e-01 2.3575841687224380e-01 0.0000000000000000e+00  -1.9190393071924924e-01 2.6928321220226079e-02 0.0000000000000000e+00  -1.7195586892003532e-02 -8.7504356923539792e-02 0.0000000000000000e+00  2.3174705315418268e-01 -7.5648795306381647e-02 0.0000000000000000e+00  1.1042343589410028e-01 -2.0387263900484331e-01 0.0000000000000000e+00  1.0366232697010572e-01 -1.6814353322397035e-01 0.0000000000000000e+00  7.0372849769743048e-02 -2.2954742358782212e-01 0.0000000000000000e+00  -4.1311105179467414e-02 -1.9873736243101897e-01 0.0000000000000000e+00  -1.0973002137520584e-02 -1.9966117756622911e-01 0.0000000000000000e+00  -2.0878828393645504e-01 -8.0810902211630120e-02 0.0000000000000000e+00  4.9418016505964557e-02 -2.1827827674687955e-01 0.0000000000000000e+00  1.5888084278864006e-01 1.5751311496207007e-01 0.0000000000000000e+00  -2.1257023733134384e-01 7.0247928270220403e-02 0.0000000000000000e+00  6.5044549533544396e-02 2.1420887318616161e-01 0.0000000000000000e+00  2.2349844436587157e-01 7.6396142310678058e-03 0.0000000000000000e+00  1.6798597324406281e-01 -1.4781976042473796e-01 0.0000000000000000e+00  2.1507911726722809e-01 6.1417535636528353e-02 0.0000000000000000e+00  2.1404593016795437e-01 -6.4750566665936704e-02 0.0000000000000000e+00  2.1326921234035293e-01 6.7276455965022935e-02 0.0000000000000000e+00  2.2326400454756318e-01 1.3981693962857327e-02 0.0000000000000000e+00  1.8796754160859397e-01 1.2199459343849900e-01 0.0000000000000000e+00  2.2228225580202843e-01 -2.4838741332436663e-02 0.0000000000000000e+00  -1.5646526613341455e-01 -1.6007776499653589e-01 0.0000000000000000e+00  -2.2495516118054076e-01 -2.7692510973944574e-03 0.0000000000000000e+00  -1.7304080682064191e-01 1.4207769480851279e-01 0.0000000000000000e+00  -1.6603653659991210e-02 2.2417685118159497e-01 0.0000000000000000e+00  2.2244933681228010e-01 -2.7430669111477506e-02 0.0000000000000000e+00  -3.2191074005780536e-02 2.2153189332188145e-01 0.0000000000000000e+00  -1.7529478478241933e-02 -2.2318160662515169e-01 0.0000000000000000e+00  5.0876468039669491e-02 -2.1892340699543722e-01 0.0000000000000000e+00  1.8864630596868631e-01 -1.2017100471945692e-01 0.0000000000000000e+00  2.0342647269456454e-01 9.3051905725389641e-02 0.0000000000000000e+00  1.1019500123687732e-02 -2.2392816882683050e-01 0.0000000000000000e+00  -1.4052178951318278e-01 -1.7852885470632085e-01 0.0000000000000000e+00  1.8692730284916961e-01 -1.2328438752324934e-01 0.0000000000000000e+00  -5.1014791673005596e-03 2.2492616253920142e-01 0.0000000000000000e+00  2.2277092977257645e-01 -1.9755588436885883e-02 0.0000000000000000e+00  2.1620221393211506e-01 -5.7093203093245670e-02 0.0000000000000000e+00  1.3929611155806301e-01 -1.7509832360552366e-01 0.0000000000000000e+00  2.0022783371148389e-01 -9.9952714811951518e-02 0.0000000000000000e+00  1.3767309442565528e-01 -1.7669767065550704e-01 0.0000000000000000e+00  1.7509695932293046e-01 -1.4041840011362652e-01 0.0000000000000000e+00  1.8917605320790530e-02 -2.2312798795778371e-01 0.0000000000000000e+00  2.1142993782164446e-01 -7.2920552312842377e-02 0.0000000000000000e+00  2.2276669274493369e-01 -2.0738672781316539e-02 0.0000000000000000e+00  2.2241489224754421e-01 -2.3608344368811891e-02 0.0000000000000000e+00  2.2215309367298458e-01 2.5882194268572765e-02 0.0000000000000000e+00  2.2237903468626166e-01 2.3584090677217579e-02 0.0000000000000000e+00  2.1611835358307574e-01 5.7546089542918462e-02 0.0000000000000000e+00  2.1847119165884327e-01 4.7653426685859750e-02 0.0000000000000000e+00  2.2298641970944150e-01 2.1101400652222574e-02 0.0000000000000000e+00  1.7064746086929292e-01 1.5092880138539388e-01 0.0000000000000000e+00  1.1484351559540908e-01 1.9571785796143856e-01 0.0000000000000000e+00  2.0542873236054562e-01 8.8542343690864972e-02 0.0000000000000000e+00  -1.7336537694369891e-01 1.4179401034404410e-01 0.0000000000000000e+00  -5.5307763010731939e-02 2.1707132677326341e-01 0.0000000000000000e+00  -1.4297691436518789e-01 1.7226281616210393e-01 0.0000000000000000e+00  1.2692743861115408e-01 1.8535422577337135e-01 0.0000000000000000e+00  6.3899877827176460e-02 2.1463203050795279e-01 0.0000000000000000e+00  2.2414117376655651e-01 -6.8383710967630310e-03 0.0000000000000000e+00  2.2133673980889010e-01 3.4303626378115654e-02 0.0000000000000000e+00  -1.1082878382976025e-01 -1.9449771536711466e-01 0.0000000000000000e+00  -1.3785987728978985e-01 -1.7678308348018046e-01 0.0000000000000000e+00  -1.9208466969796500e-01 -1.1498452055772809e-01 0.0000000000000000e+00  2.0702543433727180e-01 -8.4728315834171813e-02 0.0000000000000000e+00  2.1146954206431917e-01 -7.3101154733400397e-02 0.0000000000000000e+00  2.0754650668269170e-01 -8.3029689717809996e-02 0.0000000000000000e+00  2.0005288479877489e-01 -9.9937360267246492e-02 0.0000000000000000e+00  2.1634320506766094e-01 5.6988427183059506e-02 0.0000000000000000e+00  2.2118659425836579e-01 -3.5116639202122636e-02 0.0000000000000000e+00  1.1772478512762978e-01 1.9025816287706276e-01 0.0000000000000000e+00  1.7686005514620703e-01 1.3691240646482578e-01 0.0000000000000000e+00  1.7640498600775842e-01 -1.3757627318464016e-01 0.0000000000000000e+00  1.1000173223408993e-01 -1.9484643477428076e-01 0.0000000000000000e+00  1.0815019963617463e-01 -1.9585047832372024e-01 0.0000000000000000e+00  1.3821791652932951e-02 -2.2338126265325781e-01 0.0000000000000000e+00  9.2316542148644098e-03 2.2361541635390070e-01 0.0000000000000000e+00  1.0592540321708779e-01 1.9706603809914780e-01 0.0000000000000000e+00  -2.2384270701108383e-01 -6.2510355737466954e-03 0.0000000000000000e+00  -1.8339723923687734e-01 1.2845339455709501e-01 0.0000000000000000e+00  -1.8839320265253343e-01 -1.2099632721125324e-01 0.0000000000000000e+00  -2.2372894641458077e-01 8.6639259678519525e-03 0.0000000000000000e+00  -5.9677198703645455e-02 -2.1571752261249558e-01 0.0000000000000000e+00  2.1463571073068255e-01 6.8475286709866703e-02 0.0000000000000000e+00  1.6867724267657805e-01 1.4759385065895506e-01 0.0000000000000000e+00  2.0730597014065922e-02 2.2324836487394431e-01 0.0000000000000000e+00  1.5685470653768604e-01 1.5970390084806940e-01 0.0000000000000000e+00  2.1888250679672516e-01 4.6841774372552186e-02 0.0000000000000000e+00  2.0302858626195161e-01 9.3984821250665179e-02 0.0000000000000000e+00  -2.2500972243001352e-01 -2.5167811749849073e-02 0.0000000000000000e+00  -7.5665193358701158e-02 2.0995963117516150e-01 0.0000000000000000e+00  -2.1038367989318207e-01 -8.1549205355534893e-02 0.0000000000000000e+00  2.0658515121216969e-01 8.5841985107613414e-02 0.0000000000000000e+00  2.0990710082144673e-01 -7.7586733388078352e-02 0.0000000000000000e+00  1.9648646312178886e-01 1.0684575282344598e-01 0.0000000000000000e+00  2.1471913829134595e-01 6.3147144741784109e-02 0.0000000000000000e+00  1.5738619712080412e-01 1.5909869112291555e-01 0.0000000000000000e+00  2.2069732947082654e-01 3.6260814422564187e-02 0.0000000000000000e+00  -1.4717503246297908e-01 1.6896170270139740e-01 0.0000000000000000e+00  -6.4505334137299628e-02 2.1442283301959050e-01 0.0000000000000000e+00  -2.2317906821955896e-01 1.8203212475395476e-02 0.0000000000000000e+00  -2.1728276114736159e-01 -5.3904304300052365e-02 0.0000000000000000e+00  -1.5730746289043168e-02 -2.2344863525828890e-01 0.0000000000000000e+00  -1.4102828808975379e-01 -1.7406992720339978e-01 0.0000000000000000e+00  -1.3292064784587243e-01 -1.8018075464631553e-01 0.0000000000000000e+00  1.6227383539220103e-01 -1.6040987865697240e-01 0.0000000000000000e+00  -1.6255283320806269e-01 1.5504977990407337e-01 0.0000000000000000e+00  -8.3383486781077890e-02 -2.0774538761224112e-01 0.0000000000000000e+00  -1.8418567826612661e-01 -1.2733560911021760e-01 0.0000000000000000e+00  -1.8953981703734515e-01 1.1917700617686117e-01 0.0000000000000000e+00  -9.6653925680647720e-02 2.0192704953075066e-01 0.0000000000000000e+00  2.1780275422313169e-01 6.8835403498408387e-02 0.0000000000000000e+00  -2.1937108488766119e-01 4.5219730383973908e-02 0.0000000000000000e+00  -2.2126223496170527e-01 3.4028725918905281e-02 0.0000000000000000e+00  -9.0364694407170779e-02 2.0483536146305498e-01 0.0000000000000000e+00  3.0742588386763896e-02 2.2168397004908133e-01 0.0000000000000000e+00  8.1583140648905775e-02 2.0840348536766168e-01 0.0000000000000000e+00  2.2571056843451891e-02 -2.2265493545887596e-01 0.0000000000000000e+00  -9.7032889107412659e-02 -2.0175401080182406e-01 0.0000000000000000e+00  9.2249230057421985e-02 -2.0392096551841965e-01 0.0000000000000000e+00  2.2059869072495839e-01 -3.7734014826780779e-02 0.0000000000000000e+00  1.6834668883944920e-01 -1.4751785902920114e-0