<?xml version="1.0"?>
<VTKFile type="UnstructuredGrid"  version="0.1"  >
<UnstructuredGrid>
<Piece  NumberOfPoints="2549" NumberOfCells="4928">
<Points>
<DataArray  type="Float64"  NumberOfComponents="3"  format="ascii">1.653256022680388 0.0201150950004818 0  1.649583863513361 0.05534866331625656 0  1.629739877760741 0.08239456808925294 0  1.617773727861162 0.1114387499766885 0  1.600954742899336 0.1379322425907153 0  1.586039964601497 0.1658811914206771 0  1.567289782942918 0.1924207504816618 0  1.552851133368177 0.2230206804347557 0  1.519877368625467 0.242668218644148 0  1.494954195282658 0.2473935306999541 0  1.48820710332161 0.2914075140386608 0  1.464782041645788 0.3165335799661608 0  1.44493574523413 0.3484504359362904 0  1.422052571458568 0.3784226261375576 0  1.398184552120366 0.4082792603172517 0  1.374405276708782 0.4421886989884937 0  1.339868755482108 0.463797137458386 0  1.315788927722969 0.4780433872867936 0  1.295070571607286 0.5257240234762082 0  1.266237923868514 0.5574086898100818 0  1.237930100039501 0.5949173952910004 0  1.207369559971407 0.6311883122314498 0  1.175680149163344 0.6688876071574673 0  1.142716817975385 0.7092003491236241 0  1.104882870198557 0.7483597081359809 0  1.067321102532025 0.7810632043964497 0  1.028860825079855 0.8217562560429794 0  0.9874376219212101 0.8620328509746162 0  0.9435340756970562 0.9026557765848874 0  0.8969639452009385 0.9433192083576718 0  0.8476129035668087 0.9836082213225588 0  0.7954368492393373 1.024082729872618 0  0.7393094220972186 1.062056606259919 0  0.6815899240105474 1.097875525559366 0  0.6201931336144045 1.135022901695042 0  0.5555166749345275 1.16869048222541 0  0.4877713979736388 1.200091012054523 0  0.4171013585117129 1.228373999873884 0  0.3437252605957584 1.253089885520591 0  0.2680101744897807 1.274505382395026 0  0.1898015410072754 1.29057106532704 0  0.1108420579511304 1.30188762427311 0  0.03032627679831193 1.309545376700962 0  -0.05064424310773016 1.311315127639733 0  -0.1315533077494517 1.308060547460547 0  -0.2117919644867291 1.299378396315914 0  -0.290776329563359 1.285796885075902 0  -0.3679624170631812 1.266279246580932 0  -0.4423283816387168 1.244180178250873 0  -0.5152524904889457 1.217412710582223 0  -0.5845268274560568 1.185568102146017 0  -0.6506554775465061 1.151059375565755 0  -0.7134185161283446 1.113780843036677 0  -0.7726973681769466 1.074014999794115 0  -0.8286055502512504 1.033398766817637 0  -0.8805258661660613 0.9882374629218302 0  -0.9285771615624556 0.9508956109673592 0  -0.9774641857397675 0.9099399507060789 0  -1.02073672847297 0.865064377680973 0  -1.061564618985344 0.8221401785369903 0  -1.100073120130514 0.7801177277574264 0  -1.135855835685093 0.7371325487312328 0  -1.170592071302851 0.6992150138944958 0  -1.199790252463243 0.648209477707206 0  -1.226588126435239 0.6211018217033317 0  -1.262173498348154 0.595097602870032 0  -1.290432857225982 0.558583150656609 0  -1.318342442223262 0.5264092563651618 0  -1.344407013301607 0.4931800213602571 0  -1.371691434883759 0.4661480922176487 0  -1.392911100045299 0.4289978079786833 0  -1.430298462911047 0.4299259655701492 0  -1.465190884294745 0.386521421094172 0  -1.464323329171656 0.3235734701105998 0  -1.484221243140116 0.2951806101624961 0  -1.496893555219353 0.2613293656554728 0  -1.516103308246787 0.2349419468944258 0  -1.524890500333031 0.2018877287691261 0  -1.553477394015084 0.1870576280926728 0  -1.531361835156214 0.1370336065334857 0  -1.581346280075398 0.1593328222865999 0  -1.642921514867622 0.1371186805982478 0  -1.623733775641776 0.09679882162433737 0  -1.645107315128737 0.06618154454242627 0  -1.638303427929893 0.03355534722996322 0  -1.647533209777076 0.000806371161495803 0  -1.626582778937878 -0.03011365684137246 0  -1.650106255970273 -0.07153444952619847 0  -1.585821168824675 -0.09341425250624005 0  -1.534847834013229 -0.06750708596910643 0  -1.562994855353194 -0.1215711821871243 0  -1.53475880899815 -0.136247061248833 0  -1.528654514967843 -0.171291656108318 0  -1.510957869812339 -0.1989340318987079 0  -1.500074713718864 -0.2344298867458842 0  -1.480934847209904 -0.2632041948219365 0  -1.485273250588829 -0.3286874654549831 0  -1.453119352054369 -0.3793374982481701 0  -1.41514359896817 -0.3762550281187179 0  -1.395570126721847 -0.4159943989871905 0  -1.36919444633001 -0.4438242303523781 0  -1.34444016485056 -0.4786415387594107 0  -1.317640894254088 -0.5120030477947568 0  -1.290565588003007 -0.5498942518900845 0  -1.255993498285659 -0.5754475702284618 0  -1.231737631776073 -0.6040397694133914 0  -1.204613380162366 -0.660300990892957 0  -1.171298041202844 -0.700325311317747 0  -1.137168096677746 -0.7467066824419479 0  -1.100212729418554 -0.791988217274412 0  -1.060761625460712 -0.8383059201245736 0  -1.018400835393279 -0.8858287589074793 0  -0.971728917638947 -0.9279801389176916 0  -0.9263194476458574 -0.9728824839420647 0  -0.8750341541625076 -1.02718977459961 0  -0.8193629362628247 -1.073012881224712 0  -0.7601347535702454 -1.119613932819703 0  -0.6969747742748844 -1.163327329669348 0  -0.6299932526031023 -1.20453234129589 0  -0.5593856363396587 -1.243758832138884 0  -0.483921066700922 -1.276771627432282 0  -0.4073412997606918 -1.304434659893205 0  -0.3269392496706435 -1.330802032711242 0  -0.2440207937225924 -1.350151843181961 0  -0.1592284612504839 -1.364025434318376 0  -0.07320645204809928 -1.371607882282063 0  0.01332277089256851 -1.373041591281942 0  0.09969164400151501 -1.368063600019694 0  0.1851399156677035 -1.35695771159923 0  0.2688839425790981 -1.339866468685663 0  0.3505125050479528 -1.317457505791388 0  0.4293831664871663 -1.289872562944347 0  0.5050750804049619 -1.257877942768491 0  0.5772374376785654 -1.221768325910369 0  0.645679619903174 -1.183064912392098 0  0.7099935543512117 -1.139118059117928 0  0.7694168848444336 -1.099615273703243 0  0.8283238971993647 -1.056508105632898 0  0.8816207796303608 -1.009330987978449 0  0.9316259676842557 -0.9632545005809779 0  0.9783895754140033 -0.9170099426948991 0  1.022078896012979 -0.8711544617513226 0  1.062943308463599 -0.8259213785550436 0  1.100599599053724 -0.7808625678483746 0  1.137217628422515 -0.7439303893410275 0  1.173754340195723 -0.7006776193783086 0  1.205451023034973 -0.6569378526106333 0  1.235749681439702 -0.6160008657150386 0  1.264917085995522 -0.5768595587940522 0  1.291733567502989 -0.5365605873671376 0  1.31923405246733 -0.5027465211294129 0  1.33817983517936 -0.4518990390651151 0  1.360604781324251 -0.43638605770363 0  1.394158679936096 -0.4138034734323501 0  1.416664690854065 -0.3782720249180061 0  1.439277567690713 -0.3469703620164816 0  1.460832929647582 -0.3155209348354534 0  1.479254242814529 -0.2821370140663315 0  1.501494507409054 -0.255968332668138 0  1.506260801942889 -0.2100015942686279 0  1.530147217938124 -0.205292418443813 0  1.562224910588626 -0.1849379647615482 0  1.575055187117295 -0.1532761610406638 0  1.592282320882801 -0.1259205274120965 0  1.605615852640268 -0.09730287226526996 0  1.6202733566795 -0.07014909389431027 0  1.631936178813493 -0.04134332405081795 0  1.647444162966654 -0.01343240739058416 0  -0.09937174678029195 0.7993809789486523 0  0.6921091229242269 -0.5197094903639324 0  -0.834856275851062 -0.4128573519414509 0  -0.08733134871909173 -0.8328551172533035 0  0.6713015664144416 0.5069072011770646 0  1.195720413572609 0.1520219439897513 0  -0.8294507875134121 0.4345900154854034 0  -1.278917840034807 0.02498616741461418 0  1.203269748912082 -0.1266410807339606 0  -1.106831047529214 -0.2377900379660787 0  -0.8207282903129409 0.01015367889777013 0  -0.4920072754468878 -0.1387834428690681 0  -1.104603145867828 0.2675264644413681 0  0.3572903873103849 -0.7599564259212512 0  0.1143082521263648 -0.2716565824352823 0  0.3027891658038042 0.713663377413962 0  0.2984357178038893 0.1898996678150827 0  0.6517906606051587 0.007622491767150416 0  -0.4885117929570214 -0.6458828102166557 0  -0.5082851325925447 0.6565881287746831 0  -0.2748816024451426 0.2864863598214751 0  0.9739662003579246 -0.2776281792212646 0  0.9615648274640576 0.2923815228443797 0  0.406214048022764 -0.2230375844717315 0  0.00954348427776169 0.238412017558313 0  -0.5518842604713462 0.2088247139457779 0  -0.1980656045254458 -0.2452093393558794 0  0.964308820883388 0.01041173203279206 0  1.38664164734431 0.01599162898518752 0  0.8332696187387926 -0.3859723676077972 0  0.7986393216321783 -0.1425112965679263 0  0.6451150765208458 -0.2346987993379074 0  0.5197196443270973 -0.09304543402724134 0  0.5426307172550996 -0.3797003700721968 0  0.9524311562215551 -0.1259851222441859 0  0.8090923103710386 0.00892858554862597 0  -0.9490251703346668 0.1459291001371741 0  -1.179414786522701 0.134355576385182 0  -1.053040782003531 0.01860350848511271 0  -0.9512441959534671 -0.1198516785387697 0  -1.179474635247632 -0.09304725058680237 0  -1.352781223728352 -0.1465868057366072 0  -1.446689819390561 -0.02978952229384724 0  -1.443145926590295 0.08739838640792411 0  -1.342971535448555 0.1995027736783201 0  -0.1439206577084472 -0.5414842300910213 0  -0.3224397524254313 -0.4577571677885049 0  -0.2974128042438974 -0.7543981579547732 0  -0.34191636960309 -0.1871390010578851 0  -0.4842325645698003 -0.3829629437115996 0  -1.299237320962529 -0.2863778309083667 0  -1.287354857882652 0.3296772533095826 0  0.3891597365632463 -0.4802663551507932 0  0.2593535975137669 -0.2386430261372063 0  0.238378151675632 -0.5134552930694865 0  -0.9671645867466887 0.3407422291602462 0  -0.8011988227776589 0.2104337269235754 0  1.384168253082952 -0.169242474295865 0  1.278003614259307 -0.2795254724488835 0  1.264196868985659 0.3051149403509017 0  1.374853296241422 0.2000998244728751 0  -0.8922442145781291 -0.6624125952509352 0  -1.050074538160453 -0.5030701523308756 0  -1.032227331923023 0.5355270871100777 0  -0.8703586662350684 0.6808947129946553 0  0.9111682076173142 -0.6394027589823502 0  0.7269480831784764 -0.8007042798247517 0  0.704459381777386 0.7742954166132855 0  0.8883408762274476 0.6339265283710761 0  0.027052647398444
[...]
<PointData  Vectors="f_44"> 
<DataArray  type="Float64"  Name="f_44"  NumberOfComponents="3" format="ascii">2.5245303204331793e-01 -2.1869651644690211e-02 0.0000000000000000e+00  1.2824478541866263e-01 1.4810401457178135e-01 0.0000000000000000e+00  1.0054950061859143e-01 2.0006068502580299e-01 0.0000000000000000e+00  1.3831641658576826e-01 1.7031896861249121e-01 0.0000000000000000e+00  1.0785245418847050e-01 1.9820231675406091e-01 0.0000000000000000e+00  8.9795189510714080e-02 2.0081912879006550e-01 0.0000000000000000e+00  1.2836858562663675e-01 1.8912680161877926e-01 0.0000000000000000e+00  5.2205641163761141e-02 1.9061642484372518e-01 0.0000000000000000e+00  -2.5293000504530189e-01 1.6237546098729283e-01 0.0000000000000000e+00  8.4902395833761232e-02 3.3660183188766769e-02 0.0000000000000000e+00  1.6192987441966053e-01 1.4265102652383613e-01 0.0000000000000000e+00  2.2847869898950903e-02 2.3089399648303932e-01 0.0000000000000000e+00  1.0416408714649909e-01 1.9901006938341570e-01 0.0000000000000000e+00  3.3761305604769982e-02 2.2189770300205106e-01 0.0000000000000000e+00  8.5200327260493147e-02 2.1480860932123569e-01 0.0000000000000000e+00  6.0484963631456546e-03 2.0369146711020153e-01 0.0000000000000000e+00  -1.7204298593090964e-01 2.0452160467311697e-01 0.0000000000000000e+00  8.6147414056395755e-02 1.6512450368054396e-01 0.0000000000000000e+00  1.1149025976451298e-01 1.8875732441610540e-01 0.0000000000000000e+00  2.0449194561060161e-02 2.2691990292021252e-01 0.0000000000000000e+00  6.1652114094946663e-02 2.1428264266376451e-01 0.0000000000000000e+00  3.0337298293018782e-02 2.2224507431407167e-01 0.0000000000000000e+00  4.6455245542846038e-02 2.1857846118806445e-01 0.0000000000000000e+00  3.2830791563534842e-02 2.2165286649206145e-01 0.0000000000000000e+00  -2.2387509048218266e-02 2.2288460777402710e-01 0.0000000000000000e+00  -9.2451913278137777e-03 2.2194868408907747e-01 0.0000000000000000e+00  1.0547098999377696e-02 2.2377058467626301e-01 0.0000000000000000e+00  -1.4755228673725579e-02 2.2327071355887626e-01 0.0000000000000000e+00  -2.2349420948054952e-02 2.2249687999627635e-01 0.0000000000000000e+00  -3.8512469135633144e-02 2.2022400493208302e-01 0.0000000000000000e+00  -4.8553871217508586e-02 2.1850024629222170e-01 0.0000000000000000e+00  -6.8364697675461744e-02 2.1277762905647810e-01 0.0000000000000000e+00  -9.4781633291645948e-02 2.0268048718112955e-01 0.0000000000000000e+00  -9.9864280884809836e-02 2.0026590457653046e-01 0.0000000000000000e+00  -1.1468142376817742e-01 1.9168178003848194e-01 0.0000000000000000e+00  -1.3776843106879347e-01 1.7655287153683213e-01 0.0000000000000000e+00  -1.5270661249263900e-01 1.6338008890873798e-01 0.0000000000000000e+00  -1.7074186490192417e-01 1.4446352964195339e-01 0.0000000000000000e+00  -1.8417750083690906e-01 1.2726701644105720e-01 0.0000000000000000e+00  -1.9817618458552996e-01 1.0358969410108955e-01 0.0000000000000000e+00  -2.1118716274270000e-01 7.3936011624910647e-02 0.0000000000000000e+00  -2.1738633020212270e-01 5.3535837313301901e-02 0.0000000000000000e+00  -2.2190668019855153e-01 2.6691746382072282e-02 0.0000000000000000e+00  -2.2396316625216633e-01 -4.5618220915309938e-03 0.0000000000000000e+00  -2.2107353556505946e-01 -3.3012884444128671e-02 0.0000000000000000e+00  -2.1569823748759004e-01 -6.0702818402808355e-02 0.0000000000000000e+00  -2.0373816296402406e-01 -9.1662452453373830e-02 0.0000000000000000e+00  -1.9189091977425302e-01 -1.1545265022635495e-01 0.0000000000000000e+00  -1.8091533145233002e-01 -1.3163490678444276e-01 0.0000000000000000e+00  -1.5791411678037273e-01 -1.5835300218320036e-01 0.0000000000000000e+00  -1.3599903120745740e-01 -1.7781860325734583e-01 0.0000000000000000e+00  -1.1867693841825304e-01 -1.8968691008992580e-01 0.0000000000000000e+00  -9.4123843501012980e-02 -2.0262131370972208e-01 0.0000000000000000e+00  -8.0530881104701704e-02 -2.0945072928618569e-01 0.0000000000000000e+00  -4.5518075325997567e-02 -2.1821170999641423e-01 0.0000000000000000e+00  -3.7851489833938649e-02 -2.1998896024689071e-01 0.0000000000000000e+00  -5.7991100777195839e-02 -2.1703154339677394e-01 0.0000000000000000e+00  -1.2821938096379708e-02 -2.2255871369213029e-01 0.0000000000000000e+00  1.5364385075640360e-02 -2.2351644850543959e-01 0.0000000000000000e+00  9.6543895478657018e-03 -2.2377380609635120e-01 0.0000000000000000e+00  3.7965356873930621e-02 -2.1959685794378084e-01 0.0000000000000000e+00  1.8057530790672963e-02 -2.2590665845832134e-01 0.0000000000000000e+00  7.4269596463842416e-02 -2.0369869807891849e-01 0.0000000000000000e+00  9.6676376426331617e-02 -2.0164352031509056e-01 0.0000000000000000e+00  -7.4542044524792128e-02 -2.2350937427536899e-01 0.0000000000000000e+00  -2.7033741947646859e-03 -2.1122582749513674e-01 0.0000000000000000e+00  5.5455248277843976e-02 -2.2039514035123600e-01 0.0000000000000000e+00  4.8925234627257570e-02 -2.2044546084345351e-01 0.0000000000000000e+00  2.8692586800872495e-03 -2.1345659425873789e-01 0.0000000000000000e+00  1.0360936629790879e-01 -2.4844667197759815e-01 0.0000000000000000e+00  -6.0636463269113587e-02 -4.5405974776012624e-02 0.0000000000000000e+00  -1.3866720195281407e-01 -1.4880108354901628e-01 0.0000000000000000e+00  1.9851868165448508e-01 -1.0484655508843400e-01 0.0000000000000000e+00  1.7248982279551187e-01 -3.4247270452219022e-02 0.0000000000000000e+00  1.1466977411816401e-01 -2.1374281896588662e-01 0.0000000000000000e+00  1.1072389193418734e-01 -1.7495805397094608e-01 0.0000000000000000e+00  1.7267565311019273e-01 -1.5208840951343158e-01 0.0000000000000000e+00  -1.6510356971497671e-03 -1.8091123674035348e-01 0.0000000000000000e+00  5.5483917502482542e-02 5.4109413225353498e-03 0.0000000000000000e+00  4.8665580539762894e-02 2.6257894612530147e-01 0.0000000000000000e+00  -2.4700988316989148e-01 -6.0354386172279825e-02 0.0000000000000000e+00  -2.4608365264298323e-02 -8.8035820123885129e-03 0.0000000000000000e+00  1.4965842540000074e-01 2.4631307865776012e-02 0.0000000000000000e+00  1.0934733467105684e-01 -1.0482222083291419e-01 0.0000000000000000e+00  2.4258100984814254e-01 -2.0450940354307931e-02 0.0000000000000000e+00  1.0691121920329032e-01 9.5982187980618042e-02 0.0000000000000000e+00  1.4025049269400955e-01 -4.4302966994071061e-02 0.0000000000000000e+00  -4.5646972152959285e-02 -4.7982658663593882e-03 0.0000000000000000e+00  -2.3353690621618986e-01 5.2502129278255816e-02 0.0000000000000000e+00  4.9330022665072880e-02 -2.7991011773066060e-01 0.0000000000000000e+00  4.1664198540312093e-02 -2.2163219530248867e-02 0.0000000000000000e+00  1.3999359597958195e-02 1.6179744111973079e-01 0.0000000000000000e+00  1.9616325379150859e-01 1.2470025439192275e-01 0.0000000000000000e+00  1.3230895778215745e-01 1.5998840157497432e-01 0.0000000000000000e+00  1.3180188810559382e-01 2.0149575523222593e-01 0.0000000000000000e+00  1.6717130965572741e-01 1.4821987139973071e-02 0.0000000000000000e+00  2.2168642789063914e-01 8.5935366727169477e-02 0.0000000000000000e+00  -9.8407561378166170e-02 1.3416178685381999e-01 0.0000000000000000e+00  -5.4920690813501684e-02 2.1555589185105740e-02 0.0000000000000000e+00  1.2842245776449676e-01 2.4316991123831808e-01 0.0000000000000000e+00  1.8224073272033330e-02 2.1113722442103344e-01 0.0000000000000000e+00  6.8202139248785071e-02 2.1528345903243293e-01 0.0000000000000000e+00  7.3826470268329891e-02 2.1638644800294299e-01 0.0000000000000000e+00  4.2320623194080313e-03 2.0828594249246279e-01 0.0000000000000000e+00  -5.8988182049311277e-02 2.2654461534174450e-01 0.0000000000000000e+00  1.3207639490576659e-01 1.8573870634948564e-01 0.0000000000000000e+00  9.6119034024397559e-02 1.9167199982353794e-01 0.0000000000000000e+00  4.1588840662305095e-02 2.2327084787043575e-01 0.0000000000000000e+00  6.4285200501328993e-02 2.1333314104833531e-01 0.0000000000000000e+00  3.4832028004003535e-02 2.2120024707788999e-01 0.0000000000000000e+00  3.7551201159390840e-02 2.2129087071011710e-01 0.0000000000000000e+00  -1.3702415765932264e-03 2.2238877326255077e-01 0.0000000000000000e+00  -2.2860937476106544e-02 2.2292242412017607e-01 0.0000000000000000e+00  1.7495930559875441e-02 2.2406731676084707e-01 0.0000000000000000e+00  -1.3438344932929999e-02 2.2134925815131182e-01 0.0000000000000000e+00  -5.2627738331743987e-02 2.1867091037928105e-01 0.0000000000000000e+00  -6.2405575872449770e-02 2.1427877756038025e-01 0.0000000000000000e+00  -9.2252106327737449e-02 2.0393612335116310e-01 0.0000000000000000e+00  -1.0762043994174414e-01 1.9641797717716736e-01 0.0000000000000000e+00  -1.3428105505964968e-01 1.7865428299257810e-01 0.0000000000000000e+00  -1.6538354222545679e-01 1.5086069716075262e-01 0.0000000000000000e+00  -1.7534157482267065e-01 1.3938608059260668e-01 0.0000000000000000e+00  -1.8975541259224762e-01 1.1759147133800214e-01 0.0000000000000000e+00  -2.0780003169001618e-01 8.4281086211416015e-02 0.0000000000000000e+00  -2.1645098485658126e-01 5.5896628899589032e-02 0.0000000000000000e+00  -2.2273707581656796e-01 2.3184496126102020e-02 0.0000000000000000e+00  -2.2353270778103868e-01 -9.0955373488181279e-03 0.0000000000000000e+00  -2.1996275776543303e-01 -4.1644273147702575e-02 0.0000000000000000e+00  -2.1153914376927616e-01 -7.2816415278557450e-02 0.0000000000000000e+00  -1.9963078736562512e-01 -1.0130566689901614e-01 0.0000000000000000e+00  -1.8396806125792187e-01 -1.2720436433272089e-01 0.0000000000000000e+00  -1.6600598599546315e-01 -1.5029857666155935e-01 0.0000000000000000e+00  -1.4418973947800373e-01 -1.7067236847260311e-01 0.0000000000000000e+00  -1.2707394413955875e-01 -1.8486827873963801e-01 0.0000000000000000e+00  -9.5512370953165171e-02 -2.0153012240667714e-01 0.0000000000000000e+00  -8.0655171554147434e-02 -2.0870493951779653e-01 0.0000000000000000e+00  -8.4081338565090938e-02 -2.0769898695905084e-01 0.0000000000000000e+00  -4.5336152815387699e-02 -2.1855396234773194e-01 0.0000000000000000e+00  -1.9633444018315481e-02 -2.2320004576476185e-01 0.0000000000000000e+00  -1.2163877090937126e-02 -2.2313075326459064e-01 0.0000000000000000e+00  5.6686424602132865e-03 -2.2360672274600418e-01 0.0000000000000000e+00  1.4182945327629723e-02 -2.2327337433540032e-01 0.0000000000000000e+00  3.7874956402391857e-02 -2.2070593162897073e-01 0.0000000000000000e+00  2.0494577551431987e-02 -2.2154063750280545e-01 0.0000000000000000e+00  1.0188153026545677e-02 -2.2361952538112800e-01 0.0000000000000000e+00  5.9479296151603127e-02 -2.1599477424746277e-01 0.0000000000000000e+00  7.2073146115203574e-02 -2.1153752836362386e-01 0.0000000000000000e+00  5.7398754892854925e-02 -2.1678611591428093e-01 0.0000000000000000e+00  8.6523317443067363e-02 -2.0552936352689941e-01 0.0000000000000000e+00  4.7050265031425086e-02 -2.2281572024419680e-01 0.0000000000000000e+00  1.2971215939736019e-01 -1.7514940780393948e-01 0.0000000000000000e+00  1.1147318233798040e-01 -1.5583025803193049e-01 0.0000000000000000e+00  -1.5186307020974929e-01 -2.2082631140343204e-01 0.0000000000000000e+00  2.1276720547600238e-02 -2.0019030050621250e-01 0.0000000000000000e+00  1.0635766191280127e-01 -2.0634547344020857e-01 0.0000000000000000e+00  5.5401623903893284e-02 -2.1719765463221988e-01 0.0000000000000000e+00  1.2470042285950370e-01 -1.8731871063523306e-01 0.0000000000000000e+00  4.5465215114889018e-02 -2.2669198631035731e-01 0.0000000000000000e+00  1.7492287856246308e-01 -1.2740652326189697e-01 0.0000000000000000e+00  9.3312194111942470e-02 -1.6986733359960177e-02 0.0000000000000000e+00  -2.4728626328098285e-01 -1.7556143916342731e-01 0.0000000000000000e+00  6.8299556639181858e-02 -1.8308153644748018e-01 0.0000000000000000e+00  1.5036882054982964e-01 -1.7335001355455981e-01 0.0000000000000000e+00  1.0803574333058984e-01 -1.9191562137132681e-01 0.0000000000000000e+00  1.3701490029478094e-01 -1.7870957655950889e-01 0.0000000000000000e+00  1.4467164661888560e-01 -1.6682761710454952e-01 0.0000000000000000e+00  1.3467588644990319e-01 -1.8113921757062559e-01 0.0000000000000000e+00  1.5101406318459351e-01 -1.4658076926886196e-01 0.0000000000000000e+00  -2.0823907928690027e-01 -8.2140511923380052e-02 0.0000000000000000e+00  3.6919689986047374e-02 -2.2076698161644173e-01 0.0000000000000000e+00  1.2479446333629181e-01 1.8574438074669783e-01 0.0000000000000000e+00  -2.1273103856960918e-01 6.9736989281796891e-02 0.0000000000000000e+00  2.1903209885454532e-02 2.2276193324313887e-01 0.0000000000000000e+00  1.9914854722224073e-01 1.0199096457781165e-01 0.0000000000000000e+00  1.0744726793819535e-01 -1.9628707050932370e-01 0.0000000000000000e+00  2.2354001283346117e-01 -1.0194865194793007e-02 0.0000000000000000e+00  2.0894390944688357e-01 -8.0031868534384057e-02 0.0000000000000000e+00  1.8210837627463330e-01 1.3001001807209325e-01 0.0000000000000000e+00  2.2358888229469928e-01 -9.8623302458702936e-03 0.0000000000000000e+00  2.0138624002955088e-01 9.8329163365303479e-02 0.0000000000000000e+00  1.7176532561308022e-01 -1.4339480988726777e-01 0.0000000000000000e+00  -1.5743934864779227e-01 -1.5910697173564287e-01 0.0000000000000000e+00  -2.0060912577285658e-01 -1.0134035332218834e-01 0.0000000000000000e+00  -1.8057104675050373e-01 1.3229290012510236e-01 0.0000000000000000e+00  4.5454249187505451e-02 2.2042206710332876e-01 0.0000000000000000e+00  2.2404208451155458e-01 6.7590184832668843e-03 0.0000000000000000e+00  -4.1683687261858275e-02 2.1994078525118640e-01 0.0000000000000000e+00  -4.7426698329067353e-02 -2.1874133855951070e-01 0.0000000000000000e+00  4.7881897339589578e-02 -2.1935438762543566e-01 0.0000000000000000e+00  1.7046317312642323e-01 -1.4495271035474597e-01 0.0000000000000000e+00  1.5644134631374146e-01 1.5998554577884658e-01 0.0000000000000000e+00  9.0706292298713354e-02 -2.0515026061042491e-01 0.0000000000000000e+00  -1.6685941965863302e-01 -1.5266495407053224e-01 0.0000000000000000e+00  1.7125222257852052e-01 -1.4425027257940062e-01 0.0000000000000000e+00  4.4692761100681995e-02 2.2096259011428737e-01 0.0000000000000000e+00  2.2345204821738465e-01 1.0852522093535171e-02 0.0000000000000000e+00  2.2340990420101775e-01 1.3131942785773364e-02 0.0000000000000000e+00  1.2091657319318333e-01 -1.8834887145640603e-01 0.0000000000000000e+00  2.0533077007421605e-01 -8.9230161307620209e-02 0.0000000000000000e+00  1.5847264226176108e-01 -1.5844162444533388e-01 0.0000000000000000e+00  2.0406051986380799e-01 -9.3197548754950260e-02 0.0000000000000000e+00  5.1432930816090593e-02 -2.1805490366390770e-01 0.0000000000000000e+00  2.1183656135772963e-01 -7.1971902042527083e-02 0.0000000000000000e+00  2.2361097273837921e-01 9.3439529137093677e-03 0.0000000000000000e+00  2.0745445518123942e-01 -8.3838914579125706e-02 0.0000000000000000e+00  2.0967698691367243e-01 -7.8172402364393254e-02 0.0000000000000000e+00  2.2344916760044398e-01 -1.0816860849754228e-02 0.0000000000000000e+00  2.1380411054439288e-01 6.5998101477828836e-02 0.0000000000000000e+00  2.1576839473631668e-01 5.9352316282426182e-02 0.0000000000000000e+00  1.9985605102080328e-01 1.0081775744010286e-01 0.0000000000000000e+00  2.2005715848714305e-01 3.8529884586444525e-02 0.0000000000000000e+00  2.1696127639659046e-01 -5.3356748420998378e-02 0.0000000000000000e+00  1.8945998871070219e-01 -1.1923173498848622e-01 0.0000000000000000e+00  -1.6545163084411407e-01 1.5112806007921745e-01 0.0000000000000000e+00  -3.2317503008783596e-02 2.2177692288619133e-01 0.0000000000000000e+00  -1.4488449625616726e-01 1.7066697538664183e-01 0.0000000000000000e+00  1.6026894575508063e-01 1.5746674810940386e-01 0.0000000000000000e+00  7.8263860212917480e-02 2.0988049931864045e-01 0.0000000000000000e+00  1.4353415023656563e-01 1.7195319225809699e-01 0.0000000000000000e+00  1.2904606891820725e-01 -1.8306816397789816e-01 0.0000000000000000e+00  -7.7311121999137866e-02 -2.1018986118016825e-01 0.0000000000000000e+00  -3.4201867540352870e-02 -2.2202237293108579e-01 0.0000000000000000e+00  -1.7269448310023497e-01 -1.4266690447291921e-01 0.0000000000000000e+00  1.4835540360777602e-01 -1.6750394199181490e-01 0.0000000000000000e+00  1.8821887169830548e-01 -1.2114475039576039e-01 0.0000000000000000e+00  1.8011324417229918e-01 -1.3282422861630391e-01 0.0000000000000000e+00  1.5023587185312501e-01 -1.6593849428017279e-01 0.0000000000000000e+00  1.3189796902922105e-01 1.8085224799888736e-01 0.0000000000000000e+00  1.6369175163343980e-01 1.5260731810797873e-01 0.0000000000000000e+00  4.8145862649502727e-02 2.1845957073905745e-01 0.0000000000000000e+00  9.9657955015566055e-02 2.0023205747968778e-01 0.0000000000000000e+00  7.9060630909116539e-02 -2.0923173049482721e-01 0.0000000000000000e+00  2.6447861330191124e-02 -2.2213934388103568e-01 0.0000000000000000e+00  4.3294241653801642e-02 -2.1947298215256775e-01 0.0000000000000000e+00  -3.6448260287439388e-02 -2.2074011327814619e-01 0.0000000000000000e+00  -5.3523567126182739e-02 2.1723082199373325e-01 0.0000000000000000e+00  2.2689493505894151e-02 2.2255339839679503e-01 0.0000000000000000e+00  -2.2382096481719060e-01 -3.7524841419461891e-03 0.0000000000000000e+00  -1.9190576960072719e-01 1.1521020051131144e-01 0.0000000000000000e+00  -1.9588652270269472e-01 -1.0827884021865983e-01 0.0000000000000000e+00  -2.2380742578288981e-01 2.1924687043804419e-03 0.0000000000000000e+00  -6.2234524481352860e-02 -2.1499535839155959e-01 0.0000000000000000e+00  2.0456999508696266e-01 9.2875585318094964e-02 0.0000000000000000e+00  1.4876125713354710e-01 1.6761440972861913e-01 0.0000000000000000e+00  2.0604532456082666e-02 2.2320024271466857e-01 0.0000000000000000e+00  1.5647980807182019e-01 1.6016114274678708e-01 0.0000000000000000e+00  2.2202403587108996e-01 2.8905585184241279e-02 0.0000000000000000e+00  1.9922047371982746e-01 1.0205127444201118e-01 0.0000000000000000e+00  -2.1773424274209643e-01 6.3440439931854928e-02 0.0000000000000000e+00  -1.9276523051149169e-01 1.8054587565989944e-01 0.0000000000000000e+00  9.4433105729793201e-02 -2.1050649824015291e-01 0.0000000000000000e+00  1.1374406451759712e-01 1.9270330042420800e-01 0.0000000000000000e+00  9.7505854437327288e-02 -2.0140358397869723e-01 0.0000000000000000e+00  1.6246470388048370e-01 1.5385318991799132e-01 0.0000000000000000e+00  1.9751932567570388e-01 1.0539090829529939e-01 0.0000000000000000e+00  1.0581774758820632e-01 1.9722725536157379e-01 0.0000000000000000e+00  2.0417405078851872e-01 9.1473118709932910e-02 0.0000000000000000e+00  -1.3268184716566347e-01 1.8053784069970796e-01 0.0000000000000000e+00  -8.5245228694033934e-02 2.0698340932394066e-01 0.0000000000000000e+00  -2.2385711456177729e-01 8.9477684396303391e-03 0.0000000000000000e+00  -2.1730231980204112e-01 -5.3818074294527458e-02 0.0000000000000000e+00  -2.2793695793093302e-02 -2.2281077453929876e-01 0.0000000000000000e+00  -1.3627628127354904e-01 -1.7782373495802589e-01 0.0000000000000000e+00  -1.4120587061706297e-01 -1.7371695094393882e-01 0.0000000000000000e+00  2.1953991751493324e-01 -5.2123971115601436e-02 0.0000000000000000e+00  -1.6589387540837347e-01 1.5253703683667852e-01 0.0000000000000000e+00  -1.1550176805781505e-01 -1.9165574459825829e-01 0.0000000000000000e+00  -1.9421729540851196e-01 -1.1126695328413887e-01 0.0000000000000000e+00  -2.0096702184228010e-01 9.8493781362764946e-02 0.0000000000000000e+00  -1.3326327797735255e-01 1.7976038482002502e-01 0.0000000000000000e+00  2.2413267399981290e-01 -4.9979685281732633e-02 0.0000000000000000e+00  -2.1729282165681094e-01 5.4393986717900890e-02 0.0000000000000000e+00  -2.2228298225426485e-01 2.6329552842091750e-02 0.0000000000000000e+00  -1.1876205114987726e-01 1.8969251289749528e-01 0.0000000000000000e+00  -2.1853826168870022e-02 2.2266596829093516e-01 0.0000000000000000e+00  5.8347787355596079e-02 2.1606722164145703e-01 0.0000000000000000e+00  -4.0790609445503057e-02 -2.1998351555258847e-01 0.0000000000000000e+00  -1.2872720815238822e-01 -1.8306339859588477e-01 0.0000000000000000e+00  4.2250794300508071e-02 -2.1976137899846052e-01 0.0000000000000000e+00  2.1332992006839432e-01 -6.7829451453414874e-02 0.0000000000000000e+00  1.3487278542488321e-01 -1.7865885