<?xml version="1.0"?>
<VTKFile type="UnstructuredGrid"  version="0.1"  >
<UnstructuredGrid>
<Piece  NumberOfPoints="2549" NumberOfCells="4928">
<Points>
<DataArray  type="Float64"  NumberOfComponents="3"  format="ascii">1.306512045360776 0.0402301900009636 0  1.302481590008626 0.0531550155915127 0  1.272596858215628 0.05044715745514478 0  1.264571822645737 0.05313132634529218 0  1.252387778115567 0.05261288313099322 0  1.248918448181364 0.05724010782769878 0  1.242036752649694 0.06146799398252961 0  1.247430917183479 0.07630240179468706 0  1.21886921035922 0.07170136323258852 0  1.209059131716568 0.03965633368042437 0  1.237859332089903 0.08849050204030134 0  1.235233204784527 0.1017379601565304 0  1.241420304231515 0.1306392965836807 0  1.242961019699137 0.1576087595853627 0  1.243768670538084 0.1861951545379424 0  1.245830475512381 0.2246329615813232 0  1.227319659893419 0.2401202052437972 0  1.230549901661114 0.2424480927615817 0  1.241233422605522 0.3131310484210785 0  1.236335264025268 0.3532368541247734 0  1.233061708031642 0.4063407082551447 0  1.225795258919467 0.4582602623400265 0  1.216729143968151 0.5142747371506811 0  1.205525463011417 0.5767062260634891 0  1.184948630432277 0.6379776199322064 0  1.165246791434242 0.6874446763848349 0  1.144045128044333 0.7539627365063191 0  1.117184799257973 0.8206877216347169 0  1.085603884699159 0.8891162916109844 0  1.048905318991616 0.958610754400092 0  1.006838011834725 1.028317853434929 0  0.959293166369408 1.099336440445581 0  0.9039990510786287 1.1662755314173 0  0.8456566106553636 1.22980983929649 0  0.7800789162064361 1.296891506452188 0  0.7080457147617731 1.357891178139774 0  0.6299640441127721 1.415223227219488 0  0.546108056898254 1.467177200511129 0  0.4569017832696651 1.512846080954784 0  0.3630664551003423 1.552756912778426 0  0.2642804113511898 1.582805929563601 0  0.1640167767512991 1.604191025231941 0  0.06065255491889847 1.619090753401925 0  -0.04362114442022465 1.623046032003323 0  -0.1477839421920955 1.617784893906956 0  -0.2506300297781796 1.602502940850923 0  -0.3510039132207164 1.578260080528678 0  -0.4478301633552572 1.542987694700065 0  -0.5390779981433831 1.503401560778745 0  -0.6275173299212713 1.455335636493893 0  -0.7087462853028842 1.397981909552058 0  -0.7837876965174638 1.336177542150168 0  -0.8522172153251385 1.269724008542663 0  -0.9138141832394489 1.199200983784058 0  -0.9688232870009011 1.127898947761581 0  -1.016029145511294 1.048447266621318 0  -1.055690043798699 0.985595963138304 0  -1.097237919815455 0.916501922778039 0  -1.127796933258696 0.8405789801859314 0  -1.153733828225215 0.7695986235896799 0  -1.175329139576197 0.7014936564064219 0  -1.191803507527866 0.6325706223607949 0  -1.206552997156332 0.5749295475559427 0  -1.210636652619193 0.4923025900697102 0  -1.210377769339949 0.4587095577024028 0  -1.228206394614012 0.4286146880609181 0  -1.231957949189768 0.3788493231772432 0  -1.235656860446822 0.3391798653800883 0  -1.236396080616706 0.2988860231793505 0  -1.240402665224964 0.2725518201635705 0  -1.233221609598309 0.2276323464050009 0  -1.25945261756632 0.260615562054581 0  -1.281930371389623 0.2067814204338231 0  -1.234315599604854 0.1158178841283177 0  -1.229887461474509 0.096036826398602 0  -1.212937730315218 0.06752812222334903 0  -1.211320995972815 0.05624892277554105 0  -1.1915095861046 0.03403658014511735 0  -1.214411935543776 0.05074180663255934 0  -1.13956217207188 -0.0004550317899645329 0  -1.213170852512427 0.09541404242509727 0  -1.314867396684795 0.1044911875125332 0  -1.260584653989634 0.07925566447346544 0  -1.293528493242424 0.07482077801743676 0  -1.276606855859786 0.06711069445994763 0  -1.298380282539134 0.05915505339069753 0  -1.266282660581958 0.05411466509299008 0  -1.329236878890212 0.02667727463189756 0  -1.222120630010999 0.03642309713566108 0  -1.146534169786021 0.13950807291892 0  -1.233446858220023 0.08023108517857575 0  -1.211246203435009 0.09724475489568396 0  -1.236423409414958 0.07105165879671022 0  -1.24106635950136 0.0572625452903478 0  -1.26159440263204 0.02546462043465247 0  -1.267538635681489 0.00492066644912037 0  -1.322095103977827 -0.09111350915541944 0  -1.305094395853071 -0.1594386274105509 0  -1.277686607444087 -0.1221467866850469 0  -1.288160048901225 -0.1722444337026059 0  -1.285970946673552 -0.2001744411635717 0  -1.28785230570183 -0.2436444301683845 0  -1.286374023246718 -0.2856891174532027 0  -1.284990573924129 -0.3382079861008486 0  -1.269188513040833 -0.3674010547526462 0  -1.274531411245025 -0.4039631734820182 0  -1.274595614875641 -0.4971015015527687 0  -1.262687918563534 -0.5589561475337697 0  -1.249519092670702 -0.634671565775453 0  -1.231030049091715 -0.7092947010645012 0  -1.207846727234294 -0.7870620650731034 0  -1.179111219122553 -0.8682795391808217 0  -1.141993555951719 -0.9397650190389606 0  -1.107616308471002 -1.017737308661764 0  -1.061680494823607 -1.115480963325492 0  -1.007145319411457 -1.197196746645211 0  -0.9456496902092499 -1.28139018810867 0  -0.876426289974463 -1.360713450357323 0  -0.79967913559715 -1.435910387851784 0  -0.7157836216228006 -1.508027879607204 0  -0.6222633682678254 -1.568584459141559 0  -0.5265879287503108 -1.619298521324608 0  -0.4233297534353188 -1.668270375799357 0  -0.3150876882499403 -1.704049834583017 0  -0.2031342491941925 -1.729714667622612 0  -0.08874556230099792 -1.743631541287984 0  0.02664554310737748 -1.746083182563885 0  0.1417159488520347 -1.736542976725108 0  0.2549571606720115 -1.715579222107983 0  0.3648139912789365 -1.683479085359702 0  0.4704762721740071 -1.64158132149638 0  0.5706716728491079 -1.590174326652058 0  0.6645714089753596 -1.530797088647428 0  0.7514872402497983 -1.464046865509697 0  0.8310518887839323 -1.392975527846305 0  0.9024638713366581 -1.312294906413618 0  0.9642139765730364 -1.241392866303953 0  1.025067262289111 -1.164187191966199 0  1.074853763961148 -1.079763386746834 0  1.11822936395726 -0.9984813388469032 0  1.15531488413176 -0.9178246238312908 0  1.186467347440496 -0.8389309431883704 0  1.21221009481109 -0.7622929815306352 0  1.231803784477256 -0.6870434032887909 0  1.24961814688016 -0.6291189823423097 0  1.267600507451935 -0.5596607665729092 0  1.276270891711139 -0.4903752280571062 0  1.2825555018559 -0.4278853693072621 0  1.28703567994366 -0.3702250352612583 0  1.287326551293826 -0.3115406492390518 0  1.289560384324892 -0.2671760437278156 0  1.275331716573504 -0.1901593963184168 0  1.268791711577686 -0.1852980457342951 0  1.285337281966946 -0.1678625104690726 0  1.28072894800546 -0.1261806837394639 0  1.277411012163335 -0.09470423134327177 0  1.273214673058397 -0.06478029438202204 0  1.264177607121883 -0.03294482835697177 0  1.264434140264772 -0.0176121392992733 0  1.231672345036875 0.0351275391820754 0  1.239408908984516 0.003050237168060965 0  1.26617847162422 -0.0001369704484701639 0  1.257567560998436 0.01682118489944873 0  1.261403160743872 0.02268122018928742 0  1.261709997597423 0.02864585751988408 0  1.269571080282307 0.02944798581916216 0  1.276989460321019 0.0316553306212341 0  1.298202188915184 0.03067749625958032 0  -0.08345307400261059 0.9917421123888925 0  0.6702867651037135 -0.5208635298153452 0  -0.7675321445933787 -0.354444808620613 0  -0.08613007937111289 -1.072513039255397 0  0.6286716520841675 0.4952589514416042 0  0.9736388423234554 0.07490711912540116 0  -0.7386919006119328 0.4022508580639451 0  -1.011846000431545 0.05232793000547246 0  0.9873642378522369 -0.02370226762956862 0  -0.9511475977836834 -0.1062886933687124 0  -0.6324811368084788 0.03161822109659365 0  -0.3777818030359924 -0.1401028270009461 0  -0.9274773231111586 0.1835053384416405 0  0.3860820790433445 -0.9293034361068762 0  0.05488843025049719 -0.3710504660303278 0  0.3162696823248115 0.8400434289542207 0  0.1684454855954006 0.1945335906732984 0  0.4777063187605377 0.01256636486299639 0  -0.4863923865987418 -0.7537136867002796 0  -0.4846551415506952 0.7521421873991366 0  -0.2005183621265699 0.3487355020198582 0  0.8468477302975022 -0.1733132717713896 0  0.8222738635446452 0.2020009516340537 0  0.3009542728699537 -0.2422873247114221 0  -0.01876786127978242 0.2591047480226776 0  -0.4202567457422324 0.2296620234846726 0  -0.1756217229539257 -0.3239152259622657 0  0.7556601835855259 0.02021256671621838 0  1.107741364255513 0.03200632709702399 0  0.7590311618960421 -0.3216954664237652 0  0.6337988068302929 -0.09539035913593506 0  0.5203269114444318 -0.2114591825552072 0  0.3707648758415177 -0.08553625527411471 0  0.4725587825500421 -0.3982290925721136 0  0.7678412481433111 -0.06130414982748475 0  0.6187683904265624 0.01621241308691675 0  -0.7526981344483827 0.1217398367043269 0  -0.9449702489141198 0.09411515513793817 0  -0.8285990022793271 0.04404024620887401 0  -0.7667434213608613 -0.04940223414529024 0  -0.9546971820388586 -0.0002710123037603374 0  -1.108341909037754 -0.008865103007819064 0  -1.145623945142913 0.05322455407449803 0  -1.138536159542372 0.06434876932991881 0  -1.088722532478143 0.1170526340675016 0  -0.1333202633348763 -0.7031181361816916 0  -0.2893091621447295 -0.5632366423357477 0  -0.3052436997966088 -0.9431717514174254 0  -0.2704616222288054 -0.2222942463724287 0  -0.4200331555530588 -0.4281678911880884 0  -1.142991694687772 -0.1049792596577376 0  -1.109619532853122 0.2004500005213572 0  0.3583332137499928 -0.5633340803177528 0  0.1761062464386302 -0.2892607807382739 0  0.2256429185614353 -0.6454745288510416 0  -0.8333598519736826 0.2722460766465136 0  -0.6378050864391709 0.1930582990442465 0  1.148306112734074 -0.01687746464471063 0  1.120210672997244 -0.1005239631421085 0  1.093283820025039 0.1519244614382652 0  1.130362836626106 0.07881372749084559 0  -0.9326660859387983 -0.6310926134725149 0  -1.027659631001291 -0.3787583141784683 0  -0.982950584873337 0.4458425449145941 0  -0.8798803555995854 0.6702272101376723 0  0.952962119879823 -0.5901568943385679 0  0.8096205294266671 -0.8632119936419762 0  0.76464312662451 0.8103942672190396 0  0.9073074571001191 0.5792044331160116 
[...]
<PointData  Vectors="f_44"> 
<DataArray  type="Float64"  Name="f_44"  NumberOfComponents="3" format="ascii">2.2726425529988692e-01 -4.4749974889359438e-02 0.0000000000000000e+00  -8.8191291267037772e-02 3.2537241356539355e-02 0.0000000000000000e+00  -2.5745430698620009e-01 -2.2786861454525090e-02 0.0000000000000000e+00  -2.2232083515285461e-01 6.7820848752112695e-02 0.0000000000000000e+00  -1.0838290397298204e-01 9.1136267851604068e-03 0.0000000000000000e+00  -7.8740983914843646e-02 3.2409835033189349e-01 0.0000000000000000e+00  1.7930767635878436e-01 -5.9380422567178660e-02 0.0000000000000000e+00  -1.4281312085825082e-01 -1.1100119178393832e-01 0.0000000000000000e+00  -1.2724690321373727e-02 -7.0226777150034086e-02 0.0000000000000000e+00  1.7677180143597659e-01 -1.9985868757557074e-01 0.0000000000000000e+00  9.8171933500853015e-02 -1.3152680793747376e-01 0.0000000000000000e+00  2.2008782310290248e-01 -2.1848610969238363e-03 0.0000000000000000e+00  2.0920453919494661e-01 -9.1230311743851281e-02 0.0000000000000000e+00  2.1908762648243282e-01 7.6120560149708482e-03 0.0000000000000000e+00  2.4959443422561525e-01 -5.3467550158110617e-02 0.0000000000000000e+00  1.3173061179843396e-01 8.0827681103472521e-02 0.0000000000000000e+00  -1.3636244150158064e-01 2.1164009946105436e-01 0.0000000000000000e+00  1.9757974644140999e-01 -1.1292021316349543e-01 0.0000000000000000e+00  2.1946018281382110e-01 -7.0690814700524809e-03 0.0000000000000000e+00  2.1988662935951550e-01 4.9617368037559645e-02 0.0000000000000000e+00  2.1979359632368206e-01 3.5769839775441972e-02 0.0000000000000000e+00  2.1181919669228214e-01 7.3282012583539821e-02 0.0000000000000000e+00  2.1442389360546385e-01 6.6731534780738830e-02 0.0000000000000000e+00  1.9645010960486906e-01 1.0413816404232930e-01 0.0000000000000000e+00  1.6317665930111680e-01 1.5564681070596548e-01 0.0000000000000000e+00  1.7539644740478946e-01 1.3711393251522747e-01 0.0000000000000000e+00  1.7583160218089794e-01 1.3784901182432036e-01 0.0000000000000000e+00  1.5150611722154469e-01 1.6517103143854908e-01 0.0000000000000000e+00  1.3688230440105509e-01 1.7685163088348452e-01 0.0000000000000000e+00  1.1405426576002102e-01 1.9222962039763294e-01 0.0000000000000000e+00  9.7350084713975410e-02 2.0199237847622487e-01 0.0000000000000000e+00  6.4611988597526121e-02 2.1365223873472097e-01 0.0000000000000000e+00  2.6019169011677327e-02 2.2250839032218389e-01 0.0000000000000000e+00  1.5092922048904707e-02 2.2345794059702634e-01 0.0000000000000000e+00  -1.4201011091840106e-02 2.2278120171725921e-01 0.0000000000000000e+00  -5.3769371340234372e-02 2.1770980913550703e-01 0.0000000000000000e+00  -8.2387100097297578e-02 2.0798737817208213e-01 0.0000000000000000e+00  -1.1653915238165374e-01 1.9092920717805212e-01 0.0000000000000000e+00  -1.4260380486840574e-01 1.7300333050994499e-01 0.0000000000000000e+00  -1.7071316484545804e-01 1.4436908672425075e-01 0.0000000000000000e+00  -1.9726492241966873e-01 1.0601556757971890e-01 0.0000000000000000e+00  -2.0980703608355716e-01 7.8938430628037154e-02 0.0000000000000000e+00  -2.1954083034210131e-01 4.1214166500099854e-02 0.0000000000000000e+00  -2.2442855838884579e-01 -3.4969773710396453e-03 0.0000000000000000e+00  -2.1904437390925524e-01 -4.3992439158575508e-02 0.0000000000000000e+00  -2.0865342239993884e-01 -8.3100490497754698e-02 0.0000000000000000e+00  -1.8508812885396139e-01 -1.2472898210333523e-01 0.0000000000000000e+00  -1.6153906380403449e-01 -1.5559064888256269e-01 0.0000000000000000e+00  -1.4089905902408095e-01 -1.7408047218936110e-01 0.0000000000000000e+00  -9.7885639474213276e-02 -2.0100173381695757e-01 0.0000000000000000e+00  -5.7272309147076268e-02 -2.1679665876739623e-01 0.0000000000000000e+00  -2.6350832711342798e-02 -2.2228639544847925e-01 0.0000000000000000e+00  1.4095218846992186e-02 -2.2291655292258430e-01 0.0000000000000000e+00  4.0147489815672392e-02 -2.2134949576515603e-01 0.0000000000000000e+00  8.5605665218349725e-02 -2.0523728014158554e-01 0.0000000000000000e+00  1.0948513355695459e-01 -1.9528216433118814e-01 0.0000000000000000e+00  8.9907996304898471e-02 -2.0667186289745174e-01 0.0000000000000000e+00  1.3418675754103848e-01 -1.7629126829149389e-01 0.0000000000000000e+00  1.7229374300669473e-01 -1.4490408578761074e-01 0.0000000000000000e+00  1.7360317989479485e-01 -1.4120013081644128e-01 0.0000000000000000e+00  1.9393563031395980e-01 -1.0964743710104521e-01 0.0000000000000000e+00  1.9710530178147792e-01 -1.1033203154042710e-01 0.0000000000000000e+00  2.0626784915678914e-01 -6.9438073535628558e-02 0.0000000000000000e+00  2.3971884213356420e-01 2.0227864840696667e-02 0.0000000000000000e+00  1.4659678903173823e-01 -1.2163551539765004e-01 0.0000000000000000e+00  1.6146133307009347e-01 -1.2092044875260766e-01 0.0000000000000000e+00  2.3712036795766700e-01 -1.6326457600457457e-02 0.0000000000000000e+00  2.1950916530943776e-01 -2.4971738472828402e-02 0.0000000000000000e+00  2.1466057388122362e-01 -3.1754563194733701e-02 0.0000000000000000e+00  2.4373271660961640e-01 -3.9354729440033064e-02 0.0000000000000000e+00  1.1381601637758632e-01 2.3570733376730341e-01 0.0000000000000000e+00  1.0260239092808834e-01 -5.8447663039663117e-02 0.0000000000000000e+00  1.4508447958208551e-01 2.6189565697414673e-02 0.0000000000000000e+00  1.3692153017314737e-01 2.3126544653643652e-01 0.0000000000000000e+00  1.4729980284191424e-01 1.4014381875766752e-01 0.0000000000000000e+00  1.3295246772992933e-01 1.7120634973541354e-01 0.0000000000000000e+00  1.0785520029446910e-01 1.5685595926435686e-01 0.0000000000000000e+00  -2.6316543179883245e-02 2.3924089862660364e-01 0.0000000000000000e+00  -1.3002975892551427e-01 1.9295130601287802e-01 0.0000000000000000e+00  4.2330247209562112e-02 2.4353789120433228e-01 0.0000000000000000e+00  -5.9854136767579363e-02 1.1984365884134011e-01 0.0000000000000000e+00  -2.4383301068232230e-01 7.4258817789732715e-02 0.0000000000000000e+00  -1.3694011656862559e-01 1.0926978543870072e-01 0.0000000000000000e+00  -2.1940703898114322e-01 3.8318108323627303e-04 0.0000000000000000e+00  -1.2861098597390833e-01 -8.3721233224431073e-03 0.0000000000000000e+00  -2.2633674087758143e-01 3.4575949786637187e-03 0.0000000000000000e+00  -1.3699833345039511e-01 -1.0882222516211952e-01 0.0000000000000000e+00  -2.4804609198856353e-01 -7.5129051176599182e-02 0.0000000000000000e+00  -5.1065388041961278e-02 -1.1913059656220112e-01 0.0000000000000000e+00  4.3305745453867346e-02 -2.3968571644004505e-01 0.0000000000000000e+00  -1.2958789445765639e-01 -1.9530898619044054e-01 0.0000000000000000e+00  -2.4322012737374998e-02 -2.3541491734160738e-01 0.0000000000000000e+00  7.8107326044063313e-02 -1.8530962439681622e-01 0.0000000000000000e+00  1.1487177816700668e-01 -1.9558927656435460e-01 0.0000000000000000e+00  1.3342106182494368e-01 -1.5452737842363370e-01 0.0000000000000000e+00  1.1351591771109290e-01 -2.3797912148149225e-01 0.0000000000000000e+00  1.5647234719541944e-01 -4.7534756160897154e-02 0.0000000000000000e+00  1.4947732678661957e-01 2.7980990740599693e-02 0.0000000000000000e+00  1.1001867225209751e-01 -2.3074731488170014e-01 0.0000000000000000e+00  2.4157480472349627e-01 5.8384655952832317e-03 0.0000000000000000e+00  2.1870097134353797e-01 2.0994375307129436e-03 0.0000000000000000e+00  2.2038400922243120e-01 -1.3246640790218352e-03 0.0000000000000000e+00  2.3754161284416567e-01 -9.6091405643692965e-03 0.0000000000000000e+00  1.7374364243229484e-01 1.0871321700541632e-01 0.0000000000000000e+00  1.5361689723314367e-01 7.1222167182330556e-02 0.0000000000000000e+00  2.3295909586551536e-01 -5.5455289378516348e-02 0.0000000000000000e+00  2.1411915967362410e-01 4.9576546665827614e-02 0.0000000000000000e+00  2.0886482102456116e-01 8.3917941703676363e-02 0.0000000000000000e+00  2.0634288465924758e-01 8.4589585158240499e-02 0.0000000000000000e+00  1.9041105544254630e-01 1.1741359141963482e-01 0.0000000000000000e+00  1.8623739767859732e-01 1.2658520685502639e-01 0.0000000000000000e+00  1.4760725921331991e-01 1.6562460033345044e-01 0.0000000000000000e+00  1.3360045735169410e-01 1.7898404048626565e-01 0.0000000000000000e+00  1.5796270912723853e-01 1.6100759900129510e-01 0.0000000000000000e+00  1.1450423793451335e-01 1.8990112717276753e-01 0.0000000000000000e+00  7.3611940457529793e-02 2.1289488127688075e-01 0.0000000000000000e+00  5.2766716093312294e-02 2.1680019246822682e-01 0.0000000000000000e+00  9.9489637964457287e-03 2.2365067929488641e-01 0.0000000000000000e+00  -1.5814811292782963e-02 2.2391365167064819e-01 0.0000000000000000e+00  -6.1318260996542473e-02 2.1461570656147572e-01 0.0000000000000000e+00  -1.1436058940962078e-01 1.9286912815970406e-01 0.0000000000000000e+00  -1.3180622462270711e-01 1.8151638987025842e-01 0.0000000000000000e+00  -1.5949501582640144e-01 1.5572856708126390e-01 0.0000000000000000e+00  -1.9327703772391153e-01 1.1488582408598015e-01 0.0000000000000000e+00  -2.0995208148204070e-01 7.6627015192752834e-02 0.0000000000000000e+00  -2.2202910884117083e-01 3.1583746169657395e-02 0.0000000000000000e+00  -2.2340217695769266e-01 -1.3656383777481374e-02 0.0000000000000000e+00  -2.1623801171560417e-01 -5.8948970024917842e-02 0.0000000000000000e+00  -1.9968653479829068e-01 -1.0110668325800383e-01 0.0000000000000000e+00  -1.7672852969602673e-01 -1.3782262047598418e-01 0.0000000000000000e+00  -1.4729699492929549e-01 -1.6839672549144374e-01 0.0000000000000000e+00  -1.1402139314493920e-01 -1.9307481155982742e-01 0.0000000000000000e+00  -7.5666984376769678e-02 -2.1013048248875296e-01 0.0000000000000000e+00  -4.4287796540387774e-02 -2.2045669135187945e-01 0.0000000000000000e+00  4.0885112895766035e-03 -2.2263825658868355e-01 0.0000000000000000e+00  3.4372517397139264e-02 -2.2140711192549645e-01 0.0000000000000000e+00  3.3262268644215172e-02 -2.2211308520248282e-01 0.0000000000000000e+00  8.1796615814899595e-02 -2.0691467903407801e-01 0.0000000000000000e+00  1.2077399370837838e-01 -1.8957465743553256e-01 0.0000000000000000e+00  1.3326166329193570e-01 -1.7915054509499123e-01 0.0000000000000000e+00  1.5577839636434557e-01 -1.6066464443951339e-01 0.0000000000000000e+00  1.6977710451912209e-01 -1.4613146899766771e-01 0.0000000000000000e+00  1.8948491735894046e-01 -1.1834970313169783e-01 0.0000000000000000e+00  1.9215501312151764e-01 -1.1347360929159801e-01 0.0000000000000000e+00  1.8576866778466883e-01 -1.2674030987697299e-01 0.0000000000000000e+00  2.0756994992832747e-01 -8.0495948300774486e-02 0.0000000000000000e+00  2.2023407967136419e-01 -4.3145287302525925e-02 0.0000000000000000e+00  2.1924876699670948e-01 -4.5639169491973809e-02 0.0000000000000000e+00  2.2281092244593520e-01 -1.1422433428048936e-02 0.0000000000000000e+00  2.2309468305098165e-01 -1.8430561894802522e-02 0.0000000000000000e+00  2.2359920533098976e-01 2.4481252066844521e-02 0.0000000000000000e+00  1.7771550450353943e-01 1.3518748675384187e-01 0.0000000000000000e+00  -9.2159002045067301e-02 -1.5828310165189552e-01 0.0000000000000000e+00  1.5612274216795594e-01 -7.4071591974155998e-02 0.0000000000000000e+00  2.3635174662994854e-01 8.6349352196833984e-02 0.0000000000000000e+00  2.1754740531774611e-01 3.0652245147565271e-02 0.0000000000000000e+00  1.9375131528105766e-01 1.1505498797747624e-01 0.0000000000000000e+00  2.1969653181290447e-01 5.2717991670890717e-02 0.0000000000000000e+00  9.6448712132537889e-02 1.5689276591441012e-01 0.0000000000000000e+00  1.6804211872046335e-01 1.9151504758827295e-01 0.0000000000000000e+00  6.4412654426818736e-03 3.8375575002734690e-02 0.0000000000000000e+00  -1.5559616418921376e-01 1.2668848488604131e-01 0.0000000000000000e+00  2.1469560247836000e-01 9.7938545943669006e-02 0.0000000000000000e+00  1.7037236333677935e-01 -2.1582860394524878e-01 0.0000000000000000e+00  -1.0029183488592651e-02 3.3243222330247880e-02 0.0000000000000000e+00  -2.4619717411866812e-01 -1.4112440363310186e-01 0.0000000000000000e+00  -2.2711222830923289e-01 3.1407466427671747e-02 0.0000000000000000e+00  -1.6318907029074350e-01 -1.0622684125626365e-01 0.0000000000000000e+00  -2.0452240661359761e-01 -9.1047350730739218e-02 0.0000000000000000e+00  8.9207988577006750e-02 -2.0539734799221188e-01 0.0000000000000000e+00  1.9494096799927668e-01 1.0979239669642991e-01 0.0000000000000000e+00  -2.0524924964995050e-01 8.9530244306498225e-02 0.0000000000000000e+00  1.2166915931425363e-02 2.2354688763789798e-01 0.0000000000000000e+00  1.9125598841592673e-01 1.1590974975469294e-01 0.0000000000000000e+00  1.7255538250704081e-01 -1.4239394431956476e-01 0.0000000000000000e+00  2.2358069474783507e-01 -4.2708726650062864e-03 0.0000000000000000e+00  2.1168940847748488e-01 7.2076823816594582e-02 0.0000000000000000e+00  2.2340358059113763e-01 9.9216900430480967e-03 0.0000000000000000e+00  2.2192542035995011e-01 -2.7839796072085130e-02 0.0000000000000000e+00  2.1407020873513802e-01 6.6115656973438727e-02 0.0000000000000000e+00  2.2059044601489691e-01 -3.6803758648015640e-02 0.0000000000000000e+00  -1.5813854640627978e-01 -1.5852892338535346e-01 0.0000000000000000e+00  -1.7927110397100415e-01 1.4050135893092211e-01 0.0000000000000000e+00  -1.9134345789624810e-01 1.1634321578746297e-01 0.0000000000000000e+00  -2.0493056609106458e-01 9.4643533011192466e-02 0.0000000000000000e+00  2.0776292491478196e-01 8.4507074416207459e-02 0.0000000000000000e+00  1.0556317456596081e-02 2.2366665187384416e-01 0.0000000000000000e+00  -9.2034214756344934e-03 -2.2366416237667966e-01 0.0000000000000000e+00  3.2973343923770576e-02 -2.2204871379873559e-01 0.0000000000000000e+00  2.2199674290777671e-01 -2.7678808913693030e-02 0.0000000000000000e+00  1.6604134662577053e-01 1.4983142508172489e-01 0.0000000000000000e+00  4.3301279406917539e-02 -2.2076168273230609e-01 0.0000000000000000e+00  -4.4825389008006762e-02 -2.2414061731277063e-01 0.0000000000000000e+00  1.6821056807816484e-01 -1.4769465728838344e-01 0.0000000000000000e+00  9.8745551889664523e-02 2.0274566501166461e-01 0.0000000000000000e+00  2.1031597325470597e-01 7.5996394786534679e-02 0.0000000000000000e+00  1.6384651089214569e-01 1.5202477403426040e-01 0.0000000000000000e+00  1.8829756790194749e-01 -1.2104880404135700e-01 0.0000000000000000e+00  2.2366374899679775e-01 -9.2828132682884635e-03 0.0000000000000000e+00  1.8579631395713100e-01 -1.2563901190591947e-01 0.0000000000000000e+00  2.2033272539092216e-01 -4.6826609770242340e-02 0.0000000000000000e+00  4.5718345510324242e-02 -2.1946991055809553e-01 0.0000000000000000e+00  2.2188375724344769e-01 2.8017531032764362e-02 0.0000000000000000e+00  2.1021509038415662e-01 7.6539711823563464e-02 0.0000000000000000e+00  2.1779407702927425e-01 -5.0777057949726631e-02 0.0000000000000000e+00  2.2303713385446253e-01 -1.6133282430621482e-02 0.0000000000000000e+00  2.2277231272871176e-01 -1.9365012107306772e-02 0.0000000000000000e+00  2.2352291301251895e-01 7.0207166613463299e-03 0.0000000000000000e+00  2.2352423986173506e-01 -6.0623317042607094e-03 0.0000000000000000e+00  2.2015366958778848e-01 -4.1361806501958809e-02 0.0000000000000000e+00  2.2880596705704040e-01 2.6708395826706864e-03 0.0000000000000000e+00  2.2321081641824636e-01 5.5159616777003019e-02 0.0000000000000000e+00  2.2036934973984468e-01 3.9729394856352386e-02 0.0000000000000000e+00  -1.3909895669105485e-01 1.7573207989718662e-01 0.0000000000000000e+00  1.6554543748373236e-05 2.2414313102845429e-01 0.0000000000000000e+00  -1.1753626498790684e-01 1.9060020249168508e-01 0.0000000000000000e+00  1.8293497370845732e-01 1.3038404860859731e-01 0.0000000000000000e+00  1.1635236129947064e-01 1.9140616539825339e-01 0.0000000000000000e+00  2.1768460415246998e-01 -5.1764651220585552e-02 0.0000000000000000e+00  2.2093017217188643e-01 3.5603727662619204e-02 0.0000000000000000e+00  -1.2153014148375807e-01 -1.8814144124373292e-01 0.0000000000000000e+00  -1.7381000984027284e-01 -1.4273306672972327e-01 0.0000000000000000e+00  -2.0791825000510747e-01 -8.3228455346889454e-02 0.0000000000000000e+00  2.0740159662465663e-01 -8.3713065002600312e-02 0.0000000000000000e+00  2.0311665394389353e-01 -9.3707940015994126e-02 0.0000000000000000e+00  2.0911808035944499e-01 8.1651052746135322e-02 0.0000000000000000e+00  2.2299250551398930e-01 1.8843364748265812e-02 0.0000000000000000e+00  1.5590905939132207e-01 1.6032438850180888e-01 0.0000000000000000e+00  1.0218254673731898e-01 2.0134755906935969e-01 0.0000000000000000e+00  1.6463159967357938e-01 1.5157092196380506e-01 0.0000000000000000e+00  2.1132894843518613e-01 7.3331451469126563e-02 0.0000000000000000e+00  1.9892200136072344e-01 -1.0231765672268045e-01 0.0000000000000000e+00  1.4112140338420617e-01 -1.7366003128251317e-01 0.0000000000000000e+00  1.5840397625373071e-01 -1.5810762764657513e-01 0.0000000000000000e+00  5.2282508405416817e-02 -2.1772420229438502e-01 0.0000000000000000e+00  1.6139053081047128e-02 2.2334858816154946e-01 0.0000000000000000e+00  1.1303033039513302e-01 1.9317251890456863e-01 0.0000000000000000e+00  -2.2399531247505353e-01 -1.2050311708297146e-03 0.0000000000000000e+00  -1.7221143050358906e-01 1.4320192724814917e-01 0.0000000000000000e+00  -1.8187614234288674e-01 -1.3065858660013249e-01 0.0000000000000000e+00  -2.2387428162960482e-01 5.4819597969712180e-03 0.0000000000000000e+00  -4.6201475126708996e-02 -2.1910801756789564e-01 0.0000000000000000e+00  1.0164914793626378e-01 2.0148121612687905e-01 0.0000000000000000e+00  7.4390494288557610e-02 2.1134574509180815e-01 0.0000000000000000e+00  -9.6075003869798475e-02 2.0249862668812382e-01 0.0000000000000000e+00  1.9212900498032964e-01 1.1486830946897474e-01 0.0000000000000000e+00  2.2376945228923334e-01 -3.3853423501323627e-03 0.0000000000000000e+00  2.1965106113077199e-01 4.2393188827029624e-02 0.0000000000000000e+00  -9.3176325065383231e-02 -2.1116996804793481e-01 0.0000000000000000e+00  1.7073261336234991e-01 1.4666730239125439e-01 0.0000000000000000e+00  2.4166495939473687e-01 1.2825481058828081e-01 0.0000000000000000e+00  2.2317329402179550e-01 1.5010390749911080e-02 0.0000000000000000e+00  2.2003462241763422e-01 -4.0271689454523266e-02 0.0000000000000000e+00  2.1803358620607979e-01 4.9808559371194584e-02 0.0000000000000000e+00  1.7028197575163131e-01 1.4518739024879049e-01 0.0000000000000000e+00  1.0918281061789410e-01 1.9529074968444640e-01 0.0000000000000000e+00  1.9089034808003325e-01 1.1649952476309562e-01 0.0000000000000000e+00  -2.0710749953454494e-01 8.5823624351823641e-02 0.0000000000000000e+00  -1.0900370322775714e-01 1.9566274052502086e-01 0.0000000000000000e+00  -2.1578697334459790e-01 6.0175156932061540e-02 0.0000000000000000e+00  -2.2003711089025307e-01 -4.1511489990849394e-02 0.0000000000000000e+00  -2.2138457340114978e-02 -2.2282148887277625e-01 0.0000000000000000e+00  -1.3612406902075166e-01 -1.7782710361739107e-01 0.0000000000000000e+00  -1.2612018939013636e-01 -1.8498430944150146e-01 0.0000000000000000e+00  2.2164059042275655e-01 7.0604162549520622e-02 0.0000000000000000e+00  -4.2882463422336696e-02 2.2220524941145842e-01 0.0000000000000000e+00  -6.2631063643930604e-02 -2.1501616170287038e-01 0.0000000000000000e+00  -1.7994326084621864e-01 -1.3340221473633870e-01 0.0000000000000000e+00  -1.8858830076482591e-01 1.2080436306841887e-01 0.0000000000000000e+00  -9.2290161168916612e-02 2.0407633813825923e-01 0.0000000000000000e+00  2.2481535815836137e-01 -5.0575334178675621e-03 0.0000000000000000e+00  -2.2322059382821824e-01 -1.9689018526808533e-02 0.0000000000000000e+00  -2.2335649525363210e-01 1.5157430303737137e-02 0.0000000000000000e+00  -6.0223028476586352e-02 2.1569853430917690e-01 0.0000000000000000e+00  7.6517921809222400e-02 2.1038295893641343e-01 0.0000000000000000e+00  1.2853205294172604e-01 1.8325709787572636e-01 0.0000000000000000e+00  5.2709228464209799e-02 -2.1753662845846153e-01 0.0000000000000000e+00  -7.7978029630812143e-02 -2.0990168832744302e-01 0.0000000000000000e+00  9.9351442389698771e-02 -2.0052766200096314e-01 0.0000000000000000e+00  2.1124636331870117e-01 -7.3748655577941663e-02 0.0000000000000000e+00  1.5891905083080404e-01 -1.5753805691279654e-01 0.00000000000