<?xml version="1.0"?>
<VTKFile type="UnstructuredGrid"  version="0.1"  >
<UnstructuredGrid>
<Piece  NumberOfPoints="2549" NumberOfCells="4928">
<Points>
<DataArray  type="Float64"  NumberOfComponents="3"  format="ascii">-0.167149858247575 0.1257193437530112 0  -0.1727030723864948 0.0438320127613513 0  -0.2452609748511021 -0.08532933773981494 0  -0.2365362745198227 -0.1946752240881423 0  -0.2290218222154536 -0.3099943945728256 0  -0.1838479966042001 -0.4044844974424592 0  -0.1402886260965091 -0.4950812211387821 0  -0.05060500160148806 -0.5472502824256045 0  -0.06041546227233274 -0.6549077722665393 0  -0.005994888439311286 -0.843226753652577 0  0.1738813043551488 -0.7739067989527264 0  0.2596506481241683 -0.811143424034399 0  0.3764796799704015 -0.7950580456649107 0  0.4818219247215547 -0.7808501732614656 0  0.5875011738133864 -0.7576622950241223 0  0.6993875704276759 -0.6999789223991509 0  0.7489860036414908 -0.710506756668205 0  0.8682840408982307 -0.7588319089705692 0  1.012425539348022 -0.5903890955632228 0  1.109248959691474 -0.5144934475377874 0  1.212371041998245 -0.395110211647242 0  1.304104479448719 -0.2766839496985225 0  1.391187371888581 -0.1428299603781605 0  1.472462204414551 0.0136062030579156 0  1.525228111425586 0.1688537450661648 0  1.581430969268663 0.2895659323354717 0  1.633578415643367 0.4658402784755126 0  1.668610302939215 0.6449709219401447 0  1.689400572958098 0.8315734804718966 0  1.694656157601993 1.023599825080378 0  1.683544721973368 1.218333789912502 0  1.655682514172208 1.419164710380675 0  1.603929974249621 1.609205963336171 0  1.542940028895832 1.790530672679264 0  1.459593492222571 1.984833076670058 0  1.356294134027568 2.161994135775818 0  1.234282790204088 2.32953514167059 0  1.094386525041054 2.482090803219421 0  0.9379020046337686 2.616809911550105 0  0.7670556476952289 2.735325916907875 0  0.580815610312826 2.824804102568987 0  0.3900093316520163 2.88898047930697 0  0.1895392369313912 2.934658604381014 0  -0.01377297499832629 2.947902375548582 0  -0.2167641385733316 2.934113366304192 0  -0.4156918072668441 2.890782255124714 0  -0.6069711437644851 2.821228661202976 0  -0.7872680850965801 2.718998599206379 0  -0.9502638682882145 2.605092436522197 0  -1.104642897508655 2.466508071618489 0  -1.236678981151901 2.300740591027735 0  -1.349599627144034 2.122929750133925 0  -1.442111686911513 1.932482461943104 0  -1.513560647255083 1.731241415741318 0  -1.564748668186917 1.529524716773343 0  -1.591918082728531 1.304338932344141 0  -1.595919793302734 1.133072459864819 0  -1.606276289637126 0.9443903040838695 0  -1.582802803598032 0.7365160408320039 0  -1.545452967494665 0.5462970150636106 0  -1.495167222220353 0.367341353164653 0  -1.42958111285965 0.1881824352864336 0  -1.359386932033624 0.04671631561709244 0  -1.256733853281984 -0.1703016823896472 0  -1.141483751684969 -0.2314575643015452 0  -1.083846203743908 -0.2789376998778161 0  -0.9834395900358608 -0.3850194436100615 0  -0.8842431378969544 -0.4565450463064739 0  -0.7773496167058798 -0.5268634690895024 0  -0.6824253941750854 -0.5502323360662621 0  -0.5545412751985992 -0.6281708652831491 0  -0.5333577748512268 -0.4589536528865841 0  -0.5030731915428543 -0.5571135823726598 0  -0.2567827489459433 -0.767143356296381 0  -0.1489688893956782 -0.7503242545979476 0  -0.006125474472641113 -0.7561271623631771 0  0.08400383119156762 -0.7031964297297192 0  0.2253592993662312 -0.6793308015069198 0  0.2266162629592801 -0.5286004345729227 0  0.5255863960365412 -0.584781744664628 0  0.3515747146302006 -0.1762407719862889 0  0.07936260559221631 -0.03417565810175408 0  0.2827991130319718 0.004697246582259701 0  0.2006814997744071 0.1115375202862314 0  0.2606035754381679 0.2097209201873814 0  0.1855196582221175 0.3071369528648049 0  0.2649928424307015 0.4120850333140308 0  0.034457973700047 0.4440771023038056 0  0.3236066599471228 0.5882318331137409 0  0.5037989031796137 1.019322498193032 0  0.1671321295959538 0.9378907214828008 0  0.1636823702083403 1.089584973509881 0  0.005558789184801238 1.10101074714308 0  -0.09402744067970081 1.146097998343834 0  -0.2480530805130392 1.130016275951933 0  -0.3606047366857232 1.144451326851112 0  -0.6285879808810648 0.9185758051177262 0  -0.6759883319975549 0.7751315736493309 0  -0.6934943934667364 0.957813239408055 0  -0.8316672181635779 0.8636929187568784 0  -0.9322710731336085 0.8353371628888554 0  -1.047353904319727 0.7550932813434772 0  -1.153489821465392 0.6761450864984021 0  -1.261296764088894 0.5614586435034041 0  -1.325267325750323 0.5167966360195703 0  -1.456404973988068 0.4463623592263178 0  -1.57202011240706 0.1964963281430319 0  -1.65109489734647 0.04186279854813424 0  -1.727010825640766 -0.1585223199428499 0  -1.787003657702647 -0.3578472571723798 0  -1.832958409772018 -0.5692756811043551 0  -1.862130349971969 -0.7936953553425272 0  -1.865618268781001 -0.9898507595543536 0  -1.878127966977864 -1.208370313720485 0  -1.854927442633281 -1.490718515410489 0  -1.805220447793142 -1.724978174682331 0  -1.734088170925019 -1.968939273086775 0  -1.639095231697672 -2.199604463281212 0  -1.520844138321853 -2.419267085714335 0  -1.380475059076154 -2.631171331347562 0  -1.210218149927165 -2.808788993905988 0  -1.033386101956191 -2.957469932408073 0  -0.8329893944351884 -3.102510833923844 0  -0.6171219899911685 -3.208116298037504 0  -0.3897338479549544 -3.283893909165615 0  -0.1547867808758172 -3.324732092063147 0  0.08326732502031563 -3.33150994551214 0  0.3203192444667432 -3.302580327723119 0  0.5516804519403203 -3.239720641770184 0  0.7725166982532499 -3.143832706224365 0  0.9803222824597377 -3.019107538242598 0  1.17114782488736 -2.866456822409832 0  1.34243080539955 -2.690703458632913 0  1.492048901177538 -2.49373065880684 0  1.618884031527155 -2.285095643526683 0  1.720462718524805 -2.048296507420299 0  1.792101616419598 -1.843947634856967 0  1.861226563920531 -1.621823308882732 0  1.896093947366993 -1.379101081512471 0  1.911293798117526 -1.148195401477085 0  1.907247446182225 -0.9212870186609556 0  1.885118266007446 -0.701980989295823 0  1.846593936787927 -0.4918722941769 0  1.789421572527268 -0.2883119539105601 0  1.72732035032515 -0.1411705025977589 0  1.666446718290834 0.03966085785003892 0  1.577255333584845 0.2175159262953843 0  1.481480238624742 0.3716054904257888 0  1.381039704223244 0.5079716897531152 0  1.268596732404882 0.6447940878053131 0  1.163447294719531 0.7339984852289728 0  1.008227212498616 0.9222340853550507 0  0.8785861651547865 0.8818260051353783 0  0.8228463405980562 0.8773865821248565 0  0.7030020408988912 0.9452075162693406 0  0.5894781511719775 0.9774268240178698 0  0.4758370825543621 1.000867427545062 0  0.3501019054281369 1.026121960907807 0  0.2569275799015713 0.9954016825184016 0  0.06467140318631581 1.076926356347564 0  0.003771095931679902 0.8885065235185252 0  0.007981106025493734 0.7852672553821116 0  -0.09175485000671468 0.7397349051449269 0  -0.1448332698465742 0.6542386474951692 0  -0.1998898863346659 0.5639279591067887 0  -0.2209135944057601 0.4527355746014201 0  -0.2315340932719945 0.3418996129774553 0  -0.1860762008035635 0.2181445867727794 0  -0.01579871469746487 1.809276929509913 0  0.5775417443665319 -0.5257681974838498 0  -0.4814045867482247 -0.1061914995070515 0  -0.08102468464220282 -2.091059207764295 0  0.4474945161805028 0.4457538900658978 0  0.02979216451455402 -0.2528308865480869 0  -0.3529666312806463 0.2648094390227472 0  0.1232093178823179 0.1685304210166202 0  0.06976581584789776 0.4137876880640972 0  -0.2894929363651796 0.4525920211700944 0  0.1675692655854848 0.1228425254415936 0  0.1076764547103131 -0.1457102095614279 0  -0.1746925763953127 -0.1735844470572018 0  0.5084467689084229 -1.649028229395782 0  -0.1976458127219401 -0.7934744713092712 0  0.3735618775390923 1.37715864800032 0  -0.3840130012906764 0.2142277628207151 0  -0.2621521340791012 0.03357782552034179 0  -0.4773849095760532 -1.211994911755681 0  -0.3842276796228348 1.158246936553064 0  0.1155254092273642 0.6132943563629867 0  0.3065942325407066 0.270025084890579 0  0.2302872668871425 -0.1821164760098317 0  -0.1463997715294896 -0.3240987207301074 0  -0.1390910798993449 0.3470488524962273 0  0.1391601918565014 0.318220589024975 0  -0.08023522627496529 -0.6584152440394081 0  -0.1310965249303881 0.06186611412078025 0  -0.07758483887187695 0.100068794072329 0  0.4435177203143528 -0.04851863639162929 0  -0.06677338107772046 0.1048736249500276 0  -0.01002279013032736 -0.1126908112287313 0  -0.262292890222195 -0.05362224557332647 0  0.1747530600535478 -0.4769761631967599 0  -0.01666586118922586 0.213589982943495 0  -0.1901082693374616 0.04716868012465258 0  0.08169176806832446 0.01893546711472616 0  0.05141903592235164 -0.07690663516284824 0  0.1252785615485394 0.1521463815348595 0  0.01738487065771355 0.2500079045269976 0  0.0006069940984296807 0.3940280003991682 0  -0.06947482160271545 0.5764521335895305 0  0.1339060204095917 0.4060343786399654 0  0.1560553504113047 -0.03361210325160369 0  -0.008164269853891515 -0.2333604592784772 0  -0.08826858724720027 -1.39006223706704 0  -0.1485041534517467 -1.011524409161529 0  -0.3385250058956326 -1.745459523633697 0  0.03322105411190446 -0.3717040389592393 0  -0.1471856672319072 -0.6202889179631657 0  -0.4789477830200521 0.665964668157436 0  -0.3542444014776209 -0.348765823828601 0  0.2273204917936653 -0.9163719122773311 0  -0.1776949956307007 -0.504386237792811 0  0.171518177826099 -1.206556280922651 0  -0.2646897291884063 -0.01886257153685034 0  0.05661829299940302 0.1192127305570987 0  0.1458920162513411 0.6306738263726954 0  0.4495906726334753 0.6602324514116855 0  0.3669033619424054 -0.4991350739404399 0  0.09127838326101001 -0.4366521846827801 0  -1.104459039221642 -0.4979826909142285 0  -0.9323962755748536 0.1495669979692632 0  -0.7735244099121712 0.06468324058378871 0  -0.9203475353987829 0.6248903229954947 0  1.130586246995485 -0.380861969602493 0  1.160978425981477 -1.128869777365181 0  1.020424042224787 0.9638143822934948 0  0.987915425808
[...]
<PointData  Vectors="f_44"> 
<DataArray  type="Float64"  Name="f_44"  NumberOfComponents="3" format="ascii">2.4066253998491133e-01 4.9755278919060113e-02 0.0000000000000000e+00  1.4062038945970926e-01 -1.7657118709580327e-01 0.0000000000000000e+00  1.4685090210093429e-01 -1.0184348662971709e-01 0.0000000000000000e+00  2.5338851268171370e-01 4.9898562750972139e-02 0.0000000000000000e+00  1.6663349723732632e-01 9.0168694396982815e-02 0.0000000000000000e+00  1.7456472971466006e-01 1.8375877940191138e-01 0.0000000000000000e+00  -2.8723333590678378e-02 2.2352161232257614e-01 0.0000000000000000e+00  1.8222811275901706e-02 3.2545668978929236e-02 0.0000000000000000e+00  2.9763976848950213e-01 9.6312407164132696e-02 0.0000000000000000e+00  -2.3478605913198219e-03 -2.5843489537506946e-02 0.0000000000000000e+00  -2.1353326862190647e-01 -8.0004008747348435e-02 0.0000000000000000e+00  -1.7100276377267973e-01 1.0515718373715842e-01 0.0000000000000000e+00  -2.2655646973314489e-01 -1.0633716431894308e-01 0.0000000000000000e+00  -2.1786292153372394e-01 -4.6886591938656318e-02 0.0000000000000000e+00  -1.5830854167127867e-01 -1.6508583552051057e-01 0.0000000000000000e+00  -1.3669914710193434e-01 -1.3358971395573502e-01 0.0000000000000000e+00  -2.3379932176894480e-01 2.5620884359134943e-01 0.0000000000000000e+00  -1.7524733203756013e-02 -8.7438810879824885e-02 0.0000000000000000e+00  1.5145905680899015e-02 -2.6404852099723286e-01 0.0000000000000000e+00  -2.6676305042107062e-02 -2.0841259156535738e-01 0.0000000000000000e+00  5.5738097880767987e-02 -2.2388921377746002e-01 0.0000000000000000e+00  6.9628203456240573e-02 -2.0964227271556163e-01 0.0000000000000000e+00  1.0697431079584047e-01 -1.9994353993277053e-01 0.0000000000000000e+00  1.6107062757653745e-01 -1.5238625364216885e-01 0.0000000000000000e+00  1.6301656469733491e-01 -1.5148877232644872e-01 0.0000000000000000e+00  1.6090759942755573e-01 -1.5302789538199074e-01 0.0000000000000000e+00  2.0262332985130188e-01 -9.9342396943894615e-02 0.0000000000000000e+00  2.1282763954678657e-01 -6.7370527630743596e-02 0.0000000000000000e+00  2.2202643287453633e-01 -3.1016146335899455e-02 0.0000000000000000e+00  2.2331000289264932e-01 7.5096232252208541e-03 0.0000000000000000e+00  2.2099848119275770e-01 4.0903930055153859e-02 0.0000000000000000e+00  2.0460354039102341e-01 8.8291257022688543e-02 0.0000000000000000e+00  1.8471573264287566e-01 1.2765765481852887e-01 0.0000000000000000e+00  1.6930974515731897e-01 1.4651542124240727e-01 0.0000000000000000e+00  1.3376795475431477e-01 1.7920424542392990e-01 0.0000000000000000e+00  8.9144500292659745e-02 2.0595082095919745e-01 0.0000000000000000e+00  4.5748137972277544e-02 2.1932069501598375e-01 0.0000000000000000e+00  -8.2652752247830176e-03 2.2351833415165828e-01 0.0000000000000000e+00  -5.4371092056766865e-02 2.1828883393088352e-01 0.0000000000000000e+00  -1.0903912013776712e-01 1.9500135016450090e-01 0.0000000000000000e+00  -1.6339333576427564e-01 1.5386410984295262e-01 0.0000000000000000e+00  -1.9063000175203099e-01 1.1918701325791643e-01 0.0000000000000000e+00  -2.1337249905846095e-01 6.5115627287552977e-02 0.0000000000000000e+00  -2.2551769855190071e-01 -1.6354356224003081e-03 0.0000000000000000e+00  -2.1436731338230791e-01 -6.2231276030263211e-02 0.0000000000000000e+00  -1.9171125562251493e-01 -1.1918344026210582e-01 0.0000000000000000e+00  -1.4298074569217814e-01 -1.7091150858348764e-01 0.0000000000000000e+00  -9.4272539364346944e-02 -2.0424396364177233e-01 0.0000000000000000e+00  -5.5495949387506245e-02 -2.1754448624555991e-01 0.0000000000000000e+00  1.4583675584114822e-02 -2.2283885966106254e-01 0.0000000000000000e+00  7.6042993689850624e-02 -2.1177974616605028e-01 0.0000000000000000e+00  1.1642126421788392e-01 -1.9106944626986330e-01 0.0000000000000000e+00  1.5831388726714554e-01 -1.5832530547802443e-01 0.0000000000000000e+00  1.8579255522561935e-01 -1.2577291129014759e-01 0.0000000000000000e+00  2.0855815330360894e-01 -8.1801850014895205e-02 0.0000000000000000e+00  2.2229046175143849e-01 -2.3916086511332604e-02 0.0000000000000000e+00  2.2343003145610946e-01 -2.3108566055389950e-02 0.0000000000000000e+00  2.2078063370777137e-01 7.9750475269400028e-03 0.0000000000000000e+00  2.1399211641926374e-01 7.3788940237131714e-02 0.0000000000000000e+00  1.9860271550334160e-01 9.9644197345636093e-02 0.0000000000000000e+00  1.8567136619548752e-01 1.2986264192664482e-01 0.0000000000000000e+00  1.4355218171374914e-01 1.6367106494250477e-01 0.0000000000000000e+00  1.6636987115361870e-01 1.7773077509409169e-01 0.0000000000000000e+00  4.6383542052941464e-02 1.7303022850273467e-01 0.0000000000000000e+00  -1.6266332431796859e-01 1.9987049565207110e-01 0.0000000000000000e+00  2.7225326824452854e-02 2.2850395825325870e-01 0.0000000000000000e+00  -2.7947111312313016e-02 2.1358240100552803e-01 0.0000000000000000e+00  -7.7745385560933869e-02 2.2619960993593638e-01 0.0000000000000000e+00  -1.3729263558643875e-01 1.3540506996626461e-01 0.0000000000000000e+00  -2.0604090935486435e-01 1.9635083477902107e-01 0.0000000000000000e+00  7.5389604452076028e-02 6.2063323476643416e-02 0.0000000000000000e+00  2.7786421189143734e-01 -4.7346479448473575e-02 0.0000000000000000e+00  3.0030349071240154e-02 2.5229035925770121e-01 0.0000000000000000e+00  -9.7360658867045924e-02 1.3265959949281292e-01 0.0000000000000000e+00  -2.6995341803720529e-01 -4.0135990116029245e-02 0.0000000000000000e+00  -1.2998360731231873e-01 -6.1255517444519077e-02 0.0000000000000000e+00  -2.5648792587319474e-01 -1.6645910231587485e-01 0.0000000000000000e+00  1.0988246449779170e-01 -2.7076080030339018e-02 0.0000000000000000e+00  -1.1672834673251510e-01 4.3320946513129843e-02 0.0000000000000000e+00  1.9810563250126220e-03 1.2181616930553640e-01 0.0000000000000000e+00  1.0988501052160562e-01 2.1030983423285224e-01 0.0000000000000000e+00  -2.5190305097665239e-01 4.4739278926692293e-02 0.0000000000000000e+00  -1.0448463635138533e-01 3.4582008336233344e-02 0.0000000000000000e+00  1.3149645456363152e-01 2.3849766979432054e-02 0.0000000000000000e+00  6.0207567124251682e-02 1.8729817209666839e-02 0.0000000000000000e+00  1.0166350828397711e-01 -4.0318307252602357e-03 0.0000000000000000e+00  -1.0808568190652205e-01 -4.1521420513192075e-02 0.0000000000000000e+00  -2.6167145418392829e-01 -5.0258445755860276e-02 0.0000000000000000e+00  1.0948906698587184e-01 -2.0129635507621171e-01 0.0000000000000000e+00  2.6379921602189371e-03 -1.3209750833657866e-01 0.0000000000000000e+00  -1.2103452359237792e-01 -5.8426741088963632e-02 0.0000000000000000e+00  9.6702458917869744e-02 1.5804575989375728e-02 0.0000000000000000e+00  -2.8514828278410026e-01 1.1968621292616614e-01 0.0000000000000000e+00  -1.4821542116634298e-01 3.4517315710996775e-02 0.0000000000000000e+00  -2.6181265676315191e-01 1.5017071461356305e-02 0.0000000000000000e+00  -1.0434613508409994e-01 -1.3795851987933161e-01 0.0000000000000000e+00  3.7299526386054493e-02 -2.4594053874531452e-01 0.0000000000000000e+00  2.6969045543100933e-01 1.9578684869098022e-02 0.0000000000000000e+00  8.8001687211527596e-02 -7.0564763503775954e-02 0.0000000000000000e+00  -1.8788005765189006e-01 -2.0984337301539910e-01 0.0000000000000000e+00  -1.2888696031344388e-01 -1.4495151422173225e-01 0.0000000000000000e+00  -6.8336916408411566e-02 -2.2822511525889244e-01 0.0000000000000000e+00  -2.0562601899674338e-02 -2.1578512515368775e-01 0.0000000000000000e+00  1.2435348409690256e-02 -2.2341891860781021e-01 0.0000000000000000e+00  -1.8111243480986655e-01 -1.9684816193069241e-01 0.0000000000000000e+00  5.3960464845488131e-02 -1.7217956910962015e-01 0.0000000000000000e+00  1.6559632667912055e-01 -1.7671915376796396e-01 0.0000000000000000e+00  1.3931390832869819e-01 -1.6774658568078171e-01 0.0000000000000000e+00  1.8204610189524478e-01 -1.3463939415047652e-01 0.0000000000000000e+00  1.9427802104302580e-01 -1.0866554535273162e-01 0.0000000000000000e+00  2.1094257607155062e-01 -7.8725247216593394e-02 0.0000000000000000e+00  2.2103384549976657e-01 -2.5846781564969345e-02 0.0000000000000000e+00  2.2315752384650842e-01 -1.9543515531267239e-02 0.0000000000000000e+00  2.2285429041344312e-01 -6.4183989574164834e-04 0.0000000000000000e+00  2.1423787332669106e-01 6.7731774103791081e-02 0.0000000000000000e+00  1.9695432449406181e-01 1.0699898362811523e-01 0.0000000000000000e+00  1.7638008319902923e-01 1.3775813722168598e-01 0.0000000000000000e+00  1.3979857897175843e-01 1.7449168279008639e-01 0.0000000000000000e+00  1.1007360690648971e-01 1.9664265653864171e-01 0.0000000000000000e+00  5.0758671794374988e-02 2.1673718088101809e-01 0.0000000000000000e+00  -2.1423142480923300e-02 2.2390453991132545e-01 0.0000000000000000e+00  -5.0528268152471065e-02 2.1909372342592043e-01 0.0000000000000000e+00  -1.0172677314936704e-01 1.9789270394829953e-01 0.0000000000000000e+00  -1.6260580691447729e-01 1.5682304191583943e-01 0.0000000000000000e+00  -1.9625710462334567e-01 1.0687712566850899e-01 0.0000000000000000e+00  -2.2046151613380291e-01 4.4607336392191783e-02 0.0000000000000000e+00  -2.2309711889955508e-01 -2.0734655215130897e-02 0.0000000000000000e+00  -2.0800699972302958e-01 -8.4927357958448149e-02 0.0000000000000000e+00  -1.7455079429560424e-01 -1.4045918448722655e-01 0.0000000000000000e+00  -1.3029157799160618e-01 -1.8294343467247051e-01 0.0000000000000000e+00  -7.7636781163495455e-02 -2.1000658361709426e-01 0.0000000000000000e+00  -2.1714274054152157e-02 -2.2356379842803678e-01 0.0000000000000000e+00  3.4590977172938422e-02 -2.2079720207250844e-01 0.0000000000000000e+00  8.0816036039750766e-02 -2.1003645666298487e-01 0.0000000000000000e+00  1.3066337046177809e-01 -1.8088905478649081e-01 0.0000000000000000e+00  1.6937198682871946e-01 -1.4676711864932276e-01 0.0000000000000000e+00  1.7679124409853997e-01 -1.3919233357044422e-01 0.0000000000000000e+00  1.9973254526660722e-01 -9.6414551303486321e-02 0.0000000000000000e+00  2.2156041079106958e-01 -4.2139342333204127e-02 0.0000000000000000e+00  2.2280229874240345e-01 -1.2280875810701589e-02 0.0000000000000000e+00  2.2261422367695891e-01 2.6827428071218382e-02 0.0000000000000000e+00  2.1450225491665231e-01 6.2386052788104704e-02 0.0000000000000000e+00  2.0403845040491972e-01 9.5076756090827885e-02 0.0000000000000000e+00  1.6929958481187293e-01 1.4441653281429806e-01 0.0000000000000000e+00  1.6920398567954703e-01 1.4592901808378836e-01 0.0000000000000000e+00  1.6259002466483966e-01 1.5093622752626748e-01 0.0000000000000000e+00  1.1427723967390571e-01 1.9533289950986338e-01 0.0000000000000000e+00  7.9436578622164009e-02 2.0647425378379616e-01 0.0000000000000000e+00  6.5574813577723309e-02 2.2044317982644190e-01 0.0000000000000000e+00  -1.2292514139692928e-02 2.1079125198051676e-01 0.0000000000000000e+00  2.9539377127710532e-02 2.6092328615413196e-01 0.0000000000000000e+00  -1.9526112566938054e-02 9.6682749842162560e-02 0.0000000000000000e+00  -2.6627835266626887e-01 -2.0754134174980077e-01 0.0000000000000000e+00  -1.2965218934381520e-01 1.5651418297665023e-01 0.0000000000000000e+00  -1.4161679987908846e-01 1.7609726954174462e-01 0.0000000000000000e+00  -2.0880186362332862e-01 7.7638308892917174e-02 0.0000000000000000e+00  -2.1024924376110971e-01 1.3153959527757753e-01 0.0000000000000000e+00  -1.8632260450835916e-01 -7.2158289791303343e-02 0.0000000000000000e+00  -2.1355699369034359e-01 1.0063783464753064e-01 0.0000000000000000e+00  -4.3892870092103152e-03 3.2828287160157323e-02 0.0000000000000000e+00  2.9536711211540440e-01 -1.2512293777150271e-01 0.0000000000000000e+00  -3.4496825839426459e-03 -3.0906506962411762e-02 0.0000000000000000e+00  -7.4286955525795562e-02 -2.1739847781209251e-01 0.0000000000000000e+00  1.3302955669894145e-01 -2.1124783192792429e-01 0.0000000000000000e+00  1.4190231580285348e-01 -1.3699106606702249e-01 0.0000000000000000e+00  2.3832744107460788e-01 -7.4743019934314620e-02 0.0000000000000000e+00  1.8801197630637440e-01 6.4338075152775578e-02 0.0000000000000000e+00  1.7267725577996060e-01 1.5241639044106026e-01 0.0000000000000000e+00  -2.1572601070836209e-01 -6.0339187578092333e-02 0.0000000000000000e+00  6.3633915979269637e-02 2.1768309072066225e-01 0.0000000000000000e+00  -5.3554607141193138e-02 -2.1902292020232864e-01 0.0000000000000000e+00  -1.9146725035000961e-01 1.1673429522605597e-01 0.0000000000000000e+00  -6.8913989375600920e-02 -2.1829742782979070e-01 0.0000000000000000e+00  5.7595229507323174e-02 2.1998671818201182e-01 0.0000000000000000e+00  -1.1850017347424881e-01 1.9668571310706975e-01 0.0000000000000000e+00  1.4402853459032630e-01 1.7242991957971945e-01 0.0000000000000000e+00  -1.4456670326136593e-02 -2.2520830920308677e-01 0.0000000000000000e+00  -2.2311402230605432e-01 -3.3881487832348949e-02 0.0000000000000000e+00  3.8564308721962558e-02 2.2004989777899542e-01 0.0000000000000000e+00  -2.0469312842897691e-01 -9.5564944030035570e-02 0.0000000000000000e+00  -2.1502570585069952e-01 -7.2992145800566607e-02 0.0000000000000000e+00  -7.0492576116414282e-02 -2.1376453969015893e-01 0.0000000000000000e+00  2.0824181834218650e-01 -9.9458038659249834e-02 0.0000000000000000e+00  -9.5981926453538161e-02 2.0357980560798664e-01 0.0000000000000000e+00  1.9624190556217222e-01 -1.1168450896555142e-01 0.0000000000000000e+00  1.9336842780180705e-01 -1.1268298186679794e-01 0.0000000000000000e+00  1.9957977527810858e-01 1.0421110520143780e-01 0.0000000000000000e+00  1.2430681523380900e-01 -1.8748695516134953e-01 0.0000000000000000e+00  2.1472695235163819e-01 7.2599671720058018e-02 0.0000000000000000e+00  -2.1418034860467478e-01 -7.1721775111198566e-02 0.0000000000000000e+00  -1.7186515111790332e-01 1.4770634682751671e-01 0.0000000000000000e+00  -2.2752472057710613e-01 -2.3180196041355447e-02 0.0000000000000000e+00  2.6623854132147559e-02 -2.2357821363003094e-01 0.0000000000000000e+00  7.4874112707825735e-02 2.1138130480162226e-01 0.0000000000000000e+00  1.4526982393925622e-01 -1.7684925407928440e-01 0.0000000000000000e+00  2.0557084927280114e-01 -9.1478955938677678e-02 0.0000000000000000e+00  2.1276130072007501e-01 -7.0588337690105460e-02 0.0000000000000000e+00  -1.8988180920941605e-01 1.2363907964247865e-01 0.0000000000000000e+00  1.6259547942395643e-02 -2.2783371224729046e-01 0.0000000000000000e+00  -2.1725804122751000e-01 -7.2653293383381112e-02 0.0000000000000000e+00  -2.8368522857786765e-02 -2.2651215408423866e-01 0.0000000000000000e+00  -6.4441330224957405e-02 2.2057510990037033e-01 0.0000000000000000e+00  6.7889717620451207e-02 -2.1474083971432256e-01 0.0000000000000000e+00  1.9342393430126942e-01 -1.1513053984968857e-01 0.0000000000000000e+00  2.2161072975283894e-01 -6.9394012503993172e-02 0.0000000000000000e+00  1.2188576450663728e-01 -1.9368033966061288e-01 0.0000000000000000e+00  1.2312385689508516e-01 1.8699547698357477e-01 0.0000000000000000e+00  -5.6998741341269261e-02 2.1992092809632921e-01 0.0000000000000000e+00  -3.7391980282098523e-02 2.2433453438394813e-01 0.0000000000000000e+00  -1.4381979856093352e-01 1.7964874631617797e-01 0.0000000000000000e+00  2.1548639589589202e-01 -9.7843141630869740e-02 0.0000000000000000e+00  -2.6491082684179285e-02 2.2755319262434759e-01 0.0000000000000000e+00  -1.9413800383885815e-01 -1.3205441721481787e-01 0.0000000000000000e+00  4.8224716781526825e-03 2.2643170328936618e-01 0.0000000000000000e+00  2.1852296251221703e-01 6.1536407235155306e-02 0.0000000000000000e+00  -1.6225635740739416e-02 2.2410540978978896e-01 0.0000000000000000e+00  -6.2808435156058259e-02 -2.1765172300953439e-01 0.0000000000000000e+00  1.3445875106639318e-01 -1.8201820586631259e-01 0.0000000000000000e+00  -1.0339123172320792e-01 -2.0438551341272784e-01 0.0000000000000000e+00  -1.2026152846135611e-01 1.9560428883662437e-01 0.0000000000000000e+00  2.1961451788079481e-01 -7.8921471129693985e-02 0.0000000000000000e+00  -1.5116787438809176e-01 -1.6532061903097492e-01 0.0000000000000000e+00  -2.1570816933192832e-01 -7.2664472673110672e-02 0.0000000000000000e+00  -2.2638256946938701e-01 -2.9421756340983086e-02 0.0000000000000000e+00  2.0828677099917839e-01 -1.1150007207915305e-01 0.0000000000000000e+00  -1.0408182232676129e-01 -1.9935020526781300e-01 0.0000000000000000e+00  -2.2113618282500991e-01 -4.0896221652611052e-02 0.0000000000000000e+00  -2.1457289914084171e-01 6.7919170742584092e-02 0.0000000000000000e+00  -5.7124304920626277e-02 2.1805096663196050e-01 0.0000000000000000e+00  1.7565335816762659e-01 -1.3972779011513811e-01 0.0000000000000000e+00  4.2795641662527598e-02 -2.2032800371574432e-01 0.0000000000000000e+00  -2.8344287580625828e-02 2.2281941308971090e-01 0.0000000000000000e+00  1.8217769393742589e-01 1.3197855630532396e-01 0.0000000000000000e+00  1.1464752467784463e-01 1.9368927568821109e-01 0.0000000000000000e+00  2.2467119583306258e-01 -9.8509840542856802e-03 0.0000000000000000e+00  2.2281260789610707e-01 -3.3335241610901969e-02 0.0000000000000000e+00  6.7166925602955729e-02 -2.1538861411736165e-01 0.0000000000000000e+00  -2.2432251967325573e-01 -4.7442471633959123e-03 0.0000000000000000e+00  -1.3091095895629767e-01 1.8223505457236047e-01 0.0000000000000000e+00  -1.6345446180411879e-01 -1.5363244438521587e-01 0.0000000000000000e+00  -2.2131723161625860e-01 3.6210260711512322e-02 0.0000000000000000e+00  2.1791139518026129e-01 -6.1981558091878865e-02 0.0000000000000000e+00  1.9830424808334235e-01 -1.0947318117654005e-01 0.0000000000000000e+00  8.8789742483093275e-03 2.3170662565461622e-01 0.0000000000000000e+00  -1.9262573380594664e-01 1.8398266727727827e-01 0.0000000000000000e+00  -1.3132015498337851e-01 -1.8411934000366401e-01 0.0000000000000000e+00  -1.5260461667265127e-01 1.6671066131092077e-01 0.0000000000000000e+00  -2.0948161795013209e-01 8.7674050995944705e-02 0.0000000000000000e+00  1.5409364554008140e-01 -1.6563979949772709e-01 0.0000000000000000e+00  9.2510368414096059e-02 -2.0358963323443163e-01 0.0000000000000000e+00  5.6023914874609289e-02 -2.1649317470601512e-01 0.0000000000000000e+00  -4.2865201217999728e-02 -2.1974213471873885e-01 0.0000000000000000e+00  -9.1195983225478436e-02 2.0454793512242239e-01 0.0000000000000000e+00  -1.9068944930857121e-01 -1.2059965156983499e-01 0.0000000000000000e+00  1.8050235599188375e-01 1.4198098269767870e-01 0.0000000000000000e+00  -2.2768362493531938e-01 -5.6422329120115727e-03 0.0000000000000000e+00  1.5518743487743564e-01 1.6245998599933981e-01 0.0000000000000000e+00  1.9053201077096069e-01 1.4404239981254402e-01 0.0000000000000000e+00  2.2459589621852705e-01 4.0554969210474752e-02 0.0000000000000000e+00  -1.6963866153676394e-01 1.4920845293691892e-01 0.0000000000000000e+00  -2.1739372031188531e-01 -5.5025460726282553e-02 0.0000000000000000e+00  9.3345516246831572e-02 -2.0612648647726839e-01 0.0000000000000000e+00  -1.5861658823981004e-01 -1.5907189172335706e-01 0.0000000000000000e+00  -1.1074842641172490e-01 -1.9510019929973918e-01 0.0000000000000000e+00  7.0925921743160550e-02 -2.1328329094879547e-01 0.0000000000000000e+00  2.2492981762292089e-01 -5.0235535787785127e-02 0.0000000000000000e+00  8.9881150171168836e-02 -2.0589564247342182e-01 0.0000000000000000e+00  -1.3277893813846930e-01 -1.8099573411440342e-01 0.0000000000000000e+00  -1.2071873188130580e-01 1.8916883147320326e-01 0.0000000000000000e+00  1.0254518360772991e-01 2.0004816077076085e-01 0.0000000000000000e+00  -2.8691193861292787e-02 -2.2284460491178387e-01 0.0000000000000000e+00  -1.8135273645163508e-01 -1.4746955970123204e-01 0.0000000000000000e+00  -2.0999462107717079e-01 7.8066360704279830e-02 0.0000000000000000e+00  7.2019855348168058e-02 2.1261517942662381e-01 0.0000000000000000e+00  2.1924539219427339e-01 4.8340595857172312e-02 0.0000000000000000e+00  1.6449805173538884e-01 -1.5391258680732378e-01 0.0000000000000000e+00  2.0360642508835280e-01 -9.4769204071400950e-02 0.0000000000000000e+00  2.0852316971038239e-02 -2.2348492331612307e-01 0.0000000000000000e+00  2.0897810740933817e-01 8.4908828882309051e-02 0.0000000000000000e+00  1.3689095931934542e-02 2.2403493325420598e-01 0.0000000000000000e+00  1.362512217696