<?xml version="1.0"?>
<VTKFile type="UnstructuredGrid"  version="0.1"  >
<UnstructuredGrid>
<Piece  NumberOfPoints="4153" NumberOfCells="8064">
<Points>
<DataArray  type="Float64"  NumberOfComponents="3"  format="ascii">-0.4165347785222364 -0.613401648226971 0  -0.04099304824422027 -0.7722407398746218 0  -0.09351244346023609 -0.767153817587131 0  -0.1450379289441212 -0.7568000196475065 0  -0.1951326841404628 -0.7417954016291269 0  -0.2438373838255105 -0.7236114516303235 0  -0.2905435463802378 -0.7002438557519499 0  -0.3348640832418084 -0.6734995366494188 0  -0.3768087057166181 -0.6443713556135343 0  0.01189058603598477 -0.7716934241257691 0  -0.4541235269658548 -0.5825679485661336 0  -0.4902823766968641 -0.5519065037295715 0  -0.5250647472872214 -0.5216695971066138 0  -0.5586812209912349 -0.49228480165377 0  -0.5915256567856094 -0.4643516274815465 0  -0.6238035137200834 -0.4381320469047573 0  -0.6556651658827182 -0.4145044435285733 0  0.6466955592935704 -0.4145090241506751 0  0.06445768824954931 -0.7655738279935532 0  0.1160594100188383 -0.7541228737499055 0  0.1661386275426046 -0.7378519142320641 0  0.2142657513404594 -0.7173791997841928 0  0.2602593469630198 -0.693801322701697 0  0.3041077735587658 -0.6678477430708101 0  0.3458936256180964 -0.6402472276869854 0  0.3857309335340235 -0.6116158600503823 0  0.4239313844403835 -0.5826818912593261 0  0.4607210063443541 -0.5538633167873374 0  0.4963360245331541 -0.5255290917229124 0  0.5309472708240284 -0.4980298995713341 0  0.5648033862231363 -0.4716040950557671 0  0.5980363568814769 -0.4467179452336343 0  0.6308757418266603 -0.4242223795380888 0  0.6142718727830243 -0.4354001793111896 0  -0.6394958130393239 -0.4261346552358352 0  -0.5751743594540566 -0.4782234309999394 0  -0.5078195966035699 -0.5367104134684134 0  -0.4354821002800561 -0.5979256864003961 0  -0.3561339137013718 -0.6590660458815746 0  -0.2674802454995649 -0.7124290573232606 0  -0.1702835653275308 -0.7499327798945455 0  -0.06734093501393207 -0.7703863915769058 0  0.5814432303889747 -0.4591342536281447 0  0.1413184051680378 -0.7465420106961951 0  0.2375326561688146 -0.705937804266121 0  0.3252419466040861 -0.654213952548011 0  0.4050258054130389 -0.5971683780177921 0  0.4786546501983402 -0.539632315271713 0  0.5479795353387531 -0.4847513635002508 0  0.03825568018500249 -0.7693225222464032 0  -0.6710512328722459 -0.4042237593191365 0  0.5137446643744001 -0.5116538012641479 0  0.442485703482461 -0.5682432835305702 0  0.3660419606152912 -0.6259985964269199 0  0.2824490113829434 -0.681083833929931 0  0.1904755346799469 -0.7280894225580855 0  0.0904170283711057 -0.7604876753532736 0  -0.01455208358912439 -0.7726778131791677 0  -0.1194331422271492 -0.7626180542271649 0  -0.219553793292917 -0.7331372909770525 0  -0.3129716228330164 -0.6871337691993371 0  -0.3971493785910579 -0.629307834398496 0  -0.4723924835512781 -0.5672274440338622 0  -0.5420192387654511 -0.50685457387291 0  -0.6076583402432415 -0.4511878491214101 0  0.7766154629012088 -0.2272903576533481 0  0.697564542596316 -0.3846744727550025 0  0.7413572430552453 -0.3422640518237636 0  0.7692333954795871 -0.28860834786875 0  0.6726422797992267 -0.4001220794286074 0  0.7205580916057128 -0.3648044037303279 0  0.7535398826920698 -0.3140645108491696 0  0.7718324838310978 -0.2575486536731529 0  0.6597158444154962 -0.4079299862797929 0  0.6850577129656196 -0.3916860036932824 0  0.7091766698950938 -0.374913392224858 0  0.7306170501074836 -0.3527036088608314 0  0.7496029796087015 -0.3292976094013341 0  0.7605393351263844 -0.301137395892741 0  0.7695976887406826 -0.2728303106768034 0  0.7735873672523597 -0.2422798578094874 0  0.7760712646763163 -0.2075049663017139 0  0.7803050580059998 0.234335394359604 0  0.7806081515234191 0.1950863049188685 0  0.7822723427338261 0.1554922355270436 0  0.7843859033504529 0.1154471459794722 0  0.7866441350734904 0.07487481134201075 0  0.7874932000009801 0.03388125488535482 0  0.7870325735279275 -0.00721368153836557 0  0.7852627047392156 -0.04818559845609714 0  0.7821744431677994 -0.08870560025175905 0  0.7792963504030711 -0.128714563631782 0  0.776928631162389 -0.1682715043711214 0  0.7814657550526649 0.2540596854360414 0  0.7802329554778001 0.2147415008830246 0  0.7833125010465614 0.1355295327172716 0  0.7872313336200799 0.05440597732189052 0  0.7863149405394207 -0.0277298702103711 0  0.7807197209868749 -0.1087730561039469 0  0.7762675290209439 -0.1879203087551275 0  0.781356658561285 0.1753419675581009 0  0.7855962147992885 0.0952492902986064 0  0.7874217696225927 0.01333260604749654 0  0.7837713179811605 -0.06853321589173965 0  0.7780240295257674 -0.1485469457922853 0  0.6582340161583807 0.4439939835219349 0  0.7758043450816653 0.3156051219125604 0  0.7496512299963529 0.3701356058923812 0  0.7075637685115674 0.4134919351037978 0  0.777726475770485 0.2844444037468305 0  0.7614180788764653 0.3417922110931352 0  0.7296751227778968 0.3929493554978569 0  0.6832615702129012 0.4291029468251844 0  0.7791174815959988 0.2691551604636752 0  0.7760531585698859 0.2998132927571079 0  0.7679204963029246 0.3285033210559975 0  0.7571591853376146 0.3567597808667604 0  0.7392900634693708 0.3807017057730069 0  0.7187099608376879 0.4033349174007947 0  0.6953463322756831 0.4206494659132184 0  0.6707175636830963 0.4369934245239554 0  -0.03136307512016401 0.8409898129547317 0  0.6117022314330041 0.4783718246240398 0  0.5799777622093381 0.505104552111626 0  0.5476966426853103 0.5337169087947958 0  0.5146149083844996 0.5639084831917278 0  0.4803540992211162 0.5951573644745357 0  0.4446681686139009 0.6270825597156896 0  0.4072903910050099 0.6592873433333324 0  0.3678861536822633 0.6913679522699044 0  0.3260794367483918 0.7223325941952219 0  0.2817410022438951 0.7515156103338283 0  0.2347799382186107 0.7780721419758524 0  0.1852244321003953 0.8012710127495389 0  0.1332773381641172 0.8197372593501424 0  0.07943462318583533 0.8328026865698853 0  0.02433162301807641 0.8398632102022759 0  0.6430797967886824 0.4543611311969697 0  -0.08675875159733484 0.834998425103636 0  -0.1409361993068957 0.8227418287940151 0  -0.1931923078079088 0.8049076094189171 0  -0.2428023030218499 0.7814852650373083 0  -0.2899015523829472 0.7558327695379344 0  -0.3344269876740434 0.7276039947967191 0  -0.376498955741213 0.6976008217296435 0  -0.4162398511629182 0.6663251666412628 0  -0.454012581135785 0.6350547386520589 0  -0.4902241008857354 0.6040529714760763 0  -0.5251006042720551 0.5736462515688279 0  -0.5588713890058463 0.544163706800903 0  -0.5917498878703729 0.5159023726505232 0  -0.6239781895170013 0.4894024515356565 0  -0.655802537729361 0.4655375193817794 0  -0.6711350744670199 0.4552086037967351 0  -0.6396734275258932 0.4773268045956061 0  -0.5754193875647049 0.529942761761762 0  -0.5078153691846297 0.5887631018535588 0  -0.4353241212177503 0.6506647587047029 0  -0.3557529706239537 0.7127428580518147 0  -0.2666678467498854 0.7690409980285591 0  -0.1673247596250553 0.8143196357605997 0  -0.05915303724348461 0.838781834433344 0  0.05200407738129541 0.837139700496459 0  0.1595229543895169 0.8111105147874726 0  0.2585886056955328 0.7651791539359167 0  0.3472815652819091 0.7070132706334589 0  0.4262059007044613 0.6431764592250626 0  0.4976415701699038 0.5794274528899187 0  0.5639164252866677 0.5192891193434646 0  0.6271662208948752 0.4661878594920294 0  -0.6078805369135132 0.502597123199327 0  -0.5421118506050725 0.5587928061585078 0  -0.472302359306969 0.6195040180659332 0  -0.3966967334388971 0.6820986437709571 0  -0.3124744021633633 0.7419715636228302 0  -0.2185227618713891 0.7939938628697656 0  -0.1140409142942533 0.8295786107006098 0  -0.003445371735515629 0.8412414801242921 0  0.106557463101767 0.8269855400917169 0  0.2103483564149291 0.7902239158275924 0  0.3042350318955694 0.7372006190404387 0  0.3878899325844585 0.6754117897493432 0  0.4627050972160832 0.611063473288031 0  0.531298804744333 0.548668811118724 0  0.5958450097149578 0.4916589103598087 0  -0.79692329743755 0.2656456132210128 0  -0.7208697041424521 0.424539650469257 0  -0.763532070381606 0.381344894817423 0  -0.7903734826876643 0.3271151254502979 0  -0.6964204368104269 0.440268273782525 0  -0.7432889577669076 0.4041538003879988 0  -0.7754048935839952 0.3529942048834069 0  -0.7926242348500957 0.295984278111479 0  -0.6837568056647222 0.4482240581979261 0  -0.7085873942424195 0.4317249625355563 0  -0.7321798100786451 0.4144803594440744 0  -0.7530517214467135 0.3919043121038697 0  -0.771354193359215 0.3681150029876283 0  -0.782119757479157 0.339858651029569 0  -0.7906696672575793 0.3113232634654883 0  -0.7942082546174063 0.2806988689813773 0  -0.7960914944176762 0.245875667157745 0  -0.7963088559534119 -0.1961758987594599 0  -0.7968826277053034 -0.1569480181560575 0  -0.7988970100921404 -0.117374572748406 0  -0.8013860770243092 -0.07733923375283121 0  -0.8040417657210419 -0.03677845780309889 0  -0.8053319298504781 0.004222823270635091 0  -0.8053194852364638 0.04533884144096395 0  -0.8040085730809505 0.08634657304505211 0  -0.8013454445901538 0.1269273526132856 0  -0.798819081048471 0.1669929341145585 0  -0.7967414290969385 0.2066047070576009 0  -0.7972203028390983 -0.2159233002663302 0  -0.7963642566168363 -0.1765950235996769 0  -0.8001275813638534 -0.09741950517948859 0  -0.8048508045707813 -0.01630714625196899 0  -0.8048272237906665 0.06587108680103011 0  -0.8000706526823077 0.1470214019711541 0  -0.7961853399478069 0.2262721735270306 0  -0.7978026023460465 -0.1372158793950715 0  -0.8027814648766846 -0.05714777479734999 0  -0.80548366157031 0.02478047280359788 0  -0.8027463309749653 0.106723303407288 0  -0.7976974102201192 0.1868524854080816 0  -0.7907020774021449 -0.2773251061444389 0  -0.7636982824604073 -0.3313657008973839 0  -0.7209183871522212 -0.3742213207622586 0  -0.7930128582801125 -0.2462430176247052 0  -0.7757700795095281 -0.3031975260414629 0  -0.7433980805172539 -0.354051128755688 0  -0.6963442583675128 -0.3896593415254953 0  -0.7945767329928318 -0.2309708669855075 0  -0.7910789368722534 -0.2
[...]
<PointData  Vectors="f_48"> 
<DataArray  type="Float64"  Name="f_48"  NumberOfComponents="3" format="ascii">-1.6489739293061243e-06 9.8143104268715367e-08 0.0000000000000000e+00  -5.1424755085587501e-09 -8.5985526178522253e-08 0.0000000000000000e+00  -9.6493572732712602e-08 -2.5628320200035261e-07 0.0000000000000000e+00  -2.6211524347113404e-07 -3.9225962436404889e-07 0.0000000000000000e+00  -5.5659557694359591e-07 -4.3238445864014762e-07 0.0000000000000000e+00  -7.2074006355085760e-07 -4.7266952789531598e-07 0.0000000000000000e+00  -1.0698154773922841e-06 -2.0523071119492211e-07 0.0000000000000000e+00  -1.2344261199052899e-06 -1.5828688126413691e-07 0.0000000000000000e+00  -1.3569825718511096e-06 -3.1629737869704508e-07 0.0000000000000000e+00  -5.4919317507667495e-09 9.9855734772926781e-08 0.0000000000000000e+00  -1.7565758916237967e-06 -1.8162856083050311e-07 0.0000000000000000e+00  -1.8970113019655242e-06 -1.8315461348621938e-07 0.0000000000000000e+00  -2.0008096375514613e-06 -2.7631162255004596e-07 0.0000000000000000e+00  -2.0930164626687705e-06 -3.7970185141085734e-07 0.0000000000000000e+00  -2.1140884168475129e-06 -5.1422643116823042e-07 0.0000000000000000e+00  -2.0722600495432919e-06 -5.8028817812110123e-07 0.0000000000000000e+00  -1.8555828827998729e-06 -8.1612514348638479e-07 0.0000000000000000e+00  -1.8031387258407000e-06 1.5636721806155990e-06 0.0000000000000000e+00  -1.0003020956972451e-07 2.7347290860871508e-07 0.0000000000000000e+00  -2.7922418255641458e-07 4.0617844962016681e-07 0.0000000000000000e+00  -5.1066479945369619e-07 4.8883197655986362e-07 0.0000000000000000e+00  -7.9670566230914133e-07 5.0659102040115500e-07 0.0000000000000000e+00  -1.0721163673835976e-06 5.0681757414775671e-07 0.0000000000000000e+00  -1.3471116797323914e-06 4.7160919169880811e-07 0.0000000000000000e+00  -1.5959433251338953e-06 4.3690032445755683e-07 0.0000000000000000e+00  -1.8263627481569338e-06 4.3628890412525144e-07 0.0000000000000000e+00  -2.0227363908286136e-06 4.3970271034405968e-07 0.0000000000000000e+00  -2.1759348302634981e-06 4.7700327737416947e-07 0.0000000000000000e+00  -2.2819881634551695e-06 5.3896870546300804e-07 0.0000000000000000e+00  -2.3343949608338408e-06 7.0326123661613684e-07 0.0000000000000000e+00  -2.3651332888412071e-06 7.9104417357554710e-07 0.0000000000000000e+00  -2.3169826611775120e-06 8.7878135657017153e-07 0.0000000000000000e+00  -2.0892777383089243e-06 9.8619819142335943e-07 0.0000000000000000e+00  -2.0993451201466237e-06 1.1017309815066816e-06 0.0000000000000000e+00  -1.9514947109851331e-06 -8.8566863443379139e-07 0.0000000000000000e+00  -2.0617931091728068e-06 -3.9620855161442770e-07 0.0000000000000000e+00  -1.9533872740477100e-06 -2.0478648474347446e-07 0.0000000000000000e+00  -1.6716857759474824e-06 -2.3462175571489359e-07 0.0000000000000000e+00  -1.4368871144093524e-06 1.1649612475596026e-07 0.0000000000000000e+00  -9.5104791409106074e-07 -2.5562731508294159e-07 0.0000000000000000e+00  -3.7180088253526400e-07 -4.2891340428687376e-07 0.0000000000000000e+00  -4.3573452866433755e-08 -1.7332910152404255e-07 0.0000000000000000e+00  -2.2519691035796984e-06 7.7878346454978834e-07 0.0000000000000000e+00  -3.9295531038535592e-07 4.5316507038914413e-07 0.0000000000000000e+00  -9.2883548215842975e-07 5.1812519875468602e-07 0.0000000000000000e+00  -1.4703729721486335e-06 4.7097667971302315e-07 0.0000000000000000e+00  -1.9272828663412434e-06 4.2899092608379110e-07 0.0000000000000000e+00  -2.2299272431897022e-06 5.0326999778332826e-07 0.0000000000000000e+00  -2.3189007101220530e-06 6.1184364223651366e-07 0.0000000000000000e+00  -3.9608494402441075e-08 1.9084398017879488e-07 0.0000000000000000e+00  -1.7316125641006634e-06 -1.2523088007570020e-06 0.0000000000000000e+00  -2.3175711035674180e-06 5.4273763750535611e-07 0.0000000000000000e+00  -2.1006441452720409e-06 4.5309201261887068e-07 0.0000000000000000e+00  -1.7269834379695659e-06 4.1027344170096590e-07 0.0000000000000000e+00  -1.2066662581129540e-06 4.9791838461569662e-07 0.0000000000000000e+00  -6.6992485838400461e-07 4.8700938155107550e-07 0.0000000000000000e+00  -1.7889381915537315e-07 3.4713344324550409e-07 0.0000000000000000e+00  7.4692910772535199e-09 6.8022358063700105e-09 0.0000000000000000e+00  -1.8792215578284806e-07 -3.2064464768878878e-07 0.0000000000000000e+00  -3.8212254197218708e-07 -6.6221035789857540e-07 0.0000000000000000e+00  -1.1668968375988041e-06 -1.6937714868413430e-07 0.0000000000000000e+00  -1.5405682362213423e-06 1.5755452534748172e-07 0.0000000000000000e+00  -1.8248596078562548e-06 -1.9070879690362461e-07 0.0000000000000000e+00  -2.0373901577618290e-06 -2.2403236528177211e-07 0.0000000000000000e+00  -2.0274743439267424e-06 -5.8395885025918335e-07 0.0000000000000000e+00  -6.5469853520854045e-08 -3.6153669423043268e-07 0.0000000000000000e+00  -1.2009518322104582e-06 5.5083115605239346e-07 0.0000000000000000e+00  -7.7825669739621148e-07 -1.0102441191883845e-07 0.0000000000000000e+00  -2.0792638520792795e-07 -5.3829652319489019e-07 0.0000000000000000e+00  -1.6899618315061389e-06 4.8404159768201871e-07 0.0000000000000000e+00  -1.0999367908061347e-06 -1.1284318059221672e-07 0.0000000000000000e+00  -6.0270494152326857e-07 -1.0542475210473399e-06 0.0000000000000000e+00  -1.4969892000459314e-07 -5.0611072579217555e-07 0.0000000000000000e+00  -1.4371206412170742e-06 1.2550399199329284e-06 0.0000000000000000e+00  -1.6388477097046468e-06 1.1798249585888158e-06 0.0000000000000000e+00  -1.4750968378727996e-06 2.8700896484586984e-07 0.0000000000000000e+00  -1.4459895737475724e-06 3.3006784632757226e-08 0.0000000000000000e+00  -3.1821585482821346e-07 -7.0253022998168272e-07 0.0000000000000000e+00  -9.5084903482361043e-07 1.5509971461671783e-07 0.0000000000000000e+00  1.4913816013392109e-07 -6.1973139273723601e-07 0.0000000000000000e+00  -2.0320988211881633e-07 -5.4107102876392688e-07 0.0000000000000000e+00  2.7149581306768018e-07 -4.3863740215986160e-07 0.0000000000000000e+00  6.5762592143010906e-08 -1.9158878462086503e-08 0.0000000000000000e+00  1.7006559577677585e-08 -5.6195051797329756e-08 0.0000000000000000e+00  1.1837122637148923e-08 -9.4134067942771618e-08 0.0000000000000000e+00  1.5746523925412061e-08 -1.2894084673548963e-07 0.0000000000000000e+00  1.4410305529814550e-08 -1.7048297762083018e-07 0.0000000000000000e+00  2.6863851467977807e-09 -2.2755480630801502e-07 0.0000000000000000e+00  -1.5029132299926092e-08 -2.8119340134984133e-07 0.0000000000000000e+00  -4.1655800389449479e-08 -3.3246013341837377e-07 0.0000000000000000e+00  -5.3523463114882941e-08 -3.8527346209025366e-07 0.0000000000000000e+00  -3.2066196333401188e-08 -4.1338444974506024e-07 0.0000000000000000e+00  3.1824895196803822e-08 -4.3874361677648009e-07 0.0000000000000000e+00  1.8344756192627129e-08 3.1561062591895890e-08 0.0000000000000000e+00  8.1653484480667549e-09 -3.1292040493871288e-08 0.0000000000000000e+00  1.1677112478250467e-08 -1.1252318663456817e-07 0.0000000000000000e+00  7.9481636857547408e-09 -2.0115215481227228e-07 0.0000000000000000e+00  -2.4649646283924860e-08 -3.0733087590003311e-07 0.0000000000000000e+00  -4.1751391079451489e-08 -3.9549562125347261e-07 0.0000000000000000e+00  -8.5066469304664364e-09 -4.3409244789119875e-07 0.0000000000000000e+00  1.0537686253114763e-08 -7.4674269201501456e-08 0.0000000000000000e+00  1.9911000978856895e-08 -1.4998388216269726e-07 0.0000000000000000e+00  -5.3631602914887875e-09 -2.5492498984150923e-07 0.0000000000000000e+00  -6.1399898065016523e-08 -3.5650840813159716e-07 0.0000000000000000e+00  -2.8596754682205457e-08 -4.2170653243336487e-07 0.0000000000000000e+00  -1.5279448805732560e-06 -1.0828971538334861e-06 0.0000000000000000e+00  -7.7495277570992142e-08 2.5841210909733999e-07 0.0000000000000000e+00  -5.0785795862535236e-07 1.2079626666847121e-07 0.0000000000000000e+00  -9.3831872017109030e-07 -3.5336401113234771e-07 0.0000000000000000e+00  -3.3409300058021487e-08 1.6166132376871100e-07 0.0000000000000000e+00  -3.4616660562201319e-07 5.7750921539461375e-07 0.0000000000000000e+00  -8.0872549316779979e-07 1.3058187564299763e-07 0.0000000000000000e+00  -1.3217569090321037e-06 -3.6353071394008843e-07 0.0000000000000000e+00  -3.3379431229630274e-08 1.2646347299718421e-07 0.0000000000000000e+00  9.6848757174784866e-08 2.2206615212964889e-07 0.0000000000000000e+00  -5.1914653719738501e-07 2.2551383429132247e-08 0.0000000000000000e+00  -2.1147950218547364e-07 5.0087275091585086e-07 0.0000000000000000e+00  -1.0510126424277818e-06 2.1404064101885151e-08 0.0000000000000000e+00  -1.1246425501315611e-06 -1.2580292602177470e-07 0.0000000000000000e+00  -1.2732156733633783e-06 -8.9610047017091907e-07 0.0000000000000000e+00  -1.1979715961263423e-06 -9.4882265759298590e-07 0.0000000000000000e+00  -2.0794967981240856e-08 2.0031048959532527e-07 0.0000000000000000e+00  -1.8321735742126545e-06 -4.6659917460066344e-07 0.0000000000000000e+00  -1.8642156727752651e-06 -3.8787712381188653e-07 0.0000000000000000e+00  -1.8356111309703516e-06 -2.6023188634966839e-07 0.0000000000000000e+00  -1.7510086766543901e-06 -1.6245188952328896e-07 0.0000000000000000e+00  -1.6474750629556366e-06 -8.6936814101593734e-08 0.0000000000000000e+00  -1.5150639970461153e-06 -6.0173398271406198e-08 0.0000000000000000e+00  -1.3577319540131864e-06 -4.9017970360571390e-08 0.0000000000000000e+00  -1.1702591145719386e-06 -8.6312600019045355e-08 0.0000000000000000e+00  -9.8179101957902981e-07 -1.2851145103648046e-07 0.0000000000000000e+00  -7.7089859894012674e-07 -1.8707095005396584e-07 0.0000000000000000e+00  -5.5733100646511201e-07 -2.1383234940272430e-07 0.0000000000000000e+00  -3.3655570157455421e-07 -2.2506751467406403e-07 0.0000000000000000e+00  -1.6427986157083023e-07 -1.6911746441696905e-07 0.0000000000000000e+00  -3.6748965780636906e-08 -6.9672497841062232e-08 0.0000000000000000e+00  9.8574598005267812e-09 6.6824458937705624e-08 0.0000000000000000e+00  -1.6527952453009469e-06 -6.7118250467581898e-07 0.0000000000000000e+00  -1.6274608394098600e-07 2.9581075188341748e-07 0.0000000000000000e+00  -3.6989397311137382e-07 3.3112360597177863e-07 0.0000000000000000e+00  -4.5608967901937456e-07 4.3707175342432506e-07 0.0000000000000000e+00  -8.4693360994706959e-07 2.6685829120109461e-07 0.0000000000000000e+00  -1.0462888662926688e-06 2.6551174329559747e-07 0.0000000000000000e+00  -1.2532170449601039e-06 2.3513734662290502e-07 0.0000000000000000e+00  -1.4448233726660417e-06 2.2386329895536628e-07 0.0000000000000000e+00  -1.6630927907882860e-06 1.4172246860883850e-07 0.0000000000000000e+00  -1.8183922219425623e-06 1.9877674730797095e-07 0.0000000000000000e+00  -1.9550600682140199e-06 2.2583377467284325e-07 0.0000000000000000e+00  -2.0539432433946964e-06 2.8739858411435293e-07 0.0000000000000000e+00  -2.1151827792429904e-06 3.9969365462652933e-07 0.0000000000000000e+00  -2.1472457540640718e-06 4.9334865222968441e-07 0.0000000000000000e+00  -2.1032434744769359e-06 5.7290816000404671e-07 0.0000000000000000e+00  -1.8908687827146947e-06 7.6598069521561585e-07 0.0000000000000000e+00  -1.7284352715428933e-06 1.2612917166662889e-06 0.0000000000000000e+00  -1.9547430781703852e-06 8.5389495442039791e-07 0.0000000000000000e+00  -2.0918497796572631e-06 3.4581776258163533e-07 0.0000000000000000e+00  -2.0059751313129783e-06 2.3144936830137711e-07 0.0000000000000000e+00  -1.7380315600840461e-06 2.0661290338257552e-07 0.0000000000000000e+00  -1.3676214679445043e-06 2.0337878916057663e-07 0.0000000000000000e+00  -8.2558808592226552e-07 4.6505706504388880e-07 0.0000000000000000e+00  -5.0869503008498638e-07 3.1635117347650137e-07 0.0000000000000000e+00  -8.8751808119564925e-08 2.4745616198979846e-07 0.0000000000000000e+00  6.1391822636678558e-09 -9.4340310188021613e-09 0.0000000000000000e+00  -2.5177032263238870e-07 -1.9946353159865000e-07 0.0000000000000000e+00  -6.5217918308103983e-07 -2.2771549010753674e-07 0.0000000000000000e+00  -1.0807505608968469e-06 -1.1031854753082218e-07 0.0000000000000000e+00  -1.4371847601910427e-06 -6.4061067033704684e-08 0.0000000000000000e+00  -1.7025821925289723e-06 -9.6905251548564203e-08 0.0000000000000000e+00  -1.8141559066597617e-06 -2.6992398494198341e-07 0.0000000000000000e+00  -1.7226427922307655e-06 -7.2478630526840432e-07 0.0000000000000000e+00  -2.0483431757492002e-06 5.3834000415249055e-07 0.0000000000000000e+00  -2.0779311763082993e-06 2.7622495375605498e-07 0.0000000000000000e+00  -1.8909587931286515e-06 2.0004293160971716e-07 0.0000000000000000e+00  -1.5699551869495941e-06 8.6140769195671982e-08 0.0000000000000000e+00  -1.1275239966277605e-06 3.1240143118477766e-07 0.0000000000000000e+00  -8.7558985783368167e-07 9.3399086161211197e-08 0.0000000000000000e+00  -2.3940767003707788e-07 3.3025916239245326e-07 0.0000000000000000e+00  3.8877986352346801e-08 1.3202086591341738e-07 0.0000000000000000e+00  -8.7021193782907677e-08 -1.2945012108213475e-07 0.0000000000000000e+00  -4.6818269075538681e-07 -1.9706304969051514e-07 0.0000000000000000e+00  -8.7309844016371263e-07 -1.7264181026446070e-07 0.0000000000000000e+00  -1.2754166326349773e-06 -2.1405821619058969e-08 0.0000000000000000e+00  -1.5840573553029320e-06 -7.0141668645933396e-08 0.0000000000000000e+00  -1.7830024370140234e-06 -1.3219281205746245e-07 0.0000000000000000e+00  -1.7895710602096731e-06 -4.4304178971149768e-07 0.0000000000000000e+00  -1.4026154753414319e-08 -1.9759443858107597e-07 0.0000000000000000e+00  -1.0761928446470409e-06 4.3009364640825368e-07 0.0000000000000000e+00  -6.3869773563156530e-07 -1.2211765219140268e-07 0.0000000000000000e+00  -1.3697177760671027e-07 -3.9539523445016527e-07 0.0000000000000000e+00  -1.5103646084203631e-06 4.0611197037950282e-07 0.0000000000000000e+00  -9.4855757397625688e-07 -1.3753863605293241e-07 0.0000000000000000e+00  -4.6178707448500088e-07 -8.0718459158812757e-07 0.0000000000000000e+00  -8.5513122673523620e-08 -3.3578677351873199e-07 0.0000000000000000e+00  -1.3548037766977545e-06 1.0818825177669851e-06 0.0000000000000000e+00  -1.4718375536003111e-06 1.0137299098879094e-06 0.0000000000000000e+00  -1.3032543173977498e-06 1.8194991208951977e-07 0.0000000000000000e+00  -1.2465109207156688e-06 -1.2551807788956314e-08 0.0000000000000000e+00  -2.5766444493248117e-07 -6.0637069708600416e-07 0.0000000000000000e+00  -7.3179574143952607e-07 4.2140237787264785e-08 0.0000000000000000e+00  1.2781759213520447e-07 -4.1659737988740199e-07 0.0000000000000000e+00  -1.1306426891035227e-07 -3.3135442859109187e-07 0.0000000000000000e+00  1.7341837185798211e-07 -2.0905458142025720e-07 0.0000000000000000e+00  1.8124401628948106e-07 2.1644079270138181e-07 0.0000000000000000e+00  3.0333899018760631e-08 1.9819077251233198e-07 0.0000000000000000e+00  -6.0963409894928995e-09 1.6694786044859708e-07 0.0000000000000000e+00  -1.6086856243148051e-08 1.3563246591810364e-07 0.0000000000000000e+00  -8.4196809567406836e-09 8.8126076954971403e-08 0.0000000000000000e+00  -8.3116561573018070e-10 3.3535336081096539e-08 0.0000000000000000e+00  -4.5354315429434014e-10 -2.0536642014888714e-08 0.0000000000000000e+00  -7.1674086242311138e-09 -7.5361630696266884e-08 0.0000000000000000e+00  -1.4985602033884009e-08 -1.2291695675985265e-07 0.0000000000000000e+00  -6.3290936915439221e-09 -1.5548690604558114e-07 0.0000000000000000e+00  2.7390050196637953e-08 -1.8837358705958424e-07 0.0000000000000000e+00  -1.1034110282614356e-08 2.0146776460974729e-07 0.0000000000000000e+00  -4.8980272564856207e-10 2.0694000853534462e-07 0.0000000000000000e+00  -1.0601882306404957e-08 1.4899754942946752e-07 0.0000000000000000e+00  -3.0615349740801448e-09 6.0080975466096842e-08 0.0000000000000000e+00  -2.4002460710103737e-09 -4.7123178179789521e-08 0.0000000000000000e+00  -1.0415069780590614e-08 -1.3702255752793698e-07 0.0000000000000000e+00  -1.9329501486564793e-09 -1.9863590374868241e-07 0.0000000000000000e+00  -5.1924744063378803e-09 1.8074510696950585e-07 0.0000000000000000e+00  -1.6627264006898761e-08 1.1024828395991523e-07 0.0000000000000000e+00  3.2128967045631301e-10 6.5147951054294688e-09 0.0000000000000000e+00  -1.4749965938196015e-08 -9.7452629870282463e-08 0.0000000000000000e+00  -6.0984115617304368e-09 -1.7017287019823208e-07 0.0000000000000000e+00  -1.4371665870217450e-07 3.9400451081686408e-07 0.0000000000000000e+00  -6.4327253259193610e-07 1.1963749160152279e-07 0.0000000000000000e+00  -1.0704899643212739e-06 -4.4714512862663374e-07 0.0000000000000000e+00  -8.4329205964697129e-08 3.4154564064476037e-07 0.0000000000000000e+00  -4.6913685280344817e-07 7.9719547612286019e-07 0.0000000000000000e+00  -9.5320945840261259e-07 1.2161556744524807e-07 0.0000000000000000e+00  -1.4884479566896177e-06 -4.6265572065519293e-07 0.0000000000000000e+00  -1.1259584496030856e-07 3.3551643804883343e-07 0.0000000000000000e+00  1.2345077090643396e-07 4.2075866053855850e-07 0.0000000000000000e+00  -7.3146945344932160e-07 -2.4936343362304184e-08 0.0000000000000000e+00  -2.8022578239351384e-07 6.0700110372320367e-07 0.0000000000000000e+00  -1.2554259303227455e-06 2.3680374668816719e-09 0.0000000000000000e+00  -1.3070902563463924e-06 -2.0152056609965317e-07 0.0000000000000000e+00  -1.4482683234522340e-06 -1.0474829679679891e-06 0.0000000000000000e+00  -1.3378646315496946e-06 -1.1447518767519579e-06 0.0000000000000000e+00  -1.1024077966500163e+03 7.7921066838841932e+02 0.0000000000000000e+00  -1.1061230314588167e+03 7.6660311768300028e+02 0.0000000000000000e+00  -9.4940556129549080e+01 -3.4647380847490905e+02 0.0000000000000000e+00  -1.3457687913864606e+03 -8.8918043868672484e+01 0.0000000000000000e+00  -1.1724208453429385e+03 -3.1109260451986241e+01 0.0000000000000000e+00  -1.4549332951549218e+02 -3.7624705345586955e+02 0.0000000000000000e+00  -2.3804305136832070e+02 -4.2814266284651836e+02 0.0000000000000000e+00  -1.5506114529156449e+02 -3.0648025549246358e+02 0.0000000000000000e+00  -1.5746470735107764e+02 3.0629306886493407e+02 0.0000000000000000e+00  -7.7678056202873861e+01 1.6788678865159460e+02 0.0000000000000000e+00  -7.0402179075645290e+02 2.5420736195377435e+02 0.0000000000000000e+00  -4.4059141818729779e+02 4.9353797476972039e+02 0.0000000000000000e+00  -9.0317946060784050e+02 4.4603486452361420e+02 0.0000000000000000e+00  -6.3248170050870186e+01 -4.4362376448194925e+02 0.0000000000000000e+00  -2.1746324828891863e+02 -5.6130029192481447e+02 0.0000000000000000e+00  -9.7635217367921765e+00 -2.5354761367990275e+02 0.0000000000000000e+00  -8.4328596645342918e+02 -1.8416333059412059e+02 0.0000000000000000e+00  -5.9257337881594162e+02 -1.5678988312193107e+02 0.0000000000000000e+00  2.0437066830844667e+01 8.6096598813656698e+01 0.0000000000000000e+00  -4.8503266113119345e+01 -4.7666541878072231e+01 0.0000000000000000e+00  -1.1440552289616960e+03 2.1372949249069529e+02 0.0000000000000000e+00  -6.9281200707436233e+02 2.2755650622372997e+02 0.0000000000000000e+00  -8.7260460257939144e+01 -3.6629762032932445e+02 0.0000000000000000e+00  -8.6640845132268771e+02 2.6973761448007537e+02 0.0000000000000000e+00  -6.2588318412290346e+02 6.4659766260616209e+02 0.0000000000000000e+00  9.5835752853804967e-01 -2.6488073977083912e+00 0.0000000000000000e+00  -7.2305533319778260e+02 -6.9649819582033615e+02 0.0000000000000000e+00  -1.0360451664789862e+03 -2.1608701132032834e+02 0.0000000000000000e+00  -2.1890058683177190e+02 6.7679634990987222e+02 0.0000000000000000e+00  -8.9156739475487109e+02 -2.6844044772571027e+02 0.0000000000000000e+00  -1.3510148794153711e+03 1.3225193011529834e+02 0.0000000000000000e+00  -9.6620151644992052e+02 -5.8535973524193662e+02 0.0000000000000000e+00  -1.6434496961207192e+03 -3.9069464170556347e+02 0.0000000000000000e+00  -2.6019296593717905e+02 6.3522768974807809e+02 0.0000000000000000e+00  -1.0911055454335537e+03 -7.6361359735956250e+02 0.0000000000000000e+00  -9.8259573789750675e+02 -7.8957973393586963e+02 0.0000000000000000e+00  -1.0406324507280622e+03 5.4483459345150436e+02 0.0000000000000000e+00  -6.3152658524009464e+00 -1.5004166379516926e+02 0.0000000000000000e+00  -1.4185944435666236e+03 2.11999806254