<?xml version="1.0"?>
<VTKFile type="UnstructuredGrid"  version="0.1"  >
<UnstructuredGrid>
<Piece  NumberOfPoints="4153" NumberOfCells="8064">
<Points>
<DataArray  type="Float64"  NumberOfComponents="3"  format="ascii">-0.4249999999999999 -0.5 0  -0.02499999999999988 -0.5 0  -0.07499999999999987 -0.5 0  -0.1249999999999998 -0.5 0  -0.1749999999999998 -0.5 0  -0.2249999999999998 -0.5 0  -0.2749999999999998 -0.5 0  -0.3249999999999998 -0.5 0  -0.3749999999999999 -0.5 0  0.02500000000000016 -0.5 0  -0.4749999999999998 -0.5 0  -0.5249999999999998 -0.5 0  -0.5749999999999998 -0.5 0  -0.6249999999999999 -0.5 0  -0.6749999999999999 -0.5 0  -0.725 -0.5 0  -0.775 -0.5 0  0.8 -0.5 0  0.07500000000000025 -0.5 0  0.1250000000000003 -0.5 0  0.1750000000000004 -0.5 0  0.2250000000000004 -0.5 0  0.2750000000000004 -0.5 0  0.3250000000000003 -0.5 0  0.3750000000000001 -0.5 0  0.4250000000000002 -0.5 0  0.4750000000000002 -0.5 0  0.5250000000000001 -0.5 0  0.5750000000000002 -0.5 0  0.625 -0.5 0  0.675 -0.5 0  0.725 -0.5 0  0.775 -0.5 0  0.75 -0.5 0  -0.75 -0.5 0  -0.6499999999999999 -0.5 0  -0.5499999999999998 -0.5 0  -0.4499999999999998 -0.5 0  -0.3499999999999999 -0.5 0  -0.2499999999999998 -0.5 0  -0.1499999999999998 -0.5 0  -0.04999999999999988 -0.5 0  0.7 -0.5 0  0.1500000000000004 -0.5 0  0.2500000000000003 -0.5 0  0.3500000000000002 -0.5 0  0.4500000000000002 -0.5 0  0.5500000000000002 -0.5 0  0.65 -0.5 0  0.0500000000000002 -0.5 0  -0.8 -0.5 0  0.6000000000000001 -0.5 0  0.5000000000000002 -0.5 0  0.4000000000000001 -0.5 0  0.3000000000000003 -0.5 0  0.2000000000000004 -0.5 0  0.1000000000000003 -0.5 0  1.110223024625157e-16 -0.5 0  -0.09999999999999987 -0.5 0  -0.1999999999999998 -0.5 0  -0.2999999999999998 -0.5 0  -0.3999999999999999 -0.5 0  -0.4999999999999998 -0.5 0  -0.5999999999999999 -0.5 0  -0.7 -0.5 0  1 -0.3 0  0.8765366864730179 -0.4847759065022574 0  0.9414213562373094 -0.4414213562373097 0  0.9847759065022573 -0.3765366864730181 0  0.838268343236509 -0.4923879532511287 0  0.9089790213551636 -0.4630986313697836 0  0.9630986313697834 -0.4089790213551639 0  0.9923879532511286 -0.338268343236509 0  0.8191341716182545 -0.4961939766255644 0  0.8574025148547635 -0.488581929876693 0  0.8927578539140908 -0.4739372689360205 0  0.9252001887962364 -0.4522599938035466 0  0.9522599938035463 -0.4252001887962368 0  0.9739372689360204 -0.392757853914091 0  0.9885819298766929 -0.3574025148547635 0  0.9961939766255643 -0.3191341716182545 0  1 -0.275 0  1 0.275 0  1 0.225 0  1 0.175 0  1 0.125 0  1 0.07499999999999994 0  1 0.02499999999999987 0  1 -0.0250000000000002 0  1 -0.07500000000000026 0  1 -0.1250000000000003 0  1 -0.1750000000000002 0  1 -0.2250000000000001 0  1 0.3 0  1 0.25 0  1 0.15 0  1 0.04999999999999991 0  1 -0.05000000000000023 0  1 -0.1500000000000002 0  1 -0.2500000000000001 0  1 0.2 0  1 0.09999999999999998 0  1 -1.665334536937735e-16 0  1 -0.1000000000000003 0  1 -0.2000000000000002 0  0.8 0.5 0  0.9847759065022573 0.3765366864730181 0  0.9414213562373094 0.4414213562373097 0  0.8765366864730179 0.4847759065022574 0  0.9923879532511286 0.338268343236509 0  0.9630986313697834 0.4089790213551639 0  0.9089790213551636 0.4630986313697836 0  0.838268343236509 0.4923879532511287 0  0.9961939766255643 0.3191341716182545 0  0.9885819298766929 0.3574025148547635 0  0.9739372689360204 0.392757853914091 0  0.9522599938035463 0.4252001887962368 0  0.9252001887962364 0.4522599938035466 0  0.8927578539140908 0.4739372689360205 0  0.8574025148547635 0.488581929876693 0  0.8191341716182545 0.4961939766255644 0  -0.02500000000000016 0.5 0  0.725 0.5 0  0.6749999999999999 0.5 0  0.6249999999999999 0.5 0  0.5749999999999998 0.5 0  0.5249999999999998 0.5 0  0.4749999999999998 0.5 0  0.4249999999999999 0.5 0  0.3749999999999999 0.5 0  0.3249999999999998 0.5 0  0.2749999999999998 0.5 0  0.2249999999999998 0.5 0  0.1749999999999998 0.5 0  0.1249999999999998 0.5 0  0.07499999999999987 0.5 0  0.02499999999999988 0.5 0  0.775 0.5 0  -0.07500000000000025 0.5 0  -0.1250000000000003 0.5 0  -0.1750000000000004 0.5 0  -0.2250000000000004 0.5 0  -0.2750000000000004 0.5 0  -0.3250000000000003 0.5 0  -0.3750000000000001 0.5 0  -0.4250000000000002 0.5 0  -0.4750000000000002 0.5 0  -0.5250000000000001 0.5 0  -0.5750000000000002 0.5 0  -0.625 0.5 0  -0.675 0.5 0  -0.725 0.5 0  -0.775 0.5 0  -0.8 0.5 0  -0.75 0.5 0  -0.65 0.5 0  -0.5500000000000002 0.5 0  -0.4500000000000002 0.5 0  -0.3500000000000002 0.5 0  -0.2500000000000003 0.5 0  -0.1500000000000004 0.5 0  -0.0500000000000002 0.5 0  0.04999999999999988 0.5 0  0.1499999999999998 0.5 0  0.2499999999999998 0.5 0  0.3499999999999999 0.5 0  0.4499999999999998 0.5 0  0.5499999999999998 0.5 0  0.6499999999999999 0.5 0  0.75 0.5 0  -0.7 0.5 0  -0.6000000000000001 0.5 0  -0.5000000000000002 0.5 0  -0.4000000000000001 0.5 0  -0.3000000000000003 0.5 0  -0.2000000000000004 0.5 0  -0.1000000000000003 0.5 0  -1.110223024625157e-16 0.5 0  0.09999999999999987 0.5 0  0.1999999999999998 0.5 0  0.2999999999999998 0.5 0  0.3999999999999999 0.5 0  0.4999999999999998 0.5 0  0.5999999999999999 0.5 0  0.7 0.5 0  -1 0.3 0  -0.8765366864730181 0.4847759065022573 0  -0.9414213562373097 0.4414213562373094 0  -0.9847759065022574 0.3765366864730179 0  -0.838268343236509 0.4923879532511287 0  -0.9089790213551638 0.4630986313697834 0  -0.9630986313697836 0.4089790213551636 0  -0.9923879532511287 0.338268343236509 0  -0.8191341716182545 0.4961939766255643 0  -0.8574025148547635 0.488581929876693 0  -0.892757853914091 0.4739372689360203 0  -0.9252001887962368 0.4522599938035464 0  -0.9522599938035466 0.4252001887962365 0  -0.9739372689360205 0.3927578539140908 0  -0.9885819298766931 0.3574025148547634 0  -0.9961939766255643 0.3191341716182545 0  -1 0.275 0  -1 -0.275 0  -1 -0.225 0  -1 -0.175 0  -1 -0.125 0  -1 -0.07499999999999994 0  -1 -0.02499999999999987 0  -1 0.0250000000000002 0  -1 0.07500000000000026 0  -1 0.1250000000000003 0  -1 0.1750000000000002 0  -1 0.2250000000000001 0  -1 -0.3 0  -1 -0.25 0  -1 -0.15 0  -1 -0.04999999999999991 0  -1 0.05000000000000023 0  -1 0.1500000000000002 0  -1 0.2500000000000001 0  -1 -0.2 0  -1 -0.09999999999999998 0  -1 1.665334536937735e-16 0  -1 0.1000000000000003 0  -1 0.2000000000000002 0  -0.9847759065022574 -0.3765366864730179 0  -0.9414213562373096 -0.4414213562373094 0  -0.8765366864730181 -0.4847759065022573 0  -0.9923879532511287 -0.338268343236509 0  -0.9630986313697836 -0.4089790213551636 0  -0.9089790213551638 -0.4630986313697834 0  -0.838268343236509 -0.4923879532511287 0  -0.9961939766255643 -0.3191341716182545 0  -0.9885819298766931 -0.3574025148547634 0  -0.9739372689360205 -0.3927578539140908 0  -0.9522599938035465 -0.4252001887962365 0  -0.9252001887962367 -0.4522599938035464 0  -0.892757853914091 -0.4739372689360203 0  -0.8574025148547635 -0.488581929876693 0  -0.8191341716182545 -0.4961939766255643 0  -0.3000000000000003 0.3267949192431125 0  0.3181343990330772 -0.3439416921723297 0  -0.08257249764926196 -0.3383308877677023 0  -0.50979744334887 -0.3255818518047211 0  0.5060441378325211 0.3274561643884037 0  0.1037631564626732 0.3131559137665553 0  0.843149210446875 -0.1923130104173427 0  -0.8418263458721231 0.1927503215247096 0  -0.8408809410250262 -0.1897116835785854 0  0.8409071959036176 0.1896235182386696 0  0.705967194587281 0.3354524287114743 0  0.6276370409402552 0.1658336215477063 0  0.4215070288293651 0.1446794873901968 0  0.5369019087152576 -0.01677883310260353 0  0.3378219718963524 -0.0304857337078401 0  0.7359191653189867 -0.0003779706345871367 0  0.2206709281181736 0.1292871338121241 0  0.1390057666500616 -0.05482518983879574 0  0.02156604114872933 0.1091113821954512 0  -0.05991856886335568 -0.07544049830328706 0  -0.2091026540303009 0.113218101697482 0  -0.2557387210741711 -0.08957125969209863 0  -0.3742518736706093 0.02381865171750689 0  -0.7065883696935737 -0.3351547375041799 0  -0.6319769825415822 -0.1640183941417108 0  -0.7379485134301987 -0.0003221286420197649 0  -0.6263925638672921 0.1747922261462193 0  0.7000000000000003 -0.3471147448144379 0  -0.09731754444756222 0.2985839976753261 0  -0.7019016658227 0.339872535812372 0  -0.5036626740707574 0.3416097573515475 0  0.3086642085404555 0.31909644989288 0  0.4355889359290377 -0.1794947220360297 0  0.1233906847482294 -0.33992001942789 0  -0.2910439982708135 -0.2942818290560931 0  0.6252598700683595 -0.1832373653183336 0  -0.4390211493546888 -0.1414717198202583 0  -0.5445756908252299 0.01225332998817602 0  0.5094027625036279 -0.3483114655372777 0  -0.8570298735864267 0.3548088427148782 0  0.2432245006188761 -0.181388344807941 0  0.8576591493456415 0.3532994606374906 0  -0.8577781333911819 -0.3532575554640149 0  0.856914113336837 -0.3561698222938181 0  -0.4103395160999327 0.186370105143853 0  0.04059278020228735 -0.1932320619509051 0  -0.894759031223147 0.000141425932117211 0  0.8948577502800618 -0.0001596971477125707 0  -0.1430838089440986 -0.1942958300671257 0  -0.4774576034625814 0.09931171756601452 0  -0.5183660399836124 0.1805811656450362 0  -0.585484127346261 0.09352277806719765 0  -0.3551697580499665 0.2565825121934828 0  -0.3097210850651168 0.1497941034206675 0  -0.2545513270151506 0.2200065104702973 0  -0.3922956948852711 0.10509437843068 0  -0.4594137822479196 0.01803599085284146 0  -0.1532100992389315 0.205901049686404 0  -0.1986587722237813 0.3126894584592193 0  -0.1486587722237813 0.399291998837663 0  -0.04865877222378117 0.399291998837663 0  0.5673313162859936 -0.2657744154278056 0  0.6047013812518141 -0.3477131051758577 0  0.6626299350341799 -0.2651760550663858 0  0.4724958492163328 -0.2639030937866537 0  0.5304244029986986 -0.1813660436771817 0  -0.3650325738127511 -0.2178767744381757 0  -0.4744092963517794 -0.2335267858124897 0  -0.4004207208098418 -0.3099318404304071 0  -0.3473799352144299 -0.1155214897561785 0  -0.2733913596724923 -0.1919265443740958 0  0.06266459880570127 0.2111336479810033 0  0.1211184846334515 0.1191992580037876 0  0.1622170422904234 0.2212215237893397 0  
[...]
<PointData  Vectors="f_48"> 
<DataArray  type="Float64"  Name="f_48"  NumberOfComponents="3" format="ascii">5.4533988747732429e-07 -3.6101893332758612e-06 0.0000000000000000e+00  -3.4880215673193693e-08 -1.2095819103037869e-06 0.0000000000000000e+00  -1.7571466489681330e-09 -1.7314400968452193e-06 0.0000000000000000e+00  5.1351189396574683e-08 -2.1899249244820924e-06 0.0000000000000000e+00  7.6058060115385910e-08 -2.5786504632243786e-06 0.0000000000000000e+00  5.7457831565325953e-07 -2.9117143124340542e-06 0.0000000000000000e+00  7.3570831886263762e-07 -3.1687211683398728e-06 0.0000000000000000e+00  9.1607075609928996e-07 -3.3756275306340355e-06 0.0000000000000000e+00  1.1348404582938439e-06 -3.5365905865463524e-06 0.0000000000000000e+00  -3.6805264787173753e-08 -6.3949414845312306e-07 0.0000000000000000e+00  6.9873576748377780e-07 -3.6899371108707708e-06 0.0000000000000000e+00  7.5662036810695365e-07 -3.7152606352501604e-06 0.0000000000000000e+00  8.2632170931768395e-07 -3.6982793074556273e-06 0.0000000000000000e+00  6.3460719158833624e-07 -3.6120425882500973e-06 0.0000000000000000e+00  7.0556873111857576e-07 -3.4828005833294997e-06 0.0000000000000000e+00  8.7220010332200184e-07 -3.2807285845639771e-06 0.0000000000000000e+00  1.6701738572364838e-06 -3.0380934533792989e-06 0.0000000000000000e+00  -3.5836524192370536e-07 2.3631781675359103e-06 0.0000000000000000e+00  -1.2265577749552910e-08 -4.3427018653669243e-08 0.0000000000000000e+00  3.6603694196892262e-08 5.5367719478739172e-07 0.0000000000000000e+00  1.0493174956060291e-07 1.1270658393530406e-06 0.0000000000000000e+00  1.5187842740846400e-07 1.6549179541746950e-06 0.0000000000000000e+00  2.1838724923672179e-07 2.1254333275956500e-06 0.0000000000000000e+00  2.8055377174602647e-07 2.5285224386992273e-06 0.0000000000000000e+00  3.4638562172720094e-07 2.8622087565374321e-06 0.0000000000000000e+00  3.2825819891820042e-07 3.1195817022595928e-06 0.0000000000000000e+00  3.6469439391459306e-07 3.3097679423677423e-06 0.0000000000000000e+00  3.9341915698859888e-07 3.4320894880412079e-06 0.0000000000000000e+00  4.2171590322192163e-07 3.4878221820905945e-06 0.0000000000000000e+00  4.6730741500145765e-07 3.4739842889962093e-06 0.0000000000000000e+00  4.9743178838491676e-07 3.3828281272499629e-06 0.0000000000000000e+00  6.3181849860155275e-07 3.2068873116205384e-06 0.0000000000000000e+00  1.2883367260570860e-06 2.9557079935069094e-06 0.0000000000000000e+00  2.8604271593459052e-07 3.0536434804884293e-06 0.0000000000000000e+00  4.5916704850550623e-07 -3.1070817317254568e-06 0.0000000000000000e+00  6.7927166458867056e-07 -3.5567975781463519e-06 0.0000000000000000e+00  7.6376285718234591e-07 -3.7093195783266924e-06 0.0000000000000000e+00  7.1621352058015387e-07 -3.6667053343555142e-06 0.0000000000000000e+00  9.6118298241854047e-07 -3.4608555339294854e-06 0.0000000000000000e+00  6.2332259908331358e-07 -3.0435993813629965e-06 0.0000000000000000e+00  1.1086940617672535e-07 -2.3926072525895330e-06 0.0000000000000000e+00  -2.1387548635003687e-08 -1.4777405661077369e-06 0.0000000000000000e+00  4.6474775862571472e-07 3.3056987527756201e-06 0.0000000000000000e+00  6.5571244353461406e-08 8.4471289680380369e-07 0.0000000000000000e+00  1.8667723239715714e-07 1.8984403266079662e-06 0.0000000000000000e+00  3.0331646036619078e-07 2.7027776480700645e-06 0.0000000000000000e+00  3.5038964917141882e-07 3.2227219219860356e-06 0.0000000000000000e+00  4.0484113689151007e-07 3.4671032416675831e-06 0.0000000000000000e+00  4.6306979542550809e-07 3.4367912001268336e-06 0.0000000000000000e+00  -2.8295240956204284e-08 -3.4330152368086052e-07 0.0000000000000000e+00  -3.3437540551948236e-07 -2.3823918008941099e-06 0.0000000000000000e+00  4.0850288050825503e-07 3.4792107473382925e-06 0.0000000000000000e+00  3.7991267410212748e-07 3.3792988560107828e-06 0.0000000000000000e+00  3.1505097840244992e-07 2.9927933526980115e-06 0.0000000000000000e+00  2.4936211540040333e-07 2.3356120782941420e-06 0.0000000000000000e+00  1.2355160931298339e-07 1.3982853963847979e-06 0.0000000000000000e+00  9.2657011171773177e-09 2.5660501662431156e-07 0.0000000000000000e+00  -4.1097065292114749e-08 -9.2977544475699043e-07 0.0000000000000000e+00  2.6917166298274257e-08 -1.9691954694547844e-06 0.0000000000000000e+00  3.2568788821925153e-07 -2.7390391460443683e-06 0.0000000000000000e+00  8.1863699629004614e-07 -3.2779979488808715e-06 0.0000000000000000e+00  9.4446369609953139e-07 -3.6161182114784344e-06 0.0000000000000000e+00  7.3455446568936160e-07 -3.7086489102682792e-06 0.0000000000000000e+00  7.1388798529208099e-07 -3.6553519255064005e-06 0.0000000000000000e+00  6.7142256143180092e-07 -3.3891586761138422e-06 0.0000000000000000e+00  -4.5995614093395024e-08 -6.4715929613330591e-07 0.0000000000000000e+00  -1.3497176066591745e-06 1.4102817786327256e-06 0.0000000000000000e+00  -1.1732902250559928e-06 -4.1565294866267341e-08 0.0000000000000000e+00  -6.1874338803438726e-07 -7.7752571480192576e-07 0.0000000000000000e+00  -9.3849134243208393e-07 2.3838222848468490e-06 0.0000000000000000e+00  -1.9160227080288518e-06 7.9904550654041263e-07 0.0000000000000000e+00  -1.3885310173488985e-06 -5.5060489761850361e-07 0.0000000000000000e+00  -3.3703908104899763e-07 -8.9897665945821076e-07 0.0000000000000000e+00  -1.2435371602621613e-06 2.2093546650756597e-06 0.0000000000000000e+00  3.2392439591633774e-08 2.4241380842020761e-06 0.0000000000000000e+00  -1.8957066581313563e-06 3.0813322982536384e-07 0.0000000000000000e+00  -1.4768007703939044e-06 1.3780927541017962e-06 0.0000000000000000e+00  -1.1803500228805116e-06 -1.3079271997202799e-06 0.0000000000000000e+00  -1.1710577851480249e-06 -2.1592724461554507e-07 0.0000000000000000e+00  1.3062054197000907e-07 -1.0552035282623468e-06 0.0000000000000000e+00  -3.7607750775248557e-07 -7.1869111666947129e-07 0.0000000000000000e+00  4.2267133547720236e-07 -6.4652434144715141e-07 0.0000000000000000e+00  5.2978966892890122e-07 8.0850647847859878e-07 0.0000000000000000e+00  1.9313884299754380e-07 7.1395457284598763e-07 0.0000000000000000e+00  9.4578654739847444e-08 6.0171299263024599e-07 0.0000000000000000e+00  5.1177551960026622e-08 4.7666370903322253e-07 0.0000000000000000e+00  -8.4330360752790221e-10 3.4332749794489910e-07 0.0000000000000000e+00  1.3968869805559101e-10 2.0314973965855353e-07 0.0000000000000000e+00  -2.5463455356491469e-10 5.9891087374420513e-08 0.0000000000000000e+00  -1.0198562844896675e-10 -8.7664393198901924e-08 0.0000000000000000e+00  2.6713078328940385e-08 -2.3503334188504615e-07 0.0000000000000000e+00  6.2128396687700418e-08 -3.8102933709639748e-07 0.0000000000000000e+00  1.4360655298401981e-07 -5.2071774429699012e-07 0.0000000000000000e+00  -6.7197199951466918e-08 7.6935943243499547e-07 0.0000000000000000e+00  9.8251875771866656e-08 7.6347342780835460e-07 0.0000000000000000e+00  6.4258595469129085e-08 5.3969659767892405e-07 0.0000000000000000e+00  3.4322832652450788e-09 2.7286738702272259e-07 0.0000000000000000e+00  1.3378995633744409e-09 -1.2533224667255355e-08 0.0000000000000000e+00  3.8689610505551865e-08 -3.0766203999552082e-07 0.0000000000000000e+00  7.2177519451120445e-08 -5.8652202720963301e-07 0.0000000000000000e+00  1.0646925688592566e-07 6.6115212335793006e-07 0.0000000000000000e+00  1.9189111987854395e-08 4.0544586350230054e-07 0.0000000000000000e+00  1.8531860611865345e-10 1.3198272971106737e-07 0.0000000000000000e+00  9.4671752957280052e-09 -1.5577344838660268e-07 0.0000000000000000e+00  7.3306191446445152e-08 -4.5314400293650600e-07 0.0000000000000000e+00  -3.4382707962631704e-07 -2.4845103548733712e-06 0.0000000000000000e+00  -6.8627269208771094e-07 8.4429637270524437e-07 0.0000000000000000e+00  -1.2401581749407115e-06 5.1858426890727245e-08 0.0000000000000000e+00  -1.4126895561854984e-06 -1.5000433619436477e-06 0.0000000000000000e+00  -3.8027215050575773e-07 1.0204679833928509e-06 0.0000000000000000e+00  -1.4901441144010401e-06 5.9192190700044306e-07 0.0000000000000000e+00  -2.0159575420951432e-06 -8.5083782276098187e-07 0.0000000000000000e+00  -9.5956585347943060e-07 -2.5182900468360823e-06 0.0000000000000000e+00  -4.3943890516838101e-07 8.3180495109399851e-07 0.0000000000000000e+00  1.3576088320355477e-07 1.1701466454556340e-06 0.0000000000000000e+00  -1.2687937525492225e-06 2.2357793273633425e-07 0.0000000000000000e+00  -1.2467724848430026e-06 1.3902005241697412e-06 0.0000000000000000e+00  -1.5470398330443455e-06 -1.4995604905087621e-06 0.0000000000000000e+00  -1.9837426618400917e-06 -3.0637619189972466e-07 0.0000000000000000e+00  1.0555682296545526e-07 -2.5715372310765205e-06 0.0000000000000000e+00  -1.2987785431445703e-06 -2.3139028942889917e-06 0.0000000000000000e+00  -4.0476242659265611e-08 1.0200151358132278e-06 0.0000000000000000e+00  9.1223064865368056e-07 -3.4285740799967691e-06 0.0000000000000000e+00  7.3784780050714734e-07 -3.6393872397228001e-06 0.0000000000000000e+00  6.6434194341115693e-07 -3.7643386996333519e-06 0.0000000000000000e+00  8.2059707312948730e-07 -3.8283072250441182e-06 0.0000000000000000e+00  7.5445222693258143e-07 -3.8068416125534491e-06 0.0000000000000000e+00  7.0055659941599548e-07 -3.7183309521187012e-06 0.0000000000000000e+00  6.2336370612028343e-07 -3.5571012528159613e-06 0.0000000000000000e+00  7.0886999466521690e-07 -3.3320673716127760e-06 0.0000000000000000e+00  5.8495572934426334e-07 -3.0170457076760813e-06 0.0000000000000000e+00  4.6694527353795993e-07 -2.6228706522111807e-06 0.0000000000000000e+00  3.3671816414867162e-07 -2.1468232029921903e-06 0.0000000000000000e+00  2.5083893217553602e-07 -1.5994218159492793e-06 0.0000000000000000e+00  1.2118214226716260e-07 -9.8777517190867527e-07 0.0000000000000000e+00  2.4527581538167292e-08 -3.3030928573144042e-07 0.0000000000000000e+00  -2.7009027225133396e-08 3.5046747796667703e-07 0.0000000000000000e+00  1.7441911272720366e-06 -3.1679761824203733e-06 0.0000000000000000e+00  2.8878418054373467e-08 1.6506389073570673e-06 0.0000000000000000e+00  1.5863986384153867e-07 2.2276574025602328e-06 0.0000000000000000e+00  3.5600496019301414e-07 2.7302307964573699e-06 0.0000000000000000e+00  2.6253008427130004e-07 3.1488251156355318e-06 0.0000000000000000e+00  3.9892753308276723e-07 3.4992624758080140e-06 0.0000000000000000e+00  5.0765789798037772e-07 3.7670648174001867e-06 0.0000000000000000e+00  6.2895360309440740e-07 3.9640634942937034e-06 0.0000000000000000e+00  4.3060760276684878e-07 4.0823800977517699e-06 0.0000000000000000e+00  5.0818209847828375e-07 4.1535342530118269e-06 0.0000000000000000e+00  5.4798166088523567e-07 4.1635925221382688e-06 0.0000000000000000e+00  5.7668981596623359e-07 4.1157422270149072e-06 0.0000000000000000e+00  6.4728077295679873e-07 4.0102529584189842e-06 0.0000000000000000e+00  6.8990216739938829e-07 3.8351560218800627e-06 0.0000000000000000e+00  8.5684113859027274e-07 3.5812830771419113e-06 0.0000000000000000e+00  1.6684093612417372e-06 3.2719216226500722e-06 0.0000000000000000e+00  -3.7059070323219078e-07 2.5800674263390574e-06 0.0000000000000000e+00  4.3124107880398957e-07 3.3838107025435590e-06 0.0000000000000000e+00  6.4840928154856978e-07 3.9313206772482072e-06 0.0000000000000000e+00  5.6625248923068117e-07 4.1470308554437979e-06 0.0000000000000000e+00  5.0244431384327378e-07 4.1281496233424584e-06 0.0000000000000000e+00  5.4068653372014670e-07 3.8733904243027974e-06 0.0000000000000000e+00  3.5679400638939209e-07 3.3392670150666177e-06 0.0000000000000000e+00  2.2335901450191420e-07 2.4915556501347768e-06 0.0000000000000000e+00  -1.2595384175526013e-08 1.3380952128370299e-06 0.0000000000000000e+00  -9.1443380195835598e-09 6.2411351663359274e-09 0.0000000000000000e+00  1.7904396528714306e-07 -1.3015457955944777e-06 0.0000000000000000e+00  4.0803934230326224e-07 -2.3963293914348365e-06 0.0000000000000000e+00  6.2739190297446140e-07 -3.1830043281822941e-06 0.0000000000000000e+00  6.8001846107036493e-07 -3.6482004264779749e-06 0.0000000000000000e+00  7.6540328501810561e-07 -3.8239935157919127e-06 0.0000000000000000e+00  7.0847216779838183e-07 -3.7134394703852688e-06 0.0000000000000000e+00  4.8133354739762711e-07 -3.2460254190444446e-06 0.0000000000000000e+00  6.4986961592664802e-07 3.7176569933621025e-06 0.0000000000000000e+00  6.0234029707024497e-07 4.0689517546784264e-06 0.0000000000000000e+00  5.3229191864326020e-07 4.1659805441743348e-06 0.0000000000000000e+00  5.4785660301347565e-07 4.0383854898493186e-06 0.0000000000000000e+00  4.5399797841520950e-07 3.6427628733440631e-06 0.0000000000000000e+00  3.2326854232219525e-07 2.9753171120969632e-06 0.0000000000000000e+00  8.4482503404175747e-08 1.9473239586854977e-06 0.0000000000000000e+00  -4.1775003650502701e-08 6.7009643839254688e-07 0.0000000000000000e+00  6.7623284764599629e-08 -6.6347447502972877e-07 0.0000000000000000e+00  3.0394306333771230e-07 -1.8902616996446211e-06 0.0000000000000000e+00  5.2582491657476466e-07 -2.8300825166639662e-06 0.0000000000000000e+00  6.5852092160035917e-07 -3.4537384391342647e-06 0.0000000000000000e+00  7.2805624501929526e-07 -3.7712591614134454e-06 0.0000000000000000e+00  7.4154405791033411e-07 -3.8040387049508628e-06 0.0000000000000000e+00  7.0224011775867944e-07 -3.5428966714426864e-06 0.0000000000000000e+00  -7.2195857001487010e-08 -8.4733369410820799e-07 0.0000000000000000e+00  -1.4570714321280764e-06 1.5409133209089968e-06 0.0000000000000000e+00  -1.2886978255615838e-06 -4.6053700600170932e-08 0.0000000000000000e+00  -7.2376310522405817e-07 -8.9455191594398872e-07 0.0000000000000000e+00  -1.0007495104281767e-06 2.6017587169021307e-06 0.0000000000000000e+00  -2.0865071217884438e-06 8.7606440920606896e-07 0.0000000000000000e+00  -1.5571857771311453e-06 -6.2171607123912129e-07 0.0000000000000000e+00  -4.0606130299234768e-07 -1.0999159677201528e-06 0.0000000000000000e+00  -1.3480246147139964e-06 2.4031501717052209e-06 0.0000000000000000e+00  8.2728529711688595e-08 2.6448011960497257e-06 0.0000000000000000e+00  -2.0545353529451730e-06 3.2435440481849149e-07 0.0000000000000000e+00  -1.6016770453085126e-06 1.5386011031178302e-06 0.0000000000000000e+00  -1.3030007725768382e-06 -1.4512271781635715e-06 0.0000000000000000e+00  -1.3298804129541454e-06 -2.3702876935542903e-07 0.0000000000000000e+00  1.4870703160815930e-07 -1.2533743239954842e-06 0.0000000000000000e+00  -4.7599235731287400e-07 -9.0438790153527180e-07 0.0000000000000000e+00  5.7754740240263624e-07 -9.0698949458499850e-07 0.0000000000000000e+00  4.4038731210151693e-07 6.4717907442570651e-07 0.0000000000000000e+00  1.4779679868107179e-07 5.1172036132650427e-07 0.0000000000000000e+00  6.1756429928812928e-08 3.5915550002502620e-07 0.0000000000000000e+00  2.4033074833002225e-08 1.9735820318648172e-07 0.0000000000000000e+00  -1.1623335928142135e-10 3.2090944518738172e-08 0.0000000000000000e+00  -3.5040811968194382e-10 -1.3390400981794185e-07 0.0000000000000000e+00  3.4037823295815611e-10 -2.9385882617974091e-07 0.0000000000000000e+00  -1.1924393800095626e-09 -4.4741393162359775e-07 0.0000000000000000e+00  6.2271298228843763e-08 -5.8934810526498931e-07 0.0000000000000000e+00  1.0966226566116239e-07 -7.1656733237779472e-07 0.0000000000000000e+00  2.1602335251783400e-07 -8.2398507092481219e-07 0.0000000000000000e+00  -5.1243657621325102e-08 6.4868178483680727e-07 0.0000000000000000e+00  7.5039626120132045e-08 5.8237252605394467e-07 0.0000000000000000e+00  3.7250224848602338e-08 2.7801049334838468e-07 0.0000000000000000e+00  9.4312953467787739e-10 -5.2547958039488757e-08 0.0000000000000000e+00  4.4544037203551540e-09 -3.7077051321048646e-07 0.0000000000000000e+00  7.6080144421121643e-08 -6.5424964959233726e-07 0.0000000000000000e+00  1.0997779517940473e-07 -8.6775355655106868e-07 0.0000000000000000e+00  7.4255657660694990e-08 4.3812170441009968e-07 0.0000000000000000e+00  7.9646812450543440e-09 1.0803182670806628e-07 0.0000000000000000e+00  2.9003006248895321e-10 -2.1466155397780603e-07 0.0000000000000000e+00  2.4068876902926169e-08 -5.1431520569419801e-07 0.0000000000000000e+00  1.2185102760032128e-07 -7.7456959456083554e-07 0.0000000000000000e+00  -6.2805364710265082e-07 7.7812625477293499e-07 0.0000000000000000e+00  -1.1784372879499793e-06 5.1739645854606039e-08 0.0000000000000000e+00  -1.3598847878574922e-06 -1.4381509226119948e-06 0.0000000000000000e+00  -3.4017580926122735e-07 9.0354111253910149e-07 0.0000000000000000e+00  -1.3983956940942787e-06 5.5268802755218565e-07 0.0000000000000000e+00  -1.9279525386033238e-06 -8.1323949057390188e-07 0.0000000000000000e+00  -9.2555811471070064e-07 -2.4149805779595908e-06 0.0000000000000000e+00  -3.8025293124852891e-07 7.2084245121195008e-07 0.0000000000000000e+00  1.2485692761949347e-07 1.0561838957125581e-06 0.0000000000000000e+00  -1.1809622775502485e-06 2.1011853014059039e-07 0.0000000000000000e+00  -1.1786865709433292e-06 1.3142054035738221e-06 0.0000000000000000e+00  -1.4800437490975126e-06 -1.4230817934567698e-06 0.0000000000000000e+00  -1.9021852811822053e-06 -2.9392657256599948e-07 0.0000000000000000e+00  9.3303095634494010e-08 -2.4675061034566951e-06 0.0000000000000000e+00  -1.2494968828806548e-06 -2.2194332335250516e-06 0.0000000000000000e+00  -1.1889770004122624e+03 1.4282473475243526e+03 0.0000000000000000e+00  -6.8584623880897504e+02 5.7041367051613520e+02 0.0000000000000000e+00  -5.2359943402414117e+01 -1.0306807029525964e+03 0.0000000000000000e+00  -1.4644255596480107e+03 -7.3526558616815180e+02 0.0000000000000000e+00  -1.5450255763309840e+03 -8.0220113951335702e+02 0.0000000000000000e+00  -6.9801356950733307e+01 -1.1830202158486898e+02 0.0000000000000000e+00  -3.4667446418483360e+02 -4.8151696735481107e+02 0.0000000000000000e+00  -5.2823036252510440e+02 -6.7964481207084020e+02 0.0000000000000000e+00  -3.3998435668948269e+02 4.7744637270337466e+02 0.0000000000000000e+00  -4.5394249498870278e+02 6.1484637635222816e+02 0.0000000000000000e+00  -1.4804952549573850e+03 -3.9081149131259991e+02 0.0000000000000000e+00  -1.1140441759120006e+03 8.2889095865282320e+02 0.0000000000000000e+00  -1.0728117934338770e+03 6.8380131155366962e+02 0.0000000000000000e+00  1.3792169084181808e+01 1.7972035476765151e+02 0.0000000000000000e+00  3.9636839384396914e+01 2.5322515649670001e+02 0.0000000000000000e+00  -6.7693848972862425e-01 1.7385291164574014e+02 0.0000000000000000e+00  -6.1313692572522928e+02 2.2364625186241437e+02 0.0000000000000000e+00  2.0954251316425086e+02 3.6899913691596248e+02 0.0000000000000000e+00  3.1593082803246688e+02 3.0425599704022443e+02 0.0000000000000000e+00  2.4853309664873126e+02 -5.6296951144361094e+02 0.0000000000000000e+00  -1.4430103753655262e+03 2.1678261729385690e+02 0.0000000000000000e+00  -3.6092421799353809e+02 3.6368115116916175e+02 0.0000000000000000e+00  -2.7466095170612363e+02 -7.1937049756594115e+02 0.0000000000000000e+00  -1.3511890300039347e+03 -3.3516574763914235e+02 0.0000000000000000e+00  -7.5501647308855399e+02 6.3370896451382669e+02 0.0000000000000000e+00  -7.3723502462060573e+00 -2.7416557087970597e+02 0.0000000000000000e+00  -1.4544409800239962e+03 -8.5833921796158211e+02 0.0000000000000000e+00  -1.2695187284190656e+03 4.3724313626871680e+02 0.0000000000000000e+00  -2.0137135504026796e+02 1.1799010991796124e+03 0.0000000000000000e+00  -1.5778479174275676e+03 5.2639753162358181e+02 0.0000000000000000e+00  -1.5914141513278764e+03 1.1829796702159138e+03 0.0000000000000000e+00  -1.0281827482018989e+03 -7.5436892418950004e+02 0.0000000000000000e+00  -7.5458480168042661e+02 -3.6470079892902203e+02 0.0000000000000000e+00  3.2112773608400282e+01 -4.7408889239949573e+01 0.0000000000000000e+00  -1.2242563650551715e+03 -9.4526478222424294e+02 0.0000000000000000e+00  -8.8915043584687442e+02 -5.8688823922846314e+02 0.0000000000000000e+00  -6.8468215079558945e+02 5.3238401125071141e+02 0.0000000000000000e+00  -8.6675314079434656e+01 -5.6222547814717507e+02 0.0000000000000000e+00  -1.1723992244415522e+03 7.5095061957989685e+02 0.0000000000000000e+00  -8.5791418438908124e+02 -1.0805746486144079e+02 0.0000000000000000e+00  -1.4571355031418807e+02 -3.064981095054