<?xml version="1.0"?>
<VTKFile type="UnstructuredGrid"  version="0.1"  >
<UnstructuredGrid>
<Piece  NumberOfPoints="4153" NumberOfCells="8064">
<Points>
<DataArray  type="Float64"  NumberOfComponents="3"  format="ascii">-0.4163753685660649 -0.6435472148805108 0  -0.03734872271406491 -0.8244257365261107 0  -0.09178551276103682 -0.8184577512554246 0  -0.1449719966511407 -0.8064312854394186 0  -0.1963175907839633 -0.7889760075495816 0  -0.2457694888283877 -0.7677628907515527 0  -0.2926150226432406 -0.7409902187178157 0  -0.3366133361003785 -0.7107622523200886 0  -0.3777372529028185 -0.6779769936435682 0  0.01754512484672252 -0.8239562010605961 0  -0.4524390349514578 -0.6091280153735916 0  -0.4866108051753735 -0.5747722875248639 0  -0.5189661337853496 -0.5407816123922452 0  -0.549803165183757 -0.5076581060743464 0  -0.5795220935470439 -0.4760068433132912 0  -0.6084442177149387 -0.4461846357575858 0  -0.6366833024443862 -0.4189680036815872 0  0.6336706181969168 -0.4140575219236979 0  0.07205090416464256 -0.8171136993285401 0  0.1253606954913618 -0.804178596714027 0  0.1767816463689847 -0.7857389308952232 0  0.2257740701097025 -0.7624919998603891 0  0.2720997991818703 -0.7356648065361315 0  0.3157007233449012 -0.7060655445387333 0  0.3566595941580527 -0.6745392244016163 0  0.3951040350424441 -0.6417707327969122 0  0.4314170463958897 -0.6086243273373884 0  0.4658673056739698 -0.5755574913705777 0  0.498755127606023 -0.5430010425710545 0  0.530305397468866 -0.5113231370136757 0  0.5608621487993497 -0.4808491148707431 0  0.5905861927204211 -0.4520425797695041 0  0.6197237952115039 -0.4257448942901773 0  0.604945530756306 -0.4387654357236783 0  -0.6223461436117311 -0.4323535528765215 0  -0.5647578903729885 -0.4917536693887342 0  -0.5029883547472385 -0.5577071466299769 0  -0.4346338580865051 -0.626315532185841 0  -0.3575586331110188 -0.6945308118400487 0  -0.2695129298479785 -0.7548465555012968 0  -0.1709083080515144 -0.7984726046122566 0  -0.06467717644552232 -0.8222325584611611 0  0.5757424428614444 -0.4664311036612667 0  0.1513433389759897 -0.7955901526005437 0  0.2492796246704645 -0.7494863110691241 0  0.3364876347048064 -0.690487407070389 0  0.4135155546609566 -0.6252288563919305 0  0.4824809531076222 -0.5592116962972108 0  0.5457174552829965 -0.4960502858284711 0  0.04489901477751434 -0.8213226994307227 0  -0.6502633888497535 -0.4068614472322118 0  0.5146832241758338 -0.527052366286612 0  0.4488537718017513 -0.5920647330338231 0  0.3761870257192215 -0.6582466818394191 0  0.2942382297622803 -0.7211668183384531 0  0.2016204983091683 -0.7746643410951524 0  0.09890218747971793 -0.8113756809930849 0  -0.009903681407080199 -0.8250025490818709 0  -0.1185797318330679 -0.8131941949027507 0  -0.2211501247140651 -0.7788322833972048 0  -0.3148955061387423 -0.7260694269344382 0  -0.3976844783223603 -0.6613536408224695 0  -0.4697713341144757 -0.591953041085735 0  -0.5345868267883719 -0.5241291696460928 0  -0.5939717170590739 -0.4610288987097476 0  0.7502921835169439 -0.2249882238483337 0  0.6788587552340135 -0.3798811244179275 0  0.7185454318275183 -0.3366257923758987 0  0.7436237767991604 -0.2843455883307832 0  0.6568339295755338 -0.3974435281903372 0  0.69987295286968 -0.3595937872844635 0  0.7290310376907301 -0.3088942059080841 0  0.7456839952746157 -0.2542811176620224 0  0.6450915740235685 -0.4059877368161414 0  0.6678312302274605 -0.3878334437087998 0  0.6895028189417625 -0.369889129996727 0  0.7089244113483932 -0.3472569566484769 0  0.7266127245355575 -0.3241762178538494 0  0.735339274731166 -0.2964177201517774 0  0.7434169757107867 -0.2690313841783143 0  0.747286945783416 -0.2394714218469675 0  0.7499687628076999 -0.2058020304848422 0  0.7530792184855486 0.2267639612594615 0  0.7542084224149719 0.1886220549702889 0  0.7565815022588334 0.1499691385736112 0  0.7592152813503547 0.1107373457139049 0  0.7618262835448576 0.07089126159221953 0  0.7628733195983584 0.03057327086413391 0  0.7624906918731401 -0.009858574946777046 0  0.7606757008952062 -0.05014737875210711 0  0.7574070423955223 -0.089921651063262 0  0.7542039825956861 -0.1290963672306093 0  0.7513530740196318 -0.1676872120175178 0  0.7539887716718158 0.245861483530678 0  0.7534385217137123 0.2077457220188761 0  0.7579085558180004 0.130426604244348 0  0.7625255452851916 0.05076401267312065 0  0.7617661227343498 -0.03003774675806052 0  0.7558165842837906 -0.1095879904008027 0  0.7504391470915497 -0.1867993925641664 0  0.7553348363862785 0.1693667225182355 0  0.7606223716163849 0.09091289764987028 0  0.7628556869232581 0.01035575683675877 0  0.7591037298871971 -0.07013295248194479 0  0.7527084461727935 -0.1484653650081955 0  0.6438062671828804 0.4371503039040329 0  0.7488262031057188 0.3053945138335245 0  0.7253249606571576 0.3585881875645222 0  0.6874279395148407 0.4026343138630479 0  0.7503359445292763 0.2752532139887761 0  0.7355991124094262 0.3307948989542722 0  0.707479681949273 0.3816986142912929 0  0.6659651847249882 0.4201017151439106 0  0.7516385639463664 0.2604582621128912 0  0.7487053594017077 0.2901003795608015 0  0.7414163421386664 0.3178741368877185 0  0.7324040807999527 0.345608575151425 0  0.7160501941031818 0.3692678428289445 0  0.6975614768895316 0.3922567571790495 0  0.6766409922393305 0.4106148801315078 0  0.6546978389310881 0.4287862546727306 0  -0.02958301617108493 0.8785070991654224 0  0.6028822062138655 0.4767368771121084 0  0.5746719938906713 0.5069670313413973 0  0.545681676565786 0.539182674647122 0  0.5155726058578394 0.5730187482775401 0  0.4839321455851072 0.6079363543040516 0  0.4504535582493461 0.6435200281461139 0  0.4148193641106657 0.6793260225064837 0  0.3766697393198441 0.7149200403431279 0  0.3355828881993777 0.7492180951317107 0  0.2914105170496414 0.7814743619087139 0  0.2440611388250843 0.8107265899113292 0  0.1936232247306876 0.8361625558248599 0  0.1403661825976629 0.8563210859865279 0  0.08488786985240308 0.8704305404901559 0  0.02796181370755793 0.8778189556948761 0  0.6305128133982951 0.4492645836132997 0  -0.08669246496964493 0.871490894965777 0  -0.1423398881070677 0.8576669625947606 0  -0.1956889363506404 0.8376967038384326 0  -0.2459940128506076 0.811808952470251 0  -0.2934530735262362 0.7834692243713988 0  -0.3377236999401387 0.7520322467712182 0  -0.3789894104421045 0.7185593153751 0  -0.4174508778873227 0.6837037815038982 0  -0.4534615372180645 0.6487521842229806 0  -0.4874829867931312 0.6140262167588681 0  -0.5197879314993241 0.5799027008270198 0  -0.550666374424185 0.5467496688734613 0  -0.5804026335158676 0.5149080758800337 0  -0.6092553756357363 0.484915562196238 0  -0.6374627316886298 0.4575895742117395 0  -0.6509797374131848 0.4454750711459617 0  -0.6231429906176024 0.4710655126531869 0  -0.5656744351648452 0.5307677921974102 0  -0.5038346749009274 0.596881021944015 0  -0.4357110316487857 0.6662123205209156 0  -0.3587118588623327 0.7354502269204289 0  -0.2701137297294472 0.7981018413429365 0  -0.169326931882927 0.8482204624386369 0  -0.05824909712087386 0.8758514734582102 0  0.05656216370081766 0.8750254219325653 0  0.1673159248194916 0.8469239217407756 0  0.2681346733839475 0.7965442899839255 0  0.3564883434741909 0.7322478064502539 0  0.4329253850188544 0.6614279075446096 0  0.4999615247638357 0.5903768730451885 0  0.5602847822905064 0.5229699967058167 0  0.616487150636404 0.462789340990548 0  -0.5948399320929458 0.4998569583823401 0  -0.5353971860610668 0.5632282828140377 0  -0.4707100890807361 0.6313457913349089 0  -0.3986256527324607 0.7013091050251921 0  -0.3159619538134343 0.7680280294536996 0  -0.2215347850823013 0.8258350267286554 0  -0.1147402443433621 0.8653268579724586 0  -0.0007456219608397833 0.879055906791121 0  0.1128619964563618 0.8641767907032148 0  0.2192533971130136 0.8240726744946141 0  0.3138898740864993 0.7656591391814254 0  0.3961208403476535 0.6972337989792164 0  0.4674415323228301 0.6256757435345524 0  0.5308219807702075 0.5559784835184127 0  0.5887822282123844 0.4917671860429504 0  -0.7639983841535576 0.2544581756182294 0  -0.6951123879057153 0.4107399342751692 0  -0.7337299563133283 0.3668329323034317 0  -0.7579614816758854 0.3139631980029844 0  -0.6734770673957985 0.4283922381484722 0  -0.715569358904619 0.3899839264780012 0  -0.7440792711751759 0.3390049473244687 0  -0.7597892171707556 0.2838319159690608 0  -0.6620227387213229 0.4370943042991843 0  -0.6842602205787929 0.4187804108787099 0  -0.7054628334491497 0.400475002581026 0  -0.7243332159003176 0.3775374963244951 0  -0.7412690803961335 0.3540587522519597 0  -0.7501272969678042 0.326271575070031 0  -0.7578242136317679 0.2986515071471736 0  -0.7612721124447658 0.2690174344410674 0  -0.7634051337863074 0.2352864078822306 0  -0.7631477161976672 -0.1978297206982986 0  -0.7644899007649438 -0.1596970067638676 0  -0.7671804426588642 -0.1210534715944727 0  -0.7701661344583585 -0.08181480832965879 0  -0.7731591359418614 -0.04196065138757085 0  -0.7746308630519568 -0.001605912539417144 0  -0.7746664140947016 0.0388820976483962 0  -0.7732685813100816 0.07924691462410181 0  -0.7703580986834391 0.1191280179771205 0  -0.7674226615547909 0.1584058396269198 0  -0.7647510982148881 0.1970985210522938 0  -0.7637920880907701 -0.2169731763059616 0  -0.7636025382818729 -0.1788205029084236 0  -0.7686870738333486 -0.1015118798642258 0  -0.7740746901770988 -0.02181708627676734 0  -0.7741467184568154 0.05909692468725591 0  -0.7689067945135923 0.1388429717370656 0  -0.7638636615252901 0.2162481418325378 0  -0.7657692163877461 -0.1404493185516311 0  -0.771745464747786 -0.06198777607024396 0  -0.774823063542269 0.01863750417305865 0  -0.7718988376115457 0.09928463930555426 0  -0.7660262781351518 0.1778251177447754 0  -0.7576957304584716 -0.2763846020190711 0  -0.7332557923086581 -0.3290623595540556 0  -0.6945101443400916 -0.3726480262580694 0  -0.7596257118107617 -0.2463137622572323 0  -0.7438355825052174 -0.3014228693883972 0  -0.7150298880512846 -0.3520927015414063 0  -0.6727420677178473 -0.3900480638860738 0  -0.7611086068598141 -0.2315198744914477 0  -
[...]
<PointData  Vectors="f_48"> 
<DataArray  type="Float64"  Name="f_48"  NumberOfComponents="3" format="ascii">-1.2968936553817992e-06 4.1285844715936960e-07 0.0000000000000000e+00  -4.1150862681324469e-09 -5.7767917746789888e-08 0.0000000000000000e+00  -7.6448120338170237e-08 -1.7426501076538526e-07 0.0000000000000000e+00  -2.1076676856088674e-07 -2.5826462824082443e-07 0.0000000000000000e+00  -4.6621163187376047e-07 -2.3459884220712738e-07 0.0000000000000000e+00  -6.2863385417780290e-07 -2.1043388838996479e-07 0.0000000000000000e+00  -8.6170040200859201e-07 3.6033715707871895e-08 0.0000000000000000e+00  -9.5319074618947590e-07 -8.4454032005980152e-09 0.0000000000000000e+00  -1.1007654720207373e-06 -1.0829199460496939e-07 0.0000000000000000e+00  -3.7295385600734819e-09 7.2571046725249266e-08 0.0000000000000000e+00  -1.4211140818098143e-06 1.9329495960474682e-07 0.0000000000000000e+00  -1.5385057653827806e-06 2.1871725236663961e-07 0.0000000000000000e+00  -1.6506058064034041e-06 1.8287126036006660e-07 0.0000000000000000e+00  -1.7490110606643620e-06 1.6423449146593614e-07 0.0000000000000000e+00  -1.8024262337718182e-06 9.7918920538097961e-08 0.0000000000000000e+00  -1.7886212081318178e-06 3.6727122120621417e-08 0.0000000000000000e+00  -1.7101209169294850e-06 -2.4065411966747953e-07 0.0000000000000000e+00  -1.9341258787798060e-06 6.6684943948709900e-07 0.0000000000000000e+00  -7.8689365385624281e-08 1.9277027746777831e-07 0.0000000000000000e+00  -2.2140702050231263e-07 2.7758969028502947e-07 0.0000000000000000e+00  -4.0460392953374957e-07 3.1961593213670245e-07 0.0000000000000000e+00  -6.3611218329211506e-07 2.9499289939983873e-07 0.0000000000000000e+00  -8.6042349748742443e-07 2.4867550145076511e-07 0.0000000000000000e+00  -1.0824779048342933e-06 1.6517735049463481e-07 0.0000000000000000e+00  -1.2828413741716036e-06 9.2042500863629749e-08 0.0000000000000000e+00  -1.4827310187611600e-06 1.8139639933138809e-08 0.0000000000000000e+00  -1.6543247580186426e-06 -3.9891008061059123e-08 0.0000000000000000e+00  -1.8004736418205597e-06 -6.2380190266039319e-08 0.0000000000000000e+00  -1.9185718348772774e-06 -4.2123697545095559e-08 0.0000000000000000e+00  -2.0210175883817087e-06 3.3467929568046009e-08 0.0000000000000000e+00  -2.0774159433719721e-06 5.0903890983521185e-08 0.0000000000000000e+00  -2.0624933756130273e-06 1.0118788213523089e-07 0.0000000000000000e+00  -1.9257952090581295e-06 3.1956587747475770e-07 0.0000000000000000e+00  -2.0114441036644003e-06 3.8789629402917211e-07 0.0000000000000000e+00  -1.8142660607911009e-06 -2.1513070875133921e-07 0.0000000000000000e+00  -1.7396185310445601e-06 1.2031950033246908e-07 0.0000000000000000e+00  -1.5880112070044086e-06 2.4245290793309246e-07 0.0000000000000000e+00  -1.3451770439753691e-06 3.2695457364418865e-08 0.0000000000000000e+00  -1.1573398934682492e-06 5.1963750656585599e-07 0.0000000000000000e+00  -7.6923246754552153e-07 -2.0837914276591892e-08 0.0000000000000000e+00  -2.9633055616183196e-07 -2.7462945015181153e-07 0.0000000000000000e+00  -3.5486177421169985e-08 -1.1757994508945675e-07 0.0000000000000000e+00  -2.0070560040181679e-06 1.4151499962724794e-07 0.0000000000000000e+00  -3.1328763577567235e-07 3.0189278735876759e-07 0.0000000000000000e+00  -7.4190311895751085e-07 2.8785732203684250e-07 0.0000000000000000e+00  -1.1861962062097160e-06 1.3923425742344908e-07 0.0000000000000000e+00  -1.5674838535903445e-06 -1.0958091931008527e-08 0.0000000000000000e+00  -1.8575176995359300e-06 -7.3107792243222012e-08 0.0000000000000000e+00  -1.9870176876690147e-06 -1.6813958461551824e-08 0.0000000000000000e+00  -3.0525246345415903e-08 1.3633423631950593e-07 0.0000000000000000e+00  -1.7457240100012002e-06 -4.5731402273176477e-07 0.0000000000000000e+00  -1.9488291531103702e-06 -9.0112616614270548e-08 0.0000000000000000e+00  -1.7269294271782031e-06 -5.5403835102093902e-08 0.0000000000000000e+00  -1.3927238890548475e-06 2.0096520171711158e-08 0.0000000000000000e+00  -9.6779955519822736e-07 2.2238312347733778e-07 0.0000000000000000e+00  -5.3494694495332742e-07 2.9577382592903443e-07 0.0000000000000000e+00  -1.4129593866997062e-07 2.4167698485761403e-07 0.0000000000000000e+00  6.1411016172033065e-09 7.2250001445385568e-09 0.0000000000000000e+00  -1.5205719525292440e-07 -2.1241160390132673e-07 0.0000000000000000e+00  -3.2350402687889610e-07 -4.4269059612180651e-07 0.0000000000000000e+00  -9.5101172394572303e-07 1.1463365279757836e-07 0.0000000000000000e+00  -1.1888198578144199e-06 3.4110400498926293e-07 0.0000000000000000e+00  -1.4775418530039691e-06 1.6824548251379254e-07 0.0000000000000000e+00  -1.6664240113041151e-06 2.4167015740172227e-07 0.0000000000000000e+00  -1.7829302892539758e-06 -3.9035742197532024e-08 0.0000000000000000e+00  -6.7105712687083196e-08 -2.9617696037422035e-07 0.0000000000000000e+00  -1.1624508578370005e-06 3.4583924108331430e-07 0.0000000000000000e+00  -7.0666643397275799e-07 -1.2463852788514516e-07 0.0000000000000000e+00  -1.2600717415611102e-07 -4.6414329207495765e-07 0.0000000000000000e+00  -1.4650986925115826e-06 1.7351303628757917e-07 0.0000000000000000e+00  -9.3314207598896355e-07 -1.9117742702217046e-07 0.0000000000000000e+00  -3.9167414521560404e-07 -1.0287765896673380e-06 0.0000000000000000e+00  -1.3608313450691745e-07 -4.0504069807949931e-07 0.0000000000000000e+00  -1.5701267645082881e-06 8.8498913849655050e-07 0.0000000000000000e+00  -1.7083472300364324e-06 5.4693372705779968e-07 0.0000000000000000e+00  -1.3362271573852454e-06 1.1784975388554802e-07 0.0000000000000000e+00  -1.2294188631018258e-06 -1.7692940931782869e-07 0.0000000000000000e+00  -2.1066736513003943e-07 -5.4234951990756895e-07 0.0000000000000000e+00  -8.8250157206758932e-07 1.6734243819090481e-07 0.0000000000000000e+00  1.1694975491473557e-07 -5.4050692183804695e-07 0.0000000000000000e+00  -1.6516395557438501e-07 -4.7514116524138220e-07 0.0000000000000000e+00  2.0780054486645296e-07 -3.7365131783540369e-07 0.0000000000000000e+00  4.8438438446674792e-08 -3.6989402355968564e-08 0.0000000000000000e+00  1.5800562499009760e-08 -5.6528821877163374e-08 0.0000000000000000e+00  1.3062659870239726e-08 -8.0926542906136273e-08 0.0000000000000000e+00  1.6198248507157096e-08 -1.0631767921754783e-07 0.0000000000000000e+00  1.4040973971738481e-08 -1.4179054256261957e-07 0.0000000000000000e+00  3.7189669571227521e-09 -1.9306089017719988e-07 0.0000000000000000e+00  -1.2937048462616981e-08 -2.4160413409751023e-07 0.0000000000000000e+00  -3.8395196534981513e-08 -2.8764290144464422e-07 0.0000000000000000e+00  -5.3370506605495437e-08 -3.3240600287220571e-07 0.0000000000000000e+00  -4.1199606315564002e-08 -3.5383409665605510e-07 0.0000000000000000e+00  8.6869661922755139e-09 -3.7341881147124296e-07 0.0000000000000000e+00  1.7008266901099260e-08 5.3116650777230937e-09 0.0000000000000000e+00  8.3790126872073433e-09 -3.9475011934706080e-08 0.0000000000000000e+00  1.2912133901011304e-08 -9.4220773797560086e-08 0.0000000000000000e+00  8.4938894987838486e-09 -1.6939269114083805e-07 0.0000000000000000e+00  -2.2241496300093182e-08 -2.6516989352567497e-07 0.0000000000000000e+00  -4.6497845889552020e-08 -3.3922108082626766e-07 0.0000000000000000e+00  -2.5347285329492432e-08 -3.6396091534451633e-07 0.0000000000000000e+00  1.1825942464420589e-08 -6.7409304347562072e-08 0.0000000000000000e+00  1.9039302898738409e-08 -1.2341596485011517e-07 0.0000000000000000e+00  -3.8054787746285405e-09 -2.1786262679039306e-07 0.0000000000000000e+00  -5.8072504186784272e-08 -3.0879823416044044e-07 0.0000000000000000e+00  -4.1675293639462493e-08 -3.5829958104946576e-07 0.0000000000000000e+00  -1.5150023483216444e-06 -4.0539928110809856e-07 0.0000000000000000e+00  -4.0144407244242876e-08 1.9688125517183869e-07 0.0000000000000000e+00  -4.3529170619219656e-07 1.3314947721370216e-07 0.0000000000000000e+00  -8.6680437064061354e-07 -1.9433818677138464e-07 0.0000000000000000e+00  -2.2890679805257954e-08 1.0933582144762670e-07 0.0000000000000000e+00  -2.2461207099273377e-07 5.1397646266226703e-07 0.0000000000000000e+00  -6.6260548268103598e-07 1.8593109916406299e-07 0.0000000000000000e+00  -1.1416641006844297e-06 -1.0647802627048668e-07 0.0000000000000000e+00  -2.0259355346356309e-08 8.7412388233851695e-08 0.0000000000000000e+00  7.7713100828873641e-08 1.6231924061833713e-07 0.0000000000000000e+00  -4.4562595250499155e-07 3.1224787004019514e-08 0.0000000000000000e+00  -1.3924837082622309e-07 3.9101856019084921e-07 0.0000000000000000e+00  -8.7753796521055771e-07 1.5371350893432169e-07 0.0000000000000000e+00  -9.9199590754092865e-07 -1.7407271334197492e-09 0.0000000000000000e+00  -1.2919095484708616e-06 -4.4078598232394023e-07 0.0000000000000000e+00  -1.2667985166303263e-06 -6.0346853296916833e-07 0.0000000000000000e+00  -1.8237785746531438e-08 1.2203388796981353e-07 0.0000000000000000e+00  -1.5527234257936658e-06 7.7753485770035992e-08 0.0000000000000000e+00  -1.5574510796926532e-06 1.3893584709906730e-07 0.0000000000000000e+00  -1.5037525966212113e-06 1.9868317906014436e-07 0.0000000000000000e+00  -1.4131769978044975e-06 2.3047518207339559e-07 0.0000000000000000e+00  -1.3102100150742450e-06 2.4938133420341093e-07 0.0000000000000000e+00  -1.1958798479357164e-06 2.2930045499148949e-07 0.0000000000000000e+00  -1.0663622958277420e-06 1.8828760092724832e-07 0.0000000000000000e+00  -9.1937547235776258e-07 1.0494838231576326e-07 0.0000000000000000e+00  -7.7434099287871323e-07 3.9623317538753005e-08 0.0000000000000000e+00  -6.1240559636038227e-07 -4.7016982824969576e-08 0.0000000000000000e+00  -4.4392902170107337e-07 -1.0569738132134653e-07 0.0000000000000000e+00  -2.7086969313734559e-07 -1.4476953679091768e-07 0.0000000000000000e+00  -1.3623991623924654e-07 -1.2046024283491539e-07 0.0000000000000000e+00  -3.5588441571790636e-08 -6.0054937089212952e-08 0.0000000000000000e+00  4.0995089066769499e-09 3.0518946552316369e-08 0.0000000000000000e+00  -1.4880228495462566e-06 -1.5476579635798227e-07 0.0000000000000000e+00  -1.2288841880564511e-07 1.8373258055505101e-07 0.0000000000000000e+00  -2.6026522925094780e-07 2.1019097846666971e-07 0.0000000000000000e+00  -2.9193606185416116e-07 3.3136302113844856e-07 0.0000000000000000e+00  -6.7115316347582792e-07 5.6601902699929557e-08 0.0000000000000000e+00  -8.1365260855916580e-07 5.1655641017253926e-08 0.0000000000000000e+00  -9.6942091515486530e-07 1.4609420922037736e-08 0.0000000000000000e+00  -1.1291664532458057e-06 -2.6498014229663936e-08 0.0000000000000000e+00  -1.2976568396312465e-06 -1.5259767885050017e-07 0.0000000000000000e+00  -1.4404984333548758e-06 -1.4979542730221737e-07 0.0000000000000000e+00  -1.5657838921531913e-06 -1.7627450010115757e-07 0.0000000000000000e+00  -1.6700499408920295e-06 -1.6280319208244946e-07 0.0000000000000000e+00  -1.7542616882384853e-06 -1.2088143214632826e-07 0.0000000000000000e+00  -1.8004700565500422e-06 -1.0579300387237229e-07 0.0000000000000000e+00  -1.7831735759423048e-06 -4.7369411658293540e-08 0.0000000000000000e+00  -1.6899518866746055e-06 2.0155309665848745e-07 0.0000000000000000e+00  -1.7209737235792729e-06 4.6510603937254245e-07 0.0000000000000000e+00  -1.7847150674721560e-06 2.1476546799097535e-07 0.0000000000000000e+00  -1.7269587047534524e-06 -1.4093707465701923e-07 0.0000000000000000e+00  -1.6105693784633117e-06 -2.0156629373298009e-07 0.0000000000000000e+00  -1.3709706910410917e-06 -1.1562522500835692e-07 0.0000000000000000e+00  -1.0666072126381500e-06 -5.9556843087917680e-08 0.0000000000000000e+00  -6.0449712661903301e-07 3.3989095037132830e-07 0.0000000000000000e+00  -4.3360555850374575e-07 1.3511935296462813e-07 0.0000000000000000e+00  -6.4634507424051012e-08 1.5253800394186683e-07 0.0000000000000000e+00  -2.2327110034537560e-10 -2.1407261577132895e-08 0.0000000000000000e+00  -2.0710810658253663e-07 -1.3207579877377199e-07 0.0000000000000000e+00  -5.1765364831210256e-07 -1.0754689896374734e-07 0.0000000000000000e+00  -8.5297796405851497e-07 7.8091586010029600e-08 0.0000000000000000e+00  -1.1324465199291571e-06 1.9454575094841860e-07 0.0000000000000000e+00  -1.3547166154421844e-06 2.7710899345773372e-07 0.0000000000000000e+00  -1.4958816750666980e-06 1.7549342491984411e-07 0.0000000000000000e+00  -1.5664464511094568e-06 -1.4804571281016842e-07 0.0000000000000000e+00  -1.7613369281507876e-06 1.6116177504866514e-08 0.0000000000000000e+00  -1.6857117468147219e-06 -2.0244543472649253e-07 0.0000000000000000e+00  -1.5027679765109416e-06 -1.7647128930590900e-07 0.0000000000000000e+00  -1.2133386119426658e-06 -1.6798326307127338e-07 0.0000000000000000e+00  -8.7485797517865386e-07 1.0072031975351386e-07 0.0000000000000000e+00  -6.6006048844325294e-07 -2.3471448454319207e-08 0.0000000000000000e+00  -1.8242456772066830e-07 2.0313678133773869e-07 0.0000000000000000e+00  2.1344341063508061e-08 7.6441313426086874e-08 0.0000000000000000e+00  -7.5349825226356436e-08 -9.8812640363591120e-08 0.0000000000000000e+00  -3.7466856858943959e-07 -1.0523231496938173e-07 0.0000000000000000e+00  -6.9060038571140976e-07 -2.2937703527474341e-08 0.0000000000000000e+00  -9.9728410252801270e-07 1.9610233657178143e-07 0.0000000000000000e+00  -1.2538144514350717e-06 2.4574247295945671e-07 0.0000000000000000e+00  -1.4301243403138868e-06 2.7277460773507331e-07 0.0000000000000000e+00  -1.5368732369632924e-06 3.2414039519883833e-08 0.0000000000000000e+00  -1.3477829199489623e-08 -1.4227323894600950e-07 0.0000000000000000e+00  -1.0063368533848072e-06 2.4941859824094939e-07 0.0000000000000000e+00  -5.6008644993236084e-07 -1.3795758689415064e-07 0.0000000000000000e+00  -7.8868580290103188e-08 -3.1777786812055807e-07 0.0000000000000000e+00  -1.2919231862749227e-06 1.3015440415560067e-07 0.0000000000000000e+00  -7.8453542465231779e-07 -1.9783944855090651e-07 0.0000000000000000e+00  -2.9673637811053953e-07 -7.4173659755350386e-07 0.0000000000000000e+00  -7.0724285557183534e-08 -2.5116120360020448e-07 0.0000000000000000e+00  -1.4368218409506013e-06 7.0618080134540631e-07 0.0000000000000000e+00  -1.4878413512314566e-06 4.7198356424873930e-07 0.0000000000000000e+00  -1.1529402085474151e-06 4.0991493014759967e-08 0.0000000000000000e+00  -1.0385142713410657e-06 -1.7549866222704101e-07 0.0000000000000000e+00  -1.6965010741067173e-07 -4.6637967607459016e-07 0.0000000000000000e+00  -6.4674467896459864e-07 3.5964165850916256e-08 0.0000000000000000e+00  9.9059365697888340e-08 -3.3500111602351649e-07 0.0000000000000000e+00  -8.5936881973799887e-08 -2.6498018937069204e-07 0.0000000000000000e+00  1.2494597385948639e-07 -1.5435680145402946e-07 0.0000000000000000e+00  1.4391827684692254e-07 1.9489349453115508e-07 0.0000000000000000e+00  1.4666682924757208e-08 1.8320822514010839e-07 0.0000000000000000e+00  -1.4978650327338492e-08 1.6123628004537027e-07 0.0000000000000000e+00  -2.1052340371871324e-08 1.3804378517699453e-07 0.0000000000000000e+00  -1.0837932360367374e-08 9.7353515058698987e-08 0.0000000000000000e+00  -1.6221259141416193e-09 4.8624625936370812e-08 0.0000000000000000e+00  2.1774215608801447e-10 -2.7884802531529909e-10 0.0000000000000000e+00  -5.0651115804722346e-09 -4.9818497838735644e-08 0.0000000000000000e+00  -1.3390722592198143e-08 -8.9966775902559827e-08 0.0000000000000000e+00  -9.5337289990745809e-09 -1.1500002100054416e-07 0.0000000000000000e+00  1.3894669696004612e-08 -1.3910301230410978e-07 0.0000000000000000e+00  -1.5833907802180112e-08 1.6788897810836138e-07 0.0000000000000000e+00  -1.5543378966428042e-08 1.8405416280521908e-07 0.0000000000000000e+00  -1.7156309407567962e-08 1.4741467521223987e-07 0.0000000000000000e+00  -4.5653233836713029e-09 7.2480286474411775e-08 0.0000000000000000e+00  -1.2008833482112913e-09 -2.4233536615410393e-08 0.0000000000000000e+00  -1.1129141268847063e-08 -1.0062450729522516e-07 0.0000000000000000e+00  -1.1666979615340787e-08 -1.4403942680915794e-07 0.0000000000000000e+00  -1.6419299371367639e-08 1.6980558275435796e-07 0.0000000000000000e+00  -2.0416479864036693e-08 1.1694011888784491e-07 0.0000000000000000e+00  2.8120380507339544e-10 2.4238380020250758e-08 0.0000000000000000e+00  -1.1831229522056275e-08 -6.9226779694468980e-08 0.0000000000000000e+00  -1.1435494607614942e-08 -1.2534196030798184e-07 0.0000000000000000e+00  -9.2502720278345397e-08 3.3418949105795919e-07 0.0000000000000000e+00  -5.8172559795592525e-07 1.3965448603306049e-07 0.0000000000000000e+00  -1.0234362277801182e-06 -2.6907917322486034e-07 0.0000000000000000e+00  -7.6513534277642322e-08 2.8000237080468859e-07 0.0000000000000000e+00  -3.1767022519172954e-07 7.6288315872808393e-07 0.0000000000000000e+00  -8.0848304756105534e-07 1.8945147360519632e-07 0.0000000000000000e+00  -1.3091647098696346e-06 -1.7987454649099867e-07 0.0000000000000000e+00  -9.7179536411300960e-08 2.9738263037561802e-07 0.0000000000000000e+00  9.8930392776019391e-08 3.6604881932327201e-07 0.0000000000000000e+00  -6.7335949068489125e-07 -2.0774068876443972e-08 0.0000000000000000e+00  -1.9692917612011571e-07 4.8459874715279034e-07 0.0000000000000000e+00  -1.0750952204540794e-06 1.7149192649103133e-07 0.0000000000000000e+00  -1.1844582756673178e-06 -5.9670902456376145e-08 0.0000000000000000e+00  -1.5072214143014922e-06 -5.1662724978345816e-07 0.0000000000000000e+00  -1.4733865723136016e-06 -7.5897605379009604e-07 0.0000000000000000e+00  -1.0467425395426319e+03 7.0943529408022687e+02 0.0000000000000000e+00  -1.0640433874054861e+03 6.9157787688085841e+02 0.0000000000000000e+00  -9.2940114704360695e+01 -3.3012094101161040e+02 0.0000000000000000e+00  -1.3037494916770295e+03 -4.1171908009262644e+01 0.0000000000000000e+00  -1.1602139690386994e+03 3.8633485426279606e+00 0.0000000000000000e+00  -1.5559376582015037e+02 -4.0729179946848211e+02 0.0000000000000000e+00  -2.0343426742680873e+02 -3.8942398570960665e+02 0.0000000000000000e+00  -1.3015933463524871e+02 -2.7192587288420134e+02 0.0000000000000000e+00  -1.4282286159315186e+02 2.9071162464410253e+02 0.0000000000000000e+00  -7.2037483063822592e+01 1.6265700131892007e+02 0.0000000000000000e+00  -6.5193757666942315e+02 2.8721488824524687e+02 0.0000000000000000e+00  -4.7275328058994597e+02 5.2316767816476749e+02 0.0000000000000000e+00  -1.0242289721951809e+03 4.3500372867248240e+02 0.0000000000000000e+00  -5.7129889484863277e+01 -4.0129874200821490e+02 0.0000000000000000e+00  -2.1837411908963639e+02 -5.2675310476508821e+02 0.0000000000000000e+00  -7.2836325402797462e+00 -2.1691730502832658e+02 0.0000000000000000e+00  -9.2926415552591050e+02 -2.9026403194137129e+02 0.0000000000000000e+00  -5.7137552865655471e+02 -1.0212148389708665e+02 0.0000000000000000e+00  4.2783787986800963e+00 1.4458730392176813e+01 0.0000000000000000e+00  -8.1989402060561559e+01 -9.0858735501267148e+01 0.0000000000000000e+00  -1.1074854528958736e+03 2.8900231092623227e+02 0.0000000000000000e+00  -7.7739521426133410e+02 1.9167295845086343e+02 0.0000000000000000e+00  -8.4513351189975523e+01 -3.3820664325739523e+02 0.0000000000000000e+00  -7.9478281869396505e+02 3.1027796003885663e+02 0.0000000000000000e+00  -6.3508061138920937e+02 6.5388671822014737e+02 0.0000000000000000e+00  6.5850085180131834e-01 1.6039907272638331e+01 0.0000000000000000e+00  -6.9568687738485380e+02 -6.7504203375645466e+02 0.0000000000000000e+00  -9.3332213151211954e+02 -2.8123831831458602e+02 0.0000000000000000e+00  -2.0157472547220252e+02 6.1121364361129326e+02 0.0000000000000000e+00  -7.9578818264258678e+02 -3.0594746971145435e+02 0.0000000000000000e+00  -1.2701966450195409e+03 6.4515010740875027e+01 0.0000000000000000e+00  -9.7237236488559313e+02 -5.8266067178204446e+02 0.0000000000000000e+00  -1.6585102799431652e+03 -3.2310145682332268e+02 0.0000000000000000e+00  -2.5062997391478933e+02 5.9417414544189523e+02 0.0000000000000000e+00  -1.0715628275022912e+03 -7.5385131936926791e+02 0.0000000000000000e+00  -9.4666053336373761e+02 -7.6946470544542478e+02 0.0000000000000000e+00  -1.1196621176077222e+03 5.2273054401609545e+02 0.0000000000000000e+00  -4.2796711021419389e+00 -1.2267364499354382e+02 0.0000000000000000e+00  -1.3436064877432038e+03 1.2205063581615940e+