<?xml version="1.0"?>
<VTKFile type="UnstructuredGrid"  version="0.1"  >
<UnstructuredGrid>
<Piece  NumberOfPoints="4153" NumberOfCells="8064">
<Points>
<DataArray  type="Float64"  NumberOfComponents="3"  format="ascii">-0.4158300201032685 -0.5787319218089126 0  -0.04353056658204696 -0.7083137139595197 0  -0.0938538724769943 -0.704201147686642 0  -0.1434719319256795 -0.6958904584967327 0  -0.1921318228771157 -0.683990283250395 0  -0.2399899700355037 -0.6697129330691743 0  -0.2865399004058166 -0.6508232473836877 0  -0.331370309301768 -0.628846217922034 0  -0.3744656090304834 -0.6047167309536521 0  0.007071196238962633 -0.7078693484815504 0  -0.4557231565204216 -0.5531355195001034 0  -0.4946660886631702 -0.527760907472492 0  -0.532730024009717 -0.5028786026595428 0  -0.5700323715526271 -0.478855978226151 0  -0.6068814268752497 -0.4561790689244311 0  -0.6433273580379688 -0.4349676563006636 0  -0.6795173874973562 -0.4161071726067975 0  0.6663557230981256 -0.4220636939446554 0  0.05747413093514465 -0.7029077826014997 0  0.1072224142147701 -0.6936134680188152 0  0.1559209328303332 -0.6803927303622431 0  0.2032673837564556 -0.6637615342295893 0  0.249141080959909 -0.644642929513513 0  0.2935621148244403 -0.6236540478446833 0  0.3366007786776848 -0.6013775783175196 0  0.3783486063835345 -0.5783521973058084 0  0.4190217694845016 -0.5551244137758033 0  0.4587779212923153 -0.532048453475468 0  0.4977699072538257 -0.5094088447818765 0  0.5361078133070138 -0.4875365967558885 0  0.5739229131137268 -0.466555471449005 0  0.6112934014695254 -0.4469031502058395 0  0.6483863722496179 -0.4293304477346049 0  0.6297169673504164 -0.4381219681019433 0  -0.6612320530357837 -0.4254632874497306 0  -0.5885118107018067 -0.4674180874699876 0  -0.5137888666178794 -0.5152423057324005 0  -0.4358601383739385 -0.5658612317042679 0  -0.3531343725367239 -0.6169133552854821 0  -0.2634755447835411 -0.6607266159590135 0  -0.1679278845881527 -0.6904029633558109 0  -0.06875679599804867 -0.7068112641209648 0  0.5926386445602008 -0.4566776822463108 0  0.1317237402062864 -0.6874573782537649 0  0.226387718200158 -0.6544749385766697 0  0.3152434829521156 -0.6126522678638868 0  0.3988129153710182 -0.5667448858697984 0  0.4783564515250543 -0.5206738280943942 0  0.5550875276065517 -0.4769538675366897 0  0.03232676559417498 -0.7059474073529221 0  -0.6970194754202024 -0.4081659970107355 0  0.5169983031019552 -0.4983488214778342 0  0.4390036392632437 -0.5435550192948009 0  0.3576210500607749 -0.5899041376748613 0  0.2715303044287089 -0.6343511616272031 0  0.1797827852390276 -0.6724561856598887 0  0.08245691841944153 -0.6987814352278765 0  -0.01823308254303175 -0.7086680284866067 0  -0.1187721597024681 -0.7005452295010179 0  -0.2160830131847312 -0.677243894220505 0  -0.3091650523857785 -0.6401212566763159 0  -0.3954849766030805 -0.5919907552791073 0  -0.4753147869377815 -0.5404187054600342 0  -0.5514656177000363 -0.4907126271884815 0  -0.6251148007945022 -0.4455224969436369 0  0.8119767083788452 -0.2360126545380256 0  0.7234634476747804 -0.3970752750561254 0  0.7721156498973816 -0.3554491420895105 0  0.8033372069009753 -0.2999575568319361 0  0.6953198646043547 -0.4101030048429927 0  0.7487307742162913 -0.3774898012280339 0  0.7862920374382573 -0.3265951064160773 0  0.8067729601318488 -0.2676053528810858 0  0.6810359650280254 -0.41703650133901 0  0.7093215110382801 -0.4030192450647439 0  0.7361777678559502 -0.3874595216468238 0  0.7600352756287919 -0.3656810698144481 0  0.7806990980433861 -0.3418358526260122 0  0.7941540910126224 -0.3131077947541305 0  0.8044111369856165 -0.2835784652635047 0  0.8088325676867961 -0.2516954878850398 0  0.8113456856722473 -0.2153776056436995 0  0.816293814689989 0.2413255798053323 0  0.8159817333409148 0.2004464505714093 0  0.8169995530648149 0.1593845077749112 0  0.8185786188208689 0.1180110487581612 0  0.8204275910589489 0.07621877366844731 0  0.8210686140779699 0.03407733834496993 0  0.8205676491236625 -0.008149723440992076 0  0.8189271754419376 -0.05028357995191823 0  0.8161480182548821 -0.09205476133207478 0  0.8136780200637402 -0.1334270043160952 0  0.8118030589535929 -0.1744902310389636 0  0.8175311944497728 0.2619172943239571 0  0.8159202323015462 0.220895706427054 0  0.8177516161748921 0.1387418797070645 0  0.8208914181152688 0.05517095618530506 0  0.8198933522885568 -0.02924025006489369 0  0.8148768966547716 -0.1127859806638119 0  0.811351439262235 -0.1949464133052957 0  0.816397081779768 0.179948856630747 0  0.8195644514807822 0.09718878994707407 0  0.8209564225678351 0.01296345986111367 0  0.8175802273616724 -0.07124128278189379 0  0.8126449178394533 -0.1539925699253347 0  0.6782582318196682 0.4508230701891749 0  0.8106739210376064 0.326109139668075 0  0.7811374031275716 0.3823938045505135 0  0.7340361675037803 0.4250479815379543 0  0.813388517437607 0.2936425246069813 0  0.7948096764174656 0.3533439176671316 0  0.7585452758803403 0.4048251608068177 0  0.7064889074305086 0.4384315337852547 0  0.8150498101322469 0.2776920122725227 0  0.8115080046340371 0.3096915899171858 0  0.8021948943388579 0.3395689172257974 0  0.7892007743034686 0.3684895373123989 0  0.7694483805251687 0.3928201999442953 0  0.7463552729789171 0.4150655222212245 0  0.7201900733656444 0.4312289197823795 0  0.6925056768080152 0.445420910377665 0  -0.03357941707436909 0.7848272046265945 0  0.6250353152531285 0.4781942089989448 0  0.588932433383803 0.499950727230735 0  0.5524185730662917 0.5233374465978498 0  0.5153965818087359 0.5481783081497542 0  0.477593389858968 0.5740527666547691 0  0.4388513116591949 0.6006275002406616 0  0.3989784644078879 0.6275719034670331 0  0.3577261399609976 0.6545683545185136 0  0.3147916622098991 0.680781038175164 0  0.2700591174765223 0.7056337332294483 0  0.2234319591237147 0.7284263173875075 0  0.1748724029320101 0.7485261653559521 0  0.124498917004747 0.7646975333738724 0  0.07266297276439583 0.7763842031190958 0  0.01981736543357117 0.7830678917638207 0  0.6609122827949715 0.4589000257551411 0  -0.08685297327525565 0.7803476182719171 0  -0.1392440991310658 0.7703503649320381 0  -0.1901812404513515 0.7554277594504276 0  -0.2390238496173799 0.7354894788534632 0  -0.2858524977828071 0.7136350256418181 0  -0.3308063602521779 0.6898013235426952 0  -0.3739908883029718 0.6645747383701457 0  -0.4154840848278876 0.6383383793879648 0  -0.4556269165660748 0.6122748595774631 0  -0.4947068778766404 0.5865350390694969 0  -0.5328917723743348 0.5613879795013339 0  -0.5703357932344598 0.5371092694255131 0  -0.6071619779755673 0.5139402629745921 0  -0.6435367602844833 0.4923558306224051 0  -0.6796625979274143 0.4731683916588439 0  -0.6971351459413042 0.4651644326705205 0  -0.6614429398552961 0.4827128584115025 0  -0.58882254318337 0.525403505964901 0  -0.5139014590258567 0.5738750343538835 0  -0.4356905954266544 0.6252750857168209 0  -0.3526083448295376 0.6773064483837459 0  -0.2626723968277775 0.7248567583265716 0  -0.1649176834126888 0.7633650857020859 0  -0.06027897239241298 0.7832777752665009 0  0.04633923547736313 0.7803984100353273 0  0.1498932338059221 0.7571136564517483 0  0.2469832986239931 0.7173329804060784 0  0.3364707454733173 0.6678022325718141 0  0.4190662911488111 0.6140737108028239 0  0.4965959938628158 0.5610104045441231 0  0.5707344018710889 0.5115159159037211 0  0.6427979977194708 0.4684652055355156 0  -0.6253766466879321 0.5030754266000226 0  -0.5516958084832274 0.5491325716184878 0  -0.4752892786347431 0.599347953771254 0  -0.3949668461837121 0.6515335655491962 0  -0.3085562307772148 0.7019235794583094 0  -0.2149824845896673 0.7460274974046726 0  -0.1131960366429964 0.7759922909819759 0  -0.006806643537046079 0.7846561782048745 0  0.09873828806190432 0.7711366453954528 0  0.1994125280086612 0.7389227385541384 0  0.2926581833518703 0.6934228202706179 0  0.3785586136496158 0.6411130500983866 0  0.4583509820717819 0.587276429022826 0  0.5339962150907334 0.53559601510177 0  0.6070034659087387 0.4889946506170763 0  -0.8382126061877166 0.276510591119995 0  -0.753133583002456 0.4391977997833733 0  -0.800591547120697 0.3966613279445257 0  -0.8306188532410186 0.3405969675209888 0  -0.7254958992487517 0.4526522403437609 0  -0.7778107561765811 0.4190591714730148 0  -0.8143226938191596 0.3676005235584905 0  -0.8335919686405585 0.3081698806622998 0  -0.7114700834332894 0.4597605998283996 0  -0.7392402847350423 0.4453834703058918 0  -0.765540940503013 0.4292683559463348 0  -0.7888033698353225 0.40705797797599 0  -0.8088123573606099 0.3828303404553332 0  -0.8218686629995101 0.3539358518962427 0  -0.8315155156550544 0.324189571281431 0  -0.8354218401601868 0.2922407568134136 0  -0.8372616985316699 0.2559038072039048 0  -0.8377253637492711 -0.2004513102788956 0  -0.8376964094285292 -0.1596122252507284 0  -0.8390605184109146 -0.1185927493713935 0  -0.8410098480622858 -0.07725907502465018 0  -0.843252233328422 -0.03551523401494001 0  -0.8443350754527326 0.006585670128228681 0  -0.8442975584402634 0.04877633357237232 0  -0.8431456638700727 0.0908803587736919 0  -0.8408461632923703 0.1326382783047783 0  -0.8388097013923294 0.173991857265012 0  -0.8373404283079663 0.2150369634569756 0  -0.8387426506699222 -0.2210475589796944 0  -0.8374867514319521 -0.180042922102059 0  -0.8399991765783827 -0.0979711654783301 0  -0.8439359019607344 -0.01448794501314316 0  -0.8438623435306818 0.0698510021996339 0  -0.8397930014011953 0.1533591366054809 0  -0.8370744215775857 0.2354803390790689 0  -0.8382815273958097 -0.1391365999740338 0  -0.8421810570128777 -0.05646054155171973 0  -0.8444517962398154 0.02768086218617141 0  -0.8420493567730266 0.111830575721436 0  -0.8379812134077838 0.1945477106133711 0  -0.8311257031314951 -0.285072570325543 0  -0.8008504471284172 -0.340890967452915 0  -0.7531983640084412 -0.3830191051581803 0  -0.8341823095067873 -0.2526945338358664 0  -0.8147996770445064 -0.312029305366707 0  -0.7779861577387175 -0.3631537283794305 0  -0.7254328871271495 -0.3961527793801046 0  -0.8360022374126472 -0.2367731688841505 0  -0.832094847964
[...]
<PointData  Vectors="f_48"> 
<DataArray  type="Float64"  Name="f_48"  NumberOfComponents="3" format="ascii">-1.9413721232407009e-06 -5.7734121950613838e-07 0.0000000000000000e+00  -3.2976366563276798e-09 -9.7446671694480484e-08 0.0000000000000000e+00  -1.0403553863944281e-07 -3.4662402622782837e-07 0.0000000000000000e+00  -2.8603188096391695e-07 -5.6739319681019967e-07 0.0000000000000000e+00  -5.8390678141276155e-07 -7.2507253800185602e-07 0.0000000000000000e+00  -7.3043434372889704e-07 -8.5251474807699193e-07 0.0000000000000000e+00  -1.1731082494058745e-06 -6.8595743734524020e-07 0.0000000000000000e+00  -1.4377125639912451e-06 -6.2770818872868708e-07 0.0000000000000000e+00  -1.5557634513836289e-06 -8.0141876843412595e-07 0.0000000000000000e+00  -8.9845933678869694e-09 1.6514256767046242e-07 0.0000000000000000e+00  -1.9734502382541721e-06 -9.1028398583168061e-07 0.0000000000000000e+00  -2.1015574944310628e-06 -9.9924429364273575e-07 0.0000000000000000e+00  -2.1579682804157598e-06 -1.1348660612774956e-06 0.0000000000000000e+00  -2.1687485212552083e-06 -1.3195158442027175e-06 0.0000000000000000e+00  -2.1046801753951867e-06 -1.4763930112794287e-06 0.0000000000000000e+00  -2.0069674495477127e-06 -1.5672160795272680e-06 0.0000000000000000e+00  -1.7321307078635709e-06 -1.5877761111579656e-06 0.0000000000000000e+00  -1.1944653150247573e-06 2.2925395424343722e-06 0.0000000000000000e+00  -1.2209215128911079e-07 4.1433033059707475e-07 0.0000000000000000e+00  -3.3141271665250212e-07 6.2274437877147880e-07 0.0000000000000000e+00  -6.0238094464778577e-07 7.8097732955997131e-07 0.0000000000000000e+00  -9.2819485375734384e-07 8.8702742388985617e-07 0.0000000000000000e+00  -1.2332120675911631e-06 9.8352753680596405e-07 0.0000000000000000e+00  -1.5328918034356940e-06 1.0536852358356025e-06 0.0000000000000000e+00  -1.8047932045257086e-06 1.1096362280805095e-06 0.0000000000000000e+00  -2.0194233071866243e-06 1.2169453203695387e-06 0.0000000000000000e+00  -2.1952508857591643e-06 1.3112712195801948e-06 0.0000000000000000e+00  -2.3081471137040382e-06 1.4196755427443153e-06 0.0000000000000000e+00  -2.3683345426580773e-06 1.5125989694151708e-06 0.0000000000000000e+00  -2.3100785084627109e-06 1.7010173816785265e-06 0.0000000000000000e+00  -2.2513593150527452e-06 1.8301297559500342e-06 0.0000000000000000e+00  -2.1169641476687239e-06 1.9470477653216998e-06 0.0000000000000000e+00  -1.8778832549112263e-06 1.8973586098637143e-06 0.0000000000000000e+00  -1.8212999366106936e-06 1.9032841059033444e-06 0.0000000000000000e+00  -1.7152307614536823e-06 -1.6940681517242246e-06 0.0000000000000000e+00  -2.1317771379376054e-06 -1.2867684556275760e-06 0.0000000000000000e+00  -2.1369669942826659e-06 -1.0653065135720784e-06 0.0000000000000000e+00  -1.8927597972668138e-06 -9.1315248977575705e-07 0.0000000000000000e+00  -1.6048330048458356e-06 -5.7213462145075823e-07 0.0000000000000000e+00  -1.0480210128112216e-06 -6.7591092415608921e-07 0.0000000000000000e+00  -4.0704220408693779e-07 -6.4786096232212200e-07 0.0000000000000000e+00  -4.3627090558478951e-08 -2.2423656880825053e-07 0.0000000000000000e+00  -2.1718106555263292e-06 1.6893492246888406e-06 0.0000000000000000e+00  -4.6258260045852812e-07 7.0877465535606826e-07 0.0000000000000000e+00  -1.0771348469326962e-06 9.4202661100977128e-07 0.0000000000000000e+00  -1.6629172643603441e-06 1.0964501204513353e-06 0.0000000000000000e+00  -2.1192420925171155e-06 1.2495042294799528e-06 0.0000000000000000e+00  -2.3354746505571728e-06 1.4700421547058202e-06 0.0000000000000000e+00  -2.3262224567680590e-06 1.6086429677583186e-06 0.0000000000000000e+00  -5.0827170479187804e-08 2.9391147925238367e-07 0.0000000000000000e+00  -1.2500702029721836e-06 -2.0502013955582645e-06 0.0000000000000000e+00  -2.3648990911059157e-06 1.5719772542591701e-06 0.0000000000000000e+00  -2.2572128308662821e-06 1.3579604049340826e-06 0.0000000000000000e+00  -1.9301192117346722e-06 1.1529654357681052e-06 0.0000000000000000e+00  -1.3840990860908215e-06 1.0192974172384508e-06 0.0000000000000000e+00  -7.8292863856453620e-07 8.2543535960508795e-07 0.0000000000000000e+00  -2.1495767715528581e-07 5.2547942227272649e-07 0.0000000000000000e+00  8.4691870484930015e-09 3.3983393881964927e-08 0.0000000000000000e+00  -2.0122328082312704e-07 -4.5407964703469795e-07 0.0000000000000000e+00  -3.4735660440608895e-07 -9.8126192751869512e-07 0.0000000000000000e+00  -1.3023056866583086e-06 -6.7527277444286296e-07 0.0000000000000000e+00  -1.8742586683795766e-06 -3.6637592617521027e-07 0.0000000000000000e+00  -2.0500369475496559e-06 -9.3764759976455926e-07 0.0000000000000000e+00  -2.2006116937943840e-06 -1.1284967239709892e-06 0.0000000000000000e+00  -2.0068498170695530e-06 -1.3951704053262484e-06 0.0000000000000000e+00  -6.2700222240228877e-08 -4.2967640320364334e-07 0.0000000000000000e+00  -1.2230265865528782e-06 7.6208701683163970e-07 0.0000000000000000e+00  -8.5121188496916421e-07 -7.2018563110216702e-08 0.0000000000000000e+00  -3.0609057230827390e-07 -6.0659002425609222e-07 0.0000000000000000e+00  -1.8058786917967976e-06 9.2985191770092521e-07 0.0000000000000000e+00  -1.2855408197270628e-06 1.3959500342939384e-08 0.0000000000000000e+00  -8.4296921220624600e-07 -1.0001922627349511e-06 0.0000000000000000e+00  -1.7256500091250545e-07 -6.1229463997797353e-07 0.0000000000000000e+00  -1.2782752890560134e-06 1.5610352815749604e-06 0.0000000000000000e+00  -1.2875658800642255e-06 1.7860836949238858e-06 0.0000000000000000e+00  -1.5751653998047445e-06 4.5710224084069064e-07 0.0000000000000000e+00  -1.6057113400059661e-06 3.4275871254090356e-07 0.0000000000000000e+00  -4.7194514410198414e-07 -8.8020871829822900e-07 0.0000000000000000e+00  -1.0054851013828354e-06 1.1809544812620280e-07 0.0000000000000000e+00  1.7200736952691440e-07 -7.0895588582106066e-07 0.0000000000000000e+00  -2.4790737650553019e-07 -5.9629665384724094e-07 0.0000000000000000e+00  3.3029719804277515e-07 -4.9592638656050064e-07 0.0000000000000000e+00  1.3656312574501191e-07 9.2012798330962375e-08 0.0000000000000000e+00  3.0249355183852808e-08 3.8635905013216184e-08 0.0000000000000000e+00  8.9289565350299668e-09 -1.9573101135602532e-08 0.0000000000000000e+00  7.1249051218238465e-09 -7.2617629996155546e-08 0.0000000000000000e+00  9.2452112302965063e-09 -1.3140348881149510e-07 0.0000000000000000e+00  1.0928578508939149e-09 -2.0156593693762442e-07 0.0000000000000000e+00  -1.3311675797758876e-08 -2.6803782895979592e-07 0.0000000000000000e+00  -3.6828147183282731e-08 -3.3295037838228653e-07 0.0000000000000000e+00  -4.2436546769192458e-08 -4.0041188507278001e-07 0.0000000000000000e+00  -1.4031156468163041e-08 -4.4449182266860564e-07 0.0000000000000000e+00  5.9546426851427572e-08 -4.8454916240741090e-07 0.0000000000000000e+00  1.3780596687960184e-08 1.3259470795436677e-07 0.0000000000000000e+00  1.1892140649362135e-08 7.1099095061808809e-08 0.0000000000000000e+00  6.2227060254951593e-09 -4.7803486357991571e-08 0.0000000000000000e+00  4.9595681522022061e-09 -1.6850919079807189e-07 0.0000000000000000e+00  -2.1407210705455700e-08 -3.0062384315471805e-07 0.0000000000000000e+00  -2.7657993123758389e-08 -4.1922483480029359e-07 0.0000000000000000e+00  1.1667483381405059e-08 -4.9132073143206736e-07 0.0000000000000000e+00  9.5124923622005931e-09 9.1373964668983859e-09 0.0000000000000000e+00  1.1147097103972874e-08 -1.0435534777494060e-07 0.0000000000000000e+00  -5.2052278465131698e-09 -2.3526560204142705e-07 0.0000000000000000e+00  -5.2703962100224936e-08 -3.6309251763237625e-07 0.0000000000000000e+00  -7.1452420840603023e-09 -4.6207478012130611e-07 0.0000000000000000e+00  -1.1944630321741732e-06 -1.8735999651197609e-06 0.0000000000000000e+00  -1.5882111748729071e-07 3.7469577145884500e-07 0.0000000000000000e+00  -6.3276702662517260e-07 1.0676602764744362e-07 0.0000000000000000e+00  -1.0451566033006270e-06 -5.6452383188052781e-07 0.0000000000000000e+00  -6.5806595644730644e-08 2.9835982912543425e-07 0.0000000000000000e+00  -5.5828121637684682e-07 6.6808977490310163e-07 0.0000000000000000e+00  -1.0325200690714817e-06 3.6437276533817342e-08 0.0000000000000000e+00  -1.5064303166225630e-06 -7.5825962277870107e-07 0.0000000000000000e+00  -8.0192204292235161e-08 2.4812438810124909e-07 0.0000000000000000e+00  1.2862846473452036e-07 3.6807397049211507e-07 0.0000000000000000e+00  -6.6147531604426009e-07 2.3794178890068476e-08 0.0000000000000000e+00  -3.4657977044361125e-07 6.8192905909736680e-07 0.0000000000000000e+00  -1.2827099204817803e-06 -2.0993949923242242e-07 0.0000000000000000e+00  -1.3018543351831796e-06 -2.8575685860460653e-07 0.0000000000000000e+00  -1.0963628174401502e-06 -1.4514216076809648e-06 0.0000000000000000e+00  -1.1035385396209055e-06 -1.3113810020376654e-06 0.0000000000000000e+00  -8.9979689879072504e-09 2.9466347026594993e-07 0.0000000000000000e+00  -1.9029946868230058e-06 -1.4217374235970773e-06 0.0000000000000000e+00  -1.9994148352456815e-06 -1.3138911197280393e-06 0.0000000000000000e+00  -2.0585486326123774e-06 -1.1417885532710636e-06 0.0000000000000000e+00  -2.0399049799741621e-06 -9.7765666631449731e-07 0.0000000000000000e+00  -1.9781015164988920e-06 -8.3501194435205968e-07 0.0000000000000000e+00  -1.8583159069819735e-06 -7.2296109288940492e-07 0.0000000000000000e+00  -1.6986861368750185e-06 -6.1405384852125513e-07 0.0000000000000000e+00  -1.4813897661781599e-06 -5.4741352492649351e-07 0.0000000000000000e+00  -1.2461993960903625e-06 -5.1139190915851763e-07 0.0000000000000000e+00  -9.8211826803855914e-07 -4.8652544954381676e-07 0.0000000000000000e+00  -7.1644728726787337e-07 -4.3775668678982923e-07 0.0000000000000000e+00  -4.3673805429170943e-07 -3.8329590186622164e-07 0.0000000000000000e+00  -2.1543471729112409e-07 -2.6826260299247810e-07 0.0000000000000000e+00  -4.9882188607818465e-08 -1.0632920872265786e-07 0.0000000000000000e+00  1.7224155264071017e-08 9.7706934744302861e-08 0.0000000000000000e+00  -1.6461913548470586e-06 -1.4585317198148765e-06 0.0000000000000000e+00  -1.7574209717594271e-07 4.5340387466217679e-07 0.0000000000000000e+00  -4.4619184482577498e-07 5.3721540136039884e-07 0.0000000000000000e+00  -6.2698033244064042e-07 6.3231434807185245e-07 0.0000000000000000e+00  -1.0153838183323584e-06 6.1114735232102813e-07 0.0000000000000000e+00  -1.2713410279515668e-06 6.6597115204094073e-07 0.0000000000000000e+00  -1.5250585073048844e-06 7.0562147076378266e-07 0.0000000000000000e+00  -1.7481865148324549e-06 7.6076450927720867e-07 0.0000000000000000e+00  -2.0014152883117708e-06 7.9327857504821511e-07 0.0000000000000000e+00  -2.1409144969120162e-06 9.2650960995378288e-07 0.0000000000000000e+00  -2.2538168174610593e-06 1.0373995541243841e-06 0.0000000000000000e+00  -2.3127269452157830e-06 1.1549033286748917e-06 0.0000000000000000e+00  -2.2991411151760578e-06 1.3168894567705274e-06 0.0000000000000000e+00  -2.2415381674205791e-06 1.4908763896257922e-06 0.0000000000000000e+00  -2.1243645147924406e-06 1.6170602721178462e-06 0.0000000000000000e+00  -1.8545360985902200e-06 1.6257821888076134e-06 0.0000000000000000e+00  -1.2891940379985762e-06 2.1060665993710196e-06 0.0000000000000000e+00  -1.8213761511005306e-06 1.6887603494144033e-06 0.0000000000000000e+00  -2.2900425812186923e-06 1.2584420641772129e-06 0.0000000000000000e+00  -2.2915286034036337e-06 1.0823429129255408e-06 0.0000000000000000e+00  -2.0578275923512190e-06 8.9856482640966595e-07 0.0000000000000000e+00  -1.6478264312122298e-06 7.3667506922692813e-07 0.0000000000000000e+00  -1.0503977106075673e-06 7.5057048852049291e-07 0.0000000000000000e+00  -5.5905631182753932e-07 5.8342821844986383e-07 0.0000000000000000e+00  -9.4215395688877527e-08 3.7338963516586825e-07 0.0000000000000000e+00  6.7656476140517887e-09 -1.3868535759900507e-08 0.0000000000000000e+00  -3.2458866175875733e-07 -3.3110783618491686e-07 0.0000000000000000e+00  -8.3585709153752055e-07 -4.8380877090884240e-07 0.0000000000000000e+00  -1.3657781525941390e-06 -5.3726945272607227e-07 0.0000000000000000e+00  -1.7792873681321085e-06 -6.7638451209583165e-07 0.0000000000000000e+00  -2.0185081952224220e-06 -8.9708027367177756e-07 0.0000000000000000e+00  -2.0257267565861832e-06 -1.1266257207610183e-06 0.0000000000000000e+00  -1.6354736067840453e-06 -1.5285683850183121e-06 0.0000000000000000e+00  -2.1422326254558453e-06 1.3882737903337349e-06 0.0000000000000000e+00  -2.3206434206344859e-06 1.1883374180711422e-06 0.0000000000000000e+00  -2.2054326283494255e-06 9.7689342517532025e-07 0.0000000000000000e+00  -1.9201053166236143e-06 6.7283845735319039e-07 0.0000000000000000e+00  -1.3724212912334042e-06 7.3309816483724668e-07 0.0000000000000000e+00  -1.0831108640724722e-06 3.7219282738303543e-07 0.0000000000000000e+00  -2.7831658673218473e-07 5.1409898227254142e-07 0.0000000000000000e+00  6.1802064318193201e-08 1.9098138044297061e-07 0.0000000000000000e+00  -1.1608361111267611e-07 -1.9826737757822273e-07 0.0000000000000000e+00  -6.0374722845673472e-07 -3.8588859388882465e-07 0.0000000000000000e+00  -1.1117718313192231e-06 -5.0718157582455340e-07 0.0000000000000000e+00  -1.6116375603832678e-06 -5.4086582630970489e-07 0.0000000000000000e+00  -1.9231575968680355e-06 -7.7760652157852384e-07 0.0000000000000000e+00  -2.0732202118915272e-06 -9.8458257285813538e-07 0.0000000000000000e+00  -1.9075217440656925e-06 -1.2419375689232399e-06 0.0000000000000000e+00  -1.8919642345252034e-08 -3.0090183803499405e-07 0.0000000000000000e+00  -1.1595182265378104e-06 6.4361722361224460e-07 0.0000000000000000e+00  -7.4709661329520793e-07 -1.0363137784740285e-07 0.0000000000000000e+00  -2.2978319409447769e-07 -5.0264615844368020e-07 0.0000000000000000e+00  -1.6956440438951634e-06 8.2265104270856651e-07 0.0000000000000000e+00  -1.1679757859408025e-06 -3.5240380723131852e-08 0.0000000000000000e+00  -6.9641854749886806e-07 -8.5204916167026044e-07 0.0000000000000000e+00  -1.1653897117795859e-07 -4.7508505429636709e-07 0.0000000000000000e+00  -1.2385326229591535e-06 1.4333043310356370e-06 0.0000000000000000e+00  -1.2319709298386051e-06 1.6228955155998686e-06 0.0000000000000000e+00  -1.4624383938948647e-06 3.4416159234966164e-07 0.0000000000000000e+00  -1.4665820527656498e-06 2.5609349133849784e-07 0.0000000000000000e+00  -4.0050523136485594e-07 -7.9920677850282187e-07 0.0000000000000000e+00  -8.4888242503211231e-07 2.9603848383036967e-08 0.0000000000000000e+00  1.6186847611680405e-07 -5.5286420884399623e-07 0.0000000000000000e+00  -1.6511537200007709e-07 -4.4342425497391791e-07 0.0000000000000000e+00  2.5549359949104977e-07 -3.1986922248548578e-07 0.0000000000000000e+00  2.2148954776269068e-07 2.4744507331125054e-07 0.0000000000000000e+00  4.7542620870552037e-08 2.1214096853924427e-07 0.0000000000000000e+00  4.6626037897645295e-09 1.6225886508910952e-07 0.0000000000000000e+00  -8.2643848830581920e-09 1.1396908648979498e-07 0.0000000000000000e+00  -3.8645947234368955e-09 5.3325052022504944e-08 0.0000000000000000e+00  5.4781913631559235e-10 -1.3292154420115797e-08 0.0000000000000000e+00  -2.0071047045987037e-09 -7.7969101838501523e-08 0.0000000000000000e+00  -1.1912614044079361e-08 -1.4304057141093832e-07 0.0000000000000000e+00  -1.7365258518001771e-08 -2.0465936217804209e-07 0.0000000000000000e+00  6.3446048559650143e-10 -2.5000350308287862e-07 0.0000000000000000e+00  5.2316172752406898e-08 -2.9476812089896130e-07 0.0000000000000000e+00  -9.3438440375633692e-09 2.4876513172048923e-07 0.0000000000000000e+00  1.5404353020516591e-08 2.3397277331860871e-07 0.0000000000000000e+00  -2.1772979439746134e-09 1.3580910041923905e-07 0.0000000000000000e+00  -3.5898711865182620e-10 1.8825919013073163e-08 0.0000000000000000e+00  -4.9835315398527419e-09 -1.0979122156175334e-07 0.0000000000000000e+00  -8.2448480785377633e-09 -2.2492448982100501e-07 0.0000000000000000e+00  1.4099977866832529e-08 -3.1089936774771737e-07 0.0000000000000000e+00  7.8344449876691760e-09 1.8614023280969708e-07 0.0000000000000000e+00  -9.4472163138769735e-09 8.0728567997402788e-08 0.0000000000000000e+00  2.3129590065194295e-10 -4.5753006617232182e-08 0.0000000000000000e+00  -2.0645813775569778e-08 -1.7066691398226729e-07 0.0000000000000000e+00  4.5445690724531381e-09 -2.7103406931371025e-07 0.0000000000000000e+00  -2.1627434689098584e-07 4.6246541214457933e-07 0.0000000000000000e+00  -7.1866892109479116e-07 9.3664295685763746e-08 0.0000000000000000e+00  -1.1117555217832037e-06 -6.4195664116310583e-07 0.0000000000000000e+00  -1.0315833248167218e-07 4.2112090505014716e-07 0.0000000000000000e+00  -6.6196967159328121e-07 7.9202083783789917e-07 0.0000000000000000e+00  -1.1252728829657060e-06 1.1393632766050585e-08 0.0000000000000000e+00  -1.5994580932423097e-06 -8.4996468767697957e-07 0.0000000000000000e+00  -1.3983716973830837e-07 3.8310949716745214e-07 0.0000000000000000e+00  1.4341953991544469e-07 4.9856841220959053e-07 0.0000000000000000e+00  -7.9603295456894789e-07 -1.8471246766507642e-08 0.0000000000000000e+00  -4.0429580744885798e-07 7.5341606697982294e-07 0.0000000000000000e+00  -1.4109489691785912e-06 -2.5577908742513378e-07 0.0000000000000000e+00  -1.4075198461542075e-06 -3.5846540347103942e-07 0.0000000000000000e+00  -1.1531915647634443e-06 -1.5873545614090422e-06 0.0000000000000000e+00  -1.1344208950242196e-06 -1.4512868218548995e-06 0.0000000000000000e+00  -1.1517757036985636e+03 8.4997533751772528e+02 0.0000000000000000e+00  -1.1264490903389276e+03 8.3695514024696718e+02 0.0000000000000000e+00  -9.1683191216872871e+01 -3.3797441182265783e+02 0.0000000000000000e+00  -1.3447095095652774e+03 -1.4773081905332774e+02 0.0000000000000000e+00  -1.2443819150335382e+03 -1.0090397512009048e+02 0.0000000000000000e+00  -1.4688974112133232e+02 -3.7804219400186133e+02 0.0000000000000000e+00  -2.6983338278875260e+02 -4.5117419604792917e+02 0.0000000000000000e+00  -2.0459578051161236e+02 -3.7220672034820979e+02 0.0000000000000000e+00  -1.7134946580374250e+02 3.1313400554346458e+02 0.0000000000000000e+00  -1.1324669933535840e+02 2.2481794731643924e+02 0.0000000000000000e+00  -8.3053510600005620e+02 2.0474934524875803e+02 0.0000000000000000e+00  -4.8358719366843735e+02 5.2638433443895849e+02 0.0000000000000000e+00  -8.6857095931294384e+02 4.8105604394939382e+02 0.0000000000000000e+00  -4.8902339207188682e+01 -3.8651273961521701e+02 0.0000000000000000e+00  -1.5779991971553810e+02 -4.8615753216682776e+02 0.0000000000000000e+00  -7.5457542007113707e+00 -2.2305679824674399e+02 0.0000000000000000e+00  -8.2563156603262280e+02 -1.0525401929714147e+02 0.0000000000000000e+00  -4.9977818669651958e+02 -2.1445547697788140e+02 0.0000000000000000e+00  2.5293395075182037e+01 9.9370231824859147e+01 0.0000000000000000e+00  3.6896054164387458e+01 3.2340594927494799e+01 0.0000000000000000e+00  -1.1799008240994237e+03 1.1353191396846080e+02 0.0000000000000000e+00  -4.8824581202761766e+02 2.3805860662123504e+02 0.0000000000000000e+00  -1.1718001141780941e+02 -4.6777901041098136e+02 0.0000000000000000e+00  -9.3455363898162921e+02 1.9564029737924020e+02 0.0000000000000000e+00  -5.8030089555704899e+02 6.0329550486451660e+02 0.0000000000000000e+00  1.2339704591661245e+00 -6.9097670369583554e+01 0.0000000000000000e+00  -8.0184505418928654e+02 -7.4360601447986437e+02 0.0000000000000000e+00  -1.1285946646331390e+03 -1.0487726257568494e+02 0.0000000000000000e+00  -2.3351233582217600e+02 7.1894457614592193e+02 0.0000000000000000e+00  -1.0313670303473500e+03 -1.9536321293556358e+02 0.0000000000000000e+00  -1.4423747804465197e+03 2.3935126287267545e+02 0.0000000000000000e+00  -9.9646962985838377e+02 -6.1975267665314709e+02 0.0000000000000000e+00  -1.5359402554459011e+03 -4.6022659849733952e+02 0.0000000000000000e+00  -2.7037985798818966e+02 6.8156446803930726e+02 0.0000000000000000e+00  -1.0723142338843202e+03 -7.2172981399900038e+02 0.0000000000000000e+00  -9.8065564480186856e+02 -7.7523996117014281e+02 0.0000000000000000e+00  -8.6045110881730864e+02 5.3274041044849616e+02 0.0000000000000000e+00  -1.6882579806903060e+01 -2.5244184842348682e+02 0.0000000000000000e+00  -1.4571217609257621e+03 3.3116581949671422e+02