<?xml version="1.0"?>
<VTKFile type="UnstructuredGrid"  version="0.1"  >
<UnstructuredGrid>
<Piece  NumberOfPoints="4153" NumberOfCells="8064">
<Points>
<DataArray  type="Float64"  NumberOfComponents="3"  format="ascii">-0.4163753685666401 -0.6435472148367701 0  -0.03734872271974865 -0.8244257364521125 0  -0.09178551276391997 -0.818457751182717 0  -0.1449719966516075 -0.8064312853690808 0  -0.1963175907826206 -0.7889760074826598 0  -0.2457694888259481 -0.7677628906887681 0  -0.2926150226406318 -0.7409902186596657 0  -0.3366133360982396 -0.7107622522666999 0  -0.3777372529018833 -0.6779769935952153 0  0.01754512483808837 -0.8239562009864075 0  -0.4524390349539988 -0.6091280153345203 0  -0.4866108051806904 -0.5747722874907163 0  -0.5189661337940604 -0.540781612363038 0  -0.5498031651963317 -0.5076581060499683 0  -0.579522093563997 -0.4760068432936878 0  -0.608444217736704 -0.4461846357426474 0  -0.6366833024714916 -0.4189680036714009 0  0.6336706182154499 -0.4140575219202738 0  0.07205090415314452 -0.8171136992552734 0  0.1253606954773185 -0.8041785966427407 0  0.176781646352915 -0.7857389308268714 0  0.2257740700922893 -0.7624919997958085 0  0.2720997991638845 -0.73566480647598 0  0.3157007233271992 -0.7060655444835564 0  0.3566595941414945 -0.6745392243517886 0  0.39510403502786 -0.6417707327526879 0  0.4314170463840056 -0.6086243272988328 0  0.4658673056654709 -0.5755574913377168 0  0.4987551276015014 -0.5430010425438287 0  0.5303053974688163 -0.5113231369919823 0  0.5608621488041509 -0.4808491148543753 0  0.5905861927304319 -0.452042579758285 0  0.6197237952271477 -0.4257448942840699 0  0.6049455307691146 -0.4387654357150791 0  -0.6223461436360673 -0.4323535528639741 0  -0.5647578903877104 -0.4917536693667204 0  -0.5029883547541659 -0.5577071465982805 0  -0.4346338580879263 -0.6263155321443404 0  -0.3575586331092326 -0.6945308117889708 0  -0.2695129298455099 -0.7548465554410185 0  -0.1709083080509775 -0.7984726045434409 0  -0.06467717644977249 -0.822232558387667 0  0.5757424428688604 -0.4664311036474802 0  0.1513433389608576 -0.7955901525306166 0  0.2492796246526565 -0.7494863110066718 0  0.3364876346875806 -0.6904874070178696 0  0.4135155546476307 -0.6252288563505245 0  0.4824809531010391 -0.5592116962671674 0  0.5457174552853334 -0.4960502858093989 0  0.04489901476742201 -0.8213226993568578 0  -0.6502633888795999 -0.4068614472244637 0  0.5146832241734598 -0.5270523662621101 0  0.4488537717914799 -0.5920647329981126 0  0.3761870257035326 -0.6582466817923565 0  0.2942382297443316 -0.7211668182807367 0  0.2016204982923248 -0.7746643410285788 0  0.09890218746689414 -0.8113756809206831 0  -0.00990368141423548 -0.8250025490076383 0  -0.1185797318346781 -0.8131941948310752 0  -0.2211501247121334 -0.778832283332332 0  -0.3148955061364006 -0.7260694268788332 0  -0.3976844783218608 -0.6613536407760521 0  -0.4697713341183258 -0.5919530410491174 0  -0.5345868267989383 -0.5241291696192574 0  -0.593971717078429 -0.4610288986925113 0  0.750292183555639 -0.2249882238479857 0  0.6788587552616319 -0.3798811244208865 0  0.7185454318613526 -0.3366257923802148 0  0.7436237768372495 -0.2843455883331452 0  0.656833929598622 -0.3974435281902923 0  0.6998729529004246 -0.3595937872882278 0  0.7290310377272142 -0.3088942059117504 0  0.7456839953132969 -0.254281117662963 0  0.6450915740446754 -0.4059877368149003 0  0.6678312302527425 -0.3878334437104037 0  0.6895028189709489 -0.3698891300001739 0  0.7089244113805864 -0.3472569566525381 0  0.7266127245695497 -0.3241762178574223 0  0.7353392747686261 -0.2964177201547553 0  0.743416975749712 -0.2690313841800145 0  0.7472869458221733 -0.2394714218473038 0  0.7499687628458529 -0.2058020304837076 0  0.7530792185259553 0.2267639612716033 0  0.7542084224537686 0.1886220549809987 0  0.7565815022963948 0.1499691385831667 0  0.7592152813870696 0.1107373457225047 0  0.7618262835810258 0.07089126159998578 0  0.7628733196341911 0.03057327087113371 0  0.7624906919087944 -0.009858574940522793 0  0.760675700930845 -0.05014737874661712 0  0.7574070424313378 -0.08992165105860854 0  0.7542039826319644 -0.1290963672269103 0  0.7513530740567217 -0.1676872120149736 0  0.7539887717128617 0.2458614835436705 0  0.753438521753248 0.2077457220302638 0  0.7579085558550883 0.1304266042534054 0  0.7625255453211759 0.05076401268049823 0  0.7617661227699758 -0.03003774675218362 0  0.7558165843197868 -0.1095879903966027 0  0.7504391471291276 -0.1867993925622859 0  0.7553348364244031 0.1693667225283386 0  0.7606223716527953 0.09091289765803962 0  0.7628556869589823 0.01035575684338556 0  0.7591037299229073 -0.07013295247686006 0  0.7527084462094328 -0.1484653650050422 0  0.6438062672049731 0.4371503039150315 0  0.7488262031467776 0.305394513849398 0  0.7253249606945321 0.3585881875823749 0  0.6874279395458959 0.4026343138798418 0  0.750335944570564 0.2752532140031542 0  0.7355991124488885 0.3307948989712864 0  0.7074796819835109 0.3816986143087645 0  0.6659651847516258 0.4201017151580572 0  0.7516385639875937 0.2604582621265768 0  0.7487053594431405 0.2901003795759332 0  0.7414163421790739 0.3178741369041939 0  0.7324040808378947 0.3456085751686973 0  0.7160501941389461 0.3692678428466499 0  0.6975614769221701 0.3922567571962439 0  0.6766409922681424 0.4106148801471162 0  0.6546978389556498 0.428786254685643 0  -0.02958301617190242 0.8785070991175039 0  0.602882206227681 0.4767368771162703 0  0.5746719938995121 0.506967031341111 0  0.5456816765700756 0.539182674642292 0  0.5155726058580572 0.5730187482680958 0  0.483932145581728 0.6079363542898986 0  0.4504535582429336 0.643520028127213 0  0.4148193641018737 0.6793260224828789 0  0.3766697393093123 0.7149200403148687 0  0.3355828881878243 0.7492180950989696 0  0.291410517037835 0.7814743618717965 0  0.2440611388138036 0.8107265898707069 0  0.1936232247206215 0.8361625557811295 0  0.1403661825894055 0.8563210859403769 0  0.08488786984642001 0.8704305404424332 0  0.02796181370412762 0.8778189556465237 0  0.6305128134175811 0.4492645836219729 0  -0.08669246496800913 0.8714908949190379 0  -0.1423398881032928 0.8576669625499919 0  -0.1956889363452753 0.8376967037965238 0  -0.2459940128442147 0.811808952431623 0  -0.2934530735192058 0.783469224336347 0  -0.3377236999335121 0.7520322467406308 0  -0.3789894104366844 0.718559315349301 0  -0.4174508778837634 0.6837037814829618 0  -0.4534615372170382 0.6487521842070063 0  -0.4874829867952911 0.6140262167479068 0  -0.5197879315052346 0.5799027008210285 0  -0.5506663744343083 0.5467496688723321 0  -0.5804026335305703 0.5149080758835961 0  -0.6092553756554078 0.4849155622043727 0  -0.6374627317137431 0.4575895742244987 0  -0.6509797374410818 0.4454750711611183 0  -0.6231429906399297 0.4710655126636641 0  -0.5656744351772202 0.530767792198594 0  -0.5038346749048885 0.5968810219355291 0  -0.4357110316464007 0.6662123205024404 0  -0.3587118588562055 0.7354502268922082 0  -0.2701137297225963 0.798101841305948 0  -0.1693269318782544 0.8482204623951553 0  -0.05824909712044463 0.8758514734107959 0  0.05656216369608543 0.8750254218844072 0  0.1673159248102586 0.8469239216957312 0  0.2681346733723008 0.7965442899450776 0  0.3564883434630642 0.7322478064197439 0  0.4329253850111619 0.661427907523339 0  0.4999615247621758 0.5903768730333787 0  0.5602847822970223 0.5229699967032314 0  0.6164871506528747 0.4627893409969782 0  -0.5948399321101374 0.4998569583882095 0  -0.5353971860690105 0.563228282810445 0  -0.4707100890812204 0.6313457913214318 0  -0.3986256527278526 0.7013091050017622 0  -0.3159619538065223 0.7680280294208699 0  -0.2215347850760614 0.8258350266877744 0  -0.1147402443406166 0.8653268579266408 0  -0.0007456219629571829 0.8790559067428765 0  0.1128619964491926 0.8641767906561654 0  0.2192533971022474 0.8240726744523349 0  0.3138898740747279 0.765659139146559 0  0.3961208403378823 0.6972337989532476 0  0.467441532317857 0.6256757435180237 0  0.5308219807723853 0.5559784835112421 0  0.5887822282236992 0.4917671860449038 0  -0.7639983842007764 0.2544581756358305 0  -0.6951123879425449 0.4107399342962844 0  -0.7337299563563914 0.3668329323257417 0  -0.7579614817228393 0.3139631980233621 0  -0.6734770674282112 0.4283922381668334 0  -0.7155693589445747 0.3899839264998426 0  -0.7440792712205277 0.3390049473460316 0  -0.7597892172180888 0.2838319159879897 0  -0.6620227387517024 0.4370943043163289 0  -0.6842602206133576 0.4187804108985836 0  -0.7054628334875372 0.400475002602574 0  -0.724333215941754 0.3775374963466013 0  -0.7412690804395726 0.3540587522736253 0  -0.7501272970141207 0.3262715750910105 0  -0.7578242136792775 0.2986515071668486 0  -0.7612721124921104 0.2690174344593496 0  -0.7634051338329758 0.2352864078990245 0  -0.7631477162454183 -0.1978297206922362 0  -0.7644899008112026 -0.159697006756393 0  -0.7671804427039616 -0.12105347158586 0  -0.7701661345026696 -0.08181480832011157 0  -0.7731591359856796 -0.04196065137721095 0  -0.7746308630954951 -0.001605912528319474 0  -0.7746664141381344 0.03888209766020851 0  -0.773268581353585 0.07924691463664665 0  -0.7703580987272367 0.1191280179904678 0  -0.7674226615991783 0.1584058396411907 0  -0.7647510982602447 0.1970985210676894 0  -0.7637920881391683 -0.2169731763007086 0  -0.7636025383288221 -0.1788205029016122 0  -0.7686870738780008 -0.1015118798551232 0  -0.7740746902207569 -0.02181708626603303 0  -0.7741467185002633 0.05909692469942955 0  -0.7689067945576333 0.1388429717508528 0  -0.7638636615712456 0.216248141848591 0  -0.7657692164333747 -0.1404493185435562 0  -0.7717454647918278 -0.06198777606027634 0  -0.7748230635857332 0.01863750418451397 0  -0.7718988376551703 0.09928463931848643 0  -0.766026278179973 0.1778251177595779 0  -0.7576957305069127 -0.2763846020166443 0  -0.7332557923534324 -0.3290623595536034 0  -0.694510144378799 -0.3726480262564505 0  -0.7596257118594363 -0.2463137622533313 0  -0.7438355825521623 -0.3014228693871759 0  -0.7150298880930367 -0.3520927015405011 0  -0.6727420677522009 -0.3900480638816631 0  -0.7611086069084301 -0.2315198744868898 0  -0.75767
[...]
<PointData  Vectors="f_48"> 
<DataArray  type="Float64"  Name="f_48"  NumberOfComponents="3" format="ascii">-1.2968936558703681e-06 4.1285844676606182e-07 0.0000000000000000e+00  -4.1150862695991398e-09 -5.7767917783313208e-08 0.0000000000000000e+00  -7.6448120368768627e-08 -1.7426501087153535e-07 0.0000000000000000e+00  -2.1076676863923433e-07 -2.5826462841136207e-07 0.0000000000000000e+00  -4.6621163201100013e-07 -2.3459884245629139e-07 0.0000000000000000e+00  -6.2863385431132081e-07 -2.1043388874696750e-07 0.0000000000000000e+00  -8.6170040235905623e-07 3.6033715520126565e-08 0.0000000000000000e+00  -9.5319074663627647e-07 -8.4454031416315006e-09 0.0000000000000000e+00  -1.1007654723688367e-06 -1.0829199483307802e-07 0.0000000000000000e+00  -3.7295385628801041e-09 7.2571046762281534e-08 0.0000000000000000e+00  -1.4211140823106530e-06 1.9329495916706321e-07 0.0000000000000000e+00  -1.5385057659166692e-06 2.1871725195516403e-07 0.0000000000000000e+00  -1.6506058069415229e-06 1.8287125986065155e-07 0.0000000000000000e+00  -1.7490110612247232e-06 1.6423449087413503e-07 0.0000000000000000e+00  -1.8024262343239088e-06 9.7918919847255004e-08 0.0000000000000000e+00  -1.7886212086463374e-06 3.6727121443725102e-08 0.0000000000000000e+00  -1.7101209172499365e-06 -2.4065412041633924e-07 0.0000000000000000e+00  -1.9341258789402547e-06 6.6684944081028326e-07 0.0000000000000000e+00  -7.8689365419536873e-08 1.9277027757449260e-07 0.0000000000000000e+00  -2.2140702059383297e-07 2.7758969045007792e-07 0.0000000000000000e+00  -4.0460392969940820e-07 3.1961593234614934e-07 0.0000000000000000e+00  -6.3611218354239445e-07 2.9499289965083122e-07 0.0000000000000000e+00  -8.6042349781819672e-07 2.4867550174805356e-07 0.0000000000000000e+00  -1.0824779052509064e-06 1.6517735083101359e-07 0.0000000000000000e+00  -1.2828413746631891e-06 9.2042501226465007e-08 0.0000000000000000e+00  -1.4827310193120520e-06 1.8139640383040842e-08 0.0000000000000000e+00  -1.6543247586218717e-06 -3.9891007545016251e-08 0.0000000000000000e+00  -1.8004736424519294e-06 -6.2380189682617464e-08 0.0000000000000000e+00  -1.9185718355048780e-06 -4.2123696899506734e-08 0.0000000000000000e+00  -2.0210175889816494e-06 3.3467930371924951e-08 0.0000000000000000e+00  -2.0774159439755792e-06 5.0903891877942429e-08 0.0000000000000000e+00  -2.0624933761920908e-06 1.0118788305113668e-07 0.0000000000000000e+00  -1.9257952094583195e-06 3.1956587832234593e-07 0.0000000000000000e+00  -2.0114441040140546e-06 3.8789629501671702e-07 0.0000000000000000e+00  -1.8142660611694743e-06 -2.1513070961900265e-07 0.0000000000000000e+00  -1.7396185315704386e-06 1.2031949978037870e-07 0.0000000000000000e+00  -1.5880112075638423e-06 2.4245290746005055e-07 0.0000000000000000e+00  -1.3451770444519503e-06 3.2695457215594581e-08 0.0000000000000000e+00  -1.1573398938975194e-06 5.1963750600776472e-07 0.0000000000000000e+00  -7.6923246782648278e-07 -2.0837914536698472e-08 0.0000000000000000e+00  -2.9633055628352084e-07 -2.7462945033901163e-07 0.0000000000000000e+00  -3.5486177433715972e-08 -1.1757994516199455e-07 0.0000000000000000e+00  -2.0070560045195169e-06 1.4151500040636343e-07 0.0000000000000000e+00  -3.1328763590081342e-07 3.0189278755038450e-07 0.0000000000000000e+00  -7.4190311924976813e-07 2.8785732230221962e-07 0.0000000000000000e+00  -1.1861962066568609e-06 1.3923425779193533e-07 0.0000000000000000e+00  -1.5674838541710571e-06 -1.0958091464541575e-08 0.0000000000000000e+00  -1.8575177001798715e-06 -7.3107791595349791e-08 0.0000000000000000e+00  -1.9870176882778429e-06 -1.6813957756276861e-08 0.0000000000000000e+00  -3.0525246359773588e-08 1.3633423639245749e-07 0.0000000000000000e+00  -1.7457240102355860e-06 -4.5731402380768207e-07 0.0000000000000000e+00  -1.9488291537720947e-06 -9.0112615914499440e-08 0.0000000000000000e+00  -1.7269294277984707e-06 -5.5403834547645695e-08 0.0000000000000000e+00  -1.3927238895866078e-06 2.0096520589683391e-08 0.0000000000000000e+00  -9.6779955557153172e-07 2.2238312378459458e-07 0.0000000000000000e+00  -5.3494694516463524e-07 2.9577382615918530e-07 0.0000000000000000e+00  -1.4129593872922468e-07 2.4167698499546594e-07 0.0000000000000000e+00  6.1411016192916976e-09 7.2250001447416784e-09 0.0000000000000000e+00  -1.5205719530956965e-07 -2.1241160403926736e-07 0.0000000000000000e+00  -3.2350402701818252e-07 -4.4269059636271078e-07 0.0000000000000000e+00  -9.5101172422650555e-07 1.1463365235926879e-07 0.0000000000000000e+00  -1.1888198583134462e-06 3.4110400487638600e-07 0.0000000000000000e+00  -1.4775418535159027e-06 1.6824548213935768e-07 0.0000000000000000e+00  -1.6664240118710324e-06 2.4167015693146069e-07 0.0000000000000000e+00  -1.7829302897000941e-06 -3.9035742854786637e-08 0.0000000000000000e+00  -6.7105712678255789e-08 -2.9617696045611245e-07 0.0000000000000000e+00  -1.1624508579087613e-06 3.4583924143492530e-07 0.0000000000000000e+00  -7.0666643407699799e-07 -1.2463852785130582e-07 0.0000000000000000e+00  -1.2600717427382378e-07 -4.6414329217862660e-07 0.0000000000000000e+00  -1.4650986928700050e-06 1.7351303670783565e-07 0.0000000000000000e+00  -9.3314207622512629e-07 -1.9117742692703455e-07 0.0000000000000000e+00  -3.9167414550828786e-07 -1.0287765897256234e-06 0.0000000000000000e+00  -1.3608313451010976e-07 -4.0504069821896471e-07 0.0000000000000000e+00  -1.5701267643551809e-06 8.8498913918703375e-07 0.0000000000000000e+00  -1.7083472301323271e-06 5.4693372797795296e-07 0.0000000000000000e+00  -1.3362271576114688e-06 1.1784975415584945e-07 0.0000000000000000e+00  -1.2294188634527730e-06 -1.7692940905981824e-07 0.0000000000000000e+00  -2.1066736527774490e-07 -5.4234952014009093e-07 0.0000000000000000e+00  -8.8250157216610306e-07 1.6734243817174132e-07 0.0000000000000000e+00  1.1694975497518872e-07 -5.4050692192941258e-07 0.0000000000000000e+00  -1.6516395562012429e-07 -4.7514116532860976e-07 0.0000000000000000e+00  2.0780054496572898e-07 -3.7365131791471975e-07 0.0000000000000000e+00  4.8438438455001801e-08 -3.6989402374196032e-08 0.0000000000000000e+00  1.5800562500096831e-08 -5.6528821913919607e-08 0.0000000000000000e+00  1.3062659871890485e-08 -8.0926542955016307e-08 0.0000000000000000e+00  1.6198248510904343e-08 -1.0631767927346931e-07 0.0000000000000000e+00  1.4040973974243589e-08 -1.4179054262164196e-07 0.0000000000000000e+00  3.7189669556722462e-09 -1.9306089024083956e-07 0.0000000000000000e+00  -1.2937048467172096e-08 -2.4160413416487555e-07 0.0000000000000000e+00  -3.8395196542491830e-08 -2.8764290151582977e-07 0.0000000000000000e+00  -5.3370506610128443e-08 -3.3240600295151589e-07 0.0000000000000000e+00  -4.1199606304969572e-08 -3.5383409674052255e-07 0.0000000000000000e+00  8.6869662267078135e-09 -3.7341881155951714e-07 0.0000000000000000e+00  1.7008266907205650e-08 5.3116650817756765e-09 0.0000000000000000e+00  8.3790126903738867e-09 -3.9475011961744225e-08 0.0000000000000000e+00  1.2912133902805763e-08 -9.4220773850224042e-08 0.0000000000000000e+00  8.4938894988167820e-09 -1.6939269120243585e-07 0.0000000000000000e+00  -2.2241496305790468e-08 -2.6516989359496851e-07 0.0000000000000000e+00  -4.6497845885963472e-08 -3.3922108090803906e-07 0.0000000000000000e+00  -2.5347285301248284e-08 -3.6396091543721471e-07 0.0000000000000000e+00  1.1825942466161389e-08 -6.7409304391095953e-08 0.0000000000000000e+00  1.9039302903886248e-08 -1.2341596490820307e-07 0.0000000000000000e+00  -3.8054787776891518e-09 -2.1786262685592371e-07 0.0000000000000000e+00  -5.8072504196079452e-08 -3.0879823423411177e-07 0.0000000000000000e+00  -4.1675293622015374e-08 -3.5829958113702615e-07 0.0000000000000000e+00  -1.5150023485494393e-06 -4.0539928203177057e-07 0.0000000000000000e+00  -4.0144407282071023e-08 1.9688125523906811e-07 0.0000000000000000e+00  -4.3529170627726281e-07 1.3314947719352522e-07 0.0000000000000000e+00  -8.6680437074196145e-07 -1.9433818701679187e-07 0.0000000000000000e+00  -2.2890679808410921e-08 1.0933582148771247e-07 0.0000000000000000e+00  -2.2461207113832770e-07 5.1397646274051287e-07 0.0000000000000000e+00  -6.6260548287368028e-07 1.8593109909436465e-07 0.0000000000000000e+00  -1.1416641009572567e-06 -1.0647802662092777e-07 0.0000000000000000e+00  -2.0259355349500465e-08 8.7412388251332311e-08 0.0000000000000000e+00  7.7713100857026501e-08 1.6231924066313017e-07 0.0000000000000000e+00  -4.4562595258207504e-07 3.1224786985642763e-08 0.0000000000000000e+00  -1.3924837090920119e-07 3.9101856033093417e-07 0.0000000000000000e+00  -8.7753796545404157e-07 1.5371350876983821e-07 0.0000000000000000e+00  -9.9199590773206524e-07 -1.7407273154780767e-09 0.0000000000000000e+00  -1.2919095485472932e-06 -4.4078598297577391e-07 0.0000000000000000e+00  -1.2667985165867302e-06 -6.0346853354573021e-07 0.0000000000000000e+00  -1.8237785755573346e-08 1.2203388806777165e-07 0.0000000000000000e+00  -1.5527234262852183e-06 7.7753485176966286e-08 0.0000000000000000e+00  -1.5574510802120324e-06 1.3893584652137574e-07 0.0000000000000000e+00  -1.5037525971409996e-06 1.9868317857688337e-07 0.0000000000000000e+00  -1.4131769983074800e-06 2.3047518167129997e-07 0.0000000000000000e+00  -1.3102100155617918e-06 2.4938133387480778e-07 0.0000000000000000e+00  -1.1958798483922606e-06 2.2930045470645250e-07 0.0000000000000000e+00  -1.0663622962382749e-06 1.8828760069433583e-07 0.0000000000000000e+00  -9.1937547271190335e-07 1.0494838213189502e-07 0.0000000000000000e+00  -7.7434099317545280e-07 3.9623317363855908e-08 0.0000000000000000e+00  -6.1240559658790569e-07 -4.7016982984657892e-08 0.0000000000000000e+00  -4.4392902186547632e-07 -1.0569738144949435e-07 0.0000000000000000e+00  -2.7086969323409740e-07 -1.4476953689337240e-07 0.0000000000000000e+00  -1.3623991628278525e-07 -1.2046024290145525e-07 0.0000000000000000e+00  -3.5588441575955980e-08 -6.0054937107554471e-08 0.0000000000000000e+00  4.0995089119802827e-09 3.0518946594123302e-08 0.0000000000000000e+00  -1.4880228498848023e-06 -1.5476579700956367e-07 0.0000000000000000e+00  -1.2288841887696369e-07 1.8373258069250357e-07 0.0000000000000000e+00  -2.6026522943568134e-07 2.1019097859809145e-07 0.0000000000000000e+00  -2.9193606211068488e-07 3.3136302124602445e-07 0.0000000000000000e+00  -6.7115316372988846e-07 5.6601902989353092e-08 0.0000000000000000e+00  -8.1365260890915219e-07 5.1655641285275533e-08 0.0000000000000000e+00  -9.6942091559090050e-07 1.4609421144506788e-08 0.0000000000000000e+00  -1.1291664537276272e-06 -2.6498013967630336e-08 0.0000000000000000e+00  -1.2976568401893460e-06 -1.5259767855664649e-07 0.0000000000000000e+00  -1.4404984339462251e-06 -1.4979542694090012e-07 0.0000000000000000e+00  -1.5657838927744936e-06 -1.7627449968291353e-07 0.0000000000000000e+00  -1.6700499415204589e-06 -1.6280319159835081e-07 0.0000000000000000e+00  -1.7542616888652099e-06 -1.2088143154953725e-07 0.0000000000000000e+00  -1.8004700571914488e-06 -1.0579300319279063e-07 0.0000000000000000e+00  -1.7831735765529351e-06 -4.7369410975696601e-08 0.0000000000000000e+00  -1.6899518871044730e-06 2.0155309737805310e-07 0.0000000000000000e+00  -1.7209737238875190e-06 4.6510604046391301e-07 0.0000000000000000e+00  -1.7847150679238378e-06 2.1476546882992980e-07 0.0000000000000000e+00  -1.7269587053700138e-06 -1.4093707413779555e-07 0.0000000000000000e+00  -1.6105693791057142e-06 -2.0156629327235516e-07 0.0000000000000000e+00  -1.3709706916125469e-06 -1.1562522468740617e-07 0.0000000000000000e+00  -1.0666072131036380e-06 -5.9556842797974517e-08 0.0000000000000000e+00  -6.0449712696832663e-07 3.3989095046167723e-07 0.0000000000000000e+00  -4.3360555861278097e-07 1.3511935320591036e-07 0.0000000000000000e+00  -6.4634507463612784e-08 1.5253800405997862e-07 0.0000000000000000e+00  -2.2327109257916985e-10 -2.1407261567845658e-08 0.0000000000000000e+00  -2.0710810664958122e-07 -1.3207579886292792e-07 0.0000000000000000e+00  -5.1765364850691399e-07 -1.0754689910036814e-07 0.0000000000000000e+00  -8.5297796438207658e-07 7.8091585807929472e-08 0.0000000000000000e+00  -1.1324465203620144e-06 1.9454575070319327e-07 0.0000000000000000e+00  -1.3547166159562885e-06 2.7710899308267309e-07 0.0000000000000000e+00  -1.4958816755676214e-06 1.7549342446038692e-07 0.0000000000000000e+00  -1.5664464514797808e-06 -1.4804571353654182e-07 0.0000000000000000e+00  -1.7613369286872850e-06 1.6116178131439910e-08 0.0000000000000000e+00  -1.6857117474674948e-06 -2.0244543422264801e-07 0.0000000000000000e+00  -1.5027679771253433e-06 -1.7647128891465792e-07 0.0000000000000000e+00  -1.2133386124827476e-06 -1.6798326282551728e-07 0.0000000000000000e+00  -8.7485797556306028e-07 1.0072031999541009e-07 0.0000000000000000e+00  -6.6006048876801755e-07 -2.3471448353241071e-08 0.0000000000000000e+00  -1.8242456780035575e-07 2.0313678150195638e-07 0.0000000000000000e+00  2.1344341083788994e-08 7.6441313494434757e-08 0.0000000000000000e+00  -7.5349825244945832e-08 -9.8812640409288468e-08 0.0000000000000000e+00  -3.7466856872691743e-07 -1.0523231507899370e-07 0.0000000000000000e+00  -6.9060038597244615e-07 -2.2937703688670755e-08 0.0000000000000000e+00  -9.9728410292102519e-07 1.9610233635544673e-07 0.0000000000000000e+00  -1.2538144519121352e-06 2.4574247264362889e-07 0.0000000000000000e+00  -1.4301243408413037e-06 2.7277460733775456e-07 0.0000000000000000e+00  -1.5368732374014710e-06 3.2414038970690090e-08 0.0000000000000000e+00  -1.3477829198084617e-08 -1.4227323901950858e-07 0.0000000000000000e+00  -1.0063368535111416e-06 2.4941859854270244e-07 0.0000000000000000e+00  -5.6008645005054767e-07 -1.3795758687152388e-07 0.0000000000000000e+00  -7.8868580368268553e-08 -3.1777786823571151e-07 0.0000000000000000e+00  -1.2919231866262107e-06 1.3015440453922340e-07 0.0000000000000000e+00  -7.8453542489357702e-07 -1.9783944847858890e-07 0.0000000000000000e+00  -2.9673637833736019e-07 -7.4173659767976079e-07 0.0000000000000000e+00  -7.0724285572040068e-08 -2.5116120371792745e-07 0.0000000000000000e+00  -1.4368218409221863e-06 7.0618080201697712e-07 0.0000000000000000e+00  -1.4878413513803317e-06 4.7198356502705872e-07 0.0000000000000000e+00  -1.1529402087986123e-06 4.0991493235374972e-08 0.0000000000000000e+00  -1.0385142716771030e-06 -1.7549866202826922e-07 0.0000000000000000e+00  -1.6965010752907595e-07 -4.6637967627804525e-07 0.0000000000000000e+00  -6.4674467909677114e-07 3.5964165869982511e-08 0.0000000000000000e+00  9.9059365748157191e-08 -3.3500111613303218e-07 0.0000000000000000e+00  -8.5936882007303270e-08 -2.6498018946505532e-07 0.0000000000000000e+00  1.2494597393151770e-07 -1.5435680152820591e-07 0.0000000000000000e+00  1.4391827689262884e-07 1.9489349451655427e-07 0.0000000000000000e+00  1.4666682949680211e-08 1.8320822512401950e-07 0.0000000000000000e+00  -1.4978650310358896e-08 1.6123628002167762e-07 0.0000000000000000e+00  -2.1052340360862675e-08 1.3804378514647055e-07 0.0000000000000000e+00  -1.0837932354000057e-08 9.7353515022726397e-08 0.0000000000000000e+00  -1.6221259120446935e-09 4.8624625894755336e-08 0.0000000000000000e+00  2.1774215447993769e-10 -2.7884807150478211e-10 0.0000000000000000e+00  -5.0651115856122026e-09 -4.9818497889376733e-08 0.0000000000000000e+00  -1.3390722597992032e-08 -8.9966775960592423e-08 0.0000000000000000e+00  -9.5337289975922501e-09 -1.1500002106479512e-07 0.0000000000000000e+00  1.3894669713642440e-08 -1.3910301237633951e-07 0.0000000000000000e+00  -1.5833907785066996e-08 1.6788897812340100e-07 0.0000000000000000e+00  -1.5543378937005949e-08 1.8405416280019832e-07 0.0000000000000000e+00  -1.7156309394143010e-08 1.4741467518533471e-07 0.0000000000000000e+00  -4.5653233798543160e-09 7.2480286435185653e-08 0.0000000000000000e+00  -1.2008833512288568e-09 -2.4233536663956224e-08 0.0000000000000000e+00  -1.1129141270893536e-08 -1.0062450735580739e-07 0.0000000000000000e+00  -1.1666979602080801e-08 -1.4403942688622566e-07 0.0000000000000000e+00  -1.6419299350016472e-08 1.6980558273606043e-07 0.0000000000000000e+00  -2.0416479854502070e-08 1.1694011885377602e-07 0.0000000000000000e+00  2.8120380525630725e-10 2.4238379976234135e-08 0.0000000000000000e+00  -1.1831229529590982e-08 -6.9226779747536984e-08 0.0000000000000000e+00  -1.1435494602829247e-08 -1.2534196037589853e-07 0.0000000000000000e+00  -9.2502720339005424e-08 3.3418949112346962e-07 0.0000000000000000e+00  -5.8172559802353224e-07 1.3965448600074897e-07 0.0000000000000000e+00  -1.0234362278421454e-06 -2.6907917351700090e-07 0.0000000000000000e+00  -7.6513534270548633e-08 2.8000237086128442e-07 0.0000000000000000e+00  -3.1767022538581332e-07 7.6288315876292759e-07 0.0000000000000000e+00  -8.0848304774888881e-07 1.8945147351762026e-07 0.0000000000000000e+00  -1.3091647101303740e-06 -1.7987454688677439e-07 0.0000000000000000e+00  -9.7179536413328902e-08 2.9738263039240537e-07 0.0000000000000000e+00  9.8930392819049922e-08 3.6604881935623805e-07 0.0000000000000000e+00  -6.7335949073715720e-07 -2.0774068885125167e-08 0.0000000000000000e+00  -1.9692917622261331e-07 4.8459874731452980e-07 0.0000000000000000e+00  -1.0750952207160621e-06 1.7149192627611141e-07 0.0000000000000000e+00  -1.1844582758444455e-06 -5.9670902674363157e-08 0.0000000000000000e+00  -1.5072214143491467e-06 -5.1662725054464443e-07 0.0000000000000000e+00  -1.4733865721823642e-06 -7.5897605447415138e-07 0.0000000000000000e+00  -1.0467425396430772e+03 7.0943529419782328e+02 0.0000000000000000e+00  -1.0640433874811260e+03 6.9157787699982612e+02 0.0000000000000000e+00  -9.2940114705870016e+01 -3.3012094102857174e+02 0.0000000000000000e+00  -1.3037494917349613e+03 -4.1171908070137384e+01 0.0000000000000000e+00  -1.1602139690567622e+03 3.8633484971376149e+00 0.0000000000000000e+00  -1.5559376580387683e+02 -4.0729179942063149e+02 0.0000000000000000e+00  -2.0343426747418417e+02 -3.8942398576657405e+02 0.0000000000000000e+00  -1.3015933467209317e+02 -2.7192587294025878e+02 0.0000000000000000e+00  -1.4282286160464321e+02 2.9071162465274932e+02 0.0000000000000000e+00  -7.2037483065156110e+01 1.6265700131452192e+02 0.0000000000000000e+00  -6.5193757673236576e+02 2.8721488820331587e+02 0.0000000000000000e+00  -4.7275328053228287e+02 5.2316767811504337e+02 0.0000000000000000e+00  -1.0242289720154106e+03 4.3500372869435569e+02 0.0000000000000000e+00  -5.7129889494327337e+01 -4.0129874207685879e+02 0.0000000000000000e+00  -2.1837411909218852e+02 -5.2675310482404052e+02 0.0000000000000000e+00  -7.2836325441056218e+00 -2.1691730508875489e+02 0.0000000000000000e+00  -9.2926415539839752e+02 -2.9026403178066897e+02 0.0000000000000000e+00  -5.7137552868933551e+02 -1.0212148396868396e+02 0.0000000000000000e+00  4.2783788253827408e+00 1.4458730533114643e+01 0.0000000000000000e+00  -8.1989402014426773e+01 -9.0858735435764174e+01 0.0000000000000000e+00  -1.1074854529968145e+03 2.8900231084438354e+02 0.0000000000000000e+00  -7.7739521412674287e+02 1.9167295850697437e+02 0.0000000000000000e+00  -8.4513351203872560e+01 -3.3820664333050462e+02 0.0000000000000000e+00  -7.9478281878390726e+02 3.1027795998859932e+02 0.0000000000000000e+00  -6.3508061135751882e+02 6.5388671819821275e+02 0.0000000000000000e+00  6.5850085256276736e-01 1.6039907227564104e+01 0.0000000000000000e+00  -6.9568687743805538e+02 -6.7504203380324100e+02 0.0000000000000000e+00  -9.3332213166727809e+02 -2.8123831823826117e+02 0.0000000000000000e+00  -2.0157472550111149e+02 6.1121364372215623e+02 0.0000000000000000e+00  -7.9578818279199970e+02 -3.0594746967363045e+02 0.0000000000000000e+00  -1.2701966451645251e+03 6.4515010834172386e+01 0.0000000000000000e+00  -9.7237236487755854e+02 -5.8266067178950368e+02 0.0000000000000000e+00  -1.6585102799408166e+03 -3.2310145692236080e+02 0.0000000000000000e+00  -2.5062997393158190e+02 5.9417414551195282e+02 0.0000000000000000e+00  -1.0715628275272197e+03 -7.5385131938385530e+02 0.0000000000000000e+00  -9.4666053341641521e+02 -7.6946470548141667e+02 0.0000000000000000e+00  -1.1196621174792349e+03 5.2273054404876291e+02 0.0000000000000000e+00  -4.2796711068885784e+00 -1.2267364505903970e+02 0.0000000000000000e+00  -1.3436064878727482e+03 1.2205063593832089e+