<?xml version="1.0"?>
<VTKFile type="UnstructuredGrid"  version="0.1"  >
<UnstructuredGrid>
<Piece  NumberOfPoints="4153" NumberOfCells="8064">
<Points>
<DataArray  type="Float64"  NumberOfComponents="3"  format="ascii">-0.4158300201032685 -0.5787319218089126 0  -0.04353056658204696 -0.7083137139595197 0  -0.0938538724769943 -0.704201147686642 0  -0.1434719319256795 -0.6958904584967327 0  -0.1921318228771157 -0.683990283250395 0  -0.2399899700355037 -0.6697129330691743 0  -0.2865399004058166 -0.6508232473836877 0  -0.331370309301768 -0.628846217922034 0  -0.3744656090304834 -0.6047167309536521 0  0.007071196238962633 -0.7078693484815504 0  -0.4557231565204216 -0.5531355195001034 0  -0.4946660886631702 -0.527760907472492 0  -0.532730024009717 -0.5028786026595428 0  -0.5700323715526271 -0.478855978226151 0  -0.6068814268752497 -0.4561790689244311 0  -0.6433273580379688 -0.4349676563006636 0  -0.6795173874973562 -0.4161071726067975 0  0.6663557230981256 -0.4220636939446554 0  0.05747413093514465 -0.7029077826014997 0  0.1072224142147701 -0.6936134680188152 0  0.1559209328303332 -0.6803927303622431 0  0.2032673837564556 -0.6637615342295893 0  0.249141080959909 -0.644642929513513 0  0.2935621148244403 -0.6236540478446833 0  0.3366007786776848 -0.6013775783175196 0  0.3783486063835345 -0.5783521973058084 0  0.4190217694845016 -0.5551244137758033 0  0.4587779212923153 -0.532048453475468 0  0.4977699072538257 -0.5094088447818765 0  0.5361078133070138 -0.4875365967558885 0  0.5739229131137268 -0.466555471449005 0  0.6112934014695254 -0.4469031502058395 0  0.6483863722496179 -0.4293304477346049 0  0.6297169673504164 -0.4381219681019433 0  -0.6612320530357837 -0.4254632874497306 0  -0.5885118107018067 -0.4674180874699876 0  -0.5137888666178794 -0.5152423057324005 0  -0.4358601383739385 -0.5658612317042679 0  -0.3531343725367239 -0.6169133552854821 0  -0.2634755447835411 -0.6607266159590135 0  -0.1679278845881527 -0.6904029633558109 0  -0.06875679599804867 -0.7068112641209648 0  0.5926386445602008 -0.4566776822463108 0  0.1317237402062864 -0.6874573782537649 0  0.226387718200158 -0.6544749385766697 0  0.3152434829521156 -0.6126522678638868 0  0.3988129153710182 -0.5667448858697984 0  0.4783564515250543 -0.5206738280943942 0  0.5550875276065517 -0.4769538675366897 0  0.03232676559417498 -0.7059474073529221 0  -0.6970194754202024 -0.4081659970107355 0  0.5169983031019552 -0.4983488214778342 0  0.4390036392632437 -0.5435550192948009 0  0.3576210500607749 -0.5899041376748613 0  0.2715303044287089 -0.6343511616272031 0  0.1797827852390276 -0.6724561856598887 0  0.08245691841944153 -0.6987814352278765 0  -0.01823308254303175 -0.7086680284866067 0  -0.1187721597024681 -0.7005452295010179 0  -0.2160830131847312 -0.677243894220505 0  -0.3091650523857785 -0.6401212566763159 0  -0.3954849766030805 -0.5919907552791073 0  -0.4753147869377815 -0.5404187054600342 0  -0.5514656177000363 -0.4907126271884815 0  -0.6251148007945022 -0.4455224969436369 0  0.8119767083788452 -0.2360126545380256 0  0.7234634476747804 -0.3970752750561254 0  0.7721156498973816 -0.3554491420895105 0  0.8033372069009753 -0.2999575568319361 0  0.6953198646043547 -0.4101030048429927 0  0.7487307742162913 -0.3774898012280339 0  0.7862920374382573 -0.3265951064160773 0  0.8067729601318488 -0.2676053528810858 0  0.6810359650280254 -0.41703650133901 0  0.7093215110382801 -0.4030192450647439 0  0.7361777678559502 -0.3874595216468238 0  0.7600352756287919 -0.3656810698144481 0  0.7806990980433861 -0.3418358526260122 0  0.7941540910126224 -0.3131077947541305 0  0.8044111369856165 -0.2835784652635047 0  0.8088325676867961 -0.2516954878850398 0  0.8113456856722473 -0.2153776056436995 0  0.816293814689989 0.2413255798053323 0  0.8159817333409148 0.2004464505714093 0  0.8169995530648149 0.1593845077749112 0  0.8185786188208689 0.1180110487581612 0  0.8204275910589489 0.07621877366844731 0  0.8210686140779699 0.03407733834496993 0  0.8205676491236625 -0.008149723440992076 0  0.8189271754419376 -0.05028357995191823 0  0.8161480182548821 -0.09205476133207478 0  0.8136780200637402 -0.1334270043160952 0  0.8118030589535929 -0.1744902310389636 0  0.8175311944497728 0.2619172943239571 0  0.8159202323015462 0.220895706427054 0  0.8177516161748921 0.1387418797070645 0  0.8208914181152688 0.05517095618530506 0  0.8198933522885568 -0.02924025006489369 0  0.8148768966547716 -0.1127859806638119 0  0.811351439262235 -0.1949464133052957 0  0.816397081779768 0.179948856630747 0  0.8195644514807822 0.09718878994707407 0  0.8209564225678351 0.01296345986111367 0  0.8175802273616724 -0.07124128278189379 0  0.8126449178394533 -0.1539925699253347 0  0.6782582318196682 0.4508230701891749 0  0.8106739210376064 0.326109139668075 0  0.7811374031275716 0.3823938045505135 0  0.7340361675037803 0.4250479815379543 0  0.813388517437607 0.2936425246069813 0  0.7948096764174656 0.3533439176671316 0  0.7585452758803403 0.4048251608068177 0  0.7064889074305086 0.4384315337852547 0  0.8150498101322469 0.2776920122725227 0  0.8115080046340371 0.3096915899171858 0  0.8021948943388579 0.3395689172257974 0  0.7892007743034686 0.3684895373123989 0  0.7694483805251687 0.3928201999442953 0  0.7463552729789171 0.4150655222212245 0  0.7201900733656444 0.4312289197823795 0  0.6925056768080152 0.445420910377665 0  -0.03357941707436909 0.7848272046265945 0  0.6250353152531285 0.4781942089989448 0  0.588932433383803 0.499950727230735 0  0.5524185730662917 0.5233374465978498 0  0.5153965818087359 0.5481783081497542 0  0.477593389858968 0.5740527666547691 0  0.4388513116591949 0.6006275002406616 0  0.3989784644078879 0.6275719034670331 0  0.3577261399609976 0.6545683545185136 0  0.3147916622098991 0.680781038175164 0  0.2700591174765223 0.7056337332294483 0  0.2234319591237147 0.7284263173875075 0  0.1748724029320101 0.7485261653559521 0  0.124498917004747 0.7646975333738724 0  0.07266297276439583 0.7763842031190958 0  0.01981736543357117 0.7830678917638207 0  0.6609122827949715 0.4589000257551411 0  -0.08685297327525565 0.7803476182719171 0  -0.1392440991310658 0.7703503649320381 0  -0.1901812404513515 0.7554277594504276 0  -0.2390238496173799 0.7354894788534632 0  -0.2858524977828071 0.7136350256418181 0  -0.3308063602521779 0.6898013235426952 0  -0.3739908883029718 0.6645747383701457 0  -0.4154840848278876 0.6383383793879648 0  -0.4556269165660748 0.6122748595774631 0  -0.4947068778766404 0.5865350390694969 0  -0.5328917723743348 0.5613879795013339 0  -0.5703357932344598 0.5371092694255131 0  -0.6071619779755673 0.5139402629745921 0  -0.6435367602844833 0.4923558306224051 0  -0.6796625979274143 0.4731683916588439 0  -0.6971351459413042 0.4651644326705205 0  -0.6614429398552961 0.4827128584115025 0  -0.58882254318337 0.525403505964901 0  -0.5139014590258567 0.5738750343538835 0  -0.4356905954266544 0.6252750857168209 0  -0.3526083448295376 0.6773064483837459 0  -0.2626723968277775 0.7248567583265716 0  -0.1649176834126888 0.7633650857020859 0  -0.06027897239241298 0.7832777752665009 0  0.04633923547736313 0.7803984100353273 0  0.1498932338059221 0.7571136564517483 0  0.2469832986239931 0.7173329804060784 0  0.3364707454733173 0.6678022325718141 0  0.4190662911488111 0.6140737108028239 0  0.4965959938628158 0.5610104045441231 0  0.5707344018710889 0.5115159159037211 0  0.6427979977194708 0.4684652055355156 0  -0.6253766466879321 0.5030754266000226 0  -0.5516958084832274 0.5491325716184878 0  -0.4752892786347431 0.599347953771254 0  -0.3949668461837121 0.6515335655491962 0  -0.3085562307772148 0.7019235794583094 0  -0.2149824845896673 0.7460274974046726 0  -0.1131960366429964 0.7759922909819759 0  -0.006806643537046079 0.7846561782048745 0  0.09873828806190432 0.7711366453954528 0  0.1994125280086612 0.7389227385541384 0  0.2926581833518703 0.6934228202706179 0  0.3785586136496158 0.6411130500983866 0  0.4583509820717819 0.587276429022826 0  0.5339962150907334 0.53559601510177 0  0.6070034659087387 0.4889946506170763 0  -0.8382126061877166 0.276510591119995 0  -0.753133583002456 0.4391977997833733 0  -0.800591547120697 0.3966613279445257 0  -0.8306188532410186 0.3405969675209888 0  -0.7254958992487517 0.4526522403437609 0  -0.7778107561765811 0.4190591714730148 0  -0.8143226938191596 0.3676005235584905 0  -0.8335919686405585 0.3081698806622998 0  -0.7114700834332894 0.4597605998283996 0  -0.7392402847350423 0.4453834703058918 0  -0.765540940503013 0.4292683559463348 0  -0.7888033698353225 0.40705797797599 0  -0.8088123573606099 0.3828303404553332 0  -0.8218686629995101 0.3539358518962427 0  -0.8315155156550544 0.324189571281431 0  -0.8354218401601868 0.2922407568134136 0  -0.8372616985316699 0.2559038072039048 0  -0.8377253637492711 -0.2004513102788956 0  -0.8376964094285292 -0.1596122252507284 0  -0.8390605184109146 -0.1185927493713935 0  -0.8410098480622858 -0.07725907502465018 0  -0.843252233328422 -0.03551523401494001 0  -0.8443350754527326 0.006585670128228681 0  -0.8442975584402634 0.04877633357237232 0  -0.8431456638700727 0.0908803587736919 0  -0.8408461632923703 0.1326382783047783 0  -0.8388097013923294 0.173991857265012 0  -0.8373404283079663 0.2150369634569756 0  -0.8387426506699222 -0.2210475589796944 0  -0.8374867514319521 -0.180042922102059 0  -0.8399991765783827 -0.0979711654783301 0  -0.8439359019607344 -0.01448794501314316 0  -0.8438623435306818 0.0698510021996339 0  -0.8397930014011953 0.1533591366054809 0  -0.8370744215775857 0.2354803390790689 0  -0.8382815273958097 -0.1391365999740338 0  -0.8421810570128777 -0.05646054155171973 0  -0.8444517962398154 0.02768086218617141 0  -0.8420493567730266 0.111830575721436 0  -0.8379812134077838 0.1945477106133711 0  -0.8311257031314951 -0.285072570325543 0  -0.8008504471284172 -0.340890967452915 0  -0.7531983640084412 -0.3830191051581803 0  -0.8341823095067873 -0.2526945338358664 0  -0.8147996770445064 -0.312029305366707 0  -0.7779861577387175 -0.3631537283794305 0  -0.7254328871271495 -0.3961527793801046 0  -0.8360022374126472 -0.2367731688841505 0  -0.832094847964
[...]
<PointData  Vectors="f_3204"> 
<DataArray  type="Float64"  Name="f_3204"  NumberOfComponents="3" format="ascii">8.3734319489170550e-01 -5.4674614012867784e-01 0.0000000000000000e+00  9.9945194260107217e-01 -3.6856366197816307e-02 0.0000000000000000e+00  9.9235192558291008e-01 -1.2442982248806786e-01 0.0000000000000000e+00  9.7955629475933081e-01 -2.0165565388902540e-01 0.0000000000000000e+00  9.6412792195683183e-01 -2.6548996284778026e-01 0.0000000000000000e+00  9.4461262119377543e-01 -3.2873791400236080e-01 0.0000000000000000e+00  9.1136033524645021e-01 -4.1184837840484556e-01 0.0000000000000000e+00  8.8402948751401289e-01 -4.6761401512240836e-01 0.0000000000000000e+00  8.6348197055537768e-01 -5.0448455198627573e-01 0.0000000000000000e+00  9.9867285079085077e-01 5.3842847261670670e-02 0.0000000000000000e+00  8.4048307634285779e-01 -5.4184321709846395e-01 0.0000000000000000e+00  8.3654618692598048e-01 -5.4790470080550524e-01 0.0000000000000000e+00  8.3787551298511298e-01 -5.4589992717647129e-01 0.0000000000000000e+00  8.4715945011867388e-01 -5.3148066817925266e-01 0.0000000000000000e+00  8.5879469231461447e-01 -5.1259554328736079e-01 0.0000000000000000e+00  8.7372600246305798e-01 -4.8689500465649854e-01 0.0000000000000000e+00  8.9595892173142799e-01 -4.4519970564121697e-01 0.0000000000000000e+00  9.4522026801352577e-01 3.3278554421618589e-01 0.0000000000000000e+00  9.9002336808683611e-01 1.4174818379565512e-01 0.0000000000000000e+00  9.7460074325621082e-01 2.2442768566368879e-01 0.0000000000000000e+00  9.5459384348833964e-01 2.9823371796866160e-01 0.0000000000000000e+00  9.3279565794825636e-01 3.6058876783639082e-01 0.0000000000000000e+00  9.1322137866820030e-01 4.0757751574080608e-01 0.0000000000000000e+00  8.9552228804814915e-01 4.4507837248807458e-01 0.0000000000000000e+00  8.8074384656738847e-01 4.7362606858012440e-01 0.0000000000000000e+00  8.7162673807234858e-01 4.9017685632479374e-01 0.0000000000000000e+00  8.6602613194184286e-01 5.0000415556196032e-01 0.0000000000000000e+00  8.6439446224230088e-01 5.0283825183957298e-01 0.0000000000000000e+00  8.6556396146843639e-01 5.0085394663068350e-01 0.0000000000000000e+00  8.7242834904234345e-01 4.8891221954030312e-01 0.0000000000000000e+00  8.8069472782841385e-01 4.7399615304455267e-01 0.0000000000000000e+00  8.9464975194593899e-01 4.4735586015053730e-01 0.0000000000000000e+00  9.1199294985074231e-01 4.1131699304432784e-01 0.0000000000000000e+00  9.0427409419316795e-01 4.2777946013858631e-01 0.0000000000000000e+00  8.8812301560862572e-01 -4.6050991964731336e-01 0.0000000000000000e+00  8.5108628889362903e-01 -5.2517130622700559e-01 0.0000000000000000e+00  8.3695118896360743e-01 -5.4729970213032741e-01 0.0000000000000000e+00  8.4302118347734900e-01 -5.3788113974734908e-01 0.0000000000000000e+00  8.7188680081996262e-01 -4.8982261396563237e-01 0.0000000000000000e+00  9.2567021860035992e-01 -3.7877942807778237e-01 0.0000000000000000e+00  9.7099150352961039e-01 -2.3951946551190681e-01 0.0000000000000000e+00  9.9677276092199729e-01 -8.1846337244466369e-02 0.0000000000000000e+00  8.8393290922487366e-01 4.6788383061167721e-01 0.0000000000000000e+00  9.6509025172019203e-01 2.6229459507714170e-01 0.0000000000000000e+00  9.2297525934955360e-01 3.8499785891241906e-01 0.0000000000000000e+00  8.8802732219036939e-01 4.5983535859957470e-01 0.0000000000000000e+00  8.6813430394261559e-01 4.9633344353652142e-01 0.0000000000000000e+00  8.6473393876170368e-01 5.0227101569360266e-01 0.0000000000000000e+00  8.7345326977653626e-01 4.8704431490301969e-01 0.0000000000000000e+00  9.9530846546546992e-01 9.8018616777125880e-02 0.0000000000000000e+00  9.3238924049877236e-01 -3.6665447876011625e-01 0.0000000000000000e+00  8.6844340753884075e-01 4.9588325447163217e-01 0.0000000000000000e+00  8.6470080784737291e-01 5.0229880806137317e-01 0.0000000000000000e+00  8.7535834437718640e-01 4.8348785549340034e-01 0.0000000000000000e+00  9.0398147099424031e-01 4.2765796368650366e-01 0.0000000000000000e+00  9.4323173581055852e-01 3.3239760719559031e-01 0.0000000000000000e+00  9.8306324053517791e-01 1.8388874817509421e-01 0.0000000000000000e+00  1.0000920498054302e+00 8.9146887537465223e-03 0.0000000000000000e+00  9.8619646739036548e-01 -1.6624542500325656e-01 0.0000000000000000e+00  9.6006471421421447e-01 -2.8016708458156370e-01 0.0000000000000000e+00  8.9790783638771454e-01 -4.4039029011390518e-01 0.0000000000000000e+00  8.4489737554358568e-01 -5.3514200059992212e-01 0.0000000000000000e+00  8.3749235409588485e-01 -5.4645248738671048e-01 0.0000000000000000e+00  8.3989529792755491e-01 -5.4279951427770612e-01 0.0000000000000000e+00  8.6344309075753956e-01 -5.0471562929016278e-01 0.0000000000000000e+00  7.2101017149819577e-02 1.1931593454517044e+00 0.0000000000000000e+00  8.6911149954541966e-01 4.9840489348895439e-01 0.0000000000000000e+00  6.9361999938014218e-01 7.2882310934115013e-01 0.0000000000000000e+00  3.2191432269502218e-01 9.5130591251441499e-01 0.0000000000000000e+00  8.7972758942629325e-01 4.7605103524830522e-01 0.0000000000000000e+00  7.2662055641893841e-01 6.8718558710744304e-01 0.0000000000000000e+00  3.8138913748054731e-01 9.2579482372124711e-01 0.0000000000000000e+00  1.4750001201620080e-01 9.8736555104254875e-01 0.0000000000000000e+00  9.3047980261050478e-01 3.7018238592998898e-01 0.0000000000000000e+00  9.2528404013454135e-01 3.8791244235904621e-01 0.0000000000000000e+00  7.8577361153224823e-01 6.2043831814763639e-01 0.0000000000000000e+00  7.3712148463502314e-01 6.7610411593033037e-01 0.0000000000000000e+00  3.9509981807106670e-01 9.2730069960098960e-01 0.0000000000000000e+00  6.2376509220011322e-01 7.9537763898347358e-01 0.0000000000000000e+00  4.7030945070557911e-02 1.0074808891186542e+00 0.0000000000000000e+00  1.8762326660662695e-01 9.6820328894614538e-01 0.0000000000000000e+00  -1.9424576731589399e-02 -5.2612965559911329e-01 0.0000000000000000e+00  7.0890333269769384e-03 1.6363748632954027e+00 0.0000000000000000e+00  9.5801652924244127e-03 -1.0397423160526886e+00 0.0000000000000000e+00  3.3209837127630391e-02 -9.9957532209562960e-01 0.0000000000000000e+00  4.4078749121055145e-02 -9.9960068477527408e-01 0.0000000000000000e+00  3.1844942282699525e-02 -1.0269950451596239e+00 0.0000000000000000e+00  1.2146693176248258e-04 -4.7618851282789931e-01 0.0000000000000000e+00  2.5078605391540960e-02 9.8633265892657507e-01 0.0000000000000000e+00  5.5606565006996449e-02 1.0005053175479117e+00 0.0000000000000000e+00  6.5177014872328604e-02 9.9790257576233399e-01 0.0000000000000000e+00  5.4444900210315582e-02 9.9894326992787885e-01 0.0000000000000000e+00  3.0311931460555459e-02 1.0059449813433210e+00 0.0000000000000000e+00  2.9625923879654386e-02 -1.1558304737518805e+00 0.0000000000000000e+00  4.3474865419387840e-03 -7.5927080072931474e-01 0.0000000000000000e+00  3.7877627247821677e-02 -9.9940743882153715e-01 0.0000000000000000e+00  1.4941841767485767e-02 -9.6295898882497044e-01 0.0000000000000000e+00  3.8184307578900158e-02 9.9386108340900137e-01 0.0000000000000000e+00  5.9483217461288262e-02 9.9822285934582167e-01 0.0000000000000000e+00  1.9862208907129624e-02 1.0142268302274202e+00 0.0000000000000000e+00  2.6443587215257539e-02 -9.9534450078144188e-01 0.0000000000000000e+00  4.7309527607092401e-02 -9.9384353968130723e-01 0.0000000000000000e+00  1.2274007515029928e-02 1.2414333225827390e+00 0.0000000000000000e+00  6.9388915496055900e-02 9.9728540713368186e-01 0.0000000000000000e+00  4.7251115133183537e-02 9.9686132535139560e-01 0.0000000000000000e+00  9.2836087381984200e-01 -3.7689676283066426e-01 0.0000000000000000e+00  2.9344691376594018e-01 -9.6025123763475717e-01 0.0000000000000000e+00  6.6537514091364325e-01 -7.5368037477165095e-01 0.0000000000000000e+00  8.5394542656768790e-01 -5.2415830978981925e-01 0.0000000000000000e+00  1.1987191645683944e-01 -9.8964300188352849e-01 0.0000000000000000e+00  3.7431025573601612e-01 -9.2794927482198108e-01 0.0000000000000000e+00  7.0802969647546143e-01 -7.0617284242236456e-01 0.0000000000000000e+00  8.7415797674088536e-01 -4.8600349263122400e-01 0.0000000000000000e+00  1.5482057204458871e-01 -9.8326429236282531e-01 0.0000000000000000e+00  2.6734000042288521e-02 -1.0076069394672664e+00 0.0000000000000000e+00  5.8068437448440069e-01 -8.2467141133473176e-01 0.0000000000000000e+00  3.8103514682915157e-01 -9.3216369721273895e-01 0.0000000000000000e+00  7.2157256235628964e-01 -6.9339400172013221e-01 0.0000000000000000e+00  7.6578377179964852e-01 -6.4491487639451750e-01 0.0000000000000000e+00  9.1856349832884188e-01 -4.0466644757948633e-01 0.0000000000000000e+00  9.2374421673897089e-01 -3.8733655517993804e-01 0.0000000000000000e+00  9.9988937147423973e-01 2.6448779222934125e-02 0.0000000000000000e+00  8.6711769690783280e-01 -4.9860645656553093e-01 0.0000000000000000e+00  8.5021939057010054e-01 -5.2671005806553439e-01 0.0000000000000000e+00  8.3682691185419689e-01 -5.4760254263887498e-01 0.0000000000000000e+00  8.2701122893503454e-01 -5.6222789661554673e-01 0.0000000000000000e+00  8.2410443343747375e-01 -5.6644653268485201e-01 0.0000000000000000e+00  8.2591550590179119e-01 -5.6379493483142373e-01 0.0000000000000000e+00  8.3141491627918640e-01 -5.5566537760192014e-01 0.0000000000000000e+00  8.4434962221065379e-01 -5.3585125591111571e-01 0.0000000000000000e+00  8.6296280399495762e-01 -5.0536902926545524e-01 0.0000000000000000e+00  8.8572007967599353e-01 -4.6438686761760156e-01 0.0000000000000000e+00  9.1031055923018578e-01 -4.1415689557006247e-01 0.0000000000000000e+00  9.3886848531356193e-01 -3.4468148995283615e-01 0.0000000000000000e+00  9.6439636710873700e-01 -2.6503082162828395e-01 0.0000000000000000e+00  9.8474683464947621e-01 -1.7492749096638890e-01 0.0000000000000000e+00  9.9694047854210022e-01 -7.9608571032585854e-02 0.0000000000000000e+00  8.9101863956797145e-01 -4.5507052959585964e-01 0.0000000000000000e+00  9.9081597540158028e-01 1.3648727070221606e-01 0.0000000000000000e+00  9.7129492924124516e-01 2.3863700917676728e-01 0.0000000000000000e+00  9.4611452623994785e-01 3.2451469101168123e-01 0.0000000000000000e+00  9.1323119417167176e-01 4.0763363754611670e-01 0.0000000000000000e+00  8.9391418893596208e-01 4.4843806763711103e-01 0.0000000000000000e+00  8.7263342182261783e-01 4.8848549727037527e-01 0.0000000000000000e+00  8.5449834331076313e-01 5.1952020494474971e-01 0.0000000000000000e+00  8.3985173225166732e-01 5.4282923915406966e-01 0.0000000000000000e+00  8.3644510046165854e-01 5.4805261078904421e-01 0.0000000000000000e+00  8.3461511866048332e-01 5.5084282599780732e-01 0.0000000000000000e+00  8.3658904831387459e-01 5.4787031367217753e-01 0.0000000000000000e+00  8.4292684919295857e-01 5.3813965267743746e-01 0.0000000000000000e+00  8.5414567398282193e-01 5.2028818085774431e-01 0.0000000000000000e+00  8.7071506351425576e-01 4.9227426591568191e-01 0.0000000000000000e+00  8.9296179684232557e-01 4.5117597824196642e-01 0.0000000000000000e+00  9.3062845771355784e-01 3.7137350912410944e-01 0.0000000000000000e+00  8.8414896330923942e-01 4.6801699603012620e-01 0.0000000000000000e+00  8.4543614469547212e-01 5.3418425203274400e-01 0.0000000000000000e+00  8.3495794223866771e-01 5.5033311745371782e-01 0.0000000000000000e+00  8.3900608032493673e-01 5.4412296153297790e-01 0.0000000000000000e+00  8.6337956703196927e-01 5.0462813602333279e-01 0.0000000000000000e+00  9.0741943928558189e-01 4.2035245810503613e-01 0.0000000000000000e+00  9.5988505251900735e-01 2.8090493400500022e-01 0.0000000000000000e+00  9.9658636735200223e-01 8.4913902875973724e-02 0.0000000000000000e+00  9.9236630522903579e-01 -1.2455016402059485e-01 0.0000000000000000e+00  9.5216464333517370e-01 -3.0603023530067347e-01 0.0000000000000000e+00  8.9851807055914179e-01 -4.3911780342475171e-01 0.0000000000000000e+00  8.5338780354376043e-01 -5.2134919269874269e-01 0.0000000000000000e+00  8.2849345886047909e-01 -5.6000204206885307e-01 0.0000000000000000e+00  8.2506188480341647e-01 -5.6506413807929512e-01 0.0000000000000000e+00  8.4146205463414359e-01 -5.4046237533647945e-01 0.0000000000000000e+00  8.8189715490533560e-01 -4.7234022957447452e-01 0.0000000000000000e+00  8.5890429014653735e-01 5.1237447780753298e-01 0.0000000000000000e+00  8.3875102294508008e-01 5.4457343121773261e-01 0.0000000000000000e+00  8.3492769042080706e-01 5.5036165252090252e-01 0.0000000000000000e+00  8.4420356258795437e-01 5.3609291868438391e-01 0.0000000000000000e+00  8.8356792024181885e-01 4.6842097485405554e-01 0.0000000000000000e+00  9.2375274503369464e-01 3.8389774235911650e-01 0.0000000000000000e+00  9.8249030923427971e-01 1.8732553389738424e-01 0.0000000000000000e+00  9.9955323909923077e-01 -3.6121636636155065e-02 0.0000000000000000e+00  9.7568103918016391e-01 -2.1986528177717729e-01 0.0000000000000000e+00  9.2351104702592290e-01 -3.8395284373051380e-01 0.0000000000000000e+00  8.7399004977734673e-01 -4.8607216909520246e-01 0.0000000000000000e+00  8.3615948944264351e-01 -5.4852924596985253e-01 0.0000000000000000e+00  8.2445685606023467e-01 -5.6592690567531723e-01 0.0000000000000000e+00  8.2967932993943339e-01 -5.5829710492645923e-01 0.0000000000000000e+00  8.5557020268985029e-01 -5.1796135244877106e-01 0.0000000000000000e+00  4.9479923889795559e-02 1.1786754036305336e+00 0.0000000000000000e+00  8.5607597333116092e-01 5.2054103146435515e-01 0.0000000000000000e+00  6.7398773714701532e-01 7.4647161917291016e-01 0.0000000000000000e+00  3.0317619716732297e-01 9.5729252039120150e-01 0.0000000000000000e+00  8.7173748976576482e-01 4.9040486769340824e-01 0.0000000000000000e+00  7.1108700479213605e-01 7.0316657141802985e-01 0.0000000000000000e+00  3.7277715339714218e-01 9.2890304843744098e-01 0.0000000000000000e+00  1.3136874659546804e-01 9.8833952503105793e-01 0.0000000000000000e+00  9.2245324069794465e-01 3.9006613429719178e-01 0.0000000000000000e+00  9.1804679052517124e-01 4.0540920766096450e-01 0.0000000000000000e+00  7.6959218412387154e-01 6.4035316522893360e-01 0.0000000000000000e+00  7.2387825608433898e-01 6.9062430673505015e-01 0.0000000000000000e+00  3.8145612334697077e-01 9.3247939450562367e-01 0.0000000000000000e+00  5.9798854863224571e-01 8.1351964975678193e-01 0.0000000000000000e+00  3.3765187064294676e-02 1.0077454819333340e+00 0.0000000000000000e+00  1.6974300822630220e-01 9.7786323803266240e-01 0.0000000000000000e+00  -8.8625136424578203e-03 -1.1748337287594233e+00 0.0000000000000000e+00  -6.0136245228078790e-03 1.2331659188201087e+00 0.0000000000000000e+00  1.7768320476826409e-02 -1.0394147637418212e+00 0.0000000000000000e+00  4.2080795632930559e-02 -9.9930480904989083e-01 0.0000000000000000e+00  5.2822313861932479e-02 -9.9845379673315937e-01 0.0000000000000000e+00  4.2289104432986634e-02 -9.9219729594456696e-01 0.0000000000000000e+00  1.2821101498745231e-02 -1.1120705683728052e+00 0.0000000000000000e+00  1.4728307436030858e-02 1.0207493467082085e+00 0.0000000000000000e+00  4.3612109521785833e-02 9.9163933757899636e-01 0.0000000000000000e+00  5.4632545564105482e-02 9.9843109946698982e-01 0.0000000000000000e+00  4.4301135724777327e-02 9.9936717422696053e-01 0.0000000000000000e+00  2.0649222975902437e-02 1.0183178972026912e+00 0.0000000000000000e+00  4.5491039008709044e-02 -1.1893508998071003e+00 0.0000000000000000e+00  9.4387475604505201e-03 -7.6464871328416884e-01 0.0000000000000000e+00  4.6930514442003107e-02 -9.9899930893348232e-01 0.0000000000000000e+00  2.4769700700212571e-02 -1.0111525012662479e+00 0.0000000000000000e+00  2.6468075043322867e-02 1.0232227407629226e+00 0.0000000000000000e+00  4.9038912022250296e-02 9.9880712406279037e-01 0.0000000000000000e+00  1.1612613159495964e-02 9.2344553045067057e-01 0.0000000000000000e+00  3.4896603067782667e-02 -9.9500007256328760e-01 0.0000000000000000e+00  5.6695553101196138e-02 -9.9961305206325524e-01 0.0000000000000000e+00  -2.1058348194964561e-04 2.1918228409382345e-01 0.0000000000000000e+00  5.7927238789206838e-02 9.9935562450671911e-01 0.0000000000000000e+00  3.7435364744464794e-02 9.9637774599822826e-01 0.0000000000000000e+00  3.0640818333052172e-01 -9.5623959745463594e-01 0.0000000000000000e+00  6.7834374492072735e-01 -7.4236691498319052e-01 0.0000000000000000e+00  8.6058453024754245e-01 -5.1309721890398341e-01 0.0000000000000000e+00  1.3121985032731817e-01 -9.8829019856494427e-01 0.0000000000000000e+00  3.7836967861652610e-01 -9.2661628457187428e-01 0.0000000000000000e+00  7.1684217405598061e-01 -6.9730817086321306e-01 0.0000000000000000e+00  8.7984577916133000e-01 -4.7565324830859457e-01 0.0000000000000000e+00  1.6798075567623380e-01 -9.7736063198692869e-01 0.0000000000000000e+00  3.6956689048453804e-02 -1.0075582233557847e+00 0.0000000000000000e+00  5.9801985248662204e-01 -8.1311317931645488e-01 0.0000000000000000e+00  3.9074148433957129e-01 -9.2832790833724521e-01 0.0000000000000000e+00  7.2646611095175995e-01 -6.8788883807502932e-01 0.0000000000000000e+00  7.7539237732081545e-01 -6.3334219385739998e-01 0.0000000000000000e+00  9.2222708337005488e-01 -3.9585349276619902e-01 0.0000000000000000e+00  9.2941897792095207e-01 -3.7370061341748906e-01 0.0000000000000000e+00  8.9268217037388731e-01 4.5089728728725631e-01 0.0000000000000000e+00  8.9337724680071628e-01 4.4951211683424169e-01 0.0000000000000000e+00  9.9118888145806616e-01 -1.3323474959002027e-01 0.0000000000000000e+00  7.4476427377596643e-01 -6.6754008905561890e-01 0.0000000000000000e+00  7.3516230208485711e-01 -6.7808515050103813e-01 0.0000000000000000e+00  9.8278643715303682e-01 -1.8537002421606363e-01 0.0000000000000000e+00  2.6701671605037558e-01 9.6384692788758208e-01 0.0000000000000000e+00  2.4949679224093760e-01 9.6848751538969780e-01 0.0000000000000000e+00  2.4860712206896418e-01 -9.6871560054245287e-01 0.0000000000000000e+00  2.3235691669152461e-01 -9.7275317104450776e-01 0.0000000000000000e+00  6.1693919013649068e-01 -7.8726287669171302e-01 0.0000000000000000e+00  3.6408838548641775e-01 -9.3163225638922020e-01 0.0000000000000000e+00  5.0913488495354997e-01 -8.6134216549513654e-01 0.0000000000000000e+00  6.6943397974924310e-02 1.2608592559796024e+00 0.0000000000000000e+00  1.6737479624018239e-01 9.5770452659291372e-01 0.0000000000000000e+00  1.2606113428673196e-02 1.1361746930476970e+00 0.0000000000000000e+00  7.5210651162103703e-01 -6.6010641141995641e-01 0.0000000000000000e+00  5.5387655635659605e-01 8.3119058634679521e-01 0.0000000000000000e+00  9.9481443181296125e-01 -1.1238303784817220e-01 0.0000000000000000e+00  9.0409009407956387e-01 -4.6078926437165890e-01 0.0000000000000000e+00  7.4203465054500439e-01 6.7355980323483267e-01 0.0000000000000000e+00  5.3527515919889579e-01 -8.4429100808272994e-01 0.0000000000000000e+00  1.3009609605758177e-01 9.2191829195517605e-01 0.0000000000000000e+00  6.3071827210866693e-01 -7.7626937070744018e-01 0.0000000000000000e+00  3.7455714786951361e-01 -9.2740178705641718e-01 0.0000000000000000e+00  4.1599708711384879e-05 -1.1217974960959171e-01 0.0000000000000000e+00  4.0075963047810170e-01 9.1643370346672504e-01 0.0000000000000000e+00  6.7373426784610657e-01 7.3924429591791629e-01 0.0000000000000000e+00  9.8771295585334440e-01 1.5708316902366223e-01 0.0000000000000000e+00  6.3808624526527424e-01 7.7021185655515534e-01 0.0000000000000000e+00  7.6278606691216944e-01 6.4681949367910851e-01 0.0000000000000000e+00  8.7406922462972336e-01 -4.8604287727644002e-01 0.0000000000000000e+00  5.9767115485264977e-01 8.0216795798669993e-01 0.0000000000000000e+00  9.8220359701120785e-01 1.8834597957920740e-01 0.0000000000000000e+00  8.8273599314510287e-01 -4.7023380737709397e-01 0.0000000000000000e+00  4.3642091308817133e-01 9.0001446648440597e-01 0.0000000000000000e+00  4.8796431270607671e-01 -8.7342615018069791e-01 0.0000000000000000e+00  3.1550518947571576e-02 1.3204180845903339e+00 0.0000000000000000e+00  7.8152315480284873e-01 6.2405712766266375e-01 0.0000000000000000e+00  5.2321183961784790e-01 8.5249418703626978e-01 0.0000000000000000e+00  8.2391697654355311e-01 5.6745191774744952e-01 0.0000000000000000e+00  5.1006623542301766e-01 -8.6042617615312433e-01 0.0000000000000000e+00  5.230