<?xml version="1.0"?>
<VTKFile type="UnstructuredGrid"  version="0.1"  >
<UnstructuredGrid>
<Piece  NumberOfPoints="4153" NumberOfCells="8064">
<Points>
<DataArray  type="Float64"  NumberOfComponents="3"  format="ascii">-0.4024463474789959 -0.4860560628867392 0  -0.0253207394150775 -0.5309207538296916 0  -0.07278929914081927 -0.5276492908451168 0  -0.1201057274593526 -0.5235459682508766 0  -0.1673028834980037 -0.5189642943336581 0  -0.2145197460636528 -0.5141063743843289 0  -0.261707732781702 -0.5080495637706728 0  -0.3087787706911932 -0.501234374182602 0  -0.355716218903075 -0.4938689867058357 0  0.02229109564320119 -0.5330492598538535 0  -0.4490784938702139 -0.4786263192414337 0  -0.4956034483433081 -0.4711320199277117 0  -0.5420085552614414 -0.4637214968670392 0  -0.5882730573243884 -0.4566814247683603 0  -0.6344182590151337 -0.4499633503282174 0  -0.6803871251120445 -0.4437079167514245 0  -0.7261627732920519 -0.4380488699841359 0  0.7502091094652482 -0.4505334884396514 0  0.07001531125972596 -0.5338283374648033 0  0.1178042246979836 -0.5330964772740333 0  0.1655929972502257 -0.5307931860007763 0  0.2133055012613935 -0.5269917055507195 0  0.2608931957296698 -0.521994417367026 0  0.3083344709181881 -0.5159952786517253 0  0.3556082954692912 -0.5092025009427724 0  0.4026980760443378 -0.5019149768277097 0  0.4496126029878055 -0.4943203908645171 0  0.4963568375371551 -0.486620959949393 0  0.5429322752112193 -0.478964161629223 0  0.5893397192269222 -0.4715718470351736 0  0.6355706172697001 -0.4644899690376185 0  0.6816127913705325 -0.4579855738018083 0  0.7274618851047667 -0.4522098783411606 0  0.7045468084501921 -0.4550752585041621 0  -0.7032764370264206 -0.4409339209054354 0  -0.61136560227045 -0.4532821902811663 0  -0.5188211513109275 -0.4674184843780554 0  -0.4257775630137648 -0.48239201886281 0  -0.3322642735639973 -0.4976130560236047 0  -0.2381252005976401 -0.5111794988160624 0  -0.1437150568456123 -0.5212924783015742 0  -0.04907448999528945 -0.5294101992349519 0  0.6586156598928655 -0.4611541495990518 0  0.1417030118422954 -0.5321407534405845 0  0.2371161040554955 -0.5246313802722895 0  0.3319930405412628 -0.5126888399858677 0  0.4261768044417415 -0.4981388403476809 0  0.5196654876851045 -0.4827817648073566 0  0.6124777360217466 -0.4679655173170516 0  0.04614153703136989 -0.5336189335274111 0  -0.7488138708379862 -0.4365025514294276 0  0.5661519244488591 -0.4752342218200137 0  0.4730057909298872 -0.49047440881135 0  0.3791729412782107 -0.5056016832145633 0  0.2846336052600999 -0.519107414660153 0  0.1894644228875169 -0.5290604679103379 0  0.09390549193905415 -0.5336577943739568 0  -0.001530914883008871 -0.5321435664065953 0  -0.09646551343655325 -0.5256804040618909 0  -0.1908895432952969 -0.5166583072668567 0  -0.2852592281305678 -0.5047208148676998 0  -0.3791267753305789 -0.4898954850132853 0  -0.4723551576994602 -0.4748782035307553 0  -0.5651512462682468 -0.4601310513147825 0  -0.6574259913137062 -0.4467687973645529 0  0.9319189035362496 -0.2586285802638616 0  0.8202698701145451 -0.4331240016884269 0  0.8798159081265544 -0.3913249043691217 0  0.9189461451962263 -0.330198378749016 0  0.7853338131205805 -0.4418980875979783 0  0.8504139075924028 -0.4127340628095042 0  0.8988281508806806 -0.3603575892447239 0  0.9250949465556453 -0.2942492255547217 0  0.7678488899248364 -0.4466163477431109 0  0.8027483573933224 -0.4373207418253095 0  0.835353233419093 -0.4230355287609015 0  0.8647932292175724 -0.4015290865882221 0  0.8896561539179264 -0.376007991872195 0  0.9087016168456087 -0.3452318543386987 0  0.9218589803261485 -0.3121526247719777 0  0.928314758636737 -0.2764048475469927 0  0.9317473230822559 -0.23538012261672 0  0.9388449467871262 0.2766612173899831 0  0.9380096809878996 0.2302890057431139 0  0.9378905315636719 0.1839174866566653 0  0.9381438555745062 0.1374596693773965 0  0.9385905125466205 0.09084280021998595 0  0.938507541913622 0.04408669790202979 0  0.9378924187028371 -0.002711221507996561 0  0.9367424630623907 -0.04948853669476543 0  0.9350502919407032 -0.0961440823644779 0  0.9335101436088868 -0.1426442815025873 0  0.9322968233332056 -0.1890384947976266 0  0.9396805770270483 0.2999724723487443 0  0.93830572560987 0.2534675887993624 0  0.9379843537852437 0.160703143605939 0  0.9386170316879358 0.06747414100371665 0  0.9373859162651021 -0.0261068253665481 0  0.9342529160966165 -0.1194096009329446 0  0.9319097380849771 -0.2122109771313211 0  0.9378930540593848 0.2071096812400733 0  0.9383908167243523 0.1141804697861373 0  0.938264719370707 0.02068912387443114 0  0.9359236808090113 -0.07284379060483465 0  0.9328513164773858 -0.1658521267072529 0  0.7639068922396508 0.4963539313936506 0  0.9286010760009291 0.3719869830691581 0  0.8910817447210024 0.4339941130768776 0  0.8329215265066059 0.4772608535360671 0  0.9338336075987542 0.3357696489782428 0  0.9093183005760709 0.4025416534965701 0  0.8624837995159436 0.4561999436706944 0  0.7985573063539561 0.4870084051759964 0  0.9365465435200406 0.3178218127714583 0  0.9310670584553106 0.3537968064978158 0  0.91877020941261 0.3872026149337212 0  0.9005722272167845 0.4184461772580815 0  0.8764498684045765 0.4445429106023507 0  0.8477202817457463 0.4668360606044917 0  0.8156980971387515 0.4819593863522451 0  0.7813180168027134 0.4921615913366104 0  -0.02125187734945076 0.6301231167689869 0  0.6961959383284807 0.5072102466125359 0  0.6505806451212856 0.5163559760457967 0  0.604674701388489 0.5263156493223285 0  0.5584979660288965 0.5369515012437264 0  0.5120053878689682 0.5481595974285935 0  0.4651879591603947 0.5596474885093177 0  0.4180281747578477 0.5712120427521892 0  0.370507183595894 0.5826833924729276 0  0.32258439400652 0.5936840747772772 0  0.2742830859696826 0.6038301961993708 0  0.2256225243434224 0.6128190375879923 0  0.1766219961685147 0.6204160433367649 0  0.127337148410238 0.6260289391384194 0  0.0778772224987538 0.6295142158191624 0  0.02833484609224465 0.6308210980155913 0  0.7415243290967535 0.4990128997015343 0  -0.07076847581343615 0.6267586273874204 0  -0.1200520273879609 0.6211621052695306 0  -0.1690096462555565 0.6136744087249441 0  -0.2175129071065785 0.6045145301656947 0  -0.2655839293890602 0.5951042318610251 0  -0.3133313283608422 0.5854057809766612 0  -0.3607928595013216 0.5755259185803006 0  -0.4079713269123097 0.5655983619195846 0  -0.4549222146399438 0.5559244680601141 0  -0.5016648997432336 0.5464449372386587 0  -0.5482037009727903 0.5372374708537178 0  -0.5945345850395769 0.5283957935003505 0  -0.6406400950504628 0.5200422843116871 0  -0.6865056467265849 0.5123766441583505 0  -0.7321237394473412 0.5055091934484125 0  -0.7546889799214185 0.5034364252587963 0  -0.7093261423854773 0.5089497286936145 0  -0.6176160876152876 0.5241424269254571 0  -0.5249599648207404 0.5418019492799664 0  -0.431474108057853 0.5607484584189805 0  -0.3370960866826234 0.5804848165293436 0  -0.2415934533182757 0.5998662875711549 0  -0.1445773825121695 0.6176253564142632 0  -0.04603143568005728 0.6287323569268692 0  0.05311188671740992 0.6304455333285519 0  0.1520077667140119 0.6234771681431917 0  0.2499964707410375 0.6084932133307588 0  0.3465935836471406 0.5882768877880414 0  0.4416523700691986 0.5654374995458686 0  0.5352907471259836 0.5425145402880526 0  0.6276637556658827 0.5212534422685493 0  0.7188724421845833 0.5031251085588528 0  -0.6636034508097524 0.5161138580332595 0  -0.5713952848195046 0.5327678852152451 0  -0.4783190879162236 0.551156038691433 0  -0.3844196143723943 0.5705287120739819 0  -0.2894952316672431 0.5902846216230653 0  -0.1933449600753188 0.6092010999954629 0  -0.09544579233135693 0.6242167797477283 0  0.003560409059397782 0.630770433796334 0  0.10262307378079 0.6280443442199366 0  0.2011700253673341 0.6168272319925526 0  0.2984800703815925 0.5988828155827233 0  0.3943167902636073 0.5769636315226256 0  0.4886383031616344 0.5538811128214015 0  0.5816209519951711 0.5315327604167527 0  0.67342427645947 0.5116716046767561 0  -0.9335656849083627 0.3100331169786126 0  -0.8243041243132808 0.485516252350923 0  -0.8832622827495448 0.4431830493395642 0  -0.9216239666531526 0.3817361031636439 0  -0.789623229300331 0.4946635850163892 0  -0.8542405744981949 0.4649466282684833 0  -0.9018642846187204 0.4120063233681689 0  -0.9272553032272207 0.3456828409970697 0  -0.7722417512508553 0.4995293219980879 0  -0.8069163237764199 0.4899164616273805 0  -0.8392880181414319 0.4753517247677357 0  -0.8684091002718044 0.4535153814033444 0  -0.8929446019435318 0.4277839579434357 0  -0.9115477063405905 0.3968182111753796 0  -0.9242821165534345 0.3636309433006469 0  -0.9301829064257778 0.3278108747549375 0  -0.9329902890923468 0.2867839964673838 0  -0.9303753589169976 -0.2235282829541766 0  -0.9306031616344866 -0.1773118670457787 0  -0.9314670683064731 -0.1310723156869963 0  -0.9326518964926288 -0.08474760601213532 0  -0.9340133326883123 -0.03827319173911945 0  -0.9347833164896313 0.008327171513371749 0  -0.9349812539054765 0.054950858518909 0  -0.9346168246791837 0.1015391922777064 0  -0.9336952489832842 0.1479952211822691 0  -0.9329785134412164 0.1943029137944069 0  -0.9326319339025463 0.2405389617122071 0  -0.930686200470354 -0.246730641330155 0  -0.930380468651934 -0.2004176047908479 0  -0.9320316250090379 -0.1079234827346078 0  -0.9344720778367044 -0.01498011631323475 0  -0.9348708504371164 0.07825341819241656 0  -0.9333034433290359 0.1711617826575758 0  -0.9326889329874645 0.2636541820355052 0  -0.9309853565676783 -0.1541996399408395 0  -0.9333606011572149 -0.06153941112635379 0  -0.9349509128424727 0.03163982090580084 0  -0.9341801732860885 0.1247959263632674 0  -0.9327495657282313 0.2174256774505862 0  -0.9178939152208956 -0.3181673364574172 0  -0.8786439377955702 -0.3789888133996797 0  -0.8189552868415032 -0.420271034066867 0  -0.924020553497383 -0.2822947632465142 0  -0.89777930156209 -0.3482314701211306 0  -0.8492307874231753 -0.4002608748517145 0  -0.78398374472675 -0.428675198907905 0  -0.9271753304639339 -0.2644792379995018 0  -0.9208104881010404 -
[...]
<PointData  Vectors="f_2072"> 
<DataArray  type="Float64"  Name="f_2072"  NumberOfComponents="3" format="ascii">9.8777693934275235e-01 -1.5726448161371481e-01 0.0000000000000000e+00  9.9834698651054254e-01 -5.7632859800927687e-02 0.0000000000000000e+00  9.9690280589627700e-01 -7.8744489213893445e-02 0.0000000000000000e+00  9.9571442012292377e-01 -9.2652533931057116e-02 0.0000000000000000e+00  9.9530281611387850e-01 -9.7215142970544982e-02 0.0000000000000000e+00  9.9339187700543219e-01 -1.1573827882797319e-01 0.0000000000000000e+00  9.9086583977848419e-01 -1.3574534467986585e-01 0.0000000000000000e+00  9.8885955143909365e-01 -1.4985188493736562e-01 0.0000000000000000e+00  9.8672897556669126e-01 -1.6342042586966601e-01 0.0000000000000000e+00  9.9953026984728899e-01 -3.1075753305509664e-02 0.0000000000000000e+00  9.8733549086296679e-01 -1.6002648739238587e-01 0.0000000000000000e+00  9.8761800505508890e-01 -1.5862440299237351e-01 0.0000000000000000e+00  9.8805605562611121e-01 -1.5614373436698173e-01 0.0000000000000000e+00  9.8962386733924124e-01 -1.4628562070216938e-01 0.0000000000000000e+00  9.9066481525002503e-01 -1.3975048621142036e-01 0.0000000000000000e+00  9.9331741606207447e-01 -1.2225258284293920e-01 0.0000000000000000e+00  9.9822869104326850e-01 -8.5432077293307804e-02 0.0000000000000000e+00  9.9385351416275081e-01 1.2564543239468770e-01 0.0000000000000000e+00  1.0000191751373615e+00 -9.1667579402119346e-04 0.0000000000000000e+00  9.9952043192614748e-01 3.1730860187338610e-02 0.0000000000000000e+00  9.9794126469830902e-01 6.4548220975884987e-02 0.0000000000000000e+00  9.9571591067372212e-01 9.2728530220291275e-02 0.0000000000000000e+00  9.9332218906461489e-01 1.1565572265282349e-01 0.0000000000000000e+00  9.9096993281507184e-01 1.3441620584976283e-01 0.0000000000000000e+00  9.8889851948900331e-01 1.4897797111422373e-01 0.0000000000000000e+00  9.8768199859984662e-01 1.5697727741732564e-01 0.0000000000000000e+00  9.8696670387453767e-01 1.6160412728072412e-01 0.0000000000000000e+00  9.8682042975076223e-01 1.6272286461073998e-01 0.0000000000000000e+00  9.8722029260790978e-01 1.6054042176078537e-01 0.0000000000000000e+00  9.8811675099702145e-01 1.5533607028239541e-01 0.0000000000000000e+00  9.8967647582717755e-01 1.4580789428220792e-01 0.0000000000000000e+00  9.9243772734537339e-01 1.2790731279609138e-01 0.0000000000000000e+00  9.9836926168827289e-01 8.3776510163127704e-02 0.0000000000000000e+00  9.9126385185746335e-01 1.3464463434474519e-01 0.0000000000000000e+00  9.9167739765096341e-01 -1.3224631795339165e-01 0.0000000000000000e+00  9.8987313686645595e-01 -1.4469843180426353e-01 0.0000000000000000e+00  9.8774749728400768e-01 -1.5793374723280892e-01 0.0000000000000000e+00  9.8787757478016969e-01 -1.5675598098906318e-01 0.0000000000000000e+00  9.8821810322455761e-01 -1.5426395461558889e-01 0.0000000000000000e+00  9.9185852504797434e-01 -1.2811461191445239e-01 0.0000000000000000e+00  9.9526338222191213e-01 -9.7468838145734787e-02 0.0000000000000000e+00  9.9762186093284322e-01 -6.9040100574637067e-02 0.0000000000000000e+00  9.9031035588706495e-01 1.4148788098550785e-01 0.0000000000000000e+00  9.9886647908438853e-01 4.8139481795383826e-02 0.0000000000000000e+00  9.9454687268065145e-01 1.0456273070343308e-01 0.0000000000000000e+00  9.8984425944095156e-01 1.4250653960823859e-01 0.0000000000000000e+00  9.8719617206997667e-01 1.6008141336429543e-01 0.0000000000000000e+00  9.8686389919997819e-01 1.6255638393861699e-01 0.0000000000000000e+00  9.8868181685653289e-01 1.5191658936588878e-01 0.0000000000000000e+00  9.9988066796141362e-01 -1.6487625621998330e-02 0.0000000000000000e+00  9.9607551296938046e-01 -1.0869528106392012e-01 0.0000000000000000e+00  9.8782256404593416e-01 1.5705393216028110e-01 0.0000000000000000e+00  9.8679560464339378e-01 1.6273914009373669e-01 0.0000000000000000e+00  9.8830702811156401e-01 1.5293548910220137e-01 0.0000000000000000e+00  9.9210946026205837e-01 1.2567040825063225e-01 0.0000000000000000e+00  9.9683254953791844e-01 7.9814815479513426e-02 0.0000000000000000e+00  9.9990564122561398e-01 1.5262551625777613e-02 0.0000000000000000e+00  9.9900672794761147e-01 -4.4815292853816441e-02 0.0000000000000000e+00  9.9624035217432239e-01 -8.6747640606721826e-02 0.0000000000000000e+00  9.9508517068625069e-01 -1.0029018797388395e-01 0.0000000000000000e+00  9.8977440230759750e-01 -1.4357062191577433e-01 0.0000000000000000e+00  9.8605761182595075e-01 -1.6722409655667309e-01 0.0000000000000000e+00  9.8754667991876255e-01 -1.5895733968855866e-01 0.0000000000000000e+00  9.8903179940571084e-01 -1.5014731270470061e-01 0.0000000000000000e+00  9.9105200021199469e-01 -1.3688004236887538e-01 0.0000000000000000e+00  8.4435189170674677e-02 1.1081786080137044e+00 0.0000000000000000e+00  9.1824514076860475e-01 4.0380390047575299e-01 0.0000000000000000e+00  7.1219991332095478e-01 7.0807390413645122e-01 0.0000000000000000e+00  3.7087504421730783e-01 9.3296441567239696e-01 0.0000000000000000e+00  9.6203691275895820e-01 2.7198943269886217e-01 0.0000000000000000e+00  7.9972721173093442e-01 5.9918505218313145e-01 0.0000000000000000e+00  5.1816743241336671e-01 8.5418010962197521e-01 0.0000000000000000e+00  1.8355326890804832e-01 9.8198470854933928e-01 0.0000000000000000e+00  9.6678339164380778e-01 2.5804201706960311e-01 0.0000000000000000e+00  9.8558678111752984e-01 1.9891890545592966e-01 0.0000000000000000e+00  8.1231623636965733e-01 5.8586891396039742e-01 0.0000000000000000e+00  8.3401197596422405e-01 5.5837228374154635e-01 0.0000000000000000e+00  4.7996485470011890e-01 8.8493295838254715e-01 0.0000000000000000e+00  6.0505046876810453e-01 8.0121613302155159e-01 0.0000000000000000e+00  1.1820079984913502e-01 9.9982434649905216e-01 0.0000000000000000e+00  2.1433348423933235e-01 9.6890736155187240e-01 0.0000000000000000e+00  -1.9402516420179386e-02 2.6884301714606135e-01 0.0000000000000000e+00  -5.6126667045354349e-03 1.1773533746428224e+00 0.0000000000000000e+00  -5.6216406926639624e-03 -2.9280046282238091e-02 0.0000000000000000e+00  1.9684115353501446e-03 -1.0342754280415227e+00 0.0000000000000000e+00  9.0443247520093535e-03 -9.9749590874453675e-01 0.0000000000000000e+00  4.8863043961526994e-03 -1.1312680131337083e+00 0.0000000000000000e+00  8.1382688578740762e-03 1.1801238377754213e+00 0.0000000000000000e+00  1.8865339185611556e-02 1.0014433872003585e+00 0.0000000000000000e+00  3.1470237073402567e-02 9.9876241890071438e-01 0.0000000000000000e+00  3.6156374772478947e-02 9.9935669285398743e-01 0.0000000000000000e+00  3.0250083373520274e-02 9.9989719295060975e-01 0.0000000000000000e+00  1.8820530843284115e-02 1.0020538482246779e+00 0.0000000000000000e+00  5.1734989593856619e-02 -1.1806733949626644e+00 0.0000000000000000e+00  -4.2343307857255506e-04 3.9027913910200190e-02 0.0000000000000000e+00  5.4175081703879760e-03 -9.9783946962319359e-01 0.0000000000000000e+00  1.9089135465312289e-04 5.5419456125728250e-01 0.0000000000000000e+00  2.4283026502484990e-02 1.0013983411152265e+00 0.0000000000000000e+00  3.3056946016933049e-02 9.9949875409408662e-01 0.0000000000000000e+00  1.9378706831688214e-02 1.0217707122160922e+00 0.0000000000000000e+00  -1.3595278912540737e-03 -6.5431058230039929e-01 0.0000000000000000e+00  1.0843797255765352e-02 -9.9943392599491054e-01 0.0000000000000000e+00  1.2927181848919030e-02 9.6386252845377507e-01 0.0000000000000000e+00  3.7464343175238370e-02 9.9946912148374767e-01 0.0000000000000000e+00  2.6965579897119819e-02 9.9866520959982918e-01 0.0000000000000000e+00  9.8987405801936967e-01 -1.5539931467907694e-01 0.0000000000000000e+00  3.4659486032893594e-01 -9.4214013123378104e-01 0.0000000000000000e+00  6.9443710085221055e-01 -7.2545418296540232e-01 0.0000000000000000e+00  9.0611603969817700e-01 -4.3016614726065067e-01 0.0000000000000000e+00  1.5591728993414231e-01 -9.8479049528534612e-01 0.0000000000000000e+00  4.9428539205093436e-01 -8.6826951893145865e-01 0.0000000000000000e+00  7.8147828400175512e-01 -6.2285048974363799e-01 0.0000000000000000e+00  9.5353497229442064e-01 -3.0061705813157108e-01 0.0000000000000000e+00  1.8799438910014843e-01 -9.7450352357063497e-01 0.0000000000000000e+00  9.2716938019555314e-02 -1.0027701708208108e+00 0.0000000000000000e+00  5.8524681541719437e-01 -8.1601210482369824e-01 0.0000000000000000e+00  4.5786971560822520e-01 -8.9626452675685808e-01 0.0000000000000000e+00  8.1531537748804062e-01 -5.8516622209887792e-01 0.0000000000000000e+00  7.9917480370576266e-01 -6.0346674707960668e-01 0.0000000000000000e+00  9.7914407956087246e-01 -2.2915526647262682e-01 0.0000000000000000e+00  9.6176412458215577e-01 -2.7608653979416076e-01 0.0000000000000000e+00  9.9920401160276506e-01 4.1349412128756549e-02 0.0000000000000000e+00  9.8427890832800280e-01 -1.8092516859174460e-01 0.0000000000000000e+00  9.7924070890007386e-01 -2.0477123600974020e-01 0.0000000000000000e+00  9.7633830638886421e-01 -2.1767420456976574e-01 0.0000000000000000e+00  9.7312690784195699e-01 -2.3126686526260870e-01 0.0000000000000000e+00  9.7171964560065804e-01 -2.3686603922424290e-01 0.0000000000000000e+00  9.7112318002897213e-01 -2.3907351104137003e-01 0.0000000000000000e+00  9.7169951124297893e-01 -2.3655219157273738e-01 0.0000000000000000e+00  9.7293397767766210e-01 -2.3127669708981893e-01 0.0000000000000000e+00  9.7653814065605737e-01 -2.1548154731902755e-01 0.0000000000000000e+00  9.8086432504599630e-01 -1.9478927284781103e-01 0.0000000000000000e+00  9.8572754167245946e-01 -1.6842452931519192e-01 0.0000000000000000e+00  9.9097562659199456e-01 -1.3424922207593595e-01 0.0000000000000000e+00  9.9576009076218897e-01 -9.2305917941590862e-02 0.0000000000000000e+00  9.9884795802123882e-01 -4.8667867628000808e-02 0.0000000000000000e+00  1.0000017096470355e+00 -6.4900441018706590e-03 0.0000000000000000e+00  9.9231873933699366e-01 -1.3777508958268816e-01 0.0000000000000000e+00  9.9588075892194716e-01 9.1081235507672942e-02 0.0000000000000000e+00  9.9108200180487260e-01 1.3348210959213619e-01 0.0000000000000000e+00  9.8538114853491166e-01 1.7058192253932947e-01 0.0000000000000000e+00  9.8180583600137039e-01 1.8999656122281219e-01 0.0000000000000000e+00  9.8053909900353664e-01 1.9659830313822108e-01 0.0000000000000000e+00  9.7951258653302264e-01 2.0182313821711104e-01 0.0000000000000000e+00  9.7861139368108607e-01 2.0629754412988840e-01 0.0000000000000000e+00  9.7927917123987707e-01 2.0322770551253266e-01 0.0000000000000000e+00  9.7980657793413994e-01 2.0083410770730911e-01 0.0000000000000000e+00  9.8067333640084753e-01 1.9677309935176943e-01 0.0000000000000000e+00  9.8184488531913205e-01 1.9108883222722134e-01 0.0000000000000000e+00  9.8331828260926046e-01 1.8371420922536608e-01 0.0000000000000000e+00  9.8559081055045061e-01 1.7175908076323596e-01 0.0000000000000000e+00  9.8929931958276462e-01 1.5106618358763171e-01 0.0000000000000000e+00  9.9600905101838400e-01 1.0834311910148421e-01 0.0000000000000000e+00  9.9301335316279404e-01 1.3363328568374042e-01 0.0000000000000000e+00  9.8779393219789147e-01 1.5857252214280826e-01 0.0000000000000000e+00  9.8428533319394196e-01 1.7866399646999093e-01 0.0000000000000000e+00  9.8120149928608247e-01 1.9423751978647955e-01 0.0000000000000000e+00  9.7960719083408254e-01 2.0174490292600045e-01 0.0000000000000000e+00  9.7914325507571909e-01 2.0370261506523041e-01 0.0000000000000000e+00  9.8153557632602262e-01 1.9153468230801998e-01 0.0000000000000000e+00  9.8860792974764256e-01 1.5076160281707052e-01 0.0000000000000000e+00  9.9768893954548332e-01 6.8571871449678370e-02 0.0000000000000000e+00  9.9969796872967631e-01 -2.5763218658620867e-02 0.0000000000000000e+00  9.9361324392373018e-01 -1.1308625997708101e-01 0.0000000000000000e+00  9.8337650277250421e-01 -1.8167459663428201e-01 0.0000000000000000e+00  9.7464610744014424e-01 -2.2392118089334237e-01 0.0000000000000000e+00  9.7127188470814474e-01 -2.3837906740542419e-01 0.0000000000000000e+00  9.7230185884788578e-01 -2.3458099938967159e-01 0.0000000000000000e+00  9.7749932847492649e-01 -2.1254580638099635e-01 0.0000000000000000e+00  9.8273786901574212e-01 -1.8741274795320104e-01 0.0000000000000000e+00  9.8645775693479298e-01 1.6669621344808996e-01 0.0000000000000000e+00  9.8255396390720207e-01 1.8757585597869425e-01 0.0000000000000000e+00  9.8024566731437279e-01 1.9879881052402162e-01 0.0000000000000000e+00  9.7856378653562359e-01 2.0653421431950056e-01 0.0000000000000000e+00  9.8007541325595893e-01 1.9900292056925559e-01 0.0000000000000000e+00  9.8213685908497572e-01 1.8822099793529457e-01 0.0000000000000000e+00  9.9362005527238983e-01 1.1310374400406506e-01 0.0000000000000000e+00  9.9998008507569136e-01 1.2387252875768565e-02 0.0000000000000000e+00  9.9756405240100543e-01 -7.0188721358562065e-02 0.0000000000000000e+00  9.8806782637897461e-01 -1.5414233781195419e-01 0.0000000000000000e+00  9.7861803586285567e-01 -2.0579686719836773e-01 0.0000000000000000e+00  9.7204137944071900e-01 -2.3504967362732182e-01 0.0000000000000000e+00  9.7128213686881482e-01 -2.3853142035133973e-01 0.0000000000000000e+00  9.7474584107317841e-01 -2.2453700951625988e-01 0.0000000000000000e+00  9.8051559857963000e-01 -1.9859651712689350e-01 0.0000000000000000e+00  6.6976708800235249e-02 1.2262796608181195e+00 0.0000000000000000e+00  9.1397405157084799e-01 4.1324077411510690e-01 0.0000000000000000e+00  7.0586794689619536e-01 7.1445740991041251e-01 0.0000000000000000e+00  3.5933736256286847e-01 9.3742421279772215e-01 0.0000000000000000e+00  9.5888560434740155e-01 2.8302372155194627e-01 0.0000000000000000e+00  7.9150251044843223e-01 6.1006612257871862e-01 0.0000000000000000e+00  5.0583009558955483e-01 8.6156288644132184e-01 0.0000000000000000e+00  1.6774864752276888e-01 9.8408843871257523e-01 0.0000000000000000e+00  9.6609560336384170e-01 2.6060438427264243e-01 0.0000000000000000e+00  9.8314804975086867e-01 2.1095170173885644e-01 0.0000000000000000e+00  8.0925025756177227e-01 5.8994102906409207e-01 0.0000000000000000e+00  8.2522808767899936e-01 5.7106015610763683e-01 0.0000000000000000e+00  4.6840475949253824e-01 8.9112915105704549e-01 0.0000000000000000e+00  5.9845045789786233e-01 8.0650548722212767e-01 0.0000000000000000e+00  1.0370518726033552e-01 1.0018128400720332e+00 0.0000000000000000e+00  2.0127871593378976e-01 9.6267977514637215e-01 0.0000000000000000e+00  -1.5348151225701833e-02 -6.9559839875361118e-01 0.0000000000000000e+00  -2.0002724622444339e-02 -6.6458515233971524e-03 0.0000000000000000e+00  1.1545176964190189e-02 -1.0118335864058976e+00 0.0000000000000000e+00  2.2680757582092172e-02 -1.0000894104736877e+00 0.0000000000000000e+00  2.8930215348949552e-02 -9.9973923080850668e-01 0.0000000000000000e+00  2.4076754588674015e-02 -1.0007431883046125e+00 0.0000000000000000e+00  1.0248942945421346e-02 -9.0395653292419897e-01 0.0000000000000000e+00  9.5529212374017333e-04 1.0516139549188095e+00 0.0000000000000000e+00  1.5092249116558470e-02 1.0131796242978368e+00 0.0000000000000000e+00  1.9215368435833723e-02 9.9970819960087320e-01 0.0000000000000000e+00  1.2042600096015639e-02 1.0001563028101266e+00 0.0000000000000000e+00  -5.0722343559478529e-04 1.0449289109339488e+00 0.0000000000000000e+00  7.8077044145892491e-02 -1.1358004300516176e+00 0.0000000000000000e+00  1.2587252036303374e-02 -9.5872519114281285e-01 0.0000000000000000e+00  2.5452117192976277e-02 -9.9972466502474588e-01 0.0000000000000000e+00  1.6220969923246616e-02 -1.0090728195285075e+00 0.0000000000000000e+00  7.6028517361481224e-03 9.3562028145528242e-01 0.0000000000000000e+00  1.5399163267532032e-02 1.0001034461557685e+00 0.0000000000000000e+00  1.9740322953545326e-03 7.3309400568392902e-01 0.0000000000000000e+00  1.9476704821384031e-02 -9.9789100734760106e-01 0.0000000000000000e+00  3.0671686598570121e-02 -9.9900389219704366e-01 0.0000000000000000e+00  3.9161872451926351e-03 -1.5028283810371050e+00 0.0000000000000000e+00  2.1173469201892763e-02 9.9878463404127737e-01 0.0000000000000000e+00  8.3186883678680601e-03 9.9508165002827365e-01 0.0000000000000000e+00  3.7147894594004122e-01 -9.3269401989583467e-01 0.0000000000000000e+00  7.1648583037252767e-01 -7.0369602296142630e-01 0.0000000000000000e+00  9.2184446680671417e-01 -3.9551601713734935e-01 0.0000000000000000e+00  1.8135225133954508e-01 -9.8191487464662330e-01 0.0000000000000000e+00  5.2081799099828574e-01 -8.5257420485740965e-01 0.0000000000000000e+00  8.0348491589508375e-01 -5.9415366684189674e-01 0.0000000000000000e+00  9.6574615562201793e-01 -2.5866162233647233e-01 0.0000000000000000e+00  2.1040780381977994e-01 -9.6878697087067611e-01 0.0000000000000000e+00  1.1823313352904917e-01 -9.9983922529834279e-01 0.0000000000000000e+00  6.0597519875601580e-01 -8.0056045947524179e-01 0.0000000000000000e+00  4.8566657993978329e-01 -8.8158033121392965e-01 0.0000000000000000e+00  8.3500504621272909e-01 -5.5680194663400095e-01 0.0000000000000000e+00  8.1933515998139017e-01 -5.7589641021996241e-01 0.0000000000000000e+00  9.8756667298654122e-01 -1.8942686464787792e-01 0.0000000000000000e+00  9.7300311134782413e-01 -2.3350849345393454e-01 0.0000000000000000e+00  8.8412923363049467e-01 4.6765144065349473e-01 0.0000000000000000e+00  9.4431394597454676e-01 3.2947764160037779e-01 0.0000000000000000e+00  9.8284407275806907e-01 -1.8495368020643616e-01 0.0000000000000000e+00  8.1368094214279429e-01 -5.8184075913914779e-01 0.0000000000000000e+00  8.1615121314254291e-01 -5.7830154358019470e-01 0.0000000000000000e+00  9.9763561678221901e-01 -7.0380942767286417e-02 0.0000000000000000e+00  3.2007064000333957e-01 9.4763258473279377e-01 0.0000000000000000e+00  2.8662856298844186e-01 9.5822031442462685e-01 0.0000000000000000e+00  3.0199593365447225e-01 -9.5350755181560964e-01 0.0000000000000000e+00  2.6820111419952425e-01 -9.6358898109950597e-01 0.0000000000000000e+00  7.2399235573781573e-01 -6.9033076718393482e-01 0.0000000000000000e+00  3.9709196757555071e-01 -9.1824399259968648e-01 0.0000000000000000e+00  5.0888079150113852e-01 -8.6120917764212179e-01 0.0000000000000000e+00  1.1459545457055460e-01 9.1133958576134255e-01 0.0000000000000000e+00  2.9332845748113762e-01 9.5419470688227415e-01 0.0000000000000000e+00  3.4712807276346264e-02 1.3864702646924278e+00 0.0000000000000000e+00  8.5852969855955630e-01 -5.1622317865231060e-01 0.0000000000000000e+00  9.2750352467290009e-01 3.7570001681152265e-01 0.0000000000000000e+00  9.7588500725188598e-01 2.2042735646304948e-01 0.0000000000000000e+00  9.2469741856302734e-01 -3.8943923519770246e-01 0.0000000000000000e+00  6.0609816602587818e-01 7.9760189655673830e-01 0.0000000000000000e+00  4.2513281615860798e-01 -9.0326870548149873e-01 0.0000000000000000e+00  9.8839531227956759e-02 9.7494396044210463e-01 0.0000000000000000e+00  7.4959606085359065e-01 -6.6246864759792634e-01 0.0000000000000000e+00  4.1689876149703775e-01 -9.0921623466829038e-01 0.0000000000000000e+00  4.0258465845781008e-03 -7.5332756130611489e-01 0.0000000000000000e+00  4.2519152722621745e-01 9.0539420803446158e-01 0.0000000000000000e+00  7.9075416173895552e-01 6.1270746723095137e-01 0.0000000000000000e+00  9.6351005533667766e-01 2.6831718628151252e-01 0.0000000000000000e+00  7.4393620408439187e-01 6.6879179537282529e-01 0.0000000000000000e+00  8.2402307651043605e-01 5.6699342072599113e-01 0.0000000000000000e+00  9.2132941271076529e-01 -3.8927035958322526e-01 0.0000000000000000e+00  6.5796468490823656e-01 7.5352647023168240e-01 0.0000000000000000e+00  9.9524559979592775e-01 9.8304847005482213e-02 0.0000000000000000e+00  8.6562297192593229e-01 -5.0130278137242390e-01 0.0000000000000000e+00  5.1263406351904639e-01 8.5896823033340453e-01 0.0000000000000000e+00  4.5275405818260805e-01 -8.9211291145011828e-01 0.0000000000000000e+00  1.7902770691300255e-02 1.1299646035671658e+00 0.0000000000000000e+00  8.7654585072853031e-01 4.8177648956685459e-01 0.0000000000000000e+00  6.1533080299241716e-01 7.8875338388280314e-01 0.0000000000000000e+00  8.7503508367094884e-01 4.8479542234235445e-01 0.0000000000000000e+00  5.9742847370965002e-01 -8.0238588195137284e-01 0.0000000000000000e+00  6