<?xml version="1.0"?>
<VTKFile type="UnstructuredGrid"  version="0.1"  >
<UnstructuredGrid>
<Piece  NumberOfPoints="4153" NumberOfCells="8064">
<Points>
<DataArray  type="Float64"  NumberOfComponents="3"  format="ascii">-0.4135676068336139 -0.4922948331746483 0  -0.02510907671782429 -0.515096901339904 0  -0.07384097369094757 -0.5134274234042137 0  -0.1224945967407225 -0.5113274828578745 0  -0.1710852574266782 -0.5089783580963354 0  -0.2196820943803504 -0.5064865070018835 0  -0.2682602773935301 -0.503396185798938 0  -0.3167764417787173 -0.4999369683535544 0  -0.3652238501932316 -0.4962182760807402 0  0.02369528448850149 -0.5161791404746572 0  -0.4618641605617168 -0.4885757910320673 0  -0.5101093878777319 -0.4848350403146344 0  -0.5582974850355169 -0.4811441653750506 0  -0.6064183897849111 -0.4776438898194204 0  -0.6544827490365042 -0.4743065949013759 0  -0.7024618062753893 -0.4712007667640172 0  -0.7503468687358968 -0.4683917404703853 0  0.7750643498817686 -0.4748110146720621 0  0.07255548272198592 -0.5165726569172493 0  0.1214468928478131 -0.5161998198240405 0  0.1703367080176543 -0.5150339717496119 0  0.2191867954144054 -0.5131150589930702 0  0.2679731438358227 -0.5105976676532088 0  0.3166853936476115 -0.5075805232560605 0  0.3653134687628705 -0.5041688853027637 0  0.41384948321542 -0.5005129112996528 0  0.4622982307080545 -0.4967066885840652 0  0.5106625099458302 -0.4928511696496168 0  0.558943302034164 -0.4890197356182178 0  0.6071411692491492 -0.4853228617573807 0  0.6552519149635723 -0.4817829012405669 0  0.7032694637047544 -0.4785328377382716 0  0.7511916059719373 -0.4756476041787572 0  0.7272351233663555 -0.4770790060132669 0  -0.7264047801088076 -0.4698242105976736 0  -0.6304601684576895 -0.4759550058395216 0  -0.5342106381188876 -0.4829846457121922 0  -0.4377232117515569 -0.4904592448269544 0  -0.3410086550170962 -0.4981062906894058 0  -0.2439774295972692 -0.5049912829767276 0  -0.1467957693448783 -0.5101724102292555 0  -0.0494849523207521 -0.5143267268184937 0  0.6792725227112452 -0.4801159488713652 0  0.145894201503778 -0.5157155433628547 0  0.243588486245866 -0.5119254799864323 0  0.3410102886955323 -0.5059193439319057 0  0.4380845225242126 -0.4986199713579436 0  0.5348132462200341 -0.4909297365254466 0  0.6312076798633405 -0.4835200026365577 0  0.0481196525197868 -0.5164675390596087 0  -0.7741720970112815 -0.4676275896301738 0  0.5830500561489026 -0.4871541571900139 0  0.4864908044481042 -0.4947804241218166 0  0.3895913312359132 -0.5023619536282505 0  0.2923392382958828 -0.5091451462533331 0  0.1947695415966556 -0.5141587840796319 0  0.09699922528308974 -0.5164850694377933 0  -0.0007149631395041244 -0.5157192167614161 0  -0.09817714216671206 -0.5124204458094349 0  -0.1953732665700935 -0.5077944143440898 0  -0.2925267033215583 -0.5017042905627709 0  -0.3894182204894792 -0.4942207712964289 0  -0.4859935453632917 -0.486703764418161 0  -0.5823627426255362 -0.4793583751391113 0  -0.6784835847487093 -0.472720346651597 0  0.9659221608891553 -0.2788733328483001 0  0.8483621156262527 -0.4584993312701927 0  0.910578222351397 -0.4159265916738346 0  0.9518220601494899 -0.3529241292091901 0  0.8117602551436269 -0.4666902910568653 0  0.8796558250330828 -0.4374683105807135 0  0.9309233023178868 -0.3842232075851148 0  0.9587030459169111 -0.315816514480405 0  0.7934510078049641 -0.4709512603964788 0  0.8300343890691642 -0.4624997399681329 0  0.8640146280729226 -0.448037198568817 0  0.8949560299440891 -0.4264470920225292 0  0.9209180106838224 -0.400158410793108 0  0.9412798136964737 -0.3685506301054277 0  0.9551817309811813 -0.3343347226384094 0  0.9622162709454635 -0.2973278607113349 0  0.9658369609593586 -0.2547498364230756 0  0.9694687246675546 0.2762463934919024 0  0.9690369508586942 0.2280606335839244 0  0.9689640452110301 0.1798762509219159 0  0.9690786590506962 0.131649441132439 0  0.9692914993378057 0.08334357899447149 0  0.9692410608364039 0.03496836642048249 0  0.9689261204886379 -0.01342765155659692 0  0.968345271789391 -0.06181340302516979 0  0.9674947345057893 -0.1101384125016683 0  0.9667215080807464 -0.1583859854234543 0  0.9661128046848375 -0.2065808785544816 0  0.969894015938379 0.3004023513959171 0  0.9691919948917002 0.2521495962467344 0  0.9690047540257989 0.1557700548502241 0  0.9693000819491324 0.05916064617245886 0  0.9686697539846213 -0.03762398832735801 0  0.9670943179457988 -0.1342698732011599 0  0.965918592579165 -0.2306661478286342 0  0.9689718264051224 0.2039715533616502 0  0.9691966989470717 0.1075110857385521 0  0.9691157657963142 0.01077104672979204 0  0.9679334824181455 -0.08598962354413316 0  0.9663909550869391 -0.182488757848297 0  0.7820869531088539 0.4986598864607254 0  0.9567659744152481 0.3746831916084397 0  0.9163514498896709 0.438142027039074 0  0.8548480125036161 0.4814732642745438 0  0.9631766110142457 0.337437100495791 0  0.9362976491222053 0.4061874792249656 0  0.8858409302408563 0.4600926118205823 0  0.8185391542615538 0.4901657756446289 0  0.9664302127289006 0.3188949674210515 0  0.9598962429747415 0.3560191968025973 0  0.9464371487094094 0.3904042473743864 0  0.9265105969185883 0.4222535785177635 0  0.9009298982855091 0.4488401979842415 0  0.8703534418212452 0.47083548379808 0  0.8366729668685912 0.4857315983878813 0  0.8003560543657184 0.4946525126159144 0  -0.02300038625789577 0.5663231946545433 0  0.7107435272169956 0.5041209354826368 0  0.662944520832896 0.5087206472543537 0  0.6150005615479172 0.5137319757971635 0  0.5669213267708518 0.519086651233978 0  0.5186840075075043 0.524733003369962 0  0.4702837036802827 0.5305254027268815 0  0.4217111679216706 0.5363625653806779 0  0.3729562983628099 0.542159652897254 0  0.3239982121906252 0.5477261904930895 0  0.2748479284459285 0.5528692749427484 0  0.2255144507851229 0.557435381029564 0  0.1760067804257943 0.561304267028541 0  0.1263525295640163 0.5641740331589287 0  0.07660652792690041 0.5659683924517225 0  0.02681566339131599 0.5666569388516726 0  0.7583995520762176 0.499999600515961 0  -0.07278251322141936 0.564626032469641 0  -0.1224465544098064 0.5617842326678262 0  -0.1719437741355832 0.5579713390799866 0  -0.2212076030198672 0.5533055408420426 0  -0.2702492375137552 0.5485114561213594 0  -0.319123743270503 0.5435759145610565 0  -0.3678509130303881 0.5385570451632631 0  -0.41643320226987 0.5335266139302755 0  -0.4648999481095182 0.5286347459352753 0  -0.5132616701566511 0.523851311248509 0  -0.5615213157158159 0.5192139963129601 0  -0.6096774464528428 0.5147678701718148 0  -0.6577216595917355 0.5105723694572725 0  -0.7056468285345597 0.5067254675793109 0  -0.7534491815562943 0.503279858024124 0  -0.7772281423977543 0.5022399759221017 0  -0.7295535644373585 0.5050062503727765 0  -0.6337138145249921 0.5126311016523563 0  -0.5374043018255665 0.5215118541596413 0  -0.4406804170568148 0.5310727544727568 0  -0.3435047975571708 0.5410749345659472 0  -0.2457516527547013 0.5509370272908567 0  -0.1472190430258627 0.5599843330105518 0  -0.04790211334269252 0.565623915086228 0  0.05171443267952158 0.5664540525277147 0  0.1511943015904207 0.5628675865359626 0  0.250203506634067 0.5552365944784271 0  0.3485014822982645 0.5449888886731723 0  0.4460197548347155 0.5334470433166146 0  0.5428222461679004 0.521888568544239 0  0.6389905479100607 0.5111845075582807 0  0.7345776486550163 0.5020664765186843 0  -0.6816994152204033 0.5086006416069097 0  -0.5856123752416207 0.5169656525099032 0  -0.4890936359140275 0.5262273471270452 0  -0.392161061600959 0.5360233073448971 0  -0.2947059058824045 0.5460578345511532 0  -0.1966183787706262 0.5556926272021644 0  -0.09763264797063913 0.5633367869130613 0  0.001917569647756843 0.5666424521071551 0  0.1014879733820473 0.5652093706943369 0  0.2007850865353042 0.5594752166494783 0  0.2994466430343271 0.5503602102983089 0  0.3973585730322806 0.5392683854916762 0  0.4945047687754374 0.527617197230281 0  0.5909782622086833 0.5163582491958046 0  0.6868619597022007 0.5063644946348415 0  -0.966613190691744 0.3055236016767734 0  -0.8502951292702229 0.4856621492738066 0  -0.9122066727331476 0.4428128103344303 0  -0.9530507071158042 0.3796437205874351 0  -0.8138255441306183 0.4940468887479329 0  -0.8814815037219824 0.4645384066028803 0  -0.9323378422094583 0.4110001623176393 0  -0.9596616564554843 0.3424817871472109 0  -0.7955699691987839 0.4983851223970986 0  -0.83203669904074 0.4897680301013186 0  -0.8658963430200655 0.4751610426835672 0  -0.8966722567239049 0.4533996347309709 0  -0.922464243885459 0.4270017840824675 0  -0.9425956800192926 0.3952953305370764 0  -0.956277462641214 0.3610233021064423 0  -0.9630224968229188 0.3239788038341124 0  -0.9663174411620069 0.281399818234768 0  -0.9649516603124243 -0.2486821889624622 0  -0.9650605478370524 -0.2005777949144872 0  -0.9654875604522015 -0.1524632171761137 0  -0.9660769976935445 -0.1043073849018087 0  -0.9667585599660109 -0.05607754807665995 0  -0.9671457806117179 -0.007785205060076704 0  -0.9672489758374532 0.04051837120338469 0  -0.9670731865690408 0.08880413115043295 0  -0.9666210750982382 0.1370237624558638 0  -0.9662759876833735 0.1851698478040987 0  -0.9661193324097674 0.2332815607174938 0  -0.9651097028580338 -0.2727818631327137 0  -0.9649518256527023 -0.2246285877424495 0  -0.965768004423638 -0.128391913187271 0  -0.9669888224049323 -0.03193486276802333 0  -0.9671967291041428 0.06466544627764025 0  -0.9664313117961711 0.1611030234402086 0  -0.9661569696223707 0.2573367631178546 0  -0.9652490276048289 -0.1765241067232876 0  -0.9664314083050372 -0.08020695018427652 0  -0.9672314120254353 0.01636702278347859 0  -0.9668587284375053 0.1129283096135381 0  -0.9661695346355798 0.2092278503671041 0  -0.9511063180041686 -0.34676532281657 0  -0.9098034161108909 -0.4096135087746459 0  -0.8475132141808145 -0.451920514207048 0  -0.9579742867531476 -0.3096965090935035 0  -0.9302110271788878 -0.3780168644804207 0  -0.8788737190847687 -0.4310829124297465 0  -0.8108917419744772 -0.4599191163404517 0  -0.961453532113009 -0.2912224949971391 0  -0.9544671602254839
[...]
<PointData  Vectors="f_1823"> 
<DataArray  type="Float64"  Name="f_1823"  NumberOfComponents="3" format="ascii">2.2155188102270058e-03 2.8394761864497502e-02 0.0000000000000000e+00  2.3681702969034616e-03 8.2981028067863824e-02 0.0000000000000000e+00  3.2722375320595278e-03 8.3623146139574028e-02 0.0000000000000000e+00  3.7331644843386072e-03 8.0770795943432255e-02 0.0000000000000000e+00  3.5737279513518160e-03 7.2923298959029506e-02 0.0000000000000000e+00  3.5239243897121891e-03 6.1004864869713293e-02 0.0000000000000000e+00  3.4739886774338403e-03 5.1315984533524789e-02 0.0000000000000000e+00  3.1496031185605103e-03 4.2446130905084152e-02 0.0000000000000000e+00  2.4275925255567952e-03 3.0264273932839200e-02 0.0000000000000000e+00  1.2081823582602051e-03 7.8881336586654111e-02 0.0000000000000000e+00  1.2818416803229695e-03 1.6472789020603538e-02 0.0000000000000000e+00  5.3598050702540671e-04 6.9497009582700437e-03 0.0000000000000000e+00  -1.7280850811305059e-04 -2.2858195169724116e-03 0.0000000000000000e+00  -9.7603600079426516e-04 -1.3797175023319419e-02 0.0000000000000000e+00  -1.5887676199740864e-03 -2.3572444144365202e-02 0.0000000000000000e+00  -1.7336824513225690e-03 -2.8537583170233187e-02 0.0000000000000000e+00  1.8903526464092812e-03 2.4163881979548690e-02 0.0000000000000000e+00  2.3240261679536488e-02 -1.7642828264447791e-01 0.0000000000000000e+00  2.5689514427397291e-05 7.1704329390653937e-02 0.0000000000000000e+00  -9.8071432688328990e-04 6.2344764650313647e-02 0.0000000000000000e+00  -1.6532563290359336e-03 5.1938738750637543e-02 0.0000000000000000e+00  -1.9526532560698901e-03 4.2693924473181342e-02 0.0000000000000000e+00  -1.8859170325409053e-03 3.3070683758295291e-02 0.0000000000000000e+00  -1.6116964817469359e-03 2.4313181971475230e-02 0.0000000000000000e+00  -1.1820567058001834e-03 1.6129299987575445e-02 0.0000000000000000e+00  -7.9498799250709131e-04 1.0299673882841196e-02 0.0000000000000000e+00  -2.5202764735875259e-04 3.1763678905337022e-03 0.0000000000000000e+00  3.1567975355723075e-04 -3.9625581875119865e-03 0.0000000000000000e+00  8.9517926279907391e-04 -1.1430939610235908e-02 0.0000000000000000e+00  1.4446427322045913e-03 -1.9144486620271132e-02 0.0000000000000000e+00  1.9279658894507633e-03 -2.7214414537790783e-02 0.0000000000000000e+00  2.0533942238902246e-03 -3.2282114889726328e-02 0.0000000000000000e+00  -1.6476943780831983e-03 1.7040207946295183e-02 0.0000000000000000e+00  3.0723767737265185e-03 -5.2089826452219087e-02 0.0000000000000000e+00  -2.8180230502374377e-03 -4.9265301970946494e-02 0.0000000000000000e+00  -1.3096649588263262e-03 -1.8869878559662372e-02 0.0000000000000000e+00  1.2134086741260420e-04 1.5791194017367772e-03 0.0000000000000000e+00  1.6087728376347041e-03 2.0891146004259058e-02 0.0000000000000000e+00  2.8668787368726499e-03 3.7334780332547821e-02 0.0000000000000000e+00  3.5185811771337411e-03 5.5341414733208825e-02 0.0000000000000000e+00  3.7916968904083332e-03 7.8467545376813885e-02 0.0000000000000000e+00  2.8675145122175616e-03 8.3745265003739577e-02 0.0000000000000000e+00  2.2181132343497933e-03 -3.2833251770463666e-02 0.0000000000000000e+00  -1.3653809371813614e-03 5.7280957212079452e-02 0.0000000000000000e+00  -1.9517543081175451e-03 3.7833897490596846e-02 0.0000000000000000e+00  -1.4181025492660548e-03 2.0220974977868757e-02 0.0000000000000000e+00  -5.1872134974464479e-04 6.6006370598024854e-03 0.0000000000000000e+00  6.2390510911733746e-04 -7.8676957899981755e-03 0.0000000000000000e+00  1.6987121082655567e-03 -2.3093592994320802e-02 0.0000000000000000e+00  6.0888980678465258e-04 7.5645109677480574e-02 0.0000000000000000e+00  -2.3568134186169272e-02 -1.9248898869277359e-01 0.0000000000000000e+00  1.1461599592450982e-03 -1.4950389227146936e-02 0.0000000000000000e+00  3.6018172419620295e-05 -4.5329967113274703e-04 0.0000000000000000e+00  -1.0252245891217541e-03 1.3616081138906723e-02 0.0000000000000000e+00  -1.7694732395444378e-03 2.8573194173605387e-02 0.0000000000000000e+00  -1.8610461087169598e-03 4.7391942135651892e-02 0.0000000000000000e+00  -5.1239814252535562e-04 6.7229190641530434e-02 0.0000000000000000e+00  1.7995107065794970e-03 8.1176654412332794e-02 0.0000000000000000e+00  3.5673582082561615e-03 8.2692714955480112e-02 0.0000000000000000e+00  3.4930999333138654e-03 6.8186764598205718e-02 0.0000000000000000e+00  3.3298683831993695e-03 4.6702998872807655e-02 0.0000000000000000e+00  2.6072843417962121e-03 3.2165295045542532e-02 0.0000000000000000e+00  9.1998071237756659e-04 1.1865163149609548e-02 0.0000000000000000e+00  -4.9415956522074367e-04 -6.7959036657469531e-03 0.0000000000000000e+00  -1.9031136166367010e-03 -2.9491595063559407e-02 0.0000000000000000e+00  1.8472078142332128e-02 -1.2557799162121492e-03 0.0000000000000000e+00  5.2466926546152814e-02 -1.1656158606755683e-01 0.0000000000000000e+00  4.4931466903966176e-02 -2.7677588748751331e-02 0.0000000000000000e+00  -6.3747650603586503e-02 2.6833862690434297e-02 0.0000000000000000e+00  1.7653529103675548e-02 -7.6978015103803518e-02 0.0000000000000000e+00  2.6776168651200742e-02 -3.8664954265430450e-02 0.0000000000000000e+00  5.2689815069183937e-02 -3.3730669238122825e-02 0.0000000000000000e+00  4.1954510944657936e-02 -8.0087353469789086e-03 0.0000000000000000e+00  1.7705418652016733e-02 -8.6868516930292253e-02 0.0000000000000000e+00  -1.5140768574802487e-02 5.5747814992550812e-02 0.0000000000000000e+00  7.3706498392959147e-02 -1.1290617461889992e-01 0.0000000000000000e+00  -2.0617711876519815e-02 2.3898981836212488e-02 0.0000000000000000e+00  4.7471799054491427e-02 -3.1342184114740795e-02 0.0000000000000000e+00  -2.9288416143656959e-02 1.6814100016013536e-02 0.0000000000000000e+00  1.2826158247074029e-01 -2.4347753257452934e-02 0.0000000000000000e+00  2.4463719546682312e-02 -5.3134966893469424e-03 0.0000000000000000e+00  6.9931227858002140e-02 -3.2780331058835575e-04 0.0000000000000000e+00  6.8857327627904585e-02 -6.7990908311110819e-04 0.0000000000000000e+00  4.0621757170125415e-02 -1.8641573193039381e-04 0.0000000000000000e+00  3.1436665088755811e-02 2.1010098297842068e-05 0.0000000000000000e+00  2.6639117223570524e-02 1.0502364105969765e-04 0.0000000000000000e+00  2.2904007139380296e-02 4.9088442742532477e-05 0.0000000000000000e+00  2.2095675681185402e-02 -8.4068972107725462e-05 0.0000000000000000e+00  2.2159847700770886e-02 -2.0431905472239305e-04 0.0000000000000000e+00  2.3115717273298635e-02 -3.5201112417542000e-04 0.0000000000000000e+00  2.6833399105417672e-02 -4.6556319262571453e-04 0.0000000000000000e+00  3.1636568134199551e-02 -4.6102395865444578e-04 0.0000000000000000e+00  4.0762382253809418e-02 -3.9877969622399256e-04 0.0000000000000000e+00  2.2644480584625801e-02 1.3855500663937303e-03 0.0000000000000000e+00  4.1199303233065782e-02 -3.5103515759299587e-04 0.0000000000000000e+00  2.8357568432628093e-02 6.7293816523704194e-05 0.0000000000000000e+00  2.2692867961822898e-02 -2.3807422114907377e-05 0.0000000000000000e+00  2.2813372154465758e-02 -2.7374504550633605e-04 0.0000000000000000e+00  2.8585540562032274e-02 -4.5800958707651804e-04 0.0000000000000000e+00  4.0900447640355768e-02 -2.5232343833478442e-04 0.0000000000000000e+00  3.4475147165290758e-02 -5.3259378878617214e-05 0.0000000000000000e+00  2.4406071201924607e-02 1.0632480484958319e-04 0.0000000000000000e+00  2.1984743349986832e-02 -1.4307153775521957e-04 0.0000000000000000e+00  2.4595600459046078e-02 -4.3172344379022621e-04 0.0000000000000000e+00  3.4616849801327489e-02 -4.3616736459698905e-04 0.0000000000000000e+00  3.0385693961938146e-02 2.0796245602200850e-01 0.0000000000000000e+00  -5.4170156185153702e-02 -2.2085094104098434e-02 0.0000000000000000e+00  4.2061446489926706e-02 2.4509171338121132e-02 0.0000000000000000e+00  5.7158802529756449e-02 1.2309309684341498e-01 0.0000000000000000e+00  4.2547847498895168e-02 7.5234134765831276e-03 0.0000000000000000e+00  5.2345973225363898e-02 3.2522562533476837e-02 0.0000000000000000e+00  2.6261144126878879e-02 3.6816151313160531e-02 0.0000000000000000e+00  1.8968046031765023e-02 7.7814865937802236e-02 0.0000000000000000e+00  2.5683943595177890e-02 5.1457364302354095e-03 0.0000000000000000e+00  1.2471056224717726e-01 2.1978695333053661e-02 0.0000000000000000e+00  -2.7599504998521651e-02 -1.5338956582228254e-02 0.0000000000000000e+00  4.3227365261562033e-02 2.7447661158241210e-02 0.0000000000000000e+00  -2.4447720332800998e-02 -2.8068391677268385e-02 0.0000000000000000e+00  7.4121325975259916e-02 1.1051347106892685e-01 0.0000000000000000e+00  -1.5635333330183025e-02 -5.4614774894828050e-02 0.0000000000000000e+00  1.7772708465859325e-02 8.2994982498590497e-02 0.0000000000000000e+00  1.7215314585887268e-03 -8.3798901706685330e-02 0.0000000000000000e+00  2.2719802739781174e-03 2.5046151034916034e-02 0.0000000000000000e+00  2.3242858998982572e-03 2.3057971614417874e-02 0.0000000000000000e+00  1.6235018844061159e-03 1.5071762843991379e-02 0.0000000000000000e+00  8.0126330564191822e-04 6.9710078535627027e-03 0.0000000000000000e+00  5.8403171672440670e-05 4.9118453468437737e-04 0.0000000000000000e+00  -6.8207543027635001e-04 -5.6724236284669280e-03 0.0000000000000000e+00  -1.4914493819155473e-03 -1.2467603384436065e-02 0.0000000000000000e+00  -1.9669350010506192e-03 -1.6793355595471772e-02 0.0000000000000000e+00  -2.6902129986126249e-03 -2.4566337164048990e-02 0.0000000000000000e+00  -3.3061790290631042e-03 -3.3386098455828288e-02 0.0000000000000000e+00  -3.7301638956700870e-03 -4.3501439753181444e-02 0.0000000000000000e+00  -3.6533716931724208e-03 -5.3468758406137157e-02 0.0000000000000000e+00  -3.0189324790055342e-03 -6.4114839890930253e-02 0.0000000000000000e+00  -1.8367025363181452e-03 -7.3476424546178837e-02 0.0000000000000000e+00  -2.9159804183494014e-04 -7.8671929853799838e-02 0.0000000000000000e+00  -3.5853032613047675e-03 -3.8029053078406240e-02 0.0000000000000000e+00  3.7505289581117548e-03 -8.1579978173336551e-02 0.0000000000000000e+00  5.2543135358289932e-03 -7.7759962529775212e-02 0.0000000000000000e+00  6.2934086934155423e-03 -7.2573021253911824e-02 0.0000000000000000e+00  6.6152851846720314e-03 -6.8380733890665527e-02 0.0000000000000000e+00  6.0901739051754068e-03 -6.1107201811617072e-02 0.0000000000000000e+00  5.2577550070924571e-03 -5.1492517787863380e-02 0.0000000000000000e+00  4.2812021715029286e-03 -4.1240912660925153e-02 0.0000000000000000e+00  3.2865802303772059e-03 -3.2206209174697985e-02 0.0000000000000000e+00  2.1513141699808832e-03 -2.1495903833995356e-02 0.0000000000000000e+00  1.0640142253124749e-03 -1.0901385012468030e-02 0.0000000000000000e+00  3.8079813793898255e-05 -4.0506999037328564e-04 0.0000000000000000e+00  -8.9993219862984780e-04 9.9843060705281251e-03 0.0000000000000000e+00  -1.7096873339559678e-03 2.0337116582848851e-02 0.0000000000000000e+00  -1.9703556860346957e-03 2.6075321638631303e-02 0.0000000000000000e+00  2.4899085485591060e-03 -2.8967295717945974e-02 0.0000000000000000e+00  -2.6011652826824494e-02 1.9226433074526447e-01 0.0000000000000000e+00  -3.3303544985424536e-03 4.7262415689125807e-02 0.0000000000000000e+00  -1.3150685130159309e-03 1.5065382298709951e-02 0.0000000000000000e+00  5.4204449324797143e-04 -5.6408355737900097e-03 0.0000000000000000e+00  2.7204399055426372e-03 -2.6952315683441096e-02 0.0000000000000000e+00  4.7797667478153595e-03 -4.6406936680407893e-02 0.0000000000000000e+00  6.4743511668642895e-03 -6.6224897501140065e-02 0.0000000000000000e+00  5.7539444118651353e-03 -7.4651096278628135e-02 0.0000000000000000e+00  2.7889004374807990e-03 -8.2002512715549591e-02 0.0000000000000000e+00  -1.0770805280133498e-03 -7.7712379656624836e-02 0.0000000000000000e+00  -3.3964950816812436e-03 -5.8758342438884725e-02 0.0000000000000000e+00  -3.5555786906114558e-03 -3.8425716676016346e-02 0.0000000000000000e+00  -2.3334406241791788e-03 -2.0523912871975775e-02 0.0000000000000000e+00  -1.0400623410248184e-03 -8.6543322768341379e-03 0.0000000000000000e+00  4.7865742911943910e-04 4.0914920866005483e-03 0.0000000000000000e+00  2.0357988602512996e-03 1.9482939707420183e-02 0.0000000000000000e+00  4.0892228448546142e-03 4.8313852033072494e-02 0.0000000000000000e+00  -2.1254435769774848e-03 2.6554791381645144e-02 0.0000000000000000e+00  -4.4365645780390796e-04 4.8079249973266881e-03 0.0000000000000000e+00  1.6104164030282129e-03 -1.6282026334315695e-02 0.0000000000000000e+00  3.8211867148176637e-03 -3.6914258950016036e-02 0.0000000000000000e+00  5.7122866759304744e-03 -5.6568670914913410e-02 0.0000000000000000e+00  6.6817331465974170e-03 -7.0521422956467697e-02 0.0000000000000000e+00  4.5645751867735423e-03 -7.9803206035854377e-02 0.0000000000000000e+00  5.4534340298604904e-04 -8.1801289118132489e-02 0.0000000000000000e+00  -2.4933274905627949e-03 -6.9138222179297062e-02 0.0000000000000000e+00  -3.7641190586305707e-03 -4.8158141066047169e-02 0.0000000000000000e+00  -3.0174484532080144e-03 -2.8839067525672109e-02 0.0000000000000000e+00  -1.8143746203044392e-03 -1.5256874182725479e-02 0.0000000000000000e+00  -2.9927343442465550e-04 -2.5003369852648733e-03 0.0000000000000000e+00  1.0906153455107189e-03 9.7901482694206336e-03 0.0000000000000000e+00  2.7255691691767284e-03 2.8410727990690981e-02 0.0000000000000000e+00  -2.1333056176227379e-02 1.4049167792610873e-03 0.0000000000000000e+00  -5.2543391681046429e-02 1.1545983269209777e-01 0.0000000000000000e+00  -4.4160130921437293e-02 2.7142458780170162e-02 0.0000000000000000e+00  5.8881387651851656e-02 -2.4348563301153182e-02 0.0000000000000000e+00  -1.7893538692440585e-02 7.6327984501922339e-02 0.0000000000000000e+00  -2.6099492807272518e-02 3.7210109279689298e-02 0.0000000000000000e+00  -5.2124264797577903e-02 3.2861009480856719e-02 0.0000000000000000e+00  -4.1634655761822140e-02 7.6137182252828369e-03 0.0000000000000000e+00  -1.6817401431361366e-02 8.1779742323936103e-02 0.0000000000000000e+00  1.4369330599212238e-02 -5.1429666794078163e-02 0.0000000000000000e+00  -7.1378362931999506e-02 1.0840709171343829e-01 0.0000000000000000e+00  2.2706848137415546e-02 -2.6360120713524372e-02 0.0000000000000000e+00  -4.1966862139725974e-02 2.7157365165691463e-02 0.0000000000000000e+00  2.8438560366999543e-02 -1.6124891971463089e-02 0.0000000000000000e+00  -1.2455986259115551e-01 2.2645980819857928e-02 0.0000000000000000e+00  -2.4273139841129297e-02 5.0637759135096138e-03 0.0000000000000000e+00  -6.7123523150806080e-02 -3.1681812594139589e-04 0.0000000000000000e+00  -6.5895937804068327e-02 -6.5140558886563185e-05 0.0000000000000000e+00  -3.8334978109681145e-02 -2.3618498253247697e-04 0.0000000000000000e+00  -2.8907373105506857e-02 -3.1131834219429627e-04 0.0000000000000000e+00  -2.3629093697058581e-02 -3.2451994174023668e-04 0.0000000000000000e+00  -1.9695246582391600e-02 -2.2761429038752821e-04 0.0000000000000000e+00  -1.8569047521225943e-02 -9.3369447434902937e-05 0.0000000000000000e+00  -1.8503790964302273e-02 1.3362357848905151e-05 0.0000000000000000e+00  -1.9542280948542438e-02 1.3690288433351009e-04 0.0000000000000000e+00  -2.3375398888801788e-02 2.0653328256662790e-04 0.0000000000000000e+00  -2.8734151294331163e-02 1.5591307461511195e-04 0.0000000000000000e+00  -3.8484521321214091e-02 9.3776412136611542e-06 0.0000000000000000e+00  -2.3758371780264843e-02 -1.8008645330807828e-03 0.0000000000000000e+00  -3.9758682826842522e-02 -1.0658414646199940e-04 0.0000000000000000e+00  -2.5637802962941252e-02 -3.1380112321820186e-04 0.0000000000000000e+00  -1.9284328428041439e-02 -1.5448668965983048e-04 0.0000000000000000e+00  -1.9148787307958916e-02 6.9595518685180486e-05 0.0000000000000000e+00  -2.5412367021873866e-02 1.8208916884569496e-04 0.0000000000000000e+00  -3.9256462584128717e-02 -1.4359100494971145e-04 0.0000000000000000e+00  -3.2265065557869059e-02 -2.8544799679320319e-04 0.0000000000000000e+00  -2.1302537063771745e-02 -2.9986588082667214e-04 0.0000000000000000e+00  -1.8368446632678451e-02 -3.9249515048454633e-05 0.0000000000000000e+00  -2.1001986595430341e-02 1.9583361410600088e-04 0.0000000000000000e+00  -3.2027474344423067e-02 1.0326701099012946e-04 0.0000000000000000e+00  4.8994971126451993e-02 2.0724715601424963e-02 0.0000000000000000e+00  -4.0016955490271053e-02 -2.4178622216250469e-02 0.0000000000000000e+00  -5.1027684575627029e-02 -1.1546685962156208e-01 0.0000000000000000e+00  -4.2285666040359868e-02 -8.0244415176068534e-03 0.0000000000000000e+00  -5.0964090242038983e-02 -3.2753405685166000e-02 0.0000000000000000e+00  -2.5821492075919432e-02 -3.7557664771193981e-02 0.0000000000000000e+00  -1.6921629933317688e-02 -7.6463798735476748e-02 0.0000000000000000e+00  -2.7475251957132189e-02 -5.7451015791271792e-03 0.0000000000000000e+00  -1.1896682701433028e-01 -2.2503896525578219e-02 0.0000000000000000e+00  2.1322247056576590e-02 1.1837386240333958e-02 0.0000000000000000e+00  -4.3215791353344822e-02 -2.8425687900860776e-02 0.0000000000000000e+00  1.7819027128926180e-02 1.9978705847590927e-02 0.0000000000000000e+00  -6.9945976176867444e-02 -1.0816343758706158e-01 0.0000000000000000e+00  1.1874284885803828e-02 4.3605509534573428e-02 0.0000000000000000e+00  -1.5475555050602342e-02 -8.0542440707415411e-02 0.0000000000000000e+00  3.7227258027804993e-09 -3.6992253117401165e-08 0.0000000000000000e+00  -1.2394511573294028e-09 2.0453486778479531e-08 0.0000000000000000e+00  2.3822918684003170e-09 5.6151326699952924e-08 0.0000000000000000e+00  6.3614686325333836e-10 8.1931596451229577e-09 0.0000000000000000e+00  -2.3187864569798730e-10 -1.9224702341618528e-09 0.0000000000000000e+00  -1.5726658591856327e-09 -4.4917092000086385e-08 0.0000000000000000e+00  2.0217776058354284e-08 -2.5208705822352312e-10 0.0000000000000000e+00  -1.9109030755760673e-08 6.0045918460564327e-11 0.0000000000000000e+00  -1.9733154194622514e-08 -1.7441920122780588e-10 0.0000000000000000e+00  2.0821030585265413e-08 -3.4011304413831084e-11 0.0000000000000000e+00  1.9073071589004353e-09 1.9579648659594116e-08 0.0000000000000000e+00  1.3211662502414601e-15 8.9841121274461728e-15 0.0000000000000000e+00  -1.5535348808130868e-15 -1.3313642959977004e-14 0.0000000000000000e+00  3.5418172537953086e-20 -2.7365379497918225e-21 0.0000000000000000e+00  -5.0945526310989175e-21 -5.9617963684017785e-21 0.0000000000000000e+00  3.1726158953295242e-14 -2.1299563703373982e-16 0.0000000000000000e+00  -3.1449888139171062e-15 -4.2440385122861596e-14 0.0000000000000000e+00  -3.0075650817340417e-21 -1.7175107087968723e-20 0.0000000000000000e+00  6.1074901292702253e-16 -6.6051439378506676e-14 0.0000000000000000e+00  1.0278671319063384e-20 -1.2636414737120093e-20 0.0000000000000000e+00  4.7009394900056848e-15 -5.2304102269628368e-14 0.0000000000000000e+00  4.0970660001434422e-17 5.8552948532387785e-16 0.0000000000000000e+00  1.0075815719682520e-20 -3.8888359026187971e-20 0.0000000000000000e+00  -1.2964131643365567e-09 -1.9684748279941328e-08 0.0000000000000000e+00  -7.6657471145770440e-16 -6.1324726715845237e-15 0.0000000000000000e+00  -2.8485228307113352e-14 -6.8941544625500991e-17 0.0000000000000000e+00  -6.3509849491885518e-16 3.5662755312140049e-15 0.0000000000000000e+00  1.4863468224697058e-09 -2.1613037897698191e-08 0.0000000000000000e+00  3.0321839627972358e-09 -5.3876334997734587e-08 0.0000000000000000e+00  -1.4516978291373244e-09 1.7822631557499905e-08 0.0000000000000000e+00  1.0587849566001927e-09 -1.0654351665484834e-08 0.0000000000000000e+00  -2.1374152156028064e-09 -2.0746207153670748e-08 0.0000000000000000e+00  -8.8361006971157269e-16 1.2062857296566661e-14 0.0000000000000000e+00  -3.2019664310028743e-10 4.5840733531256150e-08 0.0000000000000000e+00  2.2683144537994951e-09 3.2211791749675206e-08 0.0000000000000000e+00  1.1753761784696649e-15 -1.0713632175192622e-14 0.0000000000000000e+00  2.3521917719902710e-15 2.9814808604621930e-14 0.0000000000000000e+00  -3.1342928008075555e-20 -4.4324736374901750e-21 0.0000000000000000e+00  -2.8042920923886589e-11 3.5872639858801366e-10 0.0000000000000000e+00  -3.4633333403186181e-08 5.5669826549192888e-08 0.0000000000000000e+00  -1