<?xml version="1.0"?>
<VTKFile type="UnstructuredGrid"  version="0.1"  >
<UnstructuredGrid>
<Piece  NumberOfPoints="4153" NumberOfCells="8064">
<Points>
<DataArray  type="Float64"  NumberOfComponents="3"  format="ascii">-0.4163753685666401 -0.6435472148367701 0  -0.03734872271974865 -0.8244257364521125 0  -0.09178551276391997 -0.818457751182717 0  -0.1449719966516075 -0.8064312853690808 0  -0.1963175907826206 -0.7889760074826598 0  -0.2457694888259481 -0.7677628906887681 0  -0.2926150226406318 -0.7409902186596657 0  -0.3366133360982396 -0.7107622522666999 0  -0.3777372529018833 -0.6779769935952153 0  0.01754512483808837 -0.8239562009864075 0  -0.4524390349539988 -0.6091280153345203 0  -0.4866108051806904 -0.5747722874907163 0  -0.5189661337940604 -0.540781612363038 0  -0.5498031651963317 -0.5076581060499683 0  -0.579522093563997 -0.4760068432936878 0  -0.608444217736704 -0.4461846357426474 0  -0.6366833024714916 -0.4189680036714009 0  0.6336706182154499 -0.4140575219202738 0  0.07205090415314452 -0.8171136992552734 0  0.1253606954773185 -0.8041785966427407 0  0.176781646352915 -0.7857389308268714 0  0.2257740700922893 -0.7624919997958085 0  0.2720997991638845 -0.73566480647598 0  0.3157007233271992 -0.7060655444835564 0  0.3566595941414945 -0.6745392243517886 0  0.39510403502786 -0.6417707327526879 0  0.4314170463840056 -0.6086243272988328 0  0.4658673056654709 -0.5755574913377168 0  0.4987551276015014 -0.5430010425438287 0  0.5303053974688163 -0.5113231369919823 0  0.5608621488041509 -0.4808491148543753 0  0.5905861927304319 -0.452042579758285 0  0.6197237952271477 -0.4257448942840699 0  0.6049455307691146 -0.4387654357150791 0  -0.6223461436360673 -0.4323535528639741 0  -0.5647578903877104 -0.4917536693667204 0  -0.5029883547541659 -0.5577071465982805 0  -0.4346338580879263 -0.6263155321443404 0  -0.3575586331092326 -0.6945308117889708 0  -0.2695129298455099 -0.7548465554410185 0  -0.1709083080509775 -0.7984726045434409 0  -0.06467717644977249 -0.822232558387667 0  0.5757424428688604 -0.4664311036474802 0  0.1513433389608576 -0.7955901525306166 0  0.2492796246526565 -0.7494863110066718 0  0.3364876346875806 -0.6904874070178696 0  0.4135155546476307 -0.6252288563505245 0  0.4824809531010391 -0.5592116962671674 0  0.5457174552853334 -0.4960502858093989 0  0.04489901476742201 -0.8213226993568578 0  -0.6502633888795999 -0.4068614472244637 0  0.5146832241734598 -0.5270523662621101 0  0.4488537717914799 -0.5920647329981126 0  0.3761870257035326 -0.6582466817923565 0  0.2942382297443316 -0.7211668182807367 0  0.2016204982923248 -0.7746643410285788 0  0.09890218746689414 -0.8113756809206831 0  -0.00990368141423548 -0.8250025490076383 0  -0.1185797318346781 -0.8131941948310752 0  -0.2211501247121334 -0.778832283332332 0  -0.3148955061364006 -0.7260694268788332 0  -0.3976844783218608 -0.6613536407760521 0  -0.4697713341183258 -0.5919530410491174 0  -0.5345868267989383 -0.5241291696192574 0  -0.593971717078429 -0.4610288986925113 0  0.750292183555639 -0.2249882238479857 0  0.6788587552616319 -0.3798811244208865 0  0.7185454318613526 -0.3366257923802148 0  0.7436237768372495 -0.2843455883331452 0  0.656833929598622 -0.3974435281902923 0  0.6998729529004246 -0.3595937872882278 0  0.7290310377272142 -0.3088942059117504 0  0.7456839953132969 -0.254281117662963 0  0.6450915740446754 -0.4059877368149003 0  0.6678312302527425 -0.3878334437104037 0  0.6895028189709489 -0.3698891300001739 0  0.7089244113805864 -0.3472569566525381 0  0.7266127245695497 -0.3241762178574223 0  0.7353392747686261 -0.2964177201547553 0  0.743416975749712 -0.2690313841800145 0  0.7472869458221733 -0.2394714218473038 0  0.7499687628458529 -0.2058020304837076 0  0.7530792185259553 0.2267639612716033 0  0.7542084224537686 0.1886220549809987 0  0.7565815022963948 0.1499691385831667 0  0.7592152813870696 0.1107373457225047 0  0.7618262835810258 0.07089126159998578 0  0.7628733196341911 0.03057327087113371 0  0.7624906919087944 -0.009858574940522793 0  0.760675700930845 -0.05014737874661712 0  0.7574070424313378 -0.08992165105860854 0  0.7542039826319644 -0.1290963672269103 0  0.7513530740567217 -0.1676872120149736 0  0.7539887717128617 0.2458614835436705 0  0.753438521753248 0.2077457220302638 0  0.7579085558550883 0.1304266042534054 0  0.7625255453211759 0.05076401268049823 0  0.7617661227699758 -0.03003774675218362 0  0.7558165843197868 -0.1095879903966027 0  0.7504391471291276 -0.1867993925622859 0  0.7553348364244031 0.1693667225283386 0  0.7606223716527953 0.09091289765803962 0  0.7628556869589823 0.01035575684338556 0  0.7591037299229073 -0.07013295247686006 0  0.7527084462094328 -0.1484653650050422 0  0.6438062672049731 0.4371503039150315 0  0.7488262031467776 0.305394513849398 0  0.7253249606945321 0.3585881875823749 0  0.6874279395458959 0.4026343138798418 0  0.750335944570564 0.2752532140031542 0  0.7355991124488885 0.3307948989712864 0  0.7074796819835109 0.3816986143087645 0  0.6659651847516258 0.4201017151580572 0  0.7516385639875937 0.2604582621265768 0  0.7487053594431405 0.2901003795759332 0  0.7414163421790739 0.3178741369041939 0  0.7324040808378947 0.3456085751686973 0  0.7160501941389461 0.3692678428466499 0  0.6975614769221701 0.3922567571962439 0  0.6766409922681424 0.4106148801471162 0  0.6546978389556498 0.428786254685643 0  -0.02958301617190242 0.8785070991175039 0  0.602882206227681 0.4767368771162703 0  0.5746719938995121 0.506967031341111 0  0.5456816765700756 0.539182674642292 0  0.5155726058580572 0.5730187482680958 0  0.483932145581728 0.6079363542898986 0  0.4504535582429336 0.643520028127213 0  0.4148193641018737 0.6793260224828789 0  0.3766697393093123 0.7149200403148687 0  0.3355828881878243 0.7492180950989696 0  0.291410517037835 0.7814743618717965 0  0.2440611388138036 0.8107265898707069 0  0.1936232247206215 0.8361625557811295 0  0.1403661825894055 0.8563210859403769 0  0.08488786984642001 0.8704305404424332 0  0.02796181370412762 0.8778189556465237 0  0.6305128134175811 0.4492645836219729 0  -0.08669246496800913 0.8714908949190379 0  -0.1423398881032928 0.8576669625499919 0  -0.1956889363452753 0.8376967037965238 0  -0.2459940128442147 0.811808952431623 0  -0.2934530735192058 0.783469224336347 0  -0.3377236999335121 0.7520322467406308 0  -0.3789894104366844 0.718559315349301 0  -0.4174508778837634 0.6837037814829618 0  -0.4534615372170382 0.6487521842070063 0  -0.4874829867952911 0.6140262167479068 0  -0.5197879315052346 0.5799027008210285 0  -0.5506663744343083 0.5467496688723321 0  -0.5804026335305703 0.5149080758835961 0  -0.6092553756554078 0.4849155622043727 0  -0.6374627317137431 0.4575895742244987 0  -0.6509797374410818 0.4454750711611183 0  -0.6231429906399297 0.4710655126636641 0  -0.5656744351772202 0.530767792198594 0  -0.5038346749048885 0.5968810219355291 0  -0.4357110316464007 0.6662123205024404 0  -0.3587118588562055 0.7354502268922082 0  -0.2701137297225963 0.798101841305948 0  -0.1693269318782544 0.8482204623951553 0  -0.05824909712044463 0.8758514734107959 0  0.05656216369608543 0.8750254218844072 0  0.1673159248102586 0.8469239216957312 0  0.2681346733723008 0.7965442899450776 0  0.3564883434630642 0.7322478064197439 0  0.4329253850111619 0.661427907523339 0  0.4999615247621758 0.5903768730333787 0  0.5602847822970223 0.5229699967032314 0  0.6164871506528747 0.4627893409969782 0  -0.5948399321101374 0.4998569583882095 0  -0.5353971860690105 0.563228282810445 0  -0.4707100890812204 0.6313457913214318 0  -0.3986256527278526 0.7013091050017622 0  -0.3159619538065223 0.7680280294208699 0  -0.2215347850760614 0.8258350266877744 0  -0.1147402443406166 0.8653268579266408 0  -0.0007456219629571829 0.8790559067428765 0  0.1128619964491926 0.8641767906561654 0  0.2192533971022474 0.8240726744523349 0  0.3138898740747279 0.765659139146559 0  0.3961208403378823 0.6972337989532476 0  0.467441532317857 0.6256757435180237 0  0.5308219807723853 0.5559784835112421 0  0.5887822282236992 0.4917671860449038 0  -0.7639983842007764 0.2544581756358305 0  -0.6951123879425449 0.4107399342962844 0  -0.7337299563563914 0.3668329323257417 0  -0.7579614817228393 0.3139631980233621 0  -0.6734770674282112 0.4283922381668334 0  -0.7155693589445747 0.3899839264998426 0  -0.7440792712205277 0.3390049473460316 0  -0.7597892172180888 0.2838319159879897 0  -0.6620227387517024 0.4370943043163289 0  -0.6842602206133576 0.4187804108985836 0  -0.7054628334875372 0.400475002602574 0  -0.724333215941754 0.3775374963466013 0  -0.7412690804395726 0.3540587522736253 0  -0.7501272970141207 0.3262715750910105 0  -0.7578242136792775 0.2986515071668486 0  -0.7612721124921104 0.2690174344593496 0  -0.7634051338329758 0.2352864078990245 0  -0.7631477162454183 -0.1978297206922362 0  -0.7644899008112026 -0.159697006756393 0  -0.7671804427039616 -0.12105347158586 0  -0.7701661345026696 -0.08181480832011157 0  -0.7731591359856796 -0.04196065137721095 0  -0.7746308630954951 -0.001605912528319474 0  -0.7746664141381344 0.03888209766020851 0  -0.773268581353585 0.07924691463664665 0  -0.7703580987272367 0.1191280179904678 0  -0.7674226615991783 0.1584058396411907 0  -0.7647510982602447 0.1970985210676894 0  -0.7637920881391683 -0.2169731763007086 0  -0.7636025383288221 -0.1788205029016122 0  -0.7686870738780008 -0.1015118798551232 0  -0.7740746902207569 -0.02181708626603303 0  -0.7741467185002633 0.05909692469942955 0  -0.7689067945576333 0.1388429717508528 0  -0.7638636615712456 0.216248141848591 0  -0.7657692164333747 -0.1404493185435562 0  -0.7717454647918278 -0.06198777606027634 0  -0.7748230635857332 0.01863750418451397 0  -0.7718988376551703 0.09928463931848643 0  -0.766026278179973 0.1778251177595779 0  -0.7576957305069127 -0.2763846020166443 0  -0.7332557923534324 -0.3290623595536034 0  -0.694510144378799 -0.3726480262564505 0  -0.7596257118594363 -0.2463137622533313 0  -0.7438355825521623 -0.3014228693871759 0  -0.7150298880930367 -0.3520927015405011 0  -0.6727420677522009 -0.3900480638816631 0  -0.7611086069084301 -0.2315198744868898 0  -0.75767
[...]
<PointData  Vectors="f_4302"> 
<DataArray  type="Float64"  Name="f_4302"  NumberOfComponents="3" format="ascii">1.5619952177755275e-03 1.7028187806884874e-03 0.0000000000000000e+00  8.3141477142869365e-04 1.6339782086448932e-02 0.0000000000000000e+00  3.1035471117880770e-03 1.8447185672708113e-02 0.0000000000000000e+00  5.9391103413283554e-03 2.1050081454034180e-02 0.0000000000000000e+00  8.6717805714716083e-03 2.2168111256619834e-02 0.0000000000000000e+00  2.0373119628911727e-02 4.0785093117401770e-02 0.0000000000000000e+00  2.8329256720950800e-02 4.4755686381453982e-02 0.0000000000000000e+00  2.6105786653028630e-02 3.5307023070333864e-02 0.0000000000000000e+00  1.9017302906218860e-02 2.2812872358464187e-02 0.0000000000000000e+00  -1.0722379229209898e-03 1.5972294622533953e-02 0.0000000000000000e+00  1.1773210012728933e-02 1.2033952993527615e-02 0.0000000000000000e+00  8.9749443946865754e-03 8.7065928406019379e-03 0.0000000000000000e+00  6.0905356522855053e-03 5.7256776462538224e-03 0.0000000000000000e+00  3.1878773337301290e-03 2.9768848404991919e-03 0.0000000000000000e+00  1.8687341259481704e-03 1.7979629364253357e-03 0.0000000000000000e+00  -1.3193521149260784e-03 -1.3375277245272117e-03 0.0000000000000000e+00  3.5676656472705180e-04 7.9447504638690251e-05 0.0000000000000000e+00  -1.5803432226882800e-02 2.1107838958286183e-02 0.0000000000000000e+00  -3.1655549966348412e-03 1.7165507998418199e-02 0.0000000000000000e+00  -5.9315724969943697e-03 1.9690343478905581e-02 0.0000000000000000e+00  -9.2846564712441380e-03 2.2299272059704778e-02 0.0000000000000000e+00  -1.2512087562233178e-02 2.3699964740436740e-02 0.0000000000000000e+00  -1.5090377538186000e-02 2.3962916086484126e-02 0.0000000000000000e+00  -1.6355344386709578e-02 2.2538631549655019e-02 0.0000000000000000e+00  -1.6405189406721598e-02 2.0216830162877331e-02 0.0000000000000000e+00  -1.3253554542841040e-02 1.4988920673192192e-02 0.0000000000000000e+00  -1.1225100992954262e-02 1.1961712553615490e-02 0.0000000000000000e+00  -8.5329924302606549e-03 8.7333845278752507e-03 0.0000000000000000e+00  -6.1456549134792570e-03 6.1515922858245290e-03 0.0000000000000000e+00  -5.3974315810564931e-03 5.4083707690453274e-03 0.0000000000000000e+00  -2.4213671358585369e-03 2.4942929410292193e-03 0.0000000000000000e+00  1.8975702935074921e-03 -1.9695397654005530e-03 0.0000000000000000e+00  2.8253702649480147e-03 -3.6409882996980883e-03 0.0000000000000000e+00  -6.6488874169767075e-03 7.4176528817237212e-03 0.0000000000000000e+00  7.9321800822502314e-03 8.3590311860181413e-03 0.0000000000000000e+00  3.3877537631583914e-03 3.1659753006421632e-03 0.0000000000000000e+00  7.4807005765343800e-03 7.1271377872284937e-03 0.0000000000000000e+00  1.3889399697500441e-02 1.4541600109695772e-02 0.0000000000000000e+00  2.9262632152494566e-02 3.6831732482003630e-02 0.0000000000000000e+00  2.1158452254078780e-02 3.7189243854518529e-02 0.0000000000000000e+00  8.0228172496457969e-03 2.3671916514067682e-02 0.0000000000000000e+00  1.9206497856583812e-03 1.7495712062647179e-02 0.0000000000000000e+00  -1.3633307182515542e-03 1.3550589155059229e-03 0.0000000000000000e+00  -7.5635619641330198e-03 2.1071685739458654e-02 0.0000000000000000e+00  -1.4076677492387141e-02 2.4306437978261795e-02 0.0000000000000000e+00  -1.5897375231863024e-02 2.0651377322310784e-02 0.0000000000000000e+00  -1.2957292049455789e-02 1.4202286737124729e-02 0.0000000000000000e+00  -7.4626584306731521e-03 7.5420019496671353e-03 0.0000000000000000e+00  -2.8969747885726899e-03 2.8874945792617432e-03 0.0000000000000000e+00  -2.0473917158761569e-03 1.6282147835504253e-02 0.0000000000000000e+00  1.0172412173593165e-02 1.2884886512431065e-02 0.0000000000000000e+00  -4.7745137656683111e-03 4.7532091238474466e-03 0.0000000000000000e+00  -1.0150885446036198e-02 1.0580957482928553e-02 0.0000000000000000e+00  -1.5285197430833116e-02 1.7945076835094640e-02 0.0000000000000000e+00  -1.5813216557644914e-02 2.3299338585480816e-02 0.0000000000000000e+00  -1.1744787244280254e-02 2.4755739227057018e-02 0.0000000000000000e+00  -4.4304695808878589e-03 1.8234930187399967e-02 0.0000000000000000e+00  -1.3452015771106142e-04 1.5840161887889521e-02 0.0000000000000000e+00  4.7528207009749713e-03 2.1024676345627744e-02 0.0000000000000000e+00  7.3809969367984590e-03 1.7100392667925735e-02 0.0000000000000000e+00  2.0648266479375947e-02 3.0079600813840833e-02 0.0000000000000000e+00  4.5572569599458955e-02 5.1340063011245829e-02 0.0000000000000000e+00  1.1044386259585662e-02 1.0991697045583107e-02 0.0000000000000000e+00  5.1661872855599403e-03 4.8140522341494196e-03 0.0000000000000000e+00  2.8357699086299145e-03 2.7357483197379012e-03 0.0000000000000000e+00  4.1228495426756641e-02 -3.0736135158040095e-03 0.0000000000000000e+00  6.0542786980413904e-02 -7.1357573532731075e-02 0.0000000000000000e+00  2.9065590069848608e-02 -2.8231369607998946e-02 0.0000000000000000e+00  -1.8964521978958909e-01 6.2800275392960528e-02 0.0000000000000000e+00  6.9393971712846938e-03 -8.0674615506387271e-03 0.0000000000000000e+00  2.8591915819062421e-02 -2.2762186316999337e-02 0.0000000000000000e+00  3.0517378536209483e-01 -9.9172139567111642e-02 0.0000000000000000e+00  1.7785879341638351e-02 -2.4150022350011803e-03 0.0000000000000000e+00  -2.8225843269505386e-03 2.4244082716037701e-03 0.0000000000000000e+00  -1.8475209315737921e-02 2.2780281920231526e-02 0.0000000000000000e+00  2.6072134688722687e-02 -3.0197521113809998e-02 0.0000000000000000e+00  2.4541569011011604e-02 -2.2706600010162219e-02 0.0000000000000000e+00  -1.6558338660541194e-01 6.9343679825085644e-02 0.0000000000000000e+00  -3.2202016023539359e-01 1.7131211690866585e-01 0.0000000000000000e+00  1.8471453354548445e-01 -1.4530297609146250e-02 0.0000000000000000e+00  1.4384246316604832e-02 -2.5363954072464344e-03 0.0000000000000000e+00  6.2817267740940222e-02 -8.9347564250838506e-04 0.0000000000000000e+00  3.6203436841690924e-02 -3.7024506072957561e-04 0.0000000000000000e+00  1.0558509073357829e-02 5.2124124454445649e-04 0.0000000000000000e+00  6.4224057748210380e-03 4.2384365034002855e-04 0.0000000000000000e+00  5.8488047880188914e-03 4.0093867908628204e-04 0.0000000000000000e+00  7.9631046357349876e-03 3.8078707153889379e-04 0.0000000000000000e+00  8.4189693776002290e-03 6.9670843489770464e-05 0.0000000000000000e+00  8.3800536377679220e-03 -2.2607371666647907e-04 0.0000000000000000e+00  7.5201895081315057e-03 -4.9837381667748202e-04 0.0000000000000000e+00  5.6234577993173425e-03 -4.6791704658723633e-04 0.0000000000000000e+00  6.4539945019074646e-03 -5.1446108717277054e-04 0.0000000000000000e+00  1.4159894061118169e-02 -8.2735446019152864e-04 0.0000000000000000e+00  2.5563069738823288e-02 1.3175508573638297e-03 0.0000000000000000e+00  1.2830252142345880e-02 3.4334071995781806e-04 0.0000000000000000e+00  5.5570385552658726e-03 3.7301639906670752e-04 0.0000000000000000e+00  8.4775077389937972e-03 2.1787317757821775e-04 0.0000000000000000e+00  8.5450161078571042e-03 -3.8505771726612080e-04 0.0000000000000000e+00  5.4433453118880393e-03 -4.4538541019530049e-04 0.0000000000000000e+00  1.3570397007118359e-02 -4.9842294795334223e-04 0.0000000000000000e+00  7.4175747808351202e-03 4.5228998897589177e-04 0.0000000000000000e+00  7.0266649179389221e-03 4.5804322676287209e-04 0.0000000000000000e+00  8.4203714466424429e-03 -8.0027636699926626e-05 0.0000000000000000e+00  5.8291870127838170e-03 -4.7894128560969440e-04 0.0000000000000000e+00  7.1908599245656896e-03 -5.2986069482637487e-04 0.0000000000000000e+00  -1.6047923810477750e-02 -1.9608836003880140e-02 0.0000000000000000e+00  -3.9384397379215286e-02 -1.2569138616924044e-02 0.0000000000000000e+00  4.6826766413525449e-02 3.2647952797648490e-02 0.0000000000000000e+00  6.0163931308773878e-02 6.6712127803000704e-02 0.0000000000000000e+00  2.7175621416704494e-02 2.6696168663972839e-03 0.0000000000000000e+00  1.1951972146645090e-01 3.9344999224224256e-02 0.0000000000000000e+00  2.8381872710753649e-02 2.1688746630885825e-02 0.0000000000000000e+00  1.2682492211621399e-02 1.5136262209550781e-02 0.0000000000000000e+00  2.4320866426416024e-02 3.1002050857095306e-03 0.0000000000000000e+00  9.9143078458097958e-02 5.7418350593688803e-03 0.0000000000000000e+00  -9.8044512154688956e-02 -4.5036107224710215e-02 0.0000000000000000e+00  -6.4240454050965470e-02 -2.6025584886865568e-02 0.0000000000000000e+00  1.4079255510998341e-02 1.2432477813555699e-02 0.0000000000000000e+00  2.7613288132088173e-02 2.8960795684925204e-02 0.0000000000000000e+00  -2.4541546263420567e-02 -2.9441360410553830e-02 0.0000000000000000e+00  -6.1346149972620308e-03 -6.9762121237299914e-03 0.0000000000000000e+00  6.4561382535429496e-04 -1.1208742966564589e-02 0.0000000000000000e+00  6.3207137638400274e-04 6.1160370982756051e-04 0.0000000000000000e+00  -2.3065208390020656e-03 -2.1312649621658417e-03 0.0000000000000000e+00  -3.4967446423744483e-03 -3.1279170585532933e-03 0.0000000000000000e+00  -5.7240481223710653e-03 -5.1320950191899254e-03 0.0000000000000000e+00  -8.2620902237402032e-03 -7.6126068109922040e-03 0.0000000000000000e+00  -1.1106177252761792e-02 -1.0725827795051620e-02 0.0000000000000000e+00  -1.2655535760030836e-02 -1.3021817479358487e-02 0.0000000000000000e+00  -1.7039013097815157e-02 -1.9294936121063869e-02 0.0000000000000000e+00  -1.6956764391915090e-02 -2.1637416864632553e-02 0.0000000000000000e+00  -1.5106661906966962e-02 -2.2390239522365296e-02 0.0000000000000000e+00  -1.1725272225058904e-02 -2.0847810082483865e-02 0.0000000000000000e+00  -8.5847991753697523e-03 -1.9482738545405734e-02 0.0000000000000000e+00  -5.1056280372948999e-03 -1.6094670387200111e-02 0.0000000000000000e+00  -2.4692037697147638e-03 -1.2805809137707498e-02 0.0000000000000000e+00  -8.1205219899631114e-04 -1.1567400083956285e-02 0.0000000000000000e+00  -4.0974456087537276e-04 -1.7656835460300342e-04 0.0000000000000000e+00  3.1580541171072466e-03 -1.6864531832258649e-02 0.0000000000000000e+00  7.2691444176373465e-03 -2.3166608295919992e-02 0.0000000000000000e+00  8.7454155465856043e-03 -2.0077119257107090e-02 0.0000000000000000e+00  5.8415657385682863e-03 -1.0468799144555020e-02 0.0000000000000000e+00  1.7961058113533015e-02 -2.7399713834341165e-02 0.0000000000000000e+00  1.8375611773535284e-02 -2.4137487004824234e-02 0.0000000000000000e+00  1.6935513665356110e-02 -1.9787187412302665e-02 0.0000000000000000e+00  1.1026924069756970e-02 -1.1670001204190671e-02 0.0000000000000000e+00  1.0381935776665069e-02 -1.0422740015038821e-02 0.0000000000000000e+00  7.5218717743550769e-03 -7.2282413511084451e-03 0.0000000000000000e+00  5.0531628565505570e-03 -4.7356171395192340e-03 0.0000000000000000e+00  3.5627338210456844e-03 -3.3252086736760933e-03 0.0000000000000000e+00  1.0124658465247279e-03 -9.8205262790283928e-04 0.0000000000000000e+00  -2.0369072162089441e-03 2.0078680821645936e-03 0.0000000000000000e+00  -8.5616719301719198e-04 1.2340108130741490e-03 0.0000000000000000e+00  1.3590916672857356e-02 -1.6972836501078222e-02 0.0000000000000000e+00  7.3132712887596730e-03 -7.6425220265010875e-03 0.0000000000000000e+00  2.1466567804684202e-03 -1.9926777345213005e-03 0.0000000000000000e+00  6.4661066848249737e-03 -6.1263638520066520e-03 0.0000000000000000e+00  1.1833350130859507e-02 -1.2192421139517597e-02 0.0000000000000000e+00  1.7075090677105931e-02 -2.1060493238098672e-02 0.0000000000000000e+00  1.1675725286824134e-02 -1.9436289459397158e-02 0.0000000000000000e+00  1.0032293621612192e-02 -2.6838339876940554e-02 0.0000000000000000e+00  1.6682593374018676e-03 -1.3579952164928263e-02 0.0000000000000000e+00  -1.4891363506861987e-03 -1.1405040514995891e-02 0.0000000000000000e+00  -6.8598740633997639e-03 -1.8104163378138742e-02 0.0000000000000000e+00  -1.3483338884611999e-02 -2.1808913814968571e-02 0.0000000000000000e+00  -1.6338037712822780e-02 -1.9573945883965337e-02 0.0000000000000000e+00  -1.2702594359434697e-02 -1.2645063621757401e-02 0.0000000000000000e+00  -6.9968989254591361e-03 -6.3445469210175074e-03 0.0000000000000000e+00  -3.2851158686762025e-03 -2.9405789587719079e-03 0.0000000000000000e+00  -7.5090551263304771e-03 -7.6439932473356936e-03 0.0000000000000000e+00  1.5889729462930211e-03 -1.4999022367952648e-03 0.0000000000000000e+00  4.0912010662753715e-03 -3.8120358564315169e-03 0.0000000000000000e+00  9.2084127278380772e-03 -9.0265837935398479e-03 0.0000000000000000e+00  1.8819661658120698e-02 -2.0812314755980037e-02 0.0000000000000000e+00  1.6291496427995742e-02 -2.2944103318835420e-02 0.0000000000000000e+00  3.1716431798163858e-02 -6.1971384438407676e-02 0.0000000000000000e+00  4.6282504921030714e-03 -1.8580341144590399e-02 0.0000000000000000e+00  -1.1593365884399084e-04 -9.5867010884046061e-03 0.0000000000000000e+00  -3.5851221329114571e-03 -1.4055345471846744e-02 0.0000000000000000e+00  -1.1624392019820701e-02 -2.3068784472681660e-02 0.0000000000000000e+00  -1.5848235686637856e-02 -2.1705420555941733e-02 0.0000000000000000e+00  -1.6714882135242349e-02 -1.7938862703732593e-02 0.0000000000000000e+00  -9.8386202231803485e-03 -9.2609660433754792e-03 0.0000000000000000e+00  -4.7894068054472345e-03 -4.2630217147881606e-03 0.0000000000000000e+00  -2.6010576380337386e-03 -2.4050938533884915e-03 0.0000000000000000e+00  -3.0355340179515754e-02 1.9250703757209319e-03 0.0000000000000000e+00  -6.0910203106831533e-02 6.8759433202359346e-02 0.0000000000000000e+00  -4.0615377385405181e-02 3.1846670025302393e-02 0.0000000000000000e+00  9.9418061696043641e-02 -3.1791526523150225e-02 0.0000000000000000e+00  -1.0847051840107997e-02 1.2814055471572813e-02 0.0000000000000000e+00  -2.8347218153646766e-02 2.1904600690273737e-02 0.0000000000000000e+00  -1.9336550523649440e-01 6.2984607911089605e-02 0.0000000000000000e+00  -2.2662401278635089e-02 2.6564288621349790e-03 0.0000000000000000e+00  9.4464495296494345e-03 -1.1227996987772108e-02 0.0000000000000000e+00  2.2302506841934064e-02 -2.6789877003684112e-02 0.0000000000000000e+00  -2.6651084071188637e-02 2.9062181450222099e-02 0.0000000000000000e+00  -1.8079378964479437e-02 1.6217999770999667e-02 0.0000000000000000e+00  1.1071682348908768e-01 -4.5175744728286296e-02 0.0000000000000000e+00  1.8957141305517389e-01 -9.3838179338160882e-02 0.0000000000000000e+00  -1.3533726579480598e-01 9.4952314531186032e-03 0.0000000000000000e+00  -1.8155798532301030e-02 2.7913421916991961e-03 0.0000000000000000e+00  -5.0519993630310525e-02 1.9713505415120390e-04 0.0000000000000000e+00  -5.4714534784260818e-02 -1.6093304591647829e-04 0.0000000000000000e+00  -1.2225925636139372e-02 -6.8377373213833828e-04 0.0000000000000000e+00  -6.2819171191029035e-03 -4.6972676259816588e-04 0.0000000000000000e+00  -5.6265137808890614e-03 -4.3488687328885778e-04 0.0000000000000000e+00  -7.6912823412822150e-03 -4.4702884541124869e-04 0.0000000000000000e+00  -8.3504198440546053e-03 -1.5483489204553381e-04 0.0000000000000000e+00  -8.3654748042518486e-03 1.4027972607889624e-04 0.0000000000000000e+00  -7.7667182720624357e-03 4.3598270756102086e-04 0.0000000000000000e+00  -5.8209205066216988e-03 4.3983601157902949e-04 0.0000000000000000e+00  -6.4903069065550267e-03 4.7868585339744729e-04 0.0000000000000000e+00  -1.1972212923985454e-02 6.6866898376572164e-04 0.0000000000000000e+00  -3.0196682203904840e-02 -1.7629332158851027e-03 0.0000000000000000e+00  -1.2595281749249419e-02 -4.2819261313905904e-04 0.0000000000000000e+00  -5.4349336011533878e-03 -4.1363837113403439e-04 0.0000000000000000e+00  -8.4783028730164942e-03 -3.0832100280588266e-04 0.0000000000000000e+00  -8.4904037125276798e-03 2.9285633908402836e-04 0.0000000000000000e+00  -5.6384806296661764e-03 4.2138356639613914e-04 0.0000000000000000e+00  -1.2789087177202013e-02 4.3496945126212343e-04 0.0000000000000000e+00  -7.1414784422193988e-03 -4.9503062945487487e-04 0.0000000000000000e+00  -6.3535034454100144e-03 -4.7576171840399368e-04 0.0000000000000000e+00  -8.3879124429804119e-03 -7.4017733031056414e-06 0.0000000000000000e+00  -6.5663651795643272e-03 4.7754379654591688e-04 0.0000000000000000e+00  -7.3486703898573910e-03 5.0505796549327403e-04 0.0000000000000000e+00  9.6438043610088717e-02 3.1366492535410198e-02 0.0000000000000000e+00  -4.0412938879641487e-02 -3.1697672619703798e-02 0.0000000000000000e+00  -6.2758405308368972e-02 -7.1747513957453879e-02 0.0000000000000000e+00  -2.2593403577466215e-02 -2.6610858221083884e-03 0.0000000000000000e+00  -1.9274957714506166e-01 -6.4422467525680649e-02 0.0000000000000000e+00  -2.8882181472279632e-02 -2.2533262068422800e-02 0.0000000000000000e+00  -1.1763984751799133e-02 -1.4221939136806305e-02 0.0000000000000000e+00  -1.7280035594939264e-02 -2.6833437125588148e-03 0.0000000000000000e+00  -1.3691838368150766e-01 -1.0164423993129810e-02 0.0000000000000000e+00  1.8894360547571917e-01 9.3597851178577399e-02 0.0000000000000000e+00  1.0765486275351885e-01 4.5099061225896603e-02 0.0000000000000000e+00  -1.8417895395110410e-02 -1.6620135189670121e-02 0.0000000000000000e+00  -2.6335250257374085e-02 -2.9240889767573764e-02 0.0000000000000000e+00  2.3217169454751063e-02 2.8357938495545899e-02 0.0000000000000000e+00  1.8458334894208964e-02 2.3383223254494483e-02 0.0000000000000000e+00  9.3531252679237537e-09 -1.3293676787884698e-08 0.0000000000000000e+00  -9.5921507705327106e-09 1.4239885499301066e-08 0.0000000000000000e+00  3.2925006826746890e-09 1.4333686000846102e-08 0.0000000000000000e+00  6.4774488451855415e-09 6.5074024675308209e-09 0.0000000000000000e+00  -6.1757505435724254e-09 -5.8679691104896594e-09 0.0000000000000000e+00  -2.5636587511715014e-09 -9.7827218063325669e-09 0.0000000000000000e+00  5.2372050541104210e-09 -3.2806772922903707e-10 0.0000000000000000e+00  -5.0278478010545964e-09 2.9430278902650647e-10 0.0000000000000000e+00  -5.1075573443041696e-09 -2.9768557586450416e-10 0.0000000000000000e+00  4.7866905880347008e-09 2.4793573487683120e-10 0.0000000000000000e+00  -1.4393618291536275e-09 -1.3609682935494983e-09 0.0000000000000000e+00  -4.1327338910541600e-15 -3.7899404280261723e-15 0.0000000000000000e+00  -1.1325939376841694e-14 -1.2447715122495234e-14 0.0000000000000000e+00  -1.1557314205191899e-20 2.5610066283218080e-22 0.0000000000000000e+00  -2.9282762724859534e-20 -7.2866099596113234e-22 0.0000000000000000e+00  8.2157499551841780e-15 -6.2997727378251057e-17 0.0000000000000000e+00  -8.6317024692046245e-15 -1.7106507267084479e-14 0.0000000000000000e+00  -1.0011762611785800e-20 9.5998589449082329e-22 0.0000000000000000e+00  -1.1779518502744859e-17 -1.1419628138107358e-14 0.0000000000000000e+00  2.1094064888105558e-20 7.9920688370057917e-21 0.0000000000000000e+00  1.0335449637763026e-14 -2.0838675148113117e-14 0.0000000000000000e+00  2.4052912502411971e-16 3.5336488154215370e-16 0.0000000000000000e+00  3.6708390898132988e-20 -5.9931499027004479e-21 0.0000000000000000e+00  1.2359262130107074e-09 1.2082338685112297e-09 0.0000000000000000e+00  4.4526604796115096e-15 4.2797075983618009e-15 0.0000000000000000e+00  -8.4802995629050673e-15 -4.0050066070199904e-19 0.0000000000000000e+00  3.5093468077000866e-15 -3.3778258779674926e-15 0.0000000000000000e+00  -9.2524054282387336e-10 9.7361487283808201e-10 0.0000000000000000e+00  3.1962996189349725e-09 -1.2164522946145687e-08 0.0000000000000000e+00  6.4146687205091313e-10 -6.3371815820160030e-10 0.0000000000000000e+00  5.7714000074996125e-09 -5.7064646538549148e-09 0.0000000000000000e+00  -9.0651864689745070e-09 -1.2499291726868658e-08 0.0000000000000000e+00  -1.1650445541031458e-14 1.3962845423714494e-14 0.0000000000000000e+00  -3.2808693630367075e-09 1.3326923795849252e-08 0.0000000000000000e+00  1.2317625494060484e-08 1.8111346545660240e-08 0.0000000000000000e+00  -4.2683090391509028e-15 4.3799967105159213e-15 0.0000000000000000e+00  1.9492313973570759e-14 2.2641581104544376e-14 0.0000000000000000e+00  1.2552623525560068e-20 1.2557088753392927e-21 0.0000000000000000e+00  -6.5895976695618642e-09 6.9214592408134921e-09 0.0000000000000000e+00  -1.4950383931134572e-08 1.9264137603502052e-08 0.0000000000000000e+00  -9.6