<?xml version="1.0"?>
<VTKFile type="UnstructuredGrid"  version="0.1"  >
<UnstructuredGrid>
<Piece  NumberOfPoints="4153" NumberOfCells="8064">
<Points>
<DataArray  type="Float64"  NumberOfComponents="3"  format="ascii">-0.4307129488672974 -0.5719929852686072 0  -0.05179205288486852 -0.6714033872468042 0  -0.101642180841871 -0.6709480473745708 0  -0.1512017947199142 -0.6666356592663727 0  -0.2002361418241467 -0.6589905450481821 0  -0.2488773790645428 -0.6489130754061162 0  -0.2965787289240241 -0.634033484123652 0  -0.3428596549687467 -0.6157561968559903 0  -0.3876078909138258 -0.5949639215915895 0  -0.002026795523313757 -0.6677831337724103 0  -0.4725236376489875 -0.5492295431428349 0  -0.5134145942661797 -0.5264953602451756 0  -0.5534886051803088 -0.5041175899291407 0  -0.5928686641074753 -0.4825240329863026 0  -0.6318130273376357 -0.4621623807346239 0  -0.6703613633295638 -0.4431792967703711 0  -0.7086555967939472 -0.4263573091139388 0  0.6647414749194471 -0.418912270439375 0  0.0472629585626173 -0.6602606049848089 0  0.09573744633018647 -0.6491736092637612 0  0.1431386606870634 -0.63504842490944 0  0.1893112856793577 -0.6184865383569438 0  0.2342664258579099 -0.6004007715789482 0  0.2781252362308747 -0.5813869906523579 0  0.3210313062593319 -0.5619427078857897 0  0.3631239427284397 -0.542500316819288 0  0.4045969066857049 -0.5233720113929385 0  0.4455720106888424 -0.5047550930303993 0  0.486148886030029 -0.4867647460086055 0  0.5263854769875067 -0.4695917511833575 0  0.5663353628874865 -0.4532165845691157 0  0.6060115591522599 -0.4379492595546853 0  0.645495452498988 -0.4243467546163289 0  0.6256590851877714 -0.4311883474153546 0  -0.6893870060069868 -0.4347291251642462 0  -0.612394071911522 -0.4722371144111033 0  -0.5335390862054722 -0.5152467207795275 0  -0.4517159495685152 -0.5605914824325841 0  -0.3654326393023956 -0.6055711943230213 0  -0.272889833251207 -0.6419520339179052 0  -0.1757887578971547 -0.6632227460122998 0  -0.07673223321735992 -0.6716793477827045 0  0.5861899276308875 -0.445528338677947 0  0.1195838840186316 -0.6424486943869042 0  0.2119337289850035 -0.6095954114182812 0  0.2996844407491364 -0.5717039642552453 0  0.3839329121124104 -0.5328866136042355 0  0.4659020143895271 -0.495689808120634 0  0.546401143668618 -0.4613139619304578 0  0.02270008882639251 -0.6644926952104908 0  -0.727267672218797 -0.4194333161906929 0  0.5062928714504071 -0.4780582884388636 0  0.4251390405474854 -0.5139965523647755 0  0.3421615478413574 -0.5521782375034787 0  0.2563243608490724 -0.5909817825820805 0  0.1663873544284752 -0.627020994404032 0  0.07162074671001858 -0.6551339199654183 0  -0.02687282003663231 -0.6701020787836793 0  -0.1264774039985612 -0.6692519325329168 0  -0.2245515907407304 -0.6544302115303264 0  -0.3199044043116241 -0.625241610819222 0  -0.4094462898161852 -0.5836947350331836 0  -0.493079094803702 -0.5378466193812614 0  -0.5732495517316714 -0.4931689314404556 0  -0.6511061719710505 -0.4525843958448297 0  0.8199532900673933 -0.2348129369373556 0  0.72548333775719 -0.3973747112583611 0  0.7771992064881823 -0.356633602415613 0  0.8105443781442713 -0.3002692751390741 0  0.6954605149916963 -0.4087390807311966 0  0.7521871882270875 -0.3781861237369104 0  0.7926392427596491 -0.3275152715689961 0  0.8145218298768102 -0.2671947624494292 0  0.6803182195026723 -0.4148557918894983 0  0.7104008746997841 -0.4025874708416028 0  0.738912451506053 -0.3879815701750963 0  0.7643156303988958 -0.3666980017142885 0  0.7861488509874346 -0.3427585794015205 0  0.801036411382765 -0.3137535100897799 0  0.8120215434398693 -0.2835559411835935 0  0.8167654858673534 -0.2509046230675172 0  0.8192380992621175 -0.2136722861808903 0  0.8219310968302991 0.2510059494743069 0  0.821491751636245 0.2092348231710011 0  0.8223129389392879 0.167390019681232 0  0.8237619349521598 0.1253334887659744 0  0.8256249732195593 0.08293140473658053 0  0.8264016298678416 0.04021348185456163 0  0.8261391772261578 -0.002587350565385401 0  0.8248391095194019 -0.04532321671203751 0  0.8224946019628281 -0.08775752238457953 0  0.8205656217035243 -0.1298812030148589 0  0.8192622482344498 -0.1718092301595115 0  0.8230089629733477 0.2720807038032626 0  0.8215097939875431 0.2301174660901899 0  0.8229855245257574 0.1463948526312213 0  0.8261449914273711 0.0615929746080956 0  0.8256225372234495 -0.02397344493351409 0  0.8214816022471539 -0.1088507038354351 0  0.8190487709558893 -0.1927402860643684 0  0.8218077791870227 0.1883323146812564 0  0.8247348606568621 0.1041996576524399 0  0.8263957438035074 0.01881428255989397 0  0.823698537829487 -0.0666031927132775 0  0.8198204227328645 -0.150864185693297 0  0.6717856363991679 0.4575741098170424 0  0.8146614488617571 0.3375731101141369 0  0.7823161504729995 0.3942883087702792 0  0.7316240669178029 0.4356400030831189 0  0.8182431315769421 0.3044935625011236 0  0.7974949593414957 0.3651419903443452 0  0.7578640162488879 0.4161120238978505 0  0.7020299464597237 0.44727044111348 0  0.8202429983321644 0.2882042450568336 0  0.8160061766121905 0.3208699427065998 0  0.8055931632904041 0.3512304520876684 0  0.7910100050230398 0.380304145417706 0  0.7697257766864835 0.4045030078932165 0  0.7448095652879358 0.4260439943414807 0  0.7167638305644559 0.4410415552803498 0  0.6870789833404063 0.4533589756359494 0  -0.05028018915539985 0.7551956741058165 0  0.6144314497354663 0.4789413522615769 0  0.5756349686061717 0.4961136212370182 0  0.53655908438793 0.5146583047244098 0  0.4971995949495657 0.5345227849108941 0  0.4574073100849093 0.555499114326964 0  0.4170865515983713 0.5773984224282437 0  0.3761041710945209 0.6000529963939524 0  0.3342613041386418 0.6232871140564394 0  0.2912981977327107 0.6465308552027733 0  0.2470283491433035 0.669316738998125 0  0.2012607557936009 0.6910114273803188 0  0.1538334724728506 0.7109780818219642 0  0.1047183038685124 0.7279759177156176 0  0.05410916294589334 0.7413490575008765 0  0.002326302065335073 0.7504282589092848 0  0.653030308856674 0.4637846932908145 0  -0.1031301310480116 0.7540231655527797 0  -0.1554964094695771 0.7474578338207125 0  -0.2067647331799214 0.7358121349589835 0  -0.2562420149358829 0.7190564475741337 0  -0.3039244442484703 0.7001041529661548 0  -0.3499487749334982 0.6790479606484988 0  -0.3943754805287489 0.656409795139454 0  -0.4372491219117373 0.6326068812497484 0  -0.4788995525055526 0.6088426188958033 0  -0.5195672668817953 0.5852760423608049 0  -0.5594158697435918 0.5622044393024672 0  -0.5985962138033819 0.5399293139337354 0  -0.6372266953313067 0.5187162597045456 0  -0.6754526136304978 0.4990245821901806 0  -0.7134467914185634 0.4815739732572157 0  -0.7319617192701362 0.4744313084340422 0  -0.6943499459904104 0.4902475156400574 0  -0.6179728803479022 0.5291891443015138 0  -0.5395843568695706 0.5736630349138092 0  -0.4582042452288038 0.6207172288408074 0  -0.3723556873308843 0.6678814667714614 0  -0.2802953897107402 0.7098920174832036 0  -0.1813042794110656 0.7421909043720862 0  -0.07671856055142021 0.7552519306014541 0  0.02834099799739939 0.7464770431627709 0  0.1294773846344856 0.7198599429631312 0  0.2243396275755205 0.6803425488467021 0  0.3129274048999289 0.6349327682967101 0  0.3966857022947005 0.5886403065716078 0  0.4773587948258658 0.5448889615823167 0  0.5561314545117746 0.505270044881336 0  0.6335976456024994 0.4713329464645667 0  -0.6563667060387433 0.5087594672125884 0  -0.5790794528907287 0.5509567952766039 0  -0.4993457632342779 0.5970160542772222 0  -0.4160150135052459 0.6445853177419397 0  -0.3271405626494071 0.6898060104034442 0  -0.2318184846329032 0.7279452664800191 0  -0.1294134190606933 0.7513914993800173 0  -0.02385937349761912 0.7535099145426458 0  0.07958320970939187 0.7351565626892435 0  0.177779958602724 0.7013223251251157 0  0.2693394848279323 0.6580206164476806 0  0.3553136640443466 0.6116295556286968 0  0.437320093290221 0.5663466515100188 0  0.5169261794462092 0.5244283088712038 0  0.5950403730940258 0.4874527417610902 0  -0.8789889706099818 0.2820027390609051 0  -0.7905994525688569 0.4492634693249005 0  -0.8399633455184313 0.4059406884511785 0  -0.8711247319908264 0.3480940333085847 0  -0.7615988525487483 0.4622316324512971 0  -0.8161022034374383 0.4285383819160768 0  -0.8544379217863295 0.3761034976087804 0  -0.8743399143233506 0.3146875766400362 0  -0.7469734571182198 0.4692179420512852 0  -0.7760249368166179 0.4552691976757342 0  -0.8034205655124498 0.4390340781307475 0  -0.8276449799971982 0.4165035110818254 0  -0.8482747608558182 0.3915685362892267 0  -0.8622781897505902 0.3619493765176408 0  -0.872252192204618 0.331217110674652 0  -0.876252114540012 0.29825742086879 0  -0.8779322762025289 0.2607491029862776 0  -0.8760309979667846 -0.208806054218936 0  -0.8760287435889585 -0.1667015286150942 0  -0.8773186668067968 -0.1244456631312404 0  -0.8791775493768915 -0.08191417463946142 0  -0.8813070390210732 -0.03902028325298603 0  -0.8824520585915248 0.004186274400015922 0  -0.8826366980725763 0.04747820190000041 0  -0.8818653000996935 0.09070312933038943 0  -0.8801140425051884 0.1336404361294656 0  -0.878597897424107 0.176230938291788 0  -0.8776255223869098 0.2185603735800302 0  -0.8769410341899397 -0.2300185463716136 0  -0.8758212900595496 -0.1877619749717834 0  -0.8782100184064707 -0.1032196394761258 0  -0.8820015010031335 -0.01743795271365468 0  -0.8823717531591766 0.06910922730443911 0  -0.8793197479132921 0.1549730445406392 0  -0.8775693438488132 0.2396602695074438 0  -0.8765797615806327 -0.145603061574372 0  -0.8802855993895187 -0.06053061203163553 0  -0.8826607423275263 0.0258311449571031 0  -0.8810376122631611 0.1122316616339969 0  -0.8780218413667985 0.1974232079244426 0  -0.8684177074228636 -0.2958684139505406 0  -0.8364544382873688 -0.3531445866770255 0  -0.7864437226373554 -0.395618005352173 0  -0.8720165446072733 -0.2626100955071393 0  -0.851395862263617 -0.3236695255733346 0  -0.8122787476434253 -0.3754098378539993 0  -0.7571491832693275 -0.4080286677851882 0  -0.8740771035327226 -0.2462291778898844 0  -0.86975892960436
[...]
<PointData  Vectors="f_3314"> 
<DataArray  type="Float64"  Name="f_3314"  NumberOfComponents="3" format="ascii">7.6048644725568576e-03 1.3803076876164132e-02 0.0000000000000000e+00  -1.0304953571157913e-03 5.2894833078810592e-02 0.0000000000000000e+00  3.4886810833791803e-03 5.2731299926362420e-02 0.0000000000000000e+00  7.0882299674869557e-03 5.0451345933114164e-02 0.0000000000000000e+00  7.8156006303572636e-03 3.9417815964433077e-02 0.0000000000000000e+00  9.9247133874206632e-03 2.0841943731570580e-02 0.0000000000000000e+00  1.8516314761710125e-02 4.4383975976823059e-02 0.0000000000000000e+00  2.0387533308480973e-02 4.2525317297838386e-02 0.0000000000000000e+00  1.9189728750839245e-02 3.5114709864673979e-02 0.0000000000000000e+00  -6.0873662427399057e-03 5.5231104027193161e-02 0.0000000000000000e+00  8.5146086429465015e-03 1.6071205686630726e-02 0.0000000000000000e+00  6.3947070331328978e-03 1.2698311688084739e-02 0.0000000000000000e+00  4.5826824999490945e-03 1.0560513348497230e-02 0.0000000000000000e+00  8.1655079228148963e-03 1.9387309514761312e-02 0.0000000000000000e+00  7.5197871544200722e-03 2.0469660439235936e-02 0.0000000000000000e+00  1.2117783823983859e-02 3.9326101522241079e-02 0.0000000000000000e+00  -1.8995273961440351e-03 3.0538640276865554e-02 0.0000000000000000e+00  -1.9843327782170839e-02 3.7401012632106732e-02 0.0000000000000000e+00  -1.1311177673339999e-02 5.8028761108440498e-02 0.0000000000000000e+00  -1.6671687516065889e-02 6.1054713307080753e-02 0.0000000000000000e+00  -2.1399575727556987e-02 6.2999565611033523e-02 0.0000000000000000e+00  -2.3841346548426751e-02 6.0785920998733103e-02 0.0000000000000000e+00  -2.4282572188003931e-02 5.7051074922310423e-02 0.0000000000000000e+00  -2.2847593124863542e-02 5.1256779567694873e-02 0.0000000000000000e+00  -2.0290256359601529e-02 4.4691262129030941e-02 0.0000000000000000e+00  -1.7841474321939638e-02 4.0316366748839830e-02 0.0000000000000000e+00  -1.4783345565061850e-02 3.4621461440328030e-02 0.0000000000000000e+00  -1.1572181184947889e-02 2.8817206813125877e-02 0.0000000000000000e+00  -7.3869150539680878e-03 2.0860024913411421e-02 0.0000000000000000e+00  -4.9946681107223912e-03 1.6273048973259506e-02 0.0000000000000000e+00  -4.1529445213016577e-03 1.6921981942723749e-02 0.0000000000000000e+00  -5.0562793031605421e-03 2.7224730848232456e-02 0.0000000000000000e+00  9.4393859691360368e-03 8.1756371845064912e-03 0.0000000000000000e+00  1.0383501444468838e-02 -1.7615854319763809e-02 0.0000000000000000e+00  -3.1463312352212991e-03 4.8826395611877354e-03 0.0000000000000000e+00  2.4904710954495434e-03 9.0358199368779334e-03 0.0000000000000000e+00  5.7866384263367222e-03 1.2055860393442169e-02 0.0000000000000000e+00  1.2059431977847736e-02 2.3494376436856319e-02 0.0000000000000000e+00  1.8374060442389283e-02 3.5633239006892900e-02 0.0000000000000000e+00  1.6439825427008795e-02 4.1274725568483522e-02 0.0000000000000000e+00  8.3353549147868796e-03 4.6991795859685950e-02 0.0000000000000000e+00  1.2982590029450587e-03 5.3018224573722968e-02 0.0000000000000000e+00  4.5659933533660421e-03 -4.2230229530868827e-03 0.0000000000000000e+00  -1.9086232213884616e-02 6.1999891758978444e-02 0.0000000000000000e+00  -2.4488552307395165e-02 5.9741694058294478e-02 0.0000000000000000e+00  -2.1760892403769775e-02 4.8312699637454853e-02 0.0000000000000000e+00  -1.6035456582829406e-02 3.6642071426972643e-02 0.0000000000000000e+00  -9.3943023017653074e-03 2.4470850297768271e-02 0.0000000000000000e+00  -4.7626145766432290e-04 6.2828368006344120e-03 0.0000000000000000e+00  -8.6273098605715529e-03 5.6434193881190337e-02 0.0000000000000000e+00  4.0373709607258952e-02 1.0864298135651575e-01 0.0000000000000000e+00  -6.9482256886751704e-03 2.0766746520008639e-02 0.0000000000000000e+00  -1.2969349040285454e-02 3.1226364350102453e-02 0.0000000000000000e+00  -1.9249000897043619e-02 4.2951090658832333e-02 0.0000000000000000e+00  -2.3778494315556717e-02 5.4321957338709363e-02 0.0000000000000000e+00  -2.3248584134045364e-02 6.2721984403777672e-02 0.0000000000000000e+00  -1.3995831820635256e-02 5.9562294951137296e-02 0.0000000000000000e+00  -3.4898627295371640e-03 5.3549564856456865e-02 0.0000000000000000e+00  5.6463068939638147e-03 5.3222836508349067e-02 0.0000000000000000e+00  1.5845043565016748e-03 -1.5115287300913047e-04 0.0000000000000000e+00  1.8912723876743393e-02 4.2058886015773761e-02 0.0000000000000000e+00  2.5237799255872426e-02 4.4218586500895891e-02 0.0000000000000000e+00  7.0753464411759288e-03 1.3508562858790572e-02 0.0000000000000000e+00  5.1584435915131574e-03 1.2813234304451037e-02 0.0000000000000000e+00  -1.9072762557318702e-03 2.9321320724166305e-03 0.0000000000000000e+00  4.5657492857431377e-02 1.1461021081878634e-03 0.0000000000000000e+00  5.1028102739649799e-02 -1.2167790069150415e-01 0.0000000000000000e+00  4.1812132952913902e-02 -5.6201022266437063e-02 0.0000000000000000e+00  -1.9565995489838994e-01 2.8297740215354035e-02 0.0000000000000000e+00  4.2121944818260308e-02 -1.1506698986706586e-01 0.0000000000000000e+00  1.9899756093553642e-02 -2.8091672612557055e-02 0.0000000000000000e+00  1.6522703269511904e-01 -5.0570666106832647e-02 0.0000000000000000e+00  4.6193643154079783e-02 -3.7703775850752319e-03 0.0000000000000000e+00  2.9946650827294110e-02 -1.2270145663738095e-01 0.0000000000000000e+00  -8.4052005290651766e-02 1.6328233280969301e-01 0.0000000000000000e+00  4.3939887875443930e-02 -9.1364997003961584e-02 0.0000000000000000e+00  -6.2075651903965544e-02 5.0942143399103433e-02 0.0000000000000000e+00  -1.6074913693690565e-01 7.3282555722216230e-02 0.0000000000000000e+00  -2.3700888136427747e-01 1.0691337643017186e-01 0.0000000000000000e+00  2.3362527580788126e-01 -8.9884243421847476e-03 0.0000000000000000e+00  1.2319556043415647e-02 -5.3228539748059710e-03 0.0000000000000000e+00  1.0433747884987984e-01 3.5469389349643580e-03 0.0000000000000000e+00  8.4945452901507817e-02 -5.6888830380527533e-03 0.0000000000000000e+00  3.4385628438337396e-02 1.0395658119301768e-03 0.0000000000000000e+00  2.1153541508448576e-02 1.1178992798679948e-03 0.0000000000000000e+00  1.6250841445241890e-02 9.8671468420759713e-04 0.0000000000000000e+00  1.5941862714104481e-02 5.6880369855881051e-04 0.0000000000000000e+00  1.6133730373897308e-02 7.9699291346047233e-05 0.0000000000000000e+00  1.6199985033366331e-02 -2.9819839341479277e-04 0.0000000000000000e+00  1.5874632317672405e-02 -7.7246767065427624e-04 0.0000000000000000e+00  1.6901013398555608e-02 -1.1309098017184022e-03 0.0000000000000000e+00  2.2682724594285084e-02 -1.3377700946853844e-03 0.0000000000000000e+00  3.9085034058145056e-02 -1.3676631442294887e-03 0.0000000000000000e+00  4.0750211191475059e-02 -2.5977174805302647e-03 0.0000000000000000e+00  3.9502458438519628e-02 1.1350607461528101e-03 0.0000000000000000e+00  1.7709413615827816e-02 9.9708829689703921e-04 0.0000000000000000e+00  1.6460964561196310e-02 2.2666020746622343e-04 0.0000000000000000e+00  1.6710068429156382e-02 -4.6804182615809689e-04 0.0000000000000000e+00  1.8812424581703176e-02 -1.1902570540687303e-03 0.0000000000000000e+00  4.1172696428723024e-02 -1.1624053838084323e-03 0.0000000000000000e+00  2.5370905877393476e-02 1.2842562547961196e-03 0.0000000000000000e+00  1.5671832245594743e-02 9.6921625901864980e-04 0.0000000000000000e+00  1.6092485155212121e-02 -1.1158394806385086e-04 0.0000000000000000e+00  1.4940505937578138e-02 -1.0936709130264001e-03 0.0000000000000000e+00  2.6883221081852933e-02 -1.4920195738598622e-03 0.0000000000000000e+00  -2.9224852095192294e-02 -9.1010944963418328e-02 0.0000000000000000e+00  -1.1694147408068908e-01 -1.1748826455609082e-02 0.0000000000000000e+00  4.2085064031133428e-02 4.7951327133239414e-02 0.0000000000000000e+00  4.8436363421060759e-02 1.1682920984835010e-01 0.0000000000000000e+00  5.0149230879929646e-02 5.1176280280890189e-03 0.0000000000000000e+00  1.2070464637071604e-01 3.9059638881663139e-02 0.0000000000000000e+00  2.5195686236230096e-02 3.2463238637784428e-02 0.0000000000000000e+00  3.7049638087448447e-02 1.0143013631743043e-01 0.0000000000000000e+00  2.8488470229910513e-02 6.6357238026828330e-03 0.0000000000000000e+00  1.7790974022180686e-01 3.1160480056833242e-03 0.0000000000000000e+00  -1.4859075656226223e-01 -5.4151570970434430e-02 0.0000000000000000e+00  -1.0073506995319484e-01 -4.3180134917333579e-02 0.0000000000000000e+00  -4.7386664717909345e-02 -3.4942385838890380e-02 0.0000000000000000e+00  4.3958664936158534e-02 8.6237094353774177e-02 0.0000000000000000e+00  -7.1706624050373383e-02 -1.2697970246046128e-01 0.0000000000000000e+00  3.3779854997283691e-02 1.2713517851095571e-01 0.0000000000000000e+00  1.1443068513105298e-03 -2.6910466871236386e-02 0.0000000000000000e+00  -8.4433299937683951e-03 -3.4583016217311406e-02 0.0000000000000000e+00  -8.3655516290371615e-03 -2.5153731260982748e-02 0.0000000000000000e+00  -1.0994973185358393e-02 -2.7891857909232359e-02 0.0000000000000000e+00  -1.2077586209675936e-02 -2.7251356270726407e-02 0.0000000000000000e+00  -1.4823710013045091e-02 -3.0502048256317284e-02 0.0000000000000000e+00  -1.7352302866175322e-02 -3.3626335076188639e-02 0.0000000000000000e+00  -1.9593899659427060e-02 -3.6471878815859331e-02 0.0000000000000000e+00  -2.2510399087732457e-02 -4.1222636512106843e-02 0.0000000000000000e+00  -2.4852568995881733e-02 -4.6559218580664766e-02 0.0000000000000000e+00  -2.6229500198790244e-02 -5.2030799233036093e-02 0.0000000000000000e+00  -2.4953354822203174e-02 -5.4205109703448301e-02 0.0000000000000000e+00  -2.1453033578473332e-02 -5.5231383109360037e-02 0.0000000000000000e+00  -1.5253461440579260e-02 -4.9501484783820070e-02 0.0000000000000000e+00  -8.9426971329378355e-03 -4.1871574552413013e-02 0.0000000000000000e+00  -4.1565028511778733e-03 -3.5485322051556925e-02 0.0000000000000000e+00  6.7950256744045692e-03 -1.7185289304261858e-02 0.0000000000000000e+00  4.1218855688544579e-03 -3.2161767073079134e-02 0.0000000000000000e+00  9.9360299716072017e-03 -4.4626100552842302e-02 0.0000000000000000e+00  1.9376093755492499e-02 -6.0239094853660601e-02 0.0000000000000000e+00  1.6188089386332254e-02 -4.1519343022118779e-02 0.0000000000000000e+00  1.8510510907202068e-02 -4.0928388250851176e-02 0.0000000000000000e+00  1.7604595993945864e-02 -3.4631424955987464e-02 0.0000000000000000e+00  1.6085395586464268e-02 -2.9010982604409940e-02 0.0000000000000000e+00  1.1627706920387419e-02 -2.0677708340549428e-02 0.0000000000000000e+00  9.6096532641541943e-03 -1.7303028447197302e-02 0.0000000000000000e+00  7.4373497711568790e-03 -1.4062411098056357e-02 0.0000000000000000e+00  5.6752050462814388e-03 -1.1930823281217143e-02 0.0000000000000000e+00  4.6972756539413463e-03 -1.1472404530964082e-02 0.0000000000000000e+00  7.1666755519892529e-03 -1.8873048419303595e-02 0.0000000000000000e+00  1.1470143309046594e-02 -3.5743841573684286e-02 0.0000000000000000e+00  1.6762404982584544e-04 -3.2552598594632783e-02 0.0000000000000000e+00  3.0061740820784093e-02 -6.7082150456968206e-02 0.0000000000000000e+00  -3.9576069461538530e-03 -2.8074987413369301e-03 0.0000000000000000e+00  1.7595813739393522e-03 -7.1601656055174075e-03 0.0000000000000000e+00  6.3275131162368629e-03 -1.2539484466785501e-02 0.0000000000000000e+00  1.1488738531069541e-02 -2.0763940846821222e-02 0.0000000000000000e+00  1.6433898958711762e-02 -3.0820433057741098e-02 0.0000000000000000e+00  1.8225486970022447e-02 -4.4341684049217567e-02 0.0000000000000000e+00  1.2522821325888953e-02 -4.6153796822824882e-02 0.0000000000000000e+00  2.3636920629987075e-03 -3.0729457601982139e-02 0.0000000000000000e+00  -6.1350468954993846e-03 -3.8806317935660382e-02 0.0000000000000000e+00  -1.8393228007006813e-02 -5.2475165667877931e-02 0.0000000000000000e+00  -2.6081148528286691e-02 -5.4245835755318564e-02 0.0000000000000000e+00  -2.3647905154636190e-02 -4.3698328094770790e-02 0.0000000000000000e+00  -1.8795298945264462e-02 -3.5685185988388116e-02 0.0000000000000000e+00  -1.3548786071186505e-02 -2.9022519323803151e-02 0.0000000000000000e+00  -4.9937472537861906e-03 -1.6026434445971936e-02 0.0000000000000000e+00  5.1643680244903246e-03 1.3416319624335761e-04 0.0000000000000000e+00  -1.6223432004399121e-03 -3.2826847537793915e-03 0.0000000000000000e+00  4.6149920059516099e-03 -1.0648056719019677e-02 0.0000000000000000e+00  8.4906455991661158e-03 -1.5582056786185213e-02 0.0000000000000000e+00  1.4378113838879918e-02 -2.4956768477106050e-02 0.0000000000000000e+00  1.7867904507732298e-02 -3.7247067118780355e-02 0.0000000000000000e+00  2.9485417949683616e-02 -8.0754260655494861e-02 0.0000000000000000e+00  6.4501428827445206e-03 -3.6807532444887443e-02 0.0000000000000000e+00  -8.9286589920755494e-04 -1.9885159909809602e-02 0.0000000000000000e+00  -1.1943393929014999e-02 -4.5833128947370086e-02 0.0000000000000000e+00  -2.4762715314691767e-02 -5.7403957520598424e-02 0.0000000000000000e+00  -2.5802875637405128e-02 -4.9523633965216689e-02 0.0000000000000000e+00  -2.0829384892028509e-02 -3.8112769964792584e-02 0.0000000000000000e+00  -1.5991054728397673e-02 -3.1820071888687296e-02 0.0000000000000000e+00  -1.0371467627359490e-02 -2.5279765836733702e-02 0.0000000000000000e+00  1.6469543340775444e-03 -4.1212481042150811e-03 0.0000000000000000e+00  -3.9239959112300132e-02 -2.7312612282765292e-03 0.0000000000000000e+00  -5.8842769647328687e-02 1.2028235975316008e-01 0.0000000000000000e+00  -4.6918275616267734e-02 4.7402877852633744e-02 0.0000000000000000e+00  1.2582767944167916e-01 -1.2865942443056076e-02 0.0000000000000000e+00  -4.6783988640473215e-02 1.0223630337219954e-01 0.0000000000000000e+00  -2.5715443205187129e-02 3.0205931991071015e-02 0.0000000000000000e+00  -1.2161852906333265e-01 3.5115574640379295e-02 0.0000000000000000e+00  -4.8135209618638770e-02 4.4423771402019464e-03 0.0000000000000000e+00  -3.7966938052363314e-02 1.1366084253076492e-01 0.0000000000000000e+00  9.3347192822607991e-02 -1.5979236771955491e-01 0.0000000000000000e+00  -4.9576695401479499e-02 8.5013855169584637e-02 0.0000000000000000e+00  6.0647509121251650e-02 -4.7197050535677257e-02 0.0000000000000000e+00  9.5653105740092212e-02 -3.8278311833085658e-02 0.0000000000000000e+00  1.6529751467922801e-01 -6.0175931434218670e-02 0.0000000000000000e+00  -1.8609334310643907e-01 2.2573292953221753e-03 0.0000000000000000e+00  -2.4045149748192728e-02 5.9083767357907538e-03 0.0000000000000000e+00  -8.7377747028586292e-02 -5.0720642570163538e-03 0.0000000000000000e+00  -1.0168916957084301e-01 4.1174456366173968e-03 0.0000000000000000e+00  -3.5793150357506111e-02 -1.3597253804300267e-03 0.0000000000000000e+00  -2.0829458642930707e-02 -1.2506074993920311e-03 0.0000000000000000e+00  -1.5922025010650057e-02 -1.0118473747871221e-03 0.0000000000000000e+00  -1.4914550610857308e-02 -6.3514920738009845e-04 0.0000000000000000e+00  -1.5061471800280061e-02 -2.3078184141259414e-04 0.0000000000000000e+00  -1.5026414376420612e-02 9.2646740156639029e-05 0.0000000000000000e+00  -1.4940396994708597e-02 4.9737659510898987e-04 0.0000000000000000e+00  -1.5794601519010347e-02 9.0210506398424168e-04 0.0000000000000000e+00  -2.0254443920741293e-02 1.1050439298283090e-03 0.0000000000000000e+00  -3.3221753673786374e-02 1.1510290990588683e-03 0.0000000000000000e+00  -3.9753383042383399e-02 2.5453891717752632e-03 0.0000000000000000e+00  -3.8803427540014084e-02 -1.3353849448327058e-03 0.0000000000000000e+00  -1.7433627888824708e-02 -1.0837147933599285e-03 0.0000000000000000e+00  -1.5525519302068084e-02 -3.7341915549507986e-04 0.0000000000000000e+00  -1.5404200766845002e-02 2.2650667197319843e-04 0.0000000000000000e+00  -1.7100957260762953e-02 9.5992729629347658e-04 0.0000000000000000e+00  -3.7502425241707799e-02 1.2459116361400150e-03 0.0000000000000000e+00  -2.4787741274598419e-02 -1.4515665284827106e-03 0.0000000000000000e+00  -1.4450415631491411e-02 -9.3984156223279251e-04 0.0000000000000000e+00  -1.4974611550342378e-02 -6.8601364646642352e-05 0.0000000000000000e+00  -1.4833663708862166e-02 8.2818324521087127e-04 0.0000000000000000e+00  -2.4049707119321532e-02 1.3074760850370574e-03 0.0000000000000000e+00  1.4154871172921832e-01 1.5875269371623309e-02 0.0000000000000000e+00  -4.5428482828537016e-02 -4.7823997233171649e-02 0.0000000000000000e+00  -5.9426934310519638e-02 -1.2818377663063979e-01 0.0000000000000000e+00  -4.6750416051482051e-02 -4.2402223067973801e-03 0.0000000000000000e+00  -1.3125407093683020e-01 -4.0279418677328080e-02 0.0000000000000000e+00  -2.3528264340555331e-02 -2.9299785612162597e-02 0.0000000000000000e+00  -4.4515499790343305e-02 -1.0651825486099767e-01 0.0000000000000000e+00  -1.7745607414903029e-02 -5.4357276885339274e-03 0.0000000000000000e+00  -2.0484184918299714e-01 -6.4415058924540769e-03 0.0000000000000000e+00  1.8789697413965339e-01 7.4789507513493433e-02 0.0000000000000000e+00  1.0918921830220267e-01 4.5738738516101524e-02 0.0000000000000000e+00  6.6835152010371157e-02 5.4655052058777701e-02 0.0000000000000000e+00  -4.8930777087427303e-02 -8.9512759521059151e-02 0.0000000000000000e+00  9.4640505634603411e-02 1.6881225360517868e-01 0.0000000000000000e+00  -4.0609772629093377e-02 -1.3035369586369419e-01 0.0000000000000000e+00  3.2723773483241999e-05 2.0677367480721260e-05 0.0000000000000000e+00  -1.9754488257903334e-05 -1.7857595186200491e-05 0.0000000000000000e+00  1.9178450106869811e-05 -3.6671836526422922e-06 0.0000000000000000e+00  1.3388014834496547e-05 -3.3857245446768946e-05 0.0000000000000000e+00  -6.8760835492616591e-06 3.1043820776179601e-05 0.0000000000000000e+00  -2.2408357912903545e-05 3.2099057077625347e-06 0.0000000000000000e+00  -4.3397074727756079e-06 -7.2115400265474082e-06 0.0000000000000000e+00  1.7553614752724501e-06 3.3301216077333237e-06 0.0000000000000000e+00  2.7899256135184594e-06 -4.8695103288912641e-06 0.0000000000000000e+00  -1.8425791352639966e-06 3.7128406834069635e-06 0.0000000000000000e+00  -1.9549580582473413e-06 3.6438491400489086e-05 0.0000000000000000e+00  -3.1941893608669359e-06 1.8574202960907807e-05 0.0000000000000000e+00  -1.1889255125743225e-05 3.4662982453956826e-05 0.0000000000000000e+00  -2.2619934463092499e-07 -4.5073924588115454e-06 0.0000000000000000e+00  4.8700423426137622e-07 -7.8263019002847628e-06 0.0000000000000000e+00  -7.4668798613000285e-08 -2.4688321974412455e-06 0.0000000000000000e+00  -5.2817615712263732e-05 6.1278094700735242e-05 0.0000000000000000e+00  2.6095733966501359e-06 -9.0258877313400599e-07 0.0000000000000000e+00  -7.0576209155801656e-06 6.1035781023495526e-07 0.0000000000000000e+00  7.8269951588561481e-05 5.3829991736604869e-07 0.0000000000000000e+00  6.9503921498256040e-05 8.5737750178507973e-05 0.0000000000000000e+00  2.5900729561681879e-05 -5.2629311631518469e-05 0.0000000000000000e+00  -9.9610272265729740e-06 2.0629651400951173e-06 0.0000000000000000e+00  4.0375228733538558e-06 -3.4682756001495473e-05 0.0000000000000000e+00  5.3905713945041954e-06 -2.1148398737271521e-05 0.0000000000000000e+00  -5.4259657591092768e-09 -8.9214984817410242e-07 0.0000000000000000e+00  4.3945997315112439e-06 2.0669081637168401e-05 0.0000000000000000e+00  -3.1879730365732395e-06 -4.1652063480848657e-05 0.0000000000000000e+00  3.3518753224061207e-05 6.7903952836393788e-06 0.0000000000000000e+00  2.5518426170234202e-06 3.2595647535563929e-05 0.0000000000000000e+00  1.0416006556713522e-05 2.7819528025376399e-05 0.0000000000000000e+00  -2.5676891110679464e-05 2.0633658474914559e-05 0.0000000000000000e+00  -1.3741419101115977e-05 -3.3868138060321295e-05 0.0000000000000000e+00  -1.7346505347645857e-05 -2.7967331293509876e-06 0.0000000000000000e+00  4.3584979111216103e-05 -3.2447515608421081e-05 0.0000000000000000e+00  -5.4512090792434940e-06 -2.4357127772210168e-05 0.0000000000000000e+00  1.4557022375766594e-05 -3.5789893396658633e-05 0.0000000000000000e+00  3.4188951954374587e-07 1.8668939872786672e-06 0.0000000000000000e+00  -6.2022681659654189e-06 -3.2061461515293569e-05 0.0000000000000000e+00  6.3072531117275602e-06 1.6866672861097112e-05 0.0000000000000000e+00  -3.8