<?xml version="1.0"?>
<VTKFile type="UnstructuredGrid"  version="0.1"  >
<UnstructuredGrid>
<Piece  NumberOfPoints="4153" NumberOfCells="8064">
<Points>
<DataArray  type="Float64"  NumberOfComponents="3"  format="ascii">-0.4249999999999999 -0.5 0  -0.02499999999999988 -0.5 0  -0.07499999999999987 -0.5 0  -0.1249999999999998 -0.5 0  -0.1749999999999998 -0.5 0  -0.2249999999999998 -0.5 0  -0.2749999999999998 -0.5 0  -0.3249999999999998 -0.5 0  -0.3749999999999999 -0.5 0  0.02500000000000016 -0.5 0  -0.4749999999999998 -0.5 0  -0.5249999999999998 -0.5 0  -0.5749999999999998 -0.5 0  -0.6249999999999999 -0.5 0  -0.6749999999999999 -0.5 0  -0.725 -0.5 0  -0.775 -0.5 0  0.8 -0.5 0  0.07500000000000025 -0.5 0  0.1250000000000003 -0.5 0  0.1750000000000004 -0.5 0  0.2250000000000004 -0.5 0  0.2750000000000004 -0.5 0  0.3250000000000003 -0.5 0  0.3750000000000001 -0.5 0  0.4250000000000002 -0.5 0  0.4750000000000002 -0.5 0  0.5250000000000001 -0.5 0  0.5750000000000002 -0.5 0  0.625 -0.5 0  0.675 -0.5 0  0.725 -0.5 0  0.775 -0.5 0  0.75 -0.5 0  -0.75 -0.5 0  -0.6499999999999999 -0.5 0  -0.5499999999999998 -0.5 0  -0.4499999999999998 -0.5 0  -0.3499999999999999 -0.5 0  -0.2499999999999998 -0.5 0  -0.1499999999999998 -0.5 0  -0.04999999999999988 -0.5 0  0.7 -0.5 0  0.1500000000000004 -0.5 0  0.2500000000000003 -0.5 0  0.3500000000000002 -0.5 0  0.4500000000000002 -0.5 0  0.5500000000000002 -0.5 0  0.65 -0.5 0  0.0500000000000002 -0.5 0  -0.8 -0.5 0  0.6000000000000001 -0.5 0  0.5000000000000002 -0.5 0  0.4000000000000001 -0.5 0  0.3000000000000003 -0.5 0  0.2000000000000004 -0.5 0  0.1000000000000003 -0.5 0  1.110223024625157e-16 -0.5 0  -0.09999999999999987 -0.5 0  -0.1999999999999998 -0.5 0  -0.2999999999999998 -0.5 0  -0.3999999999999999 -0.5 0  -0.4999999999999998 -0.5 0  -0.5999999999999999 -0.5 0  -0.7 -0.5 0  1 -0.3 0  0.8765366864730179 -0.4847759065022574 0  0.9414213562373094 -0.4414213562373097 0  0.9847759065022573 -0.3765366864730181 0  0.838268343236509 -0.4923879532511287 0  0.9089790213551636 -0.4630986313697836 0  0.9630986313697834 -0.4089790213551639 0  0.9923879532511286 -0.338268343236509 0  0.8191341716182545 -0.4961939766255644 0  0.8574025148547635 -0.488581929876693 0  0.8927578539140908 -0.4739372689360205 0  0.9252001887962364 -0.4522599938035466 0  0.9522599938035463 -0.4252001887962368 0  0.9739372689360204 -0.392757853914091 0  0.9885819298766929 -0.3574025148547635 0  0.9961939766255643 -0.3191341716182545 0  1 -0.275 0  1 0.275 0  1 0.225 0  1 0.175 0  1 0.125 0  1 0.07499999999999994 0  1 0.02499999999999987 0  1 -0.0250000000000002 0  1 -0.07500000000000026 0  1 -0.1250000000000003 0  1 -0.1750000000000002 0  1 -0.2250000000000001 0  1 0.3 0  1 0.25 0  1 0.15 0  1 0.04999999999999991 0  1 -0.05000000000000023 0  1 -0.1500000000000002 0  1 -0.2500000000000001 0  1 0.2 0  1 0.09999999999999998 0  1 -1.665334536937735e-16 0  1 -0.1000000000000003 0  1 -0.2000000000000002 0  0.8 0.5 0  0.9847759065022573 0.3765366864730181 0  0.9414213562373094 0.4414213562373097 0  0.8765366864730179 0.4847759065022574 0  0.9923879532511286 0.338268343236509 0  0.9630986313697834 0.4089790213551639 0  0.9089790213551636 0.4630986313697836 0  0.838268343236509 0.4923879532511287 0  0.9961939766255643 0.3191341716182545 0  0.9885819298766929 0.3574025148547635 0  0.9739372689360204 0.392757853914091 0  0.9522599938035463 0.4252001887962368 0  0.9252001887962364 0.4522599938035466 0  0.8927578539140908 0.4739372689360205 0  0.8574025148547635 0.488581929876693 0  0.8191341716182545 0.4961939766255644 0  -0.02500000000000016 0.5 0  0.725 0.5 0  0.6749999999999999 0.5 0  0.6249999999999999 0.5 0  0.5749999999999998 0.5 0  0.5249999999999998 0.5 0  0.4749999999999998 0.5 0  0.4249999999999999 0.5 0  0.3749999999999999 0.5 0  0.3249999999999998 0.5 0  0.2749999999999998 0.5 0  0.2249999999999998 0.5 0  0.1749999999999998 0.5 0  0.1249999999999998 0.5 0  0.07499999999999987 0.5 0  0.02499999999999988 0.5 0  0.775 0.5 0  -0.07500000000000025 0.5 0  -0.1250000000000003 0.5 0  -0.1750000000000004 0.5 0  -0.2250000000000004 0.5 0  -0.2750000000000004 0.5 0  -0.3250000000000003 0.5 0  -0.3750000000000001 0.5 0  -0.4250000000000002 0.5 0  -0.4750000000000002 0.5 0  -0.5250000000000001 0.5 0  -0.5750000000000002 0.5 0  -0.625 0.5 0  -0.675 0.5 0  -0.725 0.5 0  -0.775 0.5 0  -0.8 0.5 0  -0.75 0.5 0  -0.65 0.5 0  -0.5500000000000002 0.5 0  -0.4500000000000002 0.5 0  -0.3500000000000002 0.5 0  -0.2500000000000003 0.5 0  -0.1500000000000004 0.5 0  -0.0500000000000002 0.5 0  0.04999999999999988 0.5 0  0.1499999999999998 0.5 0  0.2499999999999998 0.5 0  0.3499999999999999 0.5 0  0.4499999999999998 0.5 0  0.5499999999999998 0.5 0  0.6499999999999999 0.5 0  0.75 0.5 0  -0.7 0.5 0  -0.6000000000000001 0.5 0  -0.5000000000000002 0.5 0  -0.4000000000000001 0.5 0  -0.3000000000000003 0.5 0  -0.2000000000000004 0.5 0  -0.1000000000000003 0.5 0  -1.110223024625157e-16 0.5 0  0.09999999999999987 0.5 0  0.1999999999999998 0.5 0  0.2999999999999998 0.5 0  0.3999999999999999 0.5 0  0.4999999999999998 0.5 0  0.5999999999999999 0.5 0  0.7 0.5 0  -1 0.3 0  -0.8765366864730181 0.4847759065022573 0  -0.9414213562373097 0.4414213562373094 0  -0.9847759065022574 0.3765366864730179 0  -0.838268343236509 0.4923879532511287 0  -0.9089790213551638 0.4630986313697834 0  -0.9630986313697836 0.4089790213551636 0  -0.9923879532511287 0.338268343236509 0  -0.8191341716182545 0.4961939766255643 0  -0.8574025148547635 0.488581929876693 0  -0.892757853914091 0.4739372689360203 0  -0.9252001887962368 0.4522599938035464 0  -0.9522599938035466 0.4252001887962365 0  -0.9739372689360205 0.3927578539140908 0  -0.9885819298766931 0.3574025148547634 0  -0.9961939766255643 0.3191341716182545 0  -1 0.275 0  -1 -0.275 0  -1 -0.225 0  -1 -0.175 0  -1 -0.125 0  -1 -0.07499999999999994 0  -1 -0.02499999999999987 0  -1 0.0250000000000002 0  -1 0.07500000000000026 0  -1 0.1250000000000003 0  -1 0.1750000000000002 0  -1 0.2250000000000001 0  -1 -0.3 0  -1 -0.25 0  -1 -0.15 0  -1 -0.04999999999999991 0  -1 0.05000000000000023 0  -1 0.1500000000000002 0  -1 0.2500000000000001 0  -1 -0.2 0  -1 -0.09999999999999998 0  -1 1.665334536937735e-16 0  -1 0.1000000000000003 0  -1 0.2000000000000002 0  -0.9847759065022574 -0.3765366864730179 0  -0.9414213562373096 -0.4414213562373094 0  -0.8765366864730181 -0.4847759065022573 0  -0.9923879532511287 -0.338268343236509 0  -0.9630986313697836 -0.4089790213551636 0  -0.9089790213551638 -0.4630986313697834 0  -0.838268343236509 -0.4923879532511287 0  -0.9961939766255643 -0.3191341716182545 0  -0.9885819298766931 -0.3574025148547634 0  -0.9739372689360205 -0.3927578539140908 0  -0.9522599938035465 -0.4252001887962365 0  -0.9252001887962367 -0.4522599938035464 0  -0.892757853914091 -0.4739372689360203 0  -0.8574025148547635 -0.488581929876693 0  -0.8191341716182545 -0.4961939766255643 0  -0.3000000000000003 0.3267949192431125 0  0.3181343990330772 -0.3439416921723297 0  -0.08257249764926196 -0.3383308877677023 0  -0.50979744334887 -0.3255818518047211 0  0.5060441378325211 0.3274561643884037 0  0.1037631564626732 0.3131559137665553 0  0.843149210446875 -0.1923130104173427 0  -0.8418263458721231 0.1927503215247096 0  -0.8408809410250262 -0.1897116835785854 0  0.8409071959036176 0.1896235182386696 0  0.705967194587281 0.3354524287114743 0  0.6276370409402552 0.1658336215477063 0  0.4215070288293651 0.1446794873901968 0  0.5369019087152576 -0.01677883310260353 0  0.3378219718963524 -0.0304857337078401 0  0.7359191653189867 -0.0003779706345871367 0  0.2206709281181736 0.1292871338121241 0  0.1390057666500616 -0.05482518983879574 0  0.02156604114872933 0.1091113821954512 0  -0.05991856886335568 -0.07544049830328706 0  -0.2091026540303009 0.113218101697482 0  -0.2557387210741711 -0.08957125969209863 0  -0.3742518736706093 0.02381865171750689 0  -0.7065883696935737 -0.3351547375041799 0  -0.6319769825415822 -0.1640183941417108 0  -0.7379485134301987 -0.0003221286420197649 0  -0.6263925638672921 0.1747922261462193 0  0.7000000000000003 -0.3471147448144379 0  -0.09731754444756222 0.2985839976753261 0  -0.7019016658227 0.339872535812372 0  -0.5036626740707574 0.3416097573515475 0  0.3086642085404555 0.31909644989288 0  0.4355889359290377 -0.1794947220360297 0  0.1233906847482294 -0.33992001942789 0  -0.2910439982708135 -0.2942818290560931 0  0.6252598700683595 -0.1832373653183336 0  -0.4390211493546888 -0.1414717198202583 0  -0.5445756908252299 0.01225332998817602 0  0.5094027625036279 -0.3483114655372777 0  -0.8570298735864267 0.3548088427148782 0  0.2432245006188761 -0.181388344807941 0  0.8576591493456415 0.3532994606374906 0  -0.8577781333911819 -0.3532575554640149 0  0.856914113336837 -0.3561698222938181 0  -0.4103395160999327 0.186370105143853 0  0.04059278020228735 -0.1932320619509051 0  -0.894759031223147 0.000141425932117211 0  0.8948577502800618 -0.0001596971477125707 0  -0.1430838089440986 -0.1942958300671257 0  -0.4774576034625814 0.09931171756601452 0  -0.5183660399836124 0.1805811656450362 0  -0.585484127346261 0.09352277806719765 0  -0.3551697580499665 0.2565825121934828 0  -0.3097210850651168 0.1497941034206675 0  -0.2545513270151506 0.2200065104702973 0  -0.3922956948852711 0.10509437843068 0  -0.4594137822479196 0.01803599085284146 0  -0.1532100992389315 0.205901049686404 0  -0.1986587722237813 0.3126894584592193 0  -0.1486587722237813 0.399291998837663 0  -0.04865877222378117 0.399291998837663 0  0.5673313162859936 -0.2657744154278056 0  0.6047013812518141 -0.3477131051758577 0  0.6626299350341799 -0.2651760550663858 0  0.4724958492163328 -0.2639030937866537 0  0.5304244029986986 -0.1813660436771817 0  -0.3650325738127511 -0.2178767744381757 0  -0.4744092963517794 -0.2335267858124897 0  -0.4004207208098418 -0.3099318404304071 0  -0.3473799352144299 -0.1155214897561785 0  -0.2733913596724923 -0.1919265443740958 0  0.06266459880570127 0.2111336479810033 0  0.1211184846334515 0.1191992580037876 0  0.1622170422904234 0.2212215237893397 0  
[...]
<PointData  Vectors="f_544"> 
<DataArray  type="Float64"  Name="f_544"  NumberOfComponents="3" format="ascii">8.2350453376686958e-18 5.8525244196453354e-03 0.0000000000000000e+00  2.5928670930421686e-32 7.2361173810074383e-02 0.0000000000000000e+00  1.7013922951239366e-30 6.6045520938114749e-02 0.0000000000000000e+00  1.1019211808549621e-28 5.8504651421739294e-02 0.0000000000000000e+00  7.1106636097387248e-27 5.0003975751025262e-02 0.0000000000000000e+00  4.1669640379017935e-25 4.3672174597607853e-02 0.0000000000000000e+00  2.7353181797567291e-23 3.4236781209900632e-02 0.0000000000000000e+00  1.7752116600416907e-21 2.6112549935796165e-02 0.0000000000000000e+00  1.1971180534737377e-19 1.9166208523755071e-02 0.0000000000000000e+00  -2.5253756698248878e-32 7.6821789888090117e-02 0.0000000000000000e+00  6.2909479378746533e-16 1.3083822460888106e-03 0.0000000000000000e+00  3.2768057478524071e-14 -7.4619554543480593e-03 0.0000000000000000e+00  3.6630846139202602e-12 -1.7765439271999223e-02 0.0000000000000000e+00  5.6070315454355706e-11 -2.5887591539395374e-02 0.0000000000000000e+00  3.4973947508456467e-08 -3.6225638234633518e-02 0.0000000000000000e+00  -2.6056729314912618e-06 -4.6716245756462174e-02 0.0000000000000000e+00  7.5303790607730891e-04 -4.5034566815566980e-02 0.0000000000000000e+00  1.4113444184264252e-02 -1.2817315355788994e-01 0.0000000000000000e+00  -1.6639721905982444e-30 7.8561660001559772e-02 0.0000000000000000e+00  -1.0780256793149985e-28 7.7366600471839367e-02 0.0000000000000000e+00  -7.0443935315964120e-27 7.3249769243309504e-02 0.0000000000000000e+00  -4.6243978149290254e-25 6.6639496493745037e-02 0.0000000000000000e+00  -3.0482143650698736e-23 5.8096359943036267e-02 0.0000000000000000e+00  -1.9758078341633093e-21 4.8051997949710844e-02 0.0000000000000000e+00  -1.3489979880191925e-19 3.6583583316741074e-02 0.0000000000000000e+00  -8.5627852611010805e-18 2.6674890499505621e-02 0.0000000000000000e+00  -6.4233442888733893e-16 1.4868569721531767e-02 0.0000000000000000e+00  -3.4222268471212910e-14 3.2945403680778289e-03 0.0000000000000000e+00  -3.6895609493789473e-12 -8.9578620653395623e-03 0.0000000000000000e+00  -6.7518793250952185e-11 -1.8860439884207870e-02 0.0000000000000000e+00  -3.2945770564507585e-08 -3.1404997651013906e-02 0.0000000000000000e+00  2.2718147584803858e-06 -4.2579587286022798e-02 0.0000000000000000e+00  -6.9595445673373421e-04 -3.8643609402691015e-02 0.0000000000000000e+00  4.8826737538493723e-06 -5.9409415169536947e-02 0.0000000000000000e+00  -6.1131198896716976e-06 -6.1886534812594415e-02 0.0000000000000000e+00  1.3176389579220304e-09 -3.0889063349817541e-02 0.0000000000000000e+00  3.1149946890536600e-13 -1.1745681354511678e-02 0.0000000000000000e+00  6.9946196619496423e-17 6.5757871909057960e-03 0.0000000000000000e+00  1.4542436694522497e-20 2.2309358050495366e-02 0.0000000000000000e+00  3.3662827457207803e-24 3.7980170249745815e-02 0.0000000000000000e+00  8.8852052376610157e-28 5.4523725592842180e-02 0.0000000000000000e+00  2.1173451932724556e-31 6.9419030297318801e-02 0.0000000000000000e+00  -1.6547608914746637e-07 -3.8716193173131623e-02 0.0000000000000000e+00  -8.6921124854510848e-28 7.5659256662484964e-02 0.0000000000000000e+00  -3.7438367565526852e-24 6.2646380770448082e-02 0.0000000000000000e+00  -1.6146251403176307e-20 4.2815496967353615e-02 0.0000000000000000e+00  -7.1917344177062180e-17 2.0580642605804111e-02 0.0000000000000000e+00  -3.2013839257060566e-13 -2.3880275059841504e-03 0.0000000000000000e+00  -1.3199766879378571e-09 -2.5753903519340839e-02 0.0000000000000000e+00  -2.0658469701835003e-31 7.8021340457650787e-02 0.0000000000000000e+00  -1.6414428994969289e-02 -1.5013994536935704e-01 0.0000000000000000e+00  -2.5784534504474919e-11 -1.3862788265795614e-02 0.0000000000000000e+00  -5.0232452972030627e-15 9.0989171477083262e-03 0.0000000000000000e+00  -1.0938875629369843e-18 3.1564502994151519e-02 0.0000000000000000e+00  -2.4639243970794405e-22 5.3244336540910681e-02 0.0000000000000000e+00  -5.7082945006651635e-26 7.0317596817834005e-02 0.0000000000000000e+00  -1.3398982038462344e-29 7.8341342854739121e-02 0.0000000000000000e+00  1.1115305507479138e-34 7.4716218766895645e-02 0.0000000000000000e+00  1.3672294466905799e-29 6.2391918840114677e-02 0.0000000000000000e+00  5.6658438871169067e-26 4.7166279026513706e-02 0.0000000000000000e+00  2.2066257126871057e-22 3.0106628709391830e-02 0.0000000000000000e+00  9.4717497021254725e-19 9.8860434141267231e-03 0.0000000000000000e+00  4.8903368056614310e-15 -2.7779965745690690e-03 0.0000000000000000e+00  2.4969210152174933e-11 -2.2871662598288094e-02 0.0000000000000000e+00  1.6849044731822038e-07 -4.2834204283832514e-02 0.0000000000000000e+00  1.9420809649052812e-02 -1.5546752226117059e-03 0.0000000000000000e+00  5.3957624935258394e-02 -1.2638913046045158e-01 0.0000000000000000e+00  3.1591426636632801e-02 -1.6383325211559968e-02 0.0000000000000000e+00  -4.6345410856504975e-02 1.9810199007925033e-02 0.0000000000000000e+00  1.4772198329323472e-02 -7.4582822685661965e-02 0.0000000000000000e+00  2.5722913775291439e-02 -3.8521629967447506e-02 0.0000000000000000e+00  5.0984620947239385e-02 -3.4057069645792526e-02 0.0000000000000000e+00  4.3511989058384021e-02 -8.6985943332379845e-03 0.0000000000000000e+00  1.8640253818336592e-02 -1.0066148020673216e-01 0.0000000000000000e+00  -6.9244304588593269e-03 2.6475057027776493e-02 0.0000000000000000e+00  8.2499549508733325e-02 -1.2658531895291333e-01 0.0000000000000000e+00  1.0847706421840958e-02 -2.0547128882332396e-02 0.0000000000000000e+00  7.2103622791815258e-02 -4.9654657751025545e-02 0.0000000000000000e+00  -9.5734915015508702e-03 4.5174625674055035e-03 0.0000000000000000e+00  1.0821073625130460e-01 -2.1819209508202479e-02 0.0000000000000000e+00  2.9688953400765515e-02 -6.3118945699582787e-03 0.0000000000000000e+00  6.1184561424481788e-02 -1.8892842370569143e-04 0.0000000000000000e+00  6.3216084982243334e-02 2.4194322495090857e-04 0.0000000000000000e+00  4.0321243172700749e-02 3.4267764582549563e-07 0.0000000000000000e+00  3.1644927932273345e-02 1.1144208114460334e-08 0.0000000000000000e+00  2.6196128787916828e-02 9.6083348006535024e-11 0.0000000000000000e+00  2.1670668535872319e-02 2.0867269433919301e-12 0.0000000000000000e+00  2.0195380271420961e-02 2.6544718643784868e-14 0.0000000000000000e+00  2.0195710774589915e-02 -2.0197979490767487e-14 0.0000000000000000e+00  2.1651152747804166e-02 -1.5656808537443432e-12 0.0000000000000000e+00  2.6154699031769989e-02 -7.7175490562402974e-11 0.0000000000000000e+00  3.1565060315348947e-02 -8.2003813257809530e-09 0.0000000000000000e+00  4.0040760848119639e-02 -3.7920074853817236e-07 0.0000000000000000e+00  1.6939003119015958e-02 1.2205592311406504e-03 0.0000000000000000e+00  4.0673699096844360e-02 1.6829559553927957e-05 0.0000000000000000e+00  2.8383219364663325e-02 1.2140721084942261e-09 0.0000000000000000e+00  2.0956609016507911e-02 2.4571767175658959e-13 0.0000000000000000e+00  2.0966376249635852e-02 -1.9120013683412512e-13 0.0000000000000000e+00  2.8341063341165547e-02 -1.0087574477193100e-09 0.0000000000000000e+00  4.1147394210955195e-02 -1.5884360068264168e-05 0.0000000000000000e+00  3.4776935005685385e-02 3.8126598289468062e-08 0.0000000000000000e+00  2.3695595467054142e-02 1.4267417002151929e-11 0.0000000000000000e+00  1.9997614488448844e-02 8.1617311681360546e-16 0.0000000000000000e+00  2.3661528778785065e-02 -1.0312633861184866e-11 0.0000000000000000e+00  3.4799743653018092e-02 -2.0033753509216352e-08 0.0000000000000000e+00  1.6909603257525593e-02 1.5457133155684188e-01 0.0000000000000000e+00  -4.7474349113013882e-02 -2.0348289862641533e-02 0.0000000000000000e+00  2.7503610305317779e-02 1.1370065517967329e-02 0.0000000000000000e+00  6.1569141866989849e-02 1.4507240362255402e-01 0.0000000000000000e+00  4.2642783993572679e-02 8.5307015385855459e-03 0.0000000000000000e+00  5.0919401963657039e-02 3.4005241645355885e-02 0.0000000000000000e+00  2.4272295401875171e-02 3.6366707529850870e-02 0.0000000000000000e+00  1.4838519747654929e-02 7.4938771839303350e-02 0.0000000000000000e+00  2.7028809911907415e-02 5.8511765452204691e-03 0.0000000000000000e+00  1.1433483967533338e-01 2.3124893718312552e-02 0.0000000000000000e+00  -1.4245709570552333e-02 -7.5453176927883095e-03 0.0000000000000000e+00  7.3674898653004833e-02 5.0587609474404570e-02 0.0000000000000000e+00  8.1881062904995278e-03 1.7152299110874718e-02 0.0000000000000000e+00  8.7333820980184260e-02 1.3401792543095217e-01 0.0000000000000000e+00  -8.0955312938069349e-03 -3.2761024740935729e-02 0.0000000000000000e+00  1.9239756927030442e-02 1.0456666665152088e-01 0.0000000000000000e+00  2.5575519098920778e-32 -8.9958236588669152e-02 0.0000000000000000e+00  2.6728484234498885e-06 4.4379883586138848e-02 0.0000000000000000e+00  -3.6088724497992029e-08 3.2784530054773088e-02 0.0000000000000000e+00  -5.8178316902876638e-11 2.1103669953647240e-02 0.0000000000000000e+00  -3.7878688321886234e-12 9.9452104669119426e-03 0.0000000000000000e+00  -3.3939546912547143e-14 -2.4919746137784123e-03 0.0000000000000000e+00  -6.5109080881253206e-16 -1.4561664596399716e-02 0.0000000000000000e+00  -8.5791432654367215e-18 -2.6427936037660537e-02 0.0000000000000000e+00  -1.3407122390355741e-19 -3.8205208339690752e-02 0.0000000000000000e+00  -1.9652880086841236e-21 -5.0691218733131441e-02 0.0000000000000000e+00  -3.0328694410302357e-23 -6.2251477196251022e-02 0.0000000000000000e+00  -4.5908192010004216e-25 -7.2127922813041409e-02 0.0000000000000000e+00  -6.9326576220229024e-27 -8.2145724990515118e-02 0.0000000000000000e+00  -1.0675757370480972e-28 -8.8050459106585724e-02 0.0000000000000000e+00  -1.6476159300737887e-30 -9.1415223016485039e-02 0.0000000000000000e+00  -2.5012395200136199e-32 -9.0435411154052153e-02 0.0000000000000000e+00  -7.8149692060304531e-04 4.2596213549784726e-02 0.0000000000000000e+00  1.6748920956491271e-30 -8.3053933418654524e-02 0.0000000000000000e+00  1.0837089606192954e-28 -7.5312702109025770e-02 0.0000000000000000e+00  7.0315043024405736e-27 -6.7638098167935409e-02 0.0000000000000000e+00  4.9249443830183737e-25 -5.4075224443915042e-02 0.0000000000000000e+00  3.2559056289415910e-23 -4.5824101221821380e-02 0.0000000000000000e+00  2.1122048626716859e-21 -3.5742999694165924e-02 0.0000000000000000e+00  1.4328604748904845e-19 -2.5780098046919660e-02 0.0000000000000000e+00  9.4297478720114932e-18 -1.5150315978798097e-02 0.0000000000000000e+00  7.1169970314586090e-16 -6.2200203781824850e-03 0.0000000000000000e+00  3.7726932402482846e-14 3.6480711079565631e-03 0.0000000000000000e+00  4.0948138847431736e-12 1.3778326698995737e-02 0.0000000000000000e+00  7.1563315193905925e-11 2.3938916379446996e-02 0.0000000000000000e+00  3.7030983298677105e-08 3.4952012275211705e-02 0.0000000000000000e+00  -2.5918504904760316e-06 4.5218606263648618e-02 0.0000000000000000e+00  7.9224389445337919e-04 3.9769267710312611e-02 0.0000000000000000e+00  -1.6351274455524315e-02 1.4886475006026384e-01 0.0000000000000000e+00  -4.5931713726485556e-06 6.2455845687788357e-02 0.0000000000000000e+00  1.4918612650155835e-09 2.9711210209663812e-02 0.0000000000000000e+00  3.5601719562490571e-13 8.6711193259543309e-03 0.0000000000000000e+00  7.9640382714029615e-17 -1.1385198106146070e-02 0.0000000000000000e+00  1.7282643141604870e-20 -3.0809844065451019e-02 0.0000000000000000e+00  4.0028419883480418e-24 -5.1368311133193220e-02 0.0000000000000000e+00  8.7324312443355692e-28 -7.0665261629860920e-02 0.0000000000000000e+00  2.0829794074855930e-31 -8.5946928865956937e-02 0.0000000000000000e+00  -2.0478140273645060e-31 -9.2172326913986566e-02 0.0000000000000000e+00  -8.6102372229815084e-28 -8.5124157019157556e-02 0.0000000000000000e+00  -3.7249064156196568e-24 -6.7811837072693323e-02 0.0000000000000000e+00  -1.6085014871460564e-20 -4.4828341464828309e-02 0.0000000000000000e+00  -7.2479236587232858e-17 -2.0783612139746929e-02 0.0000000000000000e+00  -3.2368683179993525e-13 3.2597276719178924e-03 0.0000000000000000e+00  -1.3839810484981832e-09 2.6688607601891172e-02 0.0000000000000000e+00  5.4318007097224939e-06 6.0705568494084629e-02 0.0000000000000000e+00  1.7969384569477371e-07 4.1949452434448427e-02 0.0000000000000000e+00  2.8075001341003054e-11 1.8683796686621873e-02 0.0000000000000000e+00  5.5449157382279677e-15 -1.3459095183167092e-03 0.0000000000000000e+00  1.1483298180552096e-18 -1.9676943776983074e-02 0.0000000000000000e+00  2.6291302716734307e-22 -4.0869367829728241e-02 0.0000000000000000e+00  5.6513879677464970e-26 -6.0659980118349478e-02 0.0000000000000000e+00  1.3466702033492606e-29 -7.9290640757313152e-02 0.0000000000000000e+00  2.9478854786761940e-34 -9.0569761522452094e-02 0.0000000000000000e+00  -1.3254556536879525e-29 -9.0158246821945023e-02 0.0000000000000000e+00  -5.5676913326603791e-26 -7.7142616394819036e-02 0.0000000000000000e+00  -2.4498205422471119e-22 -5.6621531235404823e-02 0.0000000000000000e+00  -1.0793281307508656e-18 -3.1700612681578873e-02 0.0000000000000000e+00  -5.0538580189538332e-15 -8.5638634873818949e-03 0.0000000000000000e+00  -2.5619616988886192e-11 1.6425510848720019e-02 0.0000000000000000e+00  -1.7090036164752110e-07 4.0108303482590556e-02 0.0000000000000000e+00  -1.2760270725981562e-02 7.6312026660072581e-04 0.0000000000000000e+00  -6.1063302029307681e-02 1.4348700265136075e-01 0.0000000000000000e+00  -3.0502149622370398e-02 1.3792745003321161e-02 0.0000000000000000e+00  5.5672433186660195e-02 -2.3787845302458685e-02 0.0000000000000000e+00  -1.5138609605210036e-02 7.6464333260642670e-02 0.0000000000000000e+00  -2.4869057892325561e-02 3.7253047360911021e-02 0.0000000000000000e+00  -5.1894755675164911e-02 3.4663271109497983e-02 0.0000000000000000e+00  -4.2579153021665518e-02 8.5203618841454935e-03 0.0000000000000000e+00  -1.9723609618399539e-02 1.0706545867916759e-01 0.0000000000000000e+00  8.8895387613747139e-03 -3.6146170457367975e-02 0.0000000000000000e+00  -8.9039718976569385e-02 1.3673152582919559e-01 0.0000000000000000e+00  -7.5501017754513811e-03 1.6111162644017647e-02 0.0000000000000000e+00  -7.6256065317779412e-02 5.2546036857581878e-02 0.0000000000000000e+00  1.7705930398309068e-02 -9.7251095233265878e-03 0.0000000000000000e+00  -1.1811349467314826e-01 2.3898185372990540e-02 0.0000000000000000e+00  -2.5595616151706978e-02 5.6203475314120267e-03 0.0000000000000000e+00  -6.4830573030213501e-02 2.6112928195703256e-04 0.0000000000000000e+00  -6.2364790756029541e-02 -2.0021192720472486e-04 0.0000000000000000e+00  -4.1389989827362680e-02 -4.2600564857442718e-07 0.0000000000000000e+00  -3.3274818162595220e-02 -9.1442422934913361e-09 0.0000000000000000e+00  -2.8251230352231187e-02 -8.8178840917962704e-11 0.0000000000000000e+00  -2.3794134518850655e-02 -1.7852394285502380e-12 0.0000000000000000e+00  -2.2548112801486771e-02 -2.3240814243485452e-14 0.0000000000000000e+00  -2.2561904550261431e-02 2.6587362290563146e-14 0.0000000000000000e+00  -2.3920759493596153e-02 2.1308370813944020e-12 0.0000000000000000e+00  -2.8242859046335805e-02 9.4566342787471637e-11 0.0000000000000000e+00  -3.3364241167344329e-02 1.1748677528472541e-08 0.0000000000000000e+00  -4.1719834348567096e-02 2.7627702872493648e-07 0.0000000000000000e+00  -2.1894621652631296e-02 -1.7905124691447135e-03 0.0000000000000000e+00  -4.2406822372103407e-02 -1.6325592750488921e-05 0.0000000000000000e+00  -3.0198366814588831e-02 -1.0980805122114988e-09 0.0000000000000000e+00  -2.3285826768255514e-02 -2.1630434243616249e-13 0.0000000000000000e+00  -2.3284260343382112e-02 2.4872027714950978e-13 0.0000000000000000e+00  -3.0252653667979360e-02 1.2405932533112803e-09 0.0000000000000000e+00  -4.1358334758415390e-02 1.7246315931026983e-05 0.0000000000000000e+00  -3.6339945561943525e-02 -2.8513336194739975e-08 0.0000000000000000e+00  -2.5818905921979159e-02 -1.2158378824235471e-11 0.0000000000000000e+00  -2.2376184855340410e-02 4.6267032146372118e-16 0.0000000000000000e+00  -2.5847039206022392e-02 1.4312652863168074e-11 0.0000000000000000e+00  -3.6254182369526752e-02 3.7538085988595822e-08 0.0000000000000000e+00  4.1159032148865002e-02 1.7663571991912232e-02 0.0000000000000000e+00  -2.7342323377814944e-02 -1.1995478302148288e-02 0.0000000000000000e+00  -5.8879022944085584e-02 -1.3871301155887614e-01 0.0000000000000000e+00  -4.4081155547148435e-02 -8.8126626791552587e-03 0.0000000000000000e+00  -5.0852853026079295e-02 -3.3959795811329754e-02 0.0000000000000000e+00  -2.4833494034340948e-02 -3.7204662211580371e-02 0.0000000000000000e+00  -1.4822684256530477e-02 -7.4841078868046654e-02 0.0000000000000000e+00  -3.0353199172062372e-02 -6.4346547768184643e-03 0.0000000000000000e+00  -1.0941448705065637e-01 -2.2084932956759722e-02 0.0000000000000000e+00  9.2278771320093867e-03 4.3293427558609631e-03 0.0000000000000000e+00  -7.1648617003926093e-02 -4.9121831210262361e-02 0.0000000000000000e+00  -1.0043609420038692e-02 -1.9742393126883372e-02 0.0000000000000000e+00  -8.4664736561387136e-02 -1.2982870346763106e-01 0.0000000000000000e+00  7.0047371716918062e-03 2.7521351125006817e-02 0.0000000000000000e+00  -1.8952899085030735e-02 -1.0279050314931540e-01 0.0000000000000000e+00  8.8985572727558840e-23 -2.6482663857672000e-08 0.0000000000000000e+00  -8.4574201447306796e-23 3.5727627660872851e-08 0.0000000000000000e+00  6.4007274236715159e-30 4.2183231386768107e-08 0.0000000000000000e+00  3.3496754719344722e-16 -1.1718217192860329e-09 0.0000000000000000e+00  -3.4524019504793600e-16 -6.3374934299450483e-09 0.0000000000000000e+00  -6.1450244457810013e-30 -5.7436344641680598e-08 0.0000000000000000e+00  2.0309211840304191e-08 -1.5727298487923953e-11 0.0000000000000000e+00  -2.1635659492914832e-08 1.4501043980236122e-11 0.0000000000000000e+00  -2.2194617568560236e-08 -1.7497390297012188e-11 0.0000000000000000e+00  2.1049997936333691e-08 1.5939286949657003e-11 0.0000000000000000e+00  6.1682749261776728e-11 2.7090065773882924e-08 0.0000000000000000e+00  3.5618864944822747e-16 1.0926515691258348e-14 0.0000000000000000e+00  1.7859250112128103e-22 -2.6435815849093911e-14 0.0000000000000000e+00  3.6424344351563786e-20 -8.2174443929024794e-22 0.0000000000000000e+00  3.4018069945299991e-27 -1.1646128248651833e-20 0.0000000000000000e+00  3.0753699687720239e-14 -2.7247961277933480e-21 0.0000000000000000e+00  -1.6414260223686488e-28 -6.3723083177898168e-14 0.0000000000000000e+00  7.1365349513678716e-34 -2.9320772978752765e-20 0.0000000000000000e+00  2.0436760623915624e-35 -7.1635592984250439e-14 0.0000000000000000e+00  1.2647793961617849e-34 -3.4323116042202781e-20 0.0000000000000000e+00  1.7229640420829309e-28 -4.3515137738490488e-14 0.0000000000000000e+00  1.9974813085493008e-28 3.6116763230604557e-16 0.0000000000000000e+00  -4.3856302336726405e-27 -3.1997937745024594e-20 0.0000000000000000e+00  -6.0700635614284491e-11 -2.9330190399615305e-08 0.0000000000000000e+00  -3.8480486305687710e-16 -1.6445970971609109e-14 0.0000000000000000e+00  -3.4426901027616708e-14 -6.8735881272141208e-20 0.0000000000000000e+00  -3.7731116520202343e-16 1.3157875407207507e-14 0.0000000000000000e+00  5.4314339473724057e-11 -2.5362697640367664e-08 0.0000000000000000e+00  6.3304869370202970e-30 -5.2221023702908689e-08 0.0000000000000000e+00  -6.0629562705874350e-11 2.8159222050803013e-08 0.0000000000000000e+00  4.0565977050824796e-16 -1.3990830383329810e-09 0.0000000000000000e+00  -8.3383627106553557e-23 -3.7357679277005949e-08 0.0000000000000000e+00  1.5998841620415596e-22 2.6005786118291298e-14 0.0000000000000000e+00  -6.3558683083918457e-30 5.2654313440873383e-08 0.0000000000000000e+00  7.7619848540021166e-23 1.9926018807563884e-08 0.0000000000000000e+00  3.7343971849417666e-16 -9.2111164370976312e-15 0.0000000000000000e+00  -1.8488124215664954e-22 1.2061800780167390e-14 0.0000000000000000e+00  -3.9643980507252951e-20 -4.3437971427086936e-21 0.0000000000000000e+00  -3.8913610602898199e-16 6.5871672627417504e-09 0.0000000000000000e+00  -3.9879161363911828e-08 6.7218533582155092e-08 0.0000000000000000e+00  -2.38463