<?xml version="1.0"?>
<VTKFile type="UnstructuredGrid"  version="0.1"  >
<UnstructuredGrid>
<Piece  NumberOfPoints="4153" NumberOfCells="8064">
<Points>
<DataArray  type="Float64"  NumberOfComponents="3"  format="ascii">-0.4163753685660649 -0.6435472148805108 0  -0.03734872271406491 -0.8244257365261107 0  -0.09178551276103682 -0.8184577512554246 0  -0.1449719966511407 -0.8064312854394186 0  -0.1963175907839633 -0.7889760075495816 0  -0.2457694888283877 -0.7677628907515527 0  -0.2926150226432406 -0.7409902187178157 0  -0.3366133361003785 -0.7107622523200886 0  -0.3777372529028185 -0.6779769936435682 0  0.01754512484672252 -0.8239562010605961 0  -0.4524390349514578 -0.6091280153735916 0  -0.4866108051753735 -0.5747722875248639 0  -0.5189661337853496 -0.5407816123922452 0  -0.549803165183757 -0.5076581060743464 0  -0.5795220935470439 -0.4760068433132912 0  -0.6084442177149387 -0.4461846357575858 0  -0.6366833024443862 -0.4189680036815872 0  0.6336706181969168 -0.4140575219236979 0  0.07205090416464256 -0.8171136993285401 0  0.1253606954913618 -0.804178596714027 0  0.1767816463689847 -0.7857389308952232 0  0.2257740701097025 -0.7624919998603891 0  0.2720997991818703 -0.7356648065361315 0  0.3157007233449012 -0.7060655445387333 0  0.3566595941580527 -0.6745392244016163 0  0.3951040350424441 -0.6417707327969122 0  0.4314170463958897 -0.6086243273373884 0  0.4658673056739698 -0.5755574913705777 0  0.498755127606023 -0.5430010425710545 0  0.530305397468866 -0.5113231370136757 0  0.5608621487993497 -0.4808491148707431 0  0.5905861927204211 -0.4520425797695041 0  0.6197237952115039 -0.4257448942901773 0  0.604945530756306 -0.4387654357236783 0  -0.6223461436117311 -0.4323535528765215 0  -0.5647578903729885 -0.4917536693887342 0  -0.5029883547472385 -0.5577071466299769 0  -0.4346338580865051 -0.626315532185841 0  -0.3575586331110188 -0.6945308118400487 0  -0.2695129298479785 -0.7548465555012968 0  -0.1709083080515144 -0.7984726046122566 0  -0.06467717644552232 -0.8222325584611611 0  0.5757424428614444 -0.4664311036612667 0  0.1513433389759897 -0.7955901526005437 0  0.2492796246704645 -0.7494863110691241 0  0.3364876347048064 -0.690487407070389 0  0.4135155546609566 -0.6252288563919305 0  0.4824809531076222 -0.5592116962972108 0  0.5457174552829965 -0.4960502858284711 0  0.04489901477751434 -0.8213226994307227 0  -0.6502633888497535 -0.4068614472322118 0  0.5146832241758338 -0.527052366286612 0  0.4488537718017513 -0.5920647330338231 0  0.3761870257192215 -0.6582466818394191 0  0.2942382297622803 -0.7211668183384531 0  0.2016204983091683 -0.7746643410951524 0  0.09890218747971793 -0.8113756809930849 0  -0.009903681407080199 -0.8250025490818709 0  -0.1185797318330679 -0.8131941949027507 0  -0.2211501247140651 -0.7788322833972048 0  -0.3148955061387423 -0.7260694269344382 0  -0.3976844783223603 -0.6613536408224695 0  -0.4697713341144757 -0.591953041085735 0  -0.5345868267883719 -0.5241291696460928 0  -0.5939717170590739 -0.4610288987097476 0  0.7502921835169439 -0.2249882238483337 0  0.6788587552340135 -0.3798811244179275 0  0.7185454318275183 -0.3366257923758987 0  0.7436237767991604 -0.2843455883307832 0  0.6568339295755338 -0.3974435281903372 0  0.69987295286968 -0.3595937872844635 0  0.7290310376907301 -0.3088942059080841 0  0.7456839952746157 -0.2542811176620224 0  0.6450915740235685 -0.4059877368161414 0  0.6678312302274605 -0.3878334437087998 0  0.6895028189417625 -0.369889129996727 0  0.7089244113483932 -0.3472569566484769 0  0.7266127245355575 -0.3241762178538494 0  0.735339274731166 -0.2964177201517774 0  0.7434169757107867 -0.2690313841783143 0  0.747286945783416 -0.2394714218469675 0  0.7499687628076999 -0.2058020304848422 0  0.7530792184855486 0.2267639612594615 0  0.7542084224149719 0.1886220549702889 0  0.7565815022588334 0.1499691385736112 0  0.7592152813503547 0.1107373457139049 0  0.7618262835448576 0.07089126159221953 0  0.7628733195983584 0.03057327086413391 0  0.7624906918731401 -0.009858574946777046 0  0.7606757008952062 -0.05014737875210711 0  0.7574070423955223 -0.089921651063262 0  0.7542039825956861 -0.1290963672306093 0  0.7513530740196318 -0.1676872120175178 0  0.7539887716718158 0.245861483530678 0  0.7534385217137123 0.2077457220188761 0  0.7579085558180004 0.130426604244348 0  0.7625255452851916 0.05076401267312065 0  0.7617661227343498 -0.03003774675806052 0  0.7558165842837906 -0.1095879904008027 0  0.7504391470915497 -0.1867993925641664 0  0.7553348363862785 0.1693667225182355 0  0.7606223716163849 0.09091289764987028 0  0.7628556869232581 0.01035575683675877 0  0.7591037298871971 -0.07013295248194479 0  0.7527084461727935 -0.1484653650081955 0  0.6438062671828804 0.4371503039040329 0  0.7488262031057188 0.3053945138335245 0  0.7253249606571576 0.3585881875645222 0  0.6874279395148407 0.4026343138630479 0  0.7503359445292763 0.2752532139887761 0  0.7355991124094262 0.3307948989542722 0  0.707479681949273 0.3816986142912929 0  0.6659651847249882 0.4201017151439106 0  0.7516385639463664 0.2604582621128912 0  0.7487053594017077 0.2901003795608015 0  0.7414163421386664 0.3178741368877185 0  0.7324040807999527 0.345608575151425 0  0.7160501941031818 0.3692678428289445 0  0.6975614768895316 0.3922567571790495 0  0.6766409922393305 0.4106148801315078 0  0.6546978389310881 0.4287862546727306 0  -0.02958301617108493 0.8785070991654224 0  0.6028822062138655 0.4767368771121084 0  0.5746719938906713 0.5069670313413973 0  0.545681676565786 0.539182674647122 0  0.5155726058578394 0.5730187482775401 0  0.4839321455851072 0.6079363543040516 0  0.4504535582493461 0.6435200281461139 0  0.4148193641106657 0.6793260225064837 0  0.3766697393198441 0.7149200403431279 0  0.3355828881993777 0.7492180951317107 0  0.2914105170496414 0.7814743619087139 0  0.2440611388250843 0.8107265899113292 0  0.1936232247306876 0.8361625558248599 0  0.1403661825976629 0.8563210859865279 0  0.08488786985240308 0.8704305404901559 0  0.02796181370755793 0.8778189556948761 0  0.6305128133982951 0.4492645836132997 0  -0.08669246496964493 0.871490894965777 0  -0.1423398881070677 0.8576669625947606 0  -0.1956889363506404 0.8376967038384326 0  -0.2459940128506076 0.811808952470251 0  -0.2934530735262362 0.7834692243713988 0  -0.3377236999401387 0.7520322467712182 0  -0.3789894104421045 0.7185593153751 0  -0.4174508778873227 0.6837037815038982 0  -0.4534615372180645 0.6487521842229806 0  -0.4874829867931312 0.6140262167588681 0  -0.5197879314993241 0.5799027008270198 0  -0.550666374424185 0.5467496688734613 0  -0.5804026335158676 0.5149080758800337 0  -0.6092553756357363 0.484915562196238 0  -0.6374627316886298 0.4575895742117395 0  -0.6509797374131848 0.4454750711459617 0  -0.6231429906176024 0.4710655126531869 0  -0.5656744351648452 0.5307677921974102 0  -0.5038346749009274 0.596881021944015 0  -0.4357110316487857 0.6662123205209156 0  -0.3587118588623327 0.7354502269204289 0  -0.2701137297294472 0.7981018413429365 0  -0.169326931882927 0.8482204624386369 0  -0.05824909712087386 0.8758514734582102 0  0.05656216370081766 0.8750254219325653 0  0.1673159248194916 0.8469239217407756 0  0.2681346733839475 0.7965442899839255 0  0.3564883434741909 0.7322478064502539 0  0.4329253850188544 0.6614279075446096 0  0.4999615247638357 0.5903768730451885 0  0.5602847822905064 0.5229699967058167 0  0.616487150636404 0.462789340990548 0  -0.5948399320929458 0.4998569583823401 0  -0.5353971860610668 0.5632282828140377 0  -0.4707100890807361 0.6313457913349089 0  -0.3986256527324607 0.7013091050251921 0  -0.3159619538134343 0.7680280294536996 0  -0.2215347850823013 0.8258350267286554 0  -0.1147402443433621 0.8653268579724586 0  -0.0007456219608397833 0.879055906791121 0  0.1128619964563618 0.8641767907032148 0  0.2192533971130136 0.8240726744946141 0  0.3138898740864993 0.7656591391814254 0  0.3961208403476535 0.6972337989792164 0  0.4674415323228301 0.6256757435345524 0  0.5308219807702075 0.5559784835184127 0  0.5887822282123844 0.4917671860429504 0  -0.7639983841535576 0.2544581756182294 0  -0.6951123879057153 0.4107399342751692 0  -0.7337299563133283 0.3668329323034317 0  -0.7579614816758854 0.3139631980029844 0  -0.6734770673957985 0.4283922381484722 0  -0.715569358904619 0.3899839264780012 0  -0.7440792711751759 0.3390049473244687 0  -0.7597892171707556 0.2838319159690608 0  -0.6620227387213229 0.4370943042991843 0  -0.6842602205787929 0.4187804108787099 0  -0.7054628334491497 0.400475002581026 0  -0.7243332159003176 0.3775374963244951 0  -0.7412690803961335 0.3540587522519597 0  -0.7501272969678042 0.326271575070031 0  -0.7578242136317679 0.2986515071471736 0  -0.7612721124447658 0.2690174344410674 0  -0.7634051337863074 0.2352864078822306 0  -0.7631477161976672 -0.1978297206982986 0  -0.7644899007649438 -0.1596970067638676 0  -0.7671804426588642 -0.1210534715944727 0  -0.7701661344583585 -0.08181480832965879 0  -0.7731591359418614 -0.04196065138757085 0  -0.7746308630519568 -0.001605912539417144 0  -0.7746664140947016 0.0388820976483962 0  -0.7732685813100816 0.07924691462410181 0  -0.7703580986834391 0.1191280179771205 0  -0.7674226615547909 0.1584058396269198 0  -0.7647510982148881 0.1970985210522938 0  -0.7637920880907701 -0.2169731763059616 0  -0.7636025382818729 -0.1788205029084236 0  -0.7686870738333486 -0.1015118798642258 0  -0.7740746901770988 -0.02181708627676734 0  -0.7741467184568154 0.05909692468725591 0  -0.7689067945135923 0.1388429717370656 0  -0.7638636615252901 0.2162481418325378 0  -0.7657692163877461 -0.1404493185516311 0  -0.771745464747786 -0.06198777607024396 0  -0.774823063542269 0.01863750417305865 0  -0.7718988376115457 0.09928463930555426 0  -0.7660262781351518 0.1778251177447754 0  -0.7576957304584716 -0.2763846020190711 0  -0.7332557923086581 -0.3290623595540556 0  -0.6945101443400916 -0.3726480262580694 0  -0.7596257118107617 -0.2463137622572323 0  -0.7438355825052174 -0.3014228693883972 0  -0.7150298880512846 -0.3520927015414063 0  -0.6727420677178473 -0.3900480638860738 0  -0.7611086068598141 -0.2315198744914477 0  -
[...]
<PointData  Vectors="f_10958"> 
<DataArray  type="Float64"  Name="f_10958"  NumberOfComponents="3" format="ascii">1.5619952018388339e-03 1.7028187635147888e-03 0.0000000000000000e+00  8.3141477109479635e-04 1.6339782076351055e-02 0.0000000000000000e+00  3.1035471105225420e-03 1.8447185662344944e-02 0.0000000000000000e+00  5.9391103394060554e-03 2.1050081443978404e-02 0.0000000000000000e+00  8.6717805703079246e-03 2.2168111249831295e-02 0.0000000000000000e+00  2.0373119636247335e-02 4.0785093124878706e-02 0.0000000000000000e+00  2.8329256723820691e-02 4.4755686378557334e-02 0.0000000000000000e+00  2.6105786643337285e-02 3.5307023051446312e-02 0.0000000000000000e+00  1.9017302903367499e-02 2.2812872350985176e-02 0.0000000000000000e+00  -1.0722379222912453e-03 1.5972294612416088e-02 0.0000000000000000e+00  1.1773210013066387e-02 1.2033952991324537e-02 0.0000000000000000e+00  8.9749443949290082e-03 8.7065928387763045e-03 0.0000000000000000e+00  6.0905356509088401e-03 5.7256776434597570e-03 0.0000000000000000e+00  3.1878773294172096e-03 2.9768848356052742e-03 0.0000000000000000e+00  1.8687341201807429e-03 1.7979629303318215e-03 0.0000000000000000e+00  -1.3193521174767978e-03 -1.3375277266530574e-03 0.0000000000000000e+00  3.5676655990945073e-04 7.9447499495484389e-05 0.0000000000000000e+00  -1.5803432177409149e-02 2.1107838884413900e-02 0.0000000000000000e+00  -3.1655549950481325e-03 1.7165507988146960e-02 0.0000000000000000e+00  -5.9315724945026051e-03 1.9690343468402743e-02 0.0000000000000000e+00  -9.2846564679845700e-03 2.2299272049048295e-02 0.0000000000000000e+00  -1.2512087558844616e-02 2.3699964730621633e-02 0.0000000000000000e+00  -1.5090377535391105e-02 2.3962916078117479e-02 0.0000000000000000e+00  -1.6355344384856030e-02 2.2538631542906324e-02 0.0000000000000000e+00  -1.6405189405353231e-02 2.0216830156983112e-02 0.0000000000000000e+00  -1.3253554541351263e-02 1.4988920667992268e-02 0.0000000000000000e+00  -1.1225100992239362e-02 1.1961712549766414e-02 0.0000000000000000e+00  -8.5329924293679315e-03 8.7333845244955723e-03 0.0000000000000000e+00  -6.1456549124433591e-03 6.1515922829147290e-03 0.0000000000000000e+00  -5.3974315772550843e-03 5.4083707634607434e-03 0.0000000000000000e+00  -2.4213671292230110e-03 2.4942929333832413e-03 0.0000000000000000e+00  1.8975702986731540e-03 -1.9695397702787715e-03 0.0000000000000000e+00  2.8253702659879337e-03 -3.6409882994177145e-03 0.0000000000000000e+00  -6.6488874148134623e-03 7.4176528765678672e-03 0.0000000000000000e+00  7.9321800716850785e-03 8.3590311719701146e-03 0.0000000000000000e+00  3.3877537617160456e-03 3.1659752983706482e-03 0.0000000000000000e+00  7.4807005769478001e-03 7.1271377858515197e-03 0.0000000000000000e+00  1.3889399697247048e-02 1.4541600106647321e-02 0.0000000000000000e+00  2.9262632176444366e-02 3.6831732505520562e-02 0.0000000000000000e+00  2.1158452248430593e-02 3.7189243838403309e-02 0.0000000000000000e+00  8.0228172474619032e-03 2.3671916503804964e-02 0.0000000000000000e+00  1.9206497848575504e-03 1.7495712052462840e-02 0.0000000000000000e+00  -1.3633307187266258e-03 1.3550589155944615e-03 0.0000000000000000e+00  -7.5635619613183703e-03 2.1071685729088654e-02 0.0000000000000000e+00  -1.4076677489120655e-02 2.4306437968898229e-02 0.0000000000000000e+00  -1.5897375229911803e-02 2.0651377315693484e-02 0.0000000000000000e+00  -1.2957292048960569e-02 1.4202286733100465e-02 0.0000000000000000e+00  -7.4626584297349677e-03 7.5420019465087451e-03 0.0000000000000000e+00  -2.8969747885231783e-03 2.8874945782782521e-03 0.0000000000000000e+00  -2.0473917147676400e-03 1.6282147825335803e-02 0.0000000000000000e+00  1.0172412135317385e-02 1.2884886459916284e-02 0.0000000000000000e+00  -4.7745137650459565e-03 4.7532091217351727e-03 0.0000000000000000e+00  -1.0150885445488264e-02 1.0580957479500686e-02 0.0000000000000000e+00  -1.5285197430428632e-02 1.7945076830642382e-02 0.0000000000000000e+00  -1.5813216554931911e-02 2.3299338577408266e-02 0.0000000000000000e+00  -1.1744787241019456e-02 2.4755739216842463e-02 0.0000000000000000e+00  -4.4304695788405790e-03 1.8234930177041003e-02 0.0000000000000000e+00  -1.3452015756357352e-04 1.5840161877873560e-02 0.0000000000000000e+00  4.7528206993467164e-03 2.1024676335228112e-02 0.0000000000000000e+00  7.3809969360108451e-03 1.7100392663015451e-02 0.0000000000000000e+00  2.0648266473853649e-02 3.0079600800842522e-02 0.0000000000000000e+00  4.5572569609815650e-02 5.1340063014077363e-02 0.0000000000000000e+00  1.1044386259856126e-02 1.0991697043391981e-02 0.0000000000000000e+00  5.1661872860803123e-03 4.8140522333489817e-03 0.0000000000000000e+00  2.8357699077337295e-03 2.7357483180301678e-03 0.0000000000000000e+00  4.1228495426582724e-02 -3.0736135168126138e-03 0.0000000000000000e+00  6.0542786954797978e-02 -7.1357573483994755e-02 0.0000000000000000e+00  2.9065590028434968e-02 -2.8231369580376267e-02 0.0000000000000000e+00  -1.8964521983615090e-01 6.2800275401756048e-02 0.0000000000000000e+00  6.9393971693803768e-03 -8.0674615443251038e-03 0.0000000000000000e+00  2.8591915827595446e-02 -2.2762186320281264e-02 0.0000000000000000e+00  3.0517378546425378e-01 -9.9172139568775311e-02 0.0000000000000000e+00  1.7785879334105022e-02 -2.4150022343043379e-03 0.0000000000000000e+00  -2.8225843962803900e-03 2.4244083661933286e-03 0.0000000000000000e+00  -1.8475209268847048e-02 2.2780281853923161e-02 0.0000000000000000e+00  2.6072134679854517e-02 -3.0197521097510567e-02 0.0000000000000000e+00  2.4541569045296908e-02 -2.2706600033444015e-02 0.0000000000000000e+00  -1.6558338656963961e-01 6.9343679799340377e-02 0.0000000000000000e+00  -3.2202016033053166e-01 1.7131211694771642e-01 0.0000000000000000e+00  1.8471453352823733e-01 -1.4530297604752624e-02 0.0000000000000000e+00  1.4384246320272487e-02 -2.5363954077217100e-03 0.0000000000000000e+00  6.2817267725059620e-02 -8.9347564413808772e-04 0.0000000000000000e+00  3.6203436832931757e-02 -3.7024505920341155e-04 0.0000000000000000e+00  1.0558509068381398e-02 5.2124124470511477e-04 0.0000000000000000e+00  6.4224057724569751e-03 4.2384365036652190e-04 0.0000000000000000e+00  5.8488047868152397e-03 4.0093867911354490e-04 0.0000000000000000e+00  7.9631046351082684e-03 3.8078707160108557e-04 0.0000000000000000e+00  8.4189693770402290e-03 6.9670843540759760e-05 0.0000000000000000e+00  8.3800536371762858e-03 -2.2607371663435689e-04 0.0000000000000000e+00  7.5201895073968164e-03 -4.9837381665438179e-04 0.0000000000000000e+00  5.6234577979540094e-03 -4.6791704652650399e-04 0.0000000000000000e+00  6.4539944988836091e-03 -5.1446108705323422e-04 0.0000000000000000e+00  1.4159894053973157e-02 -8.2735446014512565e-04 0.0000000000000000e+00  2.5563069734530968e-02 1.3175508577800393e-03 0.0000000000000000e+00  1.2830252134925479e-02 3.4334072028823528e-04 0.0000000000000000e+00  5.5570385536544064e-03 3.7301639908750040e-04 0.0000000000000000e+00  8.4775077383966186e-03 2.1787317763742245e-04 0.0000000000000000e+00  8.5450161071769764e-03 -3.8505771723946867e-04 0.0000000000000000e+00  5.4433453099079748e-03 -4.4538541010728832e-04 0.0000000000000000e+00  1.3570396999468789e-02 -4.9842294807379134e-04 0.0000000000000000e+00  7.4175747772713364e-03 4.5228998900924167e-04 0.0000000000000000e+00  7.0266649170451206e-03 4.5804322681101647e-04 0.0000000000000000e+00  8.4203714460890661e-03 -8.0027636659037323e-05 0.0000000000000000e+00  5.8291870118560869e-03 -4.7894128556935222e-04 0.0000000000000000e+00  7.1908599202643413e-03 -5.2986069467801406e-04 0.0000000000000000e+00  -1.6047923777442942e-02 -1.9608835955999385e-02 0.0000000000000000e+00  -3.9384397374532552e-02 -1.2569138615098783e-02 0.0000000000000000e+00  4.6826766398136120e-02 3.2647952785856471e-02 0.0000000000000000e+00  6.0163931293992313e-02 6.6712127769806853e-02 0.0000000000000000e+00  2.7175621408361682e-02 2.6696168658929694e-03 0.0000000000000000e+00  1.1951972148298937e-01 3.9344999221088556e-02 0.0000000000000000e+00  2.8381872712744876e-02 2.1688746628317605e-02 0.0000000000000000e+00  1.2682492207379773e-02 1.5136262198925698e-02 0.0000000000000000e+00  2.4320866420455011e-02 3.1002050852816272e-03 0.0000000000000000e+00  9.9143078447052030e-02 5.7418350584635125e-03 0.0000000000000000e+00  -9.8044512171143766e-02 -4.5036107229072683e-02 0.0000000000000000e+00  -6.4240454035871544e-02 -2.6025584877300306e-02 0.0000000000000000e+00  1.4079255526507083e-02 1.2432477822644488e-02 0.0000000000000000e+00  2.7613288124324169e-02 2.8960795671184685e-02 0.0000000000000000e+00  -2.4541546240292991e-02 -2.9441360372861099e-02 0.0000000000000000e+00  -6.1346150405698205e-03 -6.9762121771308316e-03 0.0000000000000000e+00  6.4561382507521200e-04 -1.1208742959369017e-02 0.0000000000000000e+00  6.3207138070553600e-04 6.1160371382147486e-04 0.0000000000000000e+00  -2.3065208326724690e-03 -2.1312649556761306e-03 0.0000000000000000e+00  -3.4967446377614886e-03 -3.1279170535241296e-03 0.0000000000000000e+00  -5.7240481200923699e-03 -5.1320950158079571e-03 0.0000000000000000e+00  -8.2620902224381024e-03 -7.6126068079971935e-03 0.0000000000000000e+00  -1.1106177251778687e-02 -1.0725827791836290e-02 0.0000000000000000e+00  -1.2655535757982748e-02 -1.3021817474813319e-02 0.0000000000000000e+00  -1.7039013095958282e-02 -1.9294936115789921e-02 0.0000000000000000e+00  -1.6956764390056795e-02 -2.1637416859117981e-02 0.0000000000000000e+00  -1.5106661904334661e-02 -2.2390239515644426e-02 0.0000000000000000e+00  -1.1725272221864119e-02 -2.0847810074588417e-02 0.0000000000000000e+00  -8.5847991724545269e-03 -1.9482738536992065e-02 0.0000000000000000e+00  -5.1056280351614493e-03 -1.6094670379200086e-02 0.0000000000000000e+00  -2.4692037684082512e-03 -1.2805809130168383e-02 0.0000000000000000e+00  -8.1205219845203915e-04 -1.1567400076472896e-02 0.0000000000000000e+00  -4.0974455574267798e-04 -1.7656834912273121e-04 0.0000000000000000e+00  3.1580541156501695e-03 -1.6864531822568841e-02 0.0000000000000000e+00  7.2691444136577660e-03 -2.3166608280790715e-02 0.0000000000000000e+00  8.7454155416461631e-03 -2.0077119243760586e-02 0.0000000000000000e+00  5.8415657277837013e-03 -1.0468799124415413e-02 0.0000000000000000e+00  1.7961058112842519e-02 -2.7399713829550802e-02 0.0000000000000000e+00  1.8375611771427786e-02 -2.4137486998189690e-02 0.0000000000000000e+00  1.6935513662717405e-02 -1.9787187405669416e-02 0.0000000000000000e+00  1.1026924067904625e-02 -1.1670001199894347e-02 0.0000000000000000e+00  1.0381935775621284e-02 -1.0422740011640660e-02 0.0000000000000000e+00  7.5218717731938209e-03 -7.2282413481834264e-03 0.0000000000000000e+00  5.0531628548445484e-03 -4.7356171366248175e-03 0.0000000000000000e+00  3.5627338174787668e-03 -3.3252086693610549e-03 0.0000000000000000e+00  1.0124658404469559e-03 -9.8205262180809869e-04 0.0000000000000000e+00  -2.0369072196701854e-03 2.0078680849724344e-03 0.0000000000000000e+00  -8.5616719697884178e-04 1.2340108168127869e-03 0.0000000000000000e+00  1.3590916631542353e-02 -1.6972836443549261e-02 0.0000000000000000e+00  7.3132712810403252e-03 -7.6425220157788866e-03 0.0000000000000000e+00  2.1466567798327741e-03 -1.9926777333535988e-03 0.0000000000000000e+00  6.4661066841532836e-03 -6.1263638497756684e-03 0.0000000000000000e+00  1.1833350129955622e-02 -1.2192421135998567e-02 0.0000000000000000e+00  1.7075090676203403e-02 -2.1060493233380696e-02 0.0000000000000000e+00  1.1675725279083024e-02 -1.9436289444165158e-02 0.0000000000000000e+00  1.0032293621196097e-02 -2.6838339872856134e-02 0.0000000000000000e+00  1.6682593365869012e-03 -1.3579952156594664e-02 0.0000000000000000e+00  -1.4891363497899904e-03 -1.1405040507645351e-02 0.0000000000000000e+00  -6.8598740610211631e-03 -1.8104163370301497e-02 0.0000000000000000e+00  -1.3483338881478190e-02 -2.1808913807363998e-02 0.0000000000000000e+00  -1.6338037710866237e-02 -1.9573945878581429e-02 0.0000000000000000e+00  -1.2702594358566568e-02 -1.2645063618388123e-02 0.0000000000000000e+00  -6.9968989245468172e-03 -6.3445469186223583e-03 0.0000000000000000e+00  -3.2851158664585810e-03 -2.9405789559223306e-03 0.0000000000000000e+00  -7.5090551179079002e-03 -7.6439932360868870e-03 0.0000000000000000e+00  1.5889729457161780e-03 -1.4999022358097996e-03 0.0000000000000000e+00  4.0912010656599749e-03 -3.8120358547911516e-03 0.0000000000000000e+00  9.2084127273021239e-03 -9.0265837908729760e-03 0.0000000000000000e+00  1.8819661658097633e-02 -2.0812314752055340e-02 0.0000000000000000e+00  1.6291496424964316e-02 -2.2944103311110731e-02 0.0000000000000000e+00  3.1716431799974569e-02 -6.1971384435331893e-02 0.0000000000000000e+00  4.6282504903824920e-03 -1.8580341135787003e-02 0.0000000000000000e+00  -1.1593365869164805e-04 -9.5867010824385399e-03 0.0000000000000000e+00  -3.5851221312245191e-03 -1.4055345464228758e-02 0.0000000000000000e+00  -1.1624392016730342e-02 -2.3068784464282229e-02 0.0000000000000000e+00  -1.5848235683898208e-02 -2.1705420549248976e-02 0.0000000000000000e+00  -1.6714882134948945e-02 -1.7938862700266955e-02 0.0000000000000000e+00  -9.8386202223268802e-03 -9.2609660405031016e-03 0.0000000000000000e+00  -4.7894068045489574e-03 -4.2630217128450942e-03 0.0000000000000000e+00  -2.6010576361155274e-03 -2.4050938508635182e-03 0.0000000000000000e+00  -3.0355340176037613e-02 1.9250703762803613e-03 0.0000000000000000e+00  -6.0910203084829244e-02 6.8759433160175465e-02 0.0000000000000000e+00  -4.0615377359526791e-02 3.1846670007376489e-02 0.0000000000000000e+00  9.9418061695172394e-02 -3.1791526520584347e-02 0.0000000000000000e+00  -1.0847051837930208e-02 1.2814055464096166e-02 0.0000000000000000e+00  -2.8347218158490822e-02 2.1904600690265716e-02 0.0000000000000000e+00  -1.9336550527267546e-01 6.2984607906469703e-02 0.0000000000000000e+00  -2.2662401271340366e-02 2.6564288615587755e-03 0.0000000000000000e+00  9.4464495811298465e-03 -1.1227997050979682e-02 0.0000000000000000e+00  2.2302506806808588e-02 -2.6789876952188596e-02 0.0000000000000000e+00  -2.6651084062902345e-02 2.9062181435444322e-02 0.0000000000000000e+00  -1.8079378989548568e-02 1.6217999787063828e-02 0.0000000000000000e+00  1.1071682346077914e-01 -4.5175744710330562e-02 0.0000000000000000e+00  1.8957141308116160e-01 -9.3838179344196873e-02 0.0000000000000000e+00  -1.3533726577237887e-01 9.4952314503734918e-03 0.0000000000000000e+00  -1.8155798530779196e-02 2.7913421915447870e-03 0.0000000000000000e+00  -5.0519993615315270e-02 1.9713505573382698e-04 0.0000000000000000e+00  -5.4714534775478676e-02 -1.6093304799564168e-04 0.0000000000000000e+00  -1.2225925630188723e-02 -6.8377373224680306e-04 0.0000000000000000e+00  -6.2819171162661518e-03 -4.6972676255651550e-04 0.0000000000000000e+00  -5.6265137794608245e-03 -4.3488687327602332e-04 0.0000000000000000e+00  -7.6912823404812628e-03 -4.4702884544630159e-04 0.0000000000000000e+00  -8.3504198433833974e-03 -1.5483489207584745e-04 0.0000000000000000e+00  -8.3654748036029545e-03 1.4027972606732640e-04 0.0000000000000000e+00  -7.7667182713613316e-03 4.3598270756466275e-04 0.0000000000000000e+00  -5.8209205053064619e-03 4.3983601155133295e-04 0.0000000000000000e+00  -6.4903069039471996e-03 4.7868585334805424e-04 0.0000000000000000e+00  -1.1972212917851202e-02 6.6866898379874036e-04 0.0000000000000000e+00  -3.0196682202378269e-02 -1.7629332166243332e-03 0.0000000000000000e+00  -1.2595281741111936e-02 -4.2819261336504998e-04 0.0000000000000000e+00  -5.4349335992183766e-03 -4.1363837110486686e-04 0.0000000000000000e+00  -8.4783028722894300e-03 -3.0832100284412486e-04 0.0000000000000000e+00  -8.4904037118087323e-03 2.9285633907900178e-04 0.0000000000000000e+00  -5.6384806278947999e-03 4.2138356635775529e-04 0.0000000000000000e+00  -1.2789087169847887e-02 4.3496945145441200e-04 0.0000000000000000e+00  -7.1414784380903311e-03 -4.9503062939874963e-04 0.0000000000000000e+00  -6.3535034442953392e-03 -4.7576171840901050e-04 0.0000000000000000e+00  -8.3879124423436278e-03 -7.4017733246029556e-06 0.0000000000000000e+00  -6.5663651786852274e-03 4.7754379653988161e-04 0.0000000000000000e+00  -7.3486703861060263e-03 5.0505796543454302e-04 0.0000000000000000e+00  9.6438043628556791e-02 3.1366492539556395e-02 0.0000000000000000e+00  -4.0412938852783589e-02 -3.1697672601530939e-02 0.0000000000000000e+00  -6.2758405287142507e-02 -7.1747513915154326e-02 0.0000000000000000e+00  -2.2593403568373971e-02 -2.6610858214598291e-03 0.0000000000000000e+00  -1.9274957720386421e-01 -6.4422467529678215e-02 0.0000000000000000e+00  -2.8882181476797286e-02 -2.2533262068112347e-02 0.0000000000000000e+00  -1.1763984750969894e-02 -1.4221939130570883e-02 0.0000000000000000e+00  -1.7280035590450368e-02 -2.6833437121255473e-03 0.0000000000000000e+00  -1.3691838367370412e-01 -1.0164423992180642e-02 0.0000000000000000e+00  1.8894360553159759e-01 9.3597851200530005e-02 0.0000000000000000e+00  1.0765486273796977e-01 4.5099061213622123e-02 0.0000000000000000e+00  -1.8417895419857794e-02 -1.6620135205791104e-02 0.0000000000000000e+00  -2.6335250248284515e-02 -2.9240889752085102e-02 0.0000000000000000e+00  2.3217169423786058e-02 2.8357938447862902e-02 0.0000000000000000e+00  1.8458334946661294e-02 2.3383223315339426e-02 0.0000000000000000e+00  9.3531252659412400e-09 -1.3293676783048025e-08 0.0000000000000000e+00  -9.5921507684101420e-09 1.4239885493636184e-08 0.0000000000000000e+00  3.2925006815418780e-09 1.4333685993449413e-08 0.0000000000000000e+00  6.4774488443708066e-09 6.5074024652854507e-09 0.0000000000000000e+00  -6.1757505421226152e-09 -5.8679691078284283e-09 0.0000000000000000e+00  -2.5636587499602902e-09 -9.7827218008557891e-09 0.0000000000000000e+00  5.2372050516646092e-09 -3.2806772919753865e-10 0.0000000000000000e+00  -5.0278477987702048e-09 2.9430278903016617e-10 0.0000000000000000e+00  -5.1075573419234950e-09 -2.9768557588686021e-10 0.0000000000000000e+00  4.7866905859241354e-09 2.4793573492920900e-10 0.0000000000000000e+00  -1.4393618269228786e-09 -1.3609682909691382e-09 0.0000000000000000e+00  -4.1327338889026737e-15 -3.7899404250483605e-15 0.0000000000000000e+00  -1.1325939374872175e-14 -1.2447715118191003e-14 0.0000000000000000e+00  -1.1557314204539107e-20 2.5610066305171298e-22 0.0000000000000000e+00  -2.9282762718721908e-20 -7.2866099616138721e-22 0.0000000000000000e+00  8.2157499537579001e-15 -6.2997727318216905e-17 0.0000000000000000e+00  -8.6317024664714013e-15 -1.7106507259789614e-14 0.0000000000000000e+00  -1.0011762607599460e-20 9.5998589409738119e-22 0.0000000000000000e+00  -1.1779518400956716e-17 -1.1419628131265551e-14 0.0000000000000000e+00  2.1094064884003453e-20 7.9920688376191041e-21 0.0000000000000000e+00  1.0335449635364723e-14 -2.0838675141093145e-14 0.0000000000000000e+00  2.4052912501005925e-16 3.5336488146079867e-16 0.0000000000000000e+00  3.6708390893326030e-20 -5.9931498970556534e-21 0.0000000000000000e+00  1.2359262113164180e-09 1.2082338664204050e-09 0.0000000000000000e+00  4.4526604780537957e-15 4.2797075957194142e-15 0.0000000000000000e+00  -8.4802995613366398e-15 -4.0050067686868173e-19 0.0000000000000000e+00  3.5093468062265118e-15 -3.3778258756116814e-15 0.0000000000000000e+00  -9.2524054119057670e-10 9.7361487074041877e-10 0.0000000000000000e+00  3.1962996176848805e-09 -1.2164522939860368e-08 0.0000000000000000e+00  6.4146687029733707e-10 -6.3371815624451558e-10 0.0000000000000000e+00  5.7714000063481101e-09 -5.7064646513849518e-09 0.0000000000000000e+00  -9.0651864668793528e-09 -1.2499291722262928e-08 0.0000000000000000e+00  -1.1650445539351566e-14 1.3962845418651427e-14 0.0000000000000000e+00  -3.2808693615857359e-09 1.3326923788397308e-08 0.0000000000000000e+00  1.2317625492675931e-08 1.8111346540585668e-08 0.0000000000000000e+00  -4.2683090379234936e-15 4.3799967078789952e-15 0.0000000000000000e+00  1.9492313973770139e-14 2.2641581101009784e-14 0.0000000000000000e+00  1.2552623525554077e-20 1.2557088757638889e-21 0.0000000000000000e+00  -6.5895976684850322e-09 6.9214592378373004e-09 0.0000000000000000e+00  -1.4950383924034987e-08 1.9264137591611807e-08 0.0000000000000000e+00  -9