<?xml version="1.0"?>
<VTKFile type="UnstructuredGrid"  version="0.1"  >
<UnstructuredGrid>
<Piece  NumberOfPoints="4153" NumberOfCells="8064">
<Points>
<DataArray  type="Float64"  NumberOfComponents="3"  format="ascii">-0.3944714858287486 -0.6336837343728778 0  -0.01124329379618079 -0.7982242200270322 0  -0.06524450618719863 -0.7937332994818527 0  -0.1182359705579328 -0.7834532342586135 0  -0.1696830043259367 -0.7680122043026579 0  -0.2194854536127453 -0.7487979435668929 0  -0.2670517215135612 -0.7243450078701603 0  -0.3120019836794042 -0.6963781692175474 0  -0.3543856467583538 -0.6659265213916887 0  0.0430248482846413 -0.7965821880562201 0  -0.4321651908076791 -0.6013130614486287 0  -0.4681014041211216 -0.5689075023254462 0  -0.5023338952958315 -0.5367520062617323 0  -0.5351067917031311 -0.5053316363111885 0  -0.5667810116412443 -0.4752593740032455 0  -0.597648009518046 -0.4469115399683645 0  -0.6278569159090495 -0.4211118355186326 0  0.6583848492047197 -0.4071767894310271 0  0.09676045329782289 -0.7888757271907479 0  0.1491959077346866 -0.775415607194465 0  0.1996750038367657 -0.7568100793487523 0  0.2476900138808699 -0.7337633040758831 0  0.2930761493310651 -0.7075465851251527 0  0.3358311559712862 -0.6789504016401647 0  0.3761032323116569 -0.6487954208255 0  0.4140774669714125 -0.6177243234157307 0  0.450194572536005 -0.5865412566661493 0  0.4847491880067089 -0.5556405472701296 0  0.5180530711812342 -0.5253903321726553 0  0.5503386823456332 -0.4961137412815124 0  0.5819033476658416 -0.4680564149081818 0  0.6128998182077884 -0.4416405058743727 0  0.6435703448683527 -0.4176810747796569 0  0.6280304759848212 -0.429556129606577 0  -0.6125509298884033 -0.4338070787623847 0  -0.5510398763140435 -0.4902110352222195 0  -0.4854074182594298 -0.5527751265044452 0  -0.4135179938591292 -0.6174818393451945 0  -0.3335193123706199 -0.6812985605107287 0  -0.2435851622059357 -0.7371005272648284 0  -0.1441737212440121 -0.776435290476191 0  -0.03832755958687037 -0.7967358514876297 0  0.5974003199675072 -0.454815260358096 0  0.1747131323599625 -0.7666967789596368 0  0.2707184454533684 -0.7210136073777439 0  0.3562528932877672 -0.6640203247412045 0  0.4323546435591296 -0.602134106572128 0  0.5015325512501249 -0.5404331315966838 0  0.5662126072778014 -0.4820217473878148 0  0.07000861861113641 -0.793473787258191 0  -0.6423899111958826 -0.4097169051992294 0  0.5343026926113598 -0.5106231019783224 0  0.4676444026137188 -0.5710412676723332 0  0.3953603484529135 -0.6333074613669296 0  0.3147759579649917 -0.6935029952937271 0  0.2240238808363503 -0.7457789895402956 0  0.1231852208768289 -0.7828318524176011 0  0.01590829289945245 -0.7981755936436088 0  -0.09190692922360366 -0.7893067820222541 0  -0.1946729877375306 -0.7588275017367552 0  -0.289798354700874 -0.710592091399742 0  -0.3749989148638272 -0.6503777380489433 0  -0.4503621511927751 -0.5851237180553429 0  -0.5189084260387913 -0.5209559190022405 0  -0.5822212811707587 -0.4610180096086773 0  0.779966899809006 -0.2199412418515071 0  0.7062364931584723 -0.3756333265072548 0  0.7476526378488364 -0.3329832451531398 0  0.7736542510406198 -0.2801045465032297 0  0.6828407469041463 -0.3919702091402519 0  0.7280819107551827 -0.3556599200318408 0  0.7587704937874573 -0.3050631472720656 0  0.7756468319538823 -0.2496116057419532 0  0.6705720237636632 -0.4000179506929509 0  0.6945036407393806 -0.3830379861338233 0  0.7173004569559459 -0.3658328631346201 0  0.7375559702747035 -0.3435001544241589 0  0.7557130269239314 -0.320312713656776 0  0.7652969034974257 -0.29238133238435 0  0.7735701016248888 -0.2645879891980635 0  0.7771478642585745 -0.2346260991812261 0  0.779270067394235 -0.2005552904439706 0  0.7811250373378408 0.2326457539533606 0  0.7816047293025136 0.1942658357064256 0  0.7834956273245296 0.1555138529513319 0  0.7858403826889895 0.116282956694079 0  0.7883749898096956 0.07649650374286865 0  0.7894704847035243 0.03625315773052449 0  0.7892407092294903 -0.004104980931164247 0  0.7876840030750369 -0.04434330864211973 0  0.7847672039711904 -0.08411136998203374 0  0.7820891372552119 -0.1233524632236856 0  0.779912083449128 -0.1621249085971185 0  0.7822170450066899 0.2519425417434593 0  0.7811375205401681 0.2134903962525227 0  0.7846539669760422 0.1359622887703818 0  0.7890872438805745 0.0564051665959323 0  0.7886318878078304 -0.02425469561212251 0  0.7834164743115236 -0.1037975101179301 0  0.7793571274191062 -0.1813747205799566 0  0.7824678211191072 0.1749463682358687 0  0.7871832335745891 0.09648487569073486 0  0.7895159878965887 0.01607393919635635 0  0.7862750074801543 -0.06431989042666934 0  0.7809143398039559 -0.14279526271986 0  0.6651615157896672 0.4405097465565755 0  0.7768826699065585 0.3121267931683975 0  0.7519332368373819 0.3655145833650807 0  0.7117817972823756 0.4086826086438945 0  0.7785521561428584 0.2816412180712231 0  0.7629475334389453 0.3376350131111424 0  0.7329707605744858 0.388297718627433 0  0.688836383253965 0.4249910616163495 0  0.7798549993578124 0.2666832235990471 0  0.7768678803844002 0.2966532153102087 0  0.7691330384517193 0.324673271492834 0  0.7594052149549897 0.3525516084130031 0  0.7421181438184943 0.3760888790704405 0  0.7224936745142982 0.3986249102369443 0  0.7002582354036554 0.4161418205237781 0  0.6768777810815266 0.4330238873729662 0  -0.01040901532390088 0.8617885544095201 0  0.6215004691130086 0.4766844189122689 0  0.591777990684781 0.5045327340399195 0  0.5615345121437872 0.5343286812521648 0  0.5304920549183604 0.5657751969765085 0  0.4982393913970344 0.5983722599004325 0  0.464468075774357 0.6317619285291719 0  0.4288458742842859 0.6655722301096212 0  0.3909734507374819 0.6994049056103799 0  0.3503720127600338 0.7322543957425349 0  0.3068334685078473 0.7634291321492603 0  0.2602068478576908 0.7920072086662246 0  0.2105119149587859 0.817175034086053 0  0.1579510236056179 0.8374291028001326 0  0.1030975358849595 0.851968495003057 0  0.0467077253782717 0.8600872379076427 0  0.6508923900863052 0.4515349983171 0  -0.06719922075318344 0.855954582028277 0  -0.1226554267466406 0.843511626955465 0  -0.1760089369497839 0.825164105647312 0  -0.2265366871367193 0.8010454113648849 0  -0.2743929568067843 0.7744392859289903 0  -0.3193687062223338 0.7448805843489018 0  -0.3615856217779988 0.7132852793506901 0  -0.4011896691055249 0.6802346994980332 0  -0.4384977527687006 0.6470039472557401 0  -0.4739292578036794 0.6139112634799724 0  -0.5077313863759113 0.5813300979702294 0  -0.540166304661675 0.5496350116554879 0  -0.5714909438273444 0.5191695108018868 0  -0.6019616686826885 0.4904816844784893 0  -0.6318493886483386 0.4644347303919497 0  -0.6462274981586 0.453016530211776 0  -0.6167246011166305 0.4772960086055981 0  -0.5559614019644518 0.5343214449055516 0  -0.4910193465837854 0.5975453859394982 0  -0.4200825323745199 0.6636149483265372 0  -0.3408041033788398 0.7292452324968084 0  -0.2508197327514733 0.7881800669259861 0  -0.1496182218828797 0.8348681335880987 0  -0.03890227839350817 0.8597029437007123 0  0.07505205584589163 0.8568981391964043 0  0.1845602750870188 0.827937406984774 0  0.283910905672245 0.7781078453800577 0  0.3710162759849308 0.7159720391175061 0  0.4469107872912068 0.6486424345841947 0  0.5145334607935057 0.5819604332609002 0  0.5767217325165689 0.5193075830462052 0  0.635982115836026 0.4638866468334792 0  -0.5867564263745287 0.5047566787088186 0  -0.5241075619180726 0.5653820101955046 0  -0.4564367404641957 0.6304230882906785 0  -0.3817634112093601 0.696938210622207 0  -0.297226155124099 0.7599430199798881 0  -0.2018622341221788 0.8140340621901363 0  -0.09513700637942279 0.8504761630108155 0  0.01822372507091305 0.8617944331870999 0  0.1307693030383291 0.845460514793453 0  0.2357683401897589 0.8051663485543308 0  0.3289818612785459 0.7481080175061238 0  0.4102461188064435 0.6825573612199668 0  0.4815630102063802 0.6149951418671444 0  0.5461559668427038 0.5499124640334421 0  0.6066171618697942 0.4905042431992317 0  -0.7650853480461333 0.2607507045840481 0  -0.6929914336213485 0.4195689019298111 0  -0.7333914039781874 0.3755217252463785 0  -0.7587770513184422 0.3215473746443001 0  -0.6700560636778187 0.436580475092631 0  -0.7142875261026286 0.3986600801917387 0  -0.744492101257981 0.3472632944537073 0  -0.7608370201932668 0.2907776041488093 0  -0.6580505509905731 0.4451280067078775 0  -0.6814817804149209 0.4273443169541414 0  -0.7037756079796931 0.409251709956701 0  -0.7235072127337808 0.3862605093397714 0  -0.7409570012725922 0.362365298764599 0  -0.7508229179290635 0.3341955409951503 0  -0.7588907055813453 0.3059340342359697 0  -0.7623990406402136 0.2756531002815262 0  -0.7644068393796364 0.2411794520239343 0  -0.7630433751595821 -0.2000795656733475 0  -0.7643413619512421 -0.1611776129316403 0  -0.7670060092554539 -0.1217971679171049 0  -0.7700081363481289 -0.08184426647075263 0  -0.7730279244414939 -0.04129455492212511 0  -0.7745925515435331 -0.0002524224139604579 0  -0.7747552661858859 0.04093051004357168 0  -0.773519631206696 0.08200436182215171 0  -0.7708119818695421 0.1226268553098405 0  -0.7680598580419186 0.1626727874213584 0  -0.7655867946232612 0.2021647392095541 0  -0.7636163760055565 -0.2196210354442107 0  -0.7634748688692291 -0.1806823815025085 0  -0.7685149257182673 -0.1018961332269434 0  -0.7739864130241193 -0.0208076401356265 0  -0.7743115891517743 0.06149767211349794 0  -0.7694468167218146 0.1427210120133979 0  -0.7647838955816852 0.2217229790331186 0  -0.7656012042694991 -0.1415582071400749 0  -0.7715960421255053 -0.06166553582748661 0  -0.774844565292798 0.02033714473626145 0  -0.7722568094313148 0.1024069903913495 0  -0.766759780607862 0.1824871573267954 0  -0.7567160400907367 -0.2801803107194585 0  -0.7305758460751827 -0.3336035904049381 0  -0.6895829327418581 -0.377000962882352 0  -0.7591178961017303 -0.2495489540123538 0  -0.7420894785916232 -0.3056612779837526 0  -0.7112127219308521 -0.3565468389031206 0  -0.666388295772152 -0.3937156888947662 0  -0.7607862805171111 -0.2344650489663045 0  -0.7569971943667673 -0.26
[...]
<PointData  Vectors="f_4495"> 
<DataArray  type="Float64"  Name="f_4495"  NumberOfComponents="3" format="ascii">1.1405467123556268e-03 1.3860677364508185e-03 0.0000000000000000e+00  5.6027705237179546e-04 2.0841061799838898e-02 0.0000000000000000e+00  3.3175554761538631e-03 2.3853278104490824e-02 0.0000000000000000e+00  6.5651212303988503e-03 2.6605938226655163e-02 0.0000000000000000e+00  9.7017667725982672e-03 2.7823795358333844e-02 0.0000000000000000e+00  1.8889914045920712e-02 4.2173507997784437e-02 0.0000000000000000e+00  2.9695220588832987e-02 5.1893339133829833e-02 0.0000000000000000e+00  2.7305967935174900e-02 4.0798408733626119e-02 0.0000000000000000e+00  1.8802669675131518e-02 2.5000752185938922e-02 0.0000000000000000e+00  -1.7080604498811909e-03 1.9676378096158451e-02 0.0000000000000000e+00  1.0339940211496038e-02 1.1770168646675143e-02 0.0000000000000000e+00  7.2509751413547697e-03 7.8559561508120702e-03 0.0000000000000000e+00  4.6105417174456291e-03 4.8488822516840257e-03 0.0000000000000000e+00  2.6711191933271746e-03 2.7992674999606595e-03 0.0000000000000000e+00  2.0064972099770439e-03 2.1740428329548888e-03 0.0000000000000000e+00  -1.2604832932407838e-03 -1.4046839747349348e-03 0.0000000000000000e+00  5.1368166859897237e-05 -2.7852862189374982e-04 0.0000000000000000e+00  -3.0903677429263133e-02 4.8108800598994285e-02 0.0000000000000000e+00  -3.9710957144950309e-03 1.9833306401800518e-02 0.0000000000000000e+00  -6.7946610549390468e-03 2.1688966293801095e-02 0.0000000000000000e+00  -1.0268792797152338e-02 2.4203484938970683e-02 0.0000000000000000e+00  -1.3589509960887385e-02 2.5634671026539987e-02 0.0000000000000000e+00  -1.6315864938813568e-02 2.6133624536245594e-02 0.0000000000000000e+00  -1.7640669455503161e-02 2.4829039639576982e-02 0.0000000000000000e+00  -1.7925382239580498e-02 2.2842101614050710e-02 0.0000000000000000e+00  -1.5100224107419853e-02 1.7923918953284726e-02 0.0000000000000000e+00  -1.3171913212149824e-02 1.4950417210848988e-02 0.0000000000000000e+00  -1.0769394479848577e-02 1.1923298644562322e-02 0.0000000000000000e+00  -8.4808828748029925e-03 9.3241644387393515e-03 0.0000000000000000e+00  -8.3100343807428634e-03 9.2867220842931704e-03 0.0000000000000000e+00  -6.3950356804303382e-03 7.3992168301840761e-03 0.0000000000000000e+00  -2.7211058497548244e-03 3.4174242054176305e-03 0.0000000000000000e+00  1.5754168203337706e-03 -2.4428023356293377e-03 0.0000000000000000e+00  -6.8174501303114692e-03 8.7106563382926272e-03 0.0000000000000000e+00  8.1796915684315286e-03 9.6936027544168510e-03 0.0000000000000000e+00  2.0222774889678964e-03 2.1108271347066937e-03 0.0000000000000000e+00  5.8607210242460472e-03 6.2448089258163109e-03 0.0000000000000000e+00  1.2643509431446983e-02 1.4711687295091079e-02 0.0000000000000000e+00  2.5814240303090326e-02 3.6034225621015596e-02 0.0000000000000000e+00  2.3710962855060150e-02 4.6262976901287785e-02 0.0000000000000000e+00  8.5950670009259395e-03 2.8710600760143243e-02 0.0000000000000000e+00  1.8933326161343930e-03 2.2703082566674384e-02 0.0000000000000000e+00  -2.9094211101982630e-03 3.3223353162141283e-03 0.0000000000000000e+00  -8.4283455476435939e-03 2.2845648999363460e-02 0.0000000000000000e+00  -1.5278365245985574e-02 2.6447934473300010e-02 0.0000000000000000e+00  -1.7412130299481049e-02 2.3250863727722268e-02 0.0000000000000000e+00  -1.4728981256956149e-02 1.7064935796509619e-02 0.0000000000000000e+00  -9.7656523051664838e-03 1.0752864148579485e-02 0.0000000000000000e+00  -4.7760383226050033e-03 5.3385338930168266e-03 0.0000000000000000e+00  -2.7888115196274240e-03 1.9443868169775259e-02 0.0000000000000000e+00  2.1381005214414717e-02 3.0279001704672123e-02 0.0000000000000000e+00  -7.2421270849018313e-03 7.9798009784594753e-03 0.0000000000000000e+00  -1.2157924207673710e-02 1.3599035448393896e-02 0.0000000000000000e+00  -1.6664838785089224e-02 2.0375455295628651e-02 0.0000000000000000e+00  -1.7155000228346800e-02 2.5655038457825491e-02 0.0000000000000000e+00  -1.2620969944402103e-02 2.6295136500723775e-02 0.0000000000000000e+00  -5.2733703165426891e-03 2.0526119439340264e-02 0.0000000000000000e+00  -5.9764243001498966e-04 1.9869871083408069e-02 0.0000000000000000e+00  5.2225809415282400e-03 2.6926120468685172e-02 0.0000000000000000e+00  7.9408666861924132e-03 2.0482879562452407e-02 0.0000000000000000e+00  2.2297974590167052e-02 3.5862702474257629e-02 0.0000000000000000e+00  4.5228091506382344e-02 5.6470723323302656e-02 0.0000000000000000e+00  9.2402081090557069e-03 1.0253353889635865e-02 0.0000000000000000e+00  3.4047774999425243e-03 3.5538206717159924e-03 0.0000000000000000e+00  1.2493994121293122e-03 1.3304397320460847e-03 0.0000000000000000e+00  3.7642339099191638e-02 -2.2204046749626661e-03 0.0000000000000000e+00  6.5595643272746043e-02 -8.4107754883820246e-02 0.0000000000000000e+00  4.1140124763342299e-02 -3.5910575772662393e-02 0.0000000000000000e+00  -1.5187951723218082e-01 5.0598254645415813e-02 0.0000000000000000e+00  1.0411418624245697e-02 -1.4586753833949220e-02 0.0000000000000000e+00  2.6657320456812621e-02 -2.2515193179080493e-02 0.0000000000000000e+00  2.4774324149292187e-01 -8.6603228050507158e-02 0.0000000000000000e+00  2.2293406346008758e-02 -2.6953120574789370e-03 0.0000000000000000e+00  2.2272773854505355e-02 -3.6759035965392921e-02 0.0000000000000000e+00  -3.0779007500566863e-02 4.3038726519840760e-02 0.0000000000000000e+00  2.9965072875739046e-02 -3.6384176739395466e-02 0.0000000000000000e+00  1.4711085900125721e-02 -1.5595639126894944e-02 0.0000000000000000e+00  -1.5963140250606939e-01 6.9280687192405530e-02 0.0000000000000000e+00  -2.5612320441531783e-01 1.3670304969740271e-01 0.0000000000000000e+00  1.7096850064492627e-01 -1.2774353694923298e-02 0.0000000000000000e+00  1.7113014161754949e-02 -2.7701506005506898e-03 0.0000000000000000e+00  6.0993821048502643e-02 3.9993469247447008e-04 0.0000000000000000e+00  4.3751216603479394e-02 -1.0040897848329921e-03 0.0000000000000000e+00  1.2364414571292382e-02 4.2455748717378313e-04 0.0000000000000000e+00  6.4452063200552663e-03 3.6058841573677282e-04 0.0000000000000000e+00  5.1121207773814790e-03 3.2652841064989021e-04 0.0000000000000000e+00  7.2269556542300791e-03 3.4569740803866840e-04 0.0000000000000000e+00  7.6636719698380523e-03 8.2143123464231503e-05 0.0000000000000000e+00  7.6527317042380735e-03 -1.6787760170426086e-04 0.0000000000000000e+00  6.9542586787884235e-03 -4.0858780948159880e-04 0.0000000000000000e+00  5.1295062958633432e-03 -3.7006555857219689e-04 0.0000000000000000e+00  6.8218392993069279e-03 -4.3583864394953017e-04 0.0000000000000000e+00  1.5427774477172017e-02 -6.1378132085670404e-04 0.0000000000000000e+00  2.7742189450495967e-02 1.2140868101902633e-03 0.0000000000000000e+00  1.5197412174228394e-02 1.6242233765619468e-04 0.0000000000000000e+00  5.1658546390603117e-03 3.0892990091468644e-04 0.0000000000000000e+00  7.7670324193339670e-03 2.0960983971129120e-04 0.0000000000000000e+00  7.8520940075468143e-03 -3.0356617422372568e-04 0.0000000000000000e+00  5.3407655307101580e-03 -3.6533078093366829e-04 0.0000000000000000e+00  1.6213904121262026e-02 -2.7080304090215359e-04 0.0000000000000000e+00  7.9969174839795796e-03 3.8681487487186628e-04 0.0000000000000000e+00  6.1361424618455720e-03 3.8889063259779232e-04 0.0000000000000000e+00  7.6702087455818198e-03 -4.3885255299803349e-05 0.0000000000000000e+00  5.3349779563845144e-03 -3.9120657944102262e-04 0.0000000000000000e+00  8.2671989986350496e-03 -4.6164888233848477e-04 0.0000000000000000e+00  -2.6430939775182533e-02 -3.8022982653252123e-02 0.0000000000000000e+00  -5.6199224982259606e-02 -1.8118849826831276e-02 0.0000000000000000e+00  4.8543775799715375e-02 3.5912284709830621e-02 0.0000000000000000e+00  6.4466804663811161e-02 7.9175246154461906e-02 0.0000000000000000e+00  2.8621972140264563e-02 2.8400032326037720e-03 0.0000000000000000e+00  1.3553354353732550e-01 4.7733780599791699e-02 0.0000000000000000e+00  2.8288539532445662e-02 2.3373753808659602e-02 0.0000000000000000e+00  1.4008938770216710e-02 1.9266419370060205e-02 0.0000000000000000e+00  2.4702130139821352e-02 3.1766446345619917e-03 0.0000000000000000e+00  1.1249451664613590e-01 7.0235510675360135e-03 0.0000000000000000e+00  -1.1680910591466423e-01 -5.6555010444511479e-02 0.0000000000000000e+00  -8.4661524776841246e-02 -3.6269550641229713e-02 0.0000000000000000e+00  1.1908536088148441e-02 1.1925455458083751e-02 0.0000000000000000e+00  3.0532524020522596e-02 3.4750639291745947e-02 0.0000000000000000e+00  -2.8606433422119722e-02 -3.8953402089098102e-02 0.0000000000000000e+00  7.5687029494599968e-03 1.2637608152190852e-02 0.0000000000000000e+00  5.4241490452673136e-04 -1.3896225468876826e-02 0.0000000000000000e+00  -3.2886650531666227e-03 -3.6487453662990641e-03 0.0000000000000000e+00  -6.1659780734263899e-03 -6.4420513079342665e-03 0.0000000000000000e+00  -6.8631704908157492e-03 -6.8728548292742572e-03 0.0000000000000000e+00  -8.1123070201292915e-03 -8.0049796310186373e-03 0.0000000000000000e+00  -1.0160645464122046e-02 -1.0141588559482134e-02 0.0000000000000000e+00  -1.2726167711180906e-02 -1.3108812817954011e-02 0.0000000000000000e+00  -1.4357456733625788e-02 -1.5532580112740569e-02 0.0000000000000000e+00  -1.8601048539591995e-02 -2.1850516451063645e-02 0.0000000000000000e+00  -1.8210567032346595e-02 -2.3835640473465893e-02 0.0000000000000000e+00  -1.6383879123988320e-02 -2.4622991812898374e-02 0.0000000000000000e+00  -1.2950269885316633e-02 -2.3064117284641351e-02 0.0000000000000000e+00  -9.5030338431590314e-03 -2.1343335565076883e-02 0.0000000000000000e+00  -5.7343299917850506e-03 -1.7585241488069926e-02 0.0000000000000000e+00  -2.9487689274207765e-03 -1.4359137442979559e-02 0.0000000000000000e+00  -1.1886271773547410e-03 -1.3788275434554931e-02 0.0000000000000000e+00  -3.4280625176357498e-03 -3.9616291294341417e-03 0.0000000000000000e+00  3.4665876953803233e-03 -2.1008965499374629e-02 0.0000000000000000e+00  8.2949848591351502e-03 -2.8945259662915244e-02 0.0000000000000000e+00  1.0118535871747740e-02 -2.5066936854131174e-02 0.0000000000000000e+00  8.1407194986039665e-03 -1.5648735051598108e-02 0.0000000000000000e+00  1.7474828619847890e-02 -2.8735058993768433e-02 0.0000000000000000e+00  1.7788356285065952e-02 -2.5279515533980345e-02 0.0000000000000000e+00  1.6183656238017770e-02 -2.0508261693965271e-02 0.0000000000000000e+00  1.0346517136630356e-02 -1.1912665101225595e-02 0.0000000000000000e+00  9.4031366312530996e-03 -1.0300866079685058e-02 0.0000000000000000e+00  6.6046685536735039e-03 -6.9463158994530613e-03 0.0000000000000000e+00  4.2542836247914436e-03 -4.3740170879161292e-03 0.0000000000000000e+00  3.0754519525635791e-03 -3.1572446390957234e-03 0.0000000000000000e+00  1.8147561065505798e-03 -1.9267880147316931e-03 0.0000000000000000e+00  -6.6023802268633551e-04 6.7004202305076066e-04 0.0000000000000000e+00  -1.0784218302855892e-03 1.5548862962051191e-03 0.0000000000000000e+00  2.7641288632017362e-02 -3.8269823705858894e-02 0.0000000000000000e+00  5.9755487593270941e-03 -6.8919952163385319e-03 0.0000000000000000e+00  1.1880646662136003e-03 -1.2050955927157031e-03 0.0000000000000000e+00  5.4756787338938497e-03 -5.6846637656252606e-03 0.0000000000000000e+00  1.0907231916209206e-02 -1.2246441516157574e-02 0.0000000000000000e+00  1.6299705418083649e-02 -2.1785417937488352e-02 0.0000000000000000e+00  1.2817829616650700e-02 -2.2955252952235852e-02 0.0000000000000000e+00  1.0390292767178696e-02 -3.0230896166082197e-02 0.0000000000000000e+00  1.7885047083415889e-03 -1.7433646265062677e-02 0.0000000000000000e+00  -1.9071753968363365e-03 -1.3205185253509930e-02 0.0000000000000000e+00  -7.5799348018182168e-03 -1.9648992297838404e-02 0.0000000000000000e+00  -1.4819258502781270e-02 -2.4164978603087729e-02 0.0000000000000000e+00  -1.7782546133040120e-02 -2.1979033330665580e-02 0.0000000000000000e+00  -1.4304595328115847e-02 -1.5074717412840168e-02 0.0000000000000000e+00  -8.9913036397877722e-03 -8.8981556976350917e-03 0.0000000000000000e+00  -5.9784012554230997e-03 -6.0417927361322748e-03 0.0000000000000000e+00  -1.1040149150118450e-02 -1.3016720598305999e-02 0.0000000000000000e+00  4.0253559515649254e-04 -3.7801337050759304e-04 0.0000000000000000e+00  3.1580268541362834e-03 -3.2319945627499558e-03 0.0000000000000000e+00  8.1238021012504952e-03 -8.7020144137125253e-03 0.0000000000000000e+00  1.7584701584570185e-02 -2.1119130652228580e-02 0.0000000000000000e+00  1.6152932224241634e-02 -2.4578126711411255e-02 0.0000000000000000e+00  3.1227419733223384e-02 -6.5788916854261123e-02 0.0000000000000000e+00  5.1590406173429668e-03 -2.2928884741674406e-02 0.0000000000000000e+00  -3.0809719735492696e-04 -1.0267827243402841e-02 0.0000000000000000e+00  -4.1562488903952484e-03 -1.5642265834361527e-02 0.0000000000000000e+00  -1.2516516674282767e-02 -2.4731154276145535e-02 0.0000000000000000e+00  -1.7263737545889030e-02 -2.4114022808930408e-02 0.0000000000000000e+00  -1.7737354467518986e-02 -1.9874515736922921e-02 0.0000000000000000e+00  -1.1575125745046256e-02 -1.1710585233777007e-02 0.0000000000000000e+00  -6.8275155681341536e-03 -6.7336108055254954e-03 0.0000000000000000e+00  -5.1910328906305250e-03 -5.5044004248042244e-03 0.0000000000000000e+00  -2.9744647462713141e-02 1.7501993265414298e-03 0.0000000000000000e+00  -6.6344111768154385e-02 7.9199567760186787e-02 0.0000000000000000e+00  -4.9251663992403626e-02 3.6647224633433728e-02 0.0000000000000000e+00  8.6597538587673370e-02 -2.8175668644522065e-02 0.0000000000000000e+00  -1.4412536646746103e-02 1.8975515178002843e-02 0.0000000000000000e+00  -2.6778987013592426e-02 2.1724038685722584e-02 0.0000000000000000e+00  -1.6130977193098206e-01 5.6911624493380511e-02 0.0000000000000000e+00  -2.5767678958153128e-02 2.9911960480301621e-03 0.0000000000000000e+00  -1.2374526598855589e-02 1.8821875703603812e-02 0.0000000000000000e+00  3.3547204573583608e-02 -4.4118424451438563e-02 0.0000000000000000e+00  -3.0711061076273638e-02 3.4317927054744124e-02 0.0000000000000000e+00  -7.3439779549534989e-03 8.2528530808942905e-03 0.0000000000000000e+00  1.0579440465255167e-01 -4.4888926636344251e-02 0.0000000000000000e+00  1.5842603315191969e-01 -7.8590314384009499e-02 0.0000000000000000e+00  -1.3361867704335922e-01 1.0156188142293117e-02 0.0000000000000000e+00  -1.9937981714195939e-02 3.0266297770510982e-03 0.0000000000000000e+00  -5.1872656131520978e-02 -5.1592764459827007e-05 0.0000000000000000e+00  -6.4017704753950036e-02 -3.1600057477722130e-04 0.0000000000000000e+00  -1.5713773947460697e-02 -8.4533195422273864e-04 0.0000000000000000e+00  -8.4068882584633180e-03 -6.1619602988446627e-04 0.0000000000000000e+00  -7.3923900066682792e-03 -5.6554493478879245e-04 0.0000000000000000e+00  -8.8994809671254973e-03 -5.2143652823176357e-04 0.0000000000000000e+00  -9.5527057216887971e-03 -1.9951250110306502e-04 0.0000000000000000e+00  -9.5668642916084037e-03 1.2439789978446554e-04 0.0000000000000000e+00  -9.0527119737850610e-03 4.5688839607245849e-04 0.0000000000000000e+00  -7.5981932528436172e-03 5.2903887516068298e-04 0.0000000000000000e+00  -8.5255074613726899e-03 5.7503203786639335e-04 0.0000000000000000e+00  -1.4309071480418767e-02 7.1561950632968339e-04 0.0000000000000000e+00  -3.3292185302688022e-02 -2.0047789691318017e-03 0.0000000000000000e+00  -1.5666192497554764e-02 -5.1561072199679601e-04 0.0000000000000000e+00  -7.3141610658783458e-03 -5.4970199323123900e-04 0.0000000000000000e+00  -9.7238797336042931e-03 -3.7010089151358339e-04 0.0000000000000000e+00  -9.7012624012635176e-03 2.9046514892986438e-04 0.0000000000000000e+00  -7.4945995958574999e-03 5.1496837813260182e-04 0.0000000000000000e+00  -1.5560306384192917e-02 4.5431642904454476e-04 0.0000000000000000e+00  -9.5295189123104571e-03 -6.4235180653567634e-04 0.0000000000000000e+00  -7.7251918584814259e-03 -5.7373846623341024e-04 0.0000000000000000e+00  -9.5801045594134208e-03 -3.7962046775312749e-05 0.0000000000000000e+00  -8.1885621141249889e-03 5.4347806895573643e-04 0.0000000000000000e+00  -9.6742955568560121e-03 6.0304034289537030e-04 0.0000000000000000e+00  1.1508362951794028e-01 3.9003031291338683e-02 0.0000000000000000e+00  -4.5865442369158287e-02 -3.6323649481217961e-02 0.0000000000000000e+00  -6.8991667955278793e-02 -8.4958616922528582e-02 0.0000000000000000e+00  -2.3591200907397459e-02 -3.0063026370406231e-03 0.0000000000000000e+00  -1.9974222268748926e-01 -7.3031169262826851e-02 0.0000000000000000e+00  -2.7538836742233855e-02 -2.2814779646802980e-02 0.0000000000000000e+00  -1.3595075533694980e-02 -1.8386748500824921e-02 0.0000000000000000e+00  -1.5718059114434916e-02 -2.6775171517772968e-03 0.0000000000000000e+00  -1.5526466526143903e-01 -1.3744879318062210e-02 0.0000000000000000e+00  2.0432894750906611e-01 1.0539292109684788e-01 0.0000000000000000e+00  1.2741719468100154e-01 5.6597250263779861e-02 0.0000000000000000e+00  -1.0444096071427069e-02 -1.1279695484493736e-02 0.0000000000000000e+00  -2.9883195400197394e-02 -3.5019074446319146e-02 0.0000000000000000e+00  3.1611855357582180e-02 4.2666868585660420e-02 0.0000000000000000e+00  1.3192346414386616e-03 6.8481365703659239e-04 0.0000000000000000e+00  9.2330698908519580e-09 -1.4200472012180734e-08 0.0000000000000000e+00  -1.0881500331296674e-08 1.6383450526961196e-08 0.0000000000000000e+00  3.4477685880749461e-09 1.7565985294739290e-08 0.0000000000000000e+00  5.5384905149123506e-09 6.2105740075977607e-09 0.0000000000000000e+00  -7.7558395042812687e-09 -7.8980260078615020e-09 0.0000000000000000e+00  -3.0623174082439010e-09 -1.1285310526428662e-08 0.0000000000000000e+00  5.6509990695884692e-09 -2.5323213753704153e-10 0.0000000000000000e+00  -6.2978549918217874e-09 3.3839216275037426e-10 0.0000000000000000e+00  -6.6380601229390838e-09 -3.8335872645956134e-10 0.0000000000000000e+00  5.2414583658388073e-09 1.9994225574998290e-10 0.0000000000000000e+00  -3.3292172300083182e-09 -3.5969069067025775e-09 0.0000000000000000e+00  -6.1982993866246881e-15 -6.2596150589242003e-15 0.0000000000000000e+00  -1.2990129408550267e-14 -1.4859919357899306e-14 0.0000000000000000e+00  -1.5925834063723799e-20 3.3461273589309106e-22 0.0000000000000000e+00  -3.2996712479377653e-20 -9.7202752140046405e-22 0.0000000000000000e+00  7.5478447531855733e-15 -3.7625394483069499e-17 0.0000000000000000e+00  -9.7816818187900093e-15 -1.9331974492107411e-14 0.0000000000000000e+00  -1.1918679488454117e-20 1.1113446674551063e-21 0.0000000000000000e+00  -2.2273143033830769e-16 -1.3469281305970161e-14 0.0000000000000000e+00  2.1921444447322031e-20 9.0323813428429850e-21 0.0000000000000000e+00  1.0676782119076814e-14 -2.3291315119012915e-14 0.0000000000000000e+00  2.4319934746769083e-16 3.9662438741430508e-16 0.0000000000000000e+00  3.6276102603431044e-20 -5.6287663920223121e-21 0.0000000000000000e+00  6.7470282519860516e-10 7.6234752085089306e-10 0.0000000000000000e+00  3.3795043036063847e-15 3.6861018635407857e-15 0.0000000000000000e+00  -1.0446342863242284e-14 -3.1504415613602624e-17 0.0000000000000000e+00  2.9022831306199789e-15 -3.1036086811366509e-15 0.0000000000000000e+00  -2.5713660288072828e-09 3.0688941252206527e-09 0.0000000000000000e+00  3.4587526355287141e-09 -1.4632681379375972e-08 0.0000000000000000e+00  5.6190805360053148e-10 -6.3538512239522956e-10 0.0000000000000000e+00  5.2022551673554581e-09 -5.6213646033356496e-09 0.0000000000000000e+00  -1.0263681348363127e-08 -1.4427789301119017e-08 0.0000000000000000e+00  -1.3492361946157994e-14 1.6791516432876342e-14 0.0000000000000000e+00  -3.9819281615934168e-09 1.5403574799308802e-08 0.0000000000000000e+00  1.2608110467830466e-08 2.0549006097948951e-08 0.0000000000000000e+00  -6.0697831969544187e-15 6.8412176177189487e-15 0.0000000000000000e+00  1.8658379702100015e-14 2.4038815046941417e-14 0.0000000000000000e+00  7.8057070223508035e-21 9.4903792063447085e-22 0.0000000000000000e+00  -8.2729871279116529e-09 9.3045928132702523e-09 0.0000000000000000e+00  -2.0349256877896338e-08 2.3926644385980168e-08 0.0000000000000000e+00  -1.