<?xml version="1.0"?>
<VTKFile type="UnstructuredGrid"  version="0.1"  >
<UnstructuredGrid>
<Piece  NumberOfPoints="4153" NumberOfCells="8064">
<Points>
<DataArray  type="Float64"  NumberOfComponents="3"  format="ascii">-0.4165347785222364 -0.613401648226971 0  -0.04099304824422027 -0.7722407398746218 0  -0.09351244346023609 -0.767153817587131 0  -0.1450379289441212 -0.7568000196475065 0  -0.1951326841404628 -0.7417954016291269 0  -0.2438373838255105 -0.7236114516303235 0  -0.2905435463802378 -0.7002438557519499 0  -0.3348640832418084 -0.6734995366494188 0  -0.3768087057166181 -0.6443713556135343 0  0.01189058603598477 -0.7716934241257691 0  -0.4541235269658548 -0.5825679485661336 0  -0.4902823766968641 -0.5519065037295715 0  -0.5250647472872214 -0.5216695971066138 0  -0.5586812209912349 -0.49228480165377 0  -0.5915256567856094 -0.4643516274815465 0  -0.6238035137200834 -0.4381320469047573 0  -0.6556651658827182 -0.4145044435285733 0  0.6466955592935704 -0.4145090241506751 0  0.06445768824954931 -0.7655738279935532 0  0.1160594100188383 -0.7541228737499055 0  0.1661386275426046 -0.7378519142320641 0  0.2142657513404594 -0.7173791997841928 0  0.2602593469630198 -0.693801322701697 0  0.3041077735587658 -0.6678477430708101 0  0.3458936256180964 -0.6402472276869854 0  0.3857309335340235 -0.6116158600503823 0  0.4239313844403835 -0.5826818912593261 0  0.4607210063443541 -0.5538633167873374 0  0.4963360245331541 -0.5255290917229124 0  0.5309472708240284 -0.4980298995713341 0  0.5648033862231363 -0.4716040950557671 0  0.5980363568814769 -0.4467179452336343 0  0.6308757418266603 -0.4242223795380888 0  0.6142718727830243 -0.4354001793111896 0  -0.6394958130393239 -0.4261346552358352 0  -0.5751743594540566 -0.4782234309999394 0  -0.5078195966035699 -0.5367104134684134 0  -0.4354821002800561 -0.5979256864003961 0  -0.3561339137013718 -0.6590660458815746 0  -0.2674802454995649 -0.7124290573232606 0  -0.1702835653275308 -0.7499327798945455 0  -0.06734093501393207 -0.7703863915769058 0  0.5814432303889747 -0.4591342536281447 0  0.1413184051680378 -0.7465420106961951 0  0.2375326561688146 -0.705937804266121 0  0.3252419466040861 -0.654213952548011 0  0.4050258054130389 -0.5971683780177921 0  0.4786546501983402 -0.539632315271713 0  0.5479795353387531 -0.4847513635002508 0  0.03825568018500249 -0.7693225222464032 0  -0.6710512328722459 -0.4042237593191365 0  0.5137446643744001 -0.5116538012641479 0  0.442485703482461 -0.5682432835305702 0  0.3660419606152912 -0.6259985964269199 0  0.2824490113829434 -0.681083833929931 0  0.1904755346799469 -0.7280894225580855 0  0.0904170283711057 -0.7604876753532736 0  -0.01455208358912439 -0.7726778131791677 0  -0.1194331422271492 -0.7626180542271649 0  -0.219553793292917 -0.7331372909770525 0  -0.3129716228330164 -0.6871337691993371 0  -0.3971493785910579 -0.629307834398496 0  -0.4723924835512781 -0.5672274440338622 0  -0.5420192387654511 -0.50685457387291 0  -0.6076583402432415 -0.4511878491214101 0  0.7766154629012088 -0.2272903576533481 0  0.697564542596316 -0.3846744727550025 0  0.7413572430552453 -0.3422640518237636 0  0.7692333954795871 -0.28860834786875 0  0.6726422797992267 -0.4001220794286074 0  0.7205580916057128 -0.3648044037303279 0  0.7535398826920698 -0.3140645108491696 0  0.7718324838310978 -0.2575486536731529 0  0.6597158444154962 -0.4079299862797929 0  0.6850577129656196 -0.3916860036932824 0  0.7091766698950938 -0.374913392224858 0  0.7306170501074836 -0.3527036088608314 0  0.7496029796087015 -0.3292976094013341 0  0.7605393351263844 -0.301137395892741 0  0.7695976887406826 -0.2728303106768034 0  0.7735873672523597 -0.2422798578094874 0  0.7760712646763163 -0.2075049663017139 0  0.7803050580059998 0.234335394359604 0  0.7806081515234191 0.1950863049188685 0  0.7822723427338261 0.1554922355270436 0  0.7843859033504529 0.1154471459794722 0  0.7866441350734904 0.07487481134201075 0  0.7874932000009801 0.03388125488535482 0  0.7870325735279275 -0.00721368153836557 0  0.7852627047392156 -0.04818559845609714 0  0.7821744431677994 -0.08870560025175905 0  0.7792963504030711 -0.128714563631782 0  0.776928631162389 -0.1682715043711214 0  0.7814657550526649 0.2540596854360414 0  0.7802329554778001 0.2147415008830246 0  0.7833125010465614 0.1355295327172716 0  0.7872313336200799 0.05440597732189052 0  0.7863149405394207 -0.0277298702103711 0  0.7807197209868749 -0.1087730561039469 0  0.7762675290209439 -0.1879203087551275 0  0.781356658561285 0.1753419675581009 0  0.7855962147992885 0.0952492902986064 0  0.7874217696225927 0.01333260604749654 0  0.7837713179811605 -0.06853321589173965 0  0.7780240295257674 -0.1485469457922853 0  0.6582340161583807 0.4439939835219349 0  0.7758043450816653 0.3156051219125604 0  0.7496512299963529 0.3701356058923812 0  0.7075637685115674 0.4134919351037978 0  0.777726475770485 0.2844444037468305 0  0.7614180788764653 0.3417922110931352 0  0.7296751227778968 0.3929493554978569 0  0.6832615702129012 0.4291029468251844 0  0.7791174815959988 0.2691551604636752 0  0.7760531585698859 0.2998132927571079 0  0.7679204963029246 0.3285033210559975 0  0.7571591853376146 0.3567597808667604 0  0.7392900634693708 0.3807017057730069 0  0.7187099608376879 0.4033349174007947 0  0.6953463322756831 0.4206494659132184 0  0.6707175636830963 0.4369934245239554 0  -0.03136307512016401 0.8409898129547317 0  0.6117022314330041 0.4783718246240398 0  0.5799777622093381 0.505104552111626 0  0.5476966426853103 0.5337169087947958 0  0.5146149083844996 0.5639084831917278 0  0.4803540992211162 0.5951573644745357 0  0.4446681686139009 0.6270825597156896 0  0.4072903910050099 0.6592873433333324 0  0.3678861536822633 0.6913679522699044 0  0.3260794367483918 0.7223325941952219 0  0.2817410022438951 0.7515156103338283 0  0.2347799382186107 0.7780721419758524 0  0.1852244321003953 0.8012710127495389 0  0.1332773381641172 0.8197372593501424 0  0.07943462318583533 0.8328026865698853 0  0.02433162301807641 0.8398632102022759 0  0.6430797967886824 0.4543611311969697 0  -0.08675875159733484 0.834998425103636 0  -0.1409361993068957 0.8227418287940151 0  -0.1931923078079088 0.8049076094189171 0  -0.2428023030218499 0.7814852650373083 0  -0.2899015523829472 0.7558327695379344 0  -0.3344269876740434 0.7276039947967191 0  -0.376498955741213 0.6976008217296435 0  -0.4162398511629182 0.6663251666412628 0  -0.454012581135785 0.6350547386520589 0  -0.4902241008857354 0.6040529714760763 0  -0.5251006042720551 0.5736462515688279 0  -0.5588713890058463 0.544163706800903 0  -0.5917498878703729 0.5159023726505232 0  -0.6239781895170013 0.4894024515356565 0  -0.655802537729361 0.4655375193817794 0  -0.6711350744670199 0.4552086037967351 0  -0.6396734275258932 0.4773268045956061 0  -0.5754193875647049 0.529942761761762 0  -0.5078153691846297 0.5887631018535588 0  -0.4353241212177503 0.6506647587047029 0  -0.3557529706239537 0.7127428580518147 0  -0.2666678467498854 0.7690409980285591 0  -0.1673247596250553 0.8143196357605997 0  -0.05915303724348461 0.838781834433344 0  0.05200407738129541 0.837139700496459 0  0.1595229543895169 0.8111105147874726 0  0.2585886056955328 0.7651791539359167 0  0.3472815652819091 0.7070132706334589 0  0.4262059007044613 0.6431764592250626 0  0.4976415701699038 0.5794274528899187 0  0.5639164252866677 0.5192891193434646 0  0.6271662208948752 0.4661878594920294 0  -0.6078805369135132 0.502597123199327 0  -0.5421118506050725 0.5587928061585078 0  -0.472302359306969 0.6195040180659332 0  -0.3966967334388971 0.6820986437709571 0  -0.3124744021633633 0.7419715636228302 0  -0.2185227618713891 0.7939938628697656 0  -0.1140409142942533 0.8295786107006098 0  -0.003445371735515629 0.8412414801242921 0  0.106557463101767 0.8269855400917169 0  0.2103483564149291 0.7902239158275924 0  0.3042350318955694 0.7372006190404387 0  0.3878899325844585 0.6754117897493432 0  0.4627050972160832 0.611063473288031 0  0.531298804744333 0.548668811118724 0  0.5958450097149578 0.4916589103598087 0  -0.79692329743755 0.2656456132210128 0  -0.7208697041424521 0.424539650469257 0  -0.763532070381606 0.381344894817423 0  -0.7903734826876643 0.3271151254502979 0  -0.6964204368104269 0.440268273782525 0  -0.7432889577669076 0.4041538003879988 0  -0.7754048935839952 0.3529942048834069 0  -0.7926242348500957 0.295984278111479 0  -0.6837568056647222 0.4482240581979261 0  -0.7085873942424195 0.4317249625355563 0  -0.7321798100786451 0.4144803594440744 0  -0.7530517214467135 0.3919043121038697 0  -0.771354193359215 0.3681150029876283 0  -0.782119757479157 0.339858651029569 0  -0.7906696672575793 0.3113232634654883 0  -0.7942082546174063 0.2806988689813773 0  -0.7960914944176762 0.245875667157745 0  -0.7963088559534119 -0.1961758987594599 0  -0.7968826277053034 -0.1569480181560575 0  -0.7988970100921404 -0.117374572748406 0  -0.8013860770243092 -0.07733923375283121 0  -0.8040417657210419 -0.03677845780309889 0  -0.8053319298504781 0.004222823270635091 0  -0.8053194852364638 0.04533884144096395 0  -0.8040085730809505 0.08634657304505211 0  -0.8013454445901538 0.1269273526132856 0  -0.798819081048471 0.1669929341145585 0  -0.7967414290969385 0.2066047070576009 0  -0.7972203028390983 -0.2159233002663302 0  -0.7963642566168363 -0.1765950235996769 0  -0.8001275813638534 -0.09741950517948859 0  -0.8048508045707813 -0.01630714625196899 0  -0.8048272237906665 0.06587108680103011 0  -0.8000706526823077 0.1470214019711541 0  -0.7961853399478069 0.2262721735270306 0  -0.7978026023460465 -0.1372158793950715 0  -0.8027814648766846 -0.05714777479734999 0  -0.80548366157031 0.02478047280359788 0  -0.8027463309749653 0.106723303407288 0  -0.7976974102201192 0.1868524854080816 0  -0.7907020774021449 -0.2773251061444389 0  -0.7636982824604073 -0.3313657008973839 0  -0.7209183871522212 -0.3742213207622586 0  -0.7930128582801125 -0.2462430176247052 0  -0.7757700795095281 -0.3031975260414629 0  -0.7433980805172539 -0.354051128755688 0  -0.6963442583675128 -0.3896593415254953 0  -0.7945767329928318 -0.2309708669855075 0  -0.7910789368722534 -0.2
[...]
<PointData  Vectors="f_3736"> 
<DataArray  type="Float64"  Name="f_3736"  NumberOfComponents="3" format="ascii">5.8348353706371703e-03 7.1711831112029577e-03 0.0000000000000000e+00  1.0558978988269335e-03 2.4217404361199898e-02 0.0000000000000000e+00  3.9406214734048614e-03 2.6366459168554467e-02 0.0000000000000000e+00  7.1304206425705403e-03 2.8520798439656093e-02 0.0000000000000000e+00  9.2506095756343977e-03 2.7102875692654446e-02 0.0000000000000000e+00  1.6616384156671767e-02 3.8147250443258868e-02 0.0000000000000000e+00  2.5439830985682081e-02 4.5826525021502848e-02 0.0000000000000000e+00  2.6266476256811312e-02 4.0453678279791058e-02 0.0000000000000000e+00  2.0046030484473964e-02 2.7489664818849142e-02 0.0000000000000000e+00  -1.5136971426855073e-03 2.3830052786900920e-02 0.0000000000000000e+00  1.1543983532057166e-02 1.3878428457750731e-02 0.0000000000000000e+00  8.5598102642232953e-03 9.9378669079640478e-03 0.0000000000000000e+00  6.6038747932404430e-03 7.5642741451175622e-03 0.0000000000000000e+00  6.4378175636764286e-03 7.4816879637261760e-03 0.0000000000000000e+00  6.1174525202557688e-03 7.4138300479384073e-03 0.0000000000000000e+00  2.2590690041536230e-03 2.9417578876321736e-03 0.0000000000000000e+00  2.3464002744645962e-03 3.0128672034392756e-03 0.0000000000000000e+00  -4.0866405185668406e-02 7.2911995646274180e-02 0.0000000000000000e+00  -4.2288439474650911e-03 2.4947743434621548e-02 0.0000000000000000e+00  -7.4847455773919339e-03 2.7307594759869557e-02 0.0000000000000000e+00  -1.1143424892903689e-02 2.9685250634384628e-02 0.0000000000000000e+00  -1.4238459830246374e-02 3.0265209396769171e-02 0.0000000000000000e+00  -1.6259678688565617e-02 2.9390817004498686e-02 0.0000000000000000e+00  -1.6786950997390228e-02 2.6746135782977135e-02 0.0000000000000000e+00  -1.6291402629596923e-02 2.3575749670604516e-02 0.0000000000000000e+00  -1.3513624986391368e-02 1.8277001907867480e-02 0.0000000000000000e+00  -1.1245968822260099e-02 1.4564057230911642e-02 0.0000000000000000e+00  -8.8530439800776472e-03 1.1191021499082222e-02 0.0000000000000000e+00  -6.5058179580929224e-03 8.1601109905422870e-03 0.0000000000000000e+00  -6.8623692171526380e-03 8.7454920872943910e-03 0.0000000000000000e+00  -6.2393678378492440e-03 8.2357764948445007e-03 0.0000000000000000e+00  -3.4714313104985514e-03 5.0080233413276574e-03 0.0000000000000000e+00  3.0070310401703443e-03 -4.8554391383970321e-03 0.0000000000000000e+00  -4.0228535818492336e-03 5.7539121477889390e-03 0.0000000000000000e+00  1.1052871850898370e-02 1.5005347269584818e-02 0.0000000000000000e+00  4.3023568652696201e-03 5.0189861308459968e-03 0.0000000000000000e+00  7.4639813683456601e-03 8.5875346845129871e-03 0.0000000000000000e+00  1.3606218899696947e-02 1.6581090883872409e-02 0.0000000000000000e+00  2.2720157207708581e-02 3.2771801277618827e-02 0.0000000000000000e+00  2.1293175165613406e-02 4.2696003800210859e-02 0.0000000000000000e+00  9.1282074952388076e-03 3.0583466210397911e-02 0.0000000000000000e+00  2.4593500082388700e-03 2.5366390888467160e-02 0.0000000000000000e+00  -7.0276563488300386e-04 8.0659224662704427e-04 0.0000000000000000e+00  -9.2586746332602530e-03 2.8475687243473092e-02 0.0000000000000000e+00  -1.5582243596424718e-02 3.0400964047527373e-02 0.0000000000000000e+00  -1.6351945264548889e-02 2.4756103173763394e-02 0.0000000000000000e+00  -1.2715899706494184e-02 1.6793928191688127e-02 0.0000000000000000e+00  -7.8751137330670528e-03 9.9000037436843651e-03 0.0000000000000000e+00  -2.6931256730792176e-03 3.4104686278081842e-03 0.0000000000000000e+00  -2.8102472692732804e-03 2.4114235540738493e-02 0.0000000000000000e+00  3.5240169730070818e-02 5.8550091460000842e-02 0.0000000000000000e+00  -5.5748034966283206e-03 7.0111036221685219e-03 0.0000000000000000e+00  -1.0153566634540982e-02 1.2965413587759246e-02 0.0000000000000000e+00  -1.4930305138587514e-02 2.0779870995623950e-02 0.0000000000000000e+00  -1.6757771807840504e-02 2.8322866060984976e-02 0.0000000000000000e+00  -1.3449130306077800e-02 3.1623564328305688e-02 0.0000000000000000e+00  -5.7639202700509066e-03 2.5950845385574017e-02 0.0000000000000000e+00  -2.4380812123363078e-04 2.3666706022503620e-02 0.0000000000000000e+00  5.7723105820221493e-03 2.8741705612675781e-02 0.0000000000000000e+00  7.4342790341144702e-03 1.9854669041477681e-02 0.0000000000000000e+00  2.1875567643349789e-02 3.6260591337096783e-02 0.0000000000000000e+00  3.8329035829818218e-02 4.9353101753837829e-02 0.0000000000000000e+00  1.0369091388653865e-02 1.2231950100500584e-02 0.0000000000000000e+00  5.0276072751536992e-03 5.7426404468697654e-03 0.0000000000000000e+00  2.5251256494375610e-03 3.0396314789508791e-03 0.0000000000000000e+00  4.0572467759044953e-02 -2.5968933883086611e-03 0.0000000000000000e+00  6.9168176881542601e-02 -9.5261196773009441e-02 0.0000000000000000e+00  5.2105819000254239e-02 -4.4038224575615813e-02 0.0000000000000000e+00  -1.6468346203377543e-01 5.7996769591324451e-02 0.0000000000000000e+00  1.6282768922304479e-02 -2.6008769426643947e-02 0.0000000000000000e+00  2.2877303463348424e-02 -2.0271213791371034e-02 0.0000000000000000e+00  2.3663037148726962e-01 -9.2270863153936372e-02 0.0000000000000000e+00  2.2699685103819808e-02 -3.0113491537316337e-03 0.0000000000000000e+00  3.6931145258454028e-02 -6.6758364919828117e-02 0.0000000000000000e+00  -4.6966842044996820e-02 7.3644745145031831e-02 0.0000000000000000e+00  3.1433170326565424e-02 -4.0758978227835828e-02 0.0000000000000000e+00  4.6376480996479622e-04 -3.8926532818589622e-03 0.0000000000000000e+00  -1.7760403348635451e-01 8.2181549267943271e-02 0.0000000000000000e+00  -2.5854025450882767e-01 1.4337156913134952e-01 0.0000000000000000e+00  1.9136097159086199e-01 -1.7867675104340831e-02 0.0000000000000000e+00  1.2611774892814840e-02 -2.3966485406007429e-03 0.0000000000000000e+00  7.1515820475483882e-02 -9.0655256355501936e-05 0.0000000000000000e+00  4.3318003319667744e-02 -1.1798898607160544e-03 0.0000000000000000e+00  1.4766403599013227e-02 4.1953574118088421e-04 0.0000000000000000e+00  8.8320443052081875e-03 4.3298072058702334e-04 0.0000000000000000e+00  7.3373268986787433e-03 4.1483481940399446e-04 0.0000000000000000e+00  8.8330541022297437e-03 3.5684639776798784e-04 0.0000000000000000e+00  9.1988141658845991e-03 4.3455330928661288e-05 0.0000000000000000e+00  9.1825812860134789e-03 -2.4754675418740276e-04 0.0000000000000000e+00  8.4920137186226194e-03 -5.2851766739542196e-04 0.0000000000000000e+00  7.2778756808434073e-03 -5.5035950258619580e-04 0.0000000000000000e+00  9.3101026694818803e-03 -6.2871211802298561e-04 0.0000000000000000e+00  1.9356614048348285e-02 -8.5271532265893026e-04 0.0000000000000000e+00  2.8459585779395127e-02 1.2060125196917610e-03 0.0000000000000000e+00  1.8193334656375314e-02 1.1314937172940687e-04 0.0000000000000000e+00  7.4090266574681554e-03 3.9100202471987301e-04 0.0000000000000000e+00  9.3087102402528744e-03 1.9064398327400223e-04 0.0000000000000000e+00  9.4235898265303611e-03 -4.0716790838671941e-04 0.0000000000000000e+00  7.5721929850799874e-03 -5.4558965364847549e-04 0.0000000000000000e+00  1.8997002393395791e-02 -4.2164024967515271e-04 0.0000000000000000e+00  1.0631387045707380e-02 4.4317995276960023e-04 0.0000000000000000e+00  8.1688540322276525e-03 4.5179316459362977e-04 0.0000000000000000e+00  9.1902945616294651e-03 -1.0330201393461518e-04 0.0000000000000000e+00  7.0568021849148734e-03 -5.3757415762215597e-04 0.0000000000000000e+00  1.0903082033766482e-02 -6.4972583589021965e-04 0.0000000000000000e+00  -3.4281117421107427e-02 -5.5370894024904811e-02 0.0000000000000000e+00  -4.4677747413881738e-02 -1.4723798015369036e-02 0.0000000000000000e+00  5.5222904029952252e-02 3.9572109325067745e-02 0.0000000000000000e+00  6.3978868995684959e-02 8.2815896622096957e-02 0.0000000000000000e+00  3.1867147929899836e-02 3.1722909477130351e-03 0.0000000000000000e+00  1.0874852460921298e-01 4.1339894012913936e-02 0.0000000000000000e+00  2.6265187253065495e-02 2.2701257721248903e-02 0.0000000000000000e+00  1.8215590524651382e-02 2.7758242419192291e-02 0.0000000000000000e+00  2.7071558630116215e-02 3.4480227515800528e-03 0.0000000000000000e+00  1.0767070386430479e-01 7.3618649928598725e-03 0.0000000000000000e+00  -8.9051490629235716e-02 -4.3089201348525438e-02 0.0000000000000000e+00  -7.2010852844375695e-02 -3.2098774171266616e-02 0.0000000000000000e+00  2.4765981303666012e-03 4.3559353864245937e-03 0.0000000000000000e+00  3.2284886594325039e-02 3.8020626536840976e-02 0.0000000000000000e+00  -3.7830442782080018e-02 -5.6683414244477738e-02 0.0000000000000000e+00  2.3789790535125848e-02 4.0562307366676771e-02 0.0000000000000000e+00  7.5185707131825933e-04 -1.6394918273475004e-02 0.0000000000000000e+00  -3.5419550852904573e-03 -4.4495912251463843e-03 0.0000000000000000e+00  -6.6754575581896491e-03 -7.7772535002086345e-03 0.0000000000000000e+00  -6.7116266213800820e-03 -7.4740415007740020e-03 0.0000000000000000e+00  -7.0406303200082777e-03 -7.7047482688705100e-03 0.0000000000000000e+00  -8.8912992611212376e-03 -9.8197775362490174e-03 0.0000000000000000e+00  -1.1440857492740621e-02 -1.3005876262955544e-02 0.0000000000000000e+00  -1.3375776337622927e-02 -1.5908653386832814e-02 0.0000000000000000e+00  -1.7462850868731700e-02 -2.2453163155766686e-02 0.0000000000000000e+00  -1.7717186843177413e-02 -2.5280964887315484e-02 0.0000000000000000e+00  -1.6578107822837154e-02 -2.7056803343318184e-02 0.0000000000000000e+00  -1.3717067859635322e-02 -2.6449859719863834e-02 0.0000000000000000e+00  -1.0546163390885542e-02 -2.5639131506216495e-02 0.0000000000000000e+00  -6.6404685570596060e-03 -2.2139592363279548e-02 0.0000000000000000e+00  -3.4759300724402182e-03 -1.8669079001669607e-02 0.0000000000000000e+00  -1.2735850726838696e-03 -1.7254612483894993e-02 0.0000000000000000e+00  -2.4277243102048245e-03 -3.1498177922223733e-03 0.0000000000000000e+00  3.8668861284875196e-03 -2.2962756856053406e-02 0.0000000000000000e+00  9.0242816813178358e-03 -3.1519047099161888e-02 0.0000000000000000e+00  1.2043022053332745e-02 -3.0070891853448068e-02 0.0000000000000000e+00  1.0382550022820673e-02 -2.0230258693638051e-02 0.0000000000000000e+00  1.8191450005757056e-02 -3.0797476656999907e-02 0.0000000000000000e+00  1.8554799118290183e-02 -2.7501050333345118e-02 0.0000000000000000e+00  1.7441232676774266e-02 -2.3303246367875032e-02 0.0000000000000000e+00  1.1487470488312498e-02 -1.4127319883893711e-02 0.0000000000000000e+00  1.0584979133897237e-02 -1.2562814710104567e-02 0.0000000000000000e+00  8.0003017336025186e-03 -9.2419843194212134e-03 0.0000000000000000e+00  5.9680408453388753e-03 -6.8297712602100324e-03 0.0000000000000000e+00  5.4100598040091727e-03 -6.2577716683030575e-03 0.0000000000000000e+00  5.5226581147191246e-03 -6.6281055410820650e-03 0.0000000000000000e+00  2.5351954338173458e-03 -3.3138888392709120e-03 0.0000000000000000e+00  8.4144174058761745e-04 -9.2561790455935808e-04 0.0000000000000000e+00  3.9270159015012650e-02 -6.4294164157095143e-02 0.0000000000000000e+00  8.4732012487602221e-03 -1.1311549440179735e-02 0.0000000000000000e+00  2.5339903395578314e-03 -2.9136207823941191e-03 0.0000000000000000e+00  6.8754376195295326e-03 -7.8875953495587108e-03 0.0000000000000000e+00  1.2056742075189489e-02 -1.4564317755174461e-02 0.0000000000000000e+00  1.7061344302430653e-02 -2.3923367715674226e-02 0.0000000000000000e+00  1.5049600629986355e-02 -2.7552748176652046e-02 0.0000000000000000e+00  1.0626524701916138e-02 -3.1114757089549170e-02 0.0000000000000000e+00  2.0990798086557550e-03 -1.9413307810126384e-02 0.0000000000000000e+00  -2.2140851302559043e-03 -1.7200189669543602e-02 0.0000000000000000e+00  -8.5391787962052976e-03 -2.3998629014680747e-02 0.0000000000000000e+00  -1.5333953157569965e-02 -2.7106692026167598e-02 0.0000000000000000e+00  -1.7120125972670236e-02 -2.3115883298560330e-02 0.0000000000000000e+00  -1.2943518646192516e-02 -1.5025703169333840e-02 0.0000000000000000e+00  -7.7709039843577177e-03 -8.5209574573032239e-03 0.0000000000000000e+00  -4.6877273473524524e-03 -5.2526431124653690e-03 0.0000000000000000e+00  -9.7492668675999081e-03 -1.2788850610770673e-02 0.0000000000000000e+00  1.4970468537648482e-03 -1.7275551701695152e-03 0.0000000000000000e+00  4.7351747375757947e-03 -5.4195655482884349e-03 0.0000000000000000e+00  9.2858924835818712e-03 -1.0848624515094971e-02 0.0000000000000000e+00  1.7734215807074006e-02 -2.2575259887983982e-02 0.0000000000000000e+00  1.7350041807849978e-02 -2.7367028381989518e-02 0.0000000000000000e+00  3.0375160800794606e-02 -6.4705852943060679e-02 0.0000000000000000e+00  5.6247985507836152e-03 -2.4787404931308862e-02 0.0000000000000000e+00  -2.8948895242328490e-04 -1.4075293424629119e-02 0.0000000000000000e+00  -4.8599171866210893e-03 -1.9984552062426525e-02 0.0000000000000000e+00  -1.3552860782222564e-02 -2.8974557695466852e-02 0.0000000000000000e+00  -1.7191711820499785e-02 -2.6126232458183143e-02 0.0000000000000000e+00  -1.6439380471777745e-02 -2.0210523825611434e-02 0.0000000000000000e+00  -1.0217334981752276e-02 -1.1423220389670915e-02 0.0000000000000000e+00  -5.6286767761393724e-03 -6.1599225214611130e-03 0.0000000000000000e+00  -3.0019244940629802e-03 -3.4896517908526940e-03 0.0000000000000000e+00  -3.2199804481974015e-02 1.6906508460768476e-03 0.0000000000000000e+00  -6.8115039052591031e-02 8.9378123224612943e-02 0.0000000000000000e+00  -5.5374020001961177e-02 4.2342925499434997e-02 0.0000000000000000e+00  9.7824723860796520e-02 -3.2843273248906804e-02 0.0000000000000000e+00  -1.7271888186021597e-02 2.6363984657989305e-02 0.0000000000000000e+00  -2.4625304688466104e-02 2.1298173674978962e-02 0.0000000000000000e+00  -1.6363904473667323e-01 6.2373330689921534e-02 0.0000000000000000e+00  -2.7209755107479115e-02 3.1540781971721946e-03 0.0000000000000000e+00  -2.7093500271092134e-02 4.6427643529614239e-02 0.0000000000000000e+00  4.4093594664206932e-02 -6.6376519255159583e-02 0.0000000000000000e+00  -3.1805139251597669e-02 3.8758398041408640e-02 0.0000000000000000e+00  -4.2355119466191763e-06 2.7234617380656159e-03 0.0000000000000000e+00  1.2088057415178848e-01 -5.4175003305846674e-02 0.0000000000000000e+00  1.6562200158563567e-01 -8.5737684657542265e-02 0.0000000000000000e+00  -1.4609192989772260e-01 1.1835572676238276e-02 0.0000000000000000e+00  -1.8978423378048791e-02 2.9617476583930057e-03 0.0000000000000000e+00  -5.9070334774983801e-02 -6.6396168064671501e-04 0.0000000000000000e+00  -6.0919198304396009e-02 8.6551183287016163e-04 0.0000000000000000e+00  -1.6923998183763351e-02 -6.1115549536274979e-04 0.0000000000000000e+00  -8.9642239146055010e-03 -5.2213942102993761e-04 0.0000000000000000e+00  -7.2411498962350685e-03 -4.7593437686414711e-04 0.0000000000000000e+00  -8.6192493783615112e-03 -4.3795236151505891e-04 0.0000000000000000e+00  -9.1332375439473010e-03 -1.4104455350935844e-04 0.0000000000000000e+00  -9.1280734037387824e-03 1.4619450105201177e-04 0.0000000000000000e+00  -8.6250380259638281e-03 4.4067527663907045e-04 0.0000000000000000e+00  -7.3167463780763331e-03 4.8469217105889589e-04 0.0000000000000000e+00  -8.9862688610486598e-03 5.3398664189410392e-04 0.0000000000000000e+00  -1.6643449472470005e-02 6.3203275625291352e-04 0.0000000000000000e+00  -3.1551418266535354e-02 -1.4952275255151221e-03 0.0000000000000000e+00  -1.8338966055071151e-02 -2.5632292625575403e-04 0.0000000000000000e+00  -7.4608821270955904e-03 -4.6424404716575323e-04 0.0000000000000000e+00  -9.3279265501469769e-03 -2.9257548702870154e-04 0.0000000000000000e+00  -9.3133417002252122e-03 2.9672181157929466e-04 0.0000000000000000e+00  -7.5149144901898888e-03 4.7414187086471349e-04 0.0000000000000000e+00  -1.8107616783533991e-02 2.8905905386675040e-04 0.0000000000000000e+00  -1.0684832808245955e-02 -5.4057030224702709e-04 0.0000000000000000e+00  -7.5809041216677239e-03 -4.9465457339701408e-04 0.0000000000000000e+00  -9.1386122519382107e-03 2.7549579822576989e-06 0.0000000000000000e+00  -7.6545011228990288e-03 5.0053673002229066e-04 0.0000000000000000e+00  -1.0633050487756375e-02 5.5448233145812919e-04 0.0000000000000000e+00  8.9362837539951459e-02 3.0384033587889547e-02 0.0000000000000000e+00  -5.4795029225747180e-02 -4.1945957826518179e-02 0.0000000000000000e+00  -6.9139719370621397e-02 -9.2085457079634503e-02 0.0000000000000000e+00  -2.7798524507849552e-02 -3.1961844847619397e-03 0.0000000000000000e+00  -1.5768140748779505e-01 -6.1259445624358894e-02 0.0000000000000000e+00  -2.5310653886846033e-02 -2.2140268838279714e-02 0.0000000000000000e+00  -1.6442663006989721e-02 -2.5721167868664904e-02 0.0000000000000000e+00  -1.9449691972764721e-02 -2.9879125189455334e-03 0.0000000000000000e+00  -1.4258395926351922e-01 -1.1869739473249241e-02 0.0000000000000000e+00  1.5681572440995795e-01 8.1059525815082786e-02 0.0000000000000000e+00  1.1392414360415272e-01 5.2184492392980737e-02 0.0000000000000000e+00  -1.0608666890028634e-03 -3.6398516341804221e-03 0.0000000000000000e+00  -3.1810298442721728e-02 -3.9353911722521596e-02 0.0000000000000000e+00  4.2380816717716284e-02 6.5105014800423022e-02 0.0000000000000000e+00  -2.1024013343897717e-02 -3.7375645327111288e-02 0.0000000000000000e+00  1.0211467159975110e-08 -1.6267782502914361e-08 0.0000000000000000e+00  -1.0577255222000701e-08 1.8029612193092018e-08 0.0000000000000000e+00  3.9996240233612766e-09 1.9856702342165445e-08 0.0000000000000000e+00  6.7873166645725706e-09 8.0600784297235467e-09 0.0000000000000000e+00  -7.0026218753440796e-09 -7.8793985008256853e-09 0.0000000000000000e+00  -3.4568111388713905e-09 -1.3969665628727397e-08 0.0000000000000000e+00  7.2681442061376733e-09 -3.6466856310262568e-10 0.0000000000000000e+00  -6.9424324031111561e-09 2.9936592292409106e-10 0.0000000000000000e+00  -7.1489686060682821e-09 -2.9476503395439714e-10 0.0000000000000000e+00  6.6935353785460395e-09 2.2473983892178395e-10 0.0000000000000000e+00  -2.5514847581247308e-09 -3.1012195117416158e-09 0.0000000000000000e+00  -5.3616342589723039e-15 -6.0468788386585668e-15 0.0000000000000000e+00  -1.2317100478858950e-14 -1.5464400363589927e-14 0.0000000000000000e+00  -1.0431052859079211e-20 -1.5772188318071275e-22 0.0000000000000000e+00  -3.2412441447895741e-20 -9.1830959747887286e-22 0.0000000000000000e+00  9.9029828677172418e-15 -1.0368268900989056e-16 0.0000000000000000e+00  -1.0410239867966695e-14 -2.2394698079221962e-14 0.0000000000000000e+00  -1.2825267251707367e-20 1.0287583121560346e-21 0.0000000000000000e+00  -1.7225869144687165e-16 -1.6408583731239907e-14 0.0000000000000000e+00  2.2806279378578786e-20 7.6859514641143822e-21 0.0000000000000000e+00  1.1474461704668356e-14 -2.5318504388049559e-14 0.0000000000000000e+00  2.3521997836619650e-16 3.9415342310336552e-16 0.0000000000000000e+00  3.7943029048537042e-20 -9.7086347421451701e-21 0.0000000000000000e+00  2.1530725733455489e-09 2.7231904402167543e-09 0.0000000000000000e+00  5.2980178625612701e-15 6.2600479442396746e-15 0.0000000000000000e+00  -1.0188183746917194e-14 6.1411041806113474e-18 0.0000000000000000e+00  4.2468668114822863e-15 -5.0272639177372807e-15 0.0000000000000000e+00  -1.7284359920350812e-09 2.3921895473277645e-09 0.0000000000000000e+00  3.8725551219265561e-09 -1.6380489848368959e-08 0.0000000000000000e+00  1.7361227661143147e-09 -2.1966916152029203e-09 0.0000000000000000e+00  6.3042525337139362e-09 -7.4099208047211377e-09 0.0000000000000000e+00  -1.0291776260023092e-08 -1.5764937928184159e-08 0.0000000000000000e+00  -1.2201379417123869e-14 1.7293001562076967e-14 0.0000000000000000e+00  -4.2115739117028386e-09 1.8854496965628942e-08 0.0000000000000000e+00  1.2358033512131387e-08 2.0696121552368728e-08 0.0000000000000000e+00  -4.7004229828911952e-15 6.1063271297316616e-15 0.0000000000000000e+00  1.8700561597699358e-14 2.4818403076615164e-14 0.0000000000000000e+00  1.0853909358556140e-20 9.1671296620144947e-22 0.0000000000000000e+00  -7.0066678778370995e-09 8.9963257489567900e-09 0.0000000000000000e+00  -1.8227093814706734e-08 2.5609690763478123e-08 0.0000000000000000e+00  -1.12