<?xml version="1.0"?>
<VTKFile type="UnstructuredGrid"  version="0.1"  >
<UnstructuredGrid>
<Piece  NumberOfPoints="4153" NumberOfCells="8064">
<Points>
<DataArray  type="Float64"  NumberOfComponents="3"  format="ascii">-0.410268752874238 -0.5141607647060427 0  -0.03361971556130505 -0.5765307192875234 0  -0.08166024047628093 -0.5754743585679711 0  -0.1295188604751051 -0.5722874930828957 0  -0.1771482530803959 -0.5673737330823057 0  -0.2247222025754275 -0.5612184574239271 0  -0.2719892235698427 -0.5520291895598235 0  -0.3187100736469087 -0.5407950571030919 0  -0.3648311995194642 -0.5280842370872577 0  0.01447343547710881 -0.5752642660745506 0  -0.4552472773822557 -0.500724670677841 0  -0.4998488785614401 -0.4873065527786051 0  -0.5441152488276088 -0.4741697882102199 0  -0.5880770839522347 -0.4616581881922258 0  -0.631820678644582 -0.4498880776932053 0  -0.6753123934719968 -0.4389552372035682 0  -0.7185837451440115 -0.4293323380854144 0  0.7202475704630048 -0.4331496084730834 0  0.06246934075435216 -0.571740862020515 0  0.1102284690780818 -0.5661171778269205 0  0.1576301784694595 -0.5586546945634571 0  0.2045858104741866 -0.5496915815717784 0  0.2510746667082989 -0.5397357066379536 0  0.297131022358323 -0.5291022181952998 0  0.342792301581901 -0.5180399871362736 0  0.3881006587918368 -0.5068416200471851 0  0.4331187494371094 -0.4956355994465043 0  0.4778889277595204 -0.4845781534162113 0  0.5224404438045795 -0.4737607433128019 0  0.5667919734756799 -0.4633789323833998 0  0.610944501302929 -0.4534236020167383 0  0.6548907919658334 -0.4441796531080441 0  0.6986450622291969 -0.4359919056197348 0  0.6767438074709584 -0.4400808151628324 0  -0.696905411991934 -0.4341584678838566 0  -0.6099803624940918 -0.4556997093556659 0  -0.5220191810849442 -0.4806996357346362 0  -0.4328061528500649 -0.507470912912123 0  -0.3418491811119799 -0.5345711193379408 0  -0.2484154803350529 -0.5569049898623655 0  -0.1533596844426498 -0.570025969172962 0  -0.05765617264492787 -0.5762862748896587 0  0.6329399595748217 -0.4487294690133103 0  0.13398028017017 -0.5625961053758316 0  0.2278861100948106 -0.5448156023356387 0  0.3200072898058252 -0.5236183573430362 0  0.4106434681545784 -0.5012258474696644 0  0.5001896315689929 -0.4791409790160403 0  0.588894226931126 -0.4583268299797749 0  0.03849239106330062 -0.5737769921738085 0  -0.7398630390724601 -0.4257911210261058 0  0.544632708416987 -0.4685106036172665 0  0.4555325178352747 -0.490083942636953 0  0.3654819316526164 -0.5124376458882931 0  0.2741546255577288 -0.5344882081330584 0  0.1811688711051414 -0.554329644953639 0  0.08638676833626546 -0.5691775148941781 0  -0.009569775633591383 -0.5761896019495002 0  -0.1056176880042297 -0.5741279527468564 0  -0.200907408826105 -0.5646087200819495 0  -0.2954223994689431 -0.5466249881910545 0  -0.3876733237887841 -0.521151528403631 0  -0.4775918233579617 -0.4939961697354547 0  -0.5661231452709066 -0.4677931091252073 0  -0.653590361615215 -0.4443447153563575 0  0.8932626638945269 -0.2448171374082925 0  0.7872675361021803 -0.4147907043220657 0  0.8442660025306232 -0.3736085863950557 0  0.8814941133990221 -0.3142126170174153 0  0.7539327953852079 -0.424243270131678 0  0.8162992318574167 -0.3949565788069755 0  0.862096246139731 -0.3433332031528959 0  0.8869096978633172 -0.2792827763665089 0  0.7372286344381548 -0.4293834609588681 0  0.7705313756263483 -0.4192243310338135 0  0.8018168749603607 -0.4050198341663653 0  0.8299274438047979 -0.3837026378993835 0  0.8537775756860154 -0.3587922751447883 0  0.8714911844238293 -0.3286960753894659 0  0.8839390217068661 -0.2966415980612728 0  0.8897986485818536 -0.2619948861069198 0  0.8928965736695763 -0.2223240610482955 0  0.8984304298150955 0.27231323130465 0  0.8977276856176353 0.2276187771696176 0  0.8979482432043815 0.1829101188280685 0  0.8986441844673824 0.1380783037427751 0  0.8996236538798876 0.09302388831127568 0  0.8998689371744135 0.047768220595303 0  0.8993898347991862 0.002455385600334769 0  0.8981853654892129 -0.04282448259387521 0  0.8962427134093579 -0.08792496504637452 0  0.8945447487169712 -0.132821753236299 0  0.8932825034892671 -0.1775942225627684 0  0.8993434793648026 0.294817142813708 0  0.8979271611020888 0.2499585574784189 0  0.8982551045131453 0.160514715748579 0  0.8998389182308235 0.07040930069731149 0  0.8988804984619302 -0.02019493232069213 0  0.8953573540651717 -0.1103926909627441 0  0.8929443257313097 -0.199958005026637 0  0.897766483102183 0.2052744041146437 0  0.8991630254195078 0.1155937477224095 0  0.8997170806465241 0.02511337806704791 0  0.8972459194638237 -0.06541412157618696 0  0.893846558202696 -0.1552196463900435 0  0.7316279686296081 0.4864064732735671 0  0.8891446841374758 0.3644649801875733 0  0.8532802988885304 0.424472230600159 0  0.7975931390182279 0.4668290050031538 0  0.8938362381062001 0.3293849956344489 0  0.8705120338736538 0.3939042552772716 0  0.8260716039462671 0.4464577655098703 0  0.7648290164367194 0.4770662868085539 0  0.8963108874650374 0.3120395773965943 0  0.891241561595824 0.3468143885544395 0  0.8795324848326862 0.3791007816402023 0  0.8625157188747858 0.4095116883472795 0  0.8393307849215228 0.4348719225257293 0  0.811867975265959 0.4567775388164659 0  0.7811542703180353 0.4716812746907804 0  0.748381115332165 0.4825231233946027 0  -0.03097166007687515 0.6840515503520073 0  0.6674710857463785 0.5008634355362093 0  0.6241927061491683 0.5127612120502673 0  0.5806299660503974 0.5256000098191527 0  0.536806350332919 0.5393045314748418 0  0.4926483067425779 0.5537401973916192 0  0.4481155228566123 0.568676227713323 0  0.4031516472372469 0.5839566043802001 0  0.3576827368977585 0.5994733140450625 0  0.3115918763870818 0.6148530773137262 0  0.2648194024404362 0.6297635983422224 0  0.2173032637709556 0.6438459722311184 0  0.1689786101598906 0.6567241759497389 0  0.1198545520219979 0.6675641284567168 0  0.07005003111360161 0.6759483110225759 0  0.01972877976277402 0.6814700743071419 0  0.7105049870233063 0.4903773517484848 0  -0.08173520458913569 0.6824609399034461 0  -0.1321520773097278 0.6770444902325112 0  -0.1819037606138552 0.6680725391576252 0  -0.2306343150990683 0.6556702246834993 0  -0.2783952051868399 0.6421219025358887 0  -0.3253600584077727 0.6275289187618913 0  -0.3715972798793428 0.61220769843501 0  -0.4171430494818959 0.5964504676649554 0  -0.4621568423293049 0.5809833096094876 0  -0.506728472806441 0.5658080986660586 0  -0.5509185618632096 0.5510893697880457 0  -0.5947724777426234 0.5369930404262895 0  -0.6383129115611905 0.5236817740724293 0  -0.6815680906368963 0.5114270476964144 0  -0.7245836621435815 0.5006536119543046 0  -0.7457467675438365 0.4966183574280659 0  -0.7030428777470705 0.5060181698818084 0  -0.6165796468029329 0.5302249533489061 0  -0.5288681095416492 0.5583826724904785 0  -0.4397096514063183 0.5886958486830964 0  -0.3485658063046201 0.6199380391806864 0  -0.2546203800474505 0.6490599759875693 0  -0.1571309300805445 0.6729554736285448 0  -0.05637227830633289 0.6837270452682256 0  0.04494296606070459 0.6790986212584662 0  0.1445107805213636 0.6624135618337603 0  0.2411568277684796 0.6369335372855692 0  0.3347173166491192 0.6072058852765021 0  0.425690981228741 0.5762835751765124 0  0.5147696617719758 0.5464552682496395 0  0.6024467911713065 0.5190909281489845 0  0.6889445321079222 0.4956286778344254 0  -0.6599696968153316 0.5174490147734935 0  -0.5728844649712271 0.5439573793439473 0  -0.4844935965327293 0.5733482651217864 0  -0.3944588758255103 0.6043233790512597 0  -0.3019723603418392 0.6349362156474836 0  -0.2064471911208436 0.6621700045494682 0  -0.1070079952559689 0.6802135587758025 0  -0.005561292713398874 0.6832221992835235 0  0.0950282410865709 0.6720909193799128 0  0.1932536190523399 0.6504970959195523 0  0.2882947513469151 0.6223885799974818 0  0.3804897908188317 0.5916970369981809 0  0.470431561232932 0.5611564065314214 0  0.5587530066397265 0.5323298160730124 0  0.6458602438760009 0.5067273795207301 0  -0.9129416230811112 0.3034885533161376 0  -0.8115401060044712 0.4762094967988814 0  -0.8670350995427003 0.4334501069485751 0  -0.9027088176430547 0.373215637860367 0  -0.7788474523180302 0.4867216276724073 0  -0.8398784734130901 0.4555601418718302 0  -0.8840995767101508 0.4027025023557267 0  -0.9073543510848272 0.3380793135422708 0  -0.7624443110515395 0.492400195613798 0  -0.7951319716942766 0.4811675660741427 0  -0.8257478392500728 0.4660109577033998 0  -0.853104652859981 0.4439009186568086 0  -0.8761903184664466 0.4183960909563966 0  -0.8930950742564492 0.3878672748205857 0  -0.9047653495128855 0.3555305697822675 0  -0.9098487544569176 0.3207188577916377 0  -0.9120982128737135 0.2809621335971441 0  -0.9094876513165923 -0.2137726098397746 0  -0.9094870084670822 -0.1690768994015387 0  -0.9103958868219758 -0.1243394017809425 0  -0.9117602412935063 -0.07946727120853957 0  -0.913377252899967 -0.03437834461129645 0  -0.9142801151726992 0.01089994020116337 0  -0.9144908950665482 0.05622216097771509 0  -0.9140172724073655 0.1014980714307358 0  -0.9128588772260539 0.146587593516135 0  -0.9119644945521843 0.1914661362517558 0  -0.9115517527197182 0.2362225342398602 0  -0.9100956881864795 -0.2362520848262714 0  -0.9093373767635632 -0.1914218728748958 0  -0.9110403331470032 -0.1019242978913065 0  -0.9139172728244446 -0.01175096423283353 0  -0.9143413109471944 0.07887196095952759 0  -0.9123713018146243 0.1690468382239036 0  -0.9116661289963645 0.2585852883741333 0  -0.9098702954992565 -0.1467206231357124 0  -0.9125992937227118 -0.05696366659618086 0  -0.9144688166832091 0.03356124788321019 0  -0.9134657756601966 0.1240824088678341 0  -0.911684502076492 0.2138544632933401 0  -0.8990450728439058 -0.3057233452530386 0  -0.8624902654487919 -0.3653556789993461 0  -0.8062397524846527 -0.4070765578482217 0  -0.9041675668665412 -0.2707568332780048 0  -0.8800878993878318 -0.335013220792689 0  -0.834930933556588 -0.3869877257491752 0  -0.7732215078377329 -0.4168357361922724 0  -0.9068757587859789 -0.2534508465952058 0  -0.901361797166287
[...]
<PointData  Vectors="f_2733"> 
<DataArray  type="Float64"  Name="f_2733"  NumberOfComponents="3" format="ascii">1.1553239753150993e-02 3.8137975881861616e-02 0.0000000000000000e+00  -1.4538887997927907e-04 7.1473320351120195e-02 0.0000000000000000e+00  3.1454459246799188e-03 6.9965633676938005e-02 0.0000000000000000e+00  5.7251210930993352e-03 6.6651676928951409e-02 0.0000000000000000e+00  6.6846775847355768e-03 5.8548405235755795e-02 0.0000000000000000e+00  4.9295478832175723e-03 3.0266529019650174e-02 0.0000000000000000e+00  6.8948157558184299e-03 3.1518342191349878e-02 0.0000000000000000e+00  7.2475210365330420e-03 2.7928806946560365e-02 0.0000000000000000e+00  5.8971867774461322e-03 2.0196754645161456e-02 0.0000000000000000e+00  -3.5569758573234743e-03 7.0867697220048917e-02 0.0000000000000000e+00  7.3204782929514644e-03 2.4327664224074619e-02 0.0000000000000000e+00  6.2045855839368133e-03 2.0734991122509705e-02 0.0000000000000000e+00  4.5722772726483445e-03 1.5636230961507739e-02 0.0000000000000000e+00  2.7811226411910092e-03 1.0080059582242297e-02 0.0000000000000000e+00  9.1584446014487074e-04 3.6021024239611373e-03 0.0000000000000000e+00  3.2490083619535893e-03 1.4255985690851932e-02 0.0000000000000000e+00  8.2988011111123881e-03 4.3155898746572656e-02 0.0000000000000000e+00  3.0772336585645314e-02 -1.6886103613670650e-01 0.0000000000000000e+00  -6.5418133880392037e-03 6.8137468941030954e-02 0.0000000000000000e+00  -8.6835137397693711e-03 6.2819321532797331e-02 0.0000000000000000e+00  -9.7210908383553573e-03 5.5532234991097960e-02 0.0000000000000000e+00  -9.2605645904717347e-03 4.5491034144495554e-02 0.0000000000000000e+00  -8.0598763323979587e-03 3.6114488319328848e-02 0.0000000000000000e+00  -6.3918610678314310e-03 2.6960542371137208e-02 0.0000000000000000e+00  -4.5087630451303715e-03 1.8336050339722885e-02 0.0000000000000000e+00  -3.0635136558569928e-03 1.2341077532451278e-02 0.0000000000000000e+00  -1.6102194011831132e-03 6.4878480142591538e-03 0.0000000000000000e+00  -2.0694766329921888e-04 8.4733586925175462e-04 0.0000000000000000e+00  1.1181844776929912e-03 -4.6627587521720993e-03 0.0000000000000000e+00  2.5983572560730811e-03 -1.1293133775732688e-02 0.0000000000000000e+00  2.7847835310065038e-03 -1.2717703637124256e-02 0.0000000000000000e+00  1.0855214664277971e-03 -5.0900170135338612e-03 0.0000000000000000e+00  -7.4026939651576449e-03 4.5744157996679406e-02 0.0000000000000000e+00  6.3355284739025066e-03 -3.5115341843683680e-02 0.0000000000000000e+00  -4.8163495688025339e-03 -2.2645086214898157e-02 0.0000000000000000e+00  6.4556676852909180e-04 2.3708177723699574e-03 0.0000000000000000e+00  5.1481447046275780e-03 1.7349239973456172e-02 0.0000000000000000e+00  8.7617008441531977e-03 2.9312242381598238e-02 0.0000000000000000e+00  7.4416466362193677e-03 2.6951050264755819e-02 0.0000000000000000e+00  6.4705934092972482e-03 3.3226563486391643e-02 0.0000000000000000e+00  6.6035964968190562e-03 6.4136866568306528e-02 0.0000000000000000e+00  1.5558019263786902e-03 7.0896793098843641e-02 0.0000000000000000e+00  4.5334796582033815e-03 -2.1734719596949937e-02 0.0000000000000000e+00  -9.3238563228582975e-03 5.9237235764243328e-02 0.0000000000000000e+00  -8.8056723147140019e-03 4.1127172313353354e-02 0.0000000000000000e+00  -5.4552178141842227e-03 2.2524694745936689e-02 0.0000000000000000e+00  -2.2249165689802639e-03 8.9379830124294134e-03 0.0000000000000000e+00  7.1289652629828845e-04 -2.9422665986558257e-03 0.0000000000000000e+00  3.1223097225454174e-03 -1.3860118122014205e-02 0.0000000000000000e+00  -5.1286658523332805e-03 6.9870393275400192e-02 0.0000000000000000e+00  -2.4061920791804255e-02 -1.2178337417378446e-01 0.0000000000000000e+00  1.4199573454927092e-03 -6.0724454702590375e-03 0.0000000000000000e+00  -7.8570792747670640e-04 3.1804040249984161e-03 0.0000000000000000e+00  -4.0598685040646315e-03 1.6426093288099738e-02 0.0000000000000000e+00  -7.2396375897437176e-03 3.1364130383938559e-02 0.0000000000000000e+00  -9.6996532981015963e-03 5.0832649389430065e-02 0.0000000000000000e+00  -7.7438556545270454e-03 6.5784318004934769e-02 0.0000000000000000e+00  -1.8800552294962122e-03 7.1417059041524511e-02 0.0000000000000000e+00  4.5725522052796341e-03 6.8751356541036562e-02 0.0000000000000000e+00  5.2467699184343972e-03 4.0999205020779680e-02 0.0000000000000000e+00  7.1711998857866147e-03 2.9798086640165974e-02 0.0000000000000000e+00  8.4589241382460878e-03 2.7523777301480937e-02 0.0000000000000000e+00  6.9149426010586754e-03 2.2986635876443871e-02 0.0000000000000000e+00  4.7022465468469022e-03 1.6534474160937441e-02 0.0000000000000000e+00  -1.8277682319176071e-03 -7.4626978400694956e-03 0.0000000000000000e+00  2.1600275498676217e-02 -9.6401582661094628e-04 0.0000000000000000e+00  5.4244965922952852e-02 -1.0868777831671238e-01 0.0000000000000000e+00  6.7736036753463028e-02 -4.8961141191880386e-02 0.0000000000000000e+00  -1.0798744921391838e-01 4.3945240328286797e-02 0.0000000000000000e+00  2.7893503633662872e-02 -9.2928865445153996e-02 0.0000000000000000e+00  2.0135436076319901e-02 -2.6416245752125488e-02 0.0000000000000000e+00  7.7848970319866900e-02 -4.4887522356253165e-02 0.0000000000000000e+00  3.6897224766212530e-02 -6.2617061550305714e-03 0.0000000000000000e+00  1.7051119918904484e-02 -6.7246002520789494e-02 0.0000000000000000e+00  -3.7403138259328471e-02 1.1742824201831636e-01 0.0000000000000000e+00  5.7779606369209285e-02 -8.9114716898398727e-02 0.0000000000000000e+00  -5.7397618995072529e-02 6.8298384912191923e-02 0.0000000000000000e+00  -3.7455089119435202e-02 2.3029567211598621e-02 0.0000000000000000e+00  -9.3025293845777748e-02 5.6024972609867885e-02 0.0000000000000000e+00  1.7624197828921556e-01 -2.8611717655232856e-02 0.0000000000000000e+00  1.2393783125625644e-02 -3.0745101642632726e-03 0.0000000000000000e+00  8.9705370763159098e-02 -7.7291054248090709e-05 0.0000000000000000e+00  6.9807914054357781e-02 -1.8498189368282348e-03 0.0000000000000000e+00  3.7330958108518400e-02 -1.3723700359608492e-04 0.0000000000000000e+00  2.8259204135001534e-02 3.0717166221759257e-04 0.0000000000000000e+00  2.4651976788347931e-02 4.9556741316858510e-04 0.0000000000000000e+00  2.2522575641018849e-02 3.3837188181830383e-04 0.0000000000000000e+00  2.2538569411181694e-02 -6.0153710234706210e-05 0.0000000000000000e+00  2.2588779808687180e-02 -4.1723485354672104e-04 0.0000000000000000e+00  2.2669765747792378e-02 -8.1924366025630589e-04 0.0000000000000000e+00  2.5220897686821703e-02 -1.0560027471389470e-03 0.0000000000000000e+00  2.9517934884128284e-02 -9.9310868877737751e-04 0.0000000000000000e+00  4.1147769553181904e-02 -8.2469014486564757e-04 0.0000000000000000e+00  3.2594849794350587e-02 1.7065747649330635e-03 0.0000000000000000e+00  3.9330538653115948e-02 -6.0660550206226185e-04 0.0000000000000000e+00  2.5604315184358375e-02 3.9757815582593098e-04 0.0000000000000000e+00  2.2937730626800424e-02 1.2333042307978158e-04 0.0000000000000000e+00  2.3081314711805197e-02 -6.1396038573917344e-04 0.0000000000000000e+00  2.6507934477254885e-02 -1.0029160124231987e-03 0.0000000000000000e+00  3.9003099173941083e-02 -3.5833831184783237e-04 0.0000000000000000e+00  3.1173164709454533e-02 1.5071664694852734e-04 0.0000000000000000e+00  2.3453510474017121e-02 5.0603545190452731e-04 0.0000000000000000e+00  2.2492470443772526e-02 -2.3790892963844589e-04 0.0000000000000000e+00  2.2927164104252863e-02 -9.8502342924830922e-04 0.0000000000000000e+00  3.2223050702602521e-02 -9.0486596956267616e-04 0.0000000000000000e+00  2.2735564412739079e-02 1.0752843507065259e-01 0.0000000000000000e+00  -6.1142477922221883e-02 -2.3474245222086545e-02 0.0000000000000000e+00  5.9358435547586144e-02 4.2356807473495621e-02 0.0000000000000000e+00  5.0769532422161721e-02 9.6299339157524366e-02 0.0000000000000000e+00  4.1923505936199645e-02 6.1300237871770502e-03 0.0000000000000000e+00  6.7514067833892771e-02 3.7149013166657863e-02 0.0000000000000000e+00  2.2743616032090783e-02 2.8311940744060127e-02 0.0000000000000000e+00  2.8994813354296649e-02 8.9172187507419329e-02 0.0000000000000000e+00  2.7335807076604320e-02 4.7471274868685180e-03 0.0000000000000000e+00  1.3279427055391896e-01 1.8408408952613083e-02 0.0000000000000000e+00  -5.3643403030891559e-02 -2.9857952449082965e-02 0.0000000000000000e+00  -2.4535474036922841e-02 -1.4897098645488105e-02 0.0000000000000000e+00  -3.8983878826750598e-02 -4.2809597487094488e-02 0.0000000000000000e+00  5.3089062548744612e-02 7.7786263660124283e-02 0.0000000000000000e+00  -3.0033483751341333e-02 -8.5262850980234728e-02 0.0000000000000000e+00  2.0616367540112375e-02 7.3508641864665145e-02 0.0000000000000000e+00  -5.6018470362522571e-04 -5.7492424134706788e-02 0.0000000000000000e+00  -1.7304475696364508e-03 -7.1573295885536993e-03 0.0000000000000000e+00  1.9918184638766062e-03 6.9066540331644243e-03 0.0000000000000000e+00  1.0788491870991229e-03 3.5543556888061206e-03 0.0000000000000000e+00  4.9003840898464795e-04 1.5190523361408102e-03 0.0000000000000000e+00  -6.1502574263483736e-04 -1.8580819778893408e-03 0.0000000000000000e+00  -1.6875906882258733e-03 -4.9923952298820641e-03 0.0000000000000000e+00  -3.3565336077871297e-03 -9.8441870252182120e-03 0.0000000000000000e+00  -4.6947552735506024e-03 -1.3857980825275461e-02 0.0000000000000000e+00  -7.1353604312018194e-03 -2.1819985003741830e-02 0.0000000000000000e+00  -9.6499701004634716e-03 -3.1283332919915384e-02 0.0000000000000000e+00  -1.1421677869855944e-02 -4.0366061842944306e-02 0.0000000000000000e+00  -1.3236836417119979e-02 -5.4198300784696320e-02 0.0000000000000000e+00  -1.1602825022880419e-02 -5.9373992387878910e-02 0.0000000000000000e+00  -8.5660127600038303e-03 -6.1242501524577928e-02 0.0000000000000000e+00  -4.6364377828910239e-03 -5.7008439223148168e-02 0.0000000000000000e+00  -6.4405315320752443e-03 -3.0601235546832833e-02 0.0000000000000000e+00  3.3813979685760648e-03 -4.8788252588538417e-02 0.0000000000000000e+00  6.4902357025367037e-03 -4.4876883862045032e-02 0.0000000000000000e+00  9.6438260353115361e-03 -4.4231499490820503e-02 0.0000000000000000e+00  1.2682730826575573e-02 -4.6652946936893973e-02 0.0000000000000000e+00  1.3333341966902446e-02 -4.4705381184907370e-02 0.0000000000000000e+00  1.2960248813956224e-02 -4.0267122637411300e-02 0.0000000000000000e+00  1.2012063869011184e-02 -3.5316480636569982e-02 0.0000000000000000e+00  1.1955696745207266e-02 -3.4623073256723293e-02 0.0000000000000000e+00  9.5760971723014583e-03 -2.7944829452187573e-02 0.0000000000000000e+00  7.4406043155777826e-03 -2.2064783492410724e-02 0.0000000000000000e+00  5.1672593971987153e-03 -1.5772515821160335e-02 0.0000000000000000e+00  2.8227116475615273e-03 -8.9953119778476646e-03 0.0000000000000000e+00  1.4416946925617192e-03 -4.9683888872668570e-03 0.0000000000000000e+00  2.8357889480533048e-03 -1.1071020839372198e-02 0.0000000000000000e+00  8.0844512645691924e-03 -3.7105348055594831e-02 0.0000000000000000e+00  -2.6237309172524193e-02 1.1676073166026678e-01 0.0000000000000000e+00  -4.7139985756540900e-03 1.9678619973047314e-02 0.0000000000000000e+00  1.5840015483667425e-03 -5.1652542783229413e-03 0.0000000000000000e+00  6.2804354587828225e-03 -1.8857609048278039e-02 0.0000000000000000e+00  1.0812762323974731e-02 -3.1467024165700401e-02 0.0000000000000000e+00  1.2577015495407948e-02 -3.7950143169026299e-02 0.0000000000000000e+00  1.3417158636314801e-02 -4.7294131581190502e-02 0.0000000000000000e+00  7.8350536604631840e-03 -4.3362078924786801e-02 0.0000000000000000e+00  1.5721708280526528e-03 -5.1048844567940621e-02 0.0000000000000000e+00  -6.7174843388525815e-03 -6.1117935962872530e-02 0.0000000000000000e+00  -1.2366069009340652e-02 -5.6038453707951137e-02 0.0000000000000000e+00  -1.0903316727378862e-02 -3.6803546502690736e-02 0.0000000000000000e+00  -5.9297548891898005e-03 -1.7772969890393352e-02 0.0000000000000000e+00  -2.4523500166612738e-03 -7.2163261589545868e-03 0.0000000000000000e+00  1.6229244696885753e-05 4.9015592305053471e-05 0.0000000000000000e+00  2.8817499128345162e-03 9.8140413939565921e-03 0.0000000000000000e+00  6.9243805133884810e-03 2.9329785453848317e-02 0.0000000000000000e+00  -1.4183215800012069e-03 5.1673166006499733e-03 0.0000000000000000e+00  3.9561766626062212e-03 -1.2306739747926166e-02 0.0000000000000000e+00  8.6011840863102606e-03 -2.5264815472171229e-02 0.0000000000000000e+00  1.1963480146063127e-02 -3.4579282438304215e-02 0.0000000000000000e+00  1.3271680337487197e-02 -4.2713739315170876e-02 0.0000000000000000e+00  1.2415347679807261e-02 -4.8751040401123588e-02 0.0000000000000000e+00  4.9449041267112916e-03 -4.6072743230112838e-02 0.0000000000000000e+00  -3.1600180629530548e-03 -6.2243496479439962e-02 0.0000000000000000e+00  -1.0171437456054337e-02 -6.0429129373279489e-02 0.0000000000000000e+00  -1.3029081773259357e-02 -4.8950076621656680e-02 0.0000000000000000e+00  -8.4248198707929586e-03 -2.6435694839406394e-02 0.0000000000000000e+00  -3.9423010775505698e-03 -1.1551716092051606e-02 0.0000000000000000e+00  -1.0517442038961711e-03 -3.1364261046501253e-03 0.0000000000000000e+00  2.4701166089323673e-04 7.8327235009428809e-04 0.0000000000000000e+00  4.7601283312981068e-03 1.7514421857796905e-02 0.0000000000000000e+00  -3.0884081265462614e-02 1.7484498790652156e-03 0.0000000000000000e+00  -4.8263587683216126e-02 8.9746231591552997e-02 0.0000000000000000e+00  -5.8487997175661569e-02 4.1771143349092418e-02 0.0000000000000000e+00  5.8125794041997088e-02 -2.2161523387859431e-02 0.0000000000000000e+00  -2.7261257747437245e-02 8.0552224782647203e-02 0.0000000000000000e+00  -2.2189204979209988e-02 2.7336156631663520e-02 0.0000000000000000e+00  -6.4194317356061417e-02 3.4924556360076887e-02 0.0000000000000000e+00  -3.9384851775553897e-02 5.7631572598969491e-03 0.0000000000000000e+00  -1.8280875396040664e-02 6.2001914333000251e-02 0.0000000000000000e+00  3.0032372434088718e-02 -8.3186229957791222e-02 0.0000000000000000e+00  -5.1125468356493280e-02 7.3450246410174197e-02 0.0000000000000000e+00  3.5837701911906258e-02 -3.8940286948205276e-02 0.0000000000000000e+00  2.2054007799551630e-02 -1.3222170244439370e-02 0.0000000000000000e+00  5.0576407051401970e-02 -2.7983136479034942e-02 0.0000000000000000e+00  -1.2626117380982177e-01 1.7269473936874242e-02 0.0000000000000000e+00  -2.5512839199497674e-02 4.4746158260987401e-03 0.0000000000000000e+00  -6.2962024555269530e-02 -1.4761613956369485e-03 0.0000000000000000e+00  -7.2827645155533971e-02 7.6788640908620790e-04 0.0000000000000000e+00  -3.2146774329469309e-02 -3.7958775348792301e-04 0.0000000000000000e+00  -2.0751929104764099e-02 -5.4071610133771730e-04 0.0000000000000000e+00  -1.5642616835271010e-02 -5.4049239047606799e-04 0.0000000000000000e+00  -1.3274504050878275e-02 -3.8716550998673239e-04 0.0000000000000000e+00  -1.2652505414190662e-02 -1.5415961741544750e-04 0.0000000000000000e+00  -1.2554152567795768e-02 3.5549820291535653e-05 0.0000000000000000e+00  -1.3021533888987649e-02 2.5282391101432149e-04 0.0000000000000000e+00  -1.5096235639443838e-02 3.6579218150229489e-04 0.0000000000000000e+00  -1.9861720156120793e-02 3.0333361823904902e-04 0.0000000000000000e+00  -3.0122339977368410e-02 9.9815382875527980e-06 0.0000000000000000e+00  -2.6771987233002788e-02 -1.4833211443501179e-03 0.0000000000000000e+00  -3.3593935222461152e-02 -1.1756788040561487e-05 0.0000000000000000e+00  -1.7463852308638679e-02 -5.3116527404292865e-04 0.0000000000000000e+00  -1.3237751137435444e-02 -2.6373866875736347e-04 0.0000000000000000e+00  -1.3018738179364222e-02 1.3563531793051695e-04 0.0000000000000000e+00  -1.6756094845066852e-02 3.3390004840317712e-04 0.0000000000000000e+00  -3.3063218367153882e-02 -3.9453317268481271e-04 0.0000000000000000e+00  -2.4249625891351323e-02 -4.8969054032194678e-04 0.0000000000000000e+00  -1.3791597569260239e-02 -4.9291350688485656e-04 0.0000000000000000e+00  -1.2486291373215701e-02 -5.8113288400599278e-05 0.0000000000000000e+00  -1.3698341909308078e-02 3.4991599776589124e-04 0.0000000000000000e+00  -2.3351376974083720e-02 2.1254256509967680e-04 0.0000000000000000e+00  6.6041553078674889e-02 2.6294838026104800e-02 0.0000000000000000e+00  -5.8051819402266787e-02 -4.1399052804162027e-02 0.0000000000000000e+00  -5.0092559126182351e-02 -9.7839729237095316e-02 0.0000000000000000e+00  -3.7790616442047210e-02 -6.0285644987967454e-03 0.0000000000000000e+00  -6.5423256819591630e-02 -3.7079138929702361e-02 0.0000000000000000e+00  -2.0795672141141520e-02 -2.6624509804279425e-02 0.0000000000000000e+00  -2.6191914703016558e-02 -8.4885918938724492e-02 0.0000000000000000e+00  -2.1331972041041529e-02 -4.1646267016536504e-03 0.0000000000000000e+00  -1.3956698717168370e-01 -2.1291596140068907e-02 0.0000000000000000e+00  5.9306604814412030e-02 3.4102420051123655e-02 0.0000000000000000e+00  2.2595470878051738e-02 1.4074418758320141e-02 0.0000000000000000e+00  4.2879902479741737e-02 4.8847930380747209e-02 0.0000000000000000e+00  -5.3367487801192562e-02 -7.9915058225105626e-02 0.0000000000000000e+00  3.0343771182722998e-02 9.0872588647342198e-02 0.0000000000000000e+00  -1.7792316157012222e-02 -6.7190694093546874e-02 0.0000000000000000e+00  9.0450227736781913e-09 -2.9294393768970249e-08 0.0000000000000000e+00  -4.9878542472375687e-09 2.1840909065216016e-08 0.0000000000000000e+00  3.0838520046674829e-09 4.7981166858848274e-08 0.0000000000000000e+00  4.5934975084136882e-09 1.5302265932178822e-08 0.0000000000000000e+00  -6.5435778585635720e-10 -1.9400003440130363e-09 0.0000000000000000e+00  -6.0950178628578733e-09 -3.6671409121520514e-08 0.0000000000000000e+00  1.8932446089670362e-08 -4.9309521773333331e-10 0.0000000000000000e+00  -1.4028405703566805e-08 9.2247232529233655e-11 0.0000000000000000e+00  -1.4965107419834060e-08 -2.6382062137243501e-10 0.0000000000000000e+00  1.8849426098409402e-08 5.5777969666047662e-11 0.0000000000000000e+00  2.6144144091242240e-09 9.4643052306558339e-09 0.0000000000000000e+00  1.4906662213840075e-15 3.9007952363312358e-15 0.0000000000000000e+00  -3.5989784548001786e-15 -1.0678552503071601e-14 0.0000000000000000e+00  3.0126193571100459e-20 -2.2725346568368113e-22 0.0000000000000000e+00  -1.6091423957468851e-20 5.3503535730422690e-22 0.0000000000000000e+00  2.9981744364515235e-14 -3.3240862095222410e-16 0.0000000000000000e+00  -9.8858630910022221e-15 -3.8544111338748766e-14 0.0000000000000000e+00  -1.7455122239219761e-20 -4.9935193497996206e-21 0.0000000000000000e+00  -2.1665146793745632e-15 -4.7363311727371750e-14 0.0000000000000000e+00  1.4404706062259784e-20 9.5523631039698773e-21 0.0000000000000000e+00  8.7549410613251609e-15 -3.6321103023177251e-14 0.0000000000000000e+00  1.0354266753484229e-16 4.3985355757679057e-16 0.0000000000000000e+00  2.5600065836423454e-20 -3.2325323994557087e-20 0.0000000000000000e+00  -6.0713310060040750e-10 -2.3629175474141631e-09 0.0000000000000000e+00  2.2864483507882841e-15 8.7770194339128385e-15 0.0000000000000000e+00  -1.8792318914492397e-14 -1.0099514822099340e-16 0.0000000000000000e+00  2.4131815601888596e-15 -8.1394855120701005e-15 0.0000000000000000e+00  2.5547178601820679e-09 -1.2124219694677308e-08 0.0000000000000000e+00  3.4458803338733693e-09 -3.2875250953062641e-08 0.0000000000000000e+00  -5.0648465606508132e-10 1.7818852582177338e-09 0.0000000000000000e+00  5.5862278074856282e-09 -1.6418690936446708e-08 0.0000000000000000e+00  -5.6026975624943102e-09 -1.7792224067444671e-08 0.0000000000000000e+00  -3.3464747794731143e-15 1.3667808559415095e-14 0.0000000000000000e+00  -5.1150015979601341e-09 4.4263205883032397e-08 0.0000000000000000e+00  5.6454353352207847e-09 2.3819813120920949e-08 0.0000000000000000e+00  1.7146478753595551e-15 -5.9936158651854877e-15 0.0000000000000000e+00  9.2489820128042935e-15 3.1188812889001638e-14 0.0000000000000000e+00  -7.6136918872462511e-21 -2.6118005426407219e-21 0.0000000000000000e+00  -6.0106052330589694e-10 2.4225736581962098e-09 0.0000000000000000e+00  -3.0117133346971784e-08 4.1507518748424186e-08 0.0000000000000000e+00  -8.1072222