<?xml version="1.0"?>
<VTKFile type="UnstructuredGrid"  version="0.1"  >
<UnstructuredGrid>
<Piece  NumberOfPoints="4153" NumberOfCells="8064">
<Points>
<DataArray  type="Float64"  NumberOfComponents="3"  format="ascii">-0.4105971729232579 -0.6047210337508441 0  -0.02990166927853163 -0.7413687006237802 0  -0.08189616749154126 -0.7385771197129661 0  -0.1332252616802942 -0.7308408627470149 0  -0.1834984908942803 -0.7187376471661028 0  -0.232719705904615 -0.7034687597012371 0  -0.2803225595714795 -0.6831496128861965 0  -0.3258264944530659 -0.6593304582617397 0  -0.3692510140355209 -0.6330819282454438 0  0.02218365609941639 -0.7389184055070519 0  -0.4500200267067439 -0.5763634314995447 0  -0.4880924167960412 -0.5480171756743722 0  -0.5248821336254652 -0.5199619681719165 0  -0.5605642928237778 -0.4926328375114888 0  -0.5954962354272287 -0.466636938761186 0  -0.6298472899177764 -0.4422426289574947 0  -0.6637918406274834 -0.4203318266138185 0  0.659617410796742 -0.4098302449391787 0  0.0737444980356409 -0.7313329496572966 0  0.1242045963668633 -0.7189210543295295 0  0.1730847593578795 -0.7022404793871151 0  0.2200351501978463 -0.6819401555806365 0  0.2649779835397322 -0.6591422830337109 0  0.3079846426840902 -0.6345612350761124 0  0.3492178585538661 -0.6088867892479034 0  0.3888634111724304 -0.5826902829741039 0  0.4272681909610447 -0.5565854819598985 0  0.4646614336271319 -0.530897300163876 0  0.5012617053364196 -0.505892278309133 0  0.5372183572144457 -0.4818395689942749 0  0.5727060709663619 -0.4588629053740091 0  0.6078104109162452 -0.437344145949426 0  0.6427010250150592 -0.4180163814453252 0  0.6250953136230607 -0.4276499819618321 0  -0.6466271913576969 -0.4311439950422488 0  -0.5781029810712988 -0.4795345580711576 0  -0.5066265669934359 -0.5339304463684613 0  -0.4304512132432003 -0.5905089245679158 0  -0.3477948788916674 -0.6463615080066571 0  -0.2567780116592184 -0.6938388190310814 0  -0.1585054537185486 -0.7253662376923206 0  -0.05594943263330013 -0.7406191077875985 0  0.5902622650691735 -0.4480577919921344 0  0.1488658549946676 -0.7110639698399007 0  0.2427562894631331 -0.6708138662105118 0  0.3288035422706493 -0.6218295628882229 0  0.4082105407767753 -0.5696134281415233 0  0.4830429217857627 -0.5183113671034207 0  0.5550249850302911 -0.4702654914381246 0  0.0480669957445819 -0.7357535626924933 0  -0.6801955551744194 -0.4109222469306993 0  0.5192985799763838 -0.4937272083689779 0  0.4460747461482261 -0.5436788241426999 0  0.369218227350178 -0.5957931157059672 0  0.2867150994820045 -0.647038423196464 0  0.196822419661346 -0.6924830862483472 0  0.09914517710780647 -0.7257003416199548 0  -0.003830748476493989 -0.7408021449185164 0  -0.1076738712740898 -0.7353088064308417 0  -0.2081482144392589 -0.7115145010275792 0  -0.3033223417216461 -0.6715463747980306 0  -0.3903456920806329 -0.6192858276635491 0  -0.4692296675361796 -0.5621924720832618 0  -0.5428554838500799 -0.5061780939487879 0  -0.6126823897958824 -0.454371976185542 0  0.7967242844202833 -0.2246632418298483 0  0.7136910696393897 -0.383159087176704 0  0.7598848821323514 -0.3415073280763494 0  0.7892348483016162 -0.287118792755688 0  0.6871115272926503 -0.3971130120953923 0  0.7378183741369779 -0.3636561820076565 0  0.7729811674724544 -0.3130730914628908 0  0.7920205909433846 -0.2554875046167104 0  0.6735045706946553 -0.4042971583238041 0  0.7003449583593476 -0.3895060443172274 0  0.7258681262290723 -0.3736088979180928 0  0.7484990744543928 -0.3517996675657405 0  0.7682959120903887 -0.3282976292759566 0  0.7803487447167506 -0.2999108479991441 0  0.7898360360869402 -0.2710708757075982 0  0.7937903716374402 -0.2399470526284664 0  0.7959166781625219 -0.2045420834738726 0  0.7984587112923475 0.2407862819028636 0  0.7982891484245322 0.2010305498216852 0  0.7995517766300581 0.161067741664415 0  0.8014184649218595 0.120762353485099 0  0.8036333550106424 0.07999872442678632 0  0.8045656468771394 0.03883734555246188 0  0.8042944888777296 -0.002424973336052304 0  0.8028203866651127 -0.0435912314621085 0  0.8001257218210062 -0.08435931158012937 0  0.7978057097654213 -0.1247013479697407 0  0.7961114076851462 -0.1647152018510797 0  0.7996703468338757 0.260831670330949 0  0.798145144518702 0.2209213430681446 0  0.8004459960362337 0.1409638639778688 0  0.8042504641226362 0.05944411346190819 0  0.8037115577221612 -0.02303330628165224 0  0.7989293266750851 -0.1045788422416738 0  0.7957831799317459 -0.184642205296411 0  0.7988225652430111 0.1810864066517604 0  0.8025823640645736 0.1004639788661301 0  0.8045754408203535 0.01820661440105897 0  0.8015118663664942 -0.06405523956122761 0  0.7968599080386439 -0.1447447595416291 0  0.6671090382763607 0.447537346770581 0  0.7932833122988253 0.3233270476996717 0  0.7650449011397497 0.378165440602512 0  0.7200435931436702 0.4204243942694744 0  0.7956705718870255 0.2916930850956618 0  0.7779123954199216 0.3497260380843274 0  0.7435875464201667 0.4005189724732184 0  0.6939422402127428 0.4345356882592435 0  0.7972011396519982 0.2761616969996069 0  0.7938204767766273 0.3073026027921745 0  0.7849435587120277 0.3363500280357926 0  0.7730457572107485 0.3647579596389703 0  0.7539627956376235 0.3885713694921586 0  0.7319105454035336 0.4106276818041037 0  0.7069336375104444 0.426909866743608 0  0.6805753985424845 0.441661764410916 0  -0.02769631688837457 0.8169908457081876 0  0.6170242956372226 0.4771892812676271 0  0.5831173943316111 0.5004923328325405 0  0.5488736155106795 0.525571080318693 0  0.5141554815627755 0.5522396455395385 0  0.4786570866358761 0.5800946439591862 0  0.4421550359251523 0.6088364079512307 0  0.4043920956593926 0.6381674903765981 0  0.3650189815347344 0.6677461069450008 0  0.3236232667580712 0.6967121152355378 0  0.2799860045218191 0.7244464425978223 0  0.233933604652093 0.7501516044950338 0  0.1853977335542982 0.7730943616873078 0  0.1344809542842349 0.7918761099590995 0  0.08160386956730784 0.8057822675533718 0  0.0273394034883961 0.8141441131402926 0  0.6507365266906465 0.4564090200966483 0  -0.08265330568279472 0.8129480957404734 0  -0.1366289503267222 0.8028313415684895 0  -0.1889485286612868 0.7872827661750745 0  -0.2388958509167171 0.7662513763588912 0  -0.2865534614560314 0.7428929749104893 0  -0.3319291734440216 0.7170260615233094 0  -0.3750993254016148 0.6893390174921157 0  -0.4161280157708836 0.6602729234967317 0  -0.4553524788653608 0.6311096549822165 0  -0.4931203823266612 0.6021006386307408 0  -0.5296406776667659 0.5735820922928271 0  -0.5651257524905366 0.5459009499189915 0  -0.5997694416022471 0.5193679594789349 0  -0.6338002663746796 0.4945262813050644 0  -0.6674671846652804 0.4722328848049147 0  -0.6837588017622002 0.4627313647947004 0  -0.6504736325812079 0.4832661086896975 0  -0.5825454592987515 0.5325251291228658 0  -0.5115235717285409 0.5877653204433825 0  -0.4359261091056096 0.6456842984385318 0  -0.35377758502783 0.7033400846601359 0  -0.2630098116878664 0.7549432583981979 0  -0.1630221325718267 0.7955786076281499 0  -0.05523938882469027 0.815725800009049 0  0.05461149617214747 0.8107203356544649 0  0.1602149440729163 0.7830198501437985 0  0.2572670908542522 0.7376063674540111 0  0.3445818158953492 0.6823323250210446 0  0.4234480079443965 0.6234483278083056 0  0.4965127561351348 0.5660419608109004 0  0.5660375174803104 0.5129002808693158 0  0.6336787557138517 0.4666414965398793 0  -0.6168122213095868 0.5068626649990122 0  -0.5474990473580978 0.5596321002797535 0  -0.4744067507034411 0.6165672302566565 0  -0.3959102131115364 0.6749413872615768 0  -0.3095207119722671 0.7302207935546503 0  -0.2143624604479181 0.7774494509775791 0  -0.1098072029139633 0.8085967630666335 0  -8.573480333347316e-05 0.8163489264015694 0  0.1082556868026009 0.7994817673471246 0  0.2100010578479252 0.7621001775558869 0  0.3020981625918367 0.7107841254673429 0  0.3849479704503087 0.6529812280304831 0  0.4605462413545751 0.5943767989790614 0  0.5316015999653566 0.5387430799257739 0  0.6000543108689954 0.4887480677469154 0  -0.815733687953567 0.2711326128966374 0  -0.7362338554011181 0.4333593838498779 0  -0.7808202530987061 0.3898219396473078 0  -0.8088641911973907 0.3342072392211136 0  -0.7104014316791766 0.4484155900333076 0  -0.7595223352865829 0.4126687407807643 0  -0.7934704208945973 0.3609029301405122 0  -0.8113788428072102 0.3022889392421653 0  -0.6971713398101855 0.4562372991799681 0  -0.7232561544702693 0.4402734974456105 0  -0.7479835430566611 0.42315674673468 0  -0.7698033285793171 0.4004500870839569 0  -0.7887011281699663 0.3761379570028914 0  -0.8004937257132055 0.3473696733493321 0  -0.809419021378425 0.3180411807297698 0  -0.8130572439470372 0.2866098321179084 0  -0.8148218963247357 0.2508555890479185 0  -0.81358523467127 -0.2015103399826246 0  -0.8141416769736581 -0.1612939981768625 0  -0.8160999231312354 -0.1207663193304404 0  -0.8185480737126364 -0.07980908137356696 0  -0.8211574030662258 -0.03835963614716521 0  -0.8225135270627572 0.003504872634743117 0  -0.8226531492076175 0.04548610523663148 0  -0.821580119193482 0.08737623004965629 0  -0.8192468412759087 0.1288851302820492 0  -0.817022455876903 0.1699199868127527 0  -0.8152435641089113 0.2105412900270371 0  -0.8144079822464393 -0.2217542892187508 0  -0.813638926727331 -0.1814315543731625 0  -0.8173058984698377 -0.1003462826480177 0  -0.8219890113865073 -0.01745582807494989 0  -0.8222685941250441 0.06645639045252469 0  -0.818119326970056 0.149457896864084 0  -0.8148100458939662 0.2307254493732906 0  -0.81503164953829 -0.1410804485832692 0  -0.8199147911311282 -0.05916646059079337 0  -0.8227312101162754 0.02449395646938438 0  -0.8204845678887341 0.1082085405952919 0  -0.8160505177375239 0.1902789399072159 0  -0.8070039959517963 -0.2846059805516541 0  -0.7782457659849051 -0.3396868394839382 0  -0.7331114975897582 -0.3825272132039409 0  -0.8098371769125624 -0.2528201766125408 0  -0.7913062846569944 -0.3110934333089583 0  -0.7567020971621676 -0.3623022267010839 0  -0.7070267636828597 -0.397190232372355 0  -0.8116170781203728 -0.2371829037968218 0  -0.80773
[...]
<PointData  Vectors="f_3892"> 
<DataArray  type="Float64"  Name="f_3892"  NumberOfComponents="3" format="ascii">7.5116007814416044e-03 9.3659878618903916e-03 0.0000000000000000e+00  7.5283858264058219e-04 3.7964761216296314e-02 0.0000000000000000e+00  5.0789095180688911e-03 4.1573348135410949e-02 0.0000000000000000e+00  9.4272718552103878e-03 4.3894977548297097e-02 0.0000000000000000e+00  1.2272490743959747e-02 4.0322668570312491e-02 0.0000000000000000e+00  2.0485952991197872e-02 4.6171042072640701e-02 0.0000000000000000e+00  3.4761776123945924e-02 6.8032622791297154e-02 0.0000000000000000e+00  3.4876307498138234e-02 5.8842903704034395e-02 0.0000000000000000e+00  2.7685504508680844e-02 4.1175257228596655e-02 0.0000000000000000e+00  -3.3378883922088425e-03 3.7190122916118479e-02 0.0000000000000000e+00  1.2170790774962722e-02 1.6585888596957549e-02 0.0000000000000000e+00  7.9292982765683355e-03 1.0586103758583485e-02 0.0000000000000000e+00  5.3338414287817494e-03 7.5902948187266351e-03 0.0000000000000000e+00  6.5511214994995815e-03 1.0497620942775367e-02 0.0000000000000000e+00  7.0647376721949930e-03 1.2744550547159618e-02 0.0000000000000000e+00  4.0774276818645854e-03 1.2926197145741274e-02 0.0000000000000000e+00  -1.7808636852901388e-03 1.3963926212996856e-02 0.0000000000000000e+00  -5.2308426646941110e-02 1.2364893145185185e-01 0.0000000000000000e+00  -7.5409267732379544e-03 3.8299245694999207e-02 0.0000000000000000e+00  -1.2520550893102932e-02 4.1538570457316348e-02 0.0000000000000000e+00  -1.8039150152471664e-02 4.5373269172502437e-02 0.0000000000000000e+00  -2.2377604982454759e-02 4.6157775723175601e-02 0.0000000000000000e+00  -2.5046595183955134e-02 4.5103680164837290e-02 0.0000000000000000e+00  -2.5271714411809646e-02 4.1198033664708977e-02 0.0000000000000000e+00  -2.3944271113948801e-02 3.6524288096941360e-02 0.0000000000000000e+00  -2.0374748363868565e-02 3.0361031315499047e-02 0.0000000000000000e+00  -1.7160586558610278e-02 2.5458280540653907e-02 0.0000000000000000e+00  -1.4128426034616306e-02 2.1527025182737566e-02 0.0000000000000000e+00  -1.0635469411381961e-02 1.7208548973719831e-02 0.0000000000000000e+00  -1.0919212463134174e-02 1.8878086553164836e-02 0.0000000000000000e+00  -1.0136882296935872e-02 2.0080857838513405e-02 0.0000000000000000e+00  -7.3798034283605518e-03 2.1560824727682407e-02 0.0000000000000000e+00  1.0180625146632333e-02 1.9455112154173652e-03 0.0000000000000000e+00  5.3416832561497391e-04 6.1321481602685550e-03 0.0000000000000000e+00  9.4147138105728813e-03 2.1973727934539194e-02 0.0000000000000000e+00  2.8942387270534109e-03 5.8103833350041274e-03 0.0000000000000000e+00  6.5886970279343711e-03 9.0198609677326156e-03 0.0000000000000000e+00  1.5159502964195519e-02 2.1508682496055545e-02 0.0000000000000000e+00  2.8841607819518708e-02 4.5381204339995845e-02 0.0000000000000000e+00  3.0674112114197283e-02 6.5663663304364350e-02 0.0000000000000000e+00  1.1635943216044777e-02 4.4363348218493436e-02 0.0000000000000000e+00  2.8987842431549326e-03 4.0085763339668082e-02 0.0000000000000000e+00  -2.2596263985901786e-04 4.2968597506219848e-03 0.0000000000000000e+00  -1.5169302480466463e-02 4.3268337595908847e-02 0.0000000000000000e+00  -2.4218053313407657e-02 4.6542324147090523e-02 0.0000000000000000e+00  -2.4638749550786470e-02 3.8813027213606001e-02 0.0000000000000000e+00  -1.8921385370874677e-02 2.7997089031120196e-02 0.0000000000000000e+00  -1.2617990744183858e-02 1.9652966460964885e-02 0.0000000000000000e+00  -4.2687418035713045e-03 9.0038616680084387e-03 0.0000000000000000e+00  -5.3409058561284745e-03 3.7321698544198735e-02 0.0000000000000000e+00  5.7950729803200221e-02 1.2972582047591458e-01 0.0000000000000000e+00  -9.7407158390619263e-03 1.6528475468724869e-02 0.0000000000000000e+00  -1.5633782284813266e-02 2.3424939788246432e-02 0.0000000000000000e+00  -2.1855077050323718e-02 3.2655359478366723e-02 0.0000000000000000e+00  -2.5548404511311955e-02 4.3613114653856436e-02 0.0000000000000000e+00  -2.1123823723849265e-02 4.7288844742828150e-02 0.0000000000000000e+00  -9.8953964309071787e-03 3.9658182044533835e-02 0.0000000000000000e+00  -1.2849161015169247e-03 3.6986944001536466e-02 0.0000000000000000e+00  7.6779837966308526e-03 4.4803080900534253e-02 0.0000000000000000e+00  8.7773726347404307e-03 2.4594884898623121e-02 0.0000000000000000e+00  3.1428528053820383e-02 5.6809967539022552e-02 0.0000000000000000e+00  4.9518434229861782e-02 6.9682849055960047e-02 0.0000000000000000e+00  1.0068279569720239e-02 1.3425934934757180e-02 0.0000000000000000e+00  3.3101069002711993e-03 5.3583246594413707e-03 0.0000000000000000e+00  1.7151450361509185e-04 3.3867363699626772e-03 0.0000000000000000e+00  5.0232810874338202e-02 2.0553550226160211e-03 0.0000000000000000e+00  7.4618834836709377e-02 -1.2481837069925493e-01 0.0000000000000000e+00  2.6856602787169538e-02 -5.6986389072396497e-02 0.0000000000000000e+00  -2.2893859354026358e-01 3.9449460875221769e-02 0.0000000000000000e+00  2.9687972539596780e-02 -6.6386129534250590e-02 0.0000000000000000e+00  2.7113844510358837e-02 -2.6922397355794481e-02 0.0000000000000000e+00  2.5951035844346393e-01 -6.6052553234802622e-02 0.0000000000000000e+00  3.9773803720756479e-02 -3.4012020019699792e-03 0.0000000000000000e+00  4.1223067717914626e-02 -1.1854139557102940e-01 0.0000000000000000e+00  -8.1798819539521964e-02 1.3204264246180336e-01 0.0000000000000000e+00  3.4135995614899828e-02 -7.4053699406195495e-02 0.0000000000000000e+00  -2.2063288183087580e-02 1.0965170171229407e-02 0.0000000000000000e+00  -2.1847931773007170e-01 9.3427139196431003e-02 0.0000000000000000e+00  -3.3436215304911721e-01 1.4944756857105979e-01 0.0000000000000000e+00  2.4021481752509852e-01 -1.7517647114075065e-03 0.0000000000000000e+00  1.5034226700307461e-02 -4.8254427594242215e-03 0.0000000000000000e+00  9.7681386760606906e-02 3.2601201453040960e-03 0.0000000000000000e+00  7.0907207567873054e-02 -4.9955062453293578e-03 0.0000000000000000e+00  2.4126445777673117e-02 1.4045716302325262e-03 0.0000000000000000e+00  1.3355246962447285e-02 1.0656077994127210e-03 0.0000000000000000e+00  1.0127724873284632e-02 8.1539991165595197e-04 0.0000000000000000e+00  1.1628095030945427e-02 4.8990359451847045e-04 0.0000000000000000e+00  1.2078282186844619e-02 7.1890280723839754e-05 0.0000000000000000e+00  1.2102211522094838e-02 -2.6156220172996364e-04 0.0000000000000000e+00  1.1301248792630850e-02 -6.5023876998778114e-04 0.0000000000000000e+00  1.0405709546257268e-02 -8.8009677617660630e-04 0.0000000000000000e+00  1.4489021621920565e-02 -1.1963460097768172e-03 0.0000000000000000e+00  2.9525737372831574e-02 -1.6470608201527854e-03 0.0000000000000000e+00  3.8551678542745049e-02 -3.3026604258822052e-03 0.0000000000000000e+00  2.9697722325679115e-02 1.7692462426014653e-03 0.0000000000000000e+00  1.0822619900325630e-02 8.6746389597773619e-04 0.0000000000000000e+00  1.2240309814311779e-02 1.9178423442547739e-04 0.0000000000000000e+00  1.2463638594546722e-02 -4.0683077353907097e-04 0.0000000000000000e+00  1.1535134264500846e-02 -9.7957947238811642e-04 0.0000000000000000e+00  3.2060663942823711e-02 -1.5641637198028869e-03 0.0000000000000000e+00  1.6641551976804014e-02 1.3831254087423536e-03 0.0000000000000000e+00  1.0723253739868778e-02 8.0998057788834782e-04 0.0000000000000000e+00  1.2065465007439486e-02 -9.8574004334265242e-05 0.0000000000000000e+00  9.5050995461190453e-03 -8.6622659587666073e-04 0.0000000000000000e+00  1.7765072732278467e-02 -1.4891936010961620e-03 0.0000000000000000e+00  -4.6681551062832519e-02 -1.1434535603217509e-01 0.0000000000000000e+00  -1.0959737358641890e-01 -1.4285695323686906e-02 0.0000000000000000e+00  3.6691027864229717e-02 4.8756485239701081e-02 0.0000000000000000e+00  7.0889806631836361e-02 1.1710635460719818e-01 0.0000000000000000e+00  4.5443178777309266e-02 4.8645485292460279e-03 0.0000000000000000e+00  1.5706076619789172e-01 4.2407137652831363e-02 0.0000000000000000e+00  3.2025764692883214e-02 3.1030345538065475e-02 0.0000000000000000e+00  2.6303624287983860e-02 5.5847157724809506e-02 0.0000000000000000e+00  3.0769410157090102e-02 5.7442480441902612e-03 0.0000000000000000e+00  1.6352966294416699e-01 -2.8813677734226897e-03 0.0000000000000000e+00  -1.7748460137564886e-01 -6.1798197304791219e-02 0.0000000000000000e+00  -1.2213547281044672e-01 -4.8809362036240492e-02 0.0000000000000000e+00  -1.4027623090647470e-02 -4.6947398443195967e-03 0.0000000000000000e+00  3.6056876189317050e-02 6.9484223225062883e-02 0.0000000000000000e+00  -6.8187058845492476e-02 -1.0054105192421897e-01 0.0000000000000000e+00  2.9925038173545720e-02 8.8599265875920610e-02 0.0000000000000000e+00  1.7173365815622784e-03 -2.3155882409656936e-02 0.0000000000000000e+00  -8.0234922474850812e-03 -2.0207517554861460e-02 0.0000000000000000e+00  -1.2270599865526685e-02 -2.1195421610215998e-02 0.0000000000000000e+00  -1.3038513565172143e-02 -1.9867985396811512e-02 0.0000000000000000e+00  -1.2427715018245329e-02 -1.7244615668017865e-02 0.0000000000000000e+00  -1.4296096030950662e-02 -1.8792310894219351e-02 0.0000000000000000e+00  -1.7272835963864801e-02 -2.2249559509082275e-02 0.0000000000000000e+00  -2.0034627642518898e-02 -2.5913747469286378e-02 0.0000000000000000e+00  -2.5574736314037404e-02 -3.4662658180647350e-02 0.0000000000000000e+00  -2.6571771928816403e-02 -3.8932504884657042e-02 0.0000000000000000e+00  -2.5591088519005507e-02 -4.2010942975580307e-02 0.0000000000000000e+00  -2.1715207321875193e-02 -4.1313842540134031e-02 0.0000000000000000e+00  -1.6661382063795128e-02 -3.9655836007721511e-02 0.0000000000000000e+00  -1.0362564850025209e-02 -3.3275230645114971e-02 0.0000000000000000e+00  -5.2835615651452032e-03 -2.7267316292021556e-02 0.0000000000000000e+00  -1.9152489937570721e-03 -2.4772458426949442e-02 0.0000000000000000e+00  7.6787688662340286e-04 -1.7208741152851332e-02 0.0000000000000000e+00  5.6275512130856808e-03 -3.4203295256102717e-02 0.0000000000000000e+00  1.3102846537953190e-02 -4.8338128979298595e-02 0.0000000000000000e+00  1.9827141094571593e-02 -5.1684435608541794e-02 0.0000000000000000e+00  1.6759040028574045e-02 -3.5185836375087980e-02 0.0000000000000000e+00  2.3298415979070706e-02 -4.2188814378580970e-02 0.0000000000000000e+00  2.3291158312581637e-02 -3.7057783984406269e-02 0.0000000000000000e+00  2.1679205067795127e-02 -3.1218486098819692e-02 0.0000000000000000e+00  1.3556943428201823e-02 -1.8017052922588820e-02 0.0000000000000000e+00  1.1599749762044755e-02 -1.5257941174313963e-02 0.0000000000000000e+00  8.2372214749402307e-03 -1.0857290734150656e-02 0.0000000000000000e+00  5.6803259070379404e-03 -7.9467675165947275e-03 0.0000000000000000e+00  5.0883556134293829e-03 -7.8722173936128133e-03 0.0000000000000000e+00  6.5692684956095114e-03 -1.1654890893885788e-02 0.0000000000000000e+00  5.5146958821256338e-03 -1.4782425878435517e-02 0.0000000000000000e+00  -3.1616370118251651e-03 -1.2154219059080229e-02 0.0000000000000000e+00  5.7965431156648276e-02 -1.1973317921740376e-01 0.0000000000000000e+00  5.0739227243898153e-03 -1.4271741749929763e-02 0.0000000000000000e+00  1.1978755788666113e-03 -3.2091481862170923e-03 0.0000000000000000e+00  6.6949106913841228e-03 -9.0135538268278186e-03 0.0000000000000000e+00  1.3733889338453478e-02 -1.8425360700194581e-02 0.0000000000000000e+00  2.1434208475237540e-02 -3.2224176074487951e-02 0.0000000000000000e+00  2.0403095014045209e-02 -4.0811243831962794e-02 0.0000000000000000e+00  1.5191937775551605e-02 -4.7275560343697724e-02 0.0000000000000000e+00  3.2683373347144233e-03 -2.9515675107760510e-02 0.0000000000000000e+00  -3.2531881202985760e-03 -2.5133242021657853e-02 0.0000000000000000e+00  -1.3432138002748187e-02 -3.6540247794505432e-02 0.0000000000000000e+00  -2.3987824873293637e-02 -4.2374730634147942e-02 0.0000000000000000e+00  -2.5731306455363145e-02 -3.6114965282123310e-02 0.0000000000000000e+00  -1.9147733097046302e-02 -2.4715944598083125e-02 0.0000000000000000e+00  -1.3068352236911763e-02 -1.7578299615196247e-02 0.0000000000000000e+00  -8.6379018184651862e-03 -1.4323217634702411e-02 0.0000000000000000e+00  -1.0033064459200335e-02 -2.4909091219845043e-02 0.0000000000000000e+00  -3.4228888656103476e-04 -2.5568354618990714e-03 0.0000000000000000e+00  4.1399611108739517e-03 -6.2618546932317921e-03 0.0000000000000000e+00  9.8158331581209551e-03 -1.2839460036029432e-02 0.0000000000000000e+00  2.1099481621869517e-02 -2.8789768380328016e-02 0.0000000000000000e+00  2.2431873245945186e-02 -3.7981483848769051e-02 0.0000000000000000e+00  3.9976380863181241e-02 -9.0755557995417749e-02 0.0000000000000000e+00  8.2904687480971316e-03 -3.8448668868681063e-02 0.0000000000000000e+00  -1.3227968983233214e-04 -1.6330714927116002e-02 0.0000000000000000e+00  -7.5332235281592441e-03 -2.9943594256278381e-02 0.0000000000000000e+00  -2.1046617181950163e-02 -4.3940535506004269e-02 0.0000000000000000e+00  -2.6344020269554024e-02 -4.0698008986482501e-02 0.0000000000000000e+00  -2.3342018161127791e-02 -3.0559632116681588e-02 0.0000000000000000e+00  -1.5772106445304003e-02 -2.0442132181915849e-02 0.0000000000000000e+00  -1.0302421510581953e-02 -1.5045318550061151e-02 0.0000000000000000e+00  -4.7040060291521539e-03 -1.0790326015786802e-02 0.0000000000000000e+00  -3.9633778594145214e-02 -2.7751847351947722e-03 0.0000000000000000e+00  -7.8344536196580938e-02 1.1813800977545724e-01 0.0000000000000000e+00  -3.9056785739764156e-02 4.9566593736929170e-02 0.0000000000000000e+00  1.3948223948075728e-01 -2.0383602908608096e-02 0.0000000000000000e+00  -3.2691539285437110e-02 5.9924519836498380e-02 0.0000000000000000e+00  -3.0397047856820580e-02 2.8038320246534420e-02 0.0000000000000000e+00  -1.7243537126156286e-01 4.3745302792418769e-02 0.0000000000000000e+00  -4.2382400420771640e-02 4.5765044728125186e-03 0.0000000000000000e+00  -3.6399781140997067e-02 8.9711346305924436e-02 0.0000000000000000e+00  8.4916745333936047e-02 -1.2305333929464690e-01 0.0000000000000000e+00  -3.8371567274643727e-02 6.8617241428257952e-02 0.0000000000000000e+00  2.6187744363226885e-02 -1.5684536883585575e-02 0.0000000000000000e+00  1.3583295891244193e-01 -5.3246453149282037e-02 0.0000000000000000e+00  2.1809075535343445e-01 -8.1323982724329724e-02 0.0000000000000000e+00  -1.8657071125009633e-01 -3.4358360668390267e-04 0.0000000000000000e+00  -2.3380883677537226e-02 5.3766602778385630e-03 0.0000000000000000e+00  -8.0671713125363184e-02 -3.5294008265941792e-03 0.0000000000000000e+00  -9.6682139146008331e-02 2.9144278861719386e-03 0.0000000000000000e+00  -2.7675801560824772e-02 -1.7620080911982066e-03 0.0000000000000000e+00  -1.4802520273371920e-02 -1.2319164437141466e-03 0.0000000000000000e+00  -1.1808595216126996e-02 -9.3857188185526765e-04 0.0000000000000000e+00  -1.2536721136841612e-02 -6.5585784597574934e-04 0.0000000000000000e+00  -1.3178295628955675e-02 -2.3367935908109028e-04 0.0000000000000000e+00  -1.3176614956145144e-02 1.3112267950725828e-04 0.0000000000000000e+00  -1.2698137949626544e-02 5.6121685052172576e-04 0.0000000000000000e+00  -1.1946538407999394e-02 8.9310906985318682e-04 0.0000000000000000e+00  -1.4621099324087720e-02 1.1619790503647148e-03 0.0000000000000000e+00  -2.5268947008045415e-02 1.6288883039092086e-03 0.0000000000000000e+00  -4.3077846040245699e-02 2.7899975417323354e-03 0.0000000000000000e+00  -3.0213942844217183e-02 -1.9554308650062144e-03 0.0000000000000000e+00  -1.2463731601630666e-02 -1.0117299105445151e-03 0.0000000000000000e+00  -1.3476165696232893e-02 -3.8844601189446331e-04 0.0000000000000000e+00  -1.3406691323170730e-02 2.7811172649655827e-04 0.0000000000000000e+00  -1.2461805058141776e-02 9.5521172374963225e-04 0.0000000000000000e+00  -2.9033594223901990e-02 2.0089926681036746e-03 0.0000000000000000e+00  -1.7612420124114112e-02 -1.5532010428743021e-03 0.0000000000000000e+00  -1.1340790996881888e-02 -9.1570555093374259e-04 0.0000000000000000e+00  -1.3162949645493928e-02 -5.1836373830917038e-05 0.0000000000000000e+00  -1.1939507452463092e-02 8.6078100918531475e-04 0.0000000000000000e+00  -1.7308594235157401e-02 1.4912179663481863e-03 0.0000000000000000e+00  1.6641593634167545e-01 2.6786497145643184e-02 0.0000000000000000e+00  -3.5628864893549189e-02 -5.0929683522865685e-02 0.0000000000000000e+00  -8.2387049373421728e-02 -1.2846001291569761e-01 0.0000000000000000e+00  -4.0779535548265099e-02 -4.2432559052732917e-03 0.0000000000000000e+00  -1.9983001955486335e-01 -5.4027556348733206e-02 0.0000000000000000e+00  -3.0107490415796828e-02 -2.8257599277641293e-02 0.0000000000000000e+00  -2.8236409201324274e-02 -5.6081441520158030e-02 0.0000000000000000e+00  -1.7048362432383380e-02 -4.9174794623321689e-03 0.0000000000000000e+00  -2.0986297584852839e-01 -3.0714977763562062e-03 0.0000000000000000e+00  2.5955043748459156e-01 1.0555580031455761e-01 0.0000000000000000e+00  1.5887412895682260e-01 6.5478395164907999e-02 0.0000000000000000e+00  2.6483265687284145e-02 1.6201063712226182e-02 0.0000000000000000e+00  -3.6845058614550799e-02 -7.1592977648454598e-02 0.0000000000000000e+00  8.5320645080034618e-02 1.2682359872220411e-01 0.0000000000000000e+00  -3.0537946005454827e-02 -8.6680236846022135e-02 0.0000000000000000e+00  3.6835279987552981e-05 1.4727078431612533e-05 0.0000000000000000e+00  -2.4737613492346588e-05 -1.1452570931075262e-05 0.0000000000000000e+00  2.0113854066778565e-05 -2.0877176000344571e-06 0.0000000000000000e+00  1.6468999301785803e-05 -2.4386766795712094e-05 0.0000000000000000e+00  -1.0951756299793555e-05 2.0833836893706488e-05 0.0000000000000000e+00  -2.5656916324714443e-05 2.9371260867441025e-06 0.0000000000000000e+00  -2.3204025640312346e-06 -4.0182257953228563e-06 0.0000000000000000e+00  7.4752112549515462e-07 1.5614266481630074e-06 0.0000000000000000e+00  1.5489838761915568e-06 -2.8594836448576741e-06 0.0000000000000000e+00  -4.4051208020813468e-07 1.0459287527006662e-06 0.0000000000000000e+00  -1.0821860419646512e-06 2.2220068182359709e-05 0.0000000000000000e+00  -3.6288133502042716e-06 1.5503411890427964e-05 0.0000000000000000e+00  -1.7624562524848526e-05 3.7821537935596583e-05 0.0000000000000000e+00  -3.3696682154741382e-07 -4.7114718702472247e-06 0.0000000000000000e+00  1.2804461501237773e-06 -1.0546488727074520e-05 0.0000000000000000e+00  -7.3739112515559552e-08 -2.2351176000646298e-06 0.0000000000000000e+00  -7.0274145735775497e-05 6.6400659116411367e-05 0.0000000000000000e+00  3.3613039095586081e-06 -1.4477431966828400e-06 0.0000000000000000e+00  -1.9166784022207548e-05 8.0155606961129083e-07 0.0000000000000000e+00  1.3002536871658166e-04 -1.5376550700252513e-05 0.0000000000000000e+00  8.9452050413317885e-05 9.1320861010247813e-05 0.0000000000000000e+00  3.6493431576381367e-05 -6.3505591719896113e-05 0.0000000000000000e+00  -1.4927882176169355e-05 1.2503702455045465e-06 0.0000000000000000e+00  2.9427823876882733e-06 -2.3266456427757986e-05 0.0000000000000000e+00  5.8282937865147545e-06 -1.8754467114600110e-05 0.0000000000000000e+00  9.6870405561665833e-10 -8.4418054940293014e-07 0.0000000000000000e+00  4.7870855619691106e-06 1.8162872824777643e-05 0.0000000000000000e+00  -1.5807778905626961e-06 -2.6225192205992537e-05 0.0000000000000000e+00  3.5924153457843089e-05 4.4043605388121643e-06 0.0000000000000000e+00  1.9463675440023722e-06 2.1639799275122217e-05 0.0000000000000000e+00  1.3294962494631805e-05 1.9231159106287433e-05 0.0000000000000000e+00  -3.2013228529984392e-05 1.5518171605537346e-05 0.0000000000000000e+00  -1.9301820586727739e-05 -3.3747806444151855e-05 0.0000000000000000e+00  -2.0044177574337402e-05 -1.9559814926448798e-06 0.0000000000000000e+00  5.0026486308358056e-05 -2.4975638361230450e-05 0.0000000000000000e+00  -5.9154208245472132e-06 -2.0165063967616652e-05 0.0000000000000000e+00  1.9841016397706871e-05 -3.7542698792834402e-05 0.0000000000000000e+00  4.5660601372745106e-07 2.0261134805891806e-06 0.0000000000000000e+00  -9.7108899416753930e-06 -1.9919720067448529e-05 0.0000000000000000e+00  3.3339686508826254e-06 1.0858516817526007e-05 0.0000000000000000e+00  -4.9