<?xml version="1.0"?>
<VTKFile type="UnstructuredGrid"  version="0.1"  >
<UnstructuredGrid>
<Piece  NumberOfPoints="4153" NumberOfCells="8064">
<Points>
<DataArray  type="Float64"  NumberOfComponents="3"  format="ascii">-0.4024463474789959 -0.4860560628867392 0  -0.0253207394150775 -0.5309207538296916 0  -0.07278929914081927 -0.5276492908451168 0  -0.1201057274593526 -0.5235459682508766 0  -0.1673028834980037 -0.5189642943336581 0  -0.2145197460636528 -0.5141063743843289 0  -0.261707732781702 -0.5080495637706728 0  -0.3087787706911932 -0.501234374182602 0  -0.355716218903075 -0.4938689867058357 0  0.02229109564320119 -0.5330492598538535 0  -0.4490784938702139 -0.4786263192414337 0  -0.4956034483433081 -0.4711320199277117 0  -0.5420085552614414 -0.4637214968670392 0  -0.5882730573243884 -0.4566814247683603 0  -0.6344182590151337 -0.4499633503282174 0  -0.6803871251120445 -0.4437079167514245 0  -0.7261627732920519 -0.4380488699841359 0  0.7502091094652482 -0.4505334884396514 0  0.07001531125972596 -0.5338283374648033 0  0.1178042246979836 -0.5330964772740333 0  0.1655929972502257 -0.5307931860007763 0  0.2133055012613935 -0.5269917055507195 0  0.2608931957296698 -0.521994417367026 0  0.3083344709181881 -0.5159952786517253 0  0.3556082954692912 -0.5092025009427724 0  0.4026980760443378 -0.5019149768277097 0  0.4496126029878055 -0.4943203908645171 0  0.4963568375371551 -0.486620959949393 0  0.5429322752112193 -0.478964161629223 0  0.5893397192269222 -0.4715718470351736 0  0.6355706172697001 -0.4644899690376185 0  0.6816127913705325 -0.4579855738018083 0  0.7274618851047667 -0.4522098783411606 0  0.7045468084501921 -0.4550752585041621 0  -0.7032764370264206 -0.4409339209054354 0  -0.61136560227045 -0.4532821902811663 0  -0.5188211513109275 -0.4674184843780554 0  -0.4257775630137648 -0.48239201886281 0  -0.3322642735639973 -0.4976130560236047 0  -0.2381252005976401 -0.5111794988160624 0  -0.1437150568456123 -0.5212924783015742 0  -0.04907448999528945 -0.5294101992349519 0  0.6586156598928655 -0.4611541495990518 0  0.1417030118422954 -0.5321407534405845 0  0.2371161040554955 -0.5246313802722895 0  0.3319930405412628 -0.5126888399858677 0  0.4261768044417415 -0.4981388403476809 0  0.5196654876851045 -0.4827817648073566 0  0.6124777360217466 -0.4679655173170516 0  0.04614153703136989 -0.5336189335274111 0  -0.7488138708379862 -0.4365025514294276 0  0.5661519244488591 -0.4752342218200137 0  0.4730057909298872 -0.49047440881135 0  0.3791729412782107 -0.5056016832145633 0  0.2846336052600999 -0.519107414660153 0  0.1894644228875169 -0.5290604679103379 0  0.09390549193905415 -0.5336577943739568 0  -0.001530914883008871 -0.5321435664065953 0  -0.09646551343655325 -0.5256804040618909 0  -0.1908895432952969 -0.5166583072668567 0  -0.2852592281305678 -0.5047208148676998 0  -0.3791267753305789 -0.4898954850132853 0  -0.4723551576994602 -0.4748782035307553 0  -0.5651512462682468 -0.4601310513147825 0  -0.6574259913137062 -0.4467687973645529 0  0.9319189035362496 -0.2586285802638616 0  0.8202698701145451 -0.4331240016884269 0  0.8798159081265544 -0.3913249043691217 0  0.9189461451962263 -0.330198378749016 0  0.7853338131205805 -0.4418980875979783 0  0.8504139075924028 -0.4127340628095042 0  0.8988281508806806 -0.3603575892447239 0  0.9250949465556453 -0.2942492255547217 0  0.7678488899248364 -0.4466163477431109 0  0.8027483573933224 -0.4373207418253095 0  0.835353233419093 -0.4230355287609015 0  0.8647932292175724 -0.4015290865882221 0  0.8896561539179264 -0.376007991872195 0  0.9087016168456087 -0.3452318543386987 0  0.9218589803261485 -0.3121526247719777 0  0.928314758636737 -0.2764048475469927 0  0.9317473230822559 -0.23538012261672 0  0.9388449467871262 0.2766612173899831 0  0.9380096809878996 0.2302890057431139 0  0.9378905315636719 0.1839174866566653 0  0.9381438555745062 0.1374596693773965 0  0.9385905125466205 0.09084280021998595 0  0.938507541913622 0.04408669790202979 0  0.9378924187028371 -0.002711221507996561 0  0.9367424630623907 -0.04948853669476543 0  0.9350502919407032 -0.0961440823644779 0  0.9335101436088868 -0.1426442815025873 0  0.9322968233332056 -0.1890384947976266 0  0.9396805770270483 0.2999724723487443 0  0.93830572560987 0.2534675887993624 0  0.9379843537852437 0.160703143605939 0  0.9386170316879358 0.06747414100371665 0  0.9373859162651021 -0.0261068253665481 0  0.9342529160966165 -0.1194096009329446 0  0.9319097380849771 -0.2122109771313211 0  0.9378930540593848 0.2071096812400733 0  0.9383908167243523 0.1141804697861373 0  0.938264719370707 0.02068912387443114 0  0.9359236808090113 -0.07284379060483465 0  0.9328513164773858 -0.1658521267072529 0  0.7639068922396508 0.4963539313936506 0  0.9286010760009291 0.3719869830691581 0  0.8910817447210024 0.4339941130768776 0  0.8329215265066059 0.4772608535360671 0  0.9338336075987542 0.3357696489782428 0  0.9093183005760709 0.4025416534965701 0  0.8624837995159436 0.4561999436706944 0  0.7985573063539561 0.4870084051759964 0  0.9365465435200406 0.3178218127714583 0  0.9310670584553106 0.3537968064978158 0  0.91877020941261 0.3872026149337212 0  0.9005722272167845 0.4184461772580815 0  0.8764498684045765 0.4445429106023507 0  0.8477202817457463 0.4668360606044917 0  0.8156980971387515 0.4819593863522451 0  0.7813180168027134 0.4921615913366104 0  -0.02125187734945076 0.6301231167689869 0  0.6961959383284807 0.5072102466125359 0  0.6505806451212856 0.5163559760457967 0  0.604674701388489 0.5263156493223285 0  0.5584979660288965 0.5369515012437264 0  0.5120053878689682 0.5481595974285935 0  0.4651879591603947 0.5596474885093177 0  0.4180281747578477 0.5712120427521892 0  0.370507183595894 0.5826833924729276 0  0.32258439400652 0.5936840747772772 0  0.2742830859696826 0.6038301961993708 0  0.2256225243434224 0.6128190375879923 0  0.1766219961685147 0.6204160433367649 0  0.127337148410238 0.6260289391384194 0  0.0778772224987538 0.6295142158191624 0  0.02833484609224465 0.6308210980155913 0  0.7415243290967535 0.4990128997015343 0  -0.07076847581343615 0.6267586273874204 0  -0.1200520273879609 0.6211621052695306 0  -0.1690096462555565 0.6136744087249441 0  -0.2175129071065785 0.6045145301656947 0  -0.2655839293890602 0.5951042318610251 0  -0.3133313283608422 0.5854057809766612 0  -0.3607928595013216 0.5755259185803006 0  -0.4079713269123097 0.5655983619195846 0  -0.4549222146399438 0.5559244680601141 0  -0.5016648997432336 0.5464449372386587 0  -0.5482037009727903 0.5372374708537178 0  -0.5945345850395769 0.5283957935003505 0  -0.6406400950504628 0.5200422843116871 0  -0.6865056467265849 0.5123766441583505 0  -0.7321237394473412 0.5055091934484125 0  -0.7546889799214185 0.5034364252587963 0  -0.7093261423854773 0.5089497286936145 0  -0.6176160876152876 0.5241424269254571 0  -0.5249599648207404 0.5418019492799664 0  -0.431474108057853 0.5607484584189805 0  -0.3370960866826234 0.5804848165293436 0  -0.2415934533182757 0.5998662875711549 0  -0.1445773825121695 0.6176253564142632 0  -0.04603143568005728 0.6287323569268692 0  0.05311188671740992 0.6304455333285519 0  0.1520077667140119 0.6234771681431917 0  0.2499964707410375 0.6084932133307588 0  0.3465935836471406 0.5882768877880414 0  0.4416523700691986 0.5654374995458686 0  0.5352907471259836 0.5425145402880526 0  0.6276637556658827 0.5212534422685493 0  0.7188724421845833 0.5031251085588528 0  -0.6636034508097524 0.5161138580332595 0  -0.5713952848195046 0.5327678852152451 0  -0.4783190879162236 0.551156038691433 0  -0.3844196143723943 0.5705287120739819 0  -0.2894952316672431 0.5902846216230653 0  -0.1933449600753188 0.6092010999954629 0  -0.09544579233135693 0.6242167797477283 0  0.003560409059397782 0.630770433796334 0  0.10262307378079 0.6280443442199366 0  0.2011700253673341 0.6168272319925526 0  0.2984800703815925 0.5988828155827233 0  0.3943167902636073 0.5769636315226256 0  0.4886383031616344 0.5538811128214015 0  0.5816209519951711 0.5315327604167527 0  0.67342427645947 0.5116716046767561 0  -0.9335656849083627 0.3100331169786126 0  -0.8243041243132808 0.485516252350923 0  -0.8832622827495448 0.4431830493395642 0  -0.9216239666531526 0.3817361031636439 0  -0.789623229300331 0.4946635850163892 0  -0.8542405744981949 0.4649466282684833 0  -0.9018642846187204 0.4120063233681689 0  -0.9272553032272207 0.3456828409970697 0  -0.7722417512508553 0.4995293219980879 0  -0.8069163237764199 0.4899164616273805 0  -0.8392880181414319 0.4753517247677357 0  -0.8684091002718044 0.4535153814033444 0  -0.8929446019435318 0.4277839579434357 0  -0.9115477063405905 0.3968182111753796 0  -0.9242821165534345 0.3636309433006469 0  -0.9301829064257778 0.3278108747549375 0  -0.9329902890923468 0.2867839964673838 0  -0.9303753589169976 -0.2235282829541766 0  -0.9306031616344866 -0.1773118670457787 0  -0.9314670683064731 -0.1310723156869963 0  -0.9326518964926288 -0.08474760601213532 0  -0.9340133326883123 -0.03827319173911945 0  -0.9347833164896313 0.008327171513371749 0  -0.9349812539054765 0.054950858518909 0  -0.9346168246791837 0.1015391922777064 0  -0.9336952489832842 0.1479952211822691 0  -0.9329785134412164 0.1943029137944069 0  -0.9326319339025463 0.2405389617122071 0  -0.930686200470354 -0.246730641330155 0  -0.930380468651934 -0.2004176047908479 0  -0.9320316250090379 -0.1079234827346078 0  -0.9344720778367044 -0.01498011631323475 0  -0.9348708504371164 0.07825341819241656 0  -0.9333034433290359 0.1711617826575758 0  -0.9326889329874645 0.2636541820355052 0  -0.9309853565676783 -0.1541996399408395 0  -0.9333606011572149 -0.06153941112635379 0  -0.9349509128424727 0.03163982090580084 0  -0.9341801732860885 0.1247959263632674 0  -0.9327495657282313 0.2174256774505862 0  -0.9178939152208956 -0.3181673364574172 0  -0.8786439377955702 -0.3789888133996797 0  -0.8189552868415032 -0.420271034066867 0  -0.924020553497383 -0.2822947632465142 0  -0.89777930156209 -0.3482314701211306 0  -0.8492307874231753 -0.4002608748517145 0  -0.78398374472675 -0.428675198907905 0  -0.9271753304639339 -0.2644792379995018 0  -0.9208104881010404 -
[...]
<PointData  Vectors="f_2011"> 
<DataArray  type="Float64"  Name="f_2011"  NumberOfComponents="3" format="ascii">5.9603455651568802e-03 4.9182915448085930e-02 0.0000000000000000e+00  6.2676127142174617e-03 1.0985838313710450e-01 0.0000000000000000e+00  8.6309201436942252e-03 1.1132658653106943e-01 0.0000000000000000e+00  9.5805065884023207e-03 1.0748470800275657e-01 0.0000000000000000e+00  8.4372260533307954e-03 9.5595566736407428e-02 0.0000000000000000e+00  8.2089771437238411e-03 6.7938418480014973e-02 0.0000000000000000e+00  7.6177663350298413e-03 5.7603052268896816e-02 0.0000000000000000e+00  6.6663629838842097e-03 4.7036399977766374e-02 0.0000000000000000e+00  4.1714739663148348e-03 2.7520259443167369e-02 0.0000000000000000e+00  3.0597071566004818e-03 1.0323547048388315e-01 0.0000000000000000e+00  2.8482505278720517e-03 2.3600414122062836e-02 0.0000000000000000e+00  1.1547385410158018e-03 1.4758379897009165e-02 0.0000000000000000e+00  -5.4223203803044969e-04 7.6964809913438945e-03 0.0000000000000000e+00  -2.5491906284573276e-03 -7.2002338720697640e-03 0.0000000000000000e+00  -4.0516155162071141e-03 -1.6728645822440276e-02 0.0000000000000000e+00  -2.0364231618900477e-03 -9.0683639970720337e-03 0.0000000000000000e+00  1.0223955747632135e-02 1.1839094006160818e-01 0.0000000000000000e+00  2.8711839602243151e-02 -2.8042241687111175e-01 0.0000000000000000e+00  -1.7094921911260026e-04 9.2725145376751153e-02 0.0000000000000000e+00  -2.9162761957988409e-03 7.9837792925703283e-02 0.0000000000000000e+00  -4.7251085913869745e-03 6.6383254178547957e-02 0.0000000000000000e+00  -5.3587013951705460e-03 5.5332056909014209e-02 0.0000000000000000e+00  -5.0534934788595207e-03 4.2846526658729532e-02 0.0000000000000000e+00  -4.1844917259482662e-03 3.1631815928742292e-02 0.0000000000000000e+00  -2.9238810757603543e-03 2.1954446906560506e-02 0.0000000000000000e+00  -1.8329599450352433e-03 1.5317820574529999e-02 0.0000000000000000e+00  -5.0680875929735685e-04 8.1456634380425667e-03 0.0000000000000000e+00  8.5552749570068929e-04 8.3429828307332815e-04 0.0000000000000000e+00  2.2548325274841536e-03 -5.7072068813356774e-03 0.0000000000000000e+00  3.8308797831577645e-03 -1.5727972023293100e-02 0.0000000000000000e+00  4.8458973114095596e-03 -2.0869672177960961e-02 0.0000000000000000e+00  3.2277446415932345e-03 -1.6849992803460192e-02 0.0000000000000000e+00  -1.4782893849722711e-02 1.1332941069925960e-01 0.0000000000000000e+00  1.0133516767527308e-02 -4.9107294061571820e-02 0.0000000000000000e+00  -9.4054652671931947e-03 -4.5473984875082071e-02 0.0000000000000000e+00  -3.5551251385266486e-03 -1.3722703136467807e-02 0.0000000000000000e+00  -2.8731655042906547e-05 8.2719574409230428e-03 0.0000000000000000e+00  3.1668044924376029e-03 2.7217382746419213e-02 0.0000000000000000e+00  5.9463499926937892e-03 4.0578665179740986e-02 0.0000000000000000e+00  8.1725080079020455e-03 6.2695415505496288e-02 0.0000000000000000e+00  9.6323441015021445e-03 1.0394836436731318e-01 0.0000000000000000e+00  7.5995609853025383e-03 1.1120075873970937e-01 0.0000000000000000e+00  6.1358871408924926e-03 -2.7278605718349735e-02 0.0000000000000000e+00  -3.9480471634956455e-03 7.3198089688815027e-02 0.0000000000000000e+00  -5.2895920639626217e-03 4.9153418657059175e-02 0.0000000000000000e+00  -3.5623705688726131e-03 2.6257971440405474e-02 0.0000000000000000e+00  -1.1665460911227479e-03 1.1594837348042271e-02 0.0000000000000000e+00  1.7549435046148622e-03 -3.8159694251081828e-03 0.0000000000000000e+00  4.3836615244438821e-03 -1.7658127051639095e-02 0.0000000000000000e+00  1.4326265601905222e-03 9.8463656596841878e-02 0.0000000000000000e+00  -2.4046549374723343e-02 -2.7330035086017623e-01 0.0000000000000000e+00  2.7497798511148292e-03 -9.2306444621488397e-03 0.0000000000000000e+00  2.2522133824620031e-04 4.1622600325571220e-03 0.0000000000000000e+00  -2.5274966002905891e-03 1.9952613302188137e-02 0.0000000000000000e+00  -4.6660254332988715e-03 3.7003564917146681e-02 0.0000000000000000e+00  -5.2501546013755179e-03 6.1101218617472600e-02 0.0000000000000000e+00  -1.6431544083039629e-03 8.6457970657531913e-02 0.0000000000000000e+00  4.6955166341440535e-03 1.0712545532563239e-01 0.0000000000000000e+00  9.3311532470718682e-03 1.1019198753082700e-01 0.0000000000000000e+00  7.7235326995962550e-03 8.3500818310397573e-02 0.0000000000000000e+00  7.2158663468665602e-03 5.1973699376987162e-02 0.0000000000000000e+00  6.0788896266193264e-03 4.4064484662684582e-02 0.0000000000000000e+00  1.9242811398087862e-03 1.9447795971274006e-02 0.0000000000000000e+00  -9.5326206209545082e-04 6.0071898842642092e-03 0.0000000000000000e+00  -5.4430610928425677e-03 -2.3320821609855120e-02 0.0000000000000000e+00  1.6177057090434967e-02 5.5448267046309164e-04 0.0000000000000000e+00  2.0369874931554944e-02 -1.5765829154303904e-01 0.0000000000000000e+00  4.7454127150025407e-02 -3.7635212472333320e-02 0.0000000000000000e+00  -1.5310840659171265e-01 1.1832507910376107e-02 0.0000000000000000e+00  3.2823911134356967e-02 -1.0690297862431397e-01 0.0000000000000000e+00  2.9688681979401464e-02 -4.2570240715426491e-02 0.0000000000000000e+00  7.1300667758295189e-02 -2.9136609655591467e-02 0.0000000000000000e+00  5.1584413255429416e-02 -5.4522341411292041e-03 0.0000000000000000e+00  1.6168483490587818e-02 -1.1845496172440795e-01 0.0000000000000000e+00  -6.3190660214080110e-02 1.4100921955412166e-01 0.0000000000000000e+00  8.5550917148783615e-02 -1.4417588081458613e-01 0.0000000000000000e+00  -1.0891026267191631e-01 1.1695270201355044e-01 0.0000000000000000e+00  3.8317667486985431e-02 -3.3463477494741017e-02 0.0000000000000000e+00  -1.1771374061430188e-01 4.7992238332980476e-02 0.0000000000000000e+00  2.1159669635660477e-01 -2.2922912770662131e-02 0.0000000000000000e+00  7.6393264004283711e-03 -5.5440053452405847e-03 0.0000000000000000e+00  1.1397033996525804e-01 2.5467741156192590e-04 0.0000000000000000e+00  8.5832058679527728e-02 -5.9262855752430397e-03 0.0000000000000000e+00  4.8459628805186290e-02 -9.1603270900488145e-06 0.0000000000000000e+00  3.6631066741747854e-02 4.9166039176316454e-04 0.0000000000000000e+00  3.1111543531421360e-02 5.6333769877209305e-04 0.0000000000000000e+00  2.7476185241747771e-02 2.1450939827677402e-04 0.0000000000000000e+00  2.6926097563172900e-02 -1.9286111956288315e-04 0.0000000000000000e+00  2.6990002409539790e-02 -5.1651716335324410e-04 0.0000000000000000e+00  2.7628616176856479e-02 -9.2438825927840815e-04 0.0000000000000000e+00  3.1683144028032489e-02 -1.3287566964079657e-03 0.0000000000000000e+00  3.8182572989676374e-02 -1.4454157179781798e-03 0.0000000000000000e+00  5.3269419517887120e-02 -1.3557278785169362e-03 0.0000000000000000e+00  3.8120522718893983e-02 -9.8509763643090656e-04 0.0000000000000000e+00  5.2469457082402568e-02 1.5947709828150115e-04 0.0000000000000000e+00  3.2929236607211677e-02 5.1877488602823359e-04 0.0000000000000000e+00  2.7519460200146374e-02 -5.6976550681430399e-05 0.0000000000000000e+00  2.7687567621701253e-02 -6.7836683458454277e-04 0.0000000000000000e+00  3.4041262308121170e-02 -1.3629758338019658e-03 0.0000000000000000e+00  5.2259161272105850e-02 -1.3240734914853434e-03 0.0000000000000000e+00  4.0889725640190618e-02 4.7573484147276355e-04 0.0000000000000000e+00  2.8999148809954470e-02 5.3897066683771932e-04 0.0000000000000000e+00  2.6813456404030177e-02 -3.5257306442234497e-04 0.0000000000000000e+00  2.8294550932015380e-02 -1.2160155590961604e-03 0.0000000000000000e+00  4.2246911461351434e-02 -1.5036032223260086e-03 0.0000000000000000e+00  3.5665053513569418e-02 2.6147562344220121e-01 0.0000000000000000e+00  -8.5971199748133983e-02 2.4585027041988303e-04 0.0000000000000000e+00  3.9300409024291591e-02 3.1548684053125574e-02 0.0000000000000000e+00  2.0963786392603764e-02 1.3815045478329252e-01 0.0000000000000000e+00  5.7456293042397556e-02 6.7167644067630660e-03 0.0000000000000000e+00  6.6020647233520052e-02 2.7971372825656617e-02 0.0000000000000000e+00  3.0899658023853485e-02 4.1477185163887854e-02 0.0000000000000000e+00  3.3166630763322574e-02 1.0346678977716237e-01 0.0000000000000000e+00  3.1972474406293493e-02 8.3407894923002383e-03 0.0000000000000000e+00  1.5683545789329484e-01 8.5983946762573857e-03 0.0000000000000000e+00  -6.8035915345568174e-02 -1.6784630146941284e-02 0.0000000000000000e+00  3.1655409717099237e-02 2.3926268050162888e-02 0.0000000000000000e+00  -8.3187895069476325e-02 -8.0037454442471082e-02 0.0000000000000000e+00  7.3960687036412232e-02 1.2008566919784344e-01 0.0000000000000000e+00  -5.1692698518040592e-02 -9.4170777790192034e-02 0.0000000000000000e+00  1.4888754211692067e-02 1.0306300315646112e-01 0.0000000000000000e+00  3.5923034828602386e-03 -8.5432005751128068e-02 0.0000000000000000e+00  2.3462699218039476e-03 3.5179840322622420e-03 0.0000000000000000e+00  5.3162870992091533e-03 1.4221687956392993e-02 0.0000000000000000e+00  3.7229834179593906e-03 7.6012702889262460e-03 0.0000000000000000e+00  2.2852674166074735e-03 1.4387402721406975e-03 0.0000000000000000e+00  1.0131798670150528e-03 -1.5775284040533113e-03 0.0000000000000000e+00  -9.5947208195688453e-05 -4.7782725658310366e-03 0.0000000000000000e+00  -1.6489780303609730e-03 -1.0350209979481950e-02 0.0000000000000000e+00  -2.3547842572822835e-03 -1.1564903798382910e-02 0.0000000000000000e+00  -4.2931612101945356e-03 -1.9727502502254315e-02 0.0000000000000000e+00  -6.1727617667483607e-03 -3.0207431296708411e-02 0.0000000000000000e+00  -7.5800392564651766e-03 -4.2678869962158882e-02 0.0000000000000000e+00  -8.0500470294244328e-03 -5.4987023752592387e-02 0.0000000000000000e+00  -6.6632255890681329e-03 -6.5965457590754631e-02 0.0000000000000000e+00  -4.0849677861071170e-03 -7.5678308475715939e-02 0.0000000000000000e+00  -6.6654278690157396e-04 -8.1044937114385054e-02 0.0000000000000000e+00  -1.5450006327796129e-02 -1.2142059671197541e-01 0.0000000000000000e+00  7.8186260294535528e-03 -8.3469227606514249e-02 0.0000000000000000e+00  1.1235312353744815e-02 -8.1154654492854000e-02 0.0000000000000000e+00  1.3776249249616922e-02 -7.7972549495932228e-02 0.0000000000000000e+00  1.4526950330734714e-02 -7.8002161928425781e-02 0.0000000000000000e+00  1.3575118799535523e-02 -7.0911739233450372e-02 0.0000000000000000e+00  1.1769634296804216e-02 -6.1132496918149919e-02 0.0000000000000000e+00  9.6198772791865304e-03 -5.0163281415742951e-02 0.0000000000000000e+00  7.8646890653955113e-03 -4.4459858361173214e-02 0.0000000000000000e+00  5.1921545262529484e-03 -3.1459603892820896e-02 0.0000000000000000e+00  2.7225316800293894e-03 -2.0314040970878855e-02 0.0000000000000000e+00  3.5660293074530816e-04 -9.5030204084893943e-03 0.0000000000000000e+00  -1.9836525658279438e-03 1.4262822879415305e-03 0.0000000000000000e+00  -3.9259507654695741e-03 1.0778690262999048e-02 0.0000000000000000e+00  -2.5617040832747562e-03 7.8686758802074628e-03 0.0000000000000000e+00  1.2463813877858606e-02 -1.1072386461127021e-01 0.0000000000000000e+00  -2.9031227128207882e-02 2.6055700825046318e-01 0.0000000000000000e+00  -1.0090547416383037e-02 4.0047880686908052e-02 0.0000000000000000e+00  -3.0052459173575082e-03 5.8114750986741955e-03 0.0000000000000000e+00  1.5124345840800981e-03 -1.4821358007375343e-02 0.0000000000000000e+00  6.4246845212108583e-03 -3.7295584381519732e-02 0.0000000000000000e+00  1.0731812831041633e-02 -5.5838107421608892e-02 0.0000000000000000e+00  1.4168000049438821e-02 -7.6444137972170464e-02 0.0000000000000000e+00  1.2264804213109860e-02 -7.8577645235137522e-02 0.0000000000000000e+00  5.8759008221859485e-03 -8.3395625621314015e-02 0.0000000000000000e+00  -2.2697045952309882e-03 -8.0027321092567508e-02 0.0000000000000000e+00  -7.4459360202178788e-03 -6.0204691738207444e-02 0.0000000000000000e+00  -6.9509006734886827e-03 -3.6540422598464899e-02 0.0000000000000000e+00  -3.2958702458604607e-03 -1.5153402842765413e-02 0.0000000000000000e+00  -6.5695347942539809e-04 -6.4858369296058619e-03 0.0000000000000000e+00  1.8527624328002995e-03 1.1668722868576635e-03 0.0000000000000000e+00  4.9573994601748656e-03 1.2844916644375566e-02 0.0000000000000000e+00  1.1844945003358125e-02 3.9877716365029486e-02 0.0000000000000000e+00  -5.4913234167212107e-03 1.7645698028172840e-02 0.0000000000000000e+00  -8.2543561072697768e-04 -3.8459055058569546e-03 0.0000000000000000e+00  3.9722818718932271e-03 -2.6082324385227878e-02 0.0000000000000000e+00  8.9082209678780951e-03 -4.8029253127289173e-02 0.0000000000000000e+00  1.2709693135139401e-02 -6.6506928211518074e-02 0.0000000000000000e+00  1.5346770213660448e-02 -7.8148148458135724e-02 0.0000000000000000e+00  9.6312952195230436e-03 -8.2244460831870606e-02 0.0000000000000000e+00  6.4789073225141958e-04 -8.5389003098068905e-02 0.0000000000000000e+00  -5.4513592152467972e-03 -7.0956835838035734e-02 0.0000000000000000e+00  -8.2905328684778207e-03 -4.9465874827413693e-02 0.0000000000000000e+00  -5.2383813838248741e-03 -2.4709202827677464e-02 0.0000000000000000e+00  -2.2265636227708024e-03 -1.2169086123564390e-02 0.0000000000000000e+00  5.4233210935741112e-04 -2.8689314937866677e-03 0.0000000000000000e+00  2.2958070724999123e-03 5.3011210960027255e-04 0.0000000000000000e+00  6.8908800484197659e-03 1.9564723141664991e-02 0.0000000000000000e+00  -3.3318609077033989e-02 -2.4340764771850704e-04 0.0000000000000000e+00  -1.6895481064520036e-02 1.3488910550623320e-01 0.0000000000000000e+00  -4.2426975985423172e-02 3.6013580960001831e-02 0.0000000000000000e+00  1.0913601689906591e-01 -3.7592429491824070e-03 0.0000000000000000e+00  -3.0993577322247747e-02 1.0279456114998682e-01 0.0000000000000000e+00  -2.8549128450627591e-02 4.0383318694082328e-02 0.0000000000000000e+00  -6.7729978466990581e-02 2.8049357995734187e-02 0.0000000000000000e+00  -5.4576237484407319e-02 6.3279228696538027e-03 0.0000000000000000e+00  -1.2765497149739465e-02 1.0252539230399504e-01 0.0000000000000000e+00  5.1650671412248099e-02 -9.9661711606556611e-02 0.0000000000000000e+00  -7.2619782171932865e-02 1.2279576449780652e-01 0.0000000000000000e+00  8.8533117389186566e-02 -8.9418806204003082e-02 0.0000000000000000e+00  -2.7190869155640472e-02 2.3357125474054479e-02 0.0000000000000000e+00  8.4135630001029568e-02 -2.6995441726338262e-02 0.0000000000000000e+00  -1.7082412959336513e-01 1.2400730335206243e-02 0.0000000000000000e+00  -2.2987251128492148e-02 7.5225437374606191e-03 0.0000000000000000e+00  -9.0637259698541722e-02 -4.1732839526200027e-03 0.0000000000000000e+00  -9.8698813996619547e-02 2.3353197489409390e-03 0.0000000000000000e+00  -4.8352598701097767e-02 -9.4349320835541929e-04 0.0000000000000000e+00  -3.4090364155546879e-02 -1.0971226675239802e-03 0.0000000000000000e+00  -2.7270821111177058e-02 -1.0012496563194656e-03 0.0000000000000000e+00  -2.3140853777410975e-02 -6.1155411774039712e-04 0.0000000000000000e+00  -2.2185027850773510e-02 -2.3427700017880166e-04 0.0000000000000000e+00  -2.2021826665304493e-02 4.7258989487691246e-05 0.0000000000000000e+00  -2.2718979640987371e-02 4.0612210653724281e-04 0.0000000000000000e+00  -2.6446098701736996e-02 7.6319340032152561e-04 0.0000000000000000e+00  -3.3016274157728391e-02 7.8051089455878457e-04 0.0000000000000000e+00  -4.6602212254865757e-02 4.4891646032069849e-04 0.0000000000000000e+00  -2.8232066962599729e-02 5.2255140707472109e-05 0.0000000000000000e+00  -5.0392937936331809e-02 -1.1002055718716264e-03 0.0000000000000000e+00  -2.9815915588994508e-02 -1.0237549411698217e-03 0.0000000000000000e+00  -2.2986282610486238e-02 -3.6942690091165486e-04 0.0000000000000000e+00  -2.2646988155595661e-02 1.7158943321887173e-04 0.0000000000000000e+00  -2.8838098624125865e-02 7.5950358274416935e-04 0.0000000000000000e+00  -4.9611403608022707e-02 5.5538578364569069e-04 0.0000000000000000e+00  -3.8651580539203000e-02 -1.1713280907371926e-03 0.0000000000000000e+00  -2.4216704677828094e-02 -9.1657494618766129e-04 0.0000000000000000e+00  -2.1930285716420646e-02 -9.1095704717931791e-05 0.0000000000000000e+00  -2.3863292604719286e-02 7.0242667410706848e-04 0.0000000000000000e+00  -3.7584507578659491e-02 8.0221743596256426e-04 0.0000000000000000e+00  1.1313195044396267e-01 4.2454033241580910e-03 0.0000000000000000e+00  -3.8611634631876710e-02 -3.2468497535514222e-02 0.0000000000000000e+00  -1.4410795094154931e-02 -1.4539752117560789e-01 0.0000000000000000e+00  -5.3357696380077230e-02 -6.6391756944739191e-03 0.0000000000000000e+00  -6.7089026000471813e-02 -2.9703537103582402e-02 0.0000000000000000e+00  -2.8029031791352573e-02 -4.1692305154149810e-02 0.0000000000000000e+00  -2.8607988967044081e-02 -1.0721094713831318e-01 0.0000000000000000e+00  -2.0229546306957776e-02 -7.3112460358634610e-03 0.0000000000000000e+00  -1.8070825573111637e-01 -1.7484019124994154e-02 0.0000000000000000e+00  8.6945390744493867e-02 3.0315450520249500e-02 0.0000000000000000e+00  -3.1220446152438783e-02 -2.7595890447923297e-02 0.0000000000000000e+00  9.0657688194646174e-02 9.4580075417508444e-02 0.0000000000000000e+00  -7.4864132079952780e-02 -1.3190296459246542e-01 0.0000000000000000e+00  4.9567651759998443e-02 1.0081067285563074e-01 0.0000000000000000e+00  -1.0103903437954993e-02 -1.0607820721298743e-01 0.0000000000000000e+00  1.4689412550628636e-05 3.4621142089447426e-05 0.0000000000000000e+00  -2.5832332366018001e-05 -3.5748310101279687e-05 0.0000000000000000e+00  5.4354363147709117e-06 -2.6919574988169197e-06 0.0000000000000000e+00  8.7508516041218251e-06 -6.5775646763337710e-05 0.0000000000000000e+00  -1.3334930264304355e-05 5.8306334869070211e-05 0.0000000000000000e+00  -3.8371552315121748e-05 1.9469580574596847e-06 0.0000000000000000e+00  -1.1193856558977961e-05 -1.4940757186298080e-05 0.0000000000000000e+00  5.7908450459948194e-06 9.5092520250433652e-06 0.0000000000000000e+00  7.5521157138286674e-06 -1.1562598955396831e-05 0.0000000000000000e+00  -4.0993098379730705e-06 7.1575367121891635e-06 0.0000000000000000e+00  -1.1424480172153508e-05 6.1497608175657023e-05 0.0000000000000000e+00  -5.2283209089839817e-06 2.8184457901076539e-05 0.0000000000000000e+00  -1.7956460235839038e-05 5.2641276318138183e-05 0.0000000000000000e+00  -1.3685655964415261e-06 -1.3615810567433213e-05 0.0000000000000000e+00  -2.6015247771347765e-06 -3.9550856888663553e-05 0.0000000000000000e+00  -4.0491359289795265e-07 -6.3496219068239070e-06 0.0000000000000000e+00  -1.4888361320991426e-04 5.2883719925392726e-05 0.0000000000000000e+00  -1.3224239210281883e-04 -4.4387117352131383e-06 0.0000000000000000e+00  -1.0171983954490851e-04 -2.4324057581244290e-05 0.0000000000000000e+00  6.2754942091800773e-05 1.0386595655932071e-04 0.0000000000000000e+00  2.8067018727939109e-05 4.4403339156874136e-05 0.0000000000000000e+00  9.6743762516845420e-06 -2.4142718583724994e-05 0.0000000000000000e+00  -3.0372559003470330e-06 3.2941587512193770e-06 0.0000000000000000e+00  1.4578571567147082e-05 -6.7137417908260180e-05 0.0000000000000000e+00  5.7514819752928941e-06 -3.0479024556441262e-05 0.0000000000000000e+00  -2.1669404484512709e-08 -1.1012139673719729e-06 0.0000000000000000e+00  4.6375455246337835e-06 3.0165771155185885e-05 0.0000000000000000e+00  -1.6599845002746900e-05 -6.8093835740059731e-05 0.0000000000000000e+00  6.3638618917293802e-06 4.1749104683227144e-06 0.0000000000000000e+00  1.0744491214921472e-05 6.4293648499227316e-05 0.0000000000000000e+00  4.8814890969401769e-06 5.7375560021861281e-05 0.0000000000000000e+00  -3.6816793177880941e-05 3.8012661118482836e-05 0.0000000000000000e+00  -2.4962711198221865e-05 -5.2105214932465587e-05 0.0000000000000000e+00  -2.4067688481234085e-05 -7.4597216426250623e-06 0.0000000000000000e+00  2.1717629279414624e-05 -4.5291357126502792e-05 0.0000000000000000e+00  -1.2603865849437004e-05 -4.1550901014980447e-05 0.0000000000000000e+00  5.3097662816204452e-06 -3.2022579540868108e-05 0.0000000000000000e+00  1.3095412055165023e-07 1.8194745139038277e-06 0.0000000000000000e+00  -1.4490859071048949e-05 -5.8700087114866492e-05 0.0000000000000000e+00  1.6414636744764333e-05 3.0956258892859089e-05 0.0000000000000000e+00  -5.68624278