<?xml version="1.0"?>
<VTKFile type="UnstructuredGrid"  version="0.1"  >
<UnstructuredGrid>
<Piece  NumberOfPoints="4153" NumberOfCells="8064">
<Points>
<DataArray  type="Float64"  NumberOfComponents="3"  format="ascii">-0.4163753685660649 -0.6435472148805108 0  -0.03734872271406491 -0.8244257365261107 0  -0.09178551276103682 -0.8184577512554246 0  -0.1449719966511407 -0.8064312854394186 0  -0.1963175907839633 -0.7889760075495816 0  -0.2457694888283877 -0.7677628907515527 0  -0.2926150226432406 -0.7409902187178157 0  -0.3366133361003785 -0.7107622523200886 0  -0.3777372529028185 -0.6779769936435682 0  0.01754512484672252 -0.8239562010605961 0  -0.4524390349514578 -0.6091280153735916 0  -0.4866108051753735 -0.5747722875248639 0  -0.5189661337853496 -0.5407816123922452 0  -0.549803165183757 -0.5076581060743464 0  -0.5795220935470439 -0.4760068433132912 0  -0.6084442177149387 -0.4461846357575858 0  -0.6366833024443862 -0.4189680036815872 0  0.6336706181969168 -0.4140575219236979 0  0.07205090416464256 -0.8171136993285401 0  0.1253606954913618 -0.804178596714027 0  0.1767816463689847 -0.7857389308952232 0  0.2257740701097025 -0.7624919998603891 0  0.2720997991818703 -0.7356648065361315 0  0.3157007233449012 -0.7060655445387333 0  0.3566595941580527 -0.6745392244016163 0  0.3951040350424441 -0.6417707327969122 0  0.4314170463958897 -0.6086243273373884 0  0.4658673056739698 -0.5755574913705777 0  0.498755127606023 -0.5430010425710545 0  0.530305397468866 -0.5113231370136757 0  0.5608621487993497 -0.4808491148707431 0  0.5905861927204211 -0.4520425797695041 0  0.6197237952115039 -0.4257448942901773 0  0.604945530756306 -0.4387654357236783 0  -0.6223461436117311 -0.4323535528765215 0  -0.5647578903729885 -0.4917536693887342 0  -0.5029883547472385 -0.5577071466299769 0  -0.4346338580865051 -0.626315532185841 0  -0.3575586331110188 -0.6945308118400487 0  -0.2695129298479785 -0.7548465555012968 0  -0.1709083080515144 -0.7984726046122566 0  -0.06467717644552232 -0.8222325584611611 0  0.5757424428614444 -0.4664311036612667 0  0.1513433389759897 -0.7955901526005437 0  0.2492796246704645 -0.7494863110691241 0  0.3364876347048064 -0.690487407070389 0  0.4135155546609566 -0.6252288563919305 0  0.4824809531076222 -0.5592116962972108 0  0.5457174552829965 -0.4960502858284711 0  0.04489901477751434 -0.8213226994307227 0  -0.6502633888497535 -0.4068614472322118 0  0.5146832241758338 -0.527052366286612 0  0.4488537718017513 -0.5920647330338231 0  0.3761870257192215 -0.6582466818394191 0  0.2942382297622803 -0.7211668183384531 0  0.2016204983091683 -0.7746643410951524 0  0.09890218747971793 -0.8113756809930849 0  -0.009903681407080199 -0.8250025490818709 0  -0.1185797318330679 -0.8131941949027507 0  -0.2211501247140651 -0.7788322833972048 0  -0.3148955061387423 -0.7260694269344382 0  -0.3976844783223603 -0.6613536408224695 0  -0.4697713341144757 -0.591953041085735 0  -0.5345868267883719 -0.5241291696460928 0  -0.5939717170590739 -0.4610288987097476 0  0.7502921835169439 -0.2249882238483337 0  0.6788587552340135 -0.3798811244179275 0  0.7185454318275183 -0.3366257923758987 0  0.7436237767991604 -0.2843455883307832 0  0.6568339295755338 -0.3974435281903372 0  0.69987295286968 -0.3595937872844635 0  0.7290310376907301 -0.3088942059080841 0  0.7456839952746157 -0.2542811176620224 0  0.6450915740235685 -0.4059877368161414 0  0.6678312302274605 -0.3878334437087998 0  0.6895028189417625 -0.369889129996727 0  0.7089244113483932 -0.3472569566484769 0  0.7266127245355575 -0.3241762178538494 0  0.735339274731166 -0.2964177201517774 0  0.7434169757107867 -0.2690313841783143 0  0.747286945783416 -0.2394714218469675 0  0.7499687628076999 -0.2058020304848422 0  0.7530792184855486 0.2267639612594615 0  0.7542084224149719 0.1886220549702889 0  0.7565815022588334 0.1499691385736112 0  0.7592152813503547 0.1107373457139049 0  0.7618262835448576 0.07089126159221953 0  0.7628733195983584 0.03057327086413391 0  0.7624906918731401 -0.009858574946777046 0  0.7606757008952062 -0.05014737875210711 0  0.7574070423955223 -0.089921651063262 0  0.7542039825956861 -0.1290963672306093 0  0.7513530740196318 -0.1676872120175178 0  0.7539887716718158 0.245861483530678 0  0.7534385217137123 0.2077457220188761 0  0.7579085558180004 0.130426604244348 0  0.7625255452851916 0.05076401267312065 0  0.7617661227343498 -0.03003774675806052 0  0.7558165842837906 -0.1095879904008027 0  0.7504391470915497 -0.1867993925641664 0  0.7553348363862785 0.1693667225182355 0  0.7606223716163849 0.09091289764987028 0  0.7628556869232581 0.01035575683675877 0  0.7591037298871971 -0.07013295248194479 0  0.7527084461727935 -0.1484653650081955 0  0.6438062671828804 0.4371503039040329 0  0.7488262031057188 0.3053945138335245 0  0.7253249606571576 0.3585881875645222 0  0.6874279395148407 0.4026343138630479 0  0.7503359445292763 0.2752532139887761 0  0.7355991124094262 0.3307948989542722 0  0.707479681949273 0.3816986142912929 0  0.6659651847249882 0.4201017151439106 0  0.7516385639463664 0.2604582621128912 0  0.7487053594017077 0.2901003795608015 0  0.7414163421386664 0.3178741368877185 0  0.7324040807999527 0.345608575151425 0  0.7160501941031818 0.3692678428289445 0  0.6975614768895316 0.3922567571790495 0  0.6766409922393305 0.4106148801315078 0  0.6546978389310881 0.4287862546727306 0  -0.02958301617108493 0.8785070991654224 0  0.6028822062138655 0.4767368771121084 0  0.5746719938906713 0.5069670313413973 0  0.545681676565786 0.539182674647122 0  0.5155726058578394 0.5730187482775401 0  0.4839321455851072 0.6079363543040516 0  0.4504535582493461 0.6435200281461139 0  0.4148193641106657 0.6793260225064837 0  0.3766697393198441 0.7149200403431279 0  0.3355828881993777 0.7492180951317107 0  0.2914105170496414 0.7814743619087139 0  0.2440611388250843 0.8107265899113292 0  0.1936232247306876 0.8361625558248599 0  0.1403661825976629 0.8563210859865279 0  0.08488786985240308 0.8704305404901559 0  0.02796181370755793 0.8778189556948761 0  0.6305128133982951 0.4492645836132997 0  -0.08669246496964493 0.871490894965777 0  -0.1423398881070677 0.8576669625947606 0  -0.1956889363506404 0.8376967038384326 0  -0.2459940128506076 0.811808952470251 0  -0.2934530735262362 0.7834692243713988 0  -0.3377236999401387 0.7520322467712182 0  -0.3789894104421045 0.7185593153751 0  -0.4174508778873227 0.6837037815038982 0  -0.4534615372180645 0.6487521842229806 0  -0.4874829867931312 0.6140262167588681 0  -0.5197879314993241 0.5799027008270198 0  -0.550666374424185 0.5467496688734613 0  -0.5804026335158676 0.5149080758800337 0  -0.6092553756357363 0.484915562196238 0  -0.6374627316886298 0.4575895742117395 0  -0.6509797374131848 0.4454750711459617 0  -0.6231429906176024 0.4710655126531869 0  -0.5656744351648452 0.5307677921974102 0  -0.5038346749009274 0.596881021944015 0  -0.4357110316487857 0.6662123205209156 0  -0.3587118588623327 0.7354502269204289 0  -0.2701137297294472 0.7981018413429365 0  -0.169326931882927 0.8482204624386369 0  -0.05824909712087386 0.8758514734582102 0  0.05656216370081766 0.8750254219325653 0  0.1673159248194916 0.8469239217407756 0  0.2681346733839475 0.7965442899839255 0  0.3564883434741909 0.7322478064502539 0  0.4329253850188544 0.6614279075446096 0  0.4999615247638357 0.5903768730451885 0  0.5602847822905064 0.5229699967058167 0  0.616487150636404 0.462789340990548 0  -0.5948399320929458 0.4998569583823401 0  -0.5353971860610668 0.5632282828140377 0  -0.4707100890807361 0.6313457913349089 0  -0.3986256527324607 0.7013091050251921 0  -0.3159619538134343 0.7680280294536996 0  -0.2215347850823013 0.8258350267286554 0  -0.1147402443433621 0.8653268579724586 0  -0.0007456219608397833 0.879055906791121 0  0.1128619964563618 0.8641767907032148 0  0.2192533971130136 0.8240726744946141 0  0.3138898740864993 0.7656591391814254 0  0.3961208403476535 0.6972337989792164 0  0.4674415323228301 0.6256757435345524 0  0.5308219807702075 0.5559784835184127 0  0.5887822282123844 0.4917671860429504 0  -0.7639983841535576 0.2544581756182294 0  -0.6951123879057153 0.4107399342751692 0  -0.7337299563133283 0.3668329323034317 0  -0.7579614816758854 0.3139631980029844 0  -0.6734770673957985 0.4283922381484722 0  -0.715569358904619 0.3899839264780012 0  -0.7440792711751759 0.3390049473244687 0  -0.7597892171707556 0.2838319159690608 0  -0.6620227387213229 0.4370943042991843 0  -0.6842602205787929 0.4187804108787099 0  -0.7054628334491497 0.400475002581026 0  -0.7243332159003176 0.3775374963244951 0  -0.7412690803961335 0.3540587522519597 0  -0.7501272969678042 0.326271575070031 0  -0.7578242136317679 0.2986515071471736 0  -0.7612721124447658 0.2690174344410674 0  -0.7634051337863074 0.2352864078822306 0  -0.7631477161976672 -0.1978297206982986 0  -0.7644899007649438 -0.1596970067638676 0  -0.7671804426588642 -0.1210534715944727 0  -0.7701661344583585 -0.08181480832965879 0  -0.7731591359418614 -0.04196065138757085 0  -0.7746308630519568 -0.001605912539417144 0  -0.7746664140947016 0.0388820976483962 0  -0.7732685813100816 0.07924691462410181 0  -0.7703580986834391 0.1191280179771205 0  -0.7674226615547909 0.1584058396269198 0  -0.7647510982148881 0.1970985210522938 0  -0.7637920880907701 -0.2169731763059616 0  -0.7636025382818729 -0.1788205029084236 0  -0.7686870738333486 -0.1015118798642258 0  -0.7740746901770988 -0.02181708627676734 0  -0.7741467184568154 0.05909692468725591 0  -0.7689067945135923 0.1388429717370656 0  -0.7638636615252901 0.2162481418325378 0  -0.7657692163877461 -0.1404493185516311 0  -0.771745464747786 -0.06198777607024396 0  -0.774823063542269 0.01863750417305865 0  -0.7718988376115457 0.09928463930555426 0  -0.7660262781351518 0.1778251177447754 0  -0.7576957304584716 -0.2763846020190711 0  -0.7332557923086581 -0.3290623595540556 0  -0.6945101443400916 -0.3726480262580694 0  -0.7596257118107617 -0.2463137622572323 0  -0.7438355825052174 -0.3014228693883972 0  -0.7150298880512846 -0.3520927015414063 0  -0.6727420677178473 -0.3900480638860738 0  -0.7611086068598141 -0.2315198744914477 0  -
[...]
<PointData  Vectors="f_10931"> 
<DataArray  type="Float64"  Name="f_10931"  NumberOfComponents="3" format="ascii">4.0420716743391439e-03 3.4169877039040837e-03 0.0000000000000000e+00  1.0705257769043483e-03 2.0961429013596992e-02 0.0000000000000000e+00  4.1082988349763813e-03 2.4337963497226431e-02 0.0000000000000000e+00  8.0580443244200068e-03 2.8569198161696827e-02 0.0000000000000000e+00  1.2317769434911436e-02 3.0302165076983814e-02 0.0000000000000000e+00  3.1053732826076482e-02 5.7984492500872196e-02 0.0000000000000000e+00  4.2225092384117577e-02 6.5021892276951057e-02 0.0000000000000000e+00  3.9118072005824234e-02 5.1750491040426241e-02 0.0000000000000000e+00  3.0315342123072311e-02 3.5647133314598227e-02 0.0000000000000000e+00  -1.4154802155095737e-03 2.0302944172356827e-02 0.0000000000000000e+00  1.6447379595116753e-02 1.6538952875628093e-02 0.0000000000000000e+00  1.2341818914498794e-02 1.1744469114471542e-02 0.0000000000000000e+00  8.1406662557560912e-03 7.6499933738394445e-03 0.0000000000000000e+00  3.5799513484660326e-03 3.7107720130238105e-03 0.0000000000000000e+00  1.4888796650283339e-03 2.3428925234460214e-03 0.0000000000000000e+00  -3.5031119052345394e-03 -1.7245041559163722e-03 0.0000000000000000e+00  -1.5759079945895419e-03 2.5815908674565978e-03 0.0000000000000000e+00  -1.7226718281476053e-02 3.6392451527067410e-02 0.0000000000000000e+00  -4.1858073861983421e-03 2.2184492614218180e-02 0.0000000000000000e+00  -8.0458381128850082e-03 2.6164396415251510e-02 0.0000000000000000e+00  -1.2847396900643892e-02 3.0381345980919398e-02 0.0000000000000000e+00  -1.7562169890430624e-02 3.2692392402482028e-02 0.0000000000000000e+00  -2.1296384100207254e-02 3.3148318804219493e-02 0.0000000000000000e+00  -2.3105103969679533e-02 3.1137789511846245e-02 0.0000000000000000e+00  -2.3048233445336491e-02 2.7855668312719649e-02 0.0000000000000000e+00  -1.8387489854246139e-02 2.0363283855376123e-02 0.0000000000000000e+00  -1.5247433073203333e-02 1.5926676277507632e-02 0.0000000000000000e+00  -1.1259899985706165e-02 1.1386349270223813e-02 0.0000000000000000e+00  -7.8534235333966185e-03 7.9361633060467708e-03 0.0000000000000000e+00  -6.9369840570893604e-03 7.4101411931709587e-03 0.0000000000000000e+00  -2.2710630779518470e-03 3.4477787258856431e-03 0.0000000000000000e+00  4.6562850639684187e-03 -2.4777347439869589e-03 0.0000000000000000e+00  6.6769757903280139e-03 -2.8529675909957646e-03 0.0000000000000000e+00  -8.5123780685267166e-03 1.2368748930163062e-02 0.0000000000000000e+00  9.6203516568728505e-03 1.3537070859486475e-02 0.0000000000000000e+00  3.7735673821049213e-03 4.0052182885759475e-03 0.0000000000000000e+00  9.9954262162126242e-03 9.3882727326542268e-03 0.0000000000000000e+00  1.8798822195218588e-02 1.9797112116252371e-02 0.0000000000000000e+00  4.3517154104765851e-02 5.3288403226007128e-02 0.0000000000000000e+00  3.2307311596344132e-02 5.5547962896145400e-02 0.0000000000000000e+00  1.1102094202702670e-02 3.2150128755679318e-02 0.0000000000000000e+00  2.5186847631663862e-03 2.2726386469383516e-02 0.0000000000000000e+00  -1.0936930994698715e-03 2.0933959387963359e-03 0.0000000000000000e+00  -1.0380133115414464e-02 2.8377273346176912e-02 0.0000000000000000e+00  -1.9772745683453819e-02 3.3537064221184104e-02 0.0000000000000000e+00  -2.2497951376127076e-02 2.8589028779950457e-02 0.0000000000000000e+00  -1.7742715294659626e-02 1.9102319562644365e-02 0.0000000000000000e+00  -9.6444789817011056e-03 9.7144888365985824e-03 0.0000000000000000e+00  -3.1261184711213839e-03 3.6029931704843758e-03 0.0000000000000000e+00  -2.6854092057547975e-03 2.0806144438592730e-02 0.0000000000000000e+00  9.3227852713050879e-03 2.4174995138747213e-02 0.0000000000000000e+00  -5.6000321078422798e-03 5.7402757969275253e-03 0.0000000000000000e+00  -1.3590788393412706e-02 1.3950814635696827e-02 0.0000000000000000e+00  -2.1297933116312662e-02 2.4373617396891509e-02 0.0000000000000000e+00  -2.2352235491802153e-02 3.2273558404490053e-02 0.0000000000000000e+00  -1.6430678913016777e-02 3.3894497001133450e-02 0.0000000000000000e+00  -5.9211054046400735e-03 2.3893107220198058e-02 0.0000000000000000e+00  -2.0319803211981731e-04 2.0203448433542288e-02 0.0000000000000000e+00  6.4716251913957377e-03 2.8121194493697019e-02 0.0000000000000000e+00  1.0861604347473609e-02 2.4579844687506316e-02 0.0000000000000000e+00  3.1665900018502433e-02 4.5177625198537512e-02 0.0000000000000000e+00  6.6246625700914386e-02 7.3235995218657632e-02 0.0000000000000000e+00  1.5343772698930884e-02 1.5047597635581873e-02 0.0000000000000000e+00  6.3657853770373524e-03 5.9997887519549096e-03 0.0000000000000000e+00  3.2968740329205144e-03 4.1171566228725620e-03 0.0000000000000000e+00  5.5926547001450153e-02 7.9465363829463002e-04 0.0000000000000000e+00  7.1005998730858638e-02 -9.1659998931795425e-02 0.0000000000000000e+00  -1.1230232041058733e-02 -4.3931346164851989e-02 0.0000000000000000e+00  -3.0657856896651692e-01 6.1182122552230107e-02 0.0000000000000000e+00  8.5543864930917261e-03 -8.9813801451349585e-03 0.0000000000000000e+00  4.1379750007055391e-02 -2.6341029450407213e-02 0.0000000000000000e+00  4.2400043625132294e-01 -7.8079064935135264e-02 0.0000000000000000e+00  2.7915912778670171e-02 -4.5359021168675630e-03 0.0000000000000000e+00  -2.6218041971561839e-02 1.0038356290369095e-02 0.0000000000000000e+00  -2.8428656662968739e-02 3.7622049776173075e-02 0.0000000000000000e+00  2.1990054502719091e-02 -4.8745871705489746e-02 0.0000000000000000e+00  3.6040039088249640e-02 -2.7826025533968901e-02 0.0000000000000000e+00  -2.1499386861137476e-01 8.8254861320900713e-02 0.0000000000000000e+00  -5.0534199754416720e-01 2.2200518376564407e-01 0.0000000000000000e+00  2.4493584232236151e-01 2.8917956169111580e-04 0.0000000000000000e+00  1.5471601501951824e-02 -4.6005106032575207e-03 0.0000000000000000e+00  8.9057100449710477e-02 -2.8425169476927408e-04 0.0000000000000000e+00  4.8653222269329784e-02 -1.9027270362361331e-03 0.0000000000000000e+00  1.3858900826560107e-02 1.5310831030078717e-03 0.0000000000000000e+00  8.2718895619450609e-03 8.8144091040257618e-04 0.0000000000000000e+00  7.5621089393496507e-03 6.8268212517623742e-04 0.0000000000000000e+00  1.0190405142208904e-02 4.6807599773112448e-04 0.0000000000000000e+00  1.0803862840826380e-02 5.1558597755657455e-05 0.0000000000000000e+00  1.0758225419262366e-02 -3.1252605968183200e-04 0.0000000000000000e+00  9.4901854149791812e-03 -6.7878204768628792e-04 0.0000000000000000e+00  7.1948595563594703e-03 -7.1968109919518962e-04 0.0000000000000000e+00  8.2553248500664318e-03 -9.6356366570497527e-04 0.0000000000000000e+00  1.9028843462348146e-02 -1.9330597410698674e-03 0.0000000000000000e+00  3.1728484109058257e-02 -2.4425641725721904e-03 0.0000000000000000e+00  1.7574825235083510e-02 2.4474635523747800e-03 0.0000000000000000e+00  7.1809632971884868e-03 6.9064205132648114e-04 0.0000000000000000e+00  1.0812193424175187e-02 1.7825016619343331e-04 0.0000000000000000e+00  1.0956124475614601e-02 -4.7099764924743995e-04 0.0000000000000000e+00  7.0196303166036051e-03 -7.5423893805631954e-04 0.0000000000000000e+00  1.9875164914259742e-02 -2.1965640423276030e-03 0.0000000000000000e+00  9.6465724272233478e-03 1.2536265722302589e-03 0.0000000000000000e+00  9.0547425546764291e-03 7.3383382652848100e-04 0.0000000000000000e+00  1.0800661397084138e-02 -1.3799618664391602e-04 0.0000000000000000e+00  7.1406544559065727e-03 -7.7586244898611456e-04 0.0000000000000000e+00  9.3495822135111623e-03 -1.3021959678583908e-03 0.0000000000000000e+00  -1.8003547854004064e-02 -3.3793460343848503e-02 0.0000000000000000e+00  -7.3446958606427706e-02 -1.2263734634254588e-02 0.0000000000000000e+00  2.9103950115050764e-02 4.1228800049956355e-02 0.0000000000000000e+00  7.2267360826127711e-02 8.5254798142176028e-02 0.0000000000000000e+00  3.7126799274776620e-02 5.3622143701488991e-03 0.0000000000000000e+00  1.6103765374760257e-01 3.4873066204537145e-02 0.0000000000000000e+00  3.8846947888905546e-02 2.5600308908880154e-02 0.0000000000000000e+00  1.5320801433897458e-02 1.7538884760851407e-02 0.0000000000000000e+00  2.9592562198368172e-02 4.8365176876981062e-03 0.0000000000000000e+00  1.3110882287213182e-01 -4.8129936765859147e-03 0.0000000000000000e+00  -1.6506105984698655e-01 -4.8541943185791143e-02 0.0000000000000000e+00  -8.4982765650619421e-02 -3.0471332466038715e-02 0.0000000000000000e+00  1.6868358727730313e-02 1.1957145439918477e-02 0.0000000000000000e+00  2.7499239227367765e-02 4.5934081205220342e-02 0.0000000000000000e+00  -3.9882481417568838e-02 -4.5737523069924006e-02 0.0000000000000000e+00  -2.4537744537674523e-02 -1.5403542517940464e-02 0.0000000000000000e+00  1.1385155508055881e-03 -1.4598649809688936e-02 0.0000000000000000e+00  2.4703467446100069e-03 5.3350489829615997e-04 0.0000000000000000e+00  -2.1945146506971796e-03 -2.8759452944074428e-03 0.0000000000000000e+00  -4.0906974864057975e-03 -3.9719368994567345e-03 0.0000000000000000e+00  -7.5234695291706106e-03 -6.7618268210197108e-03 0.0000000000000000e+00  -1.1223951051341788e-02 -1.0221337983893134e-02 0.0000000000000000e+00  -1.5453676372405429e-02 -1.4724415384191249e-02 0.0000000000000000e+00  -1.8030376730825137e-02 -1.8294048328209970e-02 0.0000000000000000e+00  -2.4489082541681733e-02 -2.7577837928764032e-02 0.0000000000000000e+00  -2.4359140495373788e-02 -3.0897139393408643e-02 0.0000000000000000e+00  -2.1562098774696864e-02 -3.1947071551446188e-02 0.0000000000000000e+00  -1.6527988930646362e-02 -2.9688374305353964e-02 0.0000000000000000e+00  -1.1811952008787749e-02 -2.7510891070546144e-02 0.0000000000000000e+00  -6.6762610043000865e-03 -2.1991473650088106e-02 0.0000000000000000e+00  -2.9475964316260381e-03 -1.6779979984727508e-02 0.0000000000000000e+00  -7.7432813412402668e-04 -1.4664733075332243e-02 0.0000000000000000e+00  1.5270583898028235e-03 -3.0772443050159758e-03 0.0000000000000000e+00  4.4369501497371700e-03 -2.3194948119965152e-02 0.0000000000000000e+00  1.0463058429949565e-02 -3.2930461022940456e-02 0.0000000000000000e+00  1.3347654711703794e-02 -3.0969937784222839e-02 0.0000000000000000e+00  9.4978027094664800e-03 -1.6638680133894874e-02 0.0000000000000000e+00  2.5628604165121974e-02 -3.8694899800896736e-02 0.0000000000000000e+00  2.6521439667787056e-02 -3.4469165894218667e-02 0.0000000000000000e+00  2.4594856798889314e-02 -2.8496722511123524e-02 0.0000000000000000e+00  1.5715123168179357e-02 -1.6190742684710956e-02 0.0000000000000000e+00  1.4288956195371230e-02 -1.4149884816073315e-02 0.0000000000000000e+00  1.0099091127027542e-02 -9.5854509444706255e-03 0.0000000000000000e+00  6.5580429468921177e-03 -6.1803368454169541e-03 0.0000000000000000e+00  4.4705052200887515e-03 -4.4673273224543862e-03 0.0000000000000000e+00  3.7942627799088772e-04 -1.2726710345095688e-03 0.0000000000000000e+00  -4.4997035313653578e-03 2.5340978168660214e-03 0.0000000000000000e+00  -3.2821187223323277e-03 -8.1035639510569884e-04 0.0000000000000000e+00  1.4435615807020062e-02 -3.0108183811089630e-02 0.0000000000000000e+00  9.1908688734096168e-03 -1.2616351691939800e-02 0.0000000000000000e+00  2.1876387755364528e-03 -2.4148655402904933e-03 0.0000000000000000e+00  8.4472184596878011e-03 -7.9428558128046729e-03 0.0000000000000000e+00  1.6309411815089728e-02 -1.6635995778265824e-02 0.0000000000000000e+00  2.4805283978665903e-02 -3.0104429550036664e-02 0.0000000000000000e+00  1.6119082127824029e-02 -2.7217781983741886e-02 0.0000000000000000e+00  1.4456767875328546e-02 -3.8419796682368057e-02 0.0000000000000000e+00  2.3012126074037874e-03 -1.8296503009429553e-02 0.0000000000000000e+00  -1.6380807010335746e-03 -1.4627716079644085e-02 0.0000000000000000e+00  -9.2419188273051758e-03 -2.5132226156271881e-02 0.0000000000000000e+00  -1.9089585711866572e-02 -3.0998698466765642e-02 0.0000000000000000e+00  -2.3601408481896961e-02 -2.8040308179267569e-02 0.0000000000000000e+00  -1.7758412285992533e-02 -1.7494895719493645e-02 0.0000000000000000e+00  -9.2538213388363832e-03 -8.3061115886305104e-03 0.0000000000000000e+00  -3.6684934670081657e-03 -3.6845268672078650e-03 0.0000000000000000e+00  -9.2416591405446325e-03 -1.2533294829655978e-02 0.0000000000000000e+00  1.5960488982612001e-03 -2.3731908025822861e-03 0.0000000000000000e+00  4.9370379745765081e-03 -4.7064607152157399e-03 0.0000000000000000e+00  1.2498327158641211e-02 -1.2072131434320043e-02 0.0000000000000000e+00  2.6911069929062448e-02 -2.9331557158693983e-02 0.0000000000000000e+00  2.3662811228385712e-02 -3.2999327213588718e-02 0.0000000000000000e+00  4.6224890126202886e-02 -8.7514530522583955e-02 0.0000000000000000e+00  6.4303822203239051e-03 -2.6184772957995966e-02 0.0000000000000000e+00  4.0425094966477756e-06 -1.2049968074138913e-02 0.0000000000000000e+00  -4.4868657852575756e-03 -1.8806277591298746e-02 0.0000000000000000e+00  -1.6301932245826375e-02 -3.2678677269930227e-02 0.0000000000000000e+00  -2.2756065791937910e-02 -3.1076808254470224e-02 0.0000000000000000e+00  -2.3864486974473648e-02 -2.5307921446917892e-02 0.0000000000000000e+00  -1.3529507471500869e-02 -1.2570473797200761e-02 0.0000000000000000e+00  -5.8539096328318659e-03 -5.2743984547816460e-03 0.0000000000000000e+00  -2.9253883362089770e-03 -3.5937003857868617e-03 0.0000000000000000e+00  -3.9631883423775431e-02 -2.0424598616314393e-03 0.0000000000000000e+00  -7.2736757548620259e-02 8.8093494880733397e-02 0.0000000000000000e+00  -1.3198512003624178e-02 4.4122463625174677e-02 0.0000000000000000e+00  1.6625157312592334e-01 -3.0626600859427925e-02 0.0000000000000000e+00  -1.3141659276830879e-02 1.4180299976216355e-02 0.0000000000000000e+00  -3.9791452834225173e-02 2.5509819292425757e-02 0.0000000000000000e+00  -2.6504751735995274e-01 5.2549705876178895e-02 0.0000000000000000e+00  -3.2425837106995967e-02 5.1646120670275700e-03 0.0000000000000000e+00  3.1412407693459585e-02 -2.1748218107664558e-02 0.0000000000000000e+00  3.5440615412298891e-02 -4.2431984821070093e-02 0.0000000000000000e+00  -2.4810878710989234e-02 4.6587177479024119e-02 0.0000000000000000e+00  -2.4669411608670578e-02 1.7808225806795575e-02 0.0000000000000000e+00  1.4552124802454458e-01 -5.5667080090437471e-02 0.0000000000000000e+00  3.0395734853134965e-01 -1.1521530836443962e-01 0.0000000000000000e+00  -1.7968773781953842e-01 -2.2750619309303329e-03 0.0000000000000000e+00  -2.0623148589412981e-02 4.6583718408523189e-03 0.0000000000000000e+00  -7.0059865150113768e-02 -1.2051872495024657e-03 0.0000000000000000e+00  -7.6302252289121714e-02 1.0768961308143747e-03 0.0000000000000000e+00  -1.6311000713730463e-02 -1.7471053575724141e-03 0.0000000000000000e+00  -8.0571112122280603e-03 -9.1762051542616785e-04 0.0000000000000000e+00  -7.2186085029275820e-03 -6.9451433161117062e-04 0.0000000000000000e+00  -9.7851101422500534e-03 -5.8750424232235714e-04 0.0000000000000000e+00  -1.0718440899985750e-02 -1.9444458684604935e-04 0.0000000000000000e+00  -1.0737373310051821e-02 1.6915579321377967e-04 0.0000000000000000e+00  -9.8986647441211637e-03 5.6959017427899285e-04 0.0000000000000000e+00  -7.4731024905651247e-03 7.0347043123717497e-04 0.0000000000000000e+00  -8.3242358247106584e-03 9.2600845351878164e-04 0.0000000000000000e+00  -1.5890019031314161e-02 1.7208694195539186e-03 0.0000000000000000e+00  -3.9839880747062462e-02 2.4953289540671558e-03 0.0000000000000000e+00  -1.8075994332064849e-02 -2.3438204074117076e-03 0.0000000000000000e+00  -7.0208077060459114e-03 -7.1976684780283634e-04 0.0000000000000000e+00  -1.0849066566096551e-02 -3.3701271088345679e-04 0.0000000000000000e+00  -1.0857826007428961e-02 3.1066672563102187e-04 0.0000000000000000e+00  -7.2765655699653540e-03 7.2949666541797901e-04 0.0000000000000000e+00  -1.8106155506097857e-02 2.3458490263520027e-03 0.0000000000000000e+00  -9.2823373859583867e-03 -1.2778508556667970e-03 0.0000000000000000e+00  -7.9712630569064562e-03 -7.6627341074687611e-04 0.0000000000000000e+00  -1.0762336932933375e-02 -1.2600699782942991e-05 0.0000000000000000e+00  -8.2963863171734605e-03 7.6598667758569282e-04 0.0000000000000000e+00  -9.5314396122780642e-03 1.2872735104039739e-03 0.0000000000000000e+00  1.6165730459329486e-01 3.0928732160698170e-02 0.0000000000000000e+00  -1.3185804109231968e-02 -4.3145287222524233e-02 0.0000000000000000e+00  -7.5383326476518464e-02 -9.2139195683307348e-02 0.0000000000000000e+00  -3.2368758947366051e-02 -5.0757928707027555e-03 0.0000000000000000e+00  -2.6419268686897268e-01 -5.5929754895548169e-02 0.0000000000000000e+00  -4.0701009367802944e-02 -2.6406413430659959e-02 0.0000000000000000e+00  -1.3880375041943234e-02 -1.4853717987637429e-02 0.0000000000000000e+00  -1.9108179899826713e-02 -4.5183203424600752e-03 0.0000000000000000e+00  -1.8233945231280910e-01 1.2400118768682142e-03 0.0000000000000000e+00  3.0255080737881090e-01 1.1558753600983861e-01 0.0000000000000000e+00  1.4091091623101068e-01 5.4990485985293686e-02 0.0000000000000000e+00  -2.5144290697843318e-02 -1.8318458740362097e-02 0.0000000000000000e+00  -2.4199528048865934e-02 -4.7159739302200819e-02 0.0000000000000000e+00  3.7199110741086172e-02 4.4195338041183412e-02 0.0000000000000000e+00  4.3444233566264867e-02 3.9260605869489665e-02 0.0000000000000000e+00  3.9933464558458927e-05 9.5756686431498430e-06 0.0000000000000000e+00  -3.1708481652172277e-05 -7.1263918435203648e-06 0.0000000000000000e+00  1.8243677689701768e-05 -1.0684056695058311e-06 0.0000000000000000e+00  1.9179773274595723e-05 -1.5918303242748009e-05 0.0000000000000000e+00  -1.6450635653042931e-05 1.4083152435048034e-05 0.0000000000000000e+00  -3.0965602464431695e-05 2.5909503475155947e-06 0.0000000000000000e+00  -1.0967793108305225e-06 -1.8752317752549315e-06 0.0000000000000000e+00  4.1574439740531130e-08 1.5957468135673817e-07 0.0000000000000000e+00  3.9946700578711702e-07 -7.8591326053209572e-07 0.0000000000000000e+00  4.6072525027736729e-07 -8.4059054890862163e-07 0.0000000000000000e+00  -2.1347490730956390e-06 1.1305884135556167e-05 0.0000000000000000e+00  -4.9825956532692766e-06 1.4276685562581283e-05 0.0000000000000000e+00  -2.7162075799162399e-05 4.2685742347484308e-05 0.0000000000000000e+00  -5.3725465484690416e-07 -5.5176760244138383e-06 0.0000000000000000e+00  3.7260451958941849e-06 -1.4320266093095080e-05 0.0000000000000000e+00  -8.1966312277626061e-08 -2.2622341734125807e-06 0.0000000000000000e+00  -9.1780549060212273e-05 6.8452955607447801e-05 0.0000000000000000e+00  2.0353863088421994e-05 1.3527063809748116e-05 0.0000000000000000e+00  -3.4165023221137641e-05 3.8511321347737453e-07 0.0000000000000000e+00  1.9341560961332017e-04 -3.5539647243462886e-05 0.0000000000000000e+00  1.1183188665051578e-04 9.2195255789655699e-05 0.0000000000000000e+00  4.7455746515772591e-05 -7.1601662486498203e-05 0.0000000000000000e+00  -2.1052188855924579e-05 1.2347005437738105e-06 0.0000000000000000e+00  2.9217034554379718e-06 -1.2920023590851283e-05 0.0000000000000000e+00  6.3435341857819157e-06 -1.6098715562904022e-05 0.0000000000000000e+00  -2.4300543577572163e-09 -4.8026773131780022e-07 0.0000000000000000e+00  5.7358277087156932e-06 1.6205411020403508e-05 0.0000000000000000e+00  -2.6757842459667418e-06 -1.3781353691018655e-05 0.0000000000000000e+00  3.6394901327102287e-05 2.6150623602329726e-06 0.0000000000000000e+00  2.3710311284050038e-06 1.2145250475980268e-05 0.0000000000000000e+00  1.5948679842093269e-05 1.1901548643752681e-05 0.0000000000000000e+00  -4.0089938795077391e-05 1.1722984570927480e-05 0.0000000000000000e+00  -2.8828126081485085e-05 -3.4879585166425518e-05 0.0000000000000000e+00  -2.5389820368936842e-05 -1.2727076023718356e-06 0.0000000000000000e+00  5.4731492046038810e-05 -1.8000288853225143e-05 0.0000000000000000e+00  -7.8408194275665717e-06 -1.8154260717399678e-05 0.0000000000000000e+00  2.5439269655215344e-05 -3.8027778444904938e-05 0.0000000000000000e+00  6.2786284943649193e-07 3.0501943517097810e-06 0.0000000000000000e+00  -1.5128196712051414e-05 -1.1630917535111166e-05 0.0000000000000000e+00  1.1632893148706435e-06 4.9194137455031681e-06 0.0000000000000000e+00  -6