<?xml version="1.0"?>
<VTKFile type="UnstructuredGrid"  version="0.1"  >
<UnstructuredGrid>
<Piece  NumberOfPoints="4153" NumberOfCells="8064">
<Points>
<DataArray  type="Float64"  NumberOfComponents="3"  format="ascii">-0.4307129488672974 -0.5719929852686072 0  -0.05179205288486852 -0.6714033872468042 0  -0.101642180841871 -0.6709480473745708 0  -0.1512017947199142 -0.6666356592663727 0  -0.2002361418241467 -0.6589905450481821 0  -0.2488773790645428 -0.6489130754061162 0  -0.2965787289240241 -0.634033484123652 0  -0.3428596549687467 -0.6157561968559903 0  -0.3876078909138258 -0.5949639215915895 0  -0.002026795523313757 -0.6677831337724103 0  -0.4725236376489875 -0.5492295431428349 0  -0.5134145942661797 -0.5264953602451756 0  -0.5534886051803088 -0.5041175899291407 0  -0.5928686641074753 -0.4825240329863026 0  -0.6318130273376357 -0.4621623807346239 0  -0.6703613633295638 -0.4431792967703711 0  -0.7086555967939472 -0.4263573091139388 0  0.6647414749194471 -0.418912270439375 0  0.0472629585626173 -0.6602606049848089 0  0.09573744633018647 -0.6491736092637612 0  0.1431386606870634 -0.63504842490944 0  0.1893112856793577 -0.6184865383569438 0  0.2342664258579099 -0.6004007715789482 0  0.2781252362308747 -0.5813869906523579 0  0.3210313062593319 -0.5619427078857897 0  0.3631239427284397 -0.542500316819288 0  0.4045969066857049 -0.5233720113929385 0  0.4455720106888424 -0.5047550930303993 0  0.486148886030029 -0.4867647460086055 0  0.5263854769875067 -0.4695917511833575 0  0.5663353628874865 -0.4532165845691157 0  0.6060115591522599 -0.4379492595546853 0  0.645495452498988 -0.4243467546163289 0  0.6256590851877714 -0.4311883474153546 0  -0.6893870060069868 -0.4347291251642462 0  -0.612394071911522 -0.4722371144111033 0  -0.5335390862054722 -0.5152467207795275 0  -0.4517159495685152 -0.5605914824325841 0  -0.3654326393023956 -0.6055711943230213 0  -0.272889833251207 -0.6419520339179052 0  -0.1757887578971547 -0.6632227460122998 0  -0.07673223321735992 -0.6716793477827045 0  0.5861899276308875 -0.445528338677947 0  0.1195838840186316 -0.6424486943869042 0  0.2119337289850035 -0.6095954114182812 0  0.2996844407491364 -0.5717039642552453 0  0.3839329121124104 -0.5328866136042355 0  0.4659020143895271 -0.495689808120634 0  0.546401143668618 -0.4613139619304578 0  0.02270008882639251 -0.6644926952104908 0  -0.727267672218797 -0.4194333161906929 0  0.5062928714504071 -0.4780582884388636 0  0.4251390405474854 -0.5139965523647755 0  0.3421615478413574 -0.5521782375034787 0  0.2563243608490724 -0.5909817825820805 0  0.1663873544284752 -0.627020994404032 0  0.07162074671001858 -0.6551339199654183 0  -0.02687282003663231 -0.6701020787836793 0  -0.1264774039985612 -0.6692519325329168 0  -0.2245515907407304 -0.6544302115303264 0  -0.3199044043116241 -0.625241610819222 0  -0.4094462898161852 -0.5836947350331836 0  -0.493079094803702 -0.5378466193812614 0  -0.5732495517316714 -0.4931689314404556 0  -0.6511061719710505 -0.4525843958448297 0  0.8199532900673933 -0.2348129369373556 0  0.72548333775719 -0.3973747112583611 0  0.7771992064881823 -0.356633602415613 0  0.8105443781442713 -0.3002692751390741 0  0.6954605149916963 -0.4087390807311966 0  0.7521871882270875 -0.3781861237369104 0  0.7926392427596491 -0.3275152715689961 0  0.8145218298768102 -0.2671947624494292 0  0.6803182195026723 -0.4148557918894983 0  0.7104008746997841 -0.4025874708416028 0  0.738912451506053 -0.3879815701750963 0  0.7643156303988958 -0.3666980017142885 0  0.7861488509874346 -0.3427585794015205 0  0.801036411382765 -0.3137535100897799 0  0.8120215434398693 -0.2835559411835935 0  0.8167654858673534 -0.2509046230675172 0  0.8192380992621175 -0.2136722861808903 0  0.8219310968302991 0.2510059494743069 0  0.821491751636245 0.2092348231710011 0  0.8223129389392879 0.167390019681232 0  0.8237619349521598 0.1253334887659744 0  0.8256249732195593 0.08293140473658053 0  0.8264016298678416 0.04021348185456163 0  0.8261391772261578 -0.002587350565385401 0  0.8248391095194019 -0.04532321671203751 0  0.8224946019628281 -0.08775752238457953 0  0.8205656217035243 -0.1298812030148589 0  0.8192622482344498 -0.1718092301595115 0  0.8230089629733477 0.2720807038032626 0  0.8215097939875431 0.2301174660901899 0  0.8229855245257574 0.1463948526312213 0  0.8261449914273711 0.0615929746080956 0  0.8256225372234495 -0.02397344493351409 0  0.8214816022471539 -0.1088507038354351 0  0.8190487709558893 -0.1927402860643684 0  0.8218077791870227 0.1883323146812564 0  0.8247348606568621 0.1041996576524399 0  0.8263957438035074 0.01881428255989397 0  0.823698537829487 -0.0666031927132775 0  0.8198204227328645 -0.150864185693297 0  0.6717856363991679 0.4575741098170424 0  0.8146614488617571 0.3375731101141369 0  0.7823161504729995 0.3942883087702792 0  0.7316240669178029 0.4356400030831189 0  0.8182431315769421 0.3044935625011236 0  0.7974949593414957 0.3651419903443452 0  0.7578640162488879 0.4161120238978505 0  0.7020299464597237 0.44727044111348 0  0.8202429983321644 0.2882042450568336 0  0.8160061766121905 0.3208699427065998 0  0.8055931632904041 0.3512304520876684 0  0.7910100050230398 0.380304145417706 0  0.7697257766864835 0.4045030078932165 0  0.7448095652879358 0.4260439943414807 0  0.7167638305644559 0.4410415552803498 0  0.6870789833404063 0.4533589756359494 0  -0.05028018915539985 0.7551956741058165 0  0.6144314497354663 0.4789413522615769 0  0.5756349686061717 0.4961136212370182 0  0.53655908438793 0.5146583047244098 0  0.4971995949495657 0.5345227849108941 0  0.4574073100849093 0.555499114326964 0  0.4170865515983713 0.5773984224282437 0  0.3761041710945209 0.6000529963939524 0  0.3342613041386418 0.6232871140564394 0  0.2912981977327107 0.6465308552027733 0  0.2470283491433035 0.669316738998125 0  0.2012607557936009 0.6910114273803188 0  0.1538334724728506 0.7109780818219642 0  0.1047183038685124 0.7279759177156176 0  0.05410916294589334 0.7413490575008765 0  0.002326302065335073 0.7504282589092848 0  0.653030308856674 0.4637846932908145 0  -0.1031301310480116 0.7540231655527797 0  -0.1554964094695771 0.7474578338207125 0  -0.2067647331799214 0.7358121349589835 0  -0.2562420149358829 0.7190564475741337 0  -0.3039244442484703 0.7001041529661548 0  -0.3499487749334982 0.6790479606484988 0  -0.3943754805287489 0.656409795139454 0  -0.4372491219117373 0.6326068812497484 0  -0.4788995525055526 0.6088426188958033 0  -0.5195672668817953 0.5852760423608049 0  -0.5594158697435918 0.5622044393024672 0  -0.5985962138033819 0.5399293139337354 0  -0.6372266953313067 0.5187162597045456 0  -0.6754526136304978 0.4990245821901806 0  -0.7134467914185634 0.4815739732572157 0  -0.7319617192701362 0.4744313084340422 0  -0.6943499459904104 0.4902475156400574 0  -0.6179728803479022 0.5291891443015138 0  -0.5395843568695706 0.5736630349138092 0  -0.4582042452288038 0.6207172288408074 0  -0.3723556873308843 0.6678814667714614 0  -0.2802953897107402 0.7098920174832036 0  -0.1813042794110656 0.7421909043720862 0  -0.07671856055142021 0.7552519306014541 0  0.02834099799739939 0.7464770431627709 0  0.1294773846344856 0.7198599429631312 0  0.2243396275755205 0.6803425488467021 0  0.3129274048999289 0.6349327682967101 0  0.3966857022947005 0.5886403065716078 0  0.4773587948258658 0.5448889615823167 0  0.5561314545117746 0.505270044881336 0  0.6335976456024994 0.4713329464645667 0  -0.6563667060387433 0.5087594672125884 0  -0.5790794528907287 0.5509567952766039 0  -0.4993457632342779 0.5970160542772222 0  -0.4160150135052459 0.6445853177419397 0  -0.3271405626494071 0.6898060104034442 0  -0.2318184846329032 0.7279452664800191 0  -0.1294134190606933 0.7513914993800173 0  -0.02385937349761912 0.7535099145426458 0  0.07958320970939187 0.7351565626892435 0  0.177779958602724 0.7013223251251157 0  0.2693394848279323 0.6580206164476806 0  0.3553136640443466 0.6116295556286968 0  0.437320093290221 0.5663466515100188 0  0.5169261794462092 0.5244283088712038 0  0.5950403730940258 0.4874527417610902 0  -0.8789889706099818 0.2820027390609051 0  -0.7905994525688569 0.4492634693249005 0  -0.8399633455184313 0.4059406884511785 0  -0.8711247319908264 0.3480940333085847 0  -0.7615988525487483 0.4622316324512971 0  -0.8161022034374383 0.4285383819160768 0  -0.8544379217863295 0.3761034976087804 0  -0.8743399143233506 0.3146875766400362 0  -0.7469734571182198 0.4692179420512852 0  -0.7760249368166179 0.4552691976757342 0  -0.8034205655124498 0.4390340781307475 0  -0.8276449799971982 0.4165035110818254 0  -0.8482747608558182 0.3915685362892267 0  -0.8622781897505902 0.3619493765176408 0  -0.872252192204618 0.331217110674652 0  -0.876252114540012 0.29825742086879 0  -0.8779322762025289 0.2607491029862776 0  -0.8760309979667846 -0.208806054218936 0  -0.8760287435889585 -0.1667015286150942 0  -0.8773186668067968 -0.1244456631312404 0  -0.8791775493768915 -0.08191417463946142 0  -0.8813070390210732 -0.03902028325298603 0  -0.8824520585915248 0.004186274400015922 0  -0.8826366980725763 0.04747820190000041 0  -0.8818653000996935 0.09070312933038943 0  -0.8801140425051884 0.1336404361294656 0  -0.878597897424107 0.176230938291788 0  -0.8776255223869098 0.2185603735800302 0  -0.8769410341899397 -0.2300185463716136 0  -0.8758212900595496 -0.1877619749717834 0  -0.8782100184064707 -0.1032196394761258 0  -0.8820015010031335 -0.01743795271365468 0  -0.8823717531591766 0.06910922730443911 0  -0.8793197479132921 0.1549730445406392 0  -0.8775693438488132 0.2396602695074438 0  -0.8765797615806327 -0.145603061574372 0  -0.8802855993895187 -0.06053061203163553 0  -0.8826607423275263 0.0258311449571031 0  -0.8810376122631611 0.1122316616339969 0  -0.8780218413667985 0.1974232079244426 0  -0.8684177074228636 -0.2958684139505406 0  -0.8364544382873688 -0.3531445866770255 0  -0.7864437226373554 -0.395618005352173 0  -0.8720165446072733 -0.2626100955071393 0  -0.851395862263617 -0.3236695255733346 0  -0.8122787476434253 -0.3754098378539993 0  -0.7571491832693275 -0.4080286677851882 0  -0.8740771035327226 -0.2462291778898844 0  -0.86975892960436
[...]
<PointData  Vectors="f_3339"> 
<DataArray  type="Float64"  Name="f_3339"  NumberOfComponents="3" format="ascii">5.9514147547327784e-03 1.0888706529168993e-02 0.0000000000000000e+00  -1.3073025442211287e-03 4.1380948327644537e-02 0.0000000000000000e+00  2.0018227978217352e-03 4.0968934355323922e-02 0.0000000000000000e+00  4.7870423706604095e-03 3.9106027731011919e-02 0.0000000000000000e+00  5.7764319447958217e-03 3.2014181023709995e-02 0.0000000000000000e+00  4.7180444273551446e-03 1.7987559796721102e-02 0.0000000000000000e+00  1.1584362392376743e-02 3.2602998287510440e-02 0.0000000000000000e+00  1.3342195794506729e-02 3.0947636959793277e-02 0.0000000000000000e+00  1.2528509230935719e-02 2.5215923059668011e-02 0.0000000000000000e+00  -4.8943690029292618e-03 4.3254314839997185e-02 0.0000000000000000e+00  6.9201259473444209e-03 1.2586523318498105e-02 0.0000000000000000e+00  5.6190501616250627e-03 1.0059505165583406e-02 0.0000000000000000e+00  4.4027789350401247e-03 7.9209838855089226e-03 0.0000000000000000e+00  6.8705324326898591e-03 1.2881840990327928e-02 0.0000000000000000e+00  6.3316467049980467e-03 1.2588944205548512e-02 0.0000000000000000e+00  1.0984052144405581e-02 2.4002983148319182e-02 0.0000000000000000e+00  5.0211731046307462e-03 1.3283898814380624e-02 0.0000000000000000e+00  -5.5042554697138984e-03 1.7119253151778511e-02 0.0000000000000000e+00  -8.6625259025070143e-03 4.5278416109457424e-02 0.0000000000000000e+00  -1.2528186541324206e-02 4.7375338106221535e-02 0.0000000000000000e+00  -1.6041677776432683e-02 4.8687977344513939e-02 0.0000000000000000e+00  -1.7994000710996893e-02 4.7051273024600576e-02 0.0000000000000000e+00  -1.8594889946472445e-02 4.4351680199894702e-02 0.0000000000000000e+00  -1.7803531678937622e-02 4.0046130796289867e-02 0.0000000000000000e+00  -1.6153401756198619e-02 3.5146056287810652e-02 0.0000000000000000e+00  -1.4460809787290682e-02 3.1312703727493188e-02 0.0000000000000000e+00  -1.2232747879794940e-02 2.6687741643337752e-02 0.0000000000000000e+00  -9.7906217828216853e-03 2.1806113200382008e-02 0.0000000000000000e+00  -6.7165867476240001e-03 1.5396544833623989e-02 0.0000000000000000e+00  -4.6089651889801115e-03 1.1048909117766396e-02 0.0000000000000000e+00  -4.0627503385368014e-03 1.0355058870363525e-02 0.0000000000000000e+00  -5.6240136622419433e-03 1.5943692412228823e-02 0.0000000000000000e+00  4.8846201177369817e-04 -4.2862074275195028e-04 0.0000000000000000e+00  5.6404009839572207e-03 -1.7089851344003041e-02 0.0000000000000000e+00  -8.7513081173444789e-04 -2.4781128190799651e-03 0.0000000000000000e+00  2.7389627828997452e-03 5.1806386339037390e-03 0.0000000000000000e+00  5.1951500159627458e-03 9.3041328547003952e-03 0.0000000000000000e+00  9.6657796346259432e-03 1.7748455655866007e-02 0.0000000000000000e+00  1.1961849126638184e-02 2.5706232299084995e-02 0.0000000000000000e+00  9.7520418509015171e-03 3.1245438599313426e-02 0.0000000000000000e+00  5.7429002037758872e-03 3.7019415078842315e-02 0.0000000000000000e+00  3.7879853169947927e-04 4.1348763606590455e-02 0.0000000000000000e+00  1.8969141815824656e-03 -5.1755431650268961e-03 0.0000000000000000e+00  -1.4294169119002354e-02 4.7962253821404878e-02 0.0000000000000000e+00  -1.8642295068995979e-02 4.6346873540347153e-02 0.0000000000000000e+00  -1.7116860265032865e-02 3.7774862026209360e-02 0.0000000000000000e+00  -1.3147575420724608e-02 2.8507704955859230e-02 0.0000000000000000e+00  -8.1437298598517737e-03 1.8364517355914933e-02 0.0000000000000000e+00  -1.5923089299986015e-03 3.8406294779043571e-03 0.0000000000000000e+00  -6.7362271791740636e-03 4.4135567439047715e-02 0.0000000000000000e+00  2.4192921375136945e-02 6.7147413302408462e-02 0.0000000000000000e+00  -6.3413616849826073e-03 1.4855782448918640e-02 0.0000000000000000e+00  -1.0865163016054816e-02 2.3913249876558532e-02 0.0000000000000000e+00  -1.5563240786561079e-02 3.3696676213206475e-02 0.0000000000000000e+00  -1.8361849771044610e-02 4.2364359477285736e-02 0.0000000000000000e+00  -1.7428681333754383e-02 4.8598514603598902e-02 0.0000000000000000e+00  -1.0599497935169877e-02 4.6340464600070089e-02 0.0000000000000000e+00  -3.0438384479025190e-03 4.1861030872182452e-02 0.0000000000000000e+00  3.5832150608302304e-03 4.1247307202991940e-02 0.0000000000000000e+00  5.4095892168939019e-04 2.9133181981754416e-03 0.0000000000000000e+00  1.2021902164966028e-02 3.0440608818969647e-02 0.0000000000000000e+00  1.7518100593460397e-02 3.2985404697037611e-02 0.0000000000000000e+00  6.0458236019502046e-03 1.0873749277699260e-02 0.0000000000000000e+00  5.0271492044488058e-03 9.1669505828593876e-03 0.0000000000000000e+00  -1.8293471834493526e-04 -5.7665651808470788e-04 0.0000000000000000e+00  3.5552284408656640e-02 -2.0508216145900485e-03 0.0000000000000000e+00  5.3946251888499254e-02 -9.6601638270038273e-02 0.0000000000000000e+00  6.6434574792954448e-02 -5.3574477063950902e-02 0.0000000000000000e+00  -1.1624987331111095e-01 4.5013026658801469e-02 0.0000000000000000e+00  3.2255119401425787e-02 -8.1572854703124462e-02 0.0000000000000000e+00  1.8024952379837863e-02 -2.0451177524804035e-02 0.0000000000000000e+00  1.2510434884722846e-01 -6.3039898674920103e-02 0.0000000000000000e+00  3.2781154903230997e-02 -4.7789381277712163e-03 0.0000000000000000e+00  3.1037353792278555e-02 -9.1055817105445150e-02 0.0000000000000000e+00  -4.4761424409205157e-02 1.0968054393395527e-01 0.0000000000000000e+00  4.1179328435139044e-02 -6.2146844751726923e-02 0.0000000000000000e+00  -3.0741506542326491e-02 3.0547832748727650e-02 0.0000000000000000e+00  -1.2048036919047118e-01 6.7008205533280560e-02 0.0000000000000000e+00  -1.3909294739098899e-01 8.2394270142436887e-02 0.0000000000000000e+00  1.7337931406495352e-01 -2.2135774526410922e-02 0.0000000000000000e+00  1.5453410100607539e-02 -3.1302952178550308e-03 0.0000000000000000e+00  7.5514878960307341e-02 9.8839887145685842e-04 0.0000000000000000e+00  6.2830686096530336e-02 -1.8893587037967384e-03 0.0000000000000000e+00  2.6104643338077091e-02 1.8217405457331086e-04 0.0000000000000000e+00  1.6325656408813685e-02 4.5701959133689885e-04 0.0000000000000000e+00  1.2623668465126716e-02 5.2082191410390041e-04 0.0000000000000000e+00  1.2436525066188987e-02 4.1338954993651859e-04 0.0000000000000000e+00  1.2564061667110660e-02 7.4168141237192676e-05 0.0000000000000000e+00  1.2615031223589918e-02 -2.2814093357312651e-04 0.0000000000000000e+00  1.2465435702586585e-02 -5.6239099199191891e-04 0.0000000000000000e+00  1.3143668662299034e-02 -6.8650367610146993e-04 0.0000000000000000e+00  1.7425687842360600e-02 -6.8677548808625754e-04 0.0000000000000000e+00  2.9404566201349489e-02 -5.3613608829192454e-04 0.0000000000000000e+00  3.2656098974008764e-02 1.5111290286989887e-03 0.0000000000000000e+00  2.9280360988363046e-02 -3.0788330048587003e-04 0.0000000000000000e+00  1.3676828943587944e-02 4.7172891456215510e-04 0.0000000000000000e+00  1.2862932987640520e-02 2.3259044175582020e-04 0.0000000000000000e+00  1.3033118140349772e-02 -3.9622071518697965e-04 0.0000000000000000e+00  1.4457593755260659e-02 -6.6320178973305107e-04 0.0000000000000000e+00  2.9955008769110628e-02 -2.9760847451577405e-05 0.0000000000000000e+00  1.9437907639324653e-02 3.7779466701001854e-04 0.0000000000000000e+00  1.2284861529058418e-02 5.3663599248189413e-04 0.0000000000000000e+00  1.2534736216509721e-02 -7.6966732099236683e-05 0.0000000000000000e+00  1.1905900154057679e-02 -6.5630609359462928e-04 0.0000000000000000e+00  2.0445367407868856e-02 -6.3135417140870753e-04 0.0000000000000000e+00  -1.7654471233114265e-02 -5.5342409035639167e-02 0.0000000000000000e+00  -6.5909855243816984e-02 -2.4477375755758195e-02 0.0000000000000000e+00  6.1019933043189520e-02 4.7013170808471415e-02 0.0000000000000000e+00  5.2462234726650250e-02 9.0754484601398053e-02 0.0000000000000000e+00  3.6918506923100169e-02 4.7981379755387887e-03 0.0000000000000000e+00  9.3214932454039917e-02 4.6038833892798059e-02 0.0000000000000000e+00  2.1444134844602440e-02 2.3874880714310060e-02 0.0000000000000000e+00  2.8920989733495960e-02 7.1781489693557951e-02 0.0000000000000000e+00  2.6103445469892236e-02 4.1524092955367714e-03 0.0000000000000000e+00  1.3303493884102724e-01 1.5202762052657850e-02 0.0000000000000000e+00  -8.2009931865675706e-02 -4.5308247982050173e-02 0.0000000000000000e+00  -7.6004454719099501e-02 -4.1732241389208925e-02 0.0000000000000000e+00  -2.1137145704487575e-02 -1.9517100805585663e-02 0.0000000000000000e+00  4.0686561535708585e-02 5.8753694235845533e-02 0.0000000000000000e+00  -3.6295120134512394e-02 -8.5003417859494695e-02 0.0000000000000000e+00  3.4014670003782638e-02 9.7414157082067701e-02 0.0000000000000000e+00  -7.0200731726259894e-04 -2.2240671843515272e-02 0.0000000000000000e+00  -8.5961688552222693e-03 -2.0974782866058032e-02 0.0000000000000000e+00  -7.2207358405355672e-03 -1.5888483442353739e-02 0.0000000000000000e+00  -9.1965808688277140e-03 -1.8856442587177270e-02 0.0000000000000000e+00  -1.0134774987148581e-02 -1.9607815180356994e-02 0.0000000000000000e+00  -1.2226042491552543e-02 -2.2817736285814488e-02 0.0000000000000000e+00  -1.4130843391043882e-02 -2.5758583402049288e-02 0.0000000000000000e+00  -1.5779645403507375e-02 -2.8400886657559812e-02 0.0000000000000000e+00  -1.7678975806896084e-02 -3.2162567159626732e-02 0.0000000000000000e+00  -1.9094005782798452e-02 -3.6055203233712953e-02 0.0000000000000000e+00  -1.9791739804218188e-02 -3.9908673930643242e-02 0.0000000000000000e+00  -1.8611945987364389e-02 -4.1328378100517801e-02 0.0000000000000000e+00  -1.6087894788753193e-02 -4.1920130506833214e-02 0.0000000000000000e+00  -1.1683668426631318e-02 -3.8109894670227268e-02 0.0000000000000000e+00  -7.2658905410490715e-03 -3.2890427559613689e-02 0.0000000000000000e+00  -3.8820851819517583e-03 -2.8793417473968061e-02 0.0000000000000000e+00  -1.4767515747505233e-03 -4.7577097856904699e-03 0.0000000000000000e+00  1.8592427901339265e-03 -2.5139539256647272e-02 0.0000000000000000e+00  5.8823093543882293e-03 -3.3128937993340192e-02 0.0000000000000000e+00  1.2105724354090472e-02 -4.2879426823566102e-02 0.0000000000000000e+00  1.0979884972036001e-02 -2.9619446898212595e-02 0.0000000000000000e+00  1.3085157147788755e-02 -3.0529155229577273e-02 0.0000000000000000e+00  1.2646527183922698e-02 -2.6099560279879603e-02 0.0000000000000000e+00  1.1779359530217066e-02 -2.2098586710980223e-02 0.0000000000000000e+00  9.2030092867778409e-03 -1.6265750900927169e-02 0.0000000000000000e+00  7.8469699359376144e-03 -1.3621186167305904e-02 0.0000000000000000e+00  6.3442055540294442e-03 -1.0932063206547118e-02 0.0000000000000000e+00  5.0699111331287154e-03 -8.8225890253306096e-03 0.0000000000000000e+00  4.2648408955201587e-03 -7.6380547795083589e-03 0.0000000000000000e+00  6.0714451867960924e-03 -1.1517674124082763e-02 0.0000000000000000e+00  1.0241350154898380e-02 -2.1444235323530150e-02 0.0000000000000000e+00  6.0169949235827393e-03 -1.5229559273942232e-02 0.0000000000000000e+00  1.4848805241711716e-02 -3.8001372513575812e-02 0.0000000000000000e+00  -1.3939879590464796e-03 3.5670066149873694e-03 0.0000000000000000e+00  2.3465485486266610e-03 -4.2374481760274292e-03 0.0000000000000000e+00  5.5645999855856287e-03 -9.6111479443513319e-03 0.0000000000000000e+00  9.1962510116115666e-03 -1.6119913213213630e-02 0.0000000000000000e+00  1.1857119018930037e-02 -2.3258294711883502e-02 0.0000000000000000e+00  1.3036429840375256e-02 -3.2783410681056058e-02 0.0000000000000000e+00  7.6074790752318506e-03 -3.3287789840948115e-02 0.0000000000000000e+00  5.4590075924814416e-04 -2.4539804757548446e-02 0.0000000000000000e+00  -5.4278050972937485e-03 -3.0875604162989463e-02 0.0000000000000000e+00  -1.3879948007104171e-02 -4.0091624602999289e-02 0.0000000000000000e+00  -1.9645593670529048e-02 -4.1449585888849949e-02 0.0000000000000000e+00  -1.8353269524014421e-02 -3.3926108660463909e-02 0.0000000000000000e+00  -1.5228166428903362e-02 -2.7550184436243012e-02 0.0000000000000000e+00  -1.1243584436326323e-02 -2.1332393661086784e-02 0.0000000000000000e+00  -4.8249284115061998e-03 -1.0100205030456949e-02 0.0000000000000000e+00  2.0328306975380120e-03 5.6039916375996458e-03 0.0000000000000000e+00  -1.1825846158505289e-05 2.1704847348077120e-04 0.0000000000000000e+00  4.3125152625346974e-03 -7.5821930772191678e-03 0.0000000000000000e+00  7.0985065330513783e-03 -1.2250014938280887e-02 0.0000000000000000e+00  1.0860460772316756e-02 -1.9574169957766716e-02 0.0000000000000000e+00  1.2747851004318064e-02 -2.7868998592174874e-02 0.0000000000000000e+00  1.9544757356740331e-02 -5.8030416678562395e-02 0.0000000000000000e+00  3.5191446241575495e-03 -2.7943535273771327e-02 0.0000000000000000e+00  -1.5948627833594629e-03 -1.7339665959804854e-02 0.0000000000000000e+00  -9.4184250557388625e-03 -3.5611431656216240e-02 0.0000000000000000e+00  -1.8311077910474854e-02 -4.3523634994092862e-02 0.0000000000000000e+00  -1.9634341689653882e-02 -3.8155595330921069e-02 0.0000000000000000e+00  -1.6603494822432532e-02 -2.9904793432597832e-02 0.0000000000000000e+00  -1.3113859953951762e-02 -2.4147634943044238e-02 0.0000000000000000e+00  -8.9770035031229902e-03 -1.7783054288376784e-02 0.0000000000000000e+00  -2.1063646978893786e-04 -2.7183009271114879e-04 0.0000000000000000e+00  -3.1290418006862629e-02 1.3551642322306226e-03 0.0000000000000000e+00  -5.9930669768580365e-02 9.4064961486838447e-02 0.0000000000000000e+00  -6.4784009441310089e-02 4.6778781319017165e-02 0.0000000000000000e+00  7.2400482424443219e-02 -2.5558681302418597e-02 0.0000000000000000e+00  -3.4478086273647360e-02 7.3581832968688185e-02 0.0000000000000000e+00  -2.1499542253216937e-02 2.2421580878391384e-02 0.0000000000000000e+00  -9.4105368203762280e-02 4.3699070274430714e-02 0.0000000000000000e+00  -3.5144216208034713e-02 4.2677728434920821e-03 0.0000000000000000e+00  -3.5976335639003279e-02 8.5689970227885714e-02 0.0000000000000000e+00  5.1647572652442388e-02 -1.0828259925970037e-01 0.0000000000000000e+00  -4.3586694119045484e-02 5.7586847774568788e-02 0.0000000000000000e+00  3.0422623501832786e-02 -2.8069073565962832e-02 0.0000000000000000e+00  7.3677296733943895e-02 -3.7811119755562513e-02 0.0000000000000000e+00  9.3603600649532659e-02 -4.9702325796133685e-02 0.0000000000000000e+00  -1.3892384457954399e-01 1.4293081751201876e-02 0.0000000000000000e+00  -2.2910661114880052e-02 3.5978223494702137e-03 0.0000000000000000e+00  -6.4221005326083130e-02 -1.7588917732573920e-03 0.0000000000000000e+00  -7.3775431551674528e-02 1.4073322403769688e-03 0.0000000000000000e+00  -2.6925275431966315e-02 -4.7759519569166126e-04 0.0000000000000000e+00  -1.6038672181361249e-02 -6.1487879188010914e-04 0.0000000000000000e+00  -1.2397278721300033e-02 -6.0066480463639906e-04 0.0000000000000000e+00  -1.1676365519265043e-02 -4.6555093719471638e-04 0.0000000000000000e+00  -1.1727689234403892e-02 -1.7890757975676095e-04 0.0000000000000000e+00  -1.1700246243194962e-02 7.8458623660739602e-05 0.0000000000000000e+00  -1.1661154743943606e-02 3.6208043789763826e-04 0.0000000000000000e+00  -1.2289336960719563e-02 4.9216553161536320e-04 0.0000000000000000e+00  -1.5638746732504673e-02 4.7654037096964038e-04 0.0000000000000000e+00  -2.5171123713192554e-02 2.6474501919234957e-04 0.0000000000000000e+00  -3.1019185230703145e-02 -1.3690887669548274e-03 0.0000000000000000e+00  -2.8179679141434846e-02 -1.5818639563725246e-06 0.0000000000000000e+00  -1.3441057747072325e-02 -5.8780743487370343e-04 0.0000000000000000e+00  -1.2113537378227721e-02 -3.2054690594313133e-04 0.0000000000000000e+00  -1.2028337678786501e-02 2.1379423330661557e-04 0.0000000000000000e+00  -1.3217106990297638e-02 4.7056177557479138e-04 0.0000000000000000e+00  -2.7624314547310468e-02 -2.0151797036653725e-04 0.0000000000000000e+00  -1.8891783611462681e-02 -5.7258197374807898e-04 0.0000000000000000e+00  -1.1458388765347443e-02 -5.6699959771666956e-04 0.0000000000000000e+00  -1.1662507350231981e-02 -4.9792285182993208e-05 0.0000000000000000e+00  -1.1656817598284949e-02 4.7308984782071093e-04 0.0000000000000000e+00  -1.8420360329532162e-02 4.1932198164780905e-04 0.0000000000000000e+00  8.2097431646999036e-02 3.0241327802140280e-02 0.0000000000000000e+00  -6.5295013570294894e-02 -4.8346930147917737e-02 0.0000000000000000e+00  -6.1210001843520934e-02 -9.9897586642405001e-02 0.0000000000000000e+00  -3.3748230848091351e-02 -4.4519358316266744e-03 0.0000000000000000e+00  -1.0119685929400767e-01 -4.8859960645194447e-02 0.0000000000000000e+00  -2.0083316049256242e-02 -2.1458821667797150e-02 0.0000000000000000e+00  -3.3321320538204982e-02 -7.5878796662329565e-02 0.0000000000000000e+00  -1.8964725965807151e-02 -3.3219278594032930e-03 0.0000000000000000e+00  -1.5203270785531281e-01 -1.7620154732932602e-02 0.0000000000000000e+00  1.0831922379657451e-01 5.9561811604202410e-02 0.0000000000000000e+00  8.3974565999149001e-02 4.4836745954855255e-02 0.0000000000000000e+00  3.4364415466419537e-02 3.2872381237208571e-02 0.0000000000000000e+00  -4.3816194889751157e-02 -6.0413898099207046e-02 0.0000000000000000e+00  5.1905123895960741e-02 1.1454156679083832e-01 0.0000000000000000e+00  -3.8841113272985658e-02 -9.9603873406851867e-02 0.0000000000000000e+00  7.9730281035490105e-09 -1.7640460139469076e-08 0.0000000000000000e+00  -1.2591691356900737e-08 2.9260407275755341e-08 0.0000000000000000e+00  2.4015510800649549e-09 2.8883046777356503e-08 0.0000000000000000e+00  4.5756630976208367e-09 8.2719432862402836e-09 0.0000000000000000e+00  -8.7204998734216002e-09 -1.6073275021142511e-08 0.0000000000000000e+00  -6.5775606875365099e-09 -2.4686106106453017e-08 0.0000000000000000e+00  1.2279835653563118e-08 -3.2172307477853676e-10 0.0000000000000000e+00  -1.1265405246263162e-08 1.9790081391581659e-10 0.0000000000000000e+00  -1.1918882526020961e-08 -2.9591226595283056e-10 0.0000000000000000e+00  1.1964127481243608e-08 1.7600368538430528e-10 0.0000000000000000e+00  -1.4335458150070744e-09 -3.3392005580461297e-09 0.0000000000000000e+00  -5.9160917495069035e-15 -1.2048395729733572e-14 0.0000000000000000e+00  -1.4345888691885498e-14 -2.6113955493052117e-14 0.0000000000000000e+00  -4.3896321440286112e-21 -3.5101600248820020e-21 0.0000000000000000e+00  -3.9172957863966496e-20 -1.9046298329662417e-21 0.0000000000000000e+00  1.6023966378368216e-14 -1.0262466805066156e-16 0.0000000000000000e+00  -1.5170259259717289e-14 -3.6639859986788235e-14 0.0000000000000000e+00  -2.2665976214125189e-20 1.4122102776314243e-21 0.0000000000000000e+00  -2.1341293767068709e-15 -2.4223114566399708e-14 0.0000000000000000e+00  1.3071187019029219e-20 7.6581901499450491e-21 0.0000000000000000e+00  8.9739845580492013e-15 -2.7959728938041085e-14 0.0000000000000000e+00  1.2769625408552181e-16 3.2573557457768302e-16 0.0000000000000000e+00  2.5700199430477190e-20 -1.6323973122508834e-20 0.0000000000000000e+00  1.4821920338771506e-09 3.2203011915769039e-09 0.0000000000000000e+00  3.6638295952120019e-15 7.0891011957937153e-15 0.0000000000000000e+00  -1.5630570103976607e-14 -6.7235587947858044e-17 0.0000000000000000e+00  3.0342849647000163e-15 -5.6813575926053789e-15 0.0000000000000000e+00  -1.6273094403783423e-10 4.8747668978024199e-10 0.0000000000000000e+00  2.5894153236178276e-09 -1.9681376180821120e-08 0.0000000000000000e+00  1.3649238122377691e-09 -2.8268194952472806e-09 0.0000000000000000e+00  4.9922331704348014e-09 -8.6478918694047326e-09 0.0000000000000000e+00  -1.3120866973295519e-08 -2.5689915299807354e-08 0.0000000000000000e+00  -1.3038600115396392e-14 2.8450991358391398e-14 0.0000000000000000e+00  -7.5447790939283121e-09 3.3084635426447572e-08 0.0000000000000000e+00  6.8837371652089633e-09 1.7560249383989909e-08 0.0000000000000000e+00  -3.5725883050902538e-15 8.7744307058373995e-15 0.0000000000000000e+00  1.1329454960743559e-14 2.2099008908135469e-14 0.0000000000000000e+00  -2.8760988748581133e-21 -8.3812785682802296e-22 0.0000000000000000e+00  -7.2194892132078406e-09 1.5896164330442305e-08 0.0000000000000000e+00  -2.6415911468015232e-08 3.4439010580063969e-08 0.0000000000000000e+