<?xml version="1.0"?>
<VTKFile type="UnstructuredGrid"  version="0.1"  >
<UnstructuredGrid>
<Piece  NumberOfPoints="4153" NumberOfCells="8064">
<Points>
<DataArray  type="Float64"  NumberOfComponents="3"  format="ascii">-0.4159429826850926 -0.5362613292543857 0  -0.04461515998251062 -0.6280348082762706 0  -0.09291428984836833 -0.6248792480575229 0  -0.1407982996019218 -0.618901853485424 0  -0.1881910085321505 -0.6106766836185991 0  -0.235316602351043 -0.6009707080160278 0  -0.2818360706034116 -0.5877060391915565 0  -0.3274736622475926 -0.5721058261278761 0  -0.3721972180870883 -0.5548887907648314 0  0.003893281950622444 -0.6280298655461553 0  -0.4590241115335823 -0.5183085575461835 0  -0.5015968041137807 -0.5004847468702706 0  -0.5437227974906877 -0.4830820832722665 0  -0.585442275410555 -0.4664570944767499 0  -0.6269006599541558 -0.4508143963165386 0  -0.6680510451370403 -0.4362064979604627 0  -0.7089963175948841 -0.4233486708498779 0  0.6940523730160658 -0.4345525778504145 0  0.05236010410679262 -0.6248573015766907 0  0.100540620001656 -0.6186250475167874 0  0.148215135910143 -0.6096035398262585 0  0.1952123328936305 -0.5981723192890057 0  0.2414636838259787 -0.5850190374775622 0  0.2869909480224117 -0.5705959545908673 0  0.3318324486081478 -0.5553064097295664 0  0.3760367441132214 -0.5395815998952004 0  0.4197057129847518 -0.5237388056059966 0  0.4629140429916035 -0.5080418125215012 0  0.5057238403533381 -0.4926690642473513 0  0.5481782394934532 -0.4779008286832832 0  0.5903078277971231 -0.4637590960938117 0  0.632123401681579 -0.4505974314457348 0  0.6737054219436844 -0.4389607656166137 0  0.6528612756919572 -0.4448050192744032 0  -0.6884349740823876 -0.4298348405777062 0  -0.6062118556586187 -0.4585497212019395 0  -0.5227071624744043 -0.4917282069075573 0  -0.4375370147983413 -0.527274657405038 0  -0.3499495892534314 -0.563614246915377 0  -0.258679508615476 -0.5946694483184725 0  -0.1645533982575963 -0.6150471989239792 0  -0.06880620374044261 -0.6268367455877057 0  0.6112500989538947 -0.4571009925513023 0  0.1244529820036456 -0.6144393436328625 0  0.2184295497219378 -0.5917808741432832 0  0.3094923162241439 -0.5630464535054746 0  0.3979348486493725 -0.5316565203457968 0  0.4843638302380022 -0.5003165968897707 0  0.5692867019652162 -0.4707329194004041 0  0.02814728077481279 -0.6268363948632077 0  -0.7289457352619393 -0.4182908145007171 0  0.5269810275878758 -0.4851932332545867 0  0.4413631814220284 -0.5158633733899521 0  0.3540032330149127 -0.5474606095362975 0  0.2643159463650355 -0.5779425986583334 0  0.1718094661484122 -0.6041510818382154 0  0.07650093951521533 -0.6221105127724401 0  -0.02037065264715221 -0.6284355621320554 0  -0.116916717646935 -0.6222144468928296 0  -0.2117428421046716 -0.6061769200016849 0  -0.3047681507412088 -0.5801433198460449 0  -0.3942544580146292 -0.5456532526999563 0  -0.4803683862628416 -0.5093608925342571 0  -0.5646181876213258 -0.474615226088358 0  -0.6475040631486044 -0.4434428565204367 0  0.8575494354376274 -0.2479528789384445 0  0.7577207739510519 -0.414245566961494 0  0.8118568555026972 -0.3731344901339065 0  0.8469746006226619 -0.3152663105798261 0  0.7261553156935441 -0.4248091979673959 0  0.7854970830941782 -0.3946756391326025 0  0.8283625418556295 -0.3434140230074283 0  0.8516225714139001 -0.2813046549256991 0  0.710302794029682 -0.4306104183458536 0  0.7418583976008793 -0.4191288007115438 0  0.771653694417445 -0.4046272248281342 0  0.7982735421278457 -0.3832032151611547 0  0.8209879233548898 -0.3587536027088237 0  0.8372356231399813 -0.3292285000637651 0  0.8489212690366253 -0.2981430704409755 0  0.8541814398100938 -0.2645488544549582 0  0.8570342689948465 -0.2261759343497603 0  0.8625725929318043 0.2531172552428917 0  0.8619339128399238 0.2099227518882956 0  0.8624057085236457 0.1666725670086672 0  0.8634245173256193 0.1232424884395145 0  0.8647518443296942 0.07951920061303813 0  0.86513694687025 0.03554115490662103 0  0.8646131416774065 -0.008502234917063794 0  0.8631831898657309 -0.0524884828077084 0  0.860849625877894 -0.09622427367266936 0  0.8588296269301521 -0.1396851602778048 0  0.8573619294533689 -0.1829655018356564 0  0.8636671610120914 0.2748803107742546 0  0.8620706079551407 0.2315153813839481 0  0.8628697203764707 0.1449855277314506 0  0.8650597480740062 0.05754672195740097 0  0.8640144858612028 -0.03051082250288349 0  0.8597962214478461 -0.1179825510612886 0  0.8570123196897892 -0.2045717142676724 0  0.8620848569445587 0.1883141268381412 0  0.8641305995154405 0.1014355391643367 0  0.8649849444681049 0.01352006201388233 0  0.8620508462036086 -0.07440854349412035 0  0.858010532542246 -0.1613430118188946 0  0.705870265850234 0.464416749392864 0  0.8548286573192522 0.3424715397811398 0  0.8212426250307004 0.401053283207366 0  0.7684715037104506 0.4432584612186911 0  0.858745139934463 0.3083676059500643 0  0.8372010445687044 0.3710779751398263 0  0.7956298697434709 0.4231121066800162 0  0.7374463535295559 0.4543661293921286 0  0.8608868210100511 0.2915529624123485 0  0.8564587278129661 0.3252810076656521 0  0.8456420398399974 0.3566681034823128 0  0.8300190024508409 0.386473274141738 0  0.8080439002090288 0.4113791449378583 0  0.7820898412789854 0.4333228493863273 0  0.7528887515343571 0.4484628517701967 0  0.721846370135469 0.4603175769714657 0  -0.03673596291810996 0.7140537202031813 0  0.6453088375077541 0.4832940722012126 0  0.604337903513035 0.4986912108526844 0  0.5630125292007087 0.5152800385149644 0  0.5213525199072503 0.5329938312400755 0  0.4792311905754524 0.5516150010264121 0  0.4365924108652557 0.5708760078639434 0  0.3933476241698658 0.5905525338417041 0  0.3493865505848889 0.6104756093081507 0  0.3045413132412412 0.6300877399822801 0  0.2587410130637683 0.6489500504076738 0  0.2119029358618847 0.6665496689629336 0  0.1639528540128622 0.6824014774553742 0  0.1149192225224304 0.6954764697113118 0  0.06497438945554893 0.7053275700782012 0  0.01435262550260734 0.7115195777499725 0  0.6860578495661713 0.4697618599124 0  -0.08787135202138087 0.7115984532282837 0  -0.1385270513533469 0.7046454273506476 0  -0.1882773909877485 0.6935433068592795 0  -0.2366383002313686 0.6783546988648972 0  -0.2836721954207749 0.6617384132271522 0  -0.3295878175045261 0.6438031655267681 0  -0.3744835777500894 0.6249547737376193 0  -0.4184179749257442 0.6055235467152796 0  -0.4616327772549907 0.5864131942176409 0  -0.504261749335002 0.5676343493333585 0  -0.5463950733557817 0.5493825132949469 0  -0.5881030811592053 0.5318573157321362 0  -0.6294251404455208 0.5152459652269857 0  -0.6704144561294744 0.4998763562196585 0  -0.7111934480395933 0.4863593860615137 0  -0.7310967502627156 0.481100394670452 0  -0.6907364551614326 0.4931401070835099 0  -0.608809733587151 0.5234237640114725 0  -0.5253857334685607 0.5584323878113863 0  -0.4401033463626399 0.5959423996067453 0  -0.3521563911413559 0.6344631862862111 0  -0.2603016558176761 0.6702517157369229 0  -0.1635397396168021 0.6995466053350254 0  -0.06233035409999341 0.7133775789347616 0  0.03973222653925156 0.7089137889371715 0  0.1395623791030735 0.6892956739124587 0  0.2354536701896006 0.6579416461938324 0  0.327075422596263 0.6203506043011948 0  0.4150500787905954 0.5806766891130619 0  0.5003488163410049 0.5422169601128569 0  0.5837215298052025 0.506873575260707 0  0.6656030344429709 0.4765686347993096 0  -0.6499552268953143 0.5074601430546879 0  -0.5672973294096766 0.540521603491653 0  -0.4830139035040062 0.5769688744660602 0  -0.3965747103701879 0.6152457749228366 0  -0.3067630458571228 0.6529098865543564 0  -0.2126995689305284 0.6863220784008072 0  -0.1132869410942777 0.7086608416602892 0  -0.01112019247664883 0.713356303407792 0  0.09004769589911352 0.7008348392131711 0  0.1880829468302442 0.6747778417940253 0  0.2817661473521234 0.639644506818641 0  0.3714733632294613 0.6005061246873881 0  0.4579811216771093 0.5611809313665503 0  0.5422316295701094 0.5239845158062651 0  0.6248612174361508 0.4909049127209888 0  -0.8895240203496186 0.2912123265691675 0  -0.7936705403167681 0.4595111753947698 0  -0.8465127887824722 0.4172468504436507 0  -0.8802653301378308 0.3587249914912248 0  -0.762642518046536 0.470728531142817 0  -0.8208285628880123 0.4393060265856262 0  -0.8624180650834212 0.3872077351930167 0  -0.8842957438320688 0.3246415400157315 0  -0.7470557099160622 0.4768266030262435 0  -0.7780782840987236 0.4647361830554462 0  -0.8072893855858183 0.4495466998309107 0  -0.8332622649234876 0.4275530322618067 0  -0.8553066060067367 0.4026634331943059 0  -0.8709356809938846 0.3728519308026103 0  -0.8819197490749363 0.3415371148306839 0  -0.8865394724484248 0.3078486780040305 0  -0.8886152970752325 0.2694521175871669 0  -0.8881500279392954 -0.209095445481878 0  -0.8879264190751426 -0.1659534194456536 0  -0.8888487037404802 -0.1227550461636022 0  -0.8903322114994147 -0.07937976506313039 0  -0.892137711464553 -0.03572502029115674 0  -0.893043815806045 0.008178774997245529 0  -0.8930751981457347 0.0521409439184861 0  -0.8922394823082892 0.09604275567373255 0  -0.8905237233083018 0.1397006045210186 0  -0.8891181972779456 0.1830813323011052 0  -0.8882803957054896 0.2262907057295204 0  -0.8890128037708674 -0.230839984898723 0  -0.8878507971421289 -0.1875213915117127 0  -0.8895457919764992 -0.1010950632824114 0  -0.892702803061066 -0.01378859160737515 0  -0.8927675775993489 0.07410742399743944 0  -0.8897750794385934 0.1614178822480848 0  -0.8882538676895175 0.2478663257047534 0  -0.8883000053378094 -0.1443708391627909 0  -0.8912706973119039 -0.05760547255937404 0  -0.8931648716612003 0.03016003984341225 0  -0.891418507891351 0.1179233539820021 0  -0.8886113951007556 0.2047015383370257 0  -0.8794278186338926 -0.2982353647357674 0  -0.8451637930530131 -0.3563714080265022 0  -0.7918847218772943 -0.3979674772889509 0  -0.8836900788378391 -0.2642383393959998 0  -0.8614094410384443 -0.3266075583573533 0  -0.8192656946542533 -0.3781662398120968 0  -0.7606498820643293 -0.4086847728494488 0  -0.8860075647297284 -0.2474655807403703 0  -0.88121994
[...]
<PointData  Vectors="f_2577"> 
<DataArray  type="Float64"  Name="f_2577"  NumberOfComponents="3" format="ascii">1.2481399414749612e-02 3.2406557080274068e-02 0.0000000000000000e+00  2.2568081772854219e-03 6.8861723024312677e-02 0.0000000000000000e+00  6.9559927898983935e-03 6.9632569420818052e-02 0.0000000000000000e+00  1.0472052737518563e-02 6.7507299781300364e-02 0.0000000000000000e+00  1.0766559752578011e-02 5.6792150664429351e-02 0.0000000000000000e+00  1.0796676173856011e-02 3.2759129269341873e-02 0.0000000000000000e+00  1.4119925548880221e-02 3.9917556913638089e-02 0.0000000000000000e+00  1.3635000151433296e-02 3.4402779469425195e-02 0.0000000000000000e+00  1.0693927013582417e-02 2.4524075591769338e-02 0.0000000000000000e+00  -2.6533359098493614e-03 6.7569537950328551e-02 0.0000000000000000e+00  8.8060442786772036e-03 2.2946371162454446e-02 0.0000000000000000e+00  7.6286208826455591e-03 2.1457762054745332e-02 0.0000000000000000e+00  4.9803824045792080e-03 1.6877828960573344e-02 0.0000000000000000e+00  5.3043766102476462e-03 1.9757798308495538e-02 0.0000000000000000e+00  3.1019279000952041e-03 1.5644856075708414e-02 0.0000000000000000e+00  9.3681276196387105e-03 4.4999483246399477e-02 0.0000000000000000e+00  -2.9950189664236532e-03 3.5077795928966052e-02 0.0000000000000000e+00  3.1241907408313275e-03 -7.1238671786634677e-02 0.0000000000000000e+00  -7.1510225583551763e-03 6.5787188835426030e-02 0.0000000000000000e+00  -1.1085331446079117e-02 6.3516029894311363e-02 0.0000000000000000e+00  -1.4108251796366192e-02 6.0533032851572334e-02 0.0000000000000000e+00  -1.5650976158108020e-02 5.6226458685953010e-02 0.0000000000000000e+00  -1.5530361672613801e-02 4.9920383666323669e-02 0.0000000000000000e+00  -1.4349407281966174e-02 4.2914728171246093e-02 0.0000000000000000e+00  -1.2385427050608529e-02 3.5677468682997357e-02 0.0000000000000000e+00  -1.0681083520365876e-02 3.1214103313398415e-02 0.0000000000000000e+00  -8.5259935604429012e-03 2.5827782840772497e-02 0.0000000000000000e+00  -6.1867510370936666e-03 2.0260626461441677e-02 0.0000000000000000e+00  -3.2299146193707352e-03 1.3545286595291214e-02 0.0000000000000000e+00  -6.7564766726198593e-04 6.7464347565908177e-03 0.0000000000000000e+00  -3.4690864945751912e-04 8.2011489742021982e-03 0.0000000000000000e+00  -3.3830718520860819e-03 2.5268849345121962e-02 0.0000000000000000e+00  9.5216278652999217e-04 3.5977450994345975e-02 0.0000000000000000e+00  1.1025986360846618e-02 -2.3434505779896031e-02 0.0000000000000000e+00  -1.0912026845908480e-02 -1.8918363159519443e-02 0.0000000000000000e+00  1.7984332525462445e-04 6.7198454728183846e-03 0.0000000000000000e+00  6.3429683045283739e-03 1.8949339474191654e-02 0.0000000000000000e+00  1.2659009703217438e-02 3.3617043340558775e-02 0.0000000000000000e+00  1.2661692883245779e-02 3.0759721103618916e-02 0.0000000000000000e+00  1.3840228143002637e-02 4.0304252313349366e-02 0.0000000000000000e+00  1.1616477437871893e-02 6.4158756045863546e-02 0.0000000000000000e+00  4.6882373030762226e-03 6.9430090950221374e-02 0.0000000000000000e+00  5.8840939501739031e-03 -9.1649020229208223e-03 0.0000000000000000e+00  -1.2707425608167807e-02 6.2074911120562078e-02 0.0000000000000000e+00  -1.5808912711350251e-02 5.3581669832540230e-02 0.0000000000000000e+00  -1.3429048607472450e-02 3.9241523206169013e-02 0.0000000000000000e+00  -9.4422772037335238e-03 2.7854480410093949e-02 0.0000000000000000e+00  -4.4125751333944545e-03 1.5801545247822943e-02 0.0000000000000000e+00  1.6245106352960825e-03 1.3577481598905999e-03 0.0000000000000000e+00  -4.9394940661658679e-03 6.6729071826436739e-02 0.0000000000000000e+00  1.1616250183150087e-02 1.1928538795168822e-02 0.0000000000000000e+00  -3.0784670970435764e-03 1.3742603786841582e-02 0.0000000000000000e+00  -7.1400967989812643e-03 2.2395592917281590e-02 0.0000000000000000e+00  -1.1887167166653383e-02 3.4597796823083164e-02 0.0000000000000000e+00  -1.5035558760872338e-02 4.6353057570031213e-02 0.0000000000000000e+00  -1.5338334115193435e-02 5.9161594873244662e-02 0.0000000000000000e+00  -9.2054761200938487e-03 6.4710411728190004e-02 0.0000000000000000e+00  -2.5597344005355474e-04 6.8179604469218044e-02 0.0000000000000000e+00  9.0755993409506724e-03 6.9594803422921236e-02 0.0000000000000000e+00  6.8773232141995082e-03 3.1548314043923921e-02 0.0000000000000000e+00  1.3827249039274394e-02 3.6592928278917677e-02 0.0000000000000000e+00  1.2521609944535212e-02 2.7386983604854070e-02 0.0000000000000000e+00  8.2239056526083112e-03 2.2198472159121380e-02 0.0000000000000000e+00  6.3051124356056261e-03 2.2083737001533300e-02 0.0000000000000000e+00  -5.0438483274483576e-03 -4.3803889874483391e-03 0.0000000000000000e+00  3.9230159607513998e-02 6.7944807422373396e-04 0.0000000000000000e+00  4.0035693665091396e-02 -1.2215998565679656e-01 0.0000000000000000e+00  4.9644920707039339e-02 -5.2648089785562749e-02 0.0000000000000000e+00  -1.7992926452507516e-01 2.1907315088156090e-02 0.0000000000000000e+00  4.4156516929116756e-02 -1.2477497405716743e-01 0.0000000000000000e+00  1.7765778184883691e-02 -2.7618184493483185e-02 0.0000000000000000e+00  1.2219685092690667e-01 -3.9189284499226103e-02 0.0000000000000000e+00  4.7824804344253916e-02 -4.0273795150467936e-03 0.0000000000000000e+00  2.1079331662509644e-02 -1.0547473696223154e-01 0.0000000000000000e+00  -8.6319274112990146e-02 1.7901658879459584e-01 0.0000000000000000e+00  5.3115406431817495e-02 -1.0216366641554508e-01 0.0000000000000000e+00  -9.0125929300846327e-02 8.5771479454591321e-02 0.0000000000000000e+00  -9.8706812753781389e-02 4.2569952671010512e-02 0.0000000000000000e+00  -1.9491791595762722e-01 8.6579687069823857e-02 0.0000000000000000e+00  2.3007998546305811e-01 -1.4067669282202808e-02 0.0000000000000000e+00  7.2633700026606511e-03 -4.9962448479429697e-03 0.0000000000000000e+00  1.1110898230641421e-01 2.2817319836272265e-03 0.0000000000000000e+00  8.2847722967930706e-02 -6.0389886657582778e-03 0.0000000000000000e+00  3.7397437366292675e-02 7.1503597776195521e-04 0.0000000000000000e+00  2.4737564766675442e-02 9.5351413010976132e-04 0.0000000000000000e+00  1.9625772540096210e-02 8.8320123745535260e-04 0.0000000000000000e+00  1.8183536047125807e-02 4.2840076003241684e-04 0.0000000000000000e+00  1.8049046652449552e-02 -4.4321773549938736e-05 0.0000000000000000e+00  1.8099863035590691e-02 -4.0891395777238224e-04 0.0000000000000000e+00  1.8074623954066015e-02 -8.6486505632348682e-04 0.0000000000000000e+00  2.0159422464850016e-02 -1.2591737916955686e-03 0.0000000000000000e+00  2.6355100651683061e-02 -1.4676128424681348e-03 0.0000000000000000e+00  4.3081487887491027e-02 -1.4980902286655532e-03 0.0000000000000000e+00  3.9212494625421819e-02 -2.4728111792889718e-03 0.0000000000000000e+00  4.2689470925174770e-02 8.4919635016650254e-04 0.0000000000000000e+00  2.1195905306989254e-02 8.7744629303603363e-04 0.0000000000000000e+00  1.8456906450475909e-02 1.0069780364922280e-04 0.0000000000000000e+00  1.8676933918630477e-02 -5.8341936040894385e-04 0.0000000000000000e+00  2.2282793515454286e-02 -1.3224608124933065e-03 0.0000000000000000e+00  4.4151247417353441e-02 -1.2763825785518964e-03 0.0000000000000000e+00  2.9069321505947838e-02 1.0601368798453870e-03 0.0000000000000000e+00  1.8627304250598269e-02 8.3265500635432447e-04 0.0000000000000000e+00  1.7970323685852743e-02 -2.2807957232542271e-04 0.0000000000000000e+00  1.7633574042758303e-02 -1.1741523763283226e-03 0.0000000000000000e+00  3.0644440201665225e-02 -1.5944494191753422e-03 0.0000000000000000e+00  -9.2583645053889475e-03 -6.4521645306556234e-03 0.0000000000000000e+00  -9.4706983204481149e-02 -5.2468964843739750e-03 0.0000000000000000e+00  4.5530463731890250e-02 4.2674308676265718e-02 0.0000000000000000e+00  3.5724397147973347e-02 1.1084109803654300e-01 0.0000000000000000e+00  5.2878990275492935e-02 5.4943699169504945e-03 0.0000000000000000e+00  8.9773097264286977e-02 3.0921976802009733e-02 0.0000000000000000e+00  2.4091057293299190e-02 3.2252023118845584e-02 0.0000000000000000e+00  4.1170031902036011e-02 1.1315604928462970e-01 0.0000000000000000e+00  3.1021726614833940e-02 7.1215532630914220e-03 0.0000000000000000e+00  1.6443496924379153e-01 3.7388703506369679e-03 0.0000000000000000e+00  -1.0746398888058731e-01 -3.3722104552171665e-02 0.0000000000000000e+00  -4.7944697725060319e-02 -1.7552186564521642e-02 0.0000000000000000e+00  -6.5963029354275518e-02 -5.6176862431841751e-02 0.0000000000000000e+00  5.1336727104434897e-02 9.2287471367597865e-02 0.0000000000000000e+00  -7.1139047485673818e-02 -1.3070491993233330e-01 0.0000000000000000e+00  2.6285788539052449e-02 1.1099839807216681e-01 0.0000000000000000e+00  1.0567547354861616e-03 -4.3043080698587158e-02 0.0000000000000000e+00  -8.7389486543650065e-03 -4.0819402796587287e-02 0.0000000000000000e+00  -3.5378957481932640e-03 -1.6285671730978165e-02 0.0000000000000000e+00  -5.7729347352691819e-03 -1.9914788337158894e-02 0.0000000000000000e+00  -6.8648516087264407e-03 -2.0242251444839984e-02 0.0000000000000000e+00  -9.5658359955794383e-03 -2.4584345429980770e-02 0.0000000000000000e+00  -1.1672873809995090e-02 -2.7963622187814181e-02 0.0000000000000000e+00  -1.4164674936772577e-02 -3.2740888810819116e-02 0.0000000000000000e+00  -1.5833273313907156e-02 -3.5757418728063976e-02 0.0000000000000000e+00  -1.8082598904883482e-02 -4.2094757724793042e-02 0.0000000000000000e+00  -1.9666765487870944e-02 -4.8701229560745969e-02 0.0000000000000000e+00  -1.9722146586045264e-02 -5.3823634355460552e-02 0.0000000000000000e+00  -1.7923891449794283e-02 -5.7859244193198267e-02 0.0000000000000000e+00  -1.3789613634733237e-02 -5.6933234128619108e-02 0.0000000000000000e+00  -8.9119762972794288e-03 -5.3999520870817386e-02 0.0000000000000000e+00  -4.1697646422728211e-03 -4.9612364530840516e-02 0.0000000000000000e+00  3.4606865327566250e-03 -2.9856695597611262e-02 0.0000000000000000e+00  5.3824895647146395e-03 -4.6237861917776700e-02 0.0000000000000000e+00  1.1183795785495042e-02 -5.3693361010374453e-02 0.0000000000000000e+00  1.9215445996298160e-02 -6.5471720482755916e-02 0.0000000000000000e+00  1.6752764077049766e-02 -4.8101443571061976e-02 0.0000000000000000e+00  1.7569335872886702e-02 -4.5709656221709687e-02 0.0000000000000000e+00  1.5998060000566146e-02 -3.8718921965084134e-02 0.0000000000000000e+00  1.3966073429416333e-02 -3.2218215891713455e-02 0.0000000000000000e+00  1.2782919418394659e-02 -3.0581984928125274e-02 0.0000000000000000e+00  1.0099339402463809e-02 -2.4878579194429151e-02 0.0000000000000000e+00  7.8612441023274103e-03 -2.0791041517726778e-02 0.0000000000000000e+00  5.5185886773385104e-03 -1.6697819924174837e-02 0.0000000000000000e+00  3.1392245962496338e-03 -1.2578410593026588e-02 0.0000000000000000e+00  3.6735803887497920e-03 -1.6694107057357362e-02 0.0000000000000000e+00  9.2455425413613557e-03 -4.1561708064549147e-02 0.0000000000000000e+00  8.8656478788744599e-04 -4.4777842408715636e-02 0.0000000000000000e+00  4.2367928370345836e-03 2.3632146789468400e-02 0.0000000000000000e+00  -9.9690432123068235e-03 1.4598685710799824e-02 0.0000000000000000e+00  9.8471089251663370e-04 -8.6826499422263167e-03 0.0000000000000000e+00  6.5676229077097506e-03 -1.8413629551688335e-02 0.0000000000000000e+00  1.1874382104617076e-02 -2.8904620158212151e-02 0.0000000000000000e+00  1.5029873371822065e-02 -3.5492916489455330e-02 0.0000000000000000e+00  1.8108712162723400e-02 -5.0856767154654856e-02 0.0000000000000000e+00  1.3530030364680258e-02 -5.3863793262185856e-02 0.0000000000000000e+00  3.1948891847967749e-03 -4.4962206757568166e-02 0.0000000000000000e+00  -6.2947147736598279e-03 -5.2171305697435173e-02 0.0000000000000000e+00  -1.5874391166174499e-02 -5.7312641552719458e-02 0.0000000000000000e+00  -1.9979997802146657e-02 -5.2072252082836702e-02 0.0000000000000000e+00  -1.7005687119393126e-02 -3.8895922401194813e-02 0.0000000000000000e+00  -1.3005358735725730e-02 -3.0550028550576858e-02 0.0000000000000000e+00  -8.3543353265618341e-03 -2.2602589181434422e-02 0.0000000000000000e+00  -1.3862200923503566e-03 -9.7440928022910125e-03 0.0000000000000000e+00  1.0598217592772878e-02 1.6940196910007782e-02 0.0000000000000000e+00  -4.0953053584272241e-03 1.4452325008890532e-03 0.0000000000000000e+00  4.2070443824152749e-03 -1.4318885225062821e-02 0.0000000000000000e+00  9.0907332790708933e-03 -2.3097084916363027e-02 0.0000000000000000e+00  1.2812061439159762e-02 -2.9317362834605835e-02 0.0000000000000000e+00  1.6840110954481229e-02 -4.2343748221016504e-02 0.0000000000000000e+00  2.4993955580199415e-02 -7.3615467563455425e-02 0.0000000000000000e+00  7.9204571555631740e-03 -4.8526798997223765e-02 0.0000000000000000e+00  -1.9872363989292493e-03 -4.1992915864117769e-02 0.0000000000000000e+00  -1.1282484656388857e-02 -5.5478318741636272e-02 0.0000000000000000e+00  -1.9959894884952745e-02 -5.7887920814373689e-02 0.0000000000000000e+00  -1.9012690896141368e-02 -4.5446559892488352e-02 0.0000000000000000e+00  -1.4896925990663607e-02 -3.3756390077829580e-02 0.0000000000000000e+00  -1.0515617340282840e-02 -2.5981035291390103e-02 0.0000000000000000e+00  -6.5560282104898567e-03 -2.1055495980666805e-02 0.0000000000000000e+00  4.4405822669470914e-03 2.3036804233486060e-03 0.0000000000000000e+00  -3.8836453863427337e-02 -1.8930254007932157e-03 0.0000000000000000e+00  -3.9726609607227570e-02 1.1640577568289497e-01 0.0000000000000000e+00  -4.8894697286616481e-02 4.7465568876123486e-02 0.0000000000000000e+00  1.3132863000544234e-01 -1.1166999116308640e-02 0.0000000000000000e+00  -4.4747853569386535e-02 1.1739529725710293e-01 0.0000000000000000e+00  -2.1122378409642494e-02 2.9108399376489767e-02 0.0000000000000000e+00  -1.0380893436912252e-01 3.2943070082811339e-02 0.0000000000000000e+00  -5.0321088134522941e-02 4.6376272756777775e-03 0.0000000000000000e+00  -2.5347028329747945e-02 1.0646843741129795e-01 0.0000000000000000e+00  8.3555339004726156e-02 -1.6060669691821078e-01 0.0000000000000000e+00  -5.3430551165510452e-02 9.5811802545782851e-02 0.0000000000000000e+00  8.0755187283764338e-02 -7.2568356287549207e-02 0.0000000000000000e+00  6.9768354234593460e-02 -2.7592431796133032e-02 0.0000000000000000e+00  1.4825457590643107e-01 -5.6315006091610255e-02 0.0000000000000000e+00  -1.9254056095980182e-01 6.7057181256422816e-03 0.0000000000000000e+00  -2.0294899425069571e-02 6.1816726001543455e-03 0.0000000000000000e+00  -9.5215246248119931e-02 -4.8775859082730100e-03 0.0000000000000000e+00  -9.9570378332644011e-02 4.5566301581972182e-03 0.0000000000000000e+00  -4.0360673700122543e-02 -1.0421109509938622e-03 0.0000000000000000e+00  -2.5265919872662891e-02 -1.1800236809014690e-03 0.0000000000000000e+00  -1.9462179689817512e-02 -1.0374920707982354e-03 0.0000000000000000e+00  -1.7551498196683966e-02 -6.2384322595855754e-04 0.0000000000000000e+00  -1.7413607153634676e-02 -1.8190130166686945e-04 0.0000000000000000e+00  -1.7324235182886338e-02 1.5542086440633286e-04 0.0000000000000000e+00  -1.7348355839946535e-02 5.8416186085394946e-04 0.0000000000000000e+00  -1.9031297778880067e-02 9.9806516384268076e-04 0.0000000000000000e+00  -2.4587606799099111e-02 1.1323863847274404e-03 0.0000000000000000e+00  -3.9075957627212568e-02 9.8925488225700244e-04 0.0000000000000000e+00  -3.8463280853291912e-02 1.8538836506471312e-03 0.0000000000000000e+00  -4.3734160191725359e-02 -9.9438576858970553e-04 0.0000000000000000e+00  -2.1397765165561095e-02 -1.0705016246255908e-03 0.0000000000000000e+00  -1.7973488855871602e-02 -3.3039492359684193e-04 0.0000000000000000e+00  -1.7784898474117176e-02 2.9998121410445422e-04 0.0000000000000000e+00  -2.0841560522821344e-02 1.0305374229215686e-03 0.0000000000000000e+00  -4.2706047377830333e-02 9.3920373995730376e-04 0.0000000000000000e+00  -2.9705959161462667e-02 -1.2952359790765762e-03 0.0000000000000000e+00  -1.7557346314315991e-02 -9.7609998142934688e-04 0.0000000000000000e+00  -1.7269531764192773e-02 -1.2127557809136488e-05 0.0000000000000000e+00  -1.7392479773968336e-02 9.3201723045493773e-04 0.0000000000000000e+00  -2.8889472456756656e-02 1.2487190814517825e-03 0.0000000000000000e+00  1.2765542392633067e-01 1.0529493757967242e-02 0.0000000000000000e+00  -4.6328283568495894e-02 -4.5542569839163577e-02 0.0000000000000000e+00  -3.7417780962078040e-02 -1.1923727942008629e-01 0.0000000000000000e+00  -5.0330249563597614e-02 -4.8593952134934988e-03 0.0000000000000000e+00  -1.0303307265312665e-01 -3.4790875292207125e-02 0.0000000000000000e+00  -2.0564487540366223e-02 -2.9584298520388623e-02 0.0000000000000000e+00  -4.1887121628323476e-02 -1.2023917099275001e-01 0.0000000000000000e+00  -2.0137134834670320e-02 -6.2157615545410808e-03 0.0000000000000000e+00  -1.9402995953970911e-01 -8.6102312888294459e-03 0.0000000000000000e+00  1.4613063675142446e-01 5.6607369569447563e-02 0.0000000000000000e+00  6.9820761163280370e-02 2.8180651559392894e-02 0.0000000000000000e+00  7.9820798778491464e-02 7.2744885023230177e-02 0.0000000000000000e+00  -5.2878153311706450e-02 -9.8589567100020106e-02 0.0000000000000000e+00  7.9357053064730829e-02 1.5610473203314992e-01 0.0000000000000000e+00  -2.6570394574830611e-02 -1.1878086200257880e-01 0.0000000000000000e+00  2.7485649281731792e-05 2.4374474677289975e-05 0.0000000000000000e+00  -2.0942969454295978e-05 -2.4427731193923397e-05 0.0000000000000000e+00  1.4245954765287037e-05 -2.8499213414182647e-06 0.0000000000000000e+00  9.6555634093909066e-06 -4.1772400577909641e-05 0.0000000000000000e+00  -6.6913215850808921e-06 3.7384927371305169e-05 0.0000000000000000e+00  -2.2806716584034919e-05 5.0047961465282692e-06 0.0000000000000000e+00  -5.8630405458138458e-06 -9.2038403484627452e-06 0.0000000000000000e+00  3.1787587283229493e-06 5.7135648339938039e-06 0.0000000000000000e+00  3.8156058273815710e-06 -6.5564788075861423e-06 0.0000000000000000e+00  -2.1099888757673192e-06 4.1208146164275916e-06 0.0000000000000000e+00  -3.4378211214647418e-06 4.2461612825318837e-05 0.0000000000000000e+00  -3.1795119888134444e-06 1.9685181516203583e-05 0.0000000000000000e+00  -9.9753631558425273e-06 3.3651998823224630e-05 0.0000000000000000e+00  -3.0216761364050809e-07 -5.9703690556029711e-06 0.0000000000000000e+00  1.3118072203578191e-07 -9.0569297842242114e-06 0.0000000000000000e+00  -1.2848442890986455e-07 -3.4562803452746932e-06 0.0000000000000000e+00  -4.4170769519097483e-05 5.8248627428578414e-05 0.0000000000000000e+00  3.8112213105084879e-06 1.4732267193801448e-06 0.0000000000000000e+00  3.5244839072291496e-06 -5.4383411221295918e-07 0.0000000000000000e+00  6.8022402906912227e-05 -3.3643281980948983e-06 0.0000000000000000e+00  5.6562409307723963e-05 7.8621203587724172e-05 0.0000000000000000e+00  1.8310727560085535e-05 -4.2323466535649828e-05 0.0000000000000000e+00  -6.6443654428004098e-06 3.2853887943015561e-06 0.0000000000000000e+00  5.4895179641612413e-06 -4.4589387516886279e-05 0.0000000000000000e+00  4.7338126854564030e-06 -2.2703202173662037e-05 0.0000000000000000e+00  -1.6800550365467693e-08 -4.4017992759286056e-07 0.0000000000000000e+00  4.2716190334940411e-06 2.3572663450883340e-05 0.0000000000000000e+00  -5.7049399817495533e-06 -4.8919839910020701e-05 0.0000000000000000e+00  2.9382725644605314e-05 6.7749155271693348e-06 0.0000000000000000e+00  3.8853052174039979e-06 4.2858340817288740e-05 0.0000000000000000e+00  7.5951070426727918e-06 3.5896636311800427e-05 0.0000000000000000e+00  -2.4638387543646700e-05 2.5837435512607812e-05 0.0000000000000000e+00  -1.3570657079776159e-05 -3.6452060641489689e-05 0.0000000000000000e+00  -1.9726175983607997e-05 -5.5807270845199895e-06 0.0000000000000000e+00  3.4960899819730260e-05 -3.5258537395553818e-05 0.0000000000000000e+00  -6.4051105898918961e-06 -2.7969648753566360e-05 0.0000000000000000e+00  1.0092080707449551e-05 -3.2856497615854093e-05 0.0000000000000000e+00  2.8119979300522571e-07 2.5208432287069076e-06 0.0000000000000000e+00  -7.4785618758183318e-06 -3.9724257249874459e-05 0.0000000000000000e+00  9.5252187843637552e-06 2.2293704556103514e-05 0.0000000000000000e+00  -3.53823