<?xml version="1.0"?>
<VTKFile type="UnstructuredGrid"  version="0.1"  >
<UnstructuredGrid>
<Piece  NumberOfPoints="4153" NumberOfCells="8064">
<Points>
<DataArray  type="Float64"  NumberOfComponents="3"  format="ascii">-0.4249999999999999 -0.5 0  -0.02499999999999988 -0.5 0  -0.07499999999999987 -0.5 0  -0.1249999999999998 -0.5 0  -0.1749999999999998 -0.5 0  -0.2249999999999998 -0.5 0  -0.2749999999999998 -0.5 0  -0.3249999999999998 -0.5 0  -0.3749999999999999 -0.5 0  0.02500000000000016 -0.5 0  -0.4749999999999998 -0.5 0  -0.5249999999999998 -0.5 0  -0.5749999999999998 -0.5 0  -0.6249999999999999 -0.5 0  -0.6749999999999999 -0.5 0  -0.725 -0.5 0  -0.775 -0.5 0  0.8 -0.5 0  0.07500000000000025 -0.5 0  0.1250000000000003 -0.5 0  0.1750000000000004 -0.5 0  0.2250000000000004 -0.5 0  0.2750000000000004 -0.5 0  0.3250000000000003 -0.5 0  0.3750000000000001 -0.5 0  0.4250000000000002 -0.5 0  0.4750000000000002 -0.5 0  0.5250000000000001 -0.5 0  0.5750000000000002 -0.5 0  0.625 -0.5 0  0.675 -0.5 0  0.725 -0.5 0  0.775 -0.5 0  0.75 -0.5 0  -0.75 -0.5 0  -0.6499999999999999 -0.5 0  -0.5499999999999998 -0.5 0  -0.4499999999999998 -0.5 0  -0.3499999999999999 -0.5 0  -0.2499999999999998 -0.5 0  -0.1499999999999998 -0.5 0  -0.04999999999999988 -0.5 0  0.7 -0.5 0  0.1500000000000004 -0.5 0  0.2500000000000003 -0.5 0  0.3500000000000002 -0.5 0  0.4500000000000002 -0.5 0  0.5500000000000002 -0.5 0  0.65 -0.5 0  0.0500000000000002 -0.5 0  -0.8 -0.5 0  0.6000000000000001 -0.5 0  0.5000000000000002 -0.5 0  0.4000000000000001 -0.5 0  0.3000000000000003 -0.5 0  0.2000000000000004 -0.5 0  0.1000000000000003 -0.5 0  1.110223024625157e-16 -0.5 0  -0.09999999999999987 -0.5 0  -0.1999999999999998 -0.5 0  -0.2999999999999998 -0.5 0  -0.3999999999999999 -0.5 0  -0.4999999999999998 -0.5 0  -0.5999999999999999 -0.5 0  -0.7 -0.5 0  1 -0.3 0  0.8765366864730179 -0.4847759065022574 0  0.9414213562373094 -0.4414213562373097 0  0.9847759065022573 -0.3765366864730181 0  0.838268343236509 -0.4923879532511287 0  0.9089790213551636 -0.4630986313697836 0  0.9630986313697834 -0.4089790213551639 0  0.9923879532511286 -0.338268343236509 0  0.8191341716182545 -0.4961939766255644 0  0.8574025148547635 -0.488581929876693 0  0.8927578539140908 -0.4739372689360205 0  0.9252001887962364 -0.4522599938035466 0  0.9522599938035463 -0.4252001887962368 0  0.9739372689360204 -0.392757853914091 0  0.9885819298766929 -0.3574025148547635 0  0.9961939766255643 -0.3191341716182545 0  1 -0.275 0  1 0.275 0  1 0.225 0  1 0.175 0  1 0.125 0  1 0.07499999999999994 0  1 0.02499999999999987 0  1 -0.0250000000000002 0  1 -0.07500000000000026 0  1 -0.1250000000000003 0  1 -0.1750000000000002 0  1 -0.2250000000000001 0  1 0.3 0  1 0.25 0  1 0.15 0  1 0.04999999999999991 0  1 -0.05000000000000023 0  1 -0.1500000000000002 0  1 -0.2500000000000001 0  1 0.2 0  1 0.09999999999999998 0  1 -1.665334536937735e-16 0  1 -0.1000000000000003 0  1 -0.2000000000000002 0  0.8 0.5 0  0.9847759065022573 0.3765366864730181 0  0.9414213562373094 0.4414213562373097 0  0.8765366864730179 0.4847759065022574 0  0.9923879532511286 0.338268343236509 0  0.9630986313697834 0.4089790213551639 0  0.9089790213551636 0.4630986313697836 0  0.838268343236509 0.4923879532511287 0  0.9961939766255643 0.3191341716182545 0  0.9885819298766929 0.3574025148547635 0  0.9739372689360204 0.392757853914091 0  0.9522599938035463 0.4252001887962368 0  0.9252001887962364 0.4522599938035466 0  0.8927578539140908 0.4739372689360205 0  0.8574025148547635 0.488581929876693 0  0.8191341716182545 0.4961939766255644 0  -0.02500000000000016 0.5 0  0.725 0.5 0  0.6749999999999999 0.5 0  0.6249999999999999 0.5 0  0.5749999999999998 0.5 0  0.5249999999999998 0.5 0  0.4749999999999998 0.5 0  0.4249999999999999 0.5 0  0.3749999999999999 0.5 0  0.3249999999999998 0.5 0  0.2749999999999998 0.5 0  0.2249999999999998 0.5 0  0.1749999999999998 0.5 0  0.1249999999999998 0.5 0  0.07499999999999987 0.5 0  0.02499999999999988 0.5 0  0.775 0.5 0  -0.07500000000000025 0.5 0  -0.1250000000000003 0.5 0  -0.1750000000000004 0.5 0  -0.2250000000000004 0.5 0  -0.2750000000000004 0.5 0  -0.3250000000000003 0.5 0  -0.3750000000000001 0.5 0  -0.4250000000000002 0.5 0  -0.4750000000000002 0.5 0  -0.5250000000000001 0.5 0  -0.5750000000000002 0.5 0  -0.625 0.5 0  -0.675 0.5 0  -0.725 0.5 0  -0.775 0.5 0  -0.8 0.5 0  -0.75 0.5 0  -0.65 0.5 0  -0.5500000000000002 0.5 0  -0.4500000000000002 0.5 0  -0.3500000000000002 0.5 0  -0.2500000000000003 0.5 0  -0.1500000000000004 0.5 0  -0.0500000000000002 0.5 0  0.04999999999999988 0.5 0  0.1499999999999998 0.5 0  0.2499999999999998 0.5 0  0.3499999999999999 0.5 0  0.4499999999999998 0.5 0  0.5499999999999998 0.5 0  0.6499999999999999 0.5 0  0.75 0.5 0  -0.7 0.5 0  -0.6000000000000001 0.5 0  -0.5000000000000002 0.5 0  -0.4000000000000001 0.5 0  -0.3000000000000003 0.5 0  -0.2000000000000004 0.5 0  -0.1000000000000003 0.5 0  -1.110223024625157e-16 0.5 0  0.09999999999999987 0.5 0  0.1999999999999998 0.5 0  0.2999999999999998 0.5 0  0.3999999999999999 0.5 0  0.4999999999999998 0.5 0  0.5999999999999999 0.5 0  0.7 0.5 0  -1 0.3 0  -0.8765366864730181 0.4847759065022573 0  -0.9414213562373097 0.4414213562373094 0  -0.9847759065022574 0.3765366864730179 0  -0.838268343236509 0.4923879532511287 0  -0.9089790213551638 0.4630986313697834 0  -0.9630986313697836 0.4089790213551636 0  -0.9923879532511287 0.338268343236509 0  -0.8191341716182545 0.4961939766255643 0  -0.8574025148547635 0.488581929876693 0  -0.892757853914091 0.4739372689360203 0  -0.9252001887962368 0.4522599938035464 0  -0.9522599938035466 0.4252001887962365 0  -0.9739372689360205 0.3927578539140908 0  -0.9885819298766931 0.3574025148547634 0  -0.9961939766255643 0.3191341716182545 0  -1 0.275 0  -1 -0.275 0  -1 -0.225 0  -1 -0.175 0  -1 -0.125 0  -1 -0.07499999999999994 0  -1 -0.02499999999999987 0  -1 0.0250000000000002 0  -1 0.07500000000000026 0  -1 0.1250000000000003 0  -1 0.1750000000000002 0  -1 0.2250000000000001 0  -1 -0.3 0  -1 -0.25 0  -1 -0.15 0  -1 -0.04999999999999991 0  -1 0.05000000000000023 0  -1 0.1500000000000002 0  -1 0.2500000000000001 0  -1 -0.2 0  -1 -0.09999999999999998 0  -1 1.665334536937735e-16 0  -1 0.1000000000000003 0  -1 0.2000000000000002 0  -0.9847759065022574 -0.3765366864730179 0  -0.9414213562373096 -0.4414213562373094 0  -0.8765366864730181 -0.4847759065022573 0  -0.9923879532511287 -0.338268343236509 0  -0.9630986313697836 -0.4089790213551636 0  -0.9089790213551638 -0.4630986313697834 0  -0.838268343236509 -0.4923879532511287 0  -0.9961939766255643 -0.3191341716182545 0  -0.9885819298766931 -0.3574025148547634 0  -0.9739372689360205 -0.3927578539140908 0  -0.9522599938035465 -0.4252001887962365 0  -0.9252001887962367 -0.4522599938035464 0  -0.892757853914091 -0.4739372689360203 0  -0.8574025148547635 -0.488581929876693 0  -0.8191341716182545 -0.4961939766255643 0  -0.3000000000000003 0.3267949192431125 0  0.3181343990330772 -0.3439416921723297 0  -0.08257249764926196 -0.3383308877677023 0  -0.50979744334887 -0.3255818518047211 0  0.5060441378325211 0.3274561643884037 0  0.1037631564626732 0.3131559137665553 0  0.843149210446875 -0.1923130104173427 0  -0.8418263458721231 0.1927503215247096 0  -0.8408809410250262 -0.1897116835785854 0  0.8409071959036176 0.1896235182386696 0  0.705967194587281 0.3354524287114743 0  0.6276370409402552 0.1658336215477063 0  0.4215070288293651 0.1446794873901968 0  0.5369019087152576 -0.01677883310260353 0  0.3378219718963524 -0.0304857337078401 0  0.7359191653189867 -0.0003779706345871367 0  0.2206709281181736 0.1292871338121241 0  0.1390057666500616 -0.05482518983879574 0  0.02156604114872933 0.1091113821954512 0  -0.05991856886335568 -0.07544049830328706 0  -0.2091026540303009 0.113218101697482 0  -0.2557387210741711 -0.08957125969209863 0  -0.3742518736706093 0.02381865171750689 0  -0.7065883696935737 -0.3351547375041799 0  -0.6319769825415822 -0.1640183941417108 0  -0.7379485134301987 -0.0003221286420197649 0  -0.6263925638672921 0.1747922261462193 0  0.7000000000000003 -0.3471147448144379 0  -0.09731754444756222 0.2985839976753261 0  -0.7019016658227 0.339872535812372 0  -0.5036626740707574 0.3416097573515475 0  0.3086642085404555 0.31909644989288 0  0.4355889359290377 -0.1794947220360297 0  0.1233906847482294 -0.33992001942789 0  -0.2910439982708135 -0.2942818290560931 0  0.6252598700683595 -0.1832373653183336 0  -0.4390211493546888 -0.1414717198202583 0  -0.5445756908252299 0.01225332998817602 0  0.5094027625036279 -0.3483114655372777 0  -0.8570298735864267 0.3548088427148782 0  0.2432245006188761 -0.181388344807941 0  0.8576591493456415 0.3532994606374906 0  -0.8577781333911819 -0.3532575554640149 0  0.856914113336837 -0.3561698222938181 0  -0.4103395160999327 0.186370105143853 0  0.04059278020228735 -0.1932320619509051 0  -0.894759031223147 0.000141425932117211 0  0.8948577502800618 -0.0001596971477125707 0  -0.1430838089440986 -0.1942958300671257 0  -0.4774576034625814 0.09931171756601452 0  -0.5183660399836124 0.1805811656450362 0  -0.585484127346261 0.09352277806719765 0  -0.3551697580499665 0.2565825121934828 0  -0.3097210850651168 0.1497941034206675 0  -0.2545513270151506 0.2200065104702973 0  -0.3922956948852711 0.10509437843068 0  -0.4594137822479196 0.01803599085284146 0  -0.1532100992389315 0.205901049686404 0  -0.1986587722237813 0.3126894584592193 0  -0.1486587722237813 0.399291998837663 0  -0.04865877222378117 0.399291998837663 0  0.5673313162859936 -0.2657744154278056 0  0.6047013812518141 -0.3477131051758577 0  0.6626299350341799 -0.2651760550663858 0  0.4724958492163328 -0.2639030937866537 0  0.5304244029986986 -0.1813660436771817 0  -0.3650325738127511 -0.2178767744381757 0  -0.4744092963517794 -0.2335267858124897 0  -0.4004207208098418 -0.3099318404304071 0  -0.3473799352144299 -0.1155214897561785 0  -0.2733913596724923 -0.1919265443740958 0  0.06266459880570127 0.2111336479810033 0  0.1211184846334515 0.1191992580037876 0  0.1622170422904234 0.2212215237893397 0  
[...]
<PointData  Vectors="f_45"> 
<DataArray  type="Float64"  Name="f_45"  NumberOfComponents="3" format="ascii">2.2360679779553602e-01 -1.5245318625910201e-10 0.0000000000000000e+00  2.2360679775050962e-01 3.8219825955625930e-11 0.0000000000000000e+00  2.2360679774993761e-01 -7.1730394215095850e-12 0.0000000000000000e+00  2.2360679775071343e-01 -5.2793034952289508e-11 0.0000000000000000e+00  2.2360679775175862e-01 -9.7138822546026645e-11 0.0000000000000000e+00  2.2360679776577130e-01 -1.3786570981978012e-10 0.0000000000000000e+00  2.2360679777392986e-01 -1.7323722325302999e-10 0.0000000000000000e+00  2.2360679778350939e-01 -2.0374733092145678e-10 0.0000000000000000e+00  2.2360679779644646e-01 -2.2340641062565094e-10 0.0000000000000000e+00  2.2360679775236333e-01 8.1525040864306360e-11 0.0000000000000000e+00  2.2360679806753686e-01 1.1143624717419302e-09 0.0000000000000000e+00  2.2360680174349673e-01 1.9021529717441074e-08 0.0000000000000000e+00  2.2360685287554063e-01 2.6868006367915982e-07 0.0000000000000000e+00  2.2360756494924605e-01 3.7462330717774907e-06 0.0000000000000000e+00  2.2361748294000969e-01 5.2182604214809861e-05 0.0000000000000000e+00  2.2375562262936868e-01 7.2681470334315195e-04 0.0000000000000000e+00  2.2567966038784784e-01 1.0123229091789360e-02 0.0000000000000000e+00  2.1587076912237188e-01 3.7780409807148266e-02 0.0000000000000000e+00  2.2360679775518541e-01 1.2124333037952932e-10 0.0000000000000000e+00  2.2360679775857650e-01 1.5639920421349889e-10 0.0000000000000000e+00  2.2360679776240416e-01 1.8652902387570361e-10 0.0000000000000000e+00  2.2360679776393397e-01 2.1172180137539167e-10 0.0000000000000000e+00  2.2360679776690368e-01 2.3258534762250323e-10 0.0000000000000000e+00  2.2360679776962031e-01 2.4934263181279311e-10 0.0000000000000000e+00  2.2360679777388698e-01 2.5727327561492471e-10 0.0000000000000000e+00  2.2360679779169115e-01 1.7773197956991336e-10 0.0000000000000000e+00  2.2360679805733122e-01 -1.0967222957326842e-09 0.0000000000000000e+00  2.2360680173018568e-01 -1.9009350456785712e-08 0.0000000000000000e+00  2.2360685285817042e-01 -2.6867188709355452e-07 0.0000000000000000e+00  2.2360756494209122e-01 -3.7462273308691850e-06 0.0000000000000000e+00  2.2361748292878689e-01 -5.2182601025510722e-05 0.0000000000000000e+00  2.2375562261363832e-01 -7.2681470483019843e-04 0.0000000000000000e+00  2.2567966035298331e-01 -1.0123229106156564e-02 0.0000000000000000e+00  2.2305137601639288e-01 2.7125115979909249e-03 0.0000000000000000e+00  2.2305137603573127e-01 -2.7125115870063709e-03 0.0000000000000000e+00  2.2360393472257872e-01 -1.3982736661480933e-05 0.0000000000000000e+00  2.2360678303234871e-01 -7.2377025161177848e-08 0.0000000000000000e+00  2.2360679770694850e-01 -6.3424737926198694e-10 0.0000000000000000e+00  2.2360679778612100e-01 -2.1991812218664691e-10 0.0000000000000000e+00  2.2360679776898065e-01 -1.5567913718069568e-10 0.0000000000000000e+00  2.2360679775230408e-01 -7.4852743055659334e-11 0.0000000000000000e+00  2.2360679775006156e-01 1.5663248949088389e-11 0.0000000000000000e+00  2.2356692031011235e-01 1.9474991894383889e-04 0.0000000000000000e+00  2.2360679776019293e-01 1.7212144600881425e-10 0.0000000000000000e+00  2.2360679776556738e-01 2.2273217045767083e-10 0.0000000000000000e+00  2.2360679777001755e-01 2.5931829669819817e-10 0.0000000000000000e+00  2.2360679769643010e-01 6.5511251994384538e-10 0.0000000000000000e+00  2.2360678301838890e-01 7.2387055053624411e-08 0.0000000000000000e+00  2.2360393471182280e-01 1.3982741284552517e-05 0.0000000000000000e+00  2.2360679775368439e-01 1.0189677372781091e-10 0.0000000000000000e+00  2.1587076914958209e-01 -3.7780409804645254e-02 0.0000000000000000e+00  2.2360659221964296e-01 1.0042194352943892e-06 0.0000000000000000e+00  2.2360679671488468e-01 5.4712311046189896e-09 0.0000000000000000e+00  2.2360679776517928e-01 2.9769326481261076e-10 0.0000000000000000e+00  2.2360679776817385e-01 2.4177478547698202e-10 0.0000000000000000e+00  2.2360679776278397e-01 1.9992433216136819e-10 0.0000000000000000e+00  2.2360679775680858e-01 1.3943331584844025e-10 0.0000000000000000e+00  2.2360679775134978e-01 6.0171025246996468e-11 0.0000000000000000e+00  2.2360679775026598e-01 -3.0050331801701517e-11 0.0000000000000000e+00  2.2360679775843353e-01 -1.1514129158763893e-10 0.0000000000000000e+00  2.2360679777826578e-01 -1.8948612362849470e-10 0.0000000000000000e+00  2.2360679778378575e-01 -2.6977744260010664e-10 0.0000000000000000e+00  2.2360679672683012e-01 -5.4565499925035096e-09 0.0000000000000000e+00  2.2360659223313931e-01 -1.0042130333242290e-06 0.0000000000000000e+00  2.2356692032358125e-01 -1.9474991474324556e-04 0.0000000000000000e+00  -2.1587076914649261e-01 3.7780409709455350e-02 0.0000000000000000e+00  1.4568495743807880e-01 1.4582861256707924e-01 0.0000000000000000e+00  -2.3175116933587029e-11 2.0595938362933267e-01 0.0000000000000000e+00  -1.4568495748089616e-01 1.4582861250528834e-01 0.0000000000000000e+00  2.0289890423856211e-01 8.6461173573037356e-02 0.0000000000000000e+00  8.3752311648772379e-02 2.0220120959715607e-01 0.0000000000000000e+00  -8.3752311723201495e-02 2.0220120956154530e-01 0.0000000000000000e+00  -2.0289890426845986e-01 8.6461173477433567e-02 0.0000000000000000e+00  2.0518619708771191e-01 9.7295529132492578e-02 0.0000000000000000e+00  2.2273264879276872e-01 7.0283480454391908e-02 0.0000000000000000e+00  7.0996608928280525e-02 2.2287115869056781e-01 0.0000000000000000e+00  1.0741784549699471e-01 2.0783846738374953e-01 0.0000000000000000e+00  -1.0741784555896021e-01 2.0783846731858230e-01 0.0000000000000000e+00  -7.0996609000403776e-02 2.2287115868605967e-01 0.0000000000000000e+00  -2.2273264878489560e-01 7.0283480361006831e-02 0.0000000000000000e+00  -2.0518619713199068e-01 9.7295529045302503e-02 0.0000000000000000e+00  -2.2567966028263312e-01 -1.0123229230177703e-02 0.0000000000000000e+00  -2.2567966028532993e-01 1.0123229223717148e-02 0.0000000000000000e+00  -2.2375562257884130e-01 7.2681485808216088e-04 0.0000000000000000e+00  -2.2361748289979758e-01 5.2182785867602441e-05 0.0000000000000000e+00  -2.2360756491516151e-01 3.7464355344095355e-06 0.0000000000000000e+00  -2.2360685284958814e-01 2.6881814437458739e-07 0.0000000000000000e+00  -2.2360680198840377e-01 1.7900411149263696e-08 0.0000000000000000e+00  -2.2360680198839822e-01 -1.7905512769249245e-08 0.0000000000000000e+00  -2.2360685284961834e-01 -2.6882315617330295e-07 0.0000000000000000e+00  -2.2360756491451528e-01 -3.7464402852463779e-06 0.0000000000000000e+00  -2.2361748289880787e-01 -5.2182790263974745e-05 0.0000000000000000e+00  -2.2375562257740950e-01 -7.2681486261270381e-04 0.0000000000000000e+00  -2.1587076914783460e-01 -3.7780409709222432e-02 0.0000000000000000e+00  -2.2305137600635078e-01 -2.7125114540436568e-03 0.0000000000000000e+00  -2.2360393468351031e-01 -1.3982538429113252e-05 0.0000000000000000e+00  -2.2360678291567901e-01 -7.1753526302991265e-08 0.0000000000000000e+00  -2.2360678291563635e-01 7.1748493110212450e-08 0.0000000000000000e+00  -2.2360393468271894e-01 1.3982533956090180e-05 0.0000000000000000e+00  -2.2305137600326128e-01 2.7125114524530702e-03 0.0000000000000000e+00  -2.2356692028451425e-01 -1.9474974753859778e-04 0.0000000000000000e+00  -2.2360659218696816e-01 -1.0039600640077279e-06 0.0000000000000000e+00  -2.2360679563077682e-01 -2.5565076745779208e-12 0.0000000000000000e+00  -2.2360659218674792e-01 1.0039554088591589e-06 0.0000000000000000e+00  -2.2356692028304279e-01 1.9474974374079316e-04 0.0000000000000000e+00  2.1587076914954809e-01 -3.7780409803125997e-02 0.0000000000000000e+00  -1.4568495748541530e-01 -1.4582861250576906e-01 0.0000000000000000e+00  -7.6462004580406299e-12 -2.0595938364488370e-01 0.0000000000000000e+00  1.4568495746580670e-01 -1.4582861260087687e-01 0.0000000000000000e+00  -2.0289890426815282e-01 -8.6461173480093870e-02 0.0000000000000000e+00  -8.3752311721158337e-02 -2.0220120956609577e-01 0.0000000000000000e+00  8.3752311660229437e-02 -2.0220120961474769e-01 0.0000000000000000e+00  2.0289890425598028e-01 -8.6461173575019742e-02 0.0000000000000000e+00  -2.0518619713051112e-01 -9.7295529049529428e-02 0.0000000000000000e+00  -2.2273264877739082e-01 -7.0283480360301576e-02 0.0000000000000000e+00  -7.0996608993679766e-02 -2.2287115868853827e-01 0.0000000000000000e+00  -1.0741784555973136e-01 -2.0783846730569441e-01 0.0000000000000000e+00  1.0741784548300841e-01 -2.0783846737800032e-01 0.0000000000000000e+00  7.0996608925536706e-02 -2.2287115865470319e-01 0.0000000000000000e+00  2.2273264878025539e-01 -7.0283480449490537e-02 0.0000000000000000e+00  2.0518619707555646e-01 -9.7295529120595234e-02 0.0000000000000000e+00  2.2360679775043735e-01 -2.3607004956381670e-11 0.0000000000000000e+00  2.2375562262798002e-01 7.2681470597755322e-04 0.0000000000000000e+00  2.2361748293905864e-01 5.2182606540409623e-05 0.0000000000000000e+00  2.2360756494870135e-01 3.7462346425141531e-06 0.0000000000000000e+00  2.2360685287336993e-01 2.6868030866577271e-07 0.0000000000000000e+00  2.2360680174257999e-01 1.9019355401893943e-08 0.0000000000000000e+00  2.2360679806799288e-01 1.1084278381969605e-09 0.0000000000000000e+00  2.2360679780032219e-01 -1.6415958739135355e-10 0.0000000000000000e+00  2.2360679778479919e-01 -2.4192644580720875e-10 0.0000000000000000e+00  2.2360679777842121e-01 -2.3203781814735168e-10 0.0000000000000000e+00  2.2360679777381098e-01 -2.1343437298914896e-10 0.0000000000000000e+00  2.2360679776874079e-01 -1.9099941122373802e-10 0.0000000000000000e+00  2.2360679776614847e-01 -1.6480077184601179e-10 0.0000000000000000e+00  2.2360679776062606e-01 -1.3449773573943773e-10 0.0000000000000000e+00  2.2360679775589451e-01 -1.0033915236754647e-10 0.0000000000000000e+00  2.2360679775227099e-01 -6.2864858299139648e-11 0.0000000000000000e+00  2.2567966038469067e-01 1.0123229094769476e-02 0.0000000000000000e+00  2.2360679775012837e-01 1.6138788728171591e-11 0.0000000000000000e+00  2.2360679775231149e-01 5.5372975287508946e-11 0.0000000000000000e+00  2.2360679775712561e-01 9.2428331772118415e-11 0.0000000000000000e+00  2.2360679775668660e-01 1.2682266151492850e-10 0.0000000000000000e+00  2.2360679776125494e-01 1.5832901137730304e-10 0.0000000000000000e+00  2.2360679776580406e-01 1.8560757828565160e-10 0.0000000000000000e+00  2.2360679777245515e-01 2.0351355538085070e-10 0.0000000000000000e+00  2.2360679778699988e-01 1.3294981891194657e-10 0.0000000000000000e+00  2.2360679805478653e-01 -1.1334329645722663e-09 0.0000000000000000e+00  2.2360680172894884e-01 -1.9039214521392062e-08 0.0000000000000000e+00  2.2360685285781942e-01 -2.6869597834203920e-07 0.0000000000000000e+00  2.2360756494370543e-01 -3.7462465400529735e-06 0.0000000000000000e+00  2.2361748293226910e-01 -5.2182615980446964e-05 0.0000000000000000e+00  2.2375562261932824e-01 -7.2681471448469623e-04 0.0000000000000000e+00  2.2567966036622114e-01 -1.0123229106225489e-02 0.0000000000000000e+00  2.1587076913988582e-01 3.7780409799640320e-02 0.0000000000000000e+00  2.2305137602636782e-01 2.7125115824415398e-03 0.0000000000000000e+00  2.2360393471458806e-01 1.3982724064845744e-05 0.0000000000000000e+00  2.2360678301792983e-01 7.2360212859320320e-08 0.0000000000000000e+00  2.2360679769364103e-01 6.1459549848443259e-10 0.0000000000000000e+00  2.2360679776701484e-01 2.0070887518160937e-10 0.0000000000000000e+00  2.2360679775943157e-01 1.4335425256600743e-10 0.0000000000000000e+00  2.2360679775382658e-01 7.4478770169003609e-11 0.0000000000000000e+00  2.2360679774990172e-01 -3.9161407851379865e-12 0.0000000000000000e+00  2.2360679775393769e-01 -8.2119916621290524e-11 0.0000000000000000e+00  2.2360679776309700e-01 -1.5018203924234442e-10 0.0000000000000000e+00  2.2360679777164832e-01 -2.0275619746241818e-10 0.0000000000000000e+00  2.2360679777953210e-01 -2.4298347169593178e-10 0.0000000000000000e+00  2.2360679770663397e-01 -6.4253185706315290e-10 0.0000000000000000e+00  2.2360678303115805e-01 -7.2377853663178951e-08 0.0000000000000000e+00  2.2360393472171211e-01 -1.3982734627087401e-05 0.0000000000000000e+00  2.2305137603479283e-01 -2.7125115848706254e-03 0.0000000000000000e+00  2.2356692031518621e-01 1.9474990472755004e-04 0.0000000000000000e+00  2.2360659222183007e-01 1.0041979770509601e-06 0.0000000000000000e+00  2.2360679671309758e-01 5.4380903195366001e-09 0.0000000000000000e+00  2.2360679776392758e-01 2.4899202948482595e-10 0.0000000000000000e+00  2.2360679776337861e-01 1.7282685425828978e-10 0.0000000000000000e+00  2.2360679775718975e-01 1.1178187228085633e-10 0.0000000000000000e+00  2.2360679775085715e-01 3.5929531226756436e-11 0.0000000000000000e+00  2.2360679775118691e-01 -4.4517442080280019e-11 0.0000000000000000e+00  2.2360679775812797e-01 -1.1787702652943063e-10 0.0000000000000000e+00  2.2360679776800665e-01 -1.7866010863783852e-10 0.0000000000000000e+00  2.2360679777601053e-01 -2.2352391867015782e-10 0.0000000000000000e+00  2.2360679777578996e-01 -2.8338502184632636e-10 0.0000000000000000e+00  2.2360679672633280e-01 -5.4603934859591462e-09 0.0000000000000000e+00  2.2360659223253296e-01 -1.0042120043771285e-06 0.0000000000000000e+00  2.2356692032254433e-01 -1.9474991231858356e-04 0.0000000000000000e+00  -2.1587076914584194e-01 3.7780409713197433e-02 0.0000000000000000e+00  1.4568495745469748e-01 1.4582861258100446e-01 0.0000000000000000e+00  -1.4273730991389641e-11 2.0595938363853930e-01 0.0000000000000000e+00  -1.4568495748339852e-01 1.4582861251092188e-01 0.0000000000000000e+00  2.0289890424900436e-01 8.6461173569123570e-02 0.0000000000000000e+00  8.3752311658113213e-02 2.0220120960456486e-01 0.0000000000000000e+00  -8.3752311719523811e-02 2.0220120956680698e-01 0.0000000000000000e+00  -2.0289890426804785e-01 8.6461173483104017e-02 0.0000000000000000e+00  2.0518619708312388e-01 9.7295529122073537e-02 0.0000000000000000e+00  2.2273264878523771e-01 7.0283480446811111e-02 0.0000000000000000e+00  7.0996608929917673e-02 2.2287115867238999e-01 0.0000000000000000e+00  1.0741784549315071e-01 2.0783846737649700e-01 0.0000000000000000e+00  -1.0741784555538528e-01 2.0783846731452463e-01 0.0000000000000000e+00  -7.0996608993342231e-02 2.2287115868482091e-01 0.0000000000000000e+00  -2.2273264878028437e-01 7.0283480364300197e-02 0.0000000000000000e+00  -2.0518619712891434e-01 9.7295529050348772e-02 0.0000000000000000e+00  -2.2567966028879954e-01 -1.0123229221774489e-02 0.0000000000000000e+00  -2.2567966028382896e-01 1.0123229226814285e-02 0.0000000000000000e+00  -2.2375562257798351e-01 7.2681486221316924e-04 0.0000000000000000e+00  -2.2361748289915248e-01 5.2182790975146258e-05 0.0000000000000000e+00  -2.2360756491461242e-01 3.7464415766826131e-06 0.0000000000000000e+00  -2.2360685284960327e-01 2.6882505247438303e-07 0.0000000000000000e+00  -2.2360680198839264e-01 1.7908072963531983e-08 0.0000000000000000e+00  -2.2360680198840863e-01 -1.7897293800695559e-08 0.0000000000000000e+00  -2.2360685284957818e-01 -2.6881461780325479e-07 0.0000000000000000e+00  -2.2360756491544043e-01 -3.7464317195722989e-06 0.0000000000000000e+00  -2.2361748290017491e-01 -5.2182781985553916e-05 0.0000000000000000e+00  -2.2375562257969908e-01 -7.2681485465719885e-04 0.0000000000000000e+00  -2.1587076914770228e-01 -3.7780409706520586e-02 0.0000000000000000e+00  -2.2305137600587824e-01 -2.7125114503405634e-03 0.0000000000000000e+00  -2.2360393468297279e-01 -1.3982532841115695e-05 0.0000000000000000e+00  -2.2360678291562780e-01 -7.1746214346534475e-08 0.0000000000000000e+00  -2.2360678291570935e-01 7.1756896492938492e-08 0.0000000000000000e+00  -2.2360393468376735e-01 1.3982542369454965e-05 0.0000000000000000e+00  -2.2305137600520533e-01 2.7125114584872585e-03 0.0000000000000000e+00  -2.2356692028388747e-01 -1.9474974290074678e-04 0.0000000000000000e+00  -2.2360659218674106e-01 -1.0039535402054172e-06 0.0000000000000000e+00  -2.2360679563077901e-01 5.4111516654017183e-12 0.0000000000000000e+00  -2.2360659218711867e-01 1.0039639346974237e-06 0.0000000000000000e+00  -2.2356692028464611e-01 1.9474975154367454e-04 0.0000000000000000e+00  -1.4568495748550200e-01 -1.4582861250311910e-01 0.0000000000000000e+00  -8.1816839699249511e-12 -2.0595938364427380e-01 0.0000000000000000e+00  1.4568495746472962e-01 -1.4582861260225036e-01 0.0000000000000000e+00  -2.0289890426835577e-01 -8.6461173477601058e-02 0.0000000000000000e+00  -8.3752311722546588e-02 -2.0220120956464382e-01 0.0000000000000000e+00  8.3752311658628495e-02 -2.0220120961540838e-01 0.0000000000000000e+00  2.0289890425544063e-01 -8.6461173576899877e-02 0.0000000000000000e+00  -2.0518619713212818e-01 -9.7295529047788945e-02 0.0000000000000000e+00  -2.2273264877777019e-01 -7.0283480358246581e-02 0.0000000000000000e+00  -7.0996608995583743e-02 -2.2287115868965815e-01 0.0000000000000000e+00  -1.0741784556165403e-01 -2.0783846730448668e-01 0.0000000000000000e+00  1.0741784548151066e-01 -2.0783846738004913e-01 0.0000000000000000e+00  7.0996608924221924e-02 -2.2287115865470786e-01 0.0000000000000000e+00  2.2273264878077467e-01 -7.0283480451599531e-02 0.0000000000000000e+00  2.0518619707466185e-01 -9.7295529122299204e-02 0.0000000000000000e+00  1.7189118564537567e-01 1.4324181034941189e-01 0.0000000000000000e+00  1.4305011407219625e-01 1.7211606898674792e-01 0.0000000000000000e+00  2.2340669343309200e-01 -1.1500694099696541e-02 0.0000000000000000e+00  1.0043968064587647e-01 -2.0008507188528477e-01 0.0000000000000000e+00  1.0308820999525040e-01 -1.9871902899665420e-01 0.0000000000000000e+00  1.9189771491862551e-01 -1.1508759027106179e-01 0.0000000000000000e+00  -1.8127162399051863e-01 1.3120837658288695e-01 0.0000000000000000e+00  -1.7641332637385446e-01 1.3766992759164451e-01 0.0000000000000000e+00  -1.8195766714981634e-01 -1.3022585811715376e-01 0.0000000000000000e+00  -1.7975803277375238e-01 -1.3324775756739962e-01 0.0000000000000000e+00  5.7142063450451086e-02 -2.1650030924305899e-01 0.0000000000000000e+00  -1.3336109708762250e-01 -1.7974151293777818e-01 0.0000000000000000e+00  -1.2006483908424613e-01 -1.8896255016920535e-01 0.0000000000000000e+00  -2.2338757829068973e-01 1.3963012946413110e-02 0.0000000000000000e+00  -2.2143571472606657e-01 3.3056565628472256e-02 0.0000000000000000e+00  -2.2373554602663034e-01 -3.4064666398738687e-03 0.0000000000000000e+00  -7.6733960926745809e-02 -2.1051251482112102e-01 0.0000000000000000e+00  -1.9494785101425985e-01 1.1108341553940208e-01 0.0000000000000000e+00  1.5815253922442543e-01 -1.5974471143410143e-01 0.0000000000000000e+00  2.0532542222798825e-01 9.0165830441212597e-02 0.0000000000000000e+00  3.3629266419205668e-02 2.2172635699810864e-01 0.0000000000000000e+00  -1.5737215557065426e-01 -1.6005155647169342e-01 0.0000000000000000e+00  -2.0886805635025504e-01 8.0628529879769636e-02 0.0000000000000000e+00  5.3950469566330816e-02 -2.1732782849611904e-01 0.0000000000000000e+00  -1.4348613790784603e-01 -1.7178124102392087e-01 0.0000000000000000e+00  -2.2362863695975188e-01 7.7611164059527568e-03 0.0000000000000000e+00  -1.1352019446737538e-01 1.9290457952146275e-01 0.0000000000000000e+00  7.2926826521730923e-02 2.1170688341772226e-01 0.0000000000000000e+00  2.2049056604586081e-01 3.7891559850530089e-02 0.0000000000000000e+00  7.0835148005057150e-02 2.1240096084949453e-01 0.0000000000000000e+00  1.3343814195425868e-01 1.7967786843266342e-01 0.0000000000000000e+00  1.3231981789378353e-01 -1.8054751261138496e-01 0.0000000000000000e+00  -9.7012220353668244e-02 2.0172857442578318e-01 0.0000000000000000e+00  1.8633209093446038e-01 1.2386873059154045e-01 0.0000000000000000e+00  1.3683203447888689e-01 -1.7722999078391743e-01 0.0000000000000000e+00  -1.2294891534680517e-01 1.8704158318204459e-01 0.0000000000000000e+00  -1.3679738732818486e-01 -1.7727647470608487e-01 0.0000000000000000e+00  -2.2103826690308345e-01 3.5451345980814966e-02 0.0000000000000000e+00  1.2068188417473259e-01 1.8851761992305327e-01 0.0000000000000000e+00  -2.7800243563716440e-02 2.2208431054371652e-01 0.0000000000000000e+00  -4.5694028922706041e-02 2.1915854352886899e-01 0.00