<?xml version="1.0"?>
<VTKFile type="UnstructuredGrid"  version="0.1"  >
<UnstructuredGrid>
<Piece  NumberOfPoints="4153" NumberOfCells="8064">
<Points>
<DataArray  type="Float64"  NumberOfComponents="3"  format="ascii">-0.4158300201032685 -0.5787319218089126 0  -0.04353056658204696 -0.7083137139595197 0  -0.0938538724769943 -0.704201147686642 0  -0.1434719319256795 -0.6958904584967327 0  -0.1921318228771157 -0.683990283250395 0  -0.2399899700355037 -0.6697129330691743 0  -0.2865399004058166 -0.6508232473836877 0  -0.331370309301768 -0.628846217922034 0  -0.3744656090304834 -0.6047167309536521 0  0.007071196238962633 -0.7078693484815504 0  -0.4557231565204216 -0.5531355195001034 0  -0.4946660886631702 -0.527760907472492 0  -0.532730024009717 -0.5028786026595428 0  -0.5700323715526271 -0.478855978226151 0  -0.6068814268752497 -0.4561790689244311 0  -0.6433273580379688 -0.4349676563006636 0  -0.6795173874973562 -0.4161071726067975 0  0.6663557230981256 -0.4220636939446554 0  0.05747413093514465 -0.7029077826014997 0  0.1072224142147701 -0.6936134680188152 0  0.1559209328303332 -0.6803927303622431 0  0.2032673837564556 -0.6637615342295893 0  0.249141080959909 -0.644642929513513 0  0.2935621148244403 -0.6236540478446833 0  0.3366007786776848 -0.6013775783175196 0  0.3783486063835345 -0.5783521973058084 0  0.4190217694845016 -0.5551244137758033 0  0.4587779212923153 -0.532048453475468 0  0.4977699072538257 -0.5094088447818765 0  0.5361078133070138 -0.4875365967558885 0  0.5739229131137268 -0.466555471449005 0  0.6112934014695254 -0.4469031502058395 0  0.6483863722496179 -0.4293304477346049 0  0.6297169673504164 -0.4381219681019433 0  -0.6612320530357837 -0.4254632874497306 0  -0.5885118107018067 -0.4674180874699876 0  -0.5137888666178794 -0.5152423057324005 0  -0.4358601383739385 -0.5658612317042679 0  -0.3531343725367239 -0.6169133552854821 0  -0.2634755447835411 -0.6607266159590135 0  -0.1679278845881527 -0.6904029633558109 0  -0.06875679599804867 -0.7068112641209648 0  0.5926386445602008 -0.4566776822463108 0  0.1317237402062864 -0.6874573782537649 0  0.226387718200158 -0.6544749385766697 0  0.3152434829521156 -0.6126522678638868 0  0.3988129153710182 -0.5667448858697984 0  0.4783564515250543 -0.5206738280943942 0  0.5550875276065517 -0.4769538675366897 0  0.03232676559417498 -0.7059474073529221 0  -0.6970194754202024 -0.4081659970107355 0  0.5169983031019552 -0.4983488214778342 0  0.4390036392632437 -0.5435550192948009 0  0.3576210500607749 -0.5899041376748613 0  0.2715303044287089 -0.6343511616272031 0  0.1797827852390276 -0.6724561856598887 0  0.08245691841944153 -0.6987814352278765 0  -0.01823308254303175 -0.7086680284866067 0  -0.1187721597024681 -0.7005452295010179 0  -0.2160830131847312 -0.677243894220505 0  -0.3091650523857785 -0.6401212566763159 0  -0.3954849766030805 -0.5919907552791073 0  -0.4753147869377815 -0.5404187054600342 0  -0.5514656177000363 -0.4907126271884815 0  -0.6251148007945022 -0.4455224969436369 0  0.8119767083788452 -0.2360126545380256 0  0.7234634476747804 -0.3970752750561254 0  0.7721156498973816 -0.3554491420895105 0  0.8033372069009753 -0.2999575568319361 0  0.6953198646043547 -0.4101030048429927 0  0.7487307742162913 -0.3774898012280339 0  0.7862920374382573 -0.3265951064160773 0  0.8067729601318488 -0.2676053528810858 0  0.6810359650280254 -0.41703650133901 0  0.7093215110382801 -0.4030192450647439 0  0.7361777678559502 -0.3874595216468238 0  0.7600352756287919 -0.3656810698144481 0  0.7806990980433861 -0.3418358526260122 0  0.7941540910126224 -0.3131077947541305 0  0.8044111369856165 -0.2835784652635047 0  0.8088325676867961 -0.2516954878850398 0  0.8113456856722473 -0.2153776056436995 0  0.816293814689989 0.2413255798053323 0  0.8159817333409148 0.2004464505714093 0  0.8169995530648149 0.1593845077749112 0  0.8185786188208689 0.1180110487581612 0  0.8204275910589489 0.07621877366844731 0  0.8210686140779699 0.03407733834496993 0  0.8205676491236625 -0.008149723440992076 0  0.8189271754419376 -0.05028357995191823 0  0.8161480182548821 -0.09205476133207478 0  0.8136780200637402 -0.1334270043160952 0  0.8118030589535929 -0.1744902310389636 0  0.8175311944497728 0.2619172943239571 0  0.8159202323015462 0.220895706427054 0  0.8177516161748921 0.1387418797070645 0  0.8208914181152688 0.05517095618530506 0  0.8198933522885568 -0.02924025006489369 0  0.8148768966547716 -0.1127859806638119 0  0.811351439262235 -0.1949464133052957 0  0.816397081779768 0.179948856630747 0  0.8195644514807822 0.09718878994707407 0  0.8209564225678351 0.01296345986111367 0  0.8175802273616724 -0.07124128278189379 0  0.8126449178394533 -0.1539925699253347 0  0.6782582318196682 0.4508230701891749 0  0.8106739210376064 0.326109139668075 0  0.7811374031275716 0.3823938045505135 0  0.7340361675037803 0.4250479815379543 0  0.813388517437607 0.2936425246069813 0  0.7948096764174656 0.3533439176671316 0  0.7585452758803403 0.4048251608068177 0  0.7064889074305086 0.4384315337852547 0  0.8150498101322469 0.2776920122725227 0  0.8115080046340371 0.3096915899171858 0  0.8021948943388579 0.3395689172257974 0  0.7892007743034686 0.3684895373123989 0  0.7694483805251687 0.3928201999442953 0  0.7463552729789171 0.4150655222212245 0  0.7201900733656444 0.4312289197823795 0  0.6925056768080152 0.445420910377665 0  -0.03357941707436909 0.7848272046265945 0  0.6250353152531285 0.4781942089989448 0  0.588932433383803 0.499950727230735 0  0.5524185730662917 0.5233374465978498 0  0.5153965818087359 0.5481783081497542 0  0.477593389858968 0.5740527666547691 0  0.4388513116591949 0.6006275002406616 0  0.3989784644078879 0.6275719034670331 0  0.3577261399609976 0.6545683545185136 0  0.3147916622098991 0.680781038175164 0  0.2700591174765223 0.7056337332294483 0  0.2234319591237147 0.7284263173875075 0  0.1748724029320101 0.7485261653559521 0  0.124498917004747 0.7646975333738724 0  0.07266297276439583 0.7763842031190958 0  0.01981736543357117 0.7830678917638207 0  0.6609122827949715 0.4589000257551411 0  -0.08685297327525565 0.7803476182719171 0  -0.1392440991310658 0.7703503649320381 0  -0.1901812404513515 0.7554277594504276 0  -0.2390238496173799 0.7354894788534632 0  -0.2858524977828071 0.7136350256418181 0  -0.3308063602521779 0.6898013235426952 0  -0.3739908883029718 0.6645747383701457 0  -0.4154840848278876 0.6383383793879648 0  -0.4556269165660748 0.6122748595774631 0  -0.4947068778766404 0.5865350390694969 0  -0.5328917723743348 0.5613879795013339 0  -0.5703357932344598 0.5371092694255131 0  -0.6071619779755673 0.5139402629745921 0  -0.6435367602844833 0.4923558306224051 0  -0.6796625979274143 0.4731683916588439 0  -0.6971351459413042 0.4651644326705205 0  -0.6614429398552961 0.4827128584115025 0  -0.58882254318337 0.525403505964901 0  -0.5139014590258567 0.5738750343538835 0  -0.4356905954266544 0.6252750857168209 0  -0.3526083448295376 0.6773064483837459 0  -0.2626723968277775 0.7248567583265716 0  -0.1649176834126888 0.7633650857020859 0  -0.06027897239241298 0.7832777752665009 0  0.04633923547736313 0.7803984100353273 0  0.1498932338059221 0.7571136564517483 0  0.2469832986239931 0.7173329804060784 0  0.3364707454733173 0.6678022325718141 0  0.4190662911488111 0.6140737108028239 0  0.4965959938628158 0.5610104045441231 0  0.5707344018710889 0.5115159159037211 0  0.6427979977194708 0.4684652055355156 0  -0.6253766466879321 0.5030754266000226 0  -0.5516958084832274 0.5491325716184878 0  -0.4752892786347431 0.599347953771254 0  -0.3949668461837121 0.6515335655491962 0  -0.3085562307772148 0.7019235794583094 0  -0.2149824845896673 0.7460274974046726 0  -0.1131960366429964 0.7759922909819759 0  -0.006806643537046079 0.7846561782048745 0  0.09873828806190432 0.7711366453954528 0  0.1994125280086612 0.7389227385541384 0  0.2926581833518703 0.6934228202706179 0  0.3785586136496158 0.6411130500983866 0  0.4583509820717819 0.587276429022826 0  0.5339962150907334 0.53559601510177 0  0.6070034659087387 0.4889946506170763 0  -0.8382126061877166 0.276510591119995 0  -0.753133583002456 0.4391977997833733 0  -0.800591547120697 0.3966613279445257 0  -0.8306188532410186 0.3405969675209888 0  -0.7254958992487517 0.4526522403437609 0  -0.7778107561765811 0.4190591714730148 0  -0.8143226938191596 0.3676005235584905 0  -0.8335919686405585 0.3081698806622998 0  -0.7114700834332894 0.4597605998283996 0  -0.7392402847350423 0.4453834703058918 0  -0.765540940503013 0.4292683559463348 0  -0.7888033698353225 0.40705797797599 0  -0.8088123573606099 0.3828303404553332 0  -0.8218686629995101 0.3539358518962427 0  -0.8315155156550544 0.324189571281431 0  -0.8354218401601868 0.2922407568134136 0  -0.8372616985316699 0.2559038072039048 0  -0.8377253637492711 -0.2004513102788956 0  -0.8376964094285292 -0.1596122252507284 0  -0.8390605184109146 -0.1185927493713935 0  -0.8410098480622858 -0.07725907502465018 0  -0.843252233328422 -0.03551523401494001 0  -0.8443350754527326 0.006585670128228681 0  -0.8442975584402634 0.04877633357237232 0  -0.8431456638700727 0.0908803587736919 0  -0.8408461632923703 0.1326382783047783 0  -0.8388097013923294 0.173991857265012 0  -0.8373404283079663 0.2150369634569756 0  -0.8387426506699222 -0.2210475589796944 0  -0.8374867514319521 -0.180042922102059 0  -0.8399991765783827 -0.0979711654783301 0  -0.8439359019607344 -0.01448794501314316 0  -0.8438623435306818 0.0698510021996339 0  -0.8397930014011953 0.1533591366054809 0  -0.8370744215775857 0.2354803390790689 0  -0.8382815273958097 -0.1391365999740338 0  -0.8421810570128777 -0.05646054155171973 0  -0.8444517962398154 0.02768086218617141 0  -0.8420493567730266 0.111830575721436 0  -0.8379812134077838 0.1945477106133711 0  -0.8311257031314951 -0.285072570325543 0  -0.8008504471284172 -0.340890967452915 0  -0.7531983640084412 -0.3830191051581803 0  -0.8341823095067873 -0.2526945338358664 0  -0.8147996770445064 -0.312029305366707 0  -0.7779861577387175 -0.3631537283794305 0  -0.7254328871271495 -0.3961527793801046 0  -0.8360022374126472 -0.2367731688841505 0  -0.832094847964
[...]
<PointData  Vectors="f_45"> 
<DataArray  type="Float64"  Name="f_45"  NumberOfComponents="3" format="ascii">8.9942387681568342e-02 -2.0475079275377672e-01 0.0000000000000000e+00  2.2307978060530376e-01 -1.6475363519163587e-02 0.0000000000000000e+00  2.1676986937952378e-01 -5.5229630647137422e-02 0.0000000000000000e+00  2.0553437627411933e-01 -8.8369390800870085e-02 0.0000000000000000e+00  1.9211686887839385e-01 -1.1448602207544449e-01 0.0000000000000000e+00  1.7522220883537290e-01 -1.3876570129254576e-01 0.0000000000000000e+00  1.4773406774221706e-01 -1.6779215176546633e-01 0.0000000000000000e+00  1.2581760071736472e-01 -1.8481698762742094e-01 0.0000000000000000e+00  1.0983363136229013e-01 -1.9485025810299383e-01 0.0000000000000000e+00  2.2238947713200269e-01 2.4049885004278741e-02 0.0000000000000000e+00  9.2307705753470415e-02 -2.0366303453185780e-01 0.0000000000000000e+00  8.9354512507630254e-02 -2.0497696042726476e-01 0.0000000000000000e+00  9.0338373159329757e-02 -2.0454173800094286e-01 0.0000000000000000e+00  9.7291152387870797e-02 -2.0130515685821695e-01 0.0000000000000000e+00  1.0610140869803092e-01 -1.9674981458229476e-01 0.0000000000000000e+00  1.1758229778670592e-01 -1.9006229647550582e-01 0.0000000000000000e+00  1.3532365376215322e-01 -1.7857055461391097e-01 0.0000000000000000e+00  1.7469630167590350e-01 1.4043005018349122e-01 0.0000000000000000e+00  2.1469108070928497e-01 6.2764164377050999e-02 0.0000000000000000e+00  2.0113661034819985e-01 9.7821449056995802e-02 0.0000000000000000e+00  1.8387688923576270e-01 1.2732101037600421e-01 0.0000000000000000e+00  1.6549536169941176e-01 1.5042987795964755e-01 0.0000000000000000e+00  1.4934078912068777e-01 1.6646133954440376e-01 0.0000000000000000e+00  1.3503048130810943e-01 1.7825206520981640e-01 0.0000000000000000e+00  1.2329288583249705e-01 1.8655030190663247e-01 0.0000000000000000e+00  1.1615446786830688e-01 1.9107211856629541e-01 0.0000000000000000e+00  1.1180266755806273e-01 1.9365079001563518e-01 0.0000000000000000e+00  1.1053324174698835e-01 1.9437693349040441e-01 0.0000000000000000e+00  1.1142749717472204e-01 1.9386560425904753e-01 0.0000000000000000e+00  1.1671996147918771e-01 1.9071374324944024e-01 0.0000000000000000e+00  1.2312350182966929e-01 1.8657176305147521e-01 0.0000000000000000e+00  1.3404914768892667e-01 1.7873797860238919e-01 0.0000000000000000e+00  1.4806752207327961e-01 1.6764799501382383e-01 0.0000000000000000e+00  1.4189937808224531e-01 1.7296348238218104e-01 0.0000000000000000e+00  1.2885321000598077e-01 -1.8275821285152030e-01 0.0000000000000000e+00  1.0030373560023963e-01 -1.9990240816006438e-01 0.0000000000000000e+00  8.9653525957433505e-02 -2.0484808481995409e-01 0.0000000000000000e+00  9.4222292915113359e-02 -2.0278996792157294e-01 0.0000000000000000e+00  1.1634131322997036e-01 -1.9100309734707693e-01 0.0000000000000000e+00  1.5962606575761090e-01 -1.5690625649617662e-01 0.0000000000000000e+00  1.9792114381137701e-01 -1.0397253370467308e-01 0.0000000000000000e+00  2.2067379191782557e-01 -3.6485771541287522e-02 0.0000000000000000e+00  1.2579811671040386e-01 1.8501329112422715e-01 0.0000000000000000e+00  1.9289711622995950e-01 1.1321491456908886e-01 0.0000000000000000e+00  1.5733707874286082e-01 1.5890857913521389e-01 0.0000000000000000e+00  1.2905313600879539e-01 1.8261785530235183e-01 0.0000000000000000e+00  1.1343814693625237e-01 1.9269742299380060e-01 0.0000000000000000e+00  1.1079031186760599e-01 1.9423091091967148e-01 0.0000000000000000e+00  1.1755715607348373e-01 1.9025769405510556e-01 0.0000000000000000e+00  2.1937895923024306e-01 4.3632383257160755e-02 0.0000000000000000e+00  1.6358706471670009e-01 -1.5210364970722007e-01 0.0000000000000000e+00  1.1364998640718589e-01 1.9257706621099394e-01 0.0000000000000000e+00  1.1077415407304531e-01 1.9423943073519667e-01 0.0000000000000000e+00  1.1907044848351327e-01 1.8927469023722451e-01 0.0000000000000000e+00  1.4182814499601473e-01 1.7288618280148693e-01 0.0000000000000000e+00  1.7423098422525871e-01 1.4021187403040222e-01 0.0000000000000000e+00  2.0855070495892020e-01 8.0850822476320056e-02 0.0000000000000000e+00  2.2364325552519260e-01 3.9873107897364837e-03 0.0000000000000000e+00  2.1126446225331985e-01 -7.3310329613879899e-02 0.0000000000000000e+00  1.8863639727281628e-01 -1.2034719494271656e-01 0.0000000000000000e+00  1.3695156629725919e-01 -1.7689006455921327e-01 0.0000000000000000e+00  9.5540415713992591e-02 -2.0211120435978605e-01 0.0000000000000000e+00  9.0065461134352501e-02 -2.0466814502513136e-01 0.0000000000000000e+00  9.1858028284684298e-02 -2.0388656462891369e-01 0.0000000000000000e+00  1.0976328306242290e-01 -1.9492547752723774e-01 0.0000000000000000e+00  -2.1412664036573503e-01 3.2574984666646198e-02 0.0000000000000000e+00  1.0921269229137226e-01 1.8537460579597573e-01 0.0000000000000000e+00  -1.0208981301354246e-02 2.1924302298346215e-01 0.0000000000000000e+00  -1.4959551818085309e-01 1.1258221428787200e-01 0.0000000000000000e+00  1.2312202314495381e-01 1.8830632270354086e-01 0.0000000000000000e+00  1.2179146906348528e-02 2.1920087331749874e-01 0.0000000000000000e+00  -1.5526353432835666e-01 1.5305353871023103e-01 0.0000000000000000e+00  -2.1078345490593625e-01 6.4024000608903120e-02 0.0000000000000000e+00  1.6160941709312604e-01 1.5257930825961646e-01 0.0000000000000000e+00  1.5837125193380294e-01 1.6166419739542837e-01 0.0000000000000000e+00  5.3332280605335208e-02 2.2355679099383105e-01 0.0000000000000000e+00  1.9141359914846837e-02 2.2338766642480065e-01 0.0000000000000000e+00  -1.5890574205660266e-01 1.6661220056382453e-01 0.0000000000000000e+00  -6.3864033573620443e-02 2.3725993933957235e-01 0.0000000000000000e+00  -2.3687622085199087e-01 2.5961129772035695e-02 0.0000000000000000e+00  -2.1070629313993983e-01 8.3156326530783933e-02 0.0000000000000000e+00  -2.2583326407513679e-01 -2.0700229753954476e-02 0.0000000000000000e+00  -2.2407522468442026e-01 3.0616043647054256e-02 0.0000000000000000e+00  -2.2359799801819791e-01 -4.5128848063895220e-03 0.0000000000000000e+00  -2.2310709365241752e-01 -1.4849033631333608e-02 0.0000000000000000e+00  -2.2272659895065108e-01 -1.9691621724523461e-02 0.0000000000000000e+00  -2.2313922061211386e-01 -1.4270357529424023e-02 0.0000000000000000e+00  -2.2360352571456604e-01 -7.5262065542788348e-04 0.0000000000000000e+00  -2.2332025902386635e-01 1.1293801897905176e-02 0.0000000000000000e+00  -2.2221236883553758e-01 2.4829659994673479e-02 0.0000000000000000e+00  -2.2169644258003465e-01 2.9084390150299306e-02 0.0000000000000000e+00  -2.2227722340311371e-01 2.4314132716626524e-02 0.0000000000000000e+00  -2.2328734299994918e-01 1.3566215336660199e-02 0.0000000000000000e+00  -2.1669838053915644e-01 -1.5871068164798125e-02 0.0000000000000000e+00  -2.2337682967458530e-01 -1.4025913353635294e-03 0.0000000000000000e+00  -2.2297425393087170e-01 -1.6927416582761142e-02 0.0000000000000000e+00  -2.2353806189574368e-01 -6.4482716295308426e-03 0.0000000000000000e+00  -2.2297903364102459e-01 1.7048211949767231e-02 0.0000000000000000e+00  -2.2203286545116757e-01 2.6554405397358351e-02 0.0000000000000000e+00  -2.2296696165382007e-01 9.2784184757008260e-03 0.0000000000000000e+00  -2.2330857519226280e-01 -1.1772051856229813e-02 0.0000000000000000e+00  -2.2262656086834631e-01 -2.1133980102067157e-02 0.0000000000000000e+00  -2.2355609039887842e-01 5.3210623633878403e-03 0.0000000000000000e+00  -2.2147278583181607e-01 3.0959464762248392e-02 0.0000000000000000e+00  -2.2260989847127066e-01 2.1089795515387783e-02 0.0000000000000000e+00  1.6028943823178307e-01 -1.5575504954568040e-01 0.0000000000000000e+00  -1.5956746559892548e-01 -1.0626563587156927e-01 0.0000000000000000e+00  -2.5959630129032407e-02 -2.1506583713273561e-01 0.0000000000000000e+00  9.7647976264542136e-02 -1.9083304651002081e-01 0.0000000000000000e+00  -2.1404878120906912e-01 -5.2187998825307558e-02 0.0000000000000000e+00  -1.5771854552473416e-01 -1.5117960370519348e-01 0.0000000000000000e+00  5.4292517071604599e-04 -2.1921843910772862e-01 0.0000000000000000e+00  1.1848368754196188e-01 -1.9060122459641818e-01 0.0000000000000000e+00  -2.1603606522838636e-01 -6.8975465246349940e-02 0.0000000000000000e+00  -2.3674853208936875e-01 -1.5848700487616718e-02 0.0000000000000000e+00  -8.5730363030123852e-02 -2.2678048710688006e-01 0.0000000000000000e+00  -1.6465253396379598e-01 -1.6318059699307003e-01 0.0000000000000000e+00  8.6195419168441957e-03 -2.2496264973016328e-01 0.0000000000000000e+00  3.9185918561044045e-02 -2.2672807761170385e-01 0.0000000000000000e+00  1.5279416618915362e-01 -1.6777378520959957e-01 0.0000000000000000e+00  1.5632440487028665e-01 -1.5892243697017078e-01 0.0000000000000000e+00  2.2333275096792035e-01 1.1822709098414749e-02 0.0000000000000000e+00  1.1242177932281777e-01 -1.9313879538477463e-01 0.0000000000000000e+00  9.9545501692657010e-02 -2.0014289734402227e-01 0.0000000000000000e+00  8.9512631912343918e-02 -2.0488244892734261e-01 0.0000000000000000e+00  8.2248063377815289e-02 -2.0792704096186973e-01 0.0000000000000000e+00  8.0114466270409093e-02 -2.0876209563825729e-01 0.0000000000000000e+00  8.1453943070702126e-02 -2.0824446685867878e-01 0.0000000000000000e+00  8.5526684938958708e-02 -2.0660764520203481e-01 0.0000000000000000e+00  9.5206222878462504e-02 -2.0233325900245172e-01 0.0000000000000000e+00  1.0940847302297252e-01 -1.9502980845771400e-01 0.0000000000000000e+00  1.2719827746138462e-01 -1.8394766750637051e-01 0.0000000000000000e+00  1.4695362695089301e-01 -1.6861931729616392e-01 0.0000000000000000e+00  1.7053823846836560e-01 -1.4472427518159586e-01 0.0000000000000000e+00  1.9226012156843561e-01 -1.1430521192255369e-01 0.0000000000000000e+00  2.1004723273414530e-01 -7.7055474688254091e-02 0.0000000000000000e+00  2.2089721948470203e-01 -3.5505377154447959e-02 0.0000000000000000e+00  1.3130964180399260e-01 -1.8145299285600627e-01 0.0000000000000000e+00  2.1528039738896795e-01 6.0459052862043970e-02 0.0000000000000000e+00  1.9811499780610992e-01 1.0360601230244981e-01 0.0000000000000000e+00  1.7657826266226723e-01 1.3728591924967837e-01 0.0000000000000000e+00  1.4936372600098610e-01 1.6651688239583071e-01 0.0000000000000000e+00  1.3372890169423179e-01 1.7929221088022484e-01 0.0000000000000000e+00  1.1691060453604496e-01 1.9062229589303606e-01 0.0000000000000000e+00  1.0291501195399903e-01 1.9852445893222351e-01 0.0000000000000000e+00  9.1833180758229299e-02 2.0388441197042301e-01 0.0000000000000000e+00  8.9281766616847044e-02 2.0501057912992363e-01 0.0000000000000000e+00  8.7911031428303685e-02 2.0560037429259212e-01 0.0000000000000000e+00  8.9375144905735199e-02 2.0496555304772129e-01 0.0000000000000000e+00  9.4105246713252128e-02 2.0282158391234337e-01 0.0000000000000000e+00  1.0254585286941727e-01 1.9862118520923436e-01 0.0000000000000000e+00  1.1520754036293186e-01 1.9145624413350676e-01 0.0000000000000000e+00  1.3283433858915591e-01 1.8023428039319031e-01 0.0000000000000000e+00  1.6226963154568316e-01 1.5399000421015144e-01 0.0000000000000000e+00  1.2576351828673166e-01 1.8497241844577531e-01 0.0000000000000000e+00  9.6028067527051036e-02 2.0198954429109228e-01 0.0000000000000000e+00  8.8164200282346158e-02 2.0549371748613565e-01 0.0000000000000000e+00  9.1199831903289272e-02 2.0416138082712473e-01 0.0000000000000000e+00  1.0974284066705928e-01 1.9484859888575684e-01 0.0000000000000000e+00  1.4456337532146246e-01 1.7052986072300616e-01 0.0000000000000000e+00  1.8848875543987262e-01 1.2065157860947413e-01 0.0000000000000000e+00  2.2060230505504744e-01 3.7867320211420856e-02 0.0000000000000000e+00  2.1668848829603951e-01 -5.5263309756347412e-02 0.0000000000000000e+00  1.8179793558726834e-01 -1.3032436236507694e-01 0.0000000000000000e+00  1.3739187600749250e-01 -1.7642987333252200e-01 0.0000000000000000e+00  1.0206787207066832e-01 -1.9896943477261664e-01 0.0000000000000000e+00  8.3359968750239405e-02 -2.0748722728636668e-01 0.0000000000000000e+00  8.0816672236851100e-02 -2.0849287706128969e-01 0.0000000000000000e+00  9.3018465866589836e-02 -2.0339924999322043e-01 0.0000000000000000e+00  1.2394082248866342e-01 -1.8616430159923447e-01 0.0000000000000000e+00  1.0628676024268907e-01 1.9686977847805753e-01 0.0000000000000000e+00  9.0993280320323167e-02 2.0426535410284566e-01 0.0000000000000000e+00  8.8147048083453042e-02 2.0549971962786329e-01 0.0000000000000000e+00  9.5091269455662167e-02 2.0238555281467346e-01 0.0000000000000000e+00  1.2549615127973629e-01 1.8508168626574958e-01 0.0000000000000000e+00  1.5776221938839777e-01 1.5850870546183563e-01 0.0000000000000000e+00  2.0810836402994348e-01 8.2351025938170647e-02 0.0000000000000000e+00  2.2315065453308558e-01 -1.6148821176123786e-02 0.0000000000000000e+00  2.0205587196020369e-01 -9.5937259146887971e-02 0.0000000000000000e+00  1.5772022803126964e-01 -1.5855250811188482e-01 0.0000000000000000e+00  1.1796734579755380e-01 -1.8997731638638513e-01 0.0000000000000000e+00  8.9055891849764188e-02 -2.0511390140422811e-01 0.0000000000000000e+00  8.0376572391880147e-02 -2.0866143697913403e-01 0.0000000000000000e+00  8.4227489956649096e-02 -2.0715510068223175e-01 0.0000000000000000e+00  1.0371218255339240e-01 -1.9822727439277701e-01 0.0000000000000000e+00  -2.1565096505824219e-01 2.3789755051073381e-02 0.0000000000000000e+00  9.9373891292625152e-02 1.9031284352601549e-01 0.0000000000000000e+00  -2.1385254737835913e-02 2.1688543343167391e-01 0.0000000000000000e+00  -1.5582543428293527e-01 1.0819945847555726e-01 0.0000000000000000e+00  1.1669571866157777e-01 1.9198667707680833e-01 0.0000000000000000e+00  2.4117512644785386e-03 2.1937345767745361e-01 0.0000000000000000e+00  -1.5813754638143879e-01 1.5040230426281723e-01 0.0000000000000000e+00  -2.1283293791076371e-01 5.7153156097687098e-02 0.0000000000000000e+00  1.5518984089084875e-01 1.5965792352048760e-01 0.0000000000000000e+00  1.5235308119915628e-01 1.6781834222869704e-01 0.0000000000000000e+00  4.1839921409559860e-02 2.2610286562505513e-01 0.0000000000000000e+00  1.0291537983920716e-02 2.2438779033232456e-01 0.0000000000000000e+00  -1.6419107203759511e-01 1.6272479870837378e-01 0.0000000000000000e+00  -7.7388617555978603e-02 2.3136060783005744e-01 0.0000000000000000e+00  -2.3686517177286714e-01 1.9376563679418736e-02 0.0000000000000000e+00  -2.1369734086680978e-01 7.5433042058566199e-02 0.0000000000000000e+00  -2.2495821397657165e-01 -2.5911201777031458e-02 0.0000000000000000e+00  -2.2478907152235852e-01 2.7168061859941365e-02 0.0000000000000000e+00  -2.2351978557576108e-01 -8.0580824209434011e-03 0.0000000000000000e+00  -2.2280906136504491e-01 -1.8806593144020455e-02 0.0000000000000000e+00  -2.2234785761415149e-01 -2.3588719050162920e-02 0.0000000000000000e+00  -2.2279593694606278e-01 -1.8883447600763641e-02 0.0000000000000000e+00  -2.2353684474936861e-01 -5.5207891624570685e-03 0.0000000000000000e+00  -2.2351652078577142e-01 6.3009873813300483e-03 0.0000000000000000e+00  -2.2274616375230050e-01 1.9477584721733204e-02 0.0000000000000000e+00  -2.2226179222457687e-01 2.4394981909723255e-02 0.0000000000000000e+00  -2.2272381409110503e-01 1.9796556174517737e-02 0.0000000000000000e+00  -2.2347379131816275e-01 9.3133317181484116e-03 0.0000000000000000e+00  -2.1580658548009246e-01 -2.2233497874744670e-02 0.0000000000000000e+00  -2.2325199737188739e-01 -4.2972669611660540e-03 0.0000000000000000e+00  -2.2263075329802012e-01 -2.0964520016873080e-02 0.0000000000000000e+00  -2.2335255145251473e-01 -1.1142651854021704e-02 0.0000000000000000e+00  -2.2331248452159413e-01 1.1895425851678937e-02 0.0000000000000000e+00  -2.2253952372567654e-01 2.1904123237805235e-02 0.0000000000000000e+00  -2.2321739113163142e-01 5.4370004619151025e-03 0.0000000000000000e+00  -2.2307269208153821e-01 -1.5561566873450439e-02 0.0000000000000000e+00  -2.2218929014617250e-01 -2.5316733626111271e-02 0.0000000000000000e+00  -2.2361865804767253e-01 4.0137490455934396e-04 0.0000000000000000e+00  -2.2212475019056513e-01 2.5863978974534581e-02 0.0000000000000000e+00  -2.2298904065738576e-01 1.6699200714929065e-02 0.0000000000000000e+00  -1.5545338362286676e-01 -1.0959495489828482e-01 0.0000000000000000e+00  -1.8848966505703231e-02 -2.1732453865125773e-01 0.0000000000000000e+00  1.0262011746399650e-01 -1.8845548001537774e-01 0.0000000000000000e+00  -2.1274456912908143e-01 -5.7054498620734549e-02 0.0000000000000000e+00  -1.5646962476688089e-01 -1.5250719444918578e-01 0.0000000000000000e+00  6.0149326926987210e-03 -2.1913016383474404e-01 0.0000000000000000e+00  1.2296475623273541e-01 -1.8777048194727899e-01 0.0000000000000000e+00  -2.1407320376989972e-01 -7.4696825058065366e-02 0.0000000000000000e+00  -2.3673359209848480e-01 -2.0839290794571207e-02 0.0000000000000000e+00  -7.6972188507667266e-02 -2.3099798565337373e-01 0.0000000000000000e+00  -1.6073081154349608e-01 -1.6578086376114259e-01 0.0000000000000000e+00  1.1991438698418688e-02 -2.2435077023311026e-01 0.0000000000000000e+00  4.5950006133548632e-02 -2.2538774828869435e-01 0.0000000000000000e+00  1.5586819309943600e-01 -1.6470466497940914e-01 0.0000000000000000e+00  1.6098035832490171e-01 -1.5428231973245540e-01 0.0000000000000000e+00  1.3273572368645395e-01 1.8001883436126109e-01 0.0000000000000000e+00  1.3329567403921411e-01 1.7961011529286577e-01 0.0000000000000000e+00  2.1572565525368323e-01 -5.9062455294457201e-02 0.0000000000000000e+00  2.4391942731323633e-02 -2.2237631061818502e-01 0.0000000000000000e+00  1.8040114641871999e-02 -2.2297346740717514e-01 0.0000000000000000e+00  2.0830345685021867e-01 -8.1477660379162195e-02 0.0000000000000000e+00  -1.9180924128859153e-01 1.1510972741816994e-01 0.0000000000000000e+00  -1.9584926406649278e-01 1.0807683706621006e-01 0.0000000000000000e+00  -1.9604248911456612e-01 -1.0771499271011857e-01 0.0000000000000000e+00  -1.9953758109198633e-01 -1.0109216492617444e-01 0.0000000000000000e+00  -5.3489961147416679e-02 -2.1725017987740355e-01 0.0000000000000000e+00  -1.6446203740164503e-01 -1.5172363274496442e-01 0.0000000000000000e+00  -1.0794874292399709e-01 -1.9621060757182010e-01 0.0000000000000000e+00  -2.2186503162218824e-01 2.9693867082014963e-02 0.0000000000000000e+00  -2.1253729154520470e-01 7.1632383360661259e-02 0.0000000000000000e+00  -2.2354156988028259e-01 8.6289206413737909e-03 0.0000000000000000e+00  2.9018777607032642e-02 -2.2234748617380298e-01 0.0000000000000000e+00  -8.6337911089491085e-02 2.0903896846700126e-01 0.0000000000000000e+00  2.1843906851001713e-01 -4.9929677610524928e-02 0.0000000000000000e+00  1.4078133496141443e-01 -1.7690014592772826e-01 0.0000000000000000e+00  2.2220527659477855e-02 2.2335745187887437e-01 0.0000000000000000e+00  -9.6080424657948332e-02 -2.0285589295372780e-01 0.0000000000000000e+00  -2.1686819558426715e-01 5.6116606024807045e-02 0.0000000000000000e+00  -4.5800916976825742e-02 -2.1900131235169648e-01 0.0000000000000000e+00  -1.6099839898002288e-01 -1.5538659795813464e-01 0.0000000000000000e+00  -2.2370196353179289e-01 -7.1610116945522678e-04 0.0000000000000000e+00  -1.5192372404270546e-01 1.6429046826994842e-01 0.0000000000000000e+00  -2.0701656240073512e-02 2.2277964233485892e-01 0.0000000000000000e+00  2.1264287504575308e-01 6.9391347136975867e-02 0.0000000000000000e+00  -4.1614481784002171e-02 2.1982850329163248e-01 0.0000000000000000e+00  3.6557697756240862e-02 2.2067948462817458e-01 0.0000000000000000e+00  1.1802435865254604e-01 -1.9001408505568734e-01 0.0000000000000000e+00  -6.4036702400189480e-02 2.1449854794956633e-01 0.0000000000000000e+00  2.0779850022401153e-01 8.2736662620153334e-02 0.0000000000000000e+00  1.2482089604847656e-01 -1.8567229080533235e-01 0.0000000000000000e+00  -1.3857074112492651e-01 1.7570319164750031e-01 0.0000000000000000e+00  -1.1736926047554440e-01 -1.9068333036184754e-01 0.0000000000000000e+00  -2.2316181337880822e-01 1.7501082179660801e-02 0.0000000000000000e+00  4.9497863558312094e-02 2.1814160929067000e-01 0.0000000000000000e+00  -1.0128156527578440e-01 1.9945048795234854e-01 0.0000000000000000e+00  7.9825434905611337e-02 2.0918013885680303e-01 0.