<?xml version="1.0"?>
<VTKFile type="UnstructuredGrid"  version="0.1"  >
<UnstructuredGrid>
<Piece  NumberOfPoints="4153" NumberOfCells="8064">
<Points>
<DataArray  type="Float64"  NumberOfComponents="3"  format="ascii">-0.4163753685660649 -0.6435472148805108 0  -0.03734872271406491 -0.8244257365261107 0  -0.09178551276103682 -0.8184577512554246 0  -0.1449719966511407 -0.8064312854394186 0  -0.1963175907839633 -0.7889760075495816 0  -0.2457694888283877 -0.7677628907515527 0  -0.2926150226432406 -0.7409902187178157 0  -0.3366133361003785 -0.7107622523200886 0  -0.3777372529028185 -0.6779769936435682 0  0.01754512484672252 -0.8239562010605961 0  -0.4524390349514578 -0.6091280153735916 0  -0.4866108051753735 -0.5747722875248639 0  -0.5189661337853496 -0.5407816123922452 0  -0.549803165183757 -0.5076581060743464 0  -0.5795220935470439 -0.4760068433132912 0  -0.6084442177149387 -0.4461846357575858 0  -0.6366833024443862 -0.4189680036815872 0  0.6336706181969168 -0.4140575219236979 0  0.07205090416464256 -0.8171136993285401 0  0.1253606954913618 -0.804178596714027 0  0.1767816463689847 -0.7857389308952232 0  0.2257740701097025 -0.7624919998603891 0  0.2720997991818703 -0.7356648065361315 0  0.3157007233449012 -0.7060655445387333 0  0.3566595941580527 -0.6745392244016163 0  0.3951040350424441 -0.6417707327969122 0  0.4314170463958897 -0.6086243273373884 0  0.4658673056739698 -0.5755574913705777 0  0.498755127606023 -0.5430010425710545 0  0.530305397468866 -0.5113231370136757 0  0.5608621487993497 -0.4808491148707431 0  0.5905861927204211 -0.4520425797695041 0  0.6197237952115039 -0.4257448942901773 0  0.604945530756306 -0.4387654357236783 0  -0.6223461436117311 -0.4323535528765215 0  -0.5647578903729885 -0.4917536693887342 0  -0.5029883547472385 -0.5577071466299769 0  -0.4346338580865051 -0.626315532185841 0  -0.3575586331110188 -0.6945308118400487 0  -0.2695129298479785 -0.7548465555012968 0  -0.1709083080515144 -0.7984726046122566 0  -0.06467717644552232 -0.8222325584611611 0  0.5757424428614444 -0.4664311036612667 0  0.1513433389759897 -0.7955901526005437 0  0.2492796246704645 -0.7494863110691241 0  0.3364876347048064 -0.690487407070389 0  0.4135155546609566 -0.6252288563919305 0  0.4824809531076222 -0.5592116962972108 0  0.5457174552829965 -0.4960502858284711 0  0.04489901477751434 -0.8213226994307227 0  -0.6502633888497535 -0.4068614472322118 0  0.5146832241758338 -0.527052366286612 0  0.4488537718017513 -0.5920647330338231 0  0.3761870257192215 -0.6582466818394191 0  0.2942382297622803 -0.7211668183384531 0  0.2016204983091683 -0.7746643410951524 0  0.09890218747971793 -0.8113756809930849 0  -0.009903681407080199 -0.8250025490818709 0  -0.1185797318330679 -0.8131941949027507 0  -0.2211501247140651 -0.7788322833972048 0  -0.3148955061387423 -0.7260694269344382 0  -0.3976844783223603 -0.6613536408224695 0  -0.4697713341144757 -0.591953041085735 0  -0.5345868267883719 -0.5241291696460928 0  -0.5939717170590739 -0.4610288987097476 0  0.7502921835169439 -0.2249882238483337 0  0.6788587552340135 -0.3798811244179275 0  0.7185454318275183 -0.3366257923758987 0  0.7436237767991604 -0.2843455883307832 0  0.6568339295755338 -0.3974435281903372 0  0.69987295286968 -0.3595937872844635 0  0.7290310376907301 -0.3088942059080841 0  0.7456839952746157 -0.2542811176620224 0  0.6450915740235685 -0.4059877368161414 0  0.6678312302274605 -0.3878334437087998 0  0.6895028189417625 -0.369889129996727 0  0.7089244113483932 -0.3472569566484769 0  0.7266127245355575 -0.3241762178538494 0  0.735339274731166 -0.2964177201517774 0  0.7434169757107867 -0.2690313841783143 0  0.747286945783416 -0.2394714218469675 0  0.7499687628076999 -0.2058020304848422 0  0.7530792184855486 0.2267639612594615 0  0.7542084224149719 0.1886220549702889 0  0.7565815022588334 0.1499691385736112 0  0.7592152813503547 0.1107373457139049 0  0.7618262835448576 0.07089126159221953 0  0.7628733195983584 0.03057327086413391 0  0.7624906918731401 -0.009858574946777046 0  0.7606757008952062 -0.05014737875210711 0  0.7574070423955223 -0.089921651063262 0  0.7542039825956861 -0.1290963672306093 0  0.7513530740196318 -0.1676872120175178 0  0.7539887716718158 0.245861483530678 0  0.7534385217137123 0.2077457220188761 0  0.7579085558180004 0.130426604244348 0  0.7625255452851916 0.05076401267312065 0  0.7617661227343498 -0.03003774675806052 0  0.7558165842837906 -0.1095879904008027 0  0.7504391470915497 -0.1867993925641664 0  0.7553348363862785 0.1693667225182355 0  0.7606223716163849 0.09091289764987028 0  0.7628556869232581 0.01035575683675877 0  0.7591037298871971 -0.07013295248194479 0  0.7527084461727935 -0.1484653650081955 0  0.6438062671828804 0.4371503039040329 0  0.7488262031057188 0.3053945138335245 0  0.7253249606571576 0.3585881875645222 0  0.6874279395148407 0.4026343138630479 0  0.7503359445292763 0.2752532139887761 0  0.7355991124094262 0.3307948989542722 0  0.707479681949273 0.3816986142912929 0  0.6659651847249882 0.4201017151439106 0  0.7516385639463664 0.2604582621128912 0  0.7487053594017077 0.2901003795608015 0  0.7414163421386664 0.3178741368877185 0  0.7324040807999527 0.345608575151425 0  0.7160501941031818 0.3692678428289445 0  0.6975614768895316 0.3922567571790495 0  0.6766409922393305 0.4106148801315078 0  0.6546978389310881 0.4287862546727306 0  -0.02958301617108493 0.8785070991654224 0  0.6028822062138655 0.4767368771121084 0  0.5746719938906713 0.5069670313413973 0  0.545681676565786 0.539182674647122 0  0.5155726058578394 0.5730187482775401 0  0.4839321455851072 0.6079363543040516 0  0.4504535582493461 0.6435200281461139 0  0.4148193641106657 0.6793260225064837 0  0.3766697393198441 0.7149200403431279 0  0.3355828881993777 0.7492180951317107 0  0.2914105170496414 0.7814743619087139 0  0.2440611388250843 0.8107265899113292 0  0.1936232247306876 0.8361625558248599 0  0.1403661825976629 0.8563210859865279 0  0.08488786985240308 0.8704305404901559 0  0.02796181370755793 0.8778189556948761 0  0.6305128133982951 0.4492645836132997 0  -0.08669246496964493 0.871490894965777 0  -0.1423398881070677 0.8576669625947606 0  -0.1956889363506404 0.8376967038384326 0  -0.2459940128506076 0.811808952470251 0  -0.2934530735262362 0.7834692243713988 0  -0.3377236999401387 0.7520322467712182 0  -0.3789894104421045 0.7185593153751 0  -0.4174508778873227 0.6837037815038982 0  -0.4534615372180645 0.6487521842229806 0  -0.4874829867931312 0.6140262167588681 0  -0.5197879314993241 0.5799027008270198 0  -0.550666374424185 0.5467496688734613 0  -0.5804026335158676 0.5149080758800337 0  -0.6092553756357363 0.484915562196238 0  -0.6374627316886298 0.4575895742117395 0  -0.6509797374131848 0.4454750711459617 0  -0.6231429906176024 0.4710655126531869 0  -0.5656744351648452 0.5307677921974102 0  -0.5038346749009274 0.596881021944015 0  -0.4357110316487857 0.6662123205209156 0  -0.3587118588623327 0.7354502269204289 0  -0.2701137297294472 0.7981018413429365 0  -0.169326931882927 0.8482204624386369 0  -0.05824909712087386 0.8758514734582102 0  0.05656216370081766 0.8750254219325653 0  0.1673159248194916 0.8469239217407756 0  0.2681346733839475 0.7965442899839255 0  0.3564883434741909 0.7322478064502539 0  0.4329253850188544 0.6614279075446096 0  0.4999615247638357 0.5903768730451885 0  0.5602847822905064 0.5229699967058167 0  0.616487150636404 0.462789340990548 0  -0.5948399320929458 0.4998569583823401 0  -0.5353971860610668 0.5632282828140377 0  -0.4707100890807361 0.6313457913349089 0  -0.3986256527324607 0.7013091050251921 0  -0.3159619538134343 0.7680280294536996 0  -0.2215347850823013 0.8258350267286554 0  -0.1147402443433621 0.8653268579724586 0  -0.0007456219608397833 0.879055906791121 0  0.1128619964563618 0.8641767907032148 0  0.2192533971130136 0.8240726744946141 0  0.3138898740864993 0.7656591391814254 0  0.3961208403476535 0.6972337989792164 0  0.4674415323228301 0.6256757435345524 0  0.5308219807702075 0.5559784835184127 0  0.5887822282123844 0.4917671860429504 0  -0.7639983841535576 0.2544581756182294 0  -0.6951123879057153 0.4107399342751692 0  -0.7337299563133283 0.3668329323034317 0  -0.7579614816758854 0.3139631980029844 0  -0.6734770673957985 0.4283922381484722 0  -0.715569358904619 0.3899839264780012 0  -0.7440792711751759 0.3390049473244687 0  -0.7597892171707556 0.2838319159690608 0  -0.6620227387213229 0.4370943042991843 0  -0.6842602205787929 0.4187804108787099 0  -0.7054628334491497 0.400475002581026 0  -0.7243332159003176 0.3775374963244951 0  -0.7412690803961335 0.3540587522519597 0  -0.7501272969678042 0.326271575070031 0  -0.7578242136317679 0.2986515071471736 0  -0.7612721124447658 0.2690174344410674 0  -0.7634051337863074 0.2352864078822306 0  -0.7631477161976672 -0.1978297206982986 0  -0.7644899007649438 -0.1596970067638676 0  -0.7671804426588642 -0.1210534715944727 0  -0.7701661344583585 -0.08181480832965879 0  -0.7731591359418614 -0.04196065138757085 0  -0.7746308630519568 -0.001605912539417144 0  -0.7746664140947016 0.0388820976483962 0  -0.7732685813100816 0.07924691462410181 0  -0.7703580986834391 0.1191280179771205 0  -0.7674226615547909 0.1584058396269198 0  -0.7647510982148881 0.1970985210522938 0  -0.7637920880907701 -0.2169731763059616 0  -0.7636025382818729 -0.1788205029084236 0  -0.7686870738333486 -0.1015118798642258 0  -0.7740746901770988 -0.02181708627676734 0  -0.7741467184568154 0.05909692468725591 0  -0.7689067945135923 0.1388429717370656 0  -0.7638636615252901 0.2162481418325378 0  -0.7657692163877461 -0.1404493185516311 0  -0.771745464747786 -0.06198777607024396 0  -0.774823063542269 0.01863750417305865 0  -0.7718988376115457 0.09928463930555426 0  -0.7660262781351518 0.1778251177447754 0  -0.7576957304584716 -0.2763846020190711 0  -0.7332557923086581 -0.3290623595540556 0  -0.6945101443400916 -0.3726480262580694 0  -0.7596257118107617 -0.2463137622572323 0  -0.7438355825052174 -0.3014228693883972 0  -0.7150298880512846 -0.3520927015414063 0  -0.6727420677178473 -0.3900480638860738 0  -0.7611086068598141 -0.2315198744914477 0  -
[...]
<PointData  Vectors="f_45"> 
<DataArray  type="Float64"  Name="f_45"  NumberOfComponents="3" format="ascii">8.4041427161465655e-03 -2.2371594289997165e-01 0.0000000000000000e+00  2.2260974679788892e-01 -2.2584498417110653e-02 0.0000000000000000e+00  2.1159454755090457e-01 -7.2884867927435551e-02 0.0000000000000000e+00  1.9127495748178677e-01 -1.1634762597292596e-01 0.0000000000000000e+00  1.6300378659949022e-01 -1.5320420498160719e-01 0.0000000000000000e+00  1.3512492489919811e-01 -1.7778708924959374e-01 0.0000000000000000e+00  9.4701791810397840e-02 -2.0231331664277333e-01 0.0000000000000000e+00  6.6579294942906403e-02 -2.1339556344277122e-01 0.0000000000000000e+00  4.5061696724218045e-02 -2.1933295191680030e-01 0.0000000000000000e+00  2.2172542081158902e-01 2.9964362269135011e-02 0.0000000000000000e+00  4.6668849379208439e-03 -2.2360236895373378e-01 0.0000000000000000e+00  -7.0885392711677563e-03 -2.2350983902519306e-01 0.0000000000000000e+00  -1.3349785513417478e-02 -2.2321647577539624e-01 0.0000000000000000e+00  -1.5896589203916289e-02 -2.2302767686425062e-01 0.0000000000000000e+00  -1.1732125778797103e-02 -2.2328051835841953e-01 0.0000000000000000e+00  -4.0314974425591614e-03 -2.2364692478881207e-01 0.0000000000000000e+00  1.8562768947809279e-02 -2.2320417654576405e-01 0.0000000000000000e+00  5.4944219593068840e-02 2.1600565781536143e-01 0.0000000000000000e+00  2.0899642290871304e-01 7.9833430806174138e-02 0.0000000000000000e+00  1.8641192089221612e-01 1.2366453148083274e-01 0.0000000000000000e+00  1.5764824287133500e-01 1.5871458909016326e-01 0.0000000000000000e+00  1.2580724636442869e-01 1.8497348397455596e-01 0.0000000000000000e+00  9.6321168011342537e-02 2.0186964707300725e-01 0.0000000000000000e+00  6.8851295378148200e-02 2.1277489103710220e-01 0.0000000000000000e+00  4.5758575983754081e-02 2.1888996343325828e-01 0.0000000000000000e+00  2.7154923838178312e-02 2.2196850485506439e-01 0.0000000000000000e+00  1.3947751225235307e-02 2.2318447632828706e-01 0.0000000000000000e+00  5.0406189624540515e-03 2.2355632758926913e-01 0.0000000000000000e+00  3.3395926127287307e-04 2.2360850876881583e-01 0.0000000000000000e+00  7.5124104155012970e-04 2.2359360904767170e-01 0.0000000000000000e+00  2.7855001631773620e-03 2.2354356619959390e-01 0.0000000000000000e+00  1.0441352869973077e-02 2.2338118942417054e-01 0.0000000000000000e+00  3.0715227637005217e-02 2.2191650589535780e-01 0.0000000000000000e+00  2.3958802417625373e-02 2.2223499176572761e-01 0.0000000000000000e+00  8.7242447034166330e-03 -2.2330046246218610e-01 0.0000000000000000e+00  -1.4187804582257321e-02 -2.2316876974572478e-01 0.0000000000000000e+00  -1.1427272967735201e-02 -2.2330934308156164e-01 0.0000000000000000e+00  1.2367224320814307e-02 -2.2319415363797182e-01 0.0000000000000000e+00  4.6752942381253201e-02 -2.1868176370832720e-01 0.0000000000000000e+00  1.1262585029677226e-01 -1.9371939676460587e-01 0.0000000000000000e+00  1.7686705088547081e-01 -1.3667007432030565e-01 0.0000000000000000e+00  2.1833401667936531e-01 -4.8689533984969065e-02 0.0000000000000000e+00  7.2084563720632034e-03 2.2351415582776582e-01 0.0000000000000000e+00  1.7262185577996697e-01 1.4229792768031305e-01 0.0000000000000000e+00  1.1125734474821657e-01 1.9399260515426867e-01 0.0000000000000000e+00  5.7130343328729599e-02 2.1622279642227382e-01 0.0000000000000000e+00  2.0216831108417790e-02 2.2269062975818130e-01 0.0000000000000000e+00  2.0443109688223415e-03 2.2359549796170558e-01 0.0000000000000000e+00  2.7940702396871393e-05 2.2361773656061587e-01 0.0000000000000000e+00  2.1677867724459396e-01 5.5319315592047551e-02 0.0000000000000000e+00  3.9746893950241516e-02 -2.1950753376171964e-01 0.0000000000000000e+00  -1.6245758192466335e-03 2.2360561683375194e-01 0.0000000000000000e+00  8.9755175427617389e-03 2.2342498635201322e-01 0.0000000000000000e+00  3.4857365696677751e-02 2.2089177040554403e-01 0.0000000000000000e+00  8.2394244249898899e-02 2.0790967276736316e-01 0.0000000000000000e+00  1.4100696666811691e-01 1.7361262559424101e-01 0.0000000000000000e+00  1.9880432524044947e-01 1.0261808989568368e-01 0.0000000000000000e+00  2.2369158842873677e-01 3.8782516225832450e-03 0.0000000000000000e+00  2.0156706514256659e-01 -9.6777507469767710e-02 0.0000000000000000e+00  1.5650620308744045e-01 -1.6012311711278046e-01 0.0000000000000000e+00  7.9922107851518237e-02 -2.0908698541404738e-01 0.0000000000000000e+00  2.5030116775658067e-02 -2.2169879859949185e-01 0.0000000000000000e+00  -1.2159824827611037e-03 -2.2359144778385179e-01 0.0000000000000000e+00  -1.6643478659245804e-02 -2.2298285555573968e-01 0.0000000000000000e+00  -6.3311714683449037e-03 -2.2351640658909822e-01 0.0000000000000000e+00  -2.1336173860290250e-01 3.8526756499464916e-02 0.0000000000000000e+00  4.6699774294498377e-02 2.1583818841310037e-01 0.0000000000000000e+00  -3.0052492927978659e-02 2.3643748198049624e-01 0.0000000000000000e+00  -1.5249073568439758e-01 8.5981045136839365e-02 0.0000000000000000e+00  3.9844606112098342e-02 2.1939166566852783e-01 0.0000000000000000e+00  -3.9839389142735181e-02 2.1757646577916012e-01 0.0000000000000000e+00  -2.0007881232978761e-01 9.1981736907086817e-02 0.0000000000000000e+00  -2.1170069161531285e-01 6.5340147380568120e-02 0.0000000000000000e+00  8.3898680054484184e-02 2.0880856596508390e-01 0.0000000000000000e+00  5.2766317996603321e-02 2.1673073897815670e-01 0.0000000000000000e+00  1.0092397826201770e-02 2.2671752873103976e-01 0.0000000000000000e+00  -5.0562219174352857e-02 2.1327185720045860e-01 0.0000000000000000e+00  -1.7151364567542621e-01 1.2137573400665175e-01 0.0000000000000000e+00  -7.0966518263279529e-02 2.4758020311515672e-01 0.0000000000000000e+00  -2.3685260545140785e-01 7.2232264542857298e-03 0.0000000000000000e+00  -2.1145208187358588e-01 7.6508574583101785e-02 0.0000000000000000e+00  -2.2619002449341680e-01 -1.2299521187240143e-02 0.0000000000000000e+00  -2.2462715992951612e-01 1.9324303605796761e-02 0.0000000000000000e+00  -2.2251902788508929e-01 -2.1128175799596041e-02 0.0000000000000000e+00  -2.2162103171085881e-01 -2.9623198225537974e-02 0.0000000000000000e+00  -2.2147370392567739e-01 -3.0721324454932503e-02 0.0000000000000000e+00  -2.2257883672510237e-01 -2.1239681339887018e-02 0.0000000000000000e+00  -2.2357105543600073e-01 -3.7559221719603540e-03 0.0000000000000000e+00  -2.2327639143739614e-01 1.2102121354178876e-02 0.0000000000000000e+00  -2.2157656274960111e-01 2.9916903250024846e-02 0.0000000000000000e+00  -2.2052812215264600e-01 3.6905652010865542e-02 0.0000000000000000e+00  -2.2072232056238977e-01 3.5736061602850061e-02 0.0000000000000000e+00  -2.2213092850182062e-01 2.5854953719385051e-02 0.0000000000000000e+00  -2.1666509580510096e-01 -1.9298285275234302e-02 0.0000000000000000e+00  -2.2296154473315655e-01 -1.9355839122769100e-02 0.0000000000000000e+00  -2.2162647218918050e-01 -2.9745463743714350e-02 0.0000000000000000e+00  -2.2336896441463372e-01 -1.1163416491134838e-02 0.0000000000000000e+00  -2.2278194674054236e-01 1.9654983175104307e-02 0.0000000000000000e+00  -2.2064242722041841e-01 3.6322672862997632e-02 0.0000000000000000e+00  -2.2236084107085952e-01 2.0905057035123308e-02 0.0000000000000000e+00  -2.2185152187382429e-01 -2.8333374653699686e-02 0.0000000000000000e+00  -2.2150833442677070e-01 -3.0787130438116459e-02 0.0000000000000000e+00  -2.2358876214324064e-01 4.2602590220818734e-03 0.0000000000000000e+00  -2.2037455641771977e-01 3.8059500927812039e-02 0.0000000000000000e+00  -2.2104977981649787e-01 3.3879161271051013e-02 0.0000000000000000e+00  3.6837592203171420e-02 -2.1991372859472991e-01 0.0000000000000000e+00  -1.6488701617086715e-01 -8.6020316570856944e-02 0.0000000000000000e+00  -5.5494731600774116e-02 -2.2156184808619137e-01 0.0000000000000000e+00  3.2992597751000240e-02 -2.1696576884405722e-01 0.0000000000000000e+00  -2.1562517775430043e-01 -4.9814189293461847e-02 0.0000000000000000e+00  -1.9393386361476189e-01 -1.0531927523808170e-01 0.0000000000000000e+00  -5.4386515292662002e-02 -2.1369356179939625e-01 0.0000000000000000e+00  3.2318233681070334e-02 -2.2081489319653075e-01 0.0000000000000000e+00  -2.1629617634011650e-01 -6.4594761471250817e-02 0.0000000000000000e+00  -2.3646128278683576e-01 7.8119893876887816e-04 0.0000000000000000e+00  -1.0146618045994917e-01 -2.2528370174775500e-01 0.0000000000000000e+00  -1.8158381369536500e-01 -1.2787040141154440e-01 0.0000000000000000e+00  -5.6852870923707444e-02 -2.1374055664499453e-01 0.0000000000000000e+00  -9.1233208015211887e-03 -2.2737027070986207e-01 0.0000000000000000e+00  5.1530991335212183e-02 -2.1762935183897356e-01 0.0000000000000000e+00  6.8705360181869610e-02 -2.1401758544613750e-01 0.0000000000000000e+00  2.2221086140062429e-01 2.5182693403498223e-02 0.0000000000000000e+00  -1.1622229070329624e-02 -2.2336526357221664e-01 0.0000000000000000e+00  -2.0576292636287522e-02 -2.2263017041296751e-01 0.0000000000000000e+00  -2.5342821540385762e-02 -2.2215051327849084e-01 0.0000000000000000e+00  -2.4028154263574422e-02 -2.2231682358088009e-01 0.0000000000000000e+00  -1.8417310492640362e-02 -2.2285419080521232e-01 0.0000000000000000e+00  -8.1045113141242110e-03 -2.2347395408194401e-01 0.0000000000000000e+00  5.7482089558482160e-03 -2.2355997487243159e-01 0.0000000000000000e+00  2.7658164750577453e-02 -2.2191641214782856e-01 0.0000000000000000e+00  5.2908956090180682e-02 -2.1728704368287999e-01 0.0000000000000000e+00  8.3255185615116897e-02 -2.0761353928367093e-01 0.0000000000000000e+00  1.1556959713925423e-01 -1.9158468866890260e-01 0.0000000000000000e+00  1.5133339858146627e-01 -1.6480043760165694e-01 0.0000000000000000e+00  1.8275259339337740e-01 -1.2904817010778960e-01 0.0000000000000000e+00  2.0762437081128657e-01 -8.3507005738547052e-02 0.0000000000000000e+00  2.2160697373856347e-01 -3.1027966527465034e-02 0.0000000000000000e+00  1.1929807451047344e-02 -2.2371975339012470e-01 0.0000000000000000e+00  2.0846191102566194e-01 8.0759598585443737e-02 0.0000000000000000e+00  1.8343943708819427e-01 1.2782296043385319e-01 0.0000000000000000e+00  1.5734588850880296e-01 1.5976513187488586e-01 0.0000000000000000e+00  1.1147970936241387e-01 1.9426972925738209e-01 0.0000000000000000e+00  8.7741886814820244e-02 2.0588043762489044e-01 0.0000000000000000e+00  5.9051100227835156e-02 2.1569043645257777e-01 0.0000000000000000e+00  3.5239559196025012e-02 2.2086563168928017e-01 0.0000000000000000e+00  1.1391839474066209e-02 2.2336398864897641e-01 0.0000000000000000e+00  7.1642540775520203e-04 2.2362069180174501e-01 0.0000000000000000e+00  -8.9649008083858665e-03 2.2343533776453839e-01 0.0000000000000000e+00  -1.4242818830991624e-02 2.2315770316195294e-01 0.0000000000000000e+00  -1.5276702560258548e-02 2.2307606516253214e-01 0.0000000000000000e+00  -1.3443558744045436e-02 2.2317096590719560e-01 0.0000000000000000e+00  -5.5281429710227299e-03 2.2359262984099121e-01 0.0000000000000000e+00  1.6600044858446593e-02 2.2338745601793042e-01 0.0000000000000000e+00  3.9588096868058399e-02 2.1944990273157464e-01 0.0000000000000000e+00  7.8643923846714626e-03 2.2335541401597026e-01 0.0000000000000000e+00  -1.5725062313813105e-02 2.2306018095480229e-01 0.0000000000000000e+00  -1.2559542349729521e-02 2.2324972206401264e-01 0.0000000000000000e+00  6.9607437857279967e-03 2.2348570769010312e-01 0.0000000000000000e+00  4.5556399848216834e-02 2.1895551242352301e-01 0.0000000000000000e+00  1.0910984860110920e-01 1.9497994109493486e-01 0.0000000000000000e+00  1.6750939070412754e-01 1.4817495052405186e-01 0.0000000000000000e+00  2.1718609978323941e-01 5.4561224925511374e-02 0.0000000000000000e+00  2.1633433069979427e-01 -5.6826415026203239e-02 0.0000000000000000e+00  1.6745643993697396e-01 -1.4834168724674396e-01 0.0000000000000000e+00  1.0023303441812746e-01 -1.9989689591830395e-01 0.0000000000000000e+00  3.9721707639097083e-02 -2.2009423602419098e-01 0.0000000000000000e+00  -1.0513578322974421e-03 -2.2360207046969766e-01 0.0000000000000000e+00  -2.2350097615289249e-02 -2.2248468255906903e-01 0.0000000000000000e+00  -2.3763792668937588e-02 -2.2235807089312665e-01 0.0000000000000000e+00  1.8494516458020091e-03 -2.2347625457636153e-01 0.0000000000000000e+00  -8.2407624450678233e-03 2.2346655992123329e-01 0.0000000000000000e+00  -1.6421459991095785e-02 2.2300181475339323e-01 0.0000000000000000e+00  -4.8308771053927413e-03 2.2355327859957330e-01 0.0000000000000000e+00  2.1197797289545066e-02 2.2257675053410880e-01 0.0000000000000000e+00  7.3743420666061474e-02 2.1112433474068668e-01 0.0000000000000000e+00  1.2690308075569637e-01 1.8334714093402521e-01 0.0000000000000000e+00  1.9799667707566360e-01 1.0459632260595554e-01 0.0000000000000000e+00  2.2371339455046152e-01 -6.5704643621892871e-03 0.0000000000000000e+00  1.9655612402378869e-01 -1.0684233745745718e-01 0.0000000000000000e+00  1.3236698924655657e-01 -1.8025245317106670e-01 0.0000000000000000e+00  6.7964579981834514e-02 -2.1307665969942907e-01 0.0000000000000000e+00  1.4818328448790432e-02 -2.2312744245602931e-01 0.0000000000000000e+00  -1.3818409412316636e-02 -2.2318051241199285e-01 0.0000000000000000e+00  -2.6625811206020349e-02 -2.2201647701593702e-01 0.0000000000000000e+00  -1.5101636559309409e-02 -2.2310688017293123e-01 0.0000000000000000e+00  -2.1499321111777145e-01 2.9791109780453129e-02 0.0000000000000000e+00  3.7026520628086299e-02 2.1706400803001297e-01 0.0000000000000000e+00  -4.5048894676488732e-02 2.2875310649131417e-01 0.0000000000000000e+00  -1.5910273822174489e-01 8.6603390335037458e-02 0.0000000000000000e+00  3.3843493581450314e-02 2.2043804824463697e-01 0.0000000000000000e+00  -4.9184554992823502e-02 2.1529294072965086e-01 0.0000000000000000e+00  -1.9730653507887991e-01 9.8600157851141138e-02 0.0000000000000000e+00  -2.1372712218675863e-01 5.8063588122022947e-02 0.0000000000000000e+00  7.1749917936326998e-02 2.1311064042765968e-01 0.0000000000000000e+00  4.9349326462071741e-02 2.1784280922082500e-01 0.0000000000000000e+00  -1.8338778811573997e-03 2.2719820354187414e-01 0.0000000000000000e+00  -5.5823784514088225e-02 2.1300269606790781e-01 0.0000000000000000e+00  -1.7747307468005116e-01 1.2462418488295374e-01 0.0000000000000000e+00  -8.7425817618852916e-02 2.3604849921901996e-01 0.0000000000000000e+00  -2.3661367693975269e-01 3.8859555749314223e-03 0.0000000000000000e+00  -2.1356185275666387e-01 7.1867599441948884e-02 0.0000000000000000e+00  -2.2551324533967015e-01 -1.5133625712390967e-02 0.0000000000000000e+00  -2.2540199920059220e-01 1.5744994333164373e-02 0.0000000000000000e+00  -2.2222842015174690e-01 -2.4400636302444382e-02 0.0000000000000000e+00  -2.2106243099391099e-01 -3.3551528700165846e-02 0.0000000000000000e+00  -2.2093048501725313e-01 -3.4412196519802769e-02 0.0000000000000000e+00  -2.2206366757561402e-01 -2.6060090432322009e-02 0.0000000000000000e+00  -2.2344711086068961e-01 -8.3505982314102424e-03 0.0000000000000000e+00  -2.2347604040510996e-01 7.5507343555004077e-03 0.0000000000000000e+00  -2.2217084857267155e-01 2.5144796747513815e-02 0.0000000000000000e+00  -2.2104841843762521e-01 3.3654314116839328e-02 0.0000000000000000e+00  -2.2113606116178391e-01 3.3073195656539822e-02 0.0000000000000000e+00  -2.2224365871453305e-01 2.4372008650832770e-02 0.0000000000000000e+00  -2.1518021345660218e-01 -2.8267652638018503e-02 0.0000000000000000e+00  -2.2259096051567615e-01 -2.1378246526172907e-02 0.0000000000000000e+00  -2.2104989446878867e-01 -3.3757402907739029e-02 0.0000000000000000e+00  -2.2308735685101935e-01 -1.5831534412445256e-02 0.0000000000000000e+00  -2.2314124105925992e-01 1.5030796822317260e-02 0.0000000000000000e+00  -2.2113736995411082e-01 3.3172904936105287e-02 0.0000000000000000e+00  -2.2255870807674411e-01 2.1266206722071419e-02 0.0000000000000000e+00  -2.2134597639239983e-01 -3.1982082805283321e-02 0.0000000000000000e+00  -2.2088475054776102e-01 -3.4984980441614251e-02 0.0000000000000000e+00  -2.2362909485382501e-01 -3.8905446343155561e-04 0.0000000000000000e+00  -2.2103613173283129e-01 3.4004234548460653e-02 0.0000000000000000e+00  -2.2137810129092594e-01 3.1726819120587828e-02 0.0000000000000000e+00  -1.5933259902964950e-01 -8.8920772688684868e-02 0.0000000000000000e+00  -4.3443997326691040e-02 -2.2843451837137882e-01 0.0000000000000000e+00  3.9738985469333840e-02 -2.1638864069593383e-01 0.0000000000000000e+00  -2.1369014620235482e-01 -5.7536904708864932e-02 0.0000000000000000e+00  -1.9580989024452736e-01 -1.0260554882366808e-01 0.0000000000000000e+00  -4.6231732859428311e-02 -2.1573767089283200e-01 0.0000000000000000e+00  3.9806016801902572e-02 -2.1925531381603985e-01 0.0000000000000000e+00  -2.1383823879104538e-01 -7.1586284027184116e-02 0.0000000000000000e+00  -2.3662748314761703e-01 -5.7908887336822756e-03 0.0000000000000000e+00  -8.8106377267737498e-02 -2.3430886861787215e-01 0.0000000000000000e+00  -1.7504831984944061e-01 -1.2889485892710800e-01 0.0000000000000000e+00  -5.4209030560322682e-02 -2.1368942622203679e-01 0.0000000000000000e+00  1.0355913753470512e-03 -2.2730662262083190e-01 0.0000000000000000e+00  5.3719999167097895e-02 -2.1698494096033991e-01 0.0000000000000000e+00  7.4858055463946319e-02 -2.1204065823477136e-01 0.0000000000000000e+00  1.2545408008038225e-01 1.8515521557662132e-01 0.0000000000000000e+00  1.2182019291981229e-01 1.8755689645151630e-01 0.0000000000000000e+00  2.1517053305314249e-01 -6.1066416772001295e-02 0.0000000000000000e+00  7.0205528311300140e-03 -2.2355733341855999e-01 0.0000000000000000e+00  -7.8072929580227208e-04 -2.2366138487939544e-01 0.0000000000000000e+00  2.0880166904011252e-01 -8.0177400094092424e-02 0.0000000000000000e+00  -1.9811074306363533e-01 1.0384058635759241e-01 0.0000000000000000e+00  -2.0158618530439509e-01 9.6907206803041837e-02 0.0000000000000000e+00  -2.0060258389748162e-01 -9.8919976337698209e-02 0.0000000000000000e+00  -2.0428979935347669e-01 -9.1056990094024542e-02 0.0000000000000000e+00  -9.0130885524866838e-02 -2.0472570759589498e-01 0.0000000000000000e+00  -1.6569455314318024e-01 -1.5037854839021200e-01 0.0000000000000000e+00  -8.6988892889552707e-02 -2.0638951579417369e-01 0.0000000000000000e+00  -2.2138783862994485e-01 3.3433402135270435e-02 0.0000000000000000e+00  -2.0622368430297763e-01 8.8933069199498602e-02 0.0000000000000000e+00  -2.2353890067780163e-01 8.4696999340032955e-03 0.0000000000000000e+00  6.7411676541117654e-02 -2.1377735822975180e-01 0.0000000000000000e+00  -3.6176339450472265e-02 2.2367113439309536e-01 0.0000000000000000e+00  2.2026412572320059e-01 -3.9988937495545891e-02 0.0000000000000000e+00  1.6955690076790367e-01 -1.4845777909583016e-01 0.0000000000000000e+00  5.7522833402121727e-02 2.1693283405046085e-01 0.0000000000000000e+00  -5.1749298320544576e-02 -2.1851986709603366e-01 0.0000000000000000e+00  -2.1667793588723908e-01 5.7428792914745459e-02 0.0000000000000000e+00  -8.1320962478114142e-02 -2.0838167381508102e-01 0.0000000000000000e+00  -1.6027019871646683e-01 -1.5613601197688703e-01 0.0000000000000000e+00  -2.2367324464439314e-01 -3.1168714734715144e-03 0.0000000000000000e+00  -1.5556206906477812e-01 1.6085489608535275e-01 0.0000000000000000e+00  -6.4536518677784066e-02 2.1417221234929815e-01 0.0000000000000000e+00  2.1232539358790600e-01 7.0329329938366048e-02 0.0000000000000000e+00  -8.0241408603139455e-02 2.0879757587244119e-01 0.0000000000000000e+00  1.1304359496058727e-02 2.2337049807652570e-01 0.0000000000000000e+00  1.1488958076494431e-01 -1.9189635792255183e-01 0.0000000000000000e+00  -4.2613049422166954e-02 2.1975063015227120e-01 0.0000000000000000e+00  2.0598044983765029e-01 8.7154327699812212e-02 0.0000000000000000e+00  1.2861211652543045e-01 -1.8300752021599659e-01 0.0000000000000000e+00  -1.4093574979238513e-01 1.7380828444978250e-01 0.0000000000000000e+00  -9.4284348971773957e-02 -2.0311403680142198e-01 0.0000000000000000e+00  -2.2345289465860319e-01 1.4091743347488760e-02 0.0000000000000000e+00  2.0178856080945915e-02 2.2273499185383588e-01 0.0000000000000000e+00  -1.3481292669860473e-01 1.7845833002145192e-01 0.0000000000000000e+00  1.11