<?xml version="1.0"?>
<VTKFile type="UnstructuredGrid"  version="0.1"  >
<UnstructuredGrid>
<Piece  NumberOfPoints="4153" NumberOfCells="8064">
<Points>
<DataArray  type="Float64"  NumberOfComponents="3"  format="ascii">-0.4159429826850926 -0.5362613292543857 0  -0.04461515998251062 -0.6280348082762706 0  -0.09291428984836833 -0.6248792480575229 0  -0.1407982996019218 -0.618901853485424 0  -0.1881910085321505 -0.6106766836185991 0  -0.235316602351043 -0.6009707080160278 0  -0.2818360706034116 -0.5877060391915565 0  -0.3274736622475926 -0.5721058261278761 0  -0.3721972180870883 -0.5548887907648314 0  0.003893281950622444 -0.6280298655461553 0  -0.4590241115335823 -0.5183085575461835 0  -0.5015968041137807 -0.5004847468702706 0  -0.5437227974906877 -0.4830820832722665 0  -0.585442275410555 -0.4664570944767499 0  -0.6269006599541558 -0.4508143963165386 0  -0.6680510451370403 -0.4362064979604627 0  -0.7089963175948841 -0.4233486708498779 0  0.6940523730160658 -0.4345525778504145 0  0.05236010410679262 -0.6248573015766907 0  0.100540620001656 -0.6186250475167874 0  0.148215135910143 -0.6096035398262585 0  0.1952123328936305 -0.5981723192890057 0  0.2414636838259787 -0.5850190374775622 0  0.2869909480224117 -0.5705959545908673 0  0.3318324486081478 -0.5553064097295664 0  0.3760367441132214 -0.5395815998952004 0  0.4197057129847518 -0.5237388056059966 0  0.4629140429916035 -0.5080418125215012 0  0.5057238403533381 -0.4926690642473513 0  0.5481782394934532 -0.4779008286832832 0  0.5903078277971231 -0.4637590960938117 0  0.632123401681579 -0.4505974314457348 0  0.6737054219436844 -0.4389607656166137 0  0.6528612756919572 -0.4448050192744032 0  -0.6884349740823876 -0.4298348405777062 0  -0.6062118556586187 -0.4585497212019395 0  -0.5227071624744043 -0.4917282069075573 0  -0.4375370147983413 -0.527274657405038 0  -0.3499495892534314 -0.563614246915377 0  -0.258679508615476 -0.5946694483184725 0  -0.1645533982575963 -0.6150471989239792 0  -0.06880620374044261 -0.6268367455877057 0  0.6112500989538947 -0.4571009925513023 0  0.1244529820036456 -0.6144393436328625 0  0.2184295497219378 -0.5917808741432832 0  0.3094923162241439 -0.5630464535054746 0  0.3979348486493725 -0.5316565203457968 0  0.4843638302380022 -0.5003165968897707 0  0.5692867019652162 -0.4707329194004041 0  0.02814728077481279 -0.6268363948632077 0  -0.7289457352619393 -0.4182908145007171 0  0.5269810275878758 -0.4851932332545867 0  0.4413631814220284 -0.5158633733899521 0  0.3540032330149127 -0.5474606095362975 0  0.2643159463650355 -0.5779425986583334 0  0.1718094661484122 -0.6041510818382154 0  0.07650093951521533 -0.6221105127724401 0  -0.02037065264715221 -0.6284355621320554 0  -0.116916717646935 -0.6222144468928296 0  -0.2117428421046716 -0.6061769200016849 0  -0.3047681507412088 -0.5801433198460449 0  -0.3942544580146292 -0.5456532526999563 0  -0.4803683862628416 -0.5093608925342571 0  -0.5646181876213258 -0.474615226088358 0  -0.6475040631486044 -0.4434428565204367 0  0.8575494354376274 -0.2479528789384445 0  0.7577207739510519 -0.414245566961494 0  0.8118568555026972 -0.3731344901339065 0  0.8469746006226619 -0.3152663105798261 0  0.7261553156935441 -0.4248091979673959 0  0.7854970830941782 -0.3946756391326025 0  0.8283625418556295 -0.3434140230074283 0  0.8516225714139001 -0.2813046549256991 0  0.710302794029682 -0.4306104183458536 0  0.7418583976008793 -0.4191288007115438 0  0.771653694417445 -0.4046272248281342 0  0.7982735421278457 -0.3832032151611547 0  0.8209879233548898 -0.3587536027088237 0  0.8372356231399813 -0.3292285000637651 0  0.8489212690366253 -0.2981430704409755 0  0.8541814398100938 -0.2645488544549582 0  0.8570342689948465 -0.2261759343497603 0  0.8625725929318043 0.2531172552428917 0  0.8619339128399238 0.2099227518882956 0  0.8624057085236457 0.1666725670086672 0  0.8634245173256193 0.1232424884395145 0  0.8647518443296942 0.07951920061303813 0  0.86513694687025 0.03554115490662103 0  0.8646131416774065 -0.008502234917063794 0  0.8631831898657309 -0.0524884828077084 0  0.860849625877894 -0.09622427367266936 0  0.8588296269301521 -0.1396851602778048 0  0.8573619294533689 -0.1829655018356564 0  0.8636671610120914 0.2748803107742546 0  0.8620706079551407 0.2315153813839481 0  0.8628697203764707 0.1449855277314506 0  0.8650597480740062 0.05754672195740097 0  0.8640144858612028 -0.03051082250288349 0  0.8597962214478461 -0.1179825510612886 0  0.8570123196897892 -0.2045717142676724 0  0.8620848569445587 0.1883141268381412 0  0.8641305995154405 0.1014355391643367 0  0.8649849444681049 0.01352006201388233 0  0.8620508462036086 -0.07440854349412035 0  0.858010532542246 -0.1613430118188946 0  0.705870265850234 0.464416749392864 0  0.8548286573192522 0.3424715397811398 0  0.8212426250307004 0.401053283207366 0  0.7684715037104506 0.4432584612186911 0  0.858745139934463 0.3083676059500643 0  0.8372010445687044 0.3710779751398263 0  0.7956298697434709 0.4231121066800162 0  0.7374463535295559 0.4543661293921286 0  0.8608868210100511 0.2915529624123485 0  0.8564587278129661 0.3252810076656521 0  0.8456420398399974 0.3566681034823128 0  0.8300190024508409 0.386473274141738 0  0.8080439002090288 0.4113791449378583 0  0.7820898412789854 0.4333228493863273 0  0.7528887515343571 0.4484628517701967 0  0.721846370135469 0.4603175769714657 0  -0.03673596291810996 0.7140537202031813 0  0.6453088375077541 0.4832940722012126 0  0.604337903513035 0.4986912108526844 0  0.5630125292007087 0.5152800385149644 0  0.5213525199072503 0.5329938312400755 0  0.4792311905754524 0.5516150010264121 0  0.4365924108652557 0.5708760078639434 0  0.3933476241698658 0.5905525338417041 0  0.3493865505848889 0.6104756093081507 0  0.3045413132412412 0.6300877399822801 0  0.2587410130637683 0.6489500504076738 0  0.2119029358618847 0.6665496689629336 0  0.1639528540128622 0.6824014774553742 0  0.1149192225224304 0.6954764697113118 0  0.06497438945554893 0.7053275700782012 0  0.01435262550260734 0.7115195777499725 0  0.6860578495661713 0.4697618599124 0  -0.08787135202138087 0.7115984532282837 0  -0.1385270513533469 0.7046454273506476 0  -0.1882773909877485 0.6935433068592795 0  -0.2366383002313686 0.6783546988648972 0  -0.2836721954207749 0.6617384132271522 0  -0.3295878175045261 0.6438031655267681 0  -0.3744835777500894 0.6249547737376193 0  -0.4184179749257442 0.6055235467152796 0  -0.4616327772549907 0.5864131942176409 0  -0.504261749335002 0.5676343493333585 0  -0.5463950733557817 0.5493825132949469 0  -0.5881030811592053 0.5318573157321362 0  -0.6294251404455208 0.5152459652269857 0  -0.6704144561294744 0.4998763562196585 0  -0.7111934480395933 0.4863593860615137 0  -0.7310967502627156 0.481100394670452 0  -0.6907364551614326 0.4931401070835099 0  -0.608809733587151 0.5234237640114725 0  -0.5253857334685607 0.5584323878113863 0  -0.4401033463626399 0.5959423996067453 0  -0.3521563911413559 0.6344631862862111 0  -0.2603016558176761 0.6702517157369229 0  -0.1635397396168021 0.6995466053350254 0  -0.06233035409999341 0.7133775789347616 0  0.03973222653925156 0.7089137889371715 0  0.1395623791030735 0.6892956739124587 0  0.2354536701896006 0.6579416461938324 0  0.327075422596263 0.6203506043011948 0  0.4150500787905954 0.5806766891130619 0  0.5003488163410049 0.5422169601128569 0  0.5837215298052025 0.506873575260707 0  0.6656030344429709 0.4765686347993096 0  -0.6499552268953143 0.5074601430546879 0  -0.5672973294096766 0.540521603491653 0  -0.4830139035040062 0.5769688744660602 0  -0.3965747103701879 0.6152457749228366 0  -0.3067630458571228 0.6529098865543564 0  -0.2126995689305284 0.6863220784008072 0  -0.1132869410942777 0.7086608416602892 0  -0.01112019247664883 0.713356303407792 0  0.09004769589911352 0.7008348392131711 0  0.1880829468302442 0.6747778417940253 0  0.2817661473521234 0.639644506818641 0  0.3714733632294613 0.6005061246873881 0  0.4579811216771093 0.5611809313665503 0  0.5422316295701094 0.5239845158062651 0  0.6248612174361508 0.4909049127209888 0  -0.8895240203496186 0.2912123265691675 0  -0.7936705403167681 0.4595111753947698 0  -0.8465127887824722 0.4172468504436507 0  -0.8802653301378308 0.3587249914912248 0  -0.762642518046536 0.470728531142817 0  -0.8208285628880123 0.4393060265856262 0  -0.8624180650834212 0.3872077351930167 0  -0.8842957438320688 0.3246415400157315 0  -0.7470557099160622 0.4768266030262435 0  -0.7780782840987236 0.4647361830554462 0  -0.8072893855858183 0.4495466998309107 0  -0.8332622649234876 0.4275530322618067 0  -0.8553066060067367 0.4026634331943059 0  -0.8709356809938846 0.3728519308026103 0  -0.8819197490749363 0.3415371148306839 0  -0.8865394724484248 0.3078486780040305 0  -0.8886152970752325 0.2694521175871669 0  -0.8881500279392954 -0.209095445481878 0  -0.8879264190751426 -0.1659534194456536 0  -0.8888487037404802 -0.1227550461636022 0  -0.8903322114994147 -0.07937976506313039 0  -0.892137711464553 -0.03572502029115674 0  -0.893043815806045 0.008178774997245529 0  -0.8930751981457347 0.0521409439184861 0  -0.8922394823082892 0.09604275567373255 0  -0.8905237233083018 0.1397006045210186 0  -0.8891181972779456 0.1830813323011052 0  -0.8882803957054896 0.2262907057295204 0  -0.8890128037708674 -0.230839984898723 0  -0.8878507971421289 -0.1875213915117127 0  -0.8895457919764992 -0.1010950632824114 0  -0.892702803061066 -0.01378859160737515 0  -0.8927675775993489 0.07410742399743944 0  -0.8897750794385934 0.1614178822480848 0  -0.8882538676895175 0.2478663257047534 0  -0.8883000053378094 -0.1443708391627909 0  -0.8912706973119039 -0.05760547255937404 0  -0.8931648716612003 0.03016003984341225 0  -0.891418507891351 0.1179233539820021 0  -0.8886113951007556 0.2047015383370257 0  -0.8794278186338926 -0.2982353647357674 0  -0.8451637930530131 -0.3563714080265022 0  -0.7918847218772943 -0.3979674772889509 0  -0.8836900788378391 -0.2642383393959998 0  -0.8614094410384443 -0.3266075583573533 0  -0.8192656946542533 -0.3781662398120968 0  -0.7606498820643293 -0.4086847728494488 0  -0.8860075647297284 -0.2474655807403703 0  -0.88121994
[...]
<PointData  Vectors="f_45"> 
<DataArray  type="Float64"  Name="f_45"  NumberOfComponents="3" format="ascii">1.5499794869058256e-01 -1.6112131390147236e-01 0.0000000000000000e+00  2.2315646014534446e-01 -1.4820274938982225e-02 0.0000000000000000e+00  2.1953151783961744e-01 -4.2700031040557272e-02 0.0000000000000000e+00  2.1375952013636887e-01 -6.5782674571246230e-02 0.0000000000000000e+00  2.0836750573239490e-01 -8.1165973424036489e-02 0.0000000000000000e+00  1.9807981563563201e-01 -1.0369595251175698e-01 0.0000000000000000e+00  1.8311745383384087e-01 -1.2829399536259870e-01 0.0000000000000000e+00  1.7048166306355947e-01 -1.4466813860307445e-01 0.0000000000000000e+00  1.6080007618693265e-01 -1.5535976601603738e-01 0.0000000000000000e+00  2.2316139575990093e-01 1.4760875359175224e-02 0.0000000000000000e+00  1.5678265212670911e-01 -1.5942887093202157e-01 0.0000000000000000e+00  1.5745705075199684e-01 -1.5876776185187716e-01 0.0000000000000000e+00  1.5941482066353521e-01 -1.5680753808395395e-01 0.0000000000000000e+00  1.6589230992536649e-01 -1.4992688049777134e-01 0.0000000000000000e+00  1.7114527313956368e-01 -1.4382292284398179e-01 0.0000000000000000e+00  1.7951180857437921e-01 -1.3297490393974182e-01 0.0000000000000000e+00  1.8813769955629342e-01 -1.2014619307843803e-01 0.0000000000000000e+00  2.0642353834524307e-01 8.8521061922983854e-02 0.0000000000000000e+00  2.1939896045393384e-01 4.3371155978517845e-02 0.0000000000000000e+00  2.1243373871518767e-01 6.9895836987707405e-02 0.0000000000000000e+00  2.0341304939546187e-01 9.2917200668301045e-02 0.0000000000000000e+00  1.9409189205553107e-01 1.1106727559662376e-01 0.0000000000000000e+00  1.8625263609218759e-01 1.2375266255727407e-01 0.0000000000000000e+00  1.7969089471861488e-01 1.3309488492892416e-01 0.0000000000000000e+00  1.7456236842032563e-01 1.3974623363387645e-01 0.0000000000000000e+00  1.7234246719251292e-01 1.4247046413053413e-01 0.0000000000000000e+00  1.7134365179349345e-01 1.4367054617965436e-01 0.0000000000000000e+00  1.7189686495189854e-01 1.4300768942148484e-01 0.0000000000000000e+00  1.7341059343703283e-01 1.4117039111074967e-01 0.0000000000000000e+00  1.7689457334481085e-01 1.3677303121064380e-01 0.0000000000000000e+00  1.8122392638752036e-01 1.3092168419771621e-01 0.0000000000000000e+00  1.8815677027075520e-01 1.2047295119252860e-01 0.0000000000000000e+00  1.9659084287783821e-01 1.0525329160312234e-01 0.0000000000000000e+00  1.9049756251269523e-01 1.1767248842602432e-01 0.0000000000000000e+00  1.8327372222498545e-01 -1.2848011337765564e-01 0.0000000000000000e+00  1.6755144714783657e-01 -1.4811893684277525e-01 0.0000000000000000e+00  1.5839986803153308e-01 -1.5782716158269203e-01 0.0000000000000000e+00  1.5821049201686493e-01 -1.5804396507262247e-01 0.0000000000000000e+00  1.6598056640693112e-01 -1.4989386763385851e-01 0.0000000000000000e+00  1.8955183133481235e-01 -1.1882849432406689e-01 0.0000000000000000e+00  2.1018663399993201e-01 -7.6256764942757113e-02 0.0000000000000000e+00  2.2172102225770485e-01 -2.9243903308611718e-02 0.0000000000000000e+00  1.8259679217961500e-01 1.2925294576667487e-01 0.0000000000000000e+00  2.0813876178643684e-01 8.1805424389576581e-02 0.0000000000000000e+00  1.9008651571465773e-01 1.1777286922070351e-01 0.0000000000000000e+00  1.7696499298107254e-01 1.3668943279384721e-01 0.0000000000000000e+00  1.7146448160368868e-01 1.4352791284132616e-01 0.0000000000000000e+00  1.7246262759595374e-01 1.4232745672965000e-01 0.0000000000000000e+00  1.7794641999644759e-01 1.3543976462547247e-01 0.0000000000000000e+00  2.2173382063187863e-01 2.9166084247340015e-02 0.0000000000000000e+00  2.0287607096190116e-01 -9.6233636094673905e-02 0.0000000000000000e+00  1.7541818790726973e-01 1.3866950601744246e-01 0.0000000000000000e+00  1.7138958741312452e-01 1.4361690633887092e-01 0.0000000000000000e+00  1.7332828635978220e-01 1.4127225875624025e-01 0.0000000000000000e+00  1.8271325473656577e-01 1.2890916516992251e-01 0.0000000000000000e+00  1.9848194415531120e-01 1.0301988771739352e-01 0.0000000000000000e+00  2.1625963208595450e-01 5.6987915827481445e-02 0.0000000000000000e+00  2.2364536994533013e-01 8.0192619314929398e-05 0.0000000000000000e+00  2.1667265145345033e-01 -5.5307553446283277e-02 0.0000000000000000e+00  2.0638348456078684e-01 -8.6250963928599905e-02 0.0000000000000000e+00  1.7676174696843630e-01 -1.3703139079964943e-01 0.0000000000000000e+00  1.5347343418857617e-01 -1.6267128975649897e-01 0.0000000000000000e+00  1.5680395002299807e-01 -1.5941475516545009e-01 0.0000000000000000e+00  1.6214646028989083e-01 -1.5397985539162637e-01 0.0000000000000000e+00  1.7267349506286164e-01 -1.4227474501528331e-01 0.0000000000000000e+00  -2.1440380752455598e-01 3.3950885754992777e-02 0.0000000000000000e+00  1.3159098945009498e-01 1.6599659182760715e-01 0.0000000000000000e+00  -9.7941757133980837e-04 2.1059810942613683e-01 0.0000000000000000e+00  -1.4766025967776675e-01 1.2623495172161836e-01 0.0000000000000000e+00  1.6224605397326508e-01 1.5399041921734902e-01 0.0000000000000000e+00  3.9565362851185372e-02 2.1545587107188069e-01 0.0000000000000000e+00  -1.2651456531146688e-01 1.7712278409882007e-01 0.0000000000000000e+00  -2.0871817599147768e-01 6.9972834065591002e-02 0.0000000000000000e+00  1.8494146345222562e-01 1.2453440732164064e-01 0.0000000000000000e+00  1.9405071656671419e-01 1.2166061386807443e-01 0.0000000000000000e+00  7.0150894875227549e-02 2.2038127250317299e-01 0.0000000000000000e+00  5.6786675063179200e-02 2.2072253300255779e-01 0.0000000000000000e+00  -1.4419691197141893e-01 1.8583059646440042e-01 0.0000000000000000e+00  -6.2583340715515037e-02 2.3250981710333890e-01 0.0000000000000000e+00  -2.3372206324945430e-01 4.0899521817423339e-02 0.0000000000000000e+00  -2.0872142510846783e-01 8.9438472844891190e-02 0.0000000000000000e+00  -2.2588663056513975e-01 -1.8645508697157698e-02 0.0000000000000000e+00  -2.2443651008107135e-01 2.9066445656219367e-02 0.0000000000000000e+00  -2.2370264619715849e-01 4.9609718338344496e-04 0.0000000000000000e+00  -2.2345779253825063e-01 -8.2009959228233724e-03 0.0000000000000000e+00  -2.2321336181084833e-01 -1.3141597635596570e-02 0.0000000000000000e+00  -2.2339292046228293e-01 -9.6200583457329882e-03 0.0000000000000000e+00  -2.2360478463410721e-01 7.1966464994023495e-04 0.0000000000000000e+00  -2.2338810135967857e-01 9.8775415666084807e-03 0.0000000000000000e+00  -2.2268907280674027e-01 2.0168444861618492e-02 0.0000000000000000e+00  -2.2238999512783370e-01 2.3235071054407211e-02 0.0000000000000000e+00  -2.2284390854096506e-01 1.8492000987824910e-02 0.0000000000000000e+00  -2.2351826130820160e-01 9.7355876981389724e-03 0.0000000000000000e+00  -2.1662104472661833e-01 -2.0072952273411618e-02 0.0000000000000000e+00  -2.2318082118842225e-01 2.5222043462421713e-03 0.0000000000000000e+00  -2.2337069564102172e-01 -1.0390417667633942e-02 0.0000000000000000e+00  -2.2359079758897207e-01 -3.6501257863098564e-03 0.0000000000000000e+00  -2.2316376252564724e-01 1.4273362905690444e-02 0.0000000000000000e+00  -2.2265335901325675e-01 2.0677923723747382e-02 0.0000000000000000e+00  -2.2297088815836960e-01 7.3124115679212851e-03 0.0000000000000000e+00  -2.2353001685518972e-01 -5.3885918832212295e-03 0.0000000000000000e+00  -2.2313815793064321e-01 -1.4657208166508836e-02 0.0000000000000000e+00  -2.2355041603576373e-01 5.3269982335544608e-03 0.0000000000000000e+00  -2.2223402894709138e-01 2.4841317570232328e-02 0.0000000000000000e+00  -2.2303905140636457e-01 1.5662666997535726e-02 0.0000000000000000e+00  1.9988945391802820e-01 -1.0226877101289820e-01 0.0000000000000000e+00  -1.5575407610015718e-01 -1.1938618298046701e-01 0.0000000000000000e+00  -1.2494386477625574e-02 -2.0979525436773205e-01 0.0000000000000000e+00  1.2247347798440678e-01 -1.7263309966969359e-01 0.0000000000000000e+00  -2.1190555057803709e-01 -5.9717102966086073e-02 0.0000000000000000e+00  -1.3273207659895261e-01 -1.7289042376864333e-01 0.0000000000000000e+00  2.9284975552671004e-02 -2.1693135203882094e-01 0.0000000000000000e+00  1.5708677026482021e-01 -1.5936691691225249e-01 0.0000000000000000e+00  -2.1385582909504186e-01 -7.6480143897601022e-02 0.0000000000000000e+00  -2.3458645774660969e-01 -3.1110798157423576e-02 0.0000000000000000e+00  -7.8485095981695355e-02 -2.2632148037676750e-01 0.0000000000000000e+00  -1.4994701609583508e-01 -1.8104297245100168e-01 0.0000000000000000e+00  4.5218997194616931e-02 -2.2356072013889594e-01 0.0000000000000000e+00  5.9416095054595330e-02 -2.2352319497811993e-01 0.0000000000000000e+00  1.8903962070101210e-01 -1.2969658201216253e-01 0.0000000000000000e+00  1.8276527364857079e-01 -1.2713990600133249e-01 0.0000000000000000e+00  2.2364488572153046e-01 1.4129523867047463e-04 0.0000000000000000e+00  1.7477307681065088e-01 -1.3913975219778640e-01 0.0000000000000000e+00  1.6540196269444130e-01 -1.5038924478731835e-01 0.0000000000000000e+00  1.5884390437688706e-01 -1.5737009564021343e-01 0.0000000000000000e+00  1.5218836784946996e-01 -1.6382800840443323e-01 0.0000000000000000e+00  1.4889373216998603e-01 -1.6682580320138629e-01 0.0000000000000000e+00  1.4707034008072717e-01 -1.6843483925731689e-01 0.0000000000000000e+00  1.4682525517081782e-01 -1.6864820494977062e-01 0.0000000000000000e+00  1.4897404369441583e-01 -1.6675462484322939e-01 0.0000000000000000e+00  1.5483073540465184e-01 -1.6133724953030448e-01 0.0000000000000000e+00  1.6307612439870295e-01 -1.5301119079017586e-01 0.0000000000000000e+00  1.7326231522522564e-01 -1.4139220275382156e-01 0.0000000000000000e+00  1.8688395162133914e-01 -1.2282848815726564e-01 0.0000000000000000e+00  2.0048343307357433e-01 -9.9105990016198839e-02 0.0000000000000000e+00  2.1233703584607927e-01 -7.0338262242937044e-02 0.0000000000000000e+00  2.2028534062853000e-01 -3.8895266169670498e-02 0.0000000000000000e+00  1.8436141426123354e-01 -1.2586809168856006e-01 0.0000000000000000e+00  2.1983602659393595e-01 4.0966141400123120e-02 0.0000000000000000e+00  2.0921878448406622e-01 7.8902508769238960e-02 0.0000000000000000e+00  1.9356554835162096e-01 1.1193930236232995e-01 0.0000000000000000e+00  1.7761842961124730e-01 1.3587326377006381e-01 0.0000000000000000e+00  1.6865439841880137e-01 1.4686182965770719e-01 0.0000000000000000e+00  1.6005413702901616e-01 1.5615754385677039e-01 0.0000000000000000e+00  1.5299617567437870e-01 1.6306857810425654e-01 0.0000000000000000e+00  1.5004675753752902e-01 1.6578545413430959e-01 0.0000000000000000e+00  1.5034084426746297e-01 1.6552209057976033e-01 0.0000000000000000e+00  1.5171611429820697e-01 1.6426268651555440e-01 0.0000000000000000e+00  1.5449470617763081e-01 1.6165152633546512e-01 0.0000000000000000e+00  1.5874935285064359e-01 1.5746577638412007e-01 0.0000000000000000e+00  1.6546812803111291e-01 1.5032392170749806e-01 0.0000000000000000e+00  1.7503313264120510e-01 1.3880583408925257e-01 0.0000000000000000e+00  1.8555143186763173e-01 1.2382898785979417e-01 0.0000000000000000e+00  1.9966174128412945e-01 1.0289040038150235e-01 0.0000000000000000e+00  1.7884753483445584e-01 1.3469769074033464e-01 0.0000000000000000e+00  1.6102817933119049e-01 1.5518745493607014e-01 0.0000000000000000e+00  1.5286502622712336e-01 1.6319595842698606e-01 0.0000000000000000e+00  1.5058777314993604e-01 1.6529885019911258e-01 0.0000000000000000e+00  1.5661179490096491e-01 1.5961418865472138e-01 0.0000000000000000e+00  1.7435214626671139e-01 1.3997733914352803e-01 0.0000000000000000e+00  2.0267960696388140e-01 9.4800493701485314e-02 0.0000000000000000e+00  2.2268644255457734e-01 2.1828708764239566e-02 0.0000000000000000e+00  2.1711992289508286e-01 -5.3477946696981644e-02 0.0000000000000000e+00  1.9390406044976888e-01 -1.1145173403927645e-01 0.0000000000000000e+00  1.6828296040150412e-01 -1.4724736869916957e-01 0.0000000000000000e+00  1.5174519131758088e-01 -1.6424034829054646e-01 0.0000000000000000e+00  1.4687815987708108e-01 -1.6860266469598373e-01 0.0000000000000000e+00  1.5046978185556356e-01 -1.6540621635733380e-01 0.0000000000000000e+00  1.6125392504930089e-01 -1.5495748306237814e-01 0.0000000000000000e+00  1.7898539866952307e-01 -1.3440500713521031e-01 0.0000000000000000e+00  1.6759443673433780e-01 1.4823104392967970e-01 0.0000000000000000e+00  1.5643298180355844e-01 1.5978422922556942e-01 0.0000000000000000e+00  1.5087591016024174e-01 1.6503521164756871e-01 0.0000000000000000e+00  1.4989276629813719e-01 1.6593575425358556e-01 0.0000000000000000e+00  1.6439757478852066e-01 1.5157188610843933e-01 0.0000000000000000e+00  1.8221035443356187e-01 1.2973281803876621e-01 0.0000000000000000e+00  2.1544590021816196e-01 6.0329977017575420e-02 0.0000000000000000e+00  2.2244545178666486e-01 -2.3487682333210948e-02 0.0000000000000000e+00  2.0689441212503121e-01 -8.4923407987500629e-02 0.0000000000000000e+00  1.7918073125899447e-01 -1.3380128441746630e-01 0.0000000000000000e+00  1.5862825738965564e-01 -1.5760424792648836e-01 0.0000000000000000e+00  1.4715471616198422e-01 -1.6836299222522369e-01 0.0000000000000000e+00  1.4773387433032797e-01 -1.6785389868834336e-01 0.0000000000000000e+00  1.5493564225179818e-01 -1.6123875493612075e-01 0.0000000000000000e+00  1.6735265394242577e-01 -1.4850555147111319e-01 0.0000000000000000e+00  -2.1589732678077625e-01 2.4928670527440137e-02 0.0000000000000000e+00  1.2220063739698041e-01 1.7273410806320683e-01 0.0000000000000000e+00  -1.1145015796399180e-02 2.1000738696462748e-01 0.0000000000000000e+00  -1.5379710548541112e-01 1.2028076829032563e-01 0.0000000000000000e+00  1.5497186253310161e-01 1.6136710835677340e-01 0.0000000000000000e+00  2.8798294124683502e-02 2.1709551338585567e-01 0.0000000000000000e+00  -1.3315815318057017e-01 1.7235267949137270e-01 0.0000000000000000e+00  -2.1126243104421916e-01 6.2075851761316664e-02 0.0000000000000000e+00  1.7971230750352135e-01 1.3165149934018719e-01 0.0000000000000000e+00  1.8826343591345357e-01 1.3073239034814163e-01 0.0000000000000000e+00  5.8706192169688129e-02 2.2372788290964979e-01 0.0000000000000000e+00  4.5898698424500589e-02 2.2323941778846565e-01 0.0000000000000000e+00  -1.5129346648666936e-01 1.8010136206119912e-01 0.0000000000000000e+00  -7.4339254564965471e-02 2.2841275672155545e-01 0.0000000000000000e+00  -2.3466821972056254e-01 3.2480306566616178e-02 0.0000000000000000e+00  -2.1228600270281148e-01 8.0545868066551382e-02 0.0000000000000000e+00  -2.2497669195796458e-01 -2.6023371836774778e-02 0.0000000000000000e+00  -2.2506463727645706e-01 2.4799414713863363e-02 0.0000000000000000e+00  -2.2367457365904247e-01 -4.0374585170554816e-03 0.0000000000000000e+00  -2.2323157255996934e-01 -1.2978273717596248e-02 0.0000000000000000e+00  -2.2288414249458852e-01 -1.7878740948812429e-02 0.0000000000000000e+00  -2.2311109626533274e-01 -1.4778327320427484e-02 0.0000000000000000e+00  -2.2355585629245020e-01 -4.7332693187470435e-03 0.0000000000000000e+00  -2.2356899800968805e-01 4.0763851801922995e-03 0.0000000000000000e+00  -2.2316681405706507e-01 1.3924503922301183e-02 0.0000000000000000e+00  -2.2294883716674485e-01 1.7060246745369781e-02 0.0000000000000000e+00  -2.2328016075184315e-01 1.2119430690227837e-02 0.0000000000000000e+00  -2.2369278316028773e-01 3.1269460664230049e-03 0.0000000000000000e+00  -2.1588186100480172e-01 -2.5477938034601594e-02 0.0000000000000000e+00  -2.2315668258557789e-01 -1.7155280769644093e-03 0.0000000000000000e+00  -2.2309489235297664e-01 -1.5200296080593754e-02 0.0000000000000000e+00  -2.2344023792055850e-01 -8.9616497207247077e-03 0.0000000000000000e+00  -2.2346620024090325e-01 8.2657675074392055e-03 0.0000000000000000e+00  -2.2314672671248864e-01 1.4414919967233236e-02 0.0000000000000000e+00  -2.2314818615230478e-01 5.2240439210556532e-04 0.0000000000000000e+00  -2.2336720552120007e-01 -1.0059170642238109e-02 0.0000000000000000e+00  -2.2276373844353722e-01 -1.9534224285102778e-02 0.0000000000000000e+00  -2.2361322828379429e-01 -3.1459541679547994e-04 0.0000000000000000e+00  -2.2284455321861957e-01 1.8578117439403696e-02 0.0000000000000000e+00  -2.2340393291426031e-01 9.1880693093770883e-03 0.0000000000000000e+00  -1.5229528321655955e-01 -1.2279857028660024e-01 0.0000000000000000e+00  -6.8922939116699894e-03 -2.1036833874481806e-01 0.0000000000000000e+00  1.2686516499239991e-01 -1.6926574275850073e-01 0.0000000000000000e+00  -2.1054897994273608e-01 -6.4223453471040304e-02 0.0000000000000000e+00  -1.2956124004795425e-01 -1.7523018863301817e-01 0.0000000000000000e+00  3.4404480927740302e-02 -2.1615214747010550e-01 0.0000000000000000e+00  1.6117903654520258e-01 -1.5524553799640961e-01 0.0000000000000000e+00  -2.1191290920540967e-01 -8.1735232384096537e-02 0.0000000000000000e+00  -2.3412307337760752e-01 -3.5892014832132613e-02 0.0000000000000000e+00  -7.1955999645057112e-02 -2.2883588825661233e-01 0.0000000000000000e+00  -1.4621763810035304e-01 -1.8399168268189811e-01 0.0000000000000000e+00  5.0068308681805659e-02 -2.2239011812986970e-01 0.0000000000000000e+00  6.4802570231767373e-02 -2.2210089327050184e-01 0.0000000000000000e+00  1.9246796110768880e-01 -1.2461574045225324e-01 0.0000000000000000e+00  1.8624000167799815e-01 -1.2197168148272142e-01 0.0000000000000000e+00  1.3462707366110377e-01 1.7864084094467217e-01 0.0000000000000000e+00  1.4148089907908579e-01 1.7327256860587076e-01 0.0000000000000000e+00  2.1593478584585790e-01 -5.8300423947405970e-02 0.0000000000000000e+00  4.3820066089840251e-02 -2.1941640473913637e-01 0.0000000000000000e+00  3.3941937397236381e-02 -2.2115456236036340e-01 0.0000000000000000e+00  2.0712835841931618e-01 -8.4456641533480953e-02 0.0000000000000000e+00  -1.8626830361412561e-01 1.2391345153658352e-01 0.0000000000000000e+00  -1.9212111878682309e-01 1.1460905832666922e-01 0.0000000000000000e+00  -1.9062932545174582e-01 -1.1706294321669949e-01 0.0000000000000000e+00  -1.9554402963774692e-01 -1.0865277305660975e-01 0.0000000000000000e+00  -2.4263175381301235e-02 -2.2246612141082658e-01 0.0000000000000000e+00  -1.6230107833678314e-01 -1.5404477955512350e-01 0.0000000000000000e+00  -1.2318786178339730e-01 -1.8699663662028199e-01 0.0000000000000000e+00  -2.2141275723232404e-01 3.2760292288962448e-02 0.0000000000000000e+00  -2.1271518870911221e-01 7.0586438177608749e-02 0.0000000000000000e+00  -2.2347073688766061e-01 1.0564088024661886e-02 0.0000000000000000e+00  -8.2982206243330785e-03 -2.2413179611716388e-01 0.0000000000000000e+00  -1.0365219191558127e-01 2.0039142711024663e-01 0.0000000000000000e+00  2.1630961921078476e-01 -5.9592230808152936e-02 0.0000000000000000e+00  1.2603192452099091e-01 -1.8794069027119223e-01 0.0000000000000000e+00  -1.4929717052949277e-02 2.2399008791591565e-01 0.0000000000000000e+00  -1.1487834287421338e-01 -1.9266386700760182e-01 0.0000000000000000e+00  -2.1904479025180662e-01 4.6520399282980497e-02 0.0000000000000000e+00  -1.4048843541988230e-02 -2.2334419035242889e-01 0.0000000000000000e+00  -1.5541427545240022e-01 -1.6098172756588319e-01 0.0000000000000000e+00  -2.2369503803353161e-01 -2.9327494647177436e-03 0.0000000000000000e+00  -1.4945344303958824e-01 1.6654768983444718e-01 0.0000000000000000e+00  1.3181530747157248e-02 2.2339691817313989e-01 0.0000000000000000e+00  2.1166185452516878e-01 7.2384470920685298e-02 0.0000000000000000e+00  -1.3256340737195834e-02 2.2338387497822004e-01 0.0000000000000000e+00  5.4770294685684083e-02 2.1691254844332461e-01 0.0000000000000000e+00  1.1785642531018353e-01 -1.9016110793938554e-01 0.0000000000000000e+00  -7.0873922228220615e-02 2.1232789686113024e-01 0.0000000000000000e+00  2.0851450355516388e-01 8.0944281779350397e-02 0.0000000000000000e+00  1.2259141218778630e-01 -1.8720567031342655e-01 0.0000000000000000e+00  -1.3123803253671537e-01 1.8125638708976688e-01 0.0000000000000000e+00  -1.2427329005978668e-01 -1.8622797713547060e-01 0.0000000000000000e+00  -2.2339319729530804e-01 1.3941454243868466e-02 0.0000000000000000e+00  7.4056438304499123e-02 2.1111146681645698e-01 0.0000000000000000e+00  -7.9623776882468661e-02 2.0907682969350019e-01 0.0000000000000000e+00  5.7317308905183502e-02 2.1645546314762967e-01 0.0