<?xml version="1.0"?>
<VTKFile type="UnstructuredGrid"  version="0.1"  >
<UnstructuredGrid>
<Piece  NumberOfPoints="4153" NumberOfCells="8064">
<Points>
<DataArray  type="Float64"  NumberOfComponents="3"  format="ascii">-0.3913179581753189 -0.6395051161811333 0  -0.007525290963527997 -0.8091330959848908 0  -0.06193612356545004 -0.8043464893018712 0  -0.1152686887898575 -0.7936130543993061 0  -0.1669589897491683 -0.7775712039326771 0  -0.2168909902407385 -0.7576510226865656 0  -0.2644516447903786 -0.7324396525649383 0  -0.309299339285703 -0.7037098184723072 0  -0.3514727365810341 -0.6724577269473269 0  0.0471877501088051 -0.8076209452388139 0  -0.4286966351883205 -0.6064121056961954 0  -0.4642191087538235 -0.5732621738909592 0  -0.49795502243081 -0.5403639263413275 0  -0.5301686334848964 -0.5082195251696334 0  -0.5612126665616844 -0.4774304265533295 0  -0.5913935036972858 -0.4483847144555383 0  -0.6208451783797505 -0.4218773475765915 0  0.6584096339202981 -0.4073447563193426 0  0.1013677342394595 -0.7998721712920297 0  0.1542103140211185 -0.7862006090182588 0  0.205025761647234 -0.7672265117177297 0  0.2532772098586201 -0.743668219816901 0  0.2987826718210541 -0.7168238419010052 0  0.3415240211087401 -0.6874997935816873 0  0.3816460796395257 -0.6565422906118155 0  0.4193332133676971 -0.6246084971286295 0  0.4550404944899833 -0.5925332020598133 0  0.4890688552561849 -0.5607182183181193 0  0.5217447172495412 -0.5295471681753123 0  0.5533154361286958 -0.4993516657832585 0  0.5840995103931472 -0.4703962617279143 0  0.6142600810211393 -0.4431060218765658 0  0.6440441612383219 -0.4182918578648785 0  0.6289463263704913 -0.4305834783373676 0  -0.6059273189049263 -0.4349213945563015 0  -0.5457921477630457 -0.4927439562812482 0  -0.481287935820997 -0.5567602510749882 0  -0.4102223298762555 -0.6229512766247357 0  -0.3307412703895251 -0.6882512340494816 0  -0.2409891472793134 -0.7455567376014082 0  -0.1413428360039813 -0.7863190504034818 0  -0.03482097297101804 -0.8075179223030762 0  0.5991793284327106 -0.4567196445714687 0  0.1799063626571943 -0.777315358554507 0  0.2763818901618423 -0.7306197925916482 0  0.3618863225951466 -0.6721737041609419 0  0.4374208289852465 -0.6085766580631901 0  0.5055502498299665 -0.5450516360848973 0  0.568806494889356 -0.4848167903285107 0  0.0743961058523558 -0.804512883625625 0  -0.634990445391259 -0.410114718209821 0  0.5376497840068037 -0.5143255997710791 0  0.472240901622007 -0.5765784923454319 0  0.4007785750163147 -0.6406305175568368 0  0.3204923522977004 -0.7024269197968648 0  0.2295079222501686 -0.7559574493620733 0  0.1280028948100308 -0.7937429053254469 0  0.0198465444870932 -0.8091706032863506 0  -0.08878001951137281 -0.7997155102021229 0  -0.1920219273625989 -0.7680365301883336 0  -0.2871429833737711 -0.7182781829260597 0  -0.3720079214393889 -0.6566088096952152 0  -0.4466975257467201 -0.5898514850101743 0  -0.5142597853885039 -0.5242114173536006 0  -0.5763097211412676 -0.4628364975541169 0  0.7768186341870059 -0.2195870203758774 0  0.7048903348311008 -0.3747931860835634 0  0.745321405839623 -0.3319184324818602 0  0.770650079203587 -0.2793251745050144 0  0.682184955844361 -0.3916100093764344 0  0.7262490019804203 -0.3546935980062455 0  0.7560348213587096 -0.3040955044729572 0  0.7725270771525532 -0.2490505897964755 0  0.6702107051038213 -0.3998420788462913 0  0.6935088202545825 -0.3824126027394275 0  0.7157129632938602 -0.3649206335464513 0  0.7354839611452342 -0.3424784997807535 0  0.7533252333799976 -0.3193506594836892 0  0.7624005981879062 -0.2915092208274354 0  0.7704401799249976 -0.2639118890724192 0  0.7740015472024616 -0.2341641898344103 0  0.7761828251192913 -0.2003294102804793 0  0.7778222956273685 0.2310441302594452 0  0.7785089130179048 0.1928935994397677 0  0.7805682142166288 0.1543306156339671 0  0.7830284989500559 0.1152582452208384 0  0.7856319429208427 0.07561118160061005 0  0.7867661596775247 0.03549701096350598 0  0.78655270936405 -0.00473479262788103 0  0.7849893459435027 -0.04484322240679719 0  0.7820379082132993 -0.08446969931243666 0  0.7792810483814732 -0.1235496854071314 0  0.7769771924881327 -0.1621298280766094 0  0.77884323940031 0.2502081688887422 0  0.7779443315996024 0.2120090168044428 0  0.7817917258046566 0.1348615395450597 0  0.7863659374551515 0.05558522188109438 0  0.7859433692255317 -0.0248204035864613 0  0.7806551434218003 -0.1040789208805131 0  0.7763502069266274 -0.1812699223856773 0  0.7794629176464346 0.173673104793657 0  0.7844103293958118 0.09553188619821457 0  0.7868226008912798 0.01538092488141706 0  0.7835661322393073 -0.06475110451448905 0  0.778048694187917 -0.1429010369083511 0  0.6648449423546878 0.439201693061429 0  0.7735929451355301 0.3099551811573162 0  0.7492640322736623 0.3630593721718668 0  0.7101008323670368 0.4064214692720795 0  0.775180967768988 0.2796933724546904 0  0.7599254224192921 0.3352929757688428 0  0.7307974802210452 0.3859202840262498 0  0.6878289656331389 0.4231661890621924 0  0.7764716859817694 0.2648413281714664 0  0.7734954181180274 0.2945911773606446 0  0.7659538070212444 0.3224118572391061 0  0.75664074239581 0.3501818600749571 0  0.7397021897488175 0.373664808366269 0  0.7205689264432682 0.396297652591968 0  0.6989179391766934 0.4140763554329353 0  0.676181195685028 0.4313956413722287 0  -0.007270861080349363 0.8697460279302961 0  0.6224969155995959 0.4765605378151161 0  0.5935848957826719 0.5051923497462287 0  0.5640882132929187 0.535784799379934 0  0.5337101169273756 0.5680296824816365 0  0.5020316135348013 0.6014217900941307 0  0.4687329041508576 0.6355957040193043 0  0.4334699988085492 0.670166815057871 0  0.3958454940528098 0.7047355033548018 0  0.3553693590928556 0.7382738041576 0  0.3118327188474944 0.7700750945701521 0  0.2650857334224645 0.7991918973565355 0  0.2151640357758033 0.8247921502466824 0  0.1622878266167377 0.8453568691267168 0  0.1070550326130887 0.8600639532245662 0  0.05025418560044484 0.8681970827398043 0  0.6510158375661547 0.4506272492165051 0  -0.0644296526904017 0.8636461006403617 0  -0.120195083542239 0.8508273887028679 0  -0.1737678615598773 0.8319802151362118 0  -0.2244280525944007 0.8073099073809351 0  -0.2723489485108985 0.7801151367156709 0  -0.3172484120195293 0.7498557217954331 0  -0.3592722300761041 0.7175167810133113 0  -0.3985914977101036 0.6837195562872035 0  -0.4355183247336804 0.6497318438417089 0  -0.4704806512266552 0.615881895068577 0  -0.5037364181304576 0.5825539669786477 0  -0.5355599106631141 0.5501292341135864 0  -0.5662205484435192 0.5189579348630309 0  -0.5959730885487705 0.4895814642296553 0  -0.6250803754757966 0.4628453930804637 0  -0.639056827732208 0.4510658307915341 0  -0.6103499115009501 0.4760454785763404 0  -0.5510294070866182 0.5344678139388056 0  -0.4873072848672271 0.5991429160864296 0  -0.4173056050257665 0.6667225330947244 0  -0.338601758164011 0.733851105747082 0  -0.2487605212319595 0.7941674636572479 0  -0.1472814316847345 0.8419478328788601 0  -0.03595313707393354 0.867540282312833 0  0.07880625878638697 0.8650197963758368 0  0.1890649254590028 0.8357272805852348 0  0.2888657464122978 0.7850368703372902 0  0.3759648126903744 0.7216507195259458 0  0.4513705101589083 0.6528612982294033 0  0.5180517676217552 0.5846152113093064 0  0.5789098696594543 0.520369195954923 0  0.6365502712943035 0.4633661249507083 0  -0.581127682818519 0.5042010079474578 0  -0.5198164190718991 0.5662441037800834 0  -0.4532338605445109 0.6327728235055211 0  -0.3793240081744983 0.7008047545071537 0  -0.2951568153569387 0.7652703979216307 0  -0.1997335888602965 0.820654617434454 0  -0.09252904257774533 0.8579867350863011 0  0.02156334022633545 0.8698436053783033 0  0.1349228292269322 0.8534909672981289 0  0.2405474719460167 0.8125839889635748 0  0.3339951281883838 0.7544490284862201 0  0.4150117942511236 0.687526872255232 0  0.4856051017513023 0.6184391606270387 0  0.549054742701734 0.551773482320385 0  0.6080216432178022 0.4907704483083857 0  -0.7551654026914227 0.2585455204936035 0  -0.6845619801550861 0.4167658660982051 0  -0.7240746622034565 0.3725772248342376 0  -0.748911828802317 0.3189101344186526 0  -0.6622564180194628 0.4341780885989041 0  -0.7054230569603713 0.3957781248021691 0  -0.7348550215653684 0.3444413903303327 0  -0.7509089688502437 0.288363117064324 0  -0.6505270958791981 0.4428882968657389 0  -0.6733738263649927 0.424720017190563 0  -0.6951322139333235 0.4064030572510607 0  -0.7144261373734956 0.3833417044999128 0  -0.7315829600579334 0.3595212916256328 0  -0.7410455427054667 0.3314626316602747 0  -0.7489455534691759 0.3034048292997422 0  -0.7524640477751717 0.2733411826349618 0  -0.7545578891264308 0.2391025198924118 0  -0.7530910359841756 -0.2003314368022255 0  -0.7545836465801342 -0.1616595167966573 0  -0.7574104735742802 -0.1224711371934907 0  -0.7605295555606816 -0.08268051663948545 0  -0.763630328132743 -0.04227371196573746 0  -0.7652390238247372 -0.001360863002060247 0  -0.7654133127486249 0.03969702049145615 0  -0.7641567517477811 0.08064280287820005 0  -0.7613891411324736 0.121125053114838 0  -0.7585397661459267 0.1610116494889939 0  -0.7559216627895834 0.2003150320815553 0  -0.7535808532680279 -0.2197458185841254 0  -0.7536254354645386 -0.1810552759025617 0  -0.7589845358760479 -0.1026546836200634 0  -0.7646147796424116 -0.02185243006439175 0  -0.764962961258656 0.06020100854623132 0  -0.759981984075339 0.1411427319830692 0  -0.7550332415825809 0.2197653980563561 0  -0.7559302606309241 -0.1421406407746226 0  -0.7621610183865866 -0.06257572188629622 0  -0.7655007977276106 0.01916610796683269 0  -0.7628679537718069 0.1009777267880473 0  -0.7571733917939233 0.1807360954543853 0  -0.7467021977486531 -0.2798684961155759 0  -0.7210861556205822 -0.3329761164182238 0  -0.6809427527314823 -0.3765125447274696 0  -0.7490555922311147 -0.2494624934877676 0  -0.7322853049310404 -0.3051553326985514 0  -0.7021564478093957 -0.3559818921227637 0  -0.6583634353333623 -0.3936368590846474 0  -0.7507241744731266 -0.2344805313440868 0  -0.7469037285953704 -0.2
[...]
<PointData  Vectors="f_44"> 
<DataArray  type="Float64"  Name="f_44"  NumberOfComponents="3" format="ascii">2.4710339492580519e-02 -2.2251328937321921e-01 0.0000000000000000e+00  2.2333951834983090e-01 -1.3510645416712290e-02 0.0000000000000000e+00  2.1463733457118825e-01 -6.3319887342968631e-02 0.0000000000000000e+00  1.9663243494903790e-01 -1.0693816622066210e-01 0.0000000000000000e+00  1.7095608555243136e-01 -1.4423413132838364e-01 0.0000000000000000e+00  1.4591522758765155e-01 -1.6913471506507463e-01 0.0000000000000000e+00  1.0701965102478349e-01 -1.9613864358995786e-01 0.0000000000000000e+00  8.0631045613060198e-02 -2.0851405246734889e-01 0.0000000000000000e+00  6.1166949904228711e-02 -2.1540952593247795e-01 0.0000000000000000e+00  2.2048398219251639e-01 3.7992212384826543e-02 0.0000000000000000e+00  2.1314401615213169e-02 -2.2263212457029211e-01 0.0000000000000000e+00  9.6757025525147766e-03 -2.2341231079242663e-01 0.0000000000000000e+00  3.0391173515643076e-03 -2.2359463313443706e-01 0.0000000000000000e+00  3.1482299878051286e-04 -2.2359679601177140e-01 0.0000000000000000e+00  4.1689118143186377e-03 -2.2354944679149261e-01 0.0000000000000000e+00  1.1713241558190259e-02 -2.2336036706456405e-01 0.0000000000000000e+00  3.3086417093394785e-02 -2.2153713704454225e-01 0.0000000000000000e+00  7.6913604684777578e-02 2.0912051157872316e-01 0.0000000000000000e+00  2.0631063642573466e-01 8.6517235071022866e-02 0.0000000000000000e+00  1.8281894759028866e-01 1.2890107564262859e-01 0.0000000000000000e+00  1.5371030081127354e-01 1.6251472364360717e-01 0.0000000000000000e+00  1.2228128393044700e-01 1.8731396147642060e-01 0.0000000000000000e+00  9.3632931767511848e-02 2.0312738086044735e-01 0.0000000000000000e+00  6.7529699817790598e-02 2.1319540780518884e-01 0.0000000000000000e+00  4.5996126738468507e-02 2.1883582831483031e-01 0.0000000000000000e+00  2.9611267796934244e-02 2.2164913577088668e-01 0.0000000000000000e+00  1.8614196769501660e-02 2.2283996127981967e-01 0.0000000000000000e+00  1.2129545279143186e-02 2.2328096771662242e-01 0.0000000000000000e+00  9.7374027685267102e-03 2.2339270265258718e-01 0.0000000000000000e+00  1.2619594063549880e-02 2.2323234594407956e-01 0.0000000000000000e+00  1.7285548184432162e-02 2.2288000068030311e-01 0.0000000000000000e+00  2.7583919145716042e-02 2.2188839815376440e-01 0.0000000000000000e+00  4.8850563505843055e-02 2.1871804594397368e-01 0.0000000000000000e+00  4.1413612689847369e-02 2.1966401532861685e-01 0.0000000000000000e+00  2.3982971548790141e-02 -2.2219659416877241e-01 0.0000000000000000e+00  1.6504618164033460e-03 -2.2361189008922225e-01 0.0000000000000000e+00  5.2398859936596811e-03 -2.2354013723600222e-01 0.0000000000000000e+00  2.9130688772597151e-02 -2.2163218370044258e-01 0.0000000000000000e+00  6.2100299960041988e-02 -2.1481021750265700e-01 0.0000000000000000e+00  1.2482543471774707e-01 -1.8600810579735283e-01 0.0000000000000000e+00  1.8414059420950254e-01 -1.2680337372662406e-01 0.0000000000000000e+00  2.2022009187994410e-01 -3.9265981986978594e-02 0.0000000000000000e+00  2.2216940746345067e-02 2.2254663701131730e-01 0.0000000000000000e+00  1.6887496870301455e-01 1.4673067539709864e-01 0.0000000000000000e+00  1.0810516103632528e-01 1.9576191971852094e-01 0.0000000000000000e+00  5.6640140736893177e-02 2.1634721069300175e-01 0.0000000000000000e+00  2.3762514850352964e-02 2.2233964022559644e-01 0.0000000000000000e+00  1.0330760512860649e-02 2.2336739977614881e-01 0.0000000000000000e+00  1.3044887471436511e-02 2.2325263445504723e-01 0.0000000000000000e+00  2.1474765904850959e-01 6.2742722911279469e-02 0.0000000000000000e+00  5.5476796447544843e-02 -2.1601098931541912e-01 0.0000000000000000e+00  9.3447489947137870e-03 2.2342117774929923e-01 0.0000000000000000e+00  1.4826353268266559e-02 2.2311297441781000e-01 0.0000000000000000e+00  3.6117367719522918e-02 2.2068741686746593e-01 0.0000000000000000e+00  8.0326804562640380e-02 2.0871100472443352e-01 0.0000000000000000e+00  1.3704008646637059e-01 1.7676393525851647e-01 0.0000000000000000e+00  1.9560736771236953e-01 1.0858739663550375e-01 0.0000000000000000e+00  2.2337956654534133e-01 1.2371244679443545e-02 0.0000000000000000e+00  2.0599719126708502e-01 -8.6997083774468992e-02 0.0000000000000000e+00  1.6397607924703028e-01 -1.5239895883189614e-01 0.0000000000000000e+00  9.3240165426537847e-02 -2.0345814821249958e-01 0.0000000000000000e+00  4.1311622657463777e-02 -2.1922226893538024e-01 0.0000000000000000e+00  1.5378625910870695e-02 -2.2306634244120715e-01 0.0000000000000000e+00  -1.2300418769410374e-04 -2.2360264648527275e-01 0.0000000000000000e+00  8.8863011572136580e-03 -2.2343298040639092e-01 0.0000000000000000e+00  -2.1433138783414754e-01 3.1703614362062670e-02 0.0000000000000000e+00  5.6871569798466408e-02 2.1261017218998851e-01 0.0000000000000000e+00  -2.9402957240026822e-02 2.3411814673840128e-01 0.0000000000000000e+00  -1.5367581237497516e-01 8.6461085671344584e-02 0.0000000000000000e+00  5.2159581279737181e-02 2.1726618937117267e-01 0.0000000000000000e+00  -3.4547424189256097e-02 2.1832079129649720e-01 0.0000000000000000e+00  -1.9685464455959997e-01 9.7928769927880674e-02 0.0000000000000000e+00  -2.1295639830936566e-01 5.9996415161200585e-02 0.0000000000000000e+00  9.8853169865665932e-02 2.0189758104641287e-01 0.0000000000000000e+00  7.0139749640813695e-02 2.1197500466064259e-01 0.0000000000000000e+00  1.4789758722605151e-02 2.2689684704113450e-01 0.0000000000000000e+00  -4.2561809778471398e-02 2.1546964294921822e-01 0.0000000000000000e+00  -1.7267763919734810e-01 1.2553590556006985e-01 0.0000000000000000e+00  -7.3469375502706755e-02 2.4519848223736096e-01 0.0000000000000000e+00  -2.3748847942531556e-01 4.2392868907554296e-03 0.0000000000000000e+00  -2.1328866549304101e-01 7.2321297446571051e-02 0.0000000000000000e+00  -2.2572266592892318e-01 -1.9648300639138111e-02 0.0000000000000000e+00  -2.2455281879658312e-01 2.3885436660766608e-02 0.0000000000000000e+00  -2.2291454586899132e-01 -1.6879904159625158e-02 0.0000000000000000e+00  -2.2196235811517684e-01 -2.6940310672040710e-02 0.0000000000000000e+00  -2.2160174920829029e-01 -2.9755937858945803e-02 0.0000000000000000e+00  -2.2250268847214624e-01 -2.1987458054932244e-02 0.0000000000000000e+00  -2.2354170097074103e-01 -5.1773487871534596e-03 0.0000000000000000e+00  -2.2338661774612525e-01 9.8321636888944637e-03 0.0000000000000000e+00  -2.2196481822294684e-01 2.6869678738193264e-02 0.0000000000000000e+00  -2.2116544676704231e-01 3.2850943481193981e-02 0.0000000000000000e+00  -2.2155929899231622e-01 3.0100576512941506e-02 0.0000000000000000e+00  -2.2280636265618187e-01 1.9220088204131569e-02 0.0000000000000000e+00  -2.1635268451038883e-01 -1.8731291170865021e-02 0.0000000000000000e+00  -2.2323753634355628e-01 -1.3793829506759378e-02 0.0000000000000000e+00  -2.2187024447948508e-01 -2.7896499985869273e-02 0.0000000000000000e+00  -2.2331611210113717e-01 -1.2163782720829235e-02 0.0000000000000000e+00  -2.2300431757345743e-01 1.6933729213446776e-02 0.0000000000000000e+00  -2.2140757775874037e-01 3.1347729497259516e-02 0.0000000000000000e+00  -2.2289347393253411e-01 1.4023934124405300e-02 0.0000000000000000e+00  -2.2227490798484364e-01 -2.4756090498552857e-02 0.0000000000000000e+00  -2.2149036650860882e-01 -3.0932087580064039e-02 0.0000000000000000e+00  -2.2361510802311307e-01 2.3946463506384014e-03 0.0000000000000000e+00  -2.2091995501478984e-01 3.4763802546106740e-02 0.0000000000000000e+00  -2.2192571750990614e-01 2.7575732761440323e-02 0.0000000000000000e+00  5.9305756494085246e-02 -2.1483077692354430e-01 0.0000000000000000e+00  -1.6226413592887681e-01 -8.7463562655006571e-02 0.0000000000000000e+00  -4.6492772135199159e-02 -2.2458265430130533e-01 0.0000000000000000e+00  4.7185167389398659e-02 -2.1401329276775929e-01 0.0000000000000000e+00  -2.1528638288629065e-01 -5.0250163071169883e-02 0.0000000000000000e+00  -1.9236754083784602e-01 -1.0783940742103661e-01 0.0000000000000000e+00  -4.3618701589790546e-02 -2.1615371271537095e-01 0.0000000000000000e+00  4.9581494708891283e-02 -2.1759452251275679e-01 0.0000000000000000e+00  -2.1641980021707918e-01 -6.4562604663704073e-02 0.0000000000000000e+00  -2.3698369089854973e-01 -3.1312836974996418e-04 0.0000000000000000e+00  -9.4497260250739595e-02 -2.2976930603359808e-01 0.0000000000000000e+00  -1.7767536849027779e-01 -1.3151434960977687e-01 0.0000000000000000e+00  -4.7636583380003893e-02 -2.1597184451209708e-01 0.0000000000000000e+00  2.2965287829193608e-03 -2.2775709194882346e-01 0.0000000000000000e+00  6.8602705095804573e-02 -2.1308558790266532e-01 0.0000000000000000e+00  8.8599491330529551e-02 -2.0664966425058806e-01 0.0000000000000000e+00  2.2288508871051677e-01 1.8161634711790265e-02 0.0000000000000000e+00  7.5665270950175832e-03 -2.2354313667811118e-01 0.0000000000000000e+00  -4.0212594303241089e-03 -2.2354277385793125e-01 0.0000000000000000e+00  -1.1356676089390789e-02 -2.2329765733789603e-01 0.0000000000000000e+00  -1.2797824567035300e-02 -2.2323950332730969e-01 0.0000000000000000e+00  -9.4239694788270378e-03 -2.2341230978275659e-01 0.0000000000000000e+00  -1.4588729311034137e-03 -2.2361250130825674e-01 0.0000000000000000e+00  1.0290782045297708e-02 -2.2339000547725221e-01 0.0000000000000000e+00  2.9980607725571842e-02 -2.2160832206557157e-01 0.0000000000000000e+00  5.3674410501493595e-02 -2.1709686737442768e-01 0.0000000000000000e+00  8.2466017686805893e-02 -2.0792258923902596e-01 0.0000000000000000e+00  1.1353787703729584e-01 -1.9278441919152586e-01 0.0000000000000000e+00  1.4866373389421175e-01 -1.6719917250617378e-01 0.0000000000000000e+00  1.8006226738647627e-01 -1.3276681567189219e-01 0.0000000000000000e+00  2.0550366672722511e-01 -8.8591653699914008e-02 0.0000000000000000e+00  2.2066373508023901e-01 -3.7094439867924746e-02 0.0000000000000000e+00  3.2539999018444406e-02 -2.2173462414136211e-01 0.0000000000000000e+00  2.1111308727586639e-01 7.3596240045527728e-02 0.0000000000000000e+00  1.8807274228181706e-01 1.2092837653145361e-01 0.0000000000000000e+00  1.6304154063074780e-01 1.5380313473459273e-01 0.0000000000000000e+00  1.2071982829145710e-01 1.8862135139801575e-01 0.0000000000000000e+00  9.7446336418421931e-02 2.0145087749325993e-01 0.0000000000000000e+00  6.9768015888806489e-02 2.1246783151092782e-01 0.0000000000000000e+00  4.6602196134896912e-02 2.1874909504198373e-01 0.0000000000000000e+00  2.3246094855971403e-02 2.2244144213565772e-01 0.0000000000000000e+00  1.2508800778944619e-02 2.2327130206313514e-01 0.0000000000000000e+00  2.8270102344968044e-03 2.2359668651330786e-01 0.0000000000000000e+00  -2.6406574050735800e-03 2.2359567379008588e-01 0.0000000000000000e+00  -3.7751809557610154e-03 2.2356796061016779e-01 0.0000000000000000e+00  -1.5187763866932370e-03 2.2356838925210529e-01 0.0000000000000000e+00  6.9334414816480654e-03 2.2352108773410803e-01 0.0000000000000000e+00  2.8146473746177229e-02 2.2225946890233120e-01 0.0000000000000000e+00  5.4448164334673498e-02 2.1620940985907261e-01 0.0000000000000000e+00  1.9649998051255581e-02 2.2265669408453018e-01 0.0000000000000000e+00  -4.2123847724886455e-03 2.2357737590645077e-01 0.0000000000000000e+00  -7.8481429671674557e-04 2.2360200507694447e-01 0.0000000000000000e+00  1.8793902105689576e-02 2.2280345383564223e-01 0.0000000000000000e+00  5.6751545699160258e-02 2.1632143396808445e-01 0.0000000000000000e+00  1.1728527231653105e-01 1.9019049417878736e-01 0.0000000000000000e+00  1.7348439047691600e-01 1.4115744769426034e-01 0.0000000000000000e+00  2.1878196516338361e-01 4.7725950709088222e-02 0.0000000000000000e+00  2.1475252259496497e-01 -6.2526302415160231e-02 0.0000000000000000e+00  1.6474148626626484e-01 -1.5134996616009438e-01 0.0000000000000000e+00  9.8746605349150279e-02 -2.0063279209459864e-01 0.0000000000000000e+00  4.1356815643904893e-02 -2.1978828153738941e-01 0.0000000000000000e+00  4.4115189206918558e-03 -2.2356086247294440e-01 0.0000000000000000e+00  -1.2105349859147404e-02 -2.2327811215625518e-01 0.0000000000000000e+00  -8.3724683620075690e-03 -2.2347613885179124e-01 0.0000000000000000e+00  2.1739346559279508e-02 -2.2241200629600008e-01 0.0000000000000000e+00  2.9197640417169780e-03 2.2360951795865486e-01 0.0000000000000000e+00  -4.6753596763115246e-03 2.2355700338102555e-01 0.0000000000000000e+00  6.9874845320813932e-03 2.2349684397409156e-01 0.0000000000000000e+00  3.2850368289515014e-02 2.2115865771748747e-01 0.0000000000000000e+00  8.3986964800929514e-02 2.0726085492148438e-01 0.0000000000000000e+00  1.3510173081219490e-01 1.7755376959910815e-01 0.0000000000000000e+00  2.0149057509027893e-01 9.7630871161290808e-02 0.0000000000000000e+00  2.2341903147667144e-01 -1.3306348742835598e-02 0.0000000000000000e+00  1.9411826684397598e-01 -1.1119905613701178e-01 0.0000000000000000e+00  1.2989310765280354e-01 -1.8204507132976400e-01 0.0000000000000000e+00  6.7883255428096104e-02 -2.1309598223858756e-01 0.0000000000000000e+00  1.8228144475019654e-02 -2.2287521734780175e-01 0.0000000000000000e+00  -5.9959696671486162e-03 -2.2352618591714987e-01 0.0000000000000000e+00  -1.3937373989513824e-02 -2.2317982518539833e-01 0.0000000000000000e+00  2.3886906562188472e-03 -2.2361001488180696e-01 0.0000000000000000e+00  -2.1544674717971463e-01 2.8316067900177107e-02 0.0000000000000000e+00  4.2202379329000492e-02 2.1564733503423889e-01 0.0000000000000000e+00  -4.6789328390085906e-02 2.2508964173963983e-01 0.0000000000000000e+00  -1.6050168298852027e-01 8.9898040946488081e-02 0.0000000000000000e+00  4.0401849554009280e-02 2.1972940553855552e-01 0.0000000000000000e+00  -4.5985519344283521e-02 2.1610752940437156e-01 0.0000000000000000e+00  -1.9210780943929159e-01 1.0787707987453556e-01 0.0000000000000000e+00  -2.1366036915169748e-01 5.7887687697931484e-02 0.0000000000000000e+00  7.9399231287527058e-02 2.1012127397149560e-01 0.0000000000000000e+00  6.0465428309322757e-02 2.1527860095516443e-01 0.0000000000000000e+00  -1.0921310740967262e-03 2.2735305828123825e-01 0.0000000000000000e+00  -4.8490302180134524e-02 2.1557010991268535e-01 0.0000000000000000e+00  -1.7763254756951583e-01 1.3065516297456159e-01 0.0000000000000000e+00  -9.0150370484572820e-02 2.3218240014671582e-01 0.0000000000000000e+00  -2.3645609012382077e-01 6.2799344210621375e-03 0.0000000000000000e+00  -2.1377289175990247e-01 7.1999203322565652e-02 0.0000000000000000e+00  -2.2537668645268658e-01 -1.4683931850536951e-02 0.0000000000000000e+00  -2.2569571746946168e-01 1.2948395723581162e-02 0.0000000000000000e+00  -2.2211179626217523e-01 -2.5649741434717137e-02 0.0000000000000000e+00  -2.2090138138827481e-01 -3.4611758032886845e-02 0.0000000000000000e+00  -2.2080322474106273e-01 -3.5232072268719494e-02 0.0000000000000000e+00  -2.2194327797808636e-01 -2.7087528408968994e-02 0.0000000000000000e+00  -2.2339285262824482e-01 -9.7246995383770615e-03 0.0000000000000000e+00  -2.2352582230353074e-01 5.9377254631567981e-03 0.0000000000000000e+00  -2.2239901290480327e-01 2.3076752009511307e-02 0.0000000000000000e+00  -2.2128839355610866e-01 3.2053144165902256e-02 0.0000000000000000e+00  -2.2132981066133264e-01 3.1760306613741282e-02 0.0000000000000000e+00  -2.2231524947084583e-01 2.3687144983219232e-02 0.0000000000000000e+00  -2.1461693575941024e-01 -3.2209362903158081e-02 0.0000000000000000e+00  -2.2238527607564892e-01 -2.2637716634476689e-02 0.0000000000000000e+00  -2.2088669517560239e-01 -3.4801040729600018e-02 0.0000000000000000e+00  -2.2298766517021881e-01 -1.7134735591962467e-02 0.0000000000000000e+00  -2.2324644806573118e-01 1.3315648207396148e-02 0.0000000000000000e+00  -2.2134885072691199e-01 3.1724267007970021e-02 0.0000000000000000e+00  -2.2258721752190300e-01 2.1269435234608683e-02 0.0000000000000000e+00  -2.2117923736316691e-01 -3.3063263405512806e-02 0.0000000000000000e+00  -2.2078242514369006e-01 -3.5604036176520110e-02 0.0000000000000000e+00  -2.2361989960068490e-01 -1.9006308353412152e-03 0.0000000000000000e+00  -2.2134985277274752e-01 3.1872859126900042e-02 0.0000000000000000e+00  -2.2153174093577532e-01 3.0617414975416670e-02 0.0000000000000000e+00  -1.5732216042470182e-01 -9.3749610926676732e-02 0.0000000000000000e+00  -3.7918157697143101e-02 -2.2858137040534252e-01 0.0000000000000000e+00  4.8798197004812069e-02 -2.1447320692352137e-01 0.0000000000000000e+00  -2.1229161397603885e-01 -6.2181795026851366e-02 0.0000000000000000e+00  -1.9131650552154000e-01 -1.1047733486234891e-01 0.0000000000000000e+00  -3.8135596695456644e-02 -2.1751221866666245e-01 0.0000000000000000e+00  5.0563263138231750e-02 -2.1718216056384806e-01 0.0000000000000000e+00  -2.1244200319396506e-01 -7.5899328426360879e-02 0.0000000000000000e+00  -2.3637071721259767e-01 -1.2110814544397526e-02 0.0000000000000000e+00  -8.2643627309920462e-02 -2.3565005401612207e-01 0.0000000000000000e+00  -1.7105096338214304e-01 -1.3548502890464598e-01 0.0000000000000000e+00  -4.5261903466587317e-02 -2.1607143574722723e-01 0.0000000000000000e+00  8.3027434998615545e-03 -2.2713064245312317e-01 0.0000000000000000e+00  6.5295637823896399e-02 -2.1394924244058167e-01 0.0000000000000000e+00  8.6205351799826024e-02 -2.0760809556149121e-01 0.0000000000000000e+00  1.2837896321950906e-01 1.8314032978891734e-01 0.0000000000000000e+00  1.1720189085635656e-01 1.9047684740776344e-01 0.0000000000000000e+00  2.1710676639297138e-01 -5.3779024053200203e-02 0.0000000000000000e+00  1.4020027167964839e-02 -2.2323306750226907e-01 0.0000000000000000e+00  -5.2414809184367557e-04 -2.2366369021181345e-01 0.0000000000000000e+00  2.0749656799297100e-01 -8.3498377286441411e-02 0.0000000000000000e+00  -1.9879529475948635e-01 1.0252672715569831e-01 0.0000000000000000e+00  -2.0144600747607294e-01 9.7204508880344265e-02 0.0000000000000000e+00  -1.9906800740617026e-01 -1.0197985282661960e-01 0.0000000000000000e+00  -2.0340669931134361e-01 -9.3016624216403027e-02 0.0000000000000000e+00  -8.5810392835245525e-02 -2.0657831192307477e-01 0.0000000000000000e+00  -1.6557963126454042e-01 -1.5049840212189267e-01 0.0000000000000000e+00  -9.0722094452064611e-02 -2.0476393422115344e-01 0.0000000000000000e+00  -2.2181046417408157e-01 3.0382804992887653e-02 0.0000000000000000e+00  -2.0845379194893637e-01 8.3393571106707101e-02 0.0000000000000000e+00  -2.2360168671333625e-01 6.5535466752684865e-03 0.0000000000000000e+00  6.1345556778786024e-02 -2.1560438104796653e-01 0.0000000000000000e+00  -4.7201616696442780e-02 2.2152657180374971e-01 0.0000000000000000e+00  2.1990747781428049e-01 -4.2024738746754872e-02 0.0000000000000000e+00  1.7025628722244099e-01 -1.4774364599453477e-01 0.0000000000000000e+00  5.3790271100031442e-02 2.1790998884145962e-01 0.0000000000000000e+00  -5.2230070271080987e-02 -2.1840845035296921e-01 0.0000000000000000e+00  -2.1718964283791428e-01 5.5433384528161316e-02 0.0000000000000000e+00  -7.4317439557523235e-02 -2.1098749347174753e-01 0.0000000000000000e+00  -1.5818807845586622e-01 -1.5825031637089179e-01 0.0000000000000000e+00  -2.2365114225118476e-01 -4.5440366962047323e-03 0.0000000000000000e+00  -1.5554688024435040e-01 1.6087383367134661e-01 0.0000000000000000e+00  -6.3021667860164901e-02 2.1462838359858663e-01 0.0000000000000000e+00  2.1323524401405683e-01 6.7525727913148786e-02 0.0000000000000000e+00  -7.6409688628894731e-02 2.1023628164233005e-01 0.0000000000000000e+00  1.5419030568592354e-02 2.2312818167025258e-01 0.0000000000000000e+00  1.1251148806777478e-01 -1.9330056084788816e-01 0.0000000000000000e+00  -5.1080577745701662e-02 2.1793526783412970e-01 0.0000000000000000e+00  2.0313409936886886e-01 9.3596102913724138e-02 0.0000000000000000e+00  1.3336447758364639e-01 -1.7958062343486406e-01 0.0000000000000000e+00  -1.4405717045444336e-01 1.7122412905876888e-01 0.0000000000000000e+00  -9.3038153099176776e-02 -2.0369368770159246e-01 0.0000000000000000e+00  -2.2353808208144285e-01 1.2659985531274048e-02 0.0000000000000000e+00  1.7949925223943626e-02 2.2292779647766575e-01 0.0000000000000000e+00  -1.3218655540690349e-01 1.8041785188366599e-01 0.0000000000000000e+00  1.0239296687114184e-0