<?xml version="1.0"?>
<VTKFile type="UnstructuredGrid"  version="0.1"  >
<UnstructuredGrid>
<Piece  NumberOfPoints="4153" NumberOfCells="8064">
<Points>
<DataArray  type="Float64"  NumberOfComponents="3"  format="ascii">-0.4163753685660649 -0.6435472148805108 0  -0.03734872271406491 -0.8244257365261107 0  -0.09178551276103682 -0.8184577512554246 0  -0.1449719966511407 -0.8064312854394186 0  -0.1963175907839633 -0.7889760075495816 0  -0.2457694888283877 -0.7677628907515527 0  -0.2926150226432406 -0.7409902187178157 0  -0.3366133361003785 -0.7107622523200886 0  -0.3777372529028185 -0.6779769936435682 0  0.01754512484672252 -0.8239562010605961 0  -0.4524390349514578 -0.6091280153735916 0  -0.4866108051753735 -0.5747722875248639 0  -0.5189661337853496 -0.5407816123922452 0  -0.549803165183757 -0.5076581060743464 0  -0.5795220935470439 -0.4760068433132912 0  -0.6084442177149387 -0.4461846357575858 0  -0.6366833024443862 -0.4189680036815872 0  0.6336706181969168 -0.4140575219236979 0  0.07205090416464256 -0.8171136993285401 0  0.1253606954913618 -0.804178596714027 0  0.1767816463689847 -0.7857389308952232 0  0.2257740701097025 -0.7624919998603891 0  0.2720997991818703 -0.7356648065361315 0  0.3157007233449012 -0.7060655445387333 0  0.3566595941580527 -0.6745392244016163 0  0.3951040350424441 -0.6417707327969122 0  0.4314170463958897 -0.6086243273373884 0  0.4658673056739698 -0.5755574913705777 0  0.498755127606023 -0.5430010425710545 0  0.530305397468866 -0.5113231370136757 0  0.5608621487993497 -0.4808491148707431 0  0.5905861927204211 -0.4520425797695041 0  0.6197237952115039 -0.4257448942901773 0  0.604945530756306 -0.4387654357236783 0  -0.6223461436117311 -0.4323535528765215 0  -0.5647578903729885 -0.4917536693887342 0  -0.5029883547472385 -0.5577071466299769 0  -0.4346338580865051 -0.626315532185841 0  -0.3575586331110188 -0.6945308118400487 0  -0.2695129298479785 -0.7548465555012968 0  -0.1709083080515144 -0.7984726046122566 0  -0.06467717644552232 -0.8222325584611611 0  0.5757424428614444 -0.4664311036612667 0  0.1513433389759897 -0.7955901526005437 0  0.2492796246704645 -0.7494863110691241 0  0.3364876347048064 -0.690487407070389 0  0.4135155546609566 -0.6252288563919305 0  0.4824809531076222 -0.5592116962972108 0  0.5457174552829965 -0.4960502858284711 0  0.04489901477751434 -0.8213226994307227 0  -0.6502633888497535 -0.4068614472322118 0  0.5146832241758338 -0.527052366286612 0  0.4488537718017513 -0.5920647330338231 0  0.3761870257192215 -0.6582466818394191 0  0.2942382297622803 -0.7211668183384531 0  0.2016204983091683 -0.7746643410951524 0  0.09890218747971793 -0.8113756809930849 0  -0.009903681407080199 -0.8250025490818709 0  -0.1185797318330679 -0.8131941949027507 0  -0.2211501247140651 -0.7788322833972048 0  -0.3148955061387423 -0.7260694269344382 0  -0.3976844783223603 -0.6613536408224695 0  -0.4697713341144757 -0.591953041085735 0  -0.5345868267883719 -0.5241291696460928 0  -0.5939717170590739 -0.4610288987097476 0  0.7502921835169439 -0.2249882238483337 0  0.6788587552340135 -0.3798811244179275 0  0.7185454318275183 -0.3366257923758987 0  0.7436237767991604 -0.2843455883307832 0  0.6568339295755338 -0.3974435281903372 0  0.69987295286968 -0.3595937872844635 0  0.7290310376907301 -0.3088942059080841 0  0.7456839952746157 -0.2542811176620224 0  0.6450915740235685 -0.4059877368161414 0  0.6678312302274605 -0.3878334437087998 0  0.6895028189417625 -0.369889129996727 0  0.7089244113483932 -0.3472569566484769 0  0.7266127245355575 -0.3241762178538494 0  0.735339274731166 -0.2964177201517774 0  0.7434169757107867 -0.2690313841783143 0  0.747286945783416 -0.2394714218469675 0  0.7499687628076999 -0.2058020304848422 0  0.7530792184855486 0.2267639612594615 0  0.7542084224149719 0.1886220549702889 0  0.7565815022588334 0.1499691385736112 0  0.7592152813503547 0.1107373457139049 0  0.7618262835448576 0.07089126159221953 0  0.7628733195983584 0.03057327086413391 0  0.7624906918731401 -0.009858574946777046 0  0.7606757008952062 -0.05014737875210711 0  0.7574070423955223 -0.089921651063262 0  0.7542039825956861 -0.1290963672306093 0  0.7513530740196318 -0.1676872120175178 0  0.7539887716718158 0.245861483530678 0  0.7534385217137123 0.2077457220188761 0  0.7579085558180004 0.130426604244348 0  0.7625255452851916 0.05076401267312065 0  0.7617661227343498 -0.03003774675806052 0  0.7558165842837906 -0.1095879904008027 0  0.7504391470915497 -0.1867993925641664 0  0.7553348363862785 0.1693667225182355 0  0.7606223716163849 0.09091289764987028 0  0.7628556869232581 0.01035575683675877 0  0.7591037298871971 -0.07013295248194479 0  0.7527084461727935 -0.1484653650081955 0  0.6438062671828804 0.4371503039040329 0  0.7488262031057188 0.3053945138335245 0  0.7253249606571576 0.3585881875645222 0  0.6874279395148407 0.4026343138630479 0  0.7503359445292763 0.2752532139887761 0  0.7355991124094262 0.3307948989542722 0  0.707479681949273 0.3816986142912929 0  0.6659651847249882 0.4201017151439106 0  0.7516385639463664 0.2604582621128912 0  0.7487053594017077 0.2901003795608015 0  0.7414163421386664 0.3178741368877185 0  0.7324040807999527 0.345608575151425 0  0.7160501941031818 0.3692678428289445 0  0.6975614768895316 0.3922567571790495 0  0.6766409922393305 0.4106148801315078 0  0.6546978389310881 0.4287862546727306 0  -0.02958301617108493 0.8785070991654224 0  0.6028822062138655 0.4767368771121084 0  0.5746719938906713 0.5069670313413973 0  0.545681676565786 0.539182674647122 0  0.5155726058578394 0.5730187482775401 0  0.4839321455851072 0.6079363543040516 0  0.4504535582493461 0.6435200281461139 0  0.4148193641106657 0.6793260225064837 0  0.3766697393198441 0.7149200403431279 0  0.3355828881993777 0.7492180951317107 0  0.2914105170496414 0.7814743619087139 0  0.2440611388250843 0.8107265899113292 0  0.1936232247306876 0.8361625558248599 0  0.1403661825976629 0.8563210859865279 0  0.08488786985240308 0.8704305404901559 0  0.02796181370755793 0.8778189556948761 0  0.6305128133982951 0.4492645836132997 0  -0.08669246496964493 0.871490894965777 0  -0.1423398881070677 0.8576669625947606 0  -0.1956889363506404 0.8376967038384326 0  -0.2459940128506076 0.811808952470251 0  -0.2934530735262362 0.7834692243713988 0  -0.3377236999401387 0.7520322467712182 0  -0.3789894104421045 0.7185593153751 0  -0.4174508778873227 0.6837037815038982 0  -0.4534615372180645 0.6487521842229806 0  -0.4874829867931312 0.6140262167588681 0  -0.5197879314993241 0.5799027008270198 0  -0.550666374424185 0.5467496688734613 0  -0.5804026335158676 0.5149080758800337 0  -0.6092553756357363 0.484915562196238 0  -0.6374627316886298 0.4575895742117395 0  -0.6509797374131848 0.4454750711459617 0  -0.6231429906176024 0.4710655126531869 0  -0.5656744351648452 0.5307677921974102 0  -0.5038346749009274 0.596881021944015 0  -0.4357110316487857 0.6662123205209156 0  -0.3587118588623327 0.7354502269204289 0  -0.2701137297294472 0.7981018413429365 0  -0.169326931882927 0.8482204624386369 0  -0.05824909712087386 0.8758514734582102 0  0.05656216370081766 0.8750254219325653 0  0.1673159248194916 0.8469239217407756 0  0.2681346733839475 0.7965442899839255 0  0.3564883434741909 0.7322478064502539 0  0.4329253850188544 0.6614279075446096 0  0.4999615247638357 0.5903768730451885 0  0.5602847822905064 0.5229699967058167 0  0.616487150636404 0.462789340990548 0  -0.5948399320929458 0.4998569583823401 0  -0.5353971860610668 0.5632282828140377 0  -0.4707100890807361 0.6313457913349089 0  -0.3986256527324607 0.7013091050251921 0  -0.3159619538134343 0.7680280294536996 0  -0.2215347850823013 0.8258350267286554 0  -0.1147402443433621 0.8653268579724586 0  -0.0007456219608397833 0.879055906791121 0  0.1128619964563618 0.8641767907032148 0  0.2192533971130136 0.8240726744946141 0  0.3138898740864993 0.7656591391814254 0  0.3961208403476535 0.6972337989792164 0  0.4674415323228301 0.6256757435345524 0  0.5308219807702075 0.5559784835184127 0  0.5887822282123844 0.4917671860429504 0  -0.7639983841535576 0.2544581756182294 0  -0.6951123879057153 0.4107399342751692 0  -0.7337299563133283 0.3668329323034317 0  -0.7579614816758854 0.3139631980029844 0  -0.6734770673957985 0.4283922381484722 0  -0.715569358904619 0.3899839264780012 0  -0.7440792711751759 0.3390049473244687 0  -0.7597892171707556 0.2838319159690608 0  -0.6620227387213229 0.4370943042991843 0  -0.6842602205787929 0.4187804108787099 0  -0.7054628334491497 0.400475002581026 0  -0.7243332159003176 0.3775374963244951 0  -0.7412690803961335 0.3540587522519597 0  -0.7501272969678042 0.326271575070031 0  -0.7578242136317679 0.2986515071471736 0  -0.7612721124447658 0.2690174344410674 0  -0.7634051337863074 0.2352864078822306 0  -0.7631477161976672 -0.1978297206982986 0  -0.7644899007649438 -0.1596970067638676 0  -0.7671804426588642 -0.1210534715944727 0  -0.7701661344583585 -0.08181480832965879 0  -0.7731591359418614 -0.04196065138757085 0  -0.7746308630519568 -0.001605912539417144 0  -0.7746664140947016 0.0388820976483962 0  -0.7732685813100816 0.07924691462410181 0  -0.7703580986834391 0.1191280179771205 0  -0.7674226615547909 0.1584058396269198 0  -0.7647510982148881 0.1970985210522938 0  -0.7637920880907701 -0.2169731763059616 0  -0.7636025382818729 -0.1788205029084236 0  -0.7686870738333486 -0.1015118798642258 0  -0.7740746901770988 -0.02181708627676734 0  -0.7741467184568154 0.05909692468725591 0  -0.7689067945135923 0.1388429717370656 0  -0.7638636615252901 0.2162481418325378 0  -0.7657692163877461 -0.1404493185516311 0  -0.771745464747786 -0.06198777607024396 0  -0.774823063542269 0.01863750417305865 0  -0.7718988376115457 0.09928463930555426 0  -0.7660262781351518 0.1778251177447754 0  -0.7576957304584716 -0.2763846020190711 0  -0.7332557923086581 -0.3290623595540556 0  -0.6945101443400916 -0.3726480262580694 0  -0.7596257118107617 -0.2463137622572323 0  -0.7438355825052174 -0.3014228693883972 0  -0.7150298880512846 -0.3520927015414063 0  -0.6727420677178473 -0.3900480638860738 0  -0.7611086068598141 -0.2315198744914477 0  -
[...]
<PointData  Vectors="PointNormal"> 
<DataArray  type="Float64"  Name="PointNormal"  NumberOfComponents="3" format="ascii">-6.8806686074510837e-01 -7.2564729389998528e-01 0.0000000000000000e+00  -5.0525894702979676e-02 -9.9872275130011101e-01 0.0000000000000000e+00  -1.6540287134039089e-01 -9.8622608470489870e-01 0.0000000000000000e+00  -2.7086455970803486e-01 -9.6261746830928241e-01 0.0000000000000000e+00  -3.6416394202520591e-01 -9.3133486100793106e-01 0.0000000000000000e+00  -4.4428897910495285e-01 -8.9588353207650750e-01 0.0000000000000000e+00  -5.3556306587668867e-01 -8.4449523531442239e-01 0.0000000000000000e+00  -5.9447664634886743e-01 -8.0411287574929657e-01 0.0000000000000000e+00  -6.3722848661031084e-01 -7.7067493526929565e-01 0.0000000000000000e+00  6.6990261701813728e-02 -9.9775362932796319e-01 0.0000000000000000e+00  -6.9921148267884103e-01 -7.1491489178087275e-01 0.0000000000000000e+00  -7.1783843505771294e-01 -6.9620972497796496e-01 0.0000000000000000e+00  -7.2825728225840991e-01 -6.8530382374359677e-01 0.0000000000000000e+00  -7.3153409512973200e-01 -6.8180486039828447e-01 0.0000000000000000e+00  -7.2461186142705136e-01 -6.8915720287843152e-01 0.0000000000000000e+00  -7.1067769245282608e-01 -7.0351774494317221e-01 0.0000000000000000e+00  -6.7398544935787574e-01 -7.3874462032143573e-01 0.0000000000000000e+00  6.1019355973624911e-01 -7.9225237119014325e-01 0.0000000000000000e+00  1.8115544523771782e-01 -9.8345447513381323e-01 0.0000000000000000e+00  2.8826429048843139e-01 -9.5755088576492964e-01 0.0000000000000000e+00  3.8429067199830325e-01 -9.2321215298277592e-01 0.0000000000000000e+00  4.6717367115187908e-01 -8.8416557328504697e-01 0.0000000000000000e+00  5.3303862923997714e-01 -8.4609090512661000e-01 0.0000000000000000e+00  5.8763931905854005e-01 -8.0912300096858913e-01 0.0000000000000000e+00  6.3047220085641809e-01 -7.7621182930129606e-01 0.0000000000000000e+00  6.6257256255838104e-01 -7.4899772986626612e-01 0.0000000000000000e+00  6.8435315157572485e-01 -7.2915071413828614e-01 0.0000000000000000e+00  6.9884649846307234e-01 -7.1527167676757819e-01 0.0000000000000000e+00  7.0664354764232118e-01 -7.0756971145992009e-01 0.0000000000000000e+00  7.0671001166578296e-01 -7.0750332819807205e-01 0.0000000000000000e+00  7.0216963642330754e-01 -7.1200969212866760e-01 0.0000000000000000e+00  6.8750187537698770e-01 -7.2618260193502626e-01 0.0000000000000000e+00  6.5173342486344465e-01 -7.5844811484752528e-01 0.0000000000000000e+00  6.7003506921000378e-01 -7.4232944575083737e-01 0.0000000000000000e+00  -6.9395293952053283e-01 -7.2002035924743946e-01 0.0000000000000000e+00  -7.2901260143809854e-01 -6.8450027534286362e-01 0.0000000000000000e+00  -7.2433888596201834e-01 -6.8944410816490564e-01 0.0000000000000000e+00  -6.9045038788340340e-01 -7.2337974942049477e-01 0.0000000000000000e+00  -6.2345613715162573e-01 -7.8185832799041866e-01 0.0000000000000000e+00  -4.9622253658832399e-01 -8.6819536636741468e-01 0.0000000000000000e+00  -3.2186805225700049e-01 -9.4678453564487675e-01 0.0000000000000000e+00  -1.0900306662604586e-01 -9.9404141335565976e-01 0.0000000000000000e+00  6.9593695813708967e-01 -7.1810288280920775e-01 0.0000000000000000e+00  3.3759166728564965e-01 -9.4129265703037079e-01 0.0000000000000000e+00  5.0119305652416224e-01 -8.6533549568474766e-01 0.0000000000000000e+00  6.0999956458123361e-01 -7.9240174861663792e-01 0.0000000000000000e+00  6.7420991647772366e-01 -7.3853976773299146e-01 0.0000000000000000e+00  7.0353330695975980e-01 -7.1066228688334399e-01 0.0000000000000000e+00  7.0616021873541324e-01 -7.0805207822274874e-01 0.0000000000000000e+00  1.2456169541085858e-01 -9.9221186449083165e-01 0.0000000000000000e+00  -6.3488254849734715e-01 -7.7260866524619920e-01 0.0000000000000000e+00  7.0854085580949289e-01 -7.0566979221782711e-01 0.0000000000000000e+00  6.9250042291131575e-01 -7.2141746878464807e-01 0.0000000000000000e+00  6.4874558980528207e-01 -7.6100536115601491e-01 0.0000000000000000e+00  5.6172696947756884e-01 -8.2732267692935046e-01 0.0000000000000000e+00  4.2874722804863530e-01 -9.0342449293818217e-01 0.0000000000000000e+00  2.3581666590015746e-01 -9.7179756126661143e-01 0.0000000000000000e+00  8.5437078522928415e-03 -9.9996350186201033e-01 0.0000000000000000e+00  -2.2058197274070870e-01 -9.7536843977125753e-01 0.0000000000000000e+00  -3.9417445797799711e-01 -9.1903563406309341e-01 0.0000000000000000e+00  -5.6630839433042135e-01 -8.2419342542324370e-01 0.0000000000000000e+00  -6.6535077083143290e-01 -7.4653087796421258e-01 0.0000000000000000e+00  -7.0903887091551432e-01 -7.0516939775549869e-01 0.0000000000000000e+00  -7.3194047698486975e-01 -6.8136857731418854e-01 0.0000000000000000e+00  -7.1785331027577459e-01 -6.9619438731299221e-01 0.0000000000000000e+00  9.9559746814671768e-01 -9.3731965837944062e-02 0.0000000000000000e+00  6.3598920210211995e-01 -7.7169795568571298e-01 0.0000000000000000e+00  7.9288727271423620e-01 -6.0936833915767263e-01 0.0000000000000000e+00  9.5710180939651224e-01 -2.8975183597334164e-01 0.0000000000000000e+00  6.2381138608394704e-01 -7.8157491937243273e-01 0.0000000000000000e+00  7.5770946386095084e-01 -6.5259203824100587e-01 0.0000000000000000e+00  9.5155720026859381e-01 -3.0747177856999408e-01 0.0000000000000000e+00  9.9154133413605661e-01 -1.2979130440707118e-01 0.0000000000000000e+00  5.8272797830512824e-01 -8.1266727711925124e-01 0.0000000000000000e+00  6.2214237488898516e-01 -7.8290412271713927e-01 0.0000000000000000e+00  6.9455025811338866e-01 -7.1944418751882699e-01 0.0000000000000000e+00  7.7487926123061723e-01 -6.3210927102415848e-01 0.0000000000000000e+00  9.3378236124967262e-01 -3.5784144787738881e-01 0.0000000000000000e+00  8.6037982193758267e-01 -5.0965337436600333e-01 0.0000000000000000e+00  9.9758594724153715e-01 -6.9442622835007697e-02 0.0000000000000000e+00  9.8782465232225203e-01 -1.5557138639358470e-01 0.0000000000000000e+00  9.9999221213922873e-01 -3.9466011822489235e-03 0.0000000000000000e+00  9.9989703700568811e-01 -1.4349752166698730e-02 0.0000000000000000e+00  9.9878328714577336e-01 4.9314757611525407e-02 0.0000000000000000e+00  9.9782336152481377e-01 6.5943454529777706e-02 0.0000000000000000e+00  9.9765037737295070e-01 6.8510762129821920e-02 0.0000000000000000e+00  9.9887715467926697e-01 4.7375414086335901e-02 0.0000000000000000e+00  9.9996658244896708e-01 8.1752055223806887e-03 0.0000000000000000e+00  9.9963625537749268e-01 -2.6969555703871547e-02 0.0000000000000000e+00  9.9780082320013375e-01 -6.6283612010325413e-02 0.0000000000000000e+00  9.9654803920888824e-01 -8.3018103742016972e-02 0.0000000000000000e+00  9.9682027930473138e-01 -7.9682687999573149e-02 0.0000000000000000e+00  9.9825474595216090e-01 -5.9054738878319864e-02 0.0000000000000000e+00  9.9843107214869320e-01 5.5994590524540575e-02 0.0000000000000000e+00  9.9956302217314286e-01 2.9559511228930527e-02 0.0000000000000000e+00  9.9775392637622118e-01 6.6985837315318167e-02 0.0000000000000000e+00  9.9966265805461685e-01 2.5972487196612149e-02 0.0000000000000000e+00  9.9898627197301459e-01 -4.5015868418348939e-02 0.0000000000000000e+00  9.9667374950540344e-01 -8.1495012404688399e-02 0.0000000000000000e+00  9.9934247411010801e-01 -3.6257681110188122e-02 0.0000000000000000e+00  9.9812134273858055e-01 6.1268141556056324e-02 0.0000000000000000e+00  9.9785835965799530e-01 6.5411727241030213e-02 0.0000000000000000e+00  9.9995522407964654e-01 -9.4630775028025672e-03 0.0000000000000000e+00  9.9663887073255852e-01 -8.1920457426277127e-02 0.0000000000000000e+00  9.9728333843097383e-01 -7.3660999775809061e-02 0.0000000000000000e+00  6.4188352775086566e-01 7.6680214971145166e-01 0.0000000000000000e+00  9.6536500186994401e-01 2.6090307235569898e-01 0.0000000000000000e+00  8.2124418272448896e-01 5.7057689432817560e-01 0.0000000000000000e+00  6.5722373281592661e-01 7.5369553867825145e-01 0.0000000000000000e+00  9.9514272566056661e-01 9.8442651147041871e-02 0.0000000000000000e+00  9.4994596150327859e-01 3.1241426059578570e-01 0.0000000000000000e+00  7.7827257305577213e-01 6.2792658968158677e-01 0.0000000000000000e+00  6.3775481645748811e-01 7.7023943945066564e-01 0.0000000000000000e+00  9.9235538956819513e-01 1.2341304953267954e-01 0.0000000000000000e+00  9.9871287180209978e-01 5.0720801421138557e-02 0.0000000000000000e+00  8.8725892221644620e-01 4.6127172571848607e-01 0.0000000000000000e+00  9.3734473879793034e-01 3.4840327301539481e-01 0.0000000000000000e+00  7.9038265372735106e-01 6.1261346760164392e-01 0.0000000000000000e+00  7.2219296972375902e-01 6.9169163250799670e-01 0.0000000000000000e+00  6.3013778935286491e-01 7.7648333300173578e-01 0.0000000000000000e+00  6.0977174207076423e-01 7.9257707673890332e-01 0.0000000000000000e+00  -5.5673774479071333e-02 9.9844901263672625e-01 0.0000000000000000e+00  7.2261504524987408e-01 6.9125067549950536e-01 0.0000000000000000e+00  7.3829282237932958e-01 6.7448032471167285e-01 0.0000000000000000e+00  7.4599881644840549e-01 6.6594726957738815e-01 0.0000000000000000e+00  7.4435721301796176e-01 6.6778165550435176e-01 0.0000000000000000e+00  7.3549177451554648e-01 6.7753365202030569e-01 0.0000000000000000e+00  7.1947425201445137e-01 6.9451911470329286e-01 0.0000000000000000e+00  6.9736322693763386e-01 7.1671788711816742e-01 0.0000000000000000e+00  6.6215344383248154e-01 7.4936827849915333e-01 0.0000000000000000e+00  6.1721970763654788e-01 7.8679084419244116e-01 0.0000000000000000e+00  5.5954801877374261e-01 8.2879793356787479e-01 0.0000000000000000e+00  4.9077264361829898e-01 8.7128767481005154e-01 0.0000000000000000e+00  4.0275614936332554e-01 9.1530731677946653e-01 0.0000000000000000e+00  3.0206697977416830e-01 9.5328670384628367e-01 0.0000000000000000e+00  1.8922889685473998e-01 9.8193300412764328e-01 0.0000000000000000e+00  7.0156072460305960e-02 9.9753602716741230e-01 0.0000000000000000e+00  6.8391836458092459e-01 7.2955854500441120e-01 0.0000000000000000e+00  -1.8318622311100335e-01 9.8307823069292188e-01 0.0000000000000000e+00  -2.9906789247032012e-01 9.5423183540131440e-01 0.0000000000000000e+00  -3.9405599703508848e-01 9.1908643293255199e-01 0.0000000000000000e+00  -4.9577199332293576e-01 8.6845272216546310e-01 0.0000000000000000e+00  -5.4855580976284468e-01 8.3611394174205100e-01 0.0000000000000000e+00  -6.0618600915469245e-01 7.9532290442631370e-01 0.0000000000000000e+00  -6.5006327562373378e-01 7.5988008112158179e-01 0.0000000000000000e+00  -6.8740704730433344e-01 7.2627236717111721e-01 0.0000000000000000e+00  -7.0580031756319106e-01 7.0841083541099148e-01 0.0000000000000000e+00  -7.2100896149237304e-01 6.9292573732521279e-01 0.0000000000000000e+00  -7.2940217942163388e-01 6.8408512676053013e-01 0.0000000000000000e+00  -7.3124337185630439e-01 6.8211665506438302e-01 0.0000000000000000e+00  -7.2723995090685722e-01 6.8638331404907549e-01 0.0000000000000000e+00  -7.1293718615048296e-01 7.0122790061707585e-01 0.0000000000000000e+00  -6.7642107708286536e-01 7.3651512304775957e-01 0.0000000000000000e+00  -6.3650670888820182e-01 7.7127116472762669e-01 0.0000000000000000e+00  -6.9580995579018545e-01 7.1822594315665034e-01 0.0000000000000000e+00  -7.3086778727917578e-01 6.8251906751214009e-01 0.0000000000000000e+00  -7.2621421388460583e-01 6.8746848331539101e-01 0.0000000000000000e+00  -6.9651285926270046e-01 7.1754431004760788e-01 0.0000000000000000e+00  -6.3003128545706488e-01 7.7656975175789489e-01 0.0000000000000000e+00  -5.1275501412401725e-01 8.5853497045296812e-01 0.0000000000000000e+00  -3.5064853233487864e-01 9.3650713119089257e-01 0.0000000000000000e+00  -1.2194538283741749e-01 9.9253681221637102e-01 0.0000000000000000e+00  1.2873231916569103e-01 9.9167937863112932e-01 0.0000000000000000e+00  3.5405404499671661e-01 9.3522496396399879e-01 0.0000000000000000e+00  5.2565260834075855e-01 8.5069932134953363e-01 0.0000000000000000e+00  6.4089953866394977e-01 7.6762476597640883e-01 0.0000000000000000e+00  7.0885131811612268e-01 7.0535792956841104e-01 0.0000000000000000e+00  7.4104791086199118e-01 6.7145215302885020e-01 0.0000000000000000e+00  7.4333946335003920e-01 6.6891437585574109e-01 0.0000000000000000e+00  7.0507238574982389e-01 7.0913534029341063e-01 0.0000000000000000e+00  -7.2066526219506322e-01 6.9328318879468065e-01 0.0000000000000000e+00  -7.3177814115370754e-01 6.8154292024026231e-01 0.0000000000000000e+00  -7.1434827145933277e-01 6.9979035936704881e-01 0.0000000000000000e+00  -6.7159812563968668e-01 7.4091562113189346e-01 0.0000000000000000e+00  -5.7905156277227343e-01 8.1529092209528975e-01 0.0000000000000000e+00  -4.5775167934235034e-01 8.8908008641474923e-01 0.0000000000000000e+00  -2.4112632858679572e-01 9.7049373705462560e-01 0.0000000000000000e+00  1.2016075235583189e-02 9.9992780436186135e-01 0.0000000000000000e+00  2.4650739130925134e-01 9.6914091133844293e-01 0.0000000000000000e+00  4.5035463639707718e-01 8.9284976422445028e-01 0.0000000000000000e+00  5.8980552681770826e-01 8.0754531794524420e-01 0.0000000000000000e+00  6.8226465492129695e-01 7.3110528697659094e-01 0.0000000000000000e+00  7.2835661594201273e-01 6.8519824869412738e-01 0.0000000000000000e+00  7.4707064901443554e-01 6.6474464674877232e-01 0.0000000000000000e+00  7.3110508569071808e-01 6.8226487061636676e-01 0.0000000000000000e+00  -9.9703020304944390e-01 7.7011519964124350e-02 0.0000000000000000e+00  -6.5141962593004810e-01 7.5871764903233685e-01 0.0000000000000000e+00  -8.0990888877407996e-01 5.8655570228643672e-01 0.0000000000000000e+00  -9.6135114378037001e-01 2.7532522287682698e-01 0.0000000000000000e+00  -6.3565799104300269e-01 7.7197080153537800e-01 0.0000000000000000e+00  -7.7117583786849542e-01 6.3662220122127700e-01 0.0000000000000000e+00  -9.5110885623559938e-01 3.0885586215937372e-01 0.0000000000000000e+00  -9.9330316690612586e-01 1.1553708761372278e-01 0.0000000000000000e+00  -6.0473980572064090e-01 7.9642310826404417e-01 0.0000000000000000e+00  -6.3100152112349894e-01 7.7578159319477946e-01 0.0000000000000000e+00  -7.1222151205472750e-01 7.0195478327772487e-01 0.0000000000000000e+00  -7.8570647719608333e-01 6.1859949215313814e-01 0.0000000000000000e+00  -9.3629723505418938e-01 3.5120860984588637e-01 0.0000000000000000e+00  -8.7511445376643937e-01 4.8391599767838456e-01 0.0000000000000000e+00  -9.9811372974985479e-01 6.1392039262708052e-02 0.0000000000000000e+00  -9.8987290809434769e-01 1.4195642225992863e-01 0.0000000000000000e+00  -9.9999412748257122e-01 -3.4270979517759133e-03 0.0000000000000000e+00  -9.9998817653901462e-01 4.8627957161095645e-03 0.0000000000000000e+00  -9.9841172386654797e-01 -5.6338527189020222e-02 0.0000000000000000e+00  -9.9720461793792259e-01 -7.4719140541643206e-02 0.0000000000000000e+00  -9.9702012130523798e-01 -7.7141932257939180e-02 0.0000000000000000e+00  -9.9832162552443637e-01 -5.7913141947637373e-02 0.0000000000000000e+00  -9.9982883058055982e-01 -1.8501609116783040e-02 0.0000000000000000e+00  -9.9986021852721130e-01 1.6719551630271060e-02 0.0000000000000000e+00  -9.9843787503615011e-01 5.5873157180321022e-02 0.0000000000000000e+00  -9.9715230872279670e-01 7.5414012018964194e-02 0.0000000000000000e+00  -9.9728158072133066e-01 7.3684793234181825e-02 0.0000000000000000e+00  -9.9842188327700876e-01 5.6158196139043548e-02 0.0000000000000000e+00  -9.9723451661117313e-01 -7.4319034434523687e-02 0.0000000000000000e+00  -9.9938247349101827e-01 -3.5137895198404205e-02 0.0000000000000000e+00  -9.9711732926942109e-01 -7.5875105737104320e-02 0.0000000000000000e+00  -9.9933520120084263e-01 -3.6457586876691581e-02 0.0000000000000000e+00  -9.9940052030845239e-01 3.4620803098636264e-02 0.0000000000000000e+00  -9.9721865096911388e-01 7.4531618520870827e-02 0.0000000000000000e+00  -9.9938073743486977e-01 3.5187236949439274e-02 0.0000000000000000e+00  -9.9758586329360599e-01 -6.9443828788098461e-02 0.0000000000000000e+00  -9.9719037230052432e-01 -7.4909020759463665e-02 0.0000000000000000e+00  -9.9999961433983775e-01 -8.7824835648885535e-04 0.0000000000000000e+00  -9.9734609851858469e-01 7.2806316825929251e-02 0.0000000000000000e+00  -9.9762561566853258e-01 6.8870392491848370e-02 0.0000000000000000e+00  -9.6051417413586104e-01 -2.7823105736798093e-01 0.0000000000000000e+00  -8.0746678289430007e-01 -5.8991303979682408e-01 0.0000000000000000e+00  -6.4616437822163930e-01 -7.6319826802570911e-01 0.0000000000000000e+00  -9.9332368183492847e-01 -1.1536057864756810e-01 0.0000000000000000e+00  -9.4886984125035689e-01 -3.1566758523092381e-01 0.0000000000000000e+00  -7.6716809611402303e-01 -6.4144611021097087e-01 0.0000000000000000e+00  -6.2631893973622699e-01 -7.7956692190452026e-01 0.0000000000000000e+00  -9.9005303722997506e-01 -1.4069464620838101e-01 0.0000000000000000e+00  -9.9789663866702516e-01 -6.4825138156833453e-02 0.0000000000000000e+00  -8.7537049272021328e-01 -4.8345268690407656e-01 0.0000000000000000e+00  -9.3292680886523083e-01 -3.6006606241152078e-01 0.0000000000000000e+00  -7.8307406254866130e-01 -6.2192846257711620e-01 0.0000000000000000e+00  -7.0772128992772454e-01 -7.0649173794393216e-01 0.0000000000000000e+00  -6.2326394494910653e-01 -7.8201154398543060e-01 0.0000000000000000e+00  -5.9903523937911396e-01 -8.0072266233822031e-01 0.0000000000000000e+00  0.0000000000000000e+00 0.0000000000000000e+00 0.0000000000000000e+00  0.0000000000000000e+00 0.0000000000000000e+00 0.0000000000000000e+00  0.0000000000000000e+00 0.0000000000000000e+00 0.0000000000000000e+00  0.0000000000000000e+00 0.0000000000000000e+00 0.0000000000000000e+00  0.0000000000000000e+00 0.0000000000000000e+00 0.0000000000000000e+00  0.0000000000000000e+00 0.0000000000000000e+00 0.0000000000000000e+00  0.0000000000000000e+00 0.0000000000000000e+00 0.0000000000000000e+00  0.0000000000000000e+00 0.0000000000000000e+00 0.0000000000000000e+00  0.0000000000000000e+00 0.0000000000000000e+00 0.0000000000000000e+00  0.0000000000000000e+00 0.0000000000000000e+00 0.0000000000000000e+00  0.0000000000000000e+00 0.0000000000000000e+00 0.0000000000000000e+00  0.0000000000000000e+00 0.0000000000000000e+00 0.0000000000000000e+00  0.0000000000000000e+00 0.0000000000000000e+00 0.0000000000000000e+00  0.0000000000000000e+00 0.0000000000000000e+00 0.0000000000000000e+00  0.0000000000000000e+00 0.0000000000000000e+00 0.0000000000000000e+00  0.0000000000000000e+00 0.0000000000000000e+00 0.0000000000000000e+00  0.0000000000000000e+00 0.0000000000000000e+00 0.0000000000000000e+00  0.0000000000000000e+00 0.0000000000000000e+00 0.0000000000000000e+00  0.0000000000000000e+00 0.0000000000000000e+00 0.0000000000000000e+00  0.0000000000000000e+00 0.0000000000000000e+00 0.0000000000000000e+00  0.0000000000000000e+00 0.0000000000000000e+00 0.0000000000000000e+00  0.0000000000000000e+00 0.0000000000000000e+00 0.0000000000000000e+00  0.0000000000000000e+00 0.0000000000000000e+00 0.0000000000000000e+00  0.0000000000000000e+00 0.0000000000000000e+00 0.0000000000000000e+00  0.0000000000000000e+00 0.0000000000000000e+00 0.0000000000000000e+00  0.0000000000000000e+00 0.0000000000000000e+00 0.0000000000000000e+00  0.0000000000000000e+00 0.0000000000000000e+00 0.0000000000000000e+00  0.0000000000000000e+00 0.0000000000000000e+00 0.0000000000000000e+00  0.0000000000000000e+00 0.0000000000000000e+00 0.0000000000000000e+00  0.0000000000000000e+00 0.0000000000000000e+00 0.0000000000000000e+00  0.0000000000000000e+00 0.0000000000000000e+00 0.0000000000000000e+00  0.0000000000000000e+00 0.0000000000000000e+00 0.0000000000000000e+00  0.0000000000000000e+00 0.0000000000000000e+00 0.0000000000000000e+00  0.0000000000000000e+00 0.0000000000000000e+00 0.0000000000000000e+00  0.0000000000000000e+00 0.0000000000000000e+00 0.0000000000000000e+00  0.0000000000000000e+00 0.0000000000000000e+00 0.0000000000000000e+00  0.0000000000000000e+00 0.0000000000000000e+00 0.0000000000000000e+00  0.0000000000000000e+00 0.0000000000000000e+00 0.0000000000000000e+00  0.0000000000000000e+00 0.0000000000000000e+00 0.0000000000000000e+00  0.0000000000000000e+00 0.0000000000000000e+00 0.0000000000000000e+00  0.0000000000000000e+00 0.000000000000