<?xml version="1.0"?>
<VTKFile type="UnstructuredGrid"  version="0.1"  >
<UnstructuredGrid>
<Piece  NumberOfPoints="4153" NumberOfCells="8064">
<Points>
<DataArray  type="Float64"  NumberOfComponents="3"  format="ascii">-0.4165347785222364 -0.613401648226971 0  -0.04099304824422027 -0.7722407398746218 0  -0.09351244346023609 -0.767153817587131 0  -0.1450379289441212 -0.7568000196475065 0  -0.1951326841404628 -0.7417954016291269 0  -0.2438373838255105 -0.7236114516303235 0  -0.2905435463802378 -0.7002438557519499 0  -0.3348640832418084 -0.6734995366494188 0  -0.3768087057166181 -0.6443713556135343 0  0.01189058603598477 -0.7716934241257691 0  -0.4541235269658548 -0.5825679485661336 0  -0.4902823766968641 -0.5519065037295715 0  -0.5250647472872214 -0.5216695971066138 0  -0.5586812209912349 -0.49228480165377 0  -0.5915256567856094 -0.4643516274815465 0  -0.6238035137200834 -0.4381320469047573 0  -0.6556651658827182 -0.4145044435285733 0  0.6466955592935704 -0.4145090241506751 0  0.06445768824954931 -0.7655738279935532 0  0.1160594100188383 -0.7541228737499055 0  0.1661386275426046 -0.7378519142320641 0  0.2142657513404594 -0.7173791997841928 0  0.2602593469630198 -0.693801322701697 0  0.3041077735587658 -0.6678477430708101 0  0.3458936256180964 -0.6402472276869854 0  0.3857309335340235 -0.6116158600503823 0  0.4239313844403835 -0.5826818912593261 0  0.4607210063443541 -0.5538633167873374 0  0.4963360245331541 -0.5255290917229124 0  0.5309472708240284 -0.4980298995713341 0  0.5648033862231363 -0.4716040950557671 0  0.5980363568814769 -0.4467179452336343 0  0.6308757418266603 -0.4242223795380888 0  0.6142718727830243 -0.4354001793111896 0  -0.6394958130393239 -0.4261346552358352 0  -0.5751743594540566 -0.4782234309999394 0  -0.5078195966035699 -0.5367104134684134 0  -0.4354821002800561 -0.5979256864003961 0  -0.3561339137013718 -0.6590660458815746 0  -0.2674802454995649 -0.7124290573232606 0  -0.1702835653275308 -0.7499327798945455 0  -0.06734093501393207 -0.7703863915769058 0  0.5814432303889747 -0.4591342536281447 0  0.1413184051680378 -0.7465420106961951 0  0.2375326561688146 -0.705937804266121 0  0.3252419466040861 -0.654213952548011 0  0.4050258054130389 -0.5971683780177921 0  0.4786546501983402 -0.539632315271713 0  0.5479795353387531 -0.4847513635002508 0  0.03825568018500249 -0.7693225222464032 0  -0.6710512328722459 -0.4042237593191365 0  0.5137446643744001 -0.5116538012641479 0  0.442485703482461 -0.5682432835305702 0  0.3660419606152912 -0.6259985964269199 0  0.2824490113829434 -0.681083833929931 0  0.1904755346799469 -0.7280894225580855 0  0.0904170283711057 -0.7604876753532736 0  -0.01455208358912439 -0.7726778131791677 0  -0.1194331422271492 -0.7626180542271649 0  -0.219553793292917 -0.7331372909770525 0  -0.3129716228330164 -0.6871337691993371 0  -0.3971493785910579 -0.629307834398496 0  -0.4723924835512781 -0.5672274440338622 0  -0.5420192387654511 -0.50685457387291 0  -0.6076583402432415 -0.4511878491214101 0  0.7766154629012088 -0.2272903576533481 0  0.697564542596316 -0.3846744727550025 0  0.7413572430552453 -0.3422640518237636 0  0.7692333954795871 -0.28860834786875 0  0.6726422797992267 -0.4001220794286074 0  0.7205580916057128 -0.3648044037303279 0  0.7535398826920698 -0.3140645108491696 0  0.7718324838310978 -0.2575486536731529 0  0.6597158444154962 -0.4079299862797929 0  0.6850577129656196 -0.3916860036932824 0  0.7091766698950938 -0.374913392224858 0  0.7306170501074836 -0.3527036088608314 0  0.7496029796087015 -0.3292976094013341 0  0.7605393351263844 -0.301137395892741 0  0.7695976887406826 -0.2728303106768034 0  0.7735873672523597 -0.2422798578094874 0  0.7760712646763163 -0.2075049663017139 0  0.7803050580059998 0.234335394359604 0  0.7806081515234191 0.1950863049188685 0  0.7822723427338261 0.1554922355270436 0  0.7843859033504529 0.1154471459794722 0  0.7866441350734904 0.07487481134201075 0  0.7874932000009801 0.03388125488535482 0  0.7870325735279275 -0.00721368153836557 0  0.7852627047392156 -0.04818559845609714 0  0.7821744431677994 -0.08870560025175905 0  0.7792963504030711 -0.128714563631782 0  0.776928631162389 -0.1682715043711214 0  0.7814657550526649 0.2540596854360414 0  0.7802329554778001 0.2147415008830246 0  0.7833125010465614 0.1355295327172716 0  0.7872313336200799 0.05440597732189052 0  0.7863149405394207 -0.0277298702103711 0  0.7807197209868749 -0.1087730561039469 0  0.7762675290209439 -0.1879203087551275 0  0.781356658561285 0.1753419675581009 0  0.7855962147992885 0.0952492902986064 0  0.7874217696225927 0.01333260604749654 0  0.7837713179811605 -0.06853321589173965 0  0.7780240295257674 -0.1485469457922853 0  0.6582340161583807 0.4439939835219349 0  0.7758043450816653 0.3156051219125604 0  0.7496512299963529 0.3701356058923812 0  0.7075637685115674 0.4134919351037978 0  0.777726475770485 0.2844444037468305 0  0.7614180788764653 0.3417922110931352 0  0.7296751227778968 0.3929493554978569 0  0.6832615702129012 0.4291029468251844 0  0.7791174815959988 0.2691551604636752 0  0.7760531585698859 0.2998132927571079 0  0.7679204963029246 0.3285033210559975 0  0.7571591853376146 0.3567597808667604 0  0.7392900634693708 0.3807017057730069 0  0.7187099608376879 0.4033349174007947 0  0.6953463322756831 0.4206494659132184 0  0.6707175636830963 0.4369934245239554 0  -0.03136307512016401 0.8409898129547317 0  0.6117022314330041 0.4783718246240398 0  0.5799777622093381 0.505104552111626 0  0.5476966426853103 0.5337169087947958 0  0.5146149083844996 0.5639084831917278 0  0.4803540992211162 0.5951573644745357 0  0.4446681686139009 0.6270825597156896 0  0.4072903910050099 0.6592873433333324 0  0.3678861536822633 0.6913679522699044 0  0.3260794367483918 0.7223325941952219 0  0.2817410022438951 0.7515156103338283 0  0.2347799382186107 0.7780721419758524 0  0.1852244321003953 0.8012710127495389 0  0.1332773381641172 0.8197372593501424 0  0.07943462318583533 0.8328026865698853 0  0.02433162301807641 0.8398632102022759 0  0.6430797967886824 0.4543611311969697 0  -0.08675875159733484 0.834998425103636 0  -0.1409361993068957 0.8227418287940151 0  -0.1931923078079088 0.8049076094189171 0  -0.2428023030218499 0.7814852650373083 0  -0.2899015523829472 0.7558327695379344 0  -0.3344269876740434 0.7276039947967191 0  -0.376498955741213 0.6976008217296435 0  -0.4162398511629182 0.6663251666412628 0  -0.454012581135785 0.6350547386520589 0  -0.4902241008857354 0.6040529714760763 0  -0.5251006042720551 0.5736462515688279 0  -0.5588713890058463 0.544163706800903 0  -0.5917498878703729 0.5159023726505232 0  -0.6239781895170013 0.4894024515356565 0  -0.655802537729361 0.4655375193817794 0  -0.6711350744670199 0.4552086037967351 0  -0.6396734275258932 0.4773268045956061 0  -0.5754193875647049 0.529942761761762 0  -0.5078153691846297 0.5887631018535588 0  -0.4353241212177503 0.6506647587047029 0  -0.3557529706239537 0.7127428580518147 0  -0.2666678467498854 0.7690409980285591 0  -0.1673247596250553 0.8143196357605997 0  -0.05915303724348461 0.838781834433344 0  0.05200407738129541 0.837139700496459 0  0.1595229543895169 0.8111105147874726 0  0.2585886056955328 0.7651791539359167 0  0.3472815652819091 0.7070132706334589 0  0.4262059007044613 0.6431764592250626 0  0.4976415701699038 0.5794274528899187 0  0.5639164252866677 0.5192891193434646 0  0.6271662208948752 0.4661878594920294 0  -0.6078805369135132 0.502597123199327 0  -0.5421118506050725 0.5587928061585078 0  -0.472302359306969 0.6195040180659332 0  -0.3966967334388971 0.6820986437709571 0  -0.3124744021633633 0.7419715636228302 0  -0.2185227618713891 0.7939938628697656 0  -0.1140409142942533 0.8295786107006098 0  -0.003445371735515629 0.8412414801242921 0  0.106557463101767 0.8269855400917169 0  0.2103483564149291 0.7902239158275924 0  0.3042350318955694 0.7372006190404387 0  0.3878899325844585 0.6754117897493432 0  0.4627050972160832 0.611063473288031 0  0.531298804744333 0.548668811118724 0  0.5958450097149578 0.4916589103598087 0  -0.79692329743755 0.2656456132210128 0  -0.7208697041424521 0.424539650469257 0  -0.763532070381606 0.381344894817423 0  -0.7903734826876643 0.3271151254502979 0  -0.6964204368104269 0.440268273782525 0  -0.7432889577669076 0.4041538003879988 0  -0.7754048935839952 0.3529942048834069 0  -0.7926242348500957 0.295984278111479 0  -0.6837568056647222 0.4482240581979261 0  -0.7085873942424195 0.4317249625355563 0  -0.7321798100786451 0.4144803594440744 0  -0.7530517214467135 0.3919043121038697 0  -0.771354193359215 0.3681150029876283 0  -0.782119757479157 0.339858651029569 0  -0.7906696672575793 0.3113232634654883 0  -0.7942082546174063 0.2806988689813773 0  -0.7960914944176762 0.245875667157745 0  -0.7963088559534119 -0.1961758987594599 0  -0.7968826277053034 -0.1569480181560575 0  -0.7988970100921404 -0.117374572748406 0  -0.8013860770243092 -0.07733923375283121 0  -0.8040417657210419 -0.03677845780309889 0  -0.8053319298504781 0.004222823270635091 0  -0.8053194852364638 0.04533884144096395 0  -0.8040085730809505 0.08634657304505211 0  -0.8013454445901538 0.1269273526132856 0  -0.798819081048471 0.1669929341145585 0  -0.7967414290969385 0.2066047070576009 0  -0.7972203028390983 -0.2159233002663302 0  -0.7963642566168363 -0.1765950235996769 0  -0.8001275813638534 -0.09741950517948859 0  -0.8048508045707813 -0.01630714625196899 0  -0.8048272237906665 0.06587108680103011 0  -0.8000706526823077 0.1470214019711541 0  -0.7961853399478069 0.2262721735270306 0  -0.7978026023460465 -0.1372158793950715 0  -0.8027814648766846 -0.05714777479734999 0  -0.80548366157031 0.02478047280359788 0  -0.8027463309749653 0.106723303407288 0  -0.7976974102201192 0.1868524854080816 0  -0.7907020774021449 -0.2773251061444389 0  -0.7636982824604073 -0.3313657008973839 0  -0.7209183871522212 -0.3742213207622586 0  -0.7930128582801125 -0.2462430176247052 0  -0.7757700795095281 -0.3031975260414629 0  -0.7433980805172539 -0.354051128755688 0  -0.6963442583675128 -0.3896593415254953 0  -0.7945767329928318 -0.2309708669855075 0  -0.7910789368722534 -0.2
[...]
<PointData  Vectors="PointNormal"> 
<DataArray  type="Float64"  Name="PointNormal"  NumberOfComponents="3" format="ascii">-6.3345696465482171e-01 -7.7377792287600200e-01 0.0000000000000000e+00  -4.3382474227441230e-02 -9.9905853728893446e-01 0.0000000000000000e+00  -1.4752201525847353e-01 -9.8905877227497396e-01 0.0000000000000000e+00  -2.4208164097850760e-01 -9.7025588331179569e-01 0.0000000000000000e+00  -3.2270587709463960e-01 -9.4649929576760883e-01 0.0000000000000000e+00  -3.9660022869761324e-01 -9.1799142621105179e-01 0.0000000000000000e+00  -4.8600835977092477e-01 -8.7395416025829142e-01 0.0000000000000000e+00  -5.4518291254502593e-01 -8.3831711891677518e-01 0.0000000000000000e+00  -5.8726049581824180e-01 -8.0939799236921306e-01 0.0000000000000000e+00  6.3404774998379376e-02 -9.9798789296634505e-01 0.0000000000000000e+00  -6.3946378618039068e-01 -7.6882121859626096e-01 0.0000000000000000e+00  -6.5266660973602331e-01 -7.5764523131587480e-01 0.0000000000000000e+00  -6.5764809074765529e-01 -7.5332528746615413e-01 0.0000000000000000e+00  -6.5353313049525519e-01 -7.5689791078128354e-01 0.0000000000000000e+00  -6.3959580707211794e-01 -7.6871139160010249e-01 0.0000000000000000e+00  -6.1813482389487451e-01 -7.8607209560475599e-01 0.0000000000000000e+00  -5.6982919707688029e-01 -8.2176315697329605e-01 0.0000000000000000e+00  4.8753182528409583e-01 -8.7310521664640039e-01 0.0000000000000000e+00  1.6700450122092220e-01 -9.8595613318846542e-01 0.0000000000000000e+00  2.6425794634055189e-01 -9.6445204017404296e-01 0.0000000000000000e+00  3.5146519303340673e-01 -9.3620094962886580e-01 0.0000000000000000e+00  4.2595657184429508e-01 -9.0474360948428689e-01 0.0000000000000000e+00  4.8420829982025304e-01 -8.7495275437316045e-01 0.0000000000000000e+00  5.3181423502761338e-01 -8.4686103902706156e-01 0.0000000000000000e+00  5.6883400398825534e-01 -8.2245235479430023e-01 0.0000000000000000e+00  5.9463267250988749e-01 -8.0399750297109074e-01 0.0000000000000000e+00  6.1118631555782255e-01 -7.9148675773815302e-01 0.0000000000000000e+00  6.2040776181931367e-01 -7.8427942027975572e-01 0.0000000000000000e+00  6.2342276829346821e-01 -7.8188493525154235e-01 0.0000000000000000e+00  6.1784886420081708e-01 -7.8629687841537332e-01 0.0000000000000000e+00  6.0775138735447365e-01 -7.9412735198374362e-01 0.0000000000000000e+00  5.8557403402259689e-01 -8.1061893061937706e-01 0.0000000000000000e+00  5.4096353793863883e-01 -8.4104604548200024e-01 0.0000000000000000e+00  5.6517538314999594e-01 -8.2497077904690375e-01 0.0000000000000000e+00  -5.9570549372795856e-01 -8.0320294119377400e-01 0.0000000000000000e+00  -6.4785083615896932e-01 -7.6176721778252199e-01 0.0000000000000000e+00  -6.5608056856835584e-01 -7.5469085561375582e-01 0.0000000000000000e+00  -6.3422441057492163e-01 -7.7314901347081422e-01 0.0000000000000000e+00  -5.7045470001276544e-01 -8.2132906635120728e-01 0.0000000000000000e+00  -4.4746229698933698e-01 -8.9430279702851567e-01 0.0000000000000000e+00  -2.8693733957755069e-01 -9.5794935312685359e-01 0.0000000000000000e+00  -9.6427991523489909e-02 -9.9533996325413654e-01 0.0000000000000000e+00  5.9940467374103479e-01 -8.0044614878041831e-01 0.0000000000000000e+00  3.0903428474977213e-01 -9.5105089813805266e-01 0.0000000000000000e+00  4.5623230852756075e-01 -8.8986070856938770e-01 0.0000000000000000e+00  5.5118577257450918e-01 -8.3438255261686867e-01 0.0000000000000000e+00  6.0380772085473433e-01 -7.9712999958363828e-01 0.0000000000000000e+00  6.2258467058268263e-01 -7.8255244422048331e-01 0.0000000000000000e+00  6.1529543199341108e-01 -7.8829660113947064e-01 0.0000000000000000e+00  1.1563533110816367e-01 -9.9329173468800458e-01 0.0000000000000000e+00  -5.1800534302672074e-01 -8.5537738139126029e-01 0.0000000000000000e+00  6.2206470211331499e-01 -7.8296583985808255e-01 0.0000000000000000e+00  6.1667806232584310e-01 -7.8721545173227103e-01 0.0000000000000000e+00  5.8365072287246000e-01 -8.1200482368669147e-01 0.0000000000000000e+00  5.0940256651137350e-01 -8.6052834074865048e-01 0.0000000000000000e+00  3.9149149176081655e-01 -9.2018172763801964e-01 0.0000000000000000e+00  2.1665518782598528e-01 -9.7624819056840617e-01 0.0000000000000000e+00  1.0340545503550716e-02 -9.9994653513009824e-01 0.0000000000000000e+00  -1.9703379559852560e-01 -9.8039669695079990e-01 0.0000000000000000e+00  -3.4971660321982517e-01 -9.3685553711999126e-01 0.0000000000000000e+00  -5.1669670334249596e-01 -8.5616850955579804e-01 0.0000000000000000e+00  -6.1491802228489167e-01 -7.8859103841550060e-01 0.0000000000000000e+00  -6.4677053919339400e-01 -7.6268464625393251e-01 0.0000000000000000e+00  -6.5812994160983329e-01 -7.5290436308779451e-01 0.0000000000000000e+00  -6.3050072854163552e-01 -7.7618865703414330e-01 0.0000000000000000e+00  9.9631141898488396e-01 -8.5811167107358588e-02 0.0000000000000000e+00  5.6874770479081005e-01 -8.2251203534974826e-01 0.0000000000000000e+00  7.7567921633089520e-01 -6.3112736698093530e-01 0.0000000000000000e+00  9.5084081495177775e-01 -3.0968006817010246e-01 0.0000000000000000e+00  5.3971530780898924e-01 -8.4184760290485350e-01 0.0000000000000000e+00  7.1858752385577596e-01 -6.9543653237288650e-01 0.0000000000000000e+00  9.3065968862555559e-01 -3.6588597126343053e-01 0.0000000000000000e+00  9.9158510813313105e-01 -1.2945645340656764e-01 0.0000000000000000e+00  4.8435279939057041e-01 -8.7487277116305195e-01 0.0000000000000000e+00  5.2599971881808272e-01 -8.5048474166401000e-01 0.0000000000000000e+00  6.5382814164015612e-01 -7.5664308706244054e-01 0.0000000000000000e+00  7.3403356296365796e-01 -6.7911319265854164e-01 0.0000000000000000e+00  9.1725433961971481e-01 -3.9830199152000345e-01 0.0000000000000000e+00  8.5176894481928045e-01 -5.2391761245586077e-01 0.0000000000000000e+00  9.9646166423230831e-01 -8.4048508109176981e-02 0.0000000000000000e+00  9.8771936666852711e-01 -1.5623844823833771e-01 0.0000000000000000e+00  9.9996181901274717e-01 8.7384504757847467e-03 0.0000000000000000e+00  9.9951241257319712e-01 -3.1223982963536779e-02 0.0000000000000000e+00  9.9959421025611839e-01 2.8485343993830615e-02 0.0000000000000000e+00  9.9879591339755314e-01 4.9058367077875052e-02 0.0000000000000000e+00  9.9839722382058427e-01 5.6594906726224511e-02 0.0000000000000000e+00  9.9919876078790537e-01 4.0022948915767985e-02 0.0000000000000000e+00  9.9998923116891780e-01 4.6408561921956132e-03 0.0000000000000000e+00  9.9963680674142552e-01 -2.6949111447429737e-02 0.0000000000000000e+00  9.9806126075351220e-01 -6.2239214190971628e-02 0.0000000000000000e+00  9.9713757030725370e-01 -7.5608636290749057e-02 0.0000000000000000e+00  9.9771185590545863e-01 -6.7609559869040159e-02 0.0000000000000000e+00  9.9900756802320090e-01 -4.4540756980203620e-02 0.0000000000000000e+00  9.9885908223941455e-01 4.7754935114964647e-02 0.0000000000000000e+00  9.9997032915204498e-01 7.7032990043797451e-03 0.0000000000000000e+00  9.9861017125798768e-01 5.2704135132762231e-02 0.0000000000000000e+00  9.9978537468613815e-01 2.0717252802877811e-02 0.0000000000000000e+00  9.9906791075417034e-01 -4.3166071182089032e-02 0.0000000000000000e+00  9.9742271731068755e-01 -7.1749027816161756e-02 0.0000000000000000e+00  9.9976179797790221e-01 -2.1825382104156230e-02 0.0000000000000000e+00  9.9911834080696049e-01 4.1982628111475032e-02 0.0000000000000000e+00  9.9845363694298928e-01 5.5590780488471457e-02 0.0000000000000000e+00  9.9993718942857202e-01 -1.1207907819394510e-02 0.0000000000000000e+00  9.9710726449976705e-01 -7.6007256770598608e-02 0.0000000000000000e+00  9.9821419552709456e-01 -5.9736252378229229e-02 0.0000000000000000e+00  5.2739603417856695e-01 8.4961957553526268e-01 0.0000000000000000e+00  9.6044580581258143e-01 2.7846697128568249e-01 0.0000000000000000e+00  7.9997390334075014e-01 6.0003479396928650e-01 0.0000000000000000e+00  5.9275282659965667e-01 8.0538443401776605e-01 0.0000000000000000e+00  9.9504504671704852e-01 9.9425122599204233e-02 0.0000000000000000e+00  9.3371696063626219e-01 3.5801206323276430e-01 0.0000000000000000e+00  7.3911128320214814e-01 6.7358333637588907e-01 0.0000000000000000e+00  5.5298633198653679e-01 8.3319032437737517e-01 0.0000000000000000e+00  9.9250294780994153e-01 1.2222069623666974e-01 0.0000000000000000e+00  9.9807228221322408e-01 6.2062222629281266e-02 0.0000000000000000e+00  8.7669374520107102e-01 4.8104893423155981e-01 0.0000000000000000e+00  9.2324681161428868e-01 3.8420739821618510e-01 0.0000000000000000e+00  7.5142305011860311e-01 6.5982073304076716e-01 0.0000000000000000e+00  6.8063445115799270e-01 7.3262319366565110e-01 0.0000000000000000e+00  5.3977839331768296e-01 8.4180715493952696e-01 0.0000000000000000e+00  5.1094675415439261e-01 8.5961236288171805e-01 0.0000000000000000e+00  -4.4135750824454763e-02 9.9902554296632551e-01 0.0000000000000000e+00  6.3063949868900526e-01 7.7607591297068368e-01 0.0000000000000000e+00  6.5425728491088109e-01 7.5627204440005735e-01 0.0000000000000000e+00  6.6921428795131388e-01 7.4306946970106091e-01 0.0000000000000000e+00  6.7460411760500516e-01 7.3817971017251094e-01 0.0000000000000000e+00  6.7124073523681871e-01 7.4123941837893037e-01 0.0000000000000000e+00  6.6058111060950431e-01 7.5075468450480809e-01 0.0000000000000000e+00  6.4381137650173825e-01 7.6518423368946697e-01 0.0000000000000000e+00  6.1420066519917871e-01 7.8914988618695658e-01 0.0000000000000000e+00  5.7421965717691525e-01 8.1870127965676587e-01 0.0000000000000000e+00  5.2264412196771715e-01 8.5255094966376876e-01 0.0000000000000000e+00  4.6083089311382075e-01 8.8748796496173299e-01 0.0000000000000000e+00  3.8013460840592495e-01 9.2493117554338822e-01 0.0000000000000000e+00  2.8713195730523694e-01 9.5789103717179835e-01 0.0000000000000000e+00  1.8300493201461848e-01 9.8311199507397173e-01 0.0000000000000000e+00  7.3773931578712412e-02 9.9727499067179026e-01 0.0000000000000000e+00  5.8067154930302955e-01 8.1413791941538949e-01 0.0000000000000000e+00  -1.6539043837240652e-01 9.8622816979387851e-01 0.0000000000000000e+00  -2.7533157102821532e-01 9.6134932568506792e-01 0.0000000000000000e+00  -3.6896153079549121e-01 9.2944466688073901e-01 0.0000000000000000e+00  -4.6016960404931007e-01 8.8783102869245412e-01 0.0000000000000000e+00  -5.0882077483401100e-01 8.6087247551383395e-01 0.0000000000000000e+00  -5.5973508589448739e-01 8.2867160782706362e-01 0.0000000000000000e+00  -5.9924581263477961e-01 8.0056508544882388e-01 0.0000000000000000e+00  -6.3121368604995387e-01 7.7560897528537553e-01 0.0000000000000000e+00  -6.4441561149806170e-01 7.6467543419255934e-01 0.0000000000000000e+00  -6.5449175985355912e-01 7.5606913459272440e-01 0.0000000000000000e+00  -6.5801545311591492e-01 7.5300442459567074e-01 0.0000000000000000e+00  -6.5468856703418388e-01 7.5589872350383480e-01 0.0000000000000000e+00  -6.4415736651693623e-01 7.6489299066076266e-01 0.0000000000000000e+00  -6.2192928547098858e-01 7.8307340899403910e-01 0.0000000000000000e+00  -5.7451136399491565e-01 8.1849660514916101e-01 0.0000000000000000e+00  -5.2194485249156730e-01 8.5297923243040097e-01 0.0000000000000000e+00  -5.9998981198133816e-01 8.0000764091263432e-01 0.0000000000000000e+00  -6.5185185934605028e-01 7.5834632818198378e-01 0.0000000000000000e+00  -6.5716296624260806e-01 7.5374852291677286e-01 0.0000000000000000e+00  -6.3771467499747325e-01 7.7027267463727866e-01 0.0000000000000000e+00  -5.8067325708636686e-01 8.1413670136206850e-01 0.0000000000000000e+00  -4.7836218497414124e-01 8.7816263868759836e-01 0.0000000000000000e+00  -3.2305197275576497e-01 9.4638122492926102e-01 0.0000000000000000e+00  -1.0753612977388799e-01 9.9420117722383206e-01 0.0000000000000000e+00  1.2711239258475346e-01 9.9188832015070094e-01 0.0000000000000000e+00  3.3499168996506778e-01 9.4222108215341271e-01 0.0000000000000000e+00  4.9230141433517527e-01 8.7042479137693796e-01 0.0000000000000000e+00  5.9523909850312762e-01 8.0354863923298625e-01 0.0000000000000000e+00  6.5276805263164805e-01 7.5755783242171426e-01 0.0000000000000000e+00  6.7389155806154644e-01 7.3883027007113189e-01 0.0000000000000000e+00  6.6329296349702782e-01 7.4835983629222802e-01 0.0000000000000000e+00  6.0774659982247103e-01 7.9413101589361523e-01 0.0000000000000000e+00  -6.3511832480301189e-01 7.7241485841445057e-01 0.0000000000000000e+00  -6.5765864953068875e-01 7.5331606958664488e-01 0.0000000000000000e+00  -6.5036654884020784e-01 7.5962053167991550e-01 0.0000000000000000e+00  -6.1850663345927348e-01 7.8577957746869187e-01 0.0000000000000000e+00  -5.3550745812823697e-01 8.4453049814025938e-01 0.0000000000000000e+00  -4.2709065285001502e-01 9.0420881119802621e-01 0.0000000000000000e+00  -2.2068445694891156e-01 9.7534525705575870e-01 0.0000000000000000e+00  2.0280654392931138e-02 9.9979432637787780e-01 0.0000000000000000e+00  2.3584106329637700e-01 9.7179164066338541e-01 0.0000000000000000e+00  4.2404230484805905e-01 9.0564238179269518e-01 0.0000000000000000e+00  5.4984525525548844e-01 8.3526654145429935e-01 0.0000000000000000e+00  6.3141444855245898e-01 7.7544554557956824e-01 0.0000000000000000e+00  6.6676539889568431e-01 7.4526767193772669e-01 0.0000000000000000e+00  6.7410217363060698e-01 7.3863811132820034e-01 0.0000000000000000e+00  6.4437529675194694e-01 7.6470940685716704e-01 0.0000000000000000e+00  -9.9767546111368444e-01 6.8144510355547000e-02 0.0000000000000000e+00  -5.8763218947396045e-01 8.0912817890247735e-01 0.0000000000000000e+00  -7.9133974441804988e-01 6.1137665060449875e-01 0.0000000000000000e+00  -9.5629249670937921e-01 2.9241179992835792e-01 0.0000000000000000e+00  -5.5349427799704065e-01 8.3285297875707620e-01 0.0000000000000000e+00  -7.3346012316643128e-01 6.7973248246989304e-01 0.0000000000000000e+00  -9.3335253845075561e-01 3.5896105494542263e-01 0.0000000000000000e+00  -9.9339462696984582e-01 1.1474805056052524e-01 0.0000000000000000e+00  -5.0827250064318297e-01 8.6119629881341553e-01 0.0000000000000000e+00  -5.4026745060309955e-01 8.4149336409672737e-01 0.0000000000000000e+00  -6.7274955097463252e-01 7.3987028705269031e-01 0.0000000000000000e+00  -7.4699044386678204e-01 6.6483477403916535e-01 0.0000000000000000e+00  -9.2189581935518694e-01 3.8743786373485556e-01 0.0000000000000000e+00  -8.6599778884202105e-01 5.0004782743326692e-01 0.0000000000000000e+00  -9.9735506293874343e-01 7.2683412347352400e-02 0.0000000000000000e+00  -9.9009667740152718e-01 1.4038721237511675e-01 0.0000000000000000e+00  -9.9982644636757001e-01 -1.8630006548488651e-02 0.0000000000000000e+00  -9.9976572116506102e-01 2.1644925116652770e-02 0.0000000000000000e+00  -9.9933454126146615e-01 -3.6475671916154598e-02 0.0000000000000000e+00  -9.9829837460006265e-01 -5.8312565291479677e-02 0.0000000000000000e+00  -9.9783630622831476e-01 -6.5747288709366608e-02 0.0000000000000000e+00  -9.9871771986795088e-01 -5.0625250831589107e-02 0.0000000000000000e+00  -9.9988133275213775e-01 -1.5405207360133583e-02 0.0000000000000000e+00  -9.9987235332226210e-01 1.5977392209038217e-02 0.0000000000000000e+00  -9.9870418952921169e-01 5.0891470963221601e-02 0.0000000000000000e+00  -9.9780354049757614e-01 6.6242694468914148e-02 0.0000000000000000e+00  -9.9823021385741018e-01 5.9467975770064727e-02 0.0000000000000000e+00  -9.9926610916489433e-01 3.8304609049740541e-02 0.0000000000000000e+00  -9.9795961018040691e-01 -6.3848386421038947e-02 0.0000000000000000e+00  -9.9989336767244819e-01 -1.4603194330358166e-02 0.0000000000000000e+00  -9.9807302000018361e-01 -6.2050356547833002e-02 0.0000000000000000e+00  -9.9950500142487042e-01 -3.1460326232729360e-02 0.0000000000000000e+00  -9.9948914439685110e-01 3.1960135056823047e-02 0.0000000000000000e+00  -9.9801797237283996e-01 6.2929538539586383e-02 0.0000000000000000e+00  -9.9986343070827211e-01 1.6526340559368229e-02 0.0000000000000000e+00  -9.9870762993384321e-01 -5.0823910828719891e-02 0.0000000000000000e+00  -9.9786244796406642e-01 -6.5349330089610511e-02 0.0000000000000000e+00  -9.9999995424129295e-01 3.0251844911347719e-04 0.0000000000000000e+00  -9.9785261883992993e-01 6.5499244837583154e-02 0.0000000000000000e+00  -9.9862792762357599e-01 5.2366613125559285e-02 0.0000000000000000e+00  -9.5580578870979871e-01 -2.9399879977448812e-01 0.0000000000000000e+00  -7.8879481349860359e-01 -6.1465660510377929e-01 0.0000000000000000e+00  -5.8156661344906158e-01 -8.1349878556847877e-01 0.0000000000000000e+00  -9.9353060539224092e-01 -1.1356467826277450e-01 0.0000000000000000e+00  -9.3124022997614564e-01 -3.6440586448899975e-01 0.0000000000000000e+00  -7.2920040145296683e-01 -6.8430020789185220e-01 0.0000000000000000e+00  -5.4142450531251274e-01 -8.4074937112501069e-01 0.0000000000000000e+00  -9.9049647287128029e-01 -1.3753813009326935e-01 0.0000000000000000e+00  -9.9720828605754042e-01 -7.4670169533640390e-02 0.0000000000000000e+00  -8.6644076110477952e-01 -4.9927988893622627e-01 0.0000000000000000e+00  -9.1863645119076720e-01 -3.9510387310634287e-01 0.0000000000000000e+00  -7.4428434335795246e-01 -6.6786287232651398e-01 0.0000000000000000e+00  -6.6782964157094071e-01 -7.4431416071389433e-01 0.0000000000000000e+00  -5.3124669725934293e-01 -8.4721717797211826e-01 0.0000000000000000e+00  -4.9865875687756800e-01 -8.6679838727890957e-01 0.0000000000000000e+00  0.0000000000000000e+00 0.0000000000000000e+00 0.0000000000000000e+00  0.0000000000000000e+00 0.0000000000000000e+00 0.0000000000000000e+00  0.0000000000000000e+00 0.0000000000000000e+00 0.0000000000000000e+00  0.0000000000000000e+00 0.0000000000000000e+00 0.0000000000000000e+00  0.0000000000000000e+00 0.0000000000000000e+00 0.0000000000000000e+00  0.0000000000000000e+00 0.0000000000000000e+00 0.0000000000000000e+00  0.0000000000000000e+00 0.0000000000000000e+00 0.0000000000000000e+00  0.0000000000000000e+00 0.0000000000000000e+00 0.0000000000000000e+00  0.0000000000000000e+00 0.0000000000000000e+00 0.0000000000000000e+00  0.0000000000000000e+00 0.0000000000000000e+00 0.0000000000000000e+00  0.0000000000000000e+00 0.0000000000000000e+00 0.0000000000000000e+00  0.0000000000000000e+00 0.0000000000000000e+00 0.0000000000000000e+00  0.0000000000000000e+00 0.0000000000000000e+00 0.0000000000000000e+00  0.0000000000000000e+00 0.0000000000000000e+00 0.0000000000000000e+00  0.0000000000000000e+00 0.0000000000000000e+00 0.0000000000000000e+00  0.0000000000000000e+00 0.0000000000000000e+00 0.0000000000000000e+00  0.0000000000000000e+00 0.0000000000000000e+00 0.0000000000000000e+00  0.0000000000000000e+00 0.0000000000000000e+00 0.0000000000000000e+00  0.0000000000000000e+00 0.0000000000000000e+00 0.0000000000000000e+00  0.0000000000000000e+00 0.0000000000000000e+00 0.0000000000000000e+00  0.0000000000000000e+00 0.0000000000000000e+00 0.0000000000000000e+00  0.0000000000000000e+00 0.0000000000000000e+00 0.0000000000000000e+00  0.0000000000000000e+00 0.0000000000000000e+00 0.0000000000000000e+00  0.0000000000000000e+00 0.0000000000000000e+00 0.0000000000000000e+00  0.0000000000000000e+00 0.0000000000000000e+00 0.0000000000000000e+00  0.0000000000000000e+00 0.0000000000000000e+00 0.0000000000000000e+00  0.0000000000000000e+00 0.0000000000000000e+00 0.0000000000000000e+00  0.0000000000000000e+00 0.0000000000000000e+00 0.0000000000000000e+00  0.0000000000000000e+00 0.0000000000000000e+00 0.0000000000000000e+00  0.0000000000000000e+00 0.0000000000000000e+00 0.0000000000000000e+00  0.0000000000000000e+00 0.0000000000000000e+00 0.0000000000000000e+00  0.0000000000000000e+00 0.0000000000000000e+00 0.0000000000000000e+00  0.0000000000000000e+00 0.0000000000000000e+00 0.0000000000000000e+00  0.0000000000000000e+00 0.0000000000000000e+00 0.0000000000000000e+00  0.0000000000000000e+00 0.0000000000000000e+00 0.0000000000000000e+00  0.0000000000000000e+00 0.0000000000000000e+00 0.0000000000000000e+00  0.0000000000000000e+00 0.0000000000000000e+00 0.0000000000000000e+00  0.0000000000000000e+00 0.0000000000000000e+00 0.0000000000000000e+00  0.0000000000000000e+00 0.0000000000000000e+00 0.0000000000000000e+00  0.0000000000000000e+00 0.0000000000000000e+00 0.0000000000000000e+00  0.0000000000000000e+00 0.00000000000000