<?xml version="1.0"?>
<VTKFile type="UnstructuredGrid"  version="0.1"  >
<UnstructuredGrid>
<Piece  NumberOfPoints="4153" NumberOfCells="8064">
<Points>
<DataArray  type="Float64"  NumberOfComponents="3"  format="ascii">-0.4165347785222364 -0.613401648226971 0  -0.04099304824422027 -0.7722407398746218 0  -0.09351244346023609 -0.767153817587131 0  -0.1450379289441212 -0.7568000196475065 0  -0.1951326841404628 -0.7417954016291269 0  -0.2438373838255105 -0.7236114516303235 0  -0.2905435463802378 -0.7002438557519499 0  -0.3348640832418084 -0.6734995366494188 0  -0.3768087057166181 -0.6443713556135343 0  0.01189058603598477 -0.7716934241257691 0  -0.4541235269658548 -0.5825679485661336 0  -0.4902823766968641 -0.5519065037295715 0  -0.5250647472872214 -0.5216695971066138 0  -0.5586812209912349 -0.49228480165377 0  -0.5915256567856094 -0.4643516274815465 0  -0.6238035137200834 -0.4381320469047573 0  -0.6556651658827182 -0.4145044435285733 0  0.6466955592935704 -0.4145090241506751 0  0.06445768824954931 -0.7655738279935532 0  0.1160594100188383 -0.7541228737499055 0  0.1661386275426046 -0.7378519142320641 0  0.2142657513404594 -0.7173791997841928 0  0.2602593469630198 -0.693801322701697 0  0.3041077735587658 -0.6678477430708101 0  0.3458936256180964 -0.6402472276869854 0  0.3857309335340235 -0.6116158600503823 0  0.4239313844403835 -0.5826818912593261 0  0.4607210063443541 -0.5538633167873374 0  0.4963360245331541 -0.5255290917229124 0  0.5309472708240284 -0.4980298995713341 0  0.5648033862231363 -0.4716040950557671 0  0.5980363568814769 -0.4467179452336343 0  0.6308757418266603 -0.4242223795380888 0  0.6142718727830243 -0.4354001793111896 0  -0.6394958130393239 -0.4261346552358352 0  -0.5751743594540566 -0.4782234309999394 0  -0.5078195966035699 -0.5367104134684134 0  -0.4354821002800561 -0.5979256864003961 0  -0.3561339137013718 -0.6590660458815746 0  -0.2674802454995649 -0.7124290573232606 0  -0.1702835653275308 -0.7499327798945455 0  -0.06734093501393207 -0.7703863915769058 0  0.5814432303889747 -0.4591342536281447 0  0.1413184051680378 -0.7465420106961951 0  0.2375326561688146 -0.705937804266121 0  0.3252419466040861 -0.654213952548011 0  0.4050258054130389 -0.5971683780177921 0  0.4786546501983402 -0.539632315271713 0  0.5479795353387531 -0.4847513635002508 0  0.03825568018500249 -0.7693225222464032 0  -0.6710512328722459 -0.4042237593191365 0  0.5137446643744001 -0.5116538012641479 0  0.442485703482461 -0.5682432835305702 0  0.3660419606152912 -0.6259985964269199 0  0.2824490113829434 -0.681083833929931 0  0.1904755346799469 -0.7280894225580855 0  0.0904170283711057 -0.7604876753532736 0  -0.01455208358912439 -0.7726778131791677 0  -0.1194331422271492 -0.7626180542271649 0  -0.219553793292917 -0.7331372909770525 0  -0.3129716228330164 -0.6871337691993371 0  -0.3971493785910579 -0.629307834398496 0  -0.4723924835512781 -0.5672274440338622 0  -0.5420192387654511 -0.50685457387291 0  -0.6076583402432415 -0.4511878491214101 0  0.7766154629012088 -0.2272903576533481 0  0.697564542596316 -0.3846744727550025 0  0.7413572430552453 -0.3422640518237636 0  0.7692333954795871 -0.28860834786875 0  0.6726422797992267 -0.4001220794286074 0  0.7205580916057128 -0.3648044037303279 0  0.7535398826920698 -0.3140645108491696 0  0.7718324838310978 -0.2575486536731529 0  0.6597158444154962 -0.4079299862797929 0  0.6850577129656196 -0.3916860036932824 0  0.7091766698950938 -0.374913392224858 0  0.7306170501074836 -0.3527036088608314 0  0.7496029796087015 -0.3292976094013341 0  0.7605393351263844 -0.301137395892741 0  0.7695976887406826 -0.2728303106768034 0  0.7735873672523597 -0.2422798578094874 0  0.7760712646763163 -0.2075049663017139 0  0.7803050580059998 0.234335394359604 0  0.7806081515234191 0.1950863049188685 0  0.7822723427338261 0.1554922355270436 0  0.7843859033504529 0.1154471459794722 0  0.7866441350734904 0.07487481134201075 0  0.7874932000009801 0.03388125488535482 0  0.7870325735279275 -0.00721368153836557 0  0.7852627047392156 -0.04818559845609714 0  0.7821744431677994 -0.08870560025175905 0  0.7792963504030711 -0.128714563631782 0  0.776928631162389 -0.1682715043711214 0  0.7814657550526649 0.2540596854360414 0  0.7802329554778001 0.2147415008830246 0  0.7833125010465614 0.1355295327172716 0  0.7872313336200799 0.05440597732189052 0  0.7863149405394207 -0.0277298702103711 0  0.7807197209868749 -0.1087730561039469 0  0.7762675290209439 -0.1879203087551275 0  0.781356658561285 0.1753419675581009 0  0.7855962147992885 0.0952492902986064 0  0.7874217696225927 0.01333260604749654 0  0.7837713179811605 -0.06853321589173965 0  0.7780240295257674 -0.1485469457922853 0  0.6582340161583807 0.4439939835219349 0  0.7758043450816653 0.3156051219125604 0  0.7496512299963529 0.3701356058923812 0  0.7075637685115674 0.4134919351037978 0  0.777726475770485 0.2844444037468305 0  0.7614180788764653 0.3417922110931352 0  0.7296751227778968 0.3929493554978569 0  0.6832615702129012 0.4291029468251844 0  0.7791174815959988 0.2691551604636752 0  0.7760531585698859 0.2998132927571079 0  0.7679204963029246 0.3285033210559975 0  0.7571591853376146 0.3567597808667604 0  0.7392900634693708 0.3807017057730069 0  0.7187099608376879 0.4033349174007947 0  0.6953463322756831 0.4206494659132184 0  0.6707175636830963 0.4369934245239554 0  -0.03136307512016401 0.8409898129547317 0  0.6117022314330041 0.4783718246240398 0  0.5799777622093381 0.505104552111626 0  0.5476966426853103 0.5337169087947958 0  0.5146149083844996 0.5639084831917278 0  0.4803540992211162 0.5951573644745357 0  0.4446681686139009 0.6270825597156896 0  0.4072903910050099 0.6592873433333324 0  0.3678861536822633 0.6913679522699044 0  0.3260794367483918 0.7223325941952219 0  0.2817410022438951 0.7515156103338283 0  0.2347799382186107 0.7780721419758524 0  0.1852244321003953 0.8012710127495389 0  0.1332773381641172 0.8197372593501424 0  0.07943462318583533 0.8328026865698853 0  0.02433162301807641 0.8398632102022759 0  0.6430797967886824 0.4543611311969697 0  -0.08675875159733484 0.834998425103636 0  -0.1409361993068957 0.8227418287940151 0  -0.1931923078079088 0.8049076094189171 0  -0.2428023030218499 0.7814852650373083 0  -0.2899015523829472 0.7558327695379344 0  -0.3344269876740434 0.7276039947967191 0  -0.376498955741213 0.6976008217296435 0  -0.4162398511629182 0.6663251666412628 0  -0.454012581135785 0.6350547386520589 0  -0.4902241008857354 0.6040529714760763 0  -0.5251006042720551 0.5736462515688279 0  -0.5588713890058463 0.544163706800903 0  -0.5917498878703729 0.5159023726505232 0  -0.6239781895170013 0.4894024515356565 0  -0.655802537729361 0.4655375193817794 0  -0.6711350744670199 0.4552086037967351 0  -0.6396734275258932 0.4773268045956061 0  -0.5754193875647049 0.529942761761762 0  -0.5078153691846297 0.5887631018535588 0  -0.4353241212177503 0.6506647587047029 0  -0.3557529706239537 0.7127428580518147 0  -0.2666678467498854 0.7690409980285591 0  -0.1673247596250553 0.8143196357605997 0  -0.05915303724348461 0.838781834433344 0  0.05200407738129541 0.837139700496459 0  0.1595229543895169 0.8111105147874726 0  0.2585886056955328 0.7651791539359167 0  0.3472815652819091 0.7070132706334589 0  0.4262059007044613 0.6431764592250626 0  0.4976415701699038 0.5794274528899187 0  0.5639164252866677 0.5192891193434646 0  0.6271662208948752 0.4661878594920294 0  -0.6078805369135132 0.502597123199327 0  -0.5421118506050725 0.5587928061585078 0  -0.472302359306969 0.6195040180659332 0  -0.3966967334388971 0.6820986437709571 0  -0.3124744021633633 0.7419715636228302 0  -0.2185227618713891 0.7939938628697656 0  -0.1140409142942533 0.8295786107006098 0  -0.003445371735515629 0.8412414801242921 0  0.106557463101767 0.8269855400917169 0  0.2103483564149291 0.7902239158275924 0  0.3042350318955694 0.7372006190404387 0  0.3878899325844585 0.6754117897493432 0  0.4627050972160832 0.611063473288031 0  0.531298804744333 0.548668811118724 0  0.5958450097149578 0.4916589103598087 0  -0.79692329743755 0.2656456132210128 0  -0.7208697041424521 0.424539650469257 0  -0.763532070381606 0.381344894817423 0  -0.7903734826876643 0.3271151254502979 0  -0.6964204368104269 0.440268273782525 0  -0.7432889577669076 0.4041538003879988 0  -0.7754048935839952 0.3529942048834069 0  -0.7926242348500957 0.295984278111479 0  -0.6837568056647222 0.4482240581979261 0  -0.7085873942424195 0.4317249625355563 0  -0.7321798100786451 0.4144803594440744 0  -0.7530517214467135 0.3919043121038697 0  -0.771354193359215 0.3681150029876283 0  -0.782119757479157 0.339858651029569 0  -0.7906696672575793 0.3113232634654883 0  -0.7942082546174063 0.2806988689813773 0  -0.7960914944176762 0.245875667157745 0  -0.7963088559534119 -0.1961758987594599 0  -0.7968826277053034 -0.1569480181560575 0  -0.7988970100921404 -0.117374572748406 0  -0.8013860770243092 -0.07733923375283121 0  -0.8040417657210419 -0.03677845780309889 0  -0.8053319298504781 0.004222823270635091 0  -0.8053194852364638 0.04533884144096395 0  -0.8040085730809505 0.08634657304505211 0  -0.8013454445901538 0.1269273526132856 0  -0.798819081048471 0.1669929341145585 0  -0.7967414290969385 0.2066047070576009 0  -0.7972203028390983 -0.2159233002663302 0  -0.7963642566168363 -0.1765950235996769 0  -0.8001275813638534 -0.09741950517948859 0  -0.8048508045707813 -0.01630714625196899 0  -0.8048272237906665 0.06587108680103011 0  -0.8000706526823077 0.1470214019711541 0  -0.7961853399478069 0.2262721735270306 0  -0.7978026023460465 -0.1372158793950715 0  -0.8027814648766846 -0.05714777479734999 0  -0.80548366157031 0.02478047280359788 0  -0.8027463309749653 0.106723303407288 0  -0.7976974102201192 0.1868524854080816 0  -0.7907020774021449 -0.2773251061444389 0  -0.7636982824604073 -0.3313657008973839 0  -0.7209183871522212 -0.3742213207622586 0  -0.7930128582801125 -0.2462430176247052 0  -0.7757700795095281 -0.3031975260414629 0  -0.7433980805172539 -0.354051128755688 0  -0.6963442583675128 -0.3896593415254953 0  -0.7945767329928318 -0.2309708669855075 0  -0.7910789368722534 -0.2
[...]
<PointData  Vectors="f_3796"> 
<DataArray  type="Float64"  Name="f_3796"  NumberOfComponents="3" format="ascii">1.5940995559620128e-07 -3.0145566609799122e-05 0.0000000000000000e+00  3.6443255244716146e-06 -5.2184996577490623e-05 0.0000000000000000e+00  1.7269306963161126e-06 -5.1303933595586066e-05 0.0000000000000000e+00  6.5932292513655812e-08 -4.9631265721574233e-05 0.0000000000000000e+00  -1.1849066421577294e-06 -4.7180605853532882e-05 0.0000000000000000e+00  -1.9321050004376692e-06 -4.4151439058444595e-05 0.0000000000000000e+00  -2.0714762603939616e-06 -4.0746362907715854e-05 0.0000000000000000e+00  -1.7492528564311677e-06 -3.7262715617281141e-05 0.0000000000000000e+00  -9.2854718526520627e-07 -3.3605637981681055e-05 0.0000000000000000e+00  5.6545388021036054e-06 -5.2262776860638375e-05 0.0000000000000000e+00  1.6844920118560253e-06 -2.6560066768386741e-05 0.0000000000000000e+00  3.6715715161737092e-06 -2.2865783761144739e-05 0.0000000000000000e+00  6.0986134931610405e-06 -1.9112015256424202e-05 0.0000000000000000e+00  8.8780557949031490e-06 -1.5373304396198284e-05 0.0000000000000000e+00  1.2003563221612400e-05 -1.1655215812141357e-05 0.0000000000000000e+00  1.5359295983379394e-05 -8.0525888378900807e-06 0.0000000000000000e+00  1.8981863411226535e-05 -4.4635601428275380e-06 0.0000000000000000e+00  -1.3024941078120463e-05 4.5150223040127294e-07 0.0000000000000000e+00  7.5932159035952077e-06 -5.1539871261720250e-05 0.0000000000000000e+00  9.3012854584801463e-06 -5.0055722892835267e-05 0.0000000000000000e+00  1.0643018810310429e-05 -4.7887016594807360e-05 0.0000000000000000e+00  1.1508318751829961e-05 -4.5112800011615708e-05 0.0000000000000000e+00  1.1840452200864676e-05 -4.1863483774282924e-05 0.0000000000000000e+00  1.1592949768433390e-05 -3.8217801412746295e-05 0.0000000000000000e+00  1.0765968523398035e-05 -3.4291996664803159e-05 0.0000000000000000e+00  9.3731014938363928e-06 -3.0154872702305640e-05 0.0000000000000000e+00  7.4856619436221015e-06 -2.5942436039506592e-05 0.0000000000000000e+00  5.1462993211167963e-06 -2.1694174550379426e-05 0.0000000000000000e+00  2.4191030683473415e-06 -1.7471950820916392e-05 0.0000000000000000e+00  -6.4187335521208769e-07 -1.3293237420648147e-05 0.0000000000000000e+00  -3.9412374189854971e-06 -9.2450197986082167e-06 0.0000000000000000e+00  -7.4501641510450972e-06 -5.3246345246506883e-06 0.0000000000000000e+00  -1.1151946599512556e-05 -1.5225147459811346e-06 0.0000000000000000e+00  -9.3263420139096844e-06 -3.3652564038895003e-06 0.0000000000000000e+00  1.7149669403256623e-05 -6.2188976281388805e-06 0.0000000000000000e+00  1.0416469066346237e-05 -1.3530238366781028e-05 0.0000000000000000e+00  4.8312418494040272e-06 -2.0996733129867060e-05 0.0000000000000000e+00  8.4824219212983262e-07 -2.8389845743944318e-05 0.0000000000000000e+00  -1.4247194078608536e-06 -3.5464765907396171e-05 0.0000000000000000e+00  -2.0326843459450002e-06 -4.2417498117757955e-05 0.0000000000000000e+00  -6.2474272344668812e-07 -4.8539824648895344e-05 0.0000000000000000e+00  2.6637585641595804e-06 -5.1846166810761186e-05 0.0000000000000000e+00  -5.7007875201143098e-06 -7.2968500193355246e-06 0.0000000000000000e+00  1.0024933792819752e-05 -4.9048141834421509e-05 0.0000000000000000e+00  1.1746968483841933e-05 -4.3548506740550838e-05 0.0000000000000000e+00  1.1245688083494515e-05 -3.6273454469858600e-05 0.0000000000000000e+00  8.4897492345917701e-06 -2.8060478332732417e-05 0.0000000000000000e+00  3.8263029026988994e-06 -1.9579380995454468e-05 0.0000000000000000e+00  -2.2620800534196568e-06 -1.1298922309148008e-05 0.0000000000000000e+00  6.6433345824195234e-06 -5.2000177110454602e-05 0.0000000000000000e+00  2.0787843992646000e-05 -2.6376879053271612e-06 0.0000000000000000e+00  9.3855979905967386e-07 -1.5398564997962160e-05 0.0000000000000000e+00  6.3680683090189932e-06 -2.3821449467542433e-05 0.0000000000000000e+00  1.0145065088241448e-05 -3.2248085365436501e-05 0.0000000000000000e+00  1.1789218361388236e-05 -4.0082984350805687e-05 0.0000000000000000e+00  1.1144963612377876e-05 -4.6574918470493283e-05 0.0000000000000000e+00  8.4851590957884310e-06 -5.0888005567409582e-05 0.0000000000000000e+00  4.6484021748889135e-06 -5.2324735828470498e-05 0.0000000000000000e+00  8.5341039247115695e-07 -5.0576140603910362e-05 0.0000000000000000e+00  -1.5963314192164040e-06 -4.5694992355279527e-05 0.0000000000000000e+00  -1.9238833033841896e-06 -3.8935657679496135e-05 0.0000000000000000e+00  -5.3509973080282550e-07 -3.2045806377556053e-05 0.0000000000000000e+00  2.6211494329522585e-06 -2.4725597015255237e-05 0.0000000000000000e+00  7.4324119665127393e-06 -1.7274595746347373e-05 0.0000000000000000e+00  1.3686623164812484e-05 -9.8410495711012702e-06 0.0000000000000000e+00  -2.6323279345569759e-05 2.3021338053624146e-06 0.0000000000000000e+00  -1.8705787334684121e-05 4.7933483341160695e-06 0.0000000000000000e+00  -2.2811811193892764e-05 5.6382594435487294e-06 0.0000000000000000e+00  -2.5609618642337707e-05 4.2627595356048141e-06 0.0000000000000000e+00  -1.5808350200604743e-05 2.6785512383151052e-06 0.0000000000000000e+00  -2.0685138705288221e-05 5.2106164421000522e-06 0.0000000000000000e+00  -2.4508844964855595e-05 5.1703049374192304e-06 0.0000000000000000e+00  -2.6148488517800964e-05 3.2675360101899323e-06 0.0000000000000000e+00  -1.4624270370820829e-05 1.9422494648925683e-06 0.0000000000000000e+00  -1.7226482712877043e-05 3.8525599828786299e-06 0.0000000000000000e+00  -1.9673850924144849e-05 5.0242622246840330e-06 0.0000000000000000e+00  -2.1692638726897201e-05 5.4466522082932972e-06 0.0000000000000000e+00  -2.2990255039151790e-05 5.1213915439117862e-06 0.0000000000000000e+00  -2.5200060357758186e-05 4.7196757379857315e-06 0.0000000000000000e+00  -2.6180712990970565e-05 3.7989264967889262e-06 0.0000000000000000e+00  -2.6300421430186452e-05 2.8084359621836421e-06 0.0000000000000000e+00  -2.6102501830463345e-05 1.7029358180062906e-06 0.0000000000000000e+00  -2.7225839480044559e-05 -7.5714330880006723e-06 0.0000000000000000e+00  -2.6399729069650472e-05 -6.4642499378697733e-06 0.0000000000000000e+00  -2.5690840437431288e-05 -5.5230969438768224e-06 0.0000000000000000e+00  -2.5170621963383277e-05 -4.7098002569675482e-06 0.0000000000000000e+00  -2.4817851492464675e-05 -3.9835497420249759e-06 0.0000000000000000e+00  -2.4619880366788963e-05 -3.3079840142211152e-06 0.0000000000000000e+00  -2.4541881619133194e-05 -2.6448934021572248e-06 0.0000000000000000e+00  -2.4587003808370537e-05 -1.9617802905199837e-06 0.0000000000000000e+00  -2.4767400736461523e-05 -1.2160508068494872e-06 0.0000000000000000e+00  -2.5092367771106734e-05 -3.8180359512834710e-07 0.0000000000000000e+00  -2.5575557105667240e-05 5.8429235614782649e-07 0.0000000000000000e+00  -2.7476983339803233e-05 -8.1982018923709109e-06 0.0000000000000000e+00  -2.6794433724552124e-05 -6.9957788527608227e-06 0.0000000000000000e+00  -2.5403945191472996e-05 -5.1029284638662550e-06 0.0000000000000000e+00  -2.4705788298904070e-05 -3.6419646413922847e-06 0.0000000000000000e+00  -2.4548817769444927e-05 -2.3078765418125294e-06 0.0000000000000000e+00  -2.4903136667088117e-05 -8.1493429265586376e-07 0.0000000000000000e+00  -2.5828381891816189e-05 1.1209161928416535e-06 0.0000000000000000e+00  -2.6021822136881834e-05 -5.9752450297623192e-06 0.0000000000000000e+00  -2.4973843146493199e-05 -4.3363926405667812e-06 0.0000000000000000e+00  -2.4566082663610391e-05 -2.9768492041109806e-06 0.0000000000000000e+00  -2.4667588058253232e-05 -1.5997365851204161e-06 0.0000000000000000e+00  -2.5315583316334685e-05 8.1580787243111574e-08 0.0000000000000000e+00  -1.4427748953407624e-05 -6.8436796069034040e-06 0.0000000000000000e+00  -2.6978141934887710e-05 -1.0210608063162444e-05 0.0000000000000000e+00  -2.4326269301820827e-05 -1.1547418310006266e-05 0.0000000000000000e+00  -2.0135828965671514e-05 -1.0857621223956036e-05 0.0000000000000000e+00  -2.7390531199921103e-05 -9.1911897436762922e-06 0.0000000000000000e+00  -2.5818966427576795e-05 -1.0997312121848737e-05 0.0000000000000000e+00  -2.2195440794385967e-05 -1.1250741189092427e-05 0.0000000000000000e+00  -1.7296385461275381e-05 -9.0012316671271550e-06 0.0000000000000000e+00  -2.7478917608405187e-05 -8.6968983370984260e-06 0.0000000000000000e+00  -2.7347799126745321e-05 -9.7129131811747269e-06 0.0000000000000000e+00  -2.6504154123850698e-05 -1.0629184151803650e-05 0.0000000000000000e+00  -2.4755104499719949e-05 -1.1151205698063079e-05 0.0000000000000000e+00  -2.3239869330424635e-05 -1.1433862926356973e-05 0.0000000000000000e+00  -2.1148483915517871e-05 -1.1078160204550851e-05 0.0000000000000000e+00  -1.8705340007540661e-05 -1.0034585766102266e-05 0.0000000000000000e+00  -1.6019724727446556e-05 -8.2071698383124502e-06 0.0000000000000000e+00  1.7800589482615871e-06 3.7517286162772183e-05 0.0000000000000000e+00  -8.8200252053230585e-06 -1.6349475077695090e-06 0.0000000000000000e+00  -5.3057683098259734e-06 1.8624792294850539e-06 0.0000000000000000e+00  -2.0149661152346537e-06 5.4657658474961857e-06 0.0000000000000000e+00  9.5769747355752132e-07 9.1102650763680475e-06 0.0000000000000000e+00  3.5780463606118571e-06 1.2778989815362879e-05 0.0000000000000000e+00  5.7853896290327472e-06 1.6437468411523330e-05 0.0000000000000000e+00  7.5289730968638509e-06 2.0038679149546480e-05 0.0000000000000000e+00  8.7835856270489845e-06 2.3552088044964275e-05 0.0000000000000000e+00  9.5034514394324284e-06 2.6885500903747711e-05 0.0000000000000000e+00  9.6695147939398865e-06 2.9958751537968210e-05 0.0000000000000000e+00  9.2812005951929676e-06 3.2654447894854454e-05 0.0000000000000000e+00  8.3987926202262009e-06 3.4891543031590603e-05 0.0000000000000000e+00  7.0888444252882278e-06 3.6583826590234504e-05 0.0000000000000000e+00  5.4532466605846797e-06 3.7627853872547908e-05 0.0000000000000000e+00  3.6301906860512119e-06 3.7955745444247723e-05 0.0000000000000000e+00  -1.2566983371101291e-05 -5.0965475749968733e-06 0.0000000000000000e+00  6.6286629325718586e-08 3.6492469815401856e-05 0.0000000000000000e+00  -1.4036887963971221e-06 3.4925133755976769e-05 0.0000000000000000e+00  -2.4966285373664756e-06 3.2789094377606635e-05 0.0000000000000000e+00  -3.1917098223648359e-06 3.0323687394314640e-05 0.0000000000000000e+00  -3.5515211362586303e-06 2.7636454798412571e-05 0.0000000000000000e+00  -3.2967122594686784e-06 2.4428251943911741e-05 0.0000000000000000e+00  -2.4904546954713690e-06 2.0958493619657453e-05 0.0000000000000000e+00  -1.2110267208451935e-06 1.7378614841698976e-05 0.0000000000000000e+00  5.5104391874677777e-07 1.3697445554947484e-05 0.0000000000000000e+00  2.7411140904443475e-06 9.9732452718305023e-06 0.0000000000000000e+00  5.3126727668204908e-06 6.2564492522005531e-06 0.0000000000000000e+00  8.2050145715380326e-06 2.5859620714291870e-06 0.0000000000000000e+00  1.1347254339802564e-05 -9.9429676692712740e-07 0.0000000000000000e+00  1.4722813861593523e-05 -4.4868893312838709e-06 0.0000000000000000e+00  1.8339806015617956e-05 -7.9479451572806745e-06 0.0000000000000000e+00  2.0155337025938081e-05 -9.7335326356167069e-06 0.0000000000000000e+00  1.6530436885963475e-05 -6.2612919319420084e-06 0.0000000000000000e+00  9.7449523874847299e-06 8.2503043683207150e-07 0.0000000000000000e+00  3.9806942797410860e-06 8.1179200819701620e-06 0.0000000000000000e+00  -3.8691042865048910e-07 1.5547561797737564e-05 0.0000000000000000e+00  -2.9588882322518968e-06 2.2707368840393535e-05 0.0000000000000000e+00  -3.4458829727109719e-06 2.9060843277388873e-05 0.0000000000000000e+00  -2.0021722531991520e-06 3.3900826634555542e-05 0.0000000000000000e+00  9.0394012303997985e-07 3.7069638977452005e-05 0.0000000000000000e+00  4.5580863147900172e-06 3.7885721387948232e-05 0.0000000000000000e+00  7.7929704207416693e-06 3.5813406908258469e-05 0.0000000000000000e+00  9.5460676767680048e-06 3.1365136009160913e-05 0.0000000000000000e+00  9.2067781811552002e-06 2.5234535786284970e-05 0.0000000000000000e+00  6.7194843067005659e-06 1.8251448298276449e-05 0.0000000000000000e+00  2.3199545922719436e-06 1.0949420143460049e-05 0.0000000000000000e+00  -3.6316429896455154e-06 3.6808773597668701e-06 0.0000000000000000e+00  -1.0679070242000427e-05 -3.3985184950512476e-06 0.0000000000000000e+00  1.3040604803375784e-05 -2.7401648111174847e-06 0.0000000000000000e+00  6.7146645360619176e-06 4.4354766519372185e-06 0.0000000000000000e+00  1.5922702257485832e-06 1.1841773255498495e-05 0.0000000000000000e+00  -1.9289192889555429e-06 1.9210461230805201e-05 0.0000000000000000e+00  -3.4875516431589427e-06 2.6056465798039618e-05 0.0000000000000000e+00  -3.0120232046723176e-06 3.1841163818008782e-05 0.0000000000000000e+00  -6.9933004636331187e-07 3.5748247226030965e-05 0.0000000000000000e+00  2.6997497725584462e-06 3.7814426618584366e-05 0.0000000000000000e+00  6.3045333474256505e-06 3.7191250564448506e-05 0.0000000000000000e+00  8.9050406873182593e-06 3.3848758624742444e-05 0.0000000000000000e+00  9.6548421791585198e-06 2.8458520106120367e-05 0.0000000000000000e+00  8.2309077534237281e-06 2.1822009203904364e-05 0.0000000000000000e+00  4.7364351017737530e-06 1.4612270229992632e-05 0.0000000000000000e+00  -4.7682397194773136e-07 7.3096723925181609e-06 0.0000000000000000e+00  -7.0627814912585994e-06 1.0827568509506071e-07 0.0000000000000000e+00  3.2924913236773576e-05 -1.1187437585182282e-05 0.0000000000000000e+00  2.5757316199907154e-05 -1.3799716172972656e-05 0.0000000000000000e+00  2.9802114025214642e-05 -1.4511962491681323e-05 0.0000000000000000e+00  3.2412000964824948e-05 -1.3151927426935724e-05 0.0000000000000000e+00  2.2943369382215645e-05 -1.1876035615691607e-05 0.0000000000000000e+00  2.7719598822332873e-05 -1.4169873888156176e-05 0.0000000000000000e+00  3.1325622363467446e-05 -1.3989257537375297e-05 0.0000000000000000e+00  3.2835017632006891e-05 -1.2152362123489298e-05 0.0000000000000000e+00  2.1734066913019775e-05 -1.1129753881597222e-05 0.0000000000000000e+00  2.4327173629061947e-05 -1.2944551636972675e-05 0.0000000000000000e+00  2.6716976591107861e-05 -1.4005356841500321e-05 0.0000000000000000e+00  2.8718505504959491e-05 -1.4366815757268453e-05 0.0000000000000000e+00  3.0085112919642360e-05 -1.4056250714003036e-05 0.0000000000000000e+00  3.1992460465036267e-05 -1.3587075938558541e-05 0.0000000000000000e+00  3.2845453578301676e-05 -1.2671756298639686e-05 0.0000000000000000e+00  3.2936142125295898e-05 -1.1681434522027740e-05 0.0000000000000000e+00  3.2686360584700430e-05 -1.0589259258720503e-05 0.0000000000000000e+00  3.3161139707993665e-05 -1.6538219327763155e-06 0.0000000000000000e+00  3.2392726894100756e-05 -2.7489886003355123e-06 0.0000000000000000e+00  3.1716567388178818e-05 -3.6788988374539906e-06 0.0000000000000000e+00  3.1219942521639593e-05 -4.4755745672803609e-06 0.0000000000000000e+00  3.0882629735362299e-05 -5.1821935741120657e-06 0.0000000000000000e+00  3.0701066754982967e-05 -5.8287357989545657e-06 0.0000000000000000e+00  3.0653071098329419e-05 -6.4567437807554377e-06 0.0000000000000000e+00  3.0739991727365538e-05 -7.0996584084054610e-06 0.0000000000000000e+00  3.0987345862917028e-05 -7.7993346228177252e-06 0.0000000000000000e+00  3.1396419449292704e-05 -8.5870944733677589e-06 0.0000000000000000e+00  3.1990330836693751e-05 -9.5061859899115028e-06 0.0000000000000000e+00  3.3428214699930000e-05 -1.0498760343783899e-06 0.0000000000000000e+00  3.2761718288014253e-05 -2.2254793019352725e-06 0.0000000000000000e+00  3.1440507485852621e-05 -4.0923746756345731e-06 0.0000000000000000e+00  3.0776114350024314e-05 -5.5099400140640459e-06 0.0000000000000000e+00  3.0680505290403219e-05 -6.7741621016005590e-06 0.0000000000000000e+00  3.1163858124674427e-05 -8.1784302203013280e-06 0.0000000000000000e+00  3.2321678376561337e-05 -1.0024031678439625e-05 0.0000000000000000e+00  3.2033385912671803e-05 -3.2334391484846646e-06 0.0000000000000000e+00  3.1036000084856688e-05 -4.8400012629263482e-06 0.0000000000000000e+00  3.0660597984576882e-05 -6.1429686190839156e-06 0.0000000000000000e+00  3.0847493319794958e-05 -7.4386640888016055e-06 0.0000000000000000e+00  3.1671132040146153e-05 -9.0273676485036667e-06 0.0000000000000000e+00  3.3006346895232139e-05 9.4050412779461640e-07 0.0000000000000000e+00  3.0442490106974889e-05 2.3033413437805457e-06 0.0000000000000000e+00  2.6408242773422292e-05 1.5732945058080219e-06 0.0000000000000000e+00  3.3387146420676145e-05 -7.0744628626148079e-08 0.0000000000000000e+00  3.1934496957365832e-05 1.7746566542869731e-06 0.0000000000000000e+00  2.8368192424217138e-05 1.9584272151869257e-06 0.0000000000000000e+00  2.3602190615311853e-05 -3.8872235616781096e-07 0.0000000000000000e+00  3.3468126084401761e-05 -5.4900750138234268e-07 0.0000000000000000e+00  3.3407517052016634e-05 4.5384649440614144e-07 0.0000000000000000e+00  3.2595469655831453e-05 1.3781619392156047e-06 0.0000000000000000e+00  3.0730674797791354e-05 1.8486513205593672e-06 0.0000000000000000e+00  2.9362184380087174e-05 2.1569924882085773e-06 0.0000000000000000e+00  2.7366456737532166e-05 1.7871825732561438e-06 0.0000000000000000e+00  2.4979418326150083e-05 6.9772537898977394e-07 0.0000000000000000e+00  2.2368537292978934e-05 -1.1905395446556797e-06 0.0000000000000000e+00  7.1442139909134584e-06 1.9857329199582070e-05 0.0000000000000000e+00  1.0238374368224858e-07 -3.2533902553742405e-05 0.0000000000000000e+00  5.1219866065692783e-06 -3.9110686485877932e-05 0.0000000000000000e+00  1.5422876662081205e-05 -2.2457972359985785e-05 0.0000000000000000e+00  -8.1123559432506290e-06 1.2629013484246226e-05 0.0000000000000000e+00  2.2567378819978963e-06 2.5124205044577483e-05 0.0000000000000000e+00  -2.3227621902797722e-05 -2.2514024047595755e-06 0.0000000000000000e+00  2.9447065088299853e-05 -7.0913319043791538e-06 0.0000000000000000e+00  2.9809744583808674e-05 -5.0840722594973579e-06 0.0000000000000000e+00  -2.3736132113630865e-05 -4.3307914185672852e-06 0.0000000000000000e+00  -1.7517688385856702e-05 1.8812011834132124e-06 0.0000000000000000e+00  -1.7637955927605919e-05 1.2275271752697200e-06 0.0000000000000000e+00  -1.0378342852047017e-05 5.3209531916396002e-06 0.0000000000000000e+00  -1.5289463276718568e-05 -5.0833928239038039e-06 0.0000000000000000e+00  -8.3228286063523411e-06 -7.0890258218368454e-06 0.0000000000000000e+00  -2.1192504573897394e-05 -3.6989828310888793e-06 0.0000000000000000e+00  -3.6495795648099644e-06 7.3671370472826146e-06 0.0000000000000000e+00  -1.3175168813163448e-06 -1.0357285253979125e-05 0.0000000000000000e+00  2.5367129910083712e-06 6.4139887740488002e-06 0.0000000000000000e+00  5.4271277021029848e-06 -1.2944822706790107e-05 0.0000000000000000e+00  9.7851105591944072e-06 5.2254098637471905e-06 0.0000000000000000e+00  1.1916674956290439e-05 -1.3542856382359338e-05 0.0000000000000000e+00  1.5985242885130845e-05 -3.9590848677937471e-06 0.0000000000000000e+00  2.3987370672773159e-05 -1.1505964551406012e-05 0.0000000000000000e+00  2.4146969034912529e-05 -1.0955591944780703e-05 0.0000000000000000e+00  2.7327432625945889e-05 -6.0445976507200452e-06 0.0000000000000000e+00  2.3409348590642550e-05 -6.5071624162535396e-07 0.0000000000000000e+00  -1.6101348247031900e-05 -9.7078784596300152e-06 0.0000000000000000e+00  4.4174024663458712e-06 2.3428910426008156e-05 0.0000000000000000e+00  2.2935693432297334e-05 -4.9326118958189515e-07 0.0000000000000000e+00  1.3424605882349206e-05 1.0964111455813554e-05 0.0000000000000000e+00  -1.3352106547746212e-06 2.0726710678862589e-05 0.0000000000000000e+00  -1.0160057015332462e-05 -1.6433577647728119e-05 0.0000000000000000e+00  3.5207710318406428e-06 -3.8726342695696454e-05 0.0000000000000000e+00  9.6060594381156495e-06 -3.0244947670892430e-05 0.0000000000000000e+00  -1.7085418172041157e-05 -9.9142461501645131e-06 0.0000000000000000e+00  1.7728705749942533e-05 -1.4939363822409676e-05 0.0000000000000000e+00  2.1769869011638705e-05 -5.4019276307549939e-06 0.0000000000000000e+00  -6.7213141652711920e-06 -2.2250092696974566e-05 0.0000000000000000e+00  2.8987656588323518e-05 -9.0938304139130983e-06 0.000000000000000