<?xml version="1.0"?>
<VTKFile type="UnstructuredGrid"  version="0.1"  >
<UnstructuredGrid>
<Piece  NumberOfPoints="4153" NumberOfCells="8064">
<Points>
<DataArray  type="Float64"  NumberOfComponents="3"  format="ascii">-0.4249999999999999 -0.5 0  -0.02499999999999988 -0.5 0  -0.07499999999999987 -0.5 0  -0.1249999999999998 -0.5 0  -0.1749999999999998 -0.5 0  -0.2249999999999998 -0.5 0  -0.2749999999999998 -0.5 0  -0.3249999999999998 -0.5 0  -0.3749999999999999 -0.5 0  0.02500000000000016 -0.5 0  -0.4749999999999998 -0.5 0  -0.5249999999999998 -0.5 0  -0.5749999999999998 -0.5 0  -0.6249999999999999 -0.5 0  -0.6749999999999999 -0.5 0  -0.725 -0.5 0  -0.775 -0.5 0  0.8 -0.5 0  0.07500000000000025 -0.5 0  0.1250000000000003 -0.5 0  0.1750000000000004 -0.5 0  0.2250000000000004 -0.5 0  0.2750000000000004 -0.5 0  0.3250000000000003 -0.5 0  0.3750000000000001 -0.5 0  0.4250000000000002 -0.5 0  0.4750000000000002 -0.5 0  0.5250000000000001 -0.5 0  0.5750000000000002 -0.5 0  0.625 -0.5 0  0.675 -0.5 0  0.725 -0.5 0  0.775 -0.5 0  0.75 -0.5 0  -0.75 -0.5 0  -0.6499999999999999 -0.5 0  -0.5499999999999998 -0.5 0  -0.4499999999999998 -0.5 0  -0.3499999999999999 -0.5 0  -0.2499999999999998 -0.5 0  -0.1499999999999998 -0.5 0  -0.04999999999999988 -0.5 0  0.7 -0.5 0  0.1500000000000004 -0.5 0  0.2500000000000003 -0.5 0  0.3500000000000002 -0.5 0  0.4500000000000002 -0.5 0  0.5500000000000002 -0.5 0  0.65 -0.5 0  0.0500000000000002 -0.5 0  -0.8 -0.5 0  0.6000000000000001 -0.5 0  0.5000000000000002 -0.5 0  0.4000000000000001 -0.5 0  0.3000000000000003 -0.5 0  0.2000000000000004 -0.5 0  0.1000000000000003 -0.5 0  1.110223024625157e-16 -0.5 0  -0.09999999999999987 -0.5 0  -0.1999999999999998 -0.5 0  -0.2999999999999998 -0.5 0  -0.3999999999999999 -0.5 0  -0.4999999999999998 -0.5 0  -0.5999999999999999 -0.5 0  -0.7 -0.5 0  1 -0.3 0  0.8765366864730179 -0.4847759065022574 0  0.9414213562373094 -0.4414213562373097 0  0.9847759065022573 -0.3765366864730181 0  0.838268343236509 -0.4923879532511287 0  0.9089790213551636 -0.4630986313697836 0  0.9630986313697834 -0.4089790213551639 0  0.9923879532511286 -0.338268343236509 0  0.8191341716182545 -0.4961939766255644 0  0.8574025148547635 -0.488581929876693 0  0.8927578539140908 -0.4739372689360205 0  0.9252001887962364 -0.4522599938035466 0  0.9522599938035463 -0.4252001887962368 0  0.9739372689360204 -0.392757853914091 0  0.9885819298766929 -0.3574025148547635 0  0.9961939766255643 -0.3191341716182545 0  1 -0.275 0  1 0.275 0  1 0.225 0  1 0.175 0  1 0.125 0  1 0.07499999999999994 0  1 0.02499999999999987 0  1 -0.0250000000000002 0  1 -0.07500000000000026 0  1 -0.1250000000000003 0  1 -0.1750000000000002 0  1 -0.2250000000000001 0  1 0.3 0  1 0.25 0  1 0.15 0  1 0.04999999999999991 0  1 -0.05000000000000023 0  1 -0.1500000000000002 0  1 -0.2500000000000001 0  1 0.2 0  1 0.09999999999999998 0  1 -1.665334536937735e-16 0  1 -0.1000000000000003 0  1 -0.2000000000000002 0  0.8 0.5 0  0.9847759065022573 0.3765366864730181 0  0.9414213562373094 0.4414213562373097 0  0.8765366864730179 0.4847759065022574 0  0.9923879532511286 0.338268343236509 0  0.9630986313697834 0.4089790213551639 0  0.9089790213551636 0.4630986313697836 0  0.838268343236509 0.4923879532511287 0  0.9961939766255643 0.3191341716182545 0  0.9885819298766929 0.3574025148547635 0  0.9739372689360204 0.392757853914091 0  0.9522599938035463 0.4252001887962368 0  0.9252001887962364 0.4522599938035466 0  0.8927578539140908 0.4739372689360205 0  0.8574025148547635 0.488581929876693 0  0.8191341716182545 0.4961939766255644 0  -0.02500000000000016 0.5 0  0.725 0.5 0  0.6749999999999999 0.5 0  0.6249999999999999 0.5 0  0.5749999999999998 0.5 0  0.5249999999999998 0.5 0  0.4749999999999998 0.5 0  0.4249999999999999 0.5 0  0.3749999999999999 0.5 0  0.3249999999999998 0.5 0  0.2749999999999998 0.5 0  0.2249999999999998 0.5 0  0.1749999999999998 0.5 0  0.1249999999999998 0.5 0  0.07499999999999987 0.5 0  0.02499999999999988 0.5 0  0.775 0.5 0  -0.07500000000000025 0.5 0  -0.1250000000000003 0.5 0  -0.1750000000000004 0.5 0  -0.2250000000000004 0.5 0  -0.2750000000000004 0.5 0  -0.3250000000000003 0.5 0  -0.3750000000000001 0.5 0  -0.4250000000000002 0.5 0  -0.4750000000000002 0.5 0  -0.5250000000000001 0.5 0  -0.5750000000000002 0.5 0  -0.625 0.5 0  -0.675 0.5 0  -0.725 0.5 0  -0.775 0.5 0  -0.8 0.5 0  -0.75 0.5 0  -0.65 0.5 0  -0.5500000000000002 0.5 0  -0.4500000000000002 0.5 0  -0.3500000000000002 0.5 0  -0.2500000000000003 0.5 0  -0.1500000000000004 0.5 0  -0.0500000000000002 0.5 0  0.04999999999999988 0.5 0  0.1499999999999998 0.5 0  0.2499999999999998 0.5 0  0.3499999999999999 0.5 0  0.4499999999999998 0.5 0  0.5499999999999998 0.5 0  0.6499999999999999 0.5 0  0.75 0.5 0  -0.7 0.5 0  -0.6000000000000001 0.5 0  -0.5000000000000002 0.5 0  -0.4000000000000001 0.5 0  -0.3000000000000003 0.5 0  -0.2000000000000004 0.5 0  -0.1000000000000003 0.5 0  -1.110223024625157e-16 0.5 0  0.09999999999999987 0.5 0  0.1999999999999998 0.5 0  0.2999999999999998 0.5 0  0.3999999999999999 0.5 0  0.4999999999999998 0.5 0  0.5999999999999999 0.5 0  0.7 0.5 0  -1 0.3 0  -0.8765366864730181 0.4847759065022573 0  -0.9414213562373097 0.4414213562373094 0  -0.9847759065022574 0.3765366864730179 0  -0.838268343236509 0.4923879532511287 0  -0.9089790213551638 0.4630986313697834 0  -0.9630986313697836 0.4089790213551636 0  -0.9923879532511287 0.338268343236509 0  -0.8191341716182545 0.4961939766255643 0  -0.8574025148547635 0.488581929876693 0  -0.892757853914091 0.4739372689360203 0  -0.9252001887962368 0.4522599938035464 0  -0.9522599938035466 0.4252001887962365 0  -0.9739372689360205 0.3927578539140908 0  -0.9885819298766931 0.3574025148547634 0  -0.9961939766255643 0.3191341716182545 0  -1 0.275 0  -1 -0.275 0  -1 -0.225 0  -1 -0.175 0  -1 -0.125 0  -1 -0.07499999999999994 0  -1 -0.02499999999999987 0  -1 0.0250000000000002 0  -1 0.07500000000000026 0  -1 0.1250000000000003 0  -1 0.1750000000000002 0  -1 0.2250000000000001 0  -1 -0.3 0  -1 -0.25 0  -1 -0.15 0  -1 -0.04999999999999991 0  -1 0.05000000000000023 0  -1 0.1500000000000002 0  -1 0.2500000000000001 0  -1 -0.2 0  -1 -0.09999999999999998 0  -1 1.665334536937735e-16 0  -1 0.1000000000000003 0  -1 0.2000000000000002 0  -0.9847759065022574 -0.3765366864730179 0  -0.9414213562373096 -0.4414213562373094 0  -0.8765366864730181 -0.4847759065022573 0  -0.9923879532511287 -0.338268343236509 0  -0.9630986313697836 -0.4089790213551636 0  -0.9089790213551638 -0.4630986313697834 0  -0.838268343236509 -0.4923879532511287 0  -0.9961939766255643 -0.3191341716182545 0  -0.9885819298766931 -0.3574025148547634 0  -0.9739372689360205 -0.3927578539140908 0  -0.9522599938035465 -0.4252001887962365 0  -0.9252001887962367 -0.4522599938035464 0  -0.892757853914091 -0.4739372689360203 0  -0.8574025148547635 -0.488581929876693 0  -0.8191341716182545 -0.4961939766255643 0  -0.3000000000000003 0.3267949192431125 0  0.3181343990330772 -0.3439416921723297 0  -0.08257249764926196 -0.3383308877677023 0  -0.50979744334887 -0.3255818518047211 0  0.5060441378325211 0.3274561643884037 0  0.1037631564626732 0.3131559137665553 0  0.843149210446875 -0.1923130104173427 0  -0.8418263458721231 0.1927503215247096 0  -0.8408809410250262 -0.1897116835785854 0  0.8409071959036176 0.1896235182386696 0  0.705967194587281 0.3354524287114743 0  0.6276370409402552 0.1658336215477063 0  0.4215070288293651 0.1446794873901968 0  0.5369019087152576 -0.01677883310260353 0  0.3378219718963524 -0.0304857337078401 0  0.7359191653189867 -0.0003779706345871367 0  0.2206709281181736 0.1292871338121241 0  0.1390057666500616 -0.05482518983879574 0  0.02156604114872933 0.1091113821954512 0  -0.05991856886335568 -0.07544049830328706 0  -0.2091026540303009 0.113218101697482 0  -0.2557387210741711 -0.08957125969209863 0  -0.3742518736706093 0.02381865171750689 0  -0.7065883696935737 -0.3351547375041799 0  -0.6319769825415822 -0.1640183941417108 0  -0.7379485134301987 -0.0003221286420197649 0  -0.6263925638672921 0.1747922261462193 0  0.7000000000000003 -0.3471147448144379 0  -0.09731754444756222 0.2985839976753261 0  -0.7019016658227 0.339872535812372 0  -0.5036626740707574 0.3416097573515475 0  0.3086642085404555 0.31909644989288 0  0.4355889359290377 -0.1794947220360297 0  0.1233906847482294 -0.33992001942789 0  -0.2910439982708135 -0.2942818290560931 0  0.6252598700683595 -0.1832373653183336 0  -0.4390211493546888 -0.1414717198202583 0  -0.5445756908252299 0.01225332998817602 0  0.5094027625036279 -0.3483114655372777 0  -0.8570298735864267 0.3548088427148782 0  0.2432245006188761 -0.181388344807941 0  0.8576591493456415 0.3532994606374906 0  -0.8577781333911819 -0.3532575554640149 0  0.856914113336837 -0.3561698222938181 0  -0.4103395160999327 0.186370105143853 0  0.04059278020228735 -0.1932320619509051 0  -0.894759031223147 0.000141425932117211 0  0.8948577502800618 -0.0001596971477125707 0  -0.1430838089440986 -0.1942958300671257 0  -0.4774576034625814 0.09931171756601452 0  -0.5183660399836124 0.1805811656450362 0  -0.585484127346261 0.09352277806719765 0  -0.3551697580499665 0.2565825121934828 0  -0.3097210850651168 0.1497941034206675 0  -0.2545513270151506 0.2200065104702973 0  -0.3922956948852711 0.10509437843068 0  -0.4594137822479196 0.01803599085284146 0  -0.1532100992389315 0.205901049686404 0  -0.1986587722237813 0.3126894584592193 0  -0.1486587722237813 0.399291998837663 0  -0.04865877222378117 0.399291998837663 0  0.5673313162859936 -0.2657744154278056 0  0.6047013812518141 -0.3477131051758577 0  0.6626299350341799 -0.2651760550663858 0  0.4724958492163328 -0.2639030937866537 0  0.5304244029986986 -0.1813660436771817 0  -0.3650325738127511 -0.2178767744381757 0  -0.4744092963517794 -0.2335267858124897 0  -0.4004207208098418 -0.3099318404304071 0  -0.3473799352144299 -0.1155214897561785 0  -0.2733913596724923 -0.1919265443740958 0  0.06266459880570127 0.2111336479810033 0  0.1211184846334515 0.1191992580037876 0  0.1622170422904234 0.2212215237893397 0  
[...]
<PointData  Vectors="f_608"> 
<DataArray  type="Float64"  Name="f_608"  NumberOfComponents="3" format="ascii">2.2553652521003975e-05 1.3943937113260767e-05 0.0000000000000000e+00  -3.2073941507762268e-07 -3.0920753829691603e-05 0.0000000000000000e+00  2.2107008591805960e-06 -2.7649290845116792e-05 0.0000000000000000e+00  4.8942725406472151e-06 -2.3545968250876662e-05 0.0000000000000000e+00  7.6971165019961429e-06 -1.8964294333658103e-05 0.0000000000000000e+00  1.0480253936347022e-05 -1.4106374384328958e-05 0.0000000000000000e+00  1.3292267218297815e-05 -8.0495637706727564e-06 0.0000000000000000e+00  1.6221229308806558e-05 -1.2343741826019594e-06 0.0000000000000000e+00  1.9283781096924853e-05 6.1310132941643197e-06 0.0000000000000000e+00  -2.7089043567989674e-06 -3.3049259853853517e-05 0.0000000000000000e+00  2.5921506129785887e-05 2.1373680758566346e-05 0.0000000000000000e+00  2.9396551656691737e-05 2.8867980072288293e-05 0.0000000000000000e+00  3.2991444738558375e-05 3.6278503132960744e-05 0.0000000000000000e+00  3.6726942675611514e-05 4.3318575231639673e-05 0.0000000000000000e+00  4.0581740984866249e-05 5.0036649671782598e-05 0.0000000000000000e+00  4.4612874887955484e-05 5.6292083248575563e-05 0.0000000000000000e+00  4.8837226707948055e-05 6.1951130015864113e-05 0.0000000000000000e+00  -4.9790890534751853e-05 4.9466511560348631e-05 0.0000000000000000e+00  -4.9846887402742931e-06 -3.3828337464803242e-05 0.0000000000000000e+00  -7.1957753020167376e-06 -3.3096477274033347e-05 0.0000000000000000e+00  -9.4070027497747510e-06 -3.0793186000776272e-05 0.0000000000000000e+00  -1.1694498738606908e-05 -2.6991705550719516e-05 0.0000000000000000e+00  -1.4106804270330614e-05 -2.1994417367026017e-05 0.0000000000000000e+00  -1.6665529081812179e-05 -1.5995278651725377e-05 0.0000000000000000e+00  -1.9391704530708947e-05 -9.2025009427724312e-06 0.0000000000000000e+00  -2.2301923955662436e-05 -1.9149768277097189e-06 0.0000000000000000e+00  -2.5387397012194651e-05 5.6796091354828702e-06 0.0000000000000000e+00  -2.8643162462844969e-05 1.3379040050607033e-05 0.0000000000000000e+00  -3.2067724788780828e-05 2.1035838370777058e-05 0.0000000000000000e+00  -3.5660280773077789e-05 2.8428152964826437e-05 0.0000000000000000e+00  -3.9429382730299952e-05 3.5510030962381466e-05 0.0000000000000000e+00  -4.3387208629467458e-05 4.2014426198191689e-05 0.0000000000000000e+00  -4.7538114895233353e-05 4.7790121658839403e-05 0.0000000000000000e+00  -4.5453191549807916e-05 4.4924741495837921e-05 0.0000000000000000e+00  4.6723562973579375e-05 5.9066079094564597e-05 0.0000000000000000e+00  3.8634397729549934e-05 4.6717809718833677e-05 0.0000000000000000e+00  3.1178848689072306e-05 3.2581515621944622e-05 0.0000000000000000e+00  2.4222436986235005e-05 1.7607981137189989e-05 0.0000000000000000e+00  1.7735726436002611e-05 2.3869439763952720e-06 0.0000000000000000e+00  1.1874799402359684e-05 -1.1179498816062368e-05 0.0000000000000000e+00  6.2849431543874695e-06 -2.1292478301574212e-05 0.0000000000000000e+00  9.2551000471042119e-07 -2.9410199234951933e-05 0.0000000000000000e+00  -4.1384340107134481e-05 3.8845850400948158e-05 0.0000000000000000e+00  -8.2969881577049572e-06 -3.2140753440584561e-05 0.0000000000000000e+00  -1.2883895944504739e-05 -2.4631380272289486e-05 0.0000000000000000e+00  -1.8006959458737415e-05 -1.2688839985867634e-05 0.0000000000000000e+00  -2.3823195558258665e-05 1.8611596523190748e-06 0.0000000000000000e+00  -3.0334512314895718e-05 1.7218235192643410e-05 0.0000000000000000e+00  -3.7522263978253371e-05 3.2034482682948371e-05 0.0000000000000000e+00  -3.8584629686303093e-06 -3.3618933527411110e-05 0.0000000000000000e+00  5.1186129162013774e-05 6.3497448570572389e-05 0.0000000000000000e+00  -3.3848075551140978e-05 2.4765778179986335e-05 0.0000000000000000e+00  -2.6994209070113008e-05 9.5255911886499662e-06 0.0000000000000000e+00  -2.0827058721789362e-05 -5.6016832145633044e-06 0.0000000000000000e+00  -1.5366394739900416e-05 -1.9107414660152930e-05 0.0000000000000000e+00  -1.0535577112483546e-05 -2.9060467910337910e-05 0.0000000000000000e+00  -6.0945080609461433e-06 -3.3657794373956778e-05 0.0000000000000000e+00  -1.5309148830089823e-06 -3.2143566406595332e-05 0.0000000000000000e+00  3.5344865634466056e-06 -2.5680404061890881e-05 0.0000000000000000e+00  9.1104567047028806e-06 -1.6658307266856736e-05 0.0000000000000000e+00  1.4740771869431995e-05 -4.7208148676997936e-06 0.0000000000000000e+00  2.0873224669420971e-05 1.0104514986714687e-05 0.0000000000000000e+00  2.7644842300539570e-05 2.5121796469244699e-05 0.0000000000000000e+00  3.4848753731753073e-05 3.9868948685217499e-05 0.0000000000000000e+00  4.2574008686293766e-05 5.3231202635447097e-05 0.0000000000000000e+00  -6.8081096463750346e-05 4.1371419736138418e-05 0.0000000000000000e+00  -5.6266816358472765e-05 5.1651904813830479e-05 0.0000000000000000e+00  -6.1605448110754955e-05 5.0096451868188018e-05 0.0000000000000000e+00  -6.5829761306031030e-05 4.6338307724002126e-05 0.0000000000000000e+00  -5.2934530115928509e-05 5.0489865653150416e-05 0.0000000000000000e+00  -5.8565113762760889e-05 5.0364568560279363e-05 0.0000000000000000e+00  -6.4270480489102763e-05 4.8621432110439960e-05 0.0000000000000000e+00  -6.7293006695483314e-05 4.4019117681787288e-05 0.0000000000000000e+00  -5.1285281693418152e-05 4.9577628882453508e-05 0.0000000000000000e+00  -5.4654157461441112e-05 5.1261188051383502e-05 0.0000000000000000e+00  -5.7404620494997825e-05 5.0901740175118983e-05 0.0000000000000000e+00  -6.0406959578663989e-05 5.0730907215324522e-05 0.0000000000000000e+00  -6.2603839885619871e-05 4.9192196924041722e-05 0.0000000000000000e+00  -6.5235652090411719e-05 4.7525999575392316e-05 0.0000000000000000e+00  -6.6722949550544357e-05 4.5249890082785803e-05 0.0000000000000000e+00  -6.7879217988827379e-05 4.2729324071261820e-05 0.0000000000000000e+00  -6.8252676917744077e-05 3.9619877383280051e-05 0.0000000000000000e+00  -6.1155053212873892e-05 1.6612173899830929e-06 0.0000000000000000e+00  -6.1990319012100422e-05 5.2890057431138580e-06 0.0000000000000000e+00  -6.2109468436328177e-05 8.9174866566653440e-06 0.0000000000000000e+00  -6.1856144425493820e-05 1.2459669377396487e-05 0.0000000000000000e+00  -6.1409487453379494e-05 1.5842800219986013e-05 0.0000000000000000e+00  -6.1492458086378102e-05 1.9086697902029926e-05 0.0000000000000000e+00  -6.2107581297162891e-05 2.2288778492003637e-05 0.0000000000000000e+00  -6.3257536937609318e-05 2.5511463305234831e-05 0.0000000000000000e+00  -6.4949708059296759e-05 2.8855917635522406e-05 0.0000000000000000e+00  -6.6489856391113128e-05 3.2355718497412863e-05 0.0000000000000000e+00  -6.7703176666794406e-05 3.5961505202373449e-05 0.0000000000000000e+00  -6.0319422972951683e-05 -2.7527651255689966e-08 0.0000000000000000e+00  -6.1694274390130011e-05 3.4675887993623545e-06 0.0000000000000000e+00  -6.2015646214756261e-05 1.0703143605938980e-05 0.0000000000000000e+00  -6.1382968312064228e-05 1.7474141003716738e-05 0.0000000000000000e+00  -6.2614083734897875e-05 2.3893174633452128e-05 0.0000000000000000e+00  -6.5747083903383501e-05 3.0590399067055589e-05 0.0000000000000000e+00  -6.8090261915022853e-05 3.7789022868678976e-05 0.0000000000000000e+00  -6.2106945940615204e-05 7.1096812400732993e-06 0.0000000000000000e+00  -6.1609183275647696e-05 1.4180469786137368e-05 0.0000000000000000e+00  -6.1735280629293001e-05 2.0689123874431310e-05 0.0000000000000000e+00  -6.4076319190988623e-05 2.7156209395165645e-05 0.0000000000000000e+00  -6.7148683522614175e-05 3.4147873292747324e-05 0.0000000000000000e+00  -3.6093107760349196e-05 -3.6460686063493926e-06 0.0000000000000000e+00  -5.6174830501328171e-05 -4.5497034038600226e-06 0.0000000000000000e+00  -5.0339611516306987e-05 -7.4272431604321161e-06 0.0000000000000000e+00  -4.3615159966411951e-05 -7.5150529661903157e-06 0.0000000000000000e+00  -5.8554345652374340e-05 -2.4986942582661903e-06 0.0000000000000000e+00  -5.3780330793712460e-05 -6.4373678585938129e-06 0.0000000000000000e+00  -4.6495221839220023e-05 -6.8986876990891088e-06 0.0000000000000000e+00  -3.9711036882552933e-05 -5.3795480751322853e-06 0.0000000000000000e+00  -5.9647433105523708e-05 -1.3123588467961753e-06 0.0000000000000000e+00  -5.7514871421382358e-05 -3.6057083569476553e-06 0.0000000000000000e+00  -5.5167059523410400e-05 -5.5552389803698105e-06 0.0000000000000000e+00  -5.1687766586761729e-05 -6.7540115381552266e-06 0.0000000000000000e+00  -4.8750320391659938e-05 -7.7170832011959235e-06 0.0000000000000000e+00  -4.5037572168344519e-05 -7.1012083315287685e-06 0.0000000000000000e+00  -4.1704417716011960e-05 -6.6225435244479784e-06 0.0000000000000000e+00  -3.7816154815541068e-05 -4.0323852889539892e-06 0.0000000000000000e+00  3.7481226505494029e-06 1.3012311676898698e-04 0.0000000000000000e+00  -2.8804061671519248e-05 7.2102466125359111e-06 0.0000000000000000e+00  -2.4419354878714378e-05 1.6355976045796769e-05 0.0000000000000000e+00  -2.0325298611510897e-05 2.6315649322328539e-05 0.0000000000000000e+00  -1.6502033971103361e-05 3.6951501243726381e-05 0.0000000000000000e+00  -1.2994612131031622e-05 4.8159597428593512e-05 0.0000000000000000e+00  -9.8120408396050541e-06 5.9647488509317640e-05 0.0000000000000000e+00  -6.9718252421521870e-06 7.1212042752189194e-05 0.0000000000000000e+00  -4.4928164041059141e-06 8.2683392472927565e-05 0.0000000000000000e+00  -2.4156059934797983e-06 9.3684074777277231e-05 0.0000000000000000e+00  -7.1691403031717333e-07 1.0383019619937082e-04 0.0000000000000000e+00  6.2252434342259191e-07 1.1281903758799231e-04 0.0000000000000000e+00  1.6219961685148857e-06 1.2041604333676488e-04 0.0000000000000000e+00  2.3371484102381879e-06 1.2602893913841938e-04 0.0000000000000000e+00  2.8772224987539231e-06 1.2951421581916243e-04 0.0000000000000000e+00  3.3348460922447702e-06 1.3082109801559129e-04 0.0000000000000000e+00  -3.3475670903246526e-05 -9.8710029846569624e-07 0.0000000000000000e+00  4.2315241865641040e-06 1.2675862738742045e-04 0.0000000000000000e+00  4.9479726120393566e-06 1.2116210526953070e-04 0.0000000000000000e+00  5.9903537444438582e-06 1.1367440872494402e-04 0.0000000000000000e+00  7.4870928934218879e-06 1.0451453016569472e-04 0.0000000000000000e+00  9.4160706109402577e-06 9.5104231861025106e-05 0.0000000000000000e+00  1.1668671639158095e-05 8.5405780976661148e-05 0.0000000000000000e+00  1.4207140498678556e-05 7.5525918580300616e-05 0.0000000000000000e+00  1.7028673087690500e-05 6.5598361919584597e-05 0.0000000000000000e+00  2.0077785360056449e-05 5.5924468060114059e-05 0.0000000000000000e+00  2.3335100256766582e-05 4.6444937238658730e-05 0.0000000000000000e+00  2.6796299027209914e-05 3.7237470853717706e-05 0.0000000000000000e+00  3.0465414960423059e-05 2.8395793500350535e-05 0.0000000000000000e+00  3.4359904949537189e-05 2.0042284311687077e-05 0.0000000000000000e+00  3.8494353273415141e-05 1.2376644158350544e-05 0.0000000000000000e+00  4.2876260552658808e-05 5.5091934484124590e-06 0.0000000000000000e+00  4.5311020078581552e-05 3.4364252587962870e-06 0.0000000000000000e+00  4.0673857614522721e-05 8.9497286936145095e-06 0.0000000000000000e+00  3.2383912384712349e-05 2.4142426925457125e-05 0.0000000000000000e+00  2.5040035179259788e-05 4.1801949279966430e-05 0.0000000000000000e+00  1.8525891942147229e-05 6.0748458418980512e-05 0.0000000000000000e+00  1.2903913317376761e-05 8.0484816529343607e-05 0.0000000000000000e+00  8.4065466817246157e-06 9.9866287571154846e-05 0.0000000000000000e+00  5.4226174878308902e-06 1.1762535641426320e-04 0.0000000000000000e+00  3.9685643199429140e-06 1.2873235692686927e-04 0.0000000000000000e+00  3.1118867174100391e-06 1.3044553332855198e-04 0.0000000000000000e+00  2.0077667140120671e-06 1.2347716814319163e-04 0.0000000000000000e+00  -3.5292589623128464e-09 1.0849321333075880e-04 0.0000000000000000e+00  -3.4064163528593341e-06 8.8276887788041466e-05 0.0000000000000000e+00  -8.3476299308011910e-06 6.5437499545868691e-05 0.0000000000000000e+00  -1.4709252874016265e-05 4.2514540288052585e-05 0.0000000000000000e+00  -2.2336244334117179e-05 2.1253442268549252e-05 0.0000000000000000e+00  -3.1127557815416669e-05 3.1251085588528655e-06 0.0000000000000000e+00  3.6396549190247541e-05 1.6113858033259504e-05 0.0000000000000000e+00  2.8604715180495452e-05 3.2767885215245154e-05 0.0000000000000000e+00  2.1680912083776614e-05 5.1156038691433063e-05 0.0000000000000000e+00  1.5580385627605769e-05 7.0528712073981918e-05 0.0000000000000000e+00  1.0504768332757229e-05 9.0284621623065229e-05 0.0000000000000000e+00  6.6550399246815814e-06 1.0920109999546285e-04 0.0000000000000000e+00  4.5542076686433611e-06 1.2421677974772829e-04 0.0000000000000000e+00  3.5604090593978935e-06 1.3077043379633408e-04 0.0000000000000000e+00  2.6230737807901366e-06 1.2804434421993658e-04 0.0000000000000000e+00  1.1700253673342757e-06 1.1682723199255258e-04 0.0000000000000000e+00  -1.5199296184073618e-06 9.8882815582723257e-05 0.0000000000000000e+00  -5.6832097363925708e-06 7.6963631522625618e-05 0.0000000000000000e+00  -1.1361696838365338e-05 5.3881112821401487e-05 0.0000000000000000e+00  -1.8379048004828860e-05 3.1532760416752693e-05 0.0000000000000000e+00  -2.6575723540529915e-05 1.1671604676756094e-05 0.0000000000000000e+00  6.6434315091637387e-05 1.0033116978612608e-05 0.0000000000000000e+00  5.2232562159737303e-05 7.4034584866569368e-07 0.0000000000000000e+00  5.8159073487764983e-05 1.7616931022547809e-06 0.0000000000000000e+00  6.3151939849104784e-05 5.1994166906259801e-06 0.0000000000000000e+00  4.8645113936177949e-05 2.2756317652605094e-06 0.0000000000000000e+00  5.4738446856968939e-05 1.8479968986998691e-06 0.0000000000000000e+00  6.1234346751063250e-05 3.0273020130052552e-06 0.0000000000000000e+00  6.5132650023907990e-05 7.4144977605606869e-06 0.0000000000000000e+00  4.6892420367399246e-05 3.3353453725235459e-06 0.0000000000000000e+00  5.0486191078343595e-05 1.3345317506874552e-06 0.0000000000000000e+00  5.3469835772659087e-05 1.4144558317154542e-06 0.0000000000000000e+00  5.6791088524432351e-05 1.2553875997979981e-06 0.0000000000000000e+00  5.9315391860014845e-05 2.5837691471992168e-06 0.0000000000000000e+00  6.2389562595430056e-05 4.0603572612888196e-06 0.0000000000000000e+00  6.4299813323258638e-05 6.2284284458835520e-06 0.0000000000000000e+00  6.6011070199786443e-05 8.6767031366829904e-06 0.0000000000000000e+00  6.7009710907653161e-05 1.1783996467383802e-05 0.0000000000000000e+00  6.9624641083002340e-05 5.1471717045823436e-05 0.0000000000000000e+00  6.9396838365513348e-05 4.7688132954221324e-05 0.0000000000000000e+00  6.8532931693526908e-05 4.3927684313003630e-05 0.0000000000000000e+00  6.7348103507371165e-05 4.0252393987864679e-05 0.0000000000000000e+00  6.5986667311687653e-05 3.6726808260880494e-05 0.0000000000000000e+00  6.5216683510368740e-05 3.3327171513371622e-05 0.0000000000000000e+00  6.5018746094523558e-05 2.9950858518908799e-05 0.0000000000000000e+00  6.5383175320816276e-05 2.6539192277706165e-05 0.0000000000000000e+00  6.6304751016715892e-05 2.2995221182268775e-05 0.0000000000000000e+00  6.7021486558783546e-05 1.9302913794406706e-05 0.0000000000000000e+00  6.7368066097453760e-05 1.5538961712207059e-05 0.0000000000000000e+00  6.9313799529646054e-05 5.3269358669845026e-05 0.0000000000000000e+00  6.9619531348065968e-05 4.9582395209152134e-05 0.0000000000000000e+00  6.7968374990962067e-05 4.2076517265392203e-05 0.0000000000000000e+00  6.5527922163295633e-05 3.5019883686765159e-05 0.0000000000000000e+00  6.5129149562883609e-05 2.8253418192416333e-05 0.0000000000000000e+00  6.6696556670964085e-05 2.1161782657575562e-05 0.0000000000000000e+00  6.7311067012535515e-05 1.3654182035505051e-05 0.0000000000000000e+00  6.9014643432321692e-05 4.5800360059160549e-05 0.0000000000000000e+00  6.6639398842785184e-05 3.8460588873646190e-05 0.0000000000000000e+00  6.5049087157527323e-05 3.1639820905800672e-05 0.0000000000000000e+00  6.5819826713911508e-05 2.4795926363267100e-05 0.0000000000000000e+00  6.7250434271768660e-05 1.7425677450586039e-05 0.0000000000000000e+00  6.6881991281361831e-05 5.8369350015600728e-05 0.0000000000000000e+00  6.2777418441739455e-05 6.2432542837629666e-05 0.0000000000000000e+00  5.7581399631514909e-05 6.4504872435390320e-05 0.0000000000000000e+00  6.8367399753745735e-05 5.5973579989994800e-05 0.0000000000000000e+00  6.5319329807693636e-05 6.0747551234033049e-05 0.0000000000000000e+00  5.9748233931988578e-05 6.2837756518068874e-05 0.0000000000000000e+00  5.4284598509758996e-05 6.3712754343223779e-05 0.0000000000000000e+00  6.9018646161630396e-05 5.4654933618752758e-05 0.0000000000000000e+00  6.7771441775652720e-05 5.7238583589533425e-05 0.0000000000000000e+00  6.6277732719042479e-05 5.9596829378410944e-05 0.0000000000000000e+00  6.3701284879494417e-05 6.1404430516302170e-05 0.0000000000000000e+00  6.1587208720887557e-05 6.3142254438400917e-05 0.0000000000000000e+00  5.8660648612538527e-05 6.3552558223558636e-05 0.0000000000000000e+00  5.5983988766180419e-05 6.4257147068344162e-05 0.0000000000000000e+00  5.2664482338891893e-05 6.3121558010058293e-05 0.0000000000000000e+00  3.0846850489105014e-05 7.3608372561285469e-05 0.0000000000000000e+00  -2.8469619301207299e-05 -4.4129883643924738e-07 0.0000000000000000e+00  1.0046912505242812e-05 -5.5659172593726703e-06 0.0000000000000000e+00  4.5456395102720377e-05 3.0287610080540170e-05 0.0000000000000000e+00  -3.6767540077613005e-05 4.5332522789307185e-05 0.0000000000000000e+00  -5.3171125796061108e-06 9.4417103623106922e-05 0.0000000000000000e+00  -6.2418716525495862e-05 3.3946964097515631e-05 0.0000000000000000e+00  6.2564972439486594e-05 2.0544148838947991e-05 0.0000000000000000e+00  6.4034173056803199e-05 4.4753838771694248e-05 0.0000000000000000e+00  -5.7749430572275654e-05 1.2239434472278940e-05 0.0000000000000000e+00  -4.6155026372724094e-05 1.6172818822724309e-05 0.0000000000000000e+00  -5.1836253593742857e-05 2.7646772777058228e-05 0.0000000000000000e+00  -4.0371824824968421e-05 4.4960596641987223e-05 0.0000000000000000e+00  -5.0616240010221209e-05 3.0057459416097765e-05 0.0000000000000000e+00  -3.5207185482744808e-05 3.3417419066048548e-05 0.0000000000000000e+00  -5.8576694750439710e-05 2.5333070231897351e-05 0.0000000000000000e+00  -2.1599949239100888e-05 5.7826933107505554e-05 0.0000000000000000e+00  -1.3229395527754722e-05 3.3216500046430222e-05 0.0000000000000000e+00  2.0198295704881053e-06 6.0765155346493439e-05 0.0000000000000000e+00  1.1254745610981222e-05 3.1986323924529142e-05 0.0000000000000000e+00  2.8811065502003780e-05 5.6702900484835020e-05 0.0000000000000000e+00  3.2905385787383556e-05 3.2174152225396697e-05 0.0000000000000000e+00  4.4195841020734249e-05 4.1689154083539486e-05 0.0000000000000000e+00  5.5469388553831512e-05 4.7187426178848255e-05 0.0000000000000000e+00  5.7575130684414974e-05 3.8231948743253915e-05 0.0000000000000000e+00  6.1841031779446675e-05 3.3961151937297015e-05 0.0000000000000000e+00  5.6444644902060130e-05 3.2892576501906132e-05 0.0000000000000000e+00  -5.3596444323416493e-05 3.4622590545925896e-05 0.0000000000000000e+00  1.4926746103950234e-05 9.0401744185128564e-05 0.0000000000000000e+00  5.2205801397045796e-05 2.1802399188384305e-05 0.0000000000000000e+00  4.2342712952948512e-05 4.6218694806765084e-05 0.0000000000000000e+00  -2.3676152140074425e-05 7.5181927916252554e-05 0.0000000000000000e+00  -4.3045809405708688e-05 2.1228332795196837e-05 0.0000000000000000e+00  -1.0324563679127225e-05 -9.5927709088739828e-06 0.0000000000000000e+00  3.0960514703467328e-05 1.3009635850316232e-05 0.0000000000000000e+00  -5.4787215067877897e-05 2.8071604385549582e-05 0.0000000000000000e+00  4.7519502203692860e-05 3.2094980515440516e-05 0.0000000000000000e+00  5.5039552863964244e-05 3.7070790589063531e-05 0.0000000000000000e+00  -4.2711665334216227e-05 1.6971240845439628e-05 0.0000000000000000e+00  5.7918612727060608e-05 9.8684870960739530e-06 0.0000000000000000e+00  -2.4943288620523021e-05 1.5576822739216136e-05 0.0000000000000000e+00  -5.1269722377006181e-05 1.6992420795