<?xml version="1.0"?>
<VTKFile type="UnstructuredGrid"  version="0.1"  >
<UnstructuredGrid>
<Piece  NumberOfPoints="4153" NumberOfCells="8064">
<Points>
<DataArray  type="Float64"  NumberOfComponents="3"  format="ascii">-0.4163753685666401 -0.6435472148367701 0  -0.03734872271974865 -0.8244257364521125 0  -0.09178551276391997 -0.818457751182717 0  -0.1449719966516075 -0.8064312853690808 0  -0.1963175907826206 -0.7889760074826598 0  -0.2457694888259481 -0.7677628906887681 0  -0.2926150226406318 -0.7409902186596657 0  -0.3366133360982396 -0.7107622522666999 0  -0.3777372529018833 -0.6779769935952153 0  0.01754512483808837 -0.8239562009864075 0  -0.4524390349539988 -0.6091280153345203 0  -0.4866108051806904 -0.5747722874907163 0  -0.5189661337940604 -0.540781612363038 0  -0.5498031651963317 -0.5076581060499683 0  -0.579522093563997 -0.4760068432936878 0  -0.608444217736704 -0.4461846357426474 0  -0.6366833024714916 -0.4189680036714009 0  0.6336706182154499 -0.4140575219202738 0  0.07205090415314452 -0.8171136992552734 0  0.1253606954773185 -0.8041785966427407 0  0.176781646352915 -0.7857389308268714 0  0.2257740700922893 -0.7624919997958085 0  0.2720997991638845 -0.73566480647598 0  0.3157007233271992 -0.7060655444835564 0  0.3566595941414945 -0.6745392243517886 0  0.39510403502786 -0.6417707327526879 0  0.4314170463840056 -0.6086243272988328 0  0.4658673056654709 -0.5755574913377168 0  0.4987551276015014 -0.5430010425438287 0  0.5303053974688163 -0.5113231369919823 0  0.5608621488041509 -0.4808491148543753 0  0.5905861927304319 -0.452042579758285 0  0.6197237952271477 -0.4257448942840699 0  0.6049455307691146 -0.4387654357150791 0  -0.6223461436360673 -0.4323535528639741 0  -0.5647578903877104 -0.4917536693667204 0  -0.5029883547541659 -0.5577071465982805 0  -0.4346338580879263 -0.6263155321443404 0  -0.3575586331092326 -0.6945308117889708 0  -0.2695129298455099 -0.7548465554410185 0  -0.1709083080509775 -0.7984726045434409 0  -0.06467717644977249 -0.822232558387667 0  0.5757424428688604 -0.4664311036474802 0  0.1513433389608576 -0.7955901525306166 0  0.2492796246526565 -0.7494863110066718 0  0.3364876346875806 -0.6904874070178696 0  0.4135155546476307 -0.6252288563505245 0  0.4824809531010391 -0.5592116962671674 0  0.5457174552853334 -0.4960502858093989 0  0.04489901476742201 -0.8213226993568578 0  -0.6502633888795999 -0.4068614472244637 0  0.5146832241734598 -0.5270523662621101 0  0.4488537717914799 -0.5920647329981126 0  0.3761870257035326 -0.6582466817923565 0  0.2942382297443316 -0.7211668182807367 0  0.2016204982923248 -0.7746643410285788 0  0.09890218746689414 -0.8113756809206831 0  -0.00990368141423548 -0.8250025490076383 0  -0.1185797318346781 -0.8131941948310752 0  -0.2211501247121334 -0.778832283332332 0  -0.3148955061364006 -0.7260694268788332 0  -0.3976844783218608 -0.6613536407760521 0  -0.4697713341183258 -0.5919530410491174 0  -0.5345868267989383 -0.5241291696192574 0  -0.593971717078429 -0.4610288986925113 0  0.750292183555639 -0.2249882238479857 0  0.6788587552616319 -0.3798811244208865 0  0.7185454318613526 -0.3366257923802148 0  0.7436237768372495 -0.2843455883331452 0  0.656833929598622 -0.3974435281902923 0  0.6998729529004246 -0.3595937872882278 0  0.7290310377272142 -0.3088942059117504 0  0.7456839953132969 -0.254281117662963 0  0.6450915740446754 -0.4059877368149003 0  0.6678312302527425 -0.3878334437104037 0  0.6895028189709489 -0.3698891300001739 0  0.7089244113805864 -0.3472569566525381 0  0.7266127245695497 -0.3241762178574223 0  0.7353392747686261 -0.2964177201547553 0  0.743416975749712 -0.2690313841800145 0  0.7472869458221733 -0.2394714218473038 0  0.7499687628458529 -0.2058020304837076 0  0.7530792185259553 0.2267639612716033 0  0.7542084224537686 0.1886220549809987 0  0.7565815022963948 0.1499691385831667 0  0.7592152813870696 0.1107373457225047 0  0.7618262835810258 0.07089126159998578 0  0.7628733196341911 0.03057327087113371 0  0.7624906919087944 -0.009858574940522793 0  0.760675700930845 -0.05014737874661712 0  0.7574070424313378 -0.08992165105860854 0  0.7542039826319644 -0.1290963672269103 0  0.7513530740567217 -0.1676872120149736 0  0.7539887717128617 0.2458614835436705 0  0.753438521753248 0.2077457220302638 0  0.7579085558550883 0.1304266042534054 0  0.7625255453211759 0.05076401268049823 0  0.7617661227699758 -0.03003774675218362 0  0.7558165843197868 -0.1095879903966027 0  0.7504391471291276 -0.1867993925622859 0  0.7553348364244031 0.1693667225283386 0  0.7606223716527953 0.09091289765803962 0  0.7628556869589823 0.01035575684338556 0  0.7591037299229073 -0.07013295247686006 0  0.7527084462094328 -0.1484653650050422 0  0.6438062672049731 0.4371503039150315 0  0.7488262031467776 0.305394513849398 0  0.7253249606945321 0.3585881875823749 0  0.6874279395458959 0.4026343138798418 0  0.750335944570564 0.2752532140031542 0  0.7355991124488885 0.3307948989712864 0  0.7074796819835109 0.3816986143087645 0  0.6659651847516258 0.4201017151580572 0  0.7516385639875937 0.2604582621265768 0  0.7487053594431405 0.2901003795759332 0  0.7414163421790739 0.3178741369041939 0  0.7324040808378947 0.3456085751686973 0  0.7160501941389461 0.3692678428466499 0  0.6975614769221701 0.3922567571962439 0  0.6766409922681424 0.4106148801471162 0  0.6546978389556498 0.428786254685643 0  -0.02958301617190242 0.8785070991175039 0  0.602882206227681 0.4767368771162703 0  0.5746719938995121 0.506967031341111 0  0.5456816765700756 0.539182674642292 0  0.5155726058580572 0.5730187482680958 0  0.483932145581728 0.6079363542898986 0  0.4504535582429336 0.643520028127213 0  0.4148193641018737 0.6793260224828789 0  0.3766697393093123 0.7149200403148687 0  0.3355828881878243 0.7492180950989696 0  0.291410517037835 0.7814743618717965 0  0.2440611388138036 0.8107265898707069 0  0.1936232247206215 0.8361625557811295 0  0.1403661825894055 0.8563210859403769 0  0.08488786984642001 0.8704305404424332 0  0.02796181370412762 0.8778189556465237 0  0.6305128134175811 0.4492645836219729 0  -0.08669246496800913 0.8714908949190379 0  -0.1423398881032928 0.8576669625499919 0  -0.1956889363452753 0.8376967037965238 0  -0.2459940128442147 0.811808952431623 0  -0.2934530735192058 0.783469224336347 0  -0.3377236999335121 0.7520322467406308 0  -0.3789894104366844 0.718559315349301 0  -0.4174508778837634 0.6837037814829618 0  -0.4534615372170382 0.6487521842070063 0  -0.4874829867952911 0.6140262167479068 0  -0.5197879315052346 0.5799027008210285 0  -0.5506663744343083 0.5467496688723321 0  -0.5804026335305703 0.5149080758835961 0  -0.6092553756554078 0.4849155622043727 0  -0.6374627317137431 0.4575895742244987 0  -0.6509797374410818 0.4454750711611183 0  -0.6231429906399297 0.4710655126636641 0  -0.5656744351772202 0.530767792198594 0  -0.5038346749048885 0.5968810219355291 0  -0.4357110316464007 0.6662123205024404 0  -0.3587118588562055 0.7354502268922082 0  -0.2701137297225963 0.798101841305948 0  -0.1693269318782544 0.8482204623951553 0  -0.05824909712044463 0.8758514734107959 0  0.05656216369608543 0.8750254218844072 0  0.1673159248102586 0.8469239216957312 0  0.2681346733723008 0.7965442899450776 0  0.3564883434630642 0.7322478064197439 0  0.4329253850111619 0.661427907523339 0  0.4999615247621758 0.5903768730333787 0  0.5602847822970223 0.5229699967032314 0  0.6164871506528747 0.4627893409969782 0  -0.5948399321101374 0.4998569583882095 0  -0.5353971860690105 0.563228282810445 0  -0.4707100890812204 0.6313457913214318 0  -0.3986256527278526 0.7013091050017622 0  -0.3159619538065223 0.7680280294208699 0  -0.2215347850760614 0.8258350266877744 0  -0.1147402443406166 0.8653268579266408 0  -0.0007456219629571829 0.8790559067428765 0  0.1128619964491926 0.8641767906561654 0  0.2192533971022474 0.8240726744523349 0  0.3138898740747279 0.765659139146559 0  0.3961208403378823 0.6972337989532476 0  0.467441532317857 0.6256757435180237 0  0.5308219807723853 0.5559784835112421 0  0.5887822282236992 0.4917671860449038 0  -0.7639983842007764 0.2544581756358305 0  -0.6951123879425449 0.4107399342962844 0  -0.7337299563563914 0.3668329323257417 0  -0.7579614817228393 0.3139631980233621 0  -0.6734770674282112 0.4283922381668334 0  -0.7155693589445747 0.3899839264998426 0  -0.7440792712205277 0.3390049473460316 0  -0.7597892172180888 0.2838319159879897 0  -0.6620227387517024 0.4370943043163289 0  -0.6842602206133576 0.4187804108985836 0  -0.7054628334875372 0.400475002602574 0  -0.724333215941754 0.3775374963466013 0  -0.7412690804395726 0.3540587522736253 0  -0.7501272970141207 0.3262715750910105 0  -0.7578242136792775 0.2986515071668486 0  -0.7612721124921104 0.2690174344593496 0  -0.7634051338329758 0.2352864078990245 0  -0.7631477162454183 -0.1978297206922362 0  -0.7644899008112026 -0.159697006756393 0  -0.7671804427039616 -0.12105347158586 0  -0.7701661345026696 -0.08181480832011157 0  -0.7731591359856796 -0.04196065137721095 0  -0.7746308630954951 -0.001605912528319474 0  -0.7746664141381344 0.03888209766020851 0  -0.773268581353585 0.07924691463664665 0  -0.7703580987272367 0.1191280179904678 0  -0.7674226615991783 0.1584058396411907 0  -0.7647510982602447 0.1970985210676894 0  -0.7637920881391683 -0.2169731763007086 0  -0.7636025383288221 -0.1788205029016122 0  -0.7686870738780008 -0.1015118798551232 0  -0.7740746902207569 -0.02181708626603303 0  -0.7741467185002633 0.05909692469942955 0  -0.7689067945576333 0.1388429717508528 0  -0.7638636615712456 0.216248141848591 0  -0.7657692164333747 -0.1404493185435562 0  -0.7717454647918278 -0.06198777606027634 0  -0.7748230635857332 0.01863750418451397 0  -0.7718988376551703 0.09928463931848643 0  -0.766026278179973 0.1778251177595779 0  -0.7576957305069127 -0.2763846020166443 0  -0.7332557923534324 -0.3290623595536034 0  -0.694510144378799 -0.3726480262564505 0  -0.7596257118594363 -0.2463137622533313 0  -0.7438355825521623 -0.3014228693871759 0  -0.7150298880930367 -0.3520927015405011 0  -0.6727420677522009 -0.3900480638816631 0  -0.7611086069084301 -0.2315198744868898 0  -0.75767
[...]
<CellData  Scalars="f_4353"> 
<DataArray  type="Float64"  Name="f_4353"  format="ascii">1.1177202566946821e-01   1.1177577485769789e-01   1.1176882345379220e-01   1.1177057645781456e-01   1.1177622329175489e-01   1.1176823218022609e-01   1.1177817531562001e-01   1.1177751291812481e-01   1.1176580344811625e-01   1.1177723300932645e-01   1.1176351968299889e-01   1.1176565360848731e-01   1.1177145624655246e-01   1.1177957727952223e-01   1.1177023496189310e-01   1.1177215539944380e-01   1.1177818587594139e-01   1.1176430787038398e-01   1.1177963500402059e-01   1.1177883151375854e-01   1.1176776257460802e-01   1.1178095700810423e-01   1.1177073931687746e-01   1.1176849786544998e-01   1.1178211358216976e-01   1.1177227141952517e-01   1.1178215148596674e-01   1.1178301496144144e-01   1.1178047813168354e-01   1.1177215434459918e-01   1.1178216670672828e-01   1.1178124191731729e-01   1.1176213737504691e-01   1.1177918306200875e-01   1.1176152725807256e-01   1.1176402924556983e-01   1.1177967099046121e-01   1.1176671299792919e-01   1.1177976526638325e-01   1.1178110875947224e-01   1.1176544533337152e-01   1.1178155904007601e-01   1.1175793494377143e-01   1.1176483256719358e-01   1.1176979411620089e-01   1.1178138193915760e-01   1.1176594827173700e-01   1.1176816009368461e-01   1.1177326504646179e-01   1.1178255716195151e-01   1.1177402135993834e-01   1.1177426943166546e-01   1.1178402798008419e-01   1.1177725180494756e-01   1.1178380317895363e-01   1.1178403657877230e-01   1.1177455592804057e-01   1.1178292952143734e-01   1.1177023044492092e-01   1.1177213867963665e-01   1.1177661526481425e-01   1.1178363438763060e-01   1.1177471091071563e-01   1.1177348947178951e-01   1.1178953495766604e-01   1.1178510873479659e-01   1.1178897984331762e-01   1.1178805291265813e-01   1.1178290788942397e-01   1.1178453573497822e-01   1.1177754147133011e-01   1.1178143107067794e-01   1.1178932241497856e-01   1.1178092840895543e-01   1.1178891458420061e-01   1.1178419041731842e-01   1.1178739910931591e-01   1.1177727237662891e-01   1.1178171843582947e-01   1.1178619234139912e-01   1.1177819520617722e-01   1.1178326669088134e-01   1.1177042668942627e-01   1.1177457533022467e-01   1.1177985854050047e-01   1.1176707920705500e-01   1.1177733685173896e-01   1.1178192171629023e-01   1.1176274546721141e-01   1.1177978540272941e-01   1.1174637527519732e-01   1.1175793442946590e-01   1.1177149699790910e-01   1.1177793578857159e-01   1.1176245480940607e-01   1.1177133053155205e-01   1.1178838598512640e-01   1.1177460327568042e-01   1.1178686229007420e-01   1.1178160926468503e-01   1.1177208399215578e-01   1.1178338716372586e-01   1.1176014874895329e-01   1.1176676566557413e-01   1.1178607550798675e-01   1.1176123039071430e-01   1.1178512525790996e-01   1.1177037755488002e-01   1.1178184859322604e-01   1.1175333556729500e-01   1.1176884647432468e-01   1.1176395499920629e-01   1.1178553648424842e-01   1.1176199323926994e-01   1.1177199279712460e-01   1.1178411174517212e-01   1.1175053387613287e-01   1.1177295324923775e-01   1.1172852771270461e-01   1.1175235339791484e-01   1.1177766933127518e-01   1.1173689486057120e-01   1.1175846622791376e-01   1.1175449961855781e-01   1.1178988465360086e-01   1.1171186945815952e-01   1.1173702667574086e-01   1.1179018863608763e-01   1.1165320230421796e-01   1.1171449328557385e-01   1.1169021894270525e-01   1.1174904144109644e-01   1.1171948202486104e-01   1.1176827133083694e-01   1.1175108295274146e-01   1.1174685934893237e-01   1.1170019656009786e-01   1.1172067277169916e-01   1.1171233076266188e-01   1.1176974877385097e-01   1.1174044609029644e-01   1.1174910382948523e-01   1.1176022814812409e-01   1.1174837902639001e-01   1.1172745929063105e-01   1.1177423899935190e-01   1.1175297684561564e-01   1.1175066741199696e-01   1.1176704828762450e-01   1.1175269995571986e-01   1.1176614091669862e-01   1.1176202943277616e-01   1.1175505992890247e-01   1.1177060905975726e-01   1.1175887854520622e-01   1.1175823320882421e-01   1.1175263979963322e-01   1.1176484061443590e-01   1.1175814061473605e-01   1.1175496735937406e-01   1.1172487517959352e-01   1.1173510825737866e-01   1.1173647508093205e-01   1.1177701893506739e-01   1.1174382006278032e-01   1.1177959536821373e-01   1.1176006887720721e-01   1.1175639689881764e-01   1.1174649516894465e-01   1.1175152299168169e-01   1.1175755573066339e-01   1.1178079518580382e-01   1.1177110834800008e-01   1.1175726909497534e-01   1.1177278883048858e-01   1.1177139958895556e-01   1.1175308856337199e-01   1.1175956055706458e-01   1.1176710240151135e-01   1.1175770176603639e-01   1.1176243731248969e-01   1.1176996124662648e-01   1.1176544447160482e-01   1.1176399372868111e-01   1.1176862523628178e-01   1.1176134025452940e-01   1.1176957720975160e-01   1.1176843738122205e-01   1.1176172479150169e-01   1.1176612223801531e-01   1.1176985352769607e-01   1.1176697050227639e-01   1.1167982269693172e-01   1.1175448356165736e-01   1.1173989499942182e-01   1.1170737736699754e-01   1.1176827919765248e-01   1.1175511643132616e-01   1.1177116474651742e-01   1.1176177403672320e-01   1.1175530825844182e-01   1.1176939394671016e-01   1.1176923200904366e-01   1.1176162833601119e-01   1.1173677766674445e-01   1.1176915610389611e-01   1.1176767295848256e-01   1.1175458759914612e-01   1.1177297054729583e-01   1.1176990074653939e-01   1.1177582200814533e-01   1.1177264350094696e-01   1.1177713423793546e-01   1.1177794379585269e-01   1.1177736178177075e-01   1.1177185055725035e-01   1.1178026816235048e-01   1.1178079863295305e-01   1.1178303108485309e-01   1.1178140094121741e-01   1.1177645409265421e-01   1.1177486596641822e-01   1.1178019809959718e-01   1.1177468473704341e-01   1.1177642730585700e-01   1.1177646567431143e-01   1.1178090768107740e-01   1.1177484211483446e-01   1.1177921833065030e-01   1.1177812789606961e-01   1.1178064631510769e-01   1.1177848934525335e-01   1.1178411336618758e-01   1.1178228112126663e-01   1.1178414779763171e-01   1.1178020749581505e-01   1.1178018837273586e-01   1.1178209371366804e-01   1.1178209840845293e-01   1.1178263205282733e-01   1.1176625607904478e-01   1.1177931221729545e-01   1.1177993264844871e-01   1.1177445175984889e-01   1.1178316896000466e-01   1.1178343852897553e-01   1.1178533760187440e-01   1.1178285457087725e-01   1.1178147395661782e-01   1.1178403720673608e-01   1.1178359764535796e-01   1.1178432823744265e-01   1.1178033923298110e-01   1.1178552858835782e-01   1.1178600116144256e-01   1.1178475730513421e-01   1.1161175609046077e-01   1.1188760088340212e-01   1.1178616467176188e-01   1.1186624835397579e-01   1.1176933892492133e-01   1.1178096033104931e-01   1.1179665547616430e-01   1.1174784251054551e-01   1.1178691844669372e-01   1.1178685679742463e-01   1.1178622187898464e-01   1.1178155528980269e-01   1.1172150403633353e-01   1.1176205530466030e-01   1.1179363253453850e-01   1.1175710270341664e-01   1.1178637487001890e-01   1.1178369415461067e-01   1.1178595652643376e-01   1.1178412520051091e-01   1.1178289652566399e-01   1.1178654643278813e-01   1.1178040169123492e-01   1.1178019110826481e-01   1.1178598239705878e-01   1.1178186998415204e-01   1.1178614415528679e-01   1.1178602538917985e-01   1.1178496247999443e-01   1.1178233352602807e-01   1.1178722316935139e-01   1.1181235814521255e-01   1.1178559150393130e-01   1.1178566292581617e-01   1.1178495803503613e-01   1.1178320978320172e-01   1.1178481684302503e-01   1.1178323292928259e-01   1.1178446104286821e-01   1.1178527653951920e-01   1.1178382814863339e-01   1.1178322898471484e-01   1.1178356379445734e-01   1.1178280542362024e-01   1.1178277429964931e-01   1.1178538032415565e-01   1.1178286422239680e-01   1.1178219056324734e-01   1.1176956713337209e-01   1.1175076878182566e-01   1.1178291425410448e-01   1.1176392908627411e-01   1.1178830781523837e-01   1.1177982403103012e-01   1.1178731457424242e-01   1.1181102013654340e-01   1.1177940178188063e-01   1.1178686592960113e-01   1.1178145361538674e-01   1.1177854092423002e-01   1.1176199943393475e-01   1.1176747906390230e-01   1.1178290751900533e-01   1.1173270926349273e-01   1.1178441595550578e-01   1.1178690286423086e-01   1.1178297700091849e-01   1.1178474026749859e-01   1.1178767410257079e-01   1.1178465366897440e-01   1.1178875460342234e-01   1.1178818345127384e-01   1.1178460180970089e-01   1.1178914925148947e-01   1.1178645136314808e-01   1.1178670119248936e-01   1.1178661420731921e-01   1.1178891912024497e-01   1.1178628223307500e-01   1.1178800998787555e-01   1.1179067564715123e-01   1.1178873990529610e-01   1.1179216290444936e-01   1.1179045801705385e-01   1.1179070920008921e-01   1.1179171730944859e-01   1.1179040536589673e-01   1.1178862696754206e-01   1.1179370237017984e-01   1.1179302706124578e-01   1.1179464804047429e-01   1.1179314890970163e-01   1.1178984057168666e-01   1.1178795169338948e-01   1.1179089287856861e-01   1.1178978620150400e-01   1.1178862642282551e-01   1.1179232971073906e-01   1.1179084894652590e-01   1.1179097824168836e-01   1.1179402304449951e-01   1.1179351948727451e-01   1.1179528555806775e-01   1.1179402219393980e-01   1.1179325823662163e-01   1.1179502388587677e-01   1.1179440421562234e-01   1.1179446182459980e-01   1.1179334957617022e-01   1.1179509147048146e-01   1.1179426740423079e-01   1.1179384426576187e-01   1.1178938677164235e-01   1.1179054721832682e-01   1.1178946443543465e-01   1.1179053572610650e-01   1.1179213906041330e-01   1.1179148412112419e-01   1.1179260992463094e-01   1.1179151285343841e-01   1.1179258117386390e-01   1.1179388440790004e-01   1.1179315604960841e-01   1.1179227196117841e-01   1.1179212072447089e-01   1.1179139053354571e-01   1.1179063816416966e-01   1.1179042495838662e-01   1.1177786051255609e-01   1.1177230839337962e-01   1.1178526375274041e-01   1.1177879843463705e-01   1.1177813642836722e-01   1.1178574016581867e-01   1.1177910259226741e-01   1.1177390334561749e-01   1.1178632316978653e-01   1.1178154756741430e-01   1.1178857176831672e-01   1.1178670515061026e-01   1.1177987222543734e-01   1.1177543550921393e-01   1.1178631637057559e-01   1.1178075402147900e-01   1.1178494154867244e-01   1.1178884350540451e-01   1.1178538964882632e-01   1.1178222816223637e-01   1.1178922930380475e-01   1.1178293199726247e-01   1.1178755850282095e-01   1.1178722147859672e-01   1.1178583392777969e-01   1.1178939200024657e-01   1.1178623918520716e-01   1.1178354707141845e-01   1.1178011682289553e-01   1.1178672766411046e-01   1.1178105323744068e-01   1.1177687200060703e-01   1.1179040279122404e-01   1.1178789353869295e-01   1.1179217529093689e-01   1.1179062173428835e-01   1.1179052082209742e-01   1.1179233145002816e-01   1.1179078083925198e-01   1.1178818427182868e-01   1.1179381902461685e-01   1.1179312247099883e-01   1.1179534846357475e-01   1.1179420366066019e-01   1.1179089333400825e-01   1.1178852470324685e-01   1.1179273027925923e-01   1.1179112808827166e-01   1.1178151232883676e-01   1.1177813412004883e-01   1.1178701250565105e-01   1.1178229242512121e-01   1.1178184298910238e-01   1.1178728800379729e-01   1.1178278896775207e-01   1.1177961746086582e-01   1.1178773530727437e-01   1.1178408920714913e-01   1.1178954547844928e-01   1.1178790988222130e-01   1.1178233388780832e-01   1.1177949823179281e-01   1.1178712544581179e-01   1.1178538498617983e-01   1.1177955257916607e-01   1.1178541429348317e-01   1.1177976616452524e-01   1.1178285121237048e-01   1.1178544757476928e-01   1.1178355859034858e-01   1.1178774745234814e-01   1.1178755683099878e-01   1.1177709435252711e-01   1.1178499329371613e-01   1.1177520736212815e-01   1.1178018554860594e-01   1.1178353947677462e-01   1.1178874389465773e-01   1.1178438229503944e-01   1.1178491298682446e-01   1.1178449247447911e-01   1.1177707370341945e-01   1.1178570523675858e-01   1.1178677312596973e-01   1.1177882775382389e-01   1.1178803032324570e-01   1.1178269718038783e-01   1.1178146915534121e-01   1.1178732543192535e-01   1.1178100128288004e-01   1.1178731897059831e-01   1.1178938948089599e-01   1.1178896048868085e-01   1.1178568899350508e-01   1.1179014620812258e-01   1.1179000379222076e-01   1.1177323351150595e-01   1.1178451527245188e-01   1.1177075901600246e-01   1.1177351168141290e-01   1.1178250877941331e-01   1.1177029597261777e-01   1.1178178678381212e-01   1.1178502276386654e-01   1.1177245271619228e-01   1.1178659778235957e-01   1.1176364836904697e-01   1.1176561902566833e-01   1.1177675460739277e-01   1.1178533487171856e-01   1.1177115793583778e-01   1.1177531509342331e-01   1.1178612907992974e-01   1.1179113189487985e-01   1.1178673160653467e-01   1.1178716850453951e-01   1.1179144565500512e-01   1.1178848438579833e-01   1.1179140772243093e-01   1.1179240450815203e-01   1.1178465676271339e-01   1.1178934066291206e-01   1.1177928185675787e-01   1.1178271549933132e-01   1.1178886522435018e-01   1.1179236864628064e-01   1.1178648598420156e-01   1.1178757642868113e-01   1.1165997550536153e-01   1.1166712027253682e-01   1.1169803179827745e-01   1.1174971111178107e-01   1.1170648132770050e-01   1.1178992754668982e-01   1.1174023759489715e-01   1.1171856790097000e-01   1.1170700209841526e-01   1.1171576739190488e-01   1.1171762052974851e-01   1.1178395043503450e-01   1.1174254559639787e-01   1.1173413610580935e-01   1.1177605439042256e-01   1.1175755254302912e-01   1.1172748193637042e-01   1.1178528221409681e-01   1.1175287384964995e-01   1.1174631469309691e-01   1.1177679446317115e-01   1.1175409894928742e-01   1.1178069701987391e-01   1.1177415066147584e-01   1.1175911517242572e-01   1.1178262747087964e-01   1.1176793081479243e-01   1.1176423898152220e-01   1.1174986692035814e-01   1.1178212602223102e-01   1.1176166086962930e-01   1.1175025070760204e-01   1.1172653089180208e-01   1.1173632268065935e-01   1.1173421515468100e-01   1.1178564063441837e-01   1.1174450440410497e-01   1.1178695287597078e-01   1.1176208424624760e-01   1.1175832181379787e-01   1.1174081310333538e-01   1.1174744416517450e-01   1.1174528585156440e-01   1.1178348590352931e-01   1.1177870644251706e-01   1.1176293126404495e-01   1.1177853285638524e-01   1.1178394129046813e-01   1.1176410445924509e-01   1.1176135530481490e-01   1.1178364184631276e-01   1.1177093288033731e-01   1.1176950610294853e-01   1.1178544419707023e-01   1.1177683010705682e-01   1.1176983343773997e-01   1.1178249209155766e-01   1.1177206454330961e-01   1.1178583260113441e-01   1.1178735799468366e-01   1.1177466098631422e-01   1.1177594135178302e-01   1.1179020760241398e-01   1.1178502611451743e-01   1.1178190297461629e-01   1.1178011407861763e-01   1.1177803107133978e-01   1.1177956399441809e-01   1.1177672657274733e-01   1.1177422161411756e-01   1.1177261486357164e-01   1.1177745242576023e-01   1.1177383535362782e-01   1.1177244547140859e-01   1.1176739923166844e-01   1.1176847606624878e-01   1.1177691155448097e-01   1.1177368898982688e-01   1.1177011711072925e-01   1.1177346662900153e-01   1.1176606105772584e-01   1.1176000481375038e-01   1.1175610337022575e-01   1.1176626076784660e-01   1.1175086117704248e-01   1.1175666145327996e-01   1.1175531471928474e-01   1.1176299544304673e-01   1.1174180297300125e-01   1.1174617902837508e-01   1.1171031086103256e-01   1.1174267326335061e-01   1.1176675293851195e-01   1.1176544721918505e-01   1.1175717126460090e-01   1.1176794221032406e-01   1.1175804296684443e-01   1.1175597636271223e-01   1.1174294456638428e-01   1.1174612892845674e-01   1.1174167164244504e-01   1.1172828525032728e-01   1.1171039214329362e-01   1.1174116225239222e-01   1.1171858767448442e-01   1.1171096457719927e-01   1.1167689656410727e-01   1.1168362139694894e-01   1.1173769725196069e-01   1.1170985026009791e-01   1.1169853999108886e-01   1.1171204646218238e-01   1.1176995121953787e-01   1.1175868154068579e-01   1.1175917772449934e-01   1.1176483329585010e-01   1.1174378372365042e-01   1.1176010870762748e-01   1.1171393574905152e-01   1.1174572001681668e-01   1.1175388695523034e-01   1.1171180077546537e-01   1.1172328175284009e-01   1.1173222994613102e-01   1.1176800577537759e-01   1.1171897768071527e-01   1.1173938955177598e-01   1.1174458964916424e-01   1.1178697170285745e-01   1.1178783548502876e-01   1.1178712972343798e-01   1.1178651163667107e-01   1.1178684220475135e-01   1.1178721572222590e-01   1.1178736492068646e-01   1.1178784429591372e-01   1.1178584178443958e-01   1.1178582039353532e-01   1.1178510564038401e-01   1.1178609080583929e-01   1.1178596577458623e-01   1.1178785014086069e-01   1.1178766377198004e-01   1.1178500061880170e-01   1.1178488319011702e-01   1.1178554072426371e-01   1.1178520916863524e-01   1.1178614217751613e-01   1.1178608662318806e-01   1.1178628640501469e-01   1.1178629414351397e-01   1.1178652930386179e-01   1.1178539463165722e-01   1.1178675318955333e-01   1.1178428139427669e-01   1.1178570690876048e-01   1.1178762839759847e-01   1.1178770333879008e-01   1.1178698472530826e-01   1.1178732455949623e-01   1.1178426418966442e-01   1.1178394162719209e-01   1.1178355875651563e-01   1.1178483241943080e-01   1.1178343574632726e-01   1.1178456945413570e-01   1.1178334277545013e-01   1.1178439208837194e-01   1.1178260488097806e-01   1.1178179265791922e-01   1.1178196916048233e-01   1.1178299287192439e-01   1.1178589291988443e-01   1.1178394433836422e-01   1.1178414022823872e-01   1.1178468481849260e-01   1.1178372733579703e-01   1.1178814008877161e-01   1.1178825837856830e-01   1.1178066413105732e-01   1.1178867405875392e-01   1.1178406048840366e-01   1.1178002765249284e-01   1.1177996503776137e-01   1.1178735070859534e-01   1.1178486348623136e-01   1.1178455020442260e-01   1.1178529975628389e-01   1.1178932392761362e-01   1.1181563710593223e-01   1.1180282808820946e-01   1.1163509915829226e-01   1.1178869990752353e-01   1.1178213295826411e-01   1.1178994937923539e-01   1.1178579382879808e-01   1.1178055941149286e-01   1.1178564149985645e-01   1.1178075499198642e-01   1.1178117525217987e-01   1.1178952781307944e-01   1.1177959773275707e-01   1.1178930316056510e-01   1.1178508038463843e-01   1.1178720332813197e-01   1.1178342570381478e-01   1.1178775401995789e-01   1.1178793717635357e-01   1.1177850172140623e-01   1.1178454454862093e-01   1.1177903431536844e-01   1.1177992536842662e-01   1.1178653915205432e-01   1.1178276709846618e-01   1.1178794121035798e-01   1.1178734283056224e-01   1.1178285470768709e-01   1.1178890380586715e-01   1.1178351948114082e-01   1.1178586070991368e-01   1.1178332714592591e-01   1.1178874554814615e-01   1.1178572655523389e-01   1.1178558897425317e-01   1.1178897728638025e-01   1.1177723936670075e-01   1.1178790483872893e-01   1.1178334943869103e-01   1.1177684728518705e-01   1.1178452010128906e-01   1.1177499524246211e-01   1.1177885627855301e-01   1.1178968292326753e-01   1.1177183999448045e-01   1.1177478039112040e-01   1.1177233110427985e-01   1.1178762838148706e-01   1.1177983108662194e-01   1.1177770935074860e-01   1.1178071180417490e-01   1.1178918366785677e-01   1.1178803279346784e-01   1.1178986397066666e-01   1.1179023414452138e-01   1.1178872003720960e-01   1.1179212279556938e-01   1.1178976863933050e-01   1.1179071067690130e-01   1.1179045171009264e-01   1.1178681279119493e-01   1.1178385350528505e-01   1.1178657342869114e-01   1.1179232261785334e-01   1.1179195257689779e-01   1.1178932533524120e-01   1.1179046951399543e-01   1.1179189516577986e-01   1.1178041802509460e-01   1.1179334748804037e-01   1.1178274052559767e-01   1.1177836764078176e-01   1.1178687375954331e-01   1.1178109717613591e-01   1.1177961701912049e-01   1.1178624938410107e-01   1.1178137914110375e-01   1.1178632567364886e-01   1.1178627633453689e-01   1.1178640677033649e-01   1.1178086316690167e-01   1.1178643365066336e-01   1.1178574606318184e-01   1.1178197361738144e-01   1.1178534060093948e-01   1.1178225192727378e-01   1.1178165302332997e-01   1.1178455461347862e-01   1.1178212704945528e-01   1.1178465014766831e-01   1.1178550471617728e-01   1.1178212988479466e-01   1.1178326118000380e-01   1.1178168131308777e-01   1.1178209627121040e-01   1.1178173965