<?xml version="1.0"?>
<VTKFile type="UnstructuredGrid"  version="0.1"  >
<UnstructuredGrid>
<Piece  NumberOfPoints="4153" NumberOfCells="8064">
<Points>
<DataArray  type="Float64"  NumberOfComponents="3"  format="ascii">-0.4158300201032685 -0.5787319218089126 0  -0.04353056658204696 -0.7083137139595197 0  -0.0938538724769943 -0.704201147686642 0  -0.1434719319256795 -0.6958904584967327 0  -0.1921318228771157 -0.683990283250395 0  -0.2399899700355037 -0.6697129330691743 0  -0.2865399004058166 -0.6508232473836877 0  -0.331370309301768 -0.628846217922034 0  -0.3744656090304834 -0.6047167309536521 0  0.007071196238962633 -0.7078693484815504 0  -0.4557231565204216 -0.5531355195001034 0  -0.4946660886631702 -0.527760907472492 0  -0.532730024009717 -0.5028786026595428 0  -0.5700323715526271 -0.478855978226151 0  -0.6068814268752497 -0.4561790689244311 0  -0.6433273580379688 -0.4349676563006636 0  -0.6795173874973562 -0.4161071726067975 0  0.6663557230981256 -0.4220636939446554 0  0.05747413093514465 -0.7029077826014997 0  0.1072224142147701 -0.6936134680188152 0  0.1559209328303332 -0.6803927303622431 0  0.2032673837564556 -0.6637615342295893 0  0.249141080959909 -0.644642929513513 0  0.2935621148244403 -0.6236540478446833 0  0.3366007786776848 -0.6013775783175196 0  0.3783486063835345 -0.5783521973058084 0  0.4190217694845016 -0.5551244137758033 0  0.4587779212923153 -0.532048453475468 0  0.4977699072538257 -0.5094088447818765 0  0.5361078133070138 -0.4875365967558885 0  0.5739229131137268 -0.466555471449005 0  0.6112934014695254 -0.4469031502058395 0  0.6483863722496179 -0.4293304477346049 0  0.6297169673504164 -0.4381219681019433 0  -0.6612320530357837 -0.4254632874497306 0  -0.5885118107018067 -0.4674180874699876 0  -0.5137888666178794 -0.5152423057324005 0  -0.4358601383739385 -0.5658612317042679 0  -0.3531343725367239 -0.6169133552854821 0  -0.2634755447835411 -0.6607266159590135 0  -0.1679278845881527 -0.6904029633558109 0  -0.06875679599804867 -0.7068112641209648 0  0.5926386445602008 -0.4566776822463108 0  0.1317237402062864 -0.6874573782537649 0  0.226387718200158 -0.6544749385766697 0  0.3152434829521156 -0.6126522678638868 0  0.3988129153710182 -0.5667448858697984 0  0.4783564515250543 -0.5206738280943942 0  0.5550875276065517 -0.4769538675366897 0  0.03232676559417498 -0.7059474073529221 0  -0.6970194754202024 -0.4081659970107355 0  0.5169983031019552 -0.4983488214778342 0  0.4390036392632437 -0.5435550192948009 0  0.3576210500607749 -0.5899041376748613 0  0.2715303044287089 -0.6343511616272031 0  0.1797827852390276 -0.6724561856598887 0  0.08245691841944153 -0.6987814352278765 0  -0.01823308254303175 -0.7086680284866067 0  -0.1187721597024681 -0.7005452295010179 0  -0.2160830131847312 -0.677243894220505 0  -0.3091650523857785 -0.6401212566763159 0  -0.3954849766030805 -0.5919907552791073 0  -0.4753147869377815 -0.5404187054600342 0  -0.5514656177000363 -0.4907126271884815 0  -0.6251148007945022 -0.4455224969436369 0  0.8119767083788452 -0.2360126545380256 0  0.7234634476747804 -0.3970752750561254 0  0.7721156498973816 -0.3554491420895105 0  0.8033372069009753 -0.2999575568319361 0  0.6953198646043547 -0.4101030048429927 0  0.7487307742162913 -0.3774898012280339 0  0.7862920374382573 -0.3265951064160773 0  0.8067729601318488 -0.2676053528810858 0  0.6810359650280254 -0.41703650133901 0  0.7093215110382801 -0.4030192450647439 0  0.7361777678559502 -0.3874595216468238 0  0.7600352756287919 -0.3656810698144481 0  0.7806990980433861 -0.3418358526260122 0  0.7941540910126224 -0.3131077947541305 0  0.8044111369856165 -0.2835784652635047 0  0.8088325676867961 -0.2516954878850398 0  0.8113456856722473 -0.2153776056436995 0  0.816293814689989 0.2413255798053323 0  0.8159817333409148 0.2004464505714093 0  0.8169995530648149 0.1593845077749112 0  0.8185786188208689 0.1180110487581612 0  0.8204275910589489 0.07621877366844731 0  0.8210686140779699 0.03407733834496993 0  0.8205676491236625 -0.008149723440992076 0  0.8189271754419376 -0.05028357995191823 0  0.8161480182548821 -0.09205476133207478 0  0.8136780200637402 -0.1334270043160952 0  0.8118030589535929 -0.1744902310389636 0  0.8175311944497728 0.2619172943239571 0  0.8159202323015462 0.220895706427054 0  0.8177516161748921 0.1387418797070645 0  0.8208914181152688 0.05517095618530506 0  0.8198933522885568 -0.02924025006489369 0  0.8148768966547716 -0.1127859806638119 0  0.811351439262235 -0.1949464133052957 0  0.816397081779768 0.179948856630747 0  0.8195644514807822 0.09718878994707407 0  0.8209564225678351 0.01296345986111367 0  0.8175802273616724 -0.07124128278189379 0  0.8126449178394533 -0.1539925699253347 0  0.6782582318196682 0.4508230701891749 0  0.8106739210376064 0.326109139668075 0  0.7811374031275716 0.3823938045505135 0  0.7340361675037803 0.4250479815379543 0  0.813388517437607 0.2936425246069813 0  0.7948096764174656 0.3533439176671316 0  0.7585452758803403 0.4048251608068177 0  0.7064889074305086 0.4384315337852547 0  0.8150498101322469 0.2776920122725227 0  0.8115080046340371 0.3096915899171858 0  0.8021948943388579 0.3395689172257974 0  0.7892007743034686 0.3684895373123989 0  0.7694483805251687 0.3928201999442953 0  0.7463552729789171 0.4150655222212245 0  0.7201900733656444 0.4312289197823795 0  0.6925056768080152 0.445420910377665 0  -0.03357941707436909 0.7848272046265945 0  0.6250353152531285 0.4781942089989448 0  0.588932433383803 0.499950727230735 0  0.5524185730662917 0.5233374465978498 0  0.5153965818087359 0.5481783081497542 0  0.477593389858968 0.5740527666547691 0  0.4388513116591949 0.6006275002406616 0  0.3989784644078879 0.6275719034670331 0  0.3577261399609976 0.6545683545185136 0  0.3147916622098991 0.680781038175164 0  0.2700591174765223 0.7056337332294483 0  0.2234319591237147 0.7284263173875075 0  0.1748724029320101 0.7485261653559521 0  0.124498917004747 0.7646975333738724 0  0.07266297276439583 0.7763842031190958 0  0.01981736543357117 0.7830678917638207 0  0.6609122827949715 0.4589000257551411 0  -0.08685297327525565 0.7803476182719171 0  -0.1392440991310658 0.7703503649320381 0  -0.1901812404513515 0.7554277594504276 0  -0.2390238496173799 0.7354894788534632 0  -0.2858524977828071 0.7136350256418181 0  -0.3308063602521779 0.6898013235426952 0  -0.3739908883029718 0.6645747383701457 0  -0.4154840848278876 0.6383383793879648 0  -0.4556269165660748 0.6122748595774631 0  -0.4947068778766404 0.5865350390694969 0  -0.5328917723743348 0.5613879795013339 0  -0.5703357932344598 0.5371092694255131 0  -0.6071619779755673 0.5139402629745921 0  -0.6435367602844833 0.4923558306224051 0  -0.6796625979274143 0.4731683916588439 0  -0.6971351459413042 0.4651644326705205 0  -0.6614429398552961 0.4827128584115025 0  -0.58882254318337 0.525403505964901 0  -0.5139014590258567 0.5738750343538835 0  -0.4356905954266544 0.6252750857168209 0  -0.3526083448295376 0.6773064483837459 0  -0.2626723968277775 0.7248567583265716 0  -0.1649176834126888 0.7633650857020859 0  -0.06027897239241298 0.7832777752665009 0  0.04633923547736313 0.7803984100353273 0  0.1498932338059221 0.7571136564517483 0  0.2469832986239931 0.7173329804060784 0  0.3364707454733173 0.6678022325718141 0  0.4190662911488111 0.6140737108028239 0  0.4965959938628158 0.5610104045441231 0  0.5707344018710889 0.5115159159037211 0  0.6427979977194708 0.4684652055355156 0  -0.6253766466879321 0.5030754266000226 0  -0.5516958084832274 0.5491325716184878 0  -0.4752892786347431 0.599347953771254 0  -0.3949668461837121 0.6515335655491962 0  -0.3085562307772148 0.7019235794583094 0  -0.2149824845896673 0.7460274974046726 0  -0.1131960366429964 0.7759922909819759 0  -0.006806643537046079 0.7846561782048745 0  0.09873828806190432 0.7711366453954528 0  0.1994125280086612 0.7389227385541384 0  0.2926581833518703 0.6934228202706179 0  0.3785586136496158 0.6411130500983866 0  0.4583509820717819 0.587276429022826 0  0.5339962150907334 0.53559601510177 0  0.6070034659087387 0.4889946506170763 0  -0.8382126061877166 0.276510591119995 0  -0.753133583002456 0.4391977997833733 0  -0.800591547120697 0.3966613279445257 0  -0.8306188532410186 0.3405969675209888 0  -0.7254958992487517 0.4526522403437609 0  -0.7778107561765811 0.4190591714730148 0  -0.8143226938191596 0.3676005235584905 0  -0.8335919686405585 0.3081698806622998 0  -0.7114700834332894 0.4597605998283996 0  -0.7392402847350423 0.4453834703058918 0  -0.765540940503013 0.4292683559463348 0  -0.7888033698353225 0.40705797797599 0  -0.8088123573606099 0.3828303404553332 0  -0.8218686629995101 0.3539358518962427 0  -0.8315155156550544 0.324189571281431 0  -0.8354218401601868 0.2922407568134136 0  -0.8372616985316699 0.2559038072039048 0  -0.8377253637492711 -0.2004513102788956 0  -0.8376964094285292 -0.1596122252507284 0  -0.8390605184109146 -0.1185927493713935 0  -0.8410098480622858 -0.07725907502465018 0  -0.843252233328422 -0.03551523401494001 0  -0.8443350754527326 0.006585670128228681 0  -0.8442975584402634 0.04877633357237232 0  -0.8431456638700727 0.0908803587736919 0  -0.8408461632923703 0.1326382783047783 0  -0.8388097013923294 0.173991857265012 0  -0.8373404283079663 0.2150369634569756 0  -0.8387426506699222 -0.2210475589796944 0  -0.8374867514319521 -0.180042922102059 0  -0.8399991765783827 -0.0979711654783301 0  -0.8439359019607344 -0.01448794501314316 0  -0.8438623435306818 0.0698510021996339 0  -0.8397930014011953 0.1533591366054809 0  -0.8370744215775857 0.2354803390790689 0  -0.8382815273958097 -0.1391365999740338 0  -0.8421810570128777 -0.05646054155171973 0  -0.8444517962398154 0.02768086218617141 0  -0.8420493567730266 0.111830575721436 0  -0.8379812134077838 0.1945477106133711 0  -0.8311257031314951 -0.285072570325543 0  -0.8008504471284172 -0.340890967452915 0  -0.7531983640084412 -0.3830191051581803 0  -0.8341823095067873 -0.2526945338358664 0  -0.8147996770445064 -0.312029305366707 0  -0.7779861577387175 -0.3631537283794305 0  -0.7254328871271495 -0.3961527793801046 0  -0.8360022374126472 -0.2367731688841505 0  -0.832094847964
[...]
<CellData  Scalars="f_3221"> 
<DataArray  type="Float64"  Name="f_3221"  format="ascii">1.1177182387207428e-01   1.1177394056521094e-01   1.1176943879779484e-01   1.1177088811485479e-01   1.1177387488077148e-01   1.1176922351636999e-01   1.1177545303306663e-01   1.1177524678773101e-01   1.1176731612223664e-01   1.1177442503605281e-01   1.1176575685685433e-01   1.1176732393711578e-01   1.1177182790566653e-01   1.1177683495061436e-01   1.1177088693181812e-01   1.1177248660154721e-01   1.1177514881803821e-01   1.1176622595013407e-01   1.1177655750656834e-01   1.1177585414807636e-01   1.1176879399761354e-01   1.1177771060820252e-01   1.1177114396286607e-01   1.1176956139453327e-01   1.1177894775075661e-01   1.1177238602103819e-01   1.1177885772497298e-01   1.1177959179850896e-01   1.1177732447734208e-01   1.1177237422643244e-01   1.1177871548303420e-01   1.1177814258617851e-01   1.1176479164833546e-01   1.1177631555990526e-01   1.1176395697351185e-01   1.1176570631398293e-01   1.1177709871245774e-01   1.1176757997926182e-01   1.1177710509611720e-01   1.1177826553515030e-01   1.1176758660740879e-01   1.1178035769605243e-01   1.1175759450795961e-01   1.1176438237836300e-01   1.1177040558216740e-01   1.1177849549640330e-01   1.1176557124311109e-01   1.1176762879594374e-01   1.1177336812967315e-01   1.1177915003057100e-01   1.1177368860939184e-01   1.1177403283326082e-01   1.1178031463891114e-01   1.1177626379437605e-01   1.1177982765180143e-01   1.1178036555446499e-01   1.1177419608954549e-01   1.1177929963693473e-01   1.1176941472752980e-01   1.1177100027567038e-01   1.1177585095445157e-01   1.1177954313913768e-01   1.1177300604957426e-01   1.1177194692524961e-01   1.1179594771125928e-01   1.1178754118019719e-01   1.1179135895471239e-01   1.1179325406864239e-01   1.1178297768886417e-01   1.1178542168821197e-01   1.1177667506363563e-01   1.1178245100389064e-01   1.1179106168878068e-01   1.1178039222879857e-01   1.1178905566269184e-01   1.1178536293995238e-01   1.1179233659654952e-01   1.1177750497454841e-01   1.1178187896004638e-01   1.1179078309691692e-01   1.1177700775891769e-01   1.1178369755860978e-01   1.1176944299336741e-01   1.1177363864589362e-01   1.1177902795095965e-01   1.1176566635418037e-01   1.1177674351614938e-01   1.1178228191967338e-01   1.1176212395482588e-01   1.1177848284967652e-01   1.1174596399953814e-01   1.1175692429554293e-01   1.1176979614811511e-01   1.1177721645807839e-01   1.1176013075860554e-01   1.1177067049163132e-01   1.1178706127789009e-01   1.1177310718094376e-01   1.1178378034240045e-01   1.1178118648165976e-01   1.1177103961293751e-01   1.1178287657172782e-01   1.1175992187566407e-01   1.1176658400432812e-01   1.1178239581992945e-01   1.1175965678062649e-01   1.1177545537918467e-01   1.1176514950862231e-01   1.1178068077946561e-01   1.1175292814166891e-01   1.1176286711851807e-01   1.1175794135699849e-01   1.1178980834773691e-01   1.1176064389234411e-01   1.1177010491750217e-01   1.1178767681251142e-01   1.1174839634951586e-01   1.1176985327276986e-01   1.1172676493999413e-01   1.1175091683510589e-01   1.1177631854136204e-01   1.1173637260045918e-01   1.1175211020099343e-01   1.1174781215544592e-01   1.1179287846867937e-01   1.1171172227170663e-01   1.1172831088859836e-01   1.1178476484011368e-01   1.1168037451539066e-01   1.1172605121719087e-01   1.1170634448607838e-01   1.1175135910459467e-01   1.1173190904192450e-01   1.1176690101320956e-01   1.1175536101621271e-01   1.1175065615231713e-01   1.1171236549515987e-01   1.1173241994862555e-01   1.1171989164814169e-01   1.1176796404783151e-01   1.1174441018316104e-01   1.1175267374689411e-01   1.1176017526524994e-01   1.1175135876119274e-01   1.1173707152021754e-01   1.1177191956074849e-01   1.1175781915606703e-01   1.1175572672807484e-01   1.1176524142435315e-01   1.1175690135578800e-01   1.1176532391967771e-01   1.1176129384773882e-01   1.1175900052370714e-01   1.1176894198662035e-01   1.1176196650118188e-01   1.1176133892928428e-01   1.1175641396744727e-01   1.1176455933111329e-01   1.1176086831031785e-01   1.1175753945096160e-01   1.1172818610865151e-01   1.1174196311184963e-01   1.1173640471947370e-01   1.1177465981201568e-01   1.1174807131257483e-01   1.1177761006583777e-01   1.1176287765751981e-01   1.1176048475575599e-01   1.1174379531556243e-01   1.1175251063447561e-01   1.1175182779348548e-01   1.1177833630697369e-01   1.1176879230178637e-01   1.1176048521421497e-01   1.1176975868502755e-01   1.1176925263034260e-01   1.1175524646047502e-01   1.1176123852681963e-01   1.1176660757086790e-01   1.1175910869047756e-01   1.1176424289446803e-01   1.1176923490644348e-01   1.1176665841384038e-01   1.1176486133920313e-01   1.1176759774370913e-01   1.1176366125422418e-01   1.1176808809278292e-01   1.1176764804163090e-01   1.1176238541611873e-01   1.1176646018623483e-01   1.1176931943480835e-01   1.1176698858180144e-01   1.1167170588448556e-01   1.1175214877093696e-01   1.1173235641519776e-01   1.1169929146637010e-01   1.1176686137793260e-01   1.1175006964655840e-01   1.1177111796419270e-01   1.1175987396077455e-01   1.1174823769659978e-01   1.1176829741021786e-01   1.1176516773974216e-01   1.1175711509634349e-01   1.1172830283259388e-01   1.1176817869632302e-01   1.1176470435121895e-01   1.1174751448165358e-01   1.1177212553401643e-01   1.1176740799009972e-01   1.1177586714525503e-01   1.1177234878112666e-01   1.1177650181328996e-01   1.1177863216886645e-01   1.1177648581964247e-01   1.1176947734398421e-01   1.1178146422373055e-01   1.1178165817642793e-01   1.1178491453581596e-01   1.1178303600745616e-01   1.1177715420757582e-01   1.1177354666780288e-01   1.1178166086755255e-01   1.1177438257424839e-01   1.1177469643182610e-01   1.1177600807628450e-01   1.1178091624013912e-01   1.1177394830824179e-01   1.1177932535459498e-01   1.1177884083483969e-01   1.1178151978792612e-01   1.1177901398572077e-01   1.1178553111562939e-01   1.1178273777738100e-01   1.1178610348098690e-01   1.1178141145500969e-01   1.1178107952994214e-01   1.1178349980059030e-01   1.1178341312619831e-01   1.1178378969739483e-01   1.1176077219678615e-01   1.1177977205437500e-01   1.1177994939110700e-01   1.1177044236339503e-01   1.1178548897196176e-01   1.1178488047037280e-01   1.1178823443518551e-01   1.1178427583224215e-01   1.1178214674599661e-01   1.1178628080348142e-01   1.1178469444428364e-01   1.1178516077955548e-01   1.1177791116459355e-01   1.1178729178275730e-01   1.1178733808301156e-01   1.1178299226068431e-01   1.1170549936100393e-01   1.1179291531546917e-01   1.1179619808297744e-01   1.1178797920784728e-01   1.1178664142906741e-01   1.1178589697823724e-01   1.1179036854650597e-01   1.1180125605718741e-01   1.1178986320660574e-01   1.1179048188939596e-01   1.1179019213977555e-01   1.1178747154528974e-01   1.1178156876202354e-01   1.1176407120933225e-01   1.1179022410201332e-01   1.1176500985869588e-01   1.1178952638930256e-01   1.1178815720391569e-01   1.1178911366091202e-01   1.1178890438531981e-01   1.1178737585002949e-01   1.1178918841443168e-01   1.1178528980359816e-01   1.1178588606223935e-01   1.1178886238108657e-01   1.1178648153891861e-01   1.1178874674927609e-01   1.1178924318813864e-01   1.1179093901610632e-01   1.1178764615268597e-01   1.1178964439861312e-01   1.1180529910179805e-01   1.1178921580886038e-01   1.1178849175614235e-01   1.1178813338966083e-01   1.1178782614832390e-01   1.1178696369215611e-01   1.1178733895981265e-01   1.1178670153549657e-01   1.1178803400490762e-01   1.1178639811538117e-01   1.1178463862035685e-01   1.1178596762969262e-01   1.1178670733744137e-01   1.1178714222675436e-01   1.1178788818996971e-01   1.1178705563018720e-01   1.1178688640545469e-01   1.1177676363833178e-01   1.1176961572895258e-01   1.1178521872171859e-01   1.1178076789937802e-01   1.1178980576998165e-01   1.1178323343495127e-01   1.1179005547535235e-01   1.1180401870890420e-01   1.1178483925244170e-01   1.1178957486008274e-01   1.1178630909840305e-01   1.1178416598850463e-01   1.1176905409470671e-01   1.1177960716752780e-01   1.1178699610489991e-01   1.1174408202467541e-01   1.1178003312317354e-01   1.1178058155759717e-01   1.1177930886316770e-01   1.1177901450475740e-01   1.1178178921644646e-01   1.1177980787241031e-01   1.1178202711085265e-01   1.1178131262797450e-01   1.1178014093542699e-01   1.1178308387619096e-01   1.1178158599050540e-01   1.1178101777528425e-01   1.1178017450664791e-01   1.1178117183698251e-01   1.1178052926283093e-01   1.1178051559218712e-01   1.1178476786064311e-01   1.1178272424097639e-01   1.1178547690653516e-01   1.1178359778233635e-01   1.1178377139231280e-01   1.1178403919578735e-01   1.1178271904217196e-01   1.1178208137623423e-01   1.1178648076052727e-01   1.1178563312886648e-01   1.1178584110763076e-01   1.1178469374695034e-01   1.1178231756501782e-01   1.1178116946327547e-01   1.1178233909393233e-01   1.1178108692028264e-01   1.1178348789033359e-01   1.1178676762225817e-01   1.1178558595986228e-01   1.1178468127088734e-01   1.1178929386112298e-01   1.1178785539210939e-01   1.1178939503007548e-01   1.1178799130112589e-01   1.1178875489829157e-01   1.1179060980506786e-01   1.1178844076835073e-01   1.1178709125602718e-01   1.1178683914377735e-01   1.1178777562389194e-01   1.1178577261690872e-01   1.1178415733739759e-01   1.1178080369609883e-01   1.1178062923053195e-01   1.1178140257902695e-01   1.1178060133287056e-01   1.1178256835351101e-01   1.1178264778762513e-01   1.1178083956394903e-01   1.1178042739931278e-01   1.1178427417094294e-01   1.1178353664711017e-01   1.1178229210683917e-01   1.1178017148464761e-01   1.1178112208977740e-01   1.1177741667397882e-01   1.1177757974132138e-01   1.1177585624738973e-01   1.1177457258347509e-01   1.1177082601237336e-01   1.1178225093304442e-01   1.1177585379474550e-01   1.1177562270958176e-01   1.1178230306587124e-01   1.1177648225650273e-01   1.1177213796979144e-01   1.1178344488669970e-01   1.1177854596547600e-01   1.1178570307766526e-01   1.1178336117237660e-01   1.1177647007189004e-01   1.1177349871033714e-01   1.1178240092669361e-01   1.1177701851499379e-01   1.1178151050317861e-01   1.1178538726451356e-01   1.1178160001545601e-01   1.1177899320552899e-01   1.1178504446052653e-01   1.1177937764281713e-01   1.1178302689859601e-01   1.1178327419504513e-01   1.1178163852918903e-01   1.1178456469307971e-01   1.1178149056123377e-01   1.1177966782848357e-01   1.1177724713536723e-01   1.1178235668975692e-01   1.1177789902797620e-01   1.1177465635245067e-01   1.1178757525252087e-01   1.1178415791488895e-01   1.1178933963055709e-01   1.1178706780104515e-01   1.1178644674315830e-01   1.1178867732534573e-01   1.1178593992181918e-01   1.1178396374989844e-01   1.1179118763058213e-01   1.1178915666060926e-01   1.1179198824599818e-01   1.1179032443429777e-01   1.1178653902353823e-01   1.1178363846312142e-01   1.1178779245262220e-01   1.1178562768418059e-01   1.1177741456052470e-01   1.1177560167367945e-01   1.1178219116748377e-01   1.1177782282970268e-01   1.1177840038586917e-01   1.1178209585283123e-01   1.1177886172040832e-01   1.1177675032456955e-01   1.1178270022915036e-01   1.1177974266535881e-01   1.1178371578186926e-01   1.1178199330239016e-01   1.1177758883757369e-01   1.1177636281779846e-01   1.1178133322963403e-01   1.1177978632531846e-01   1.1178090928188210e-01   1.1178728551972734e-01   1.1178083241259182e-01   1.1178119623615411e-01   1.1178697445087239e-01   1.1178175020941902e-01   1.1178807570570495e-01   1.1178870116313669e-01   1.1177743122925322e-01   1.1178577554933862e-01   1.1177551770927838e-01   1.1177760761556893e-01   1.1178266295779812e-01   1.1178980622370846e-01   1.1178301745596395e-01   1.1178386343208230e-01   1.1178435867375927e-01   1.1177429864225297e-01   1.1178409933717000e-01   1.1178610652494843e-01   1.1177683305150404e-01   1.1178716577385425e-01   1.1178058987394107e-01   1.1177953949438782e-01   1.1178536122597489e-01   1.1177848123099424e-01   1.1178528739109798e-01   1.1178783499138288e-01   1.1178912078567221e-01   1.1178396875608064e-01   1.1178976802153427e-01   1.1179072479902727e-01   1.1177373035636771e-01   1.1178329489819051e-01   1.1177187205373128e-01   1.1177112162833172e-01   1.1178027645599480e-01   1.1176842806408391e-01   1.1177899151665889e-01   1.1178234033677771e-01   1.1177368387997257e-01   1.1178339272898168e-01   1.1176665424829885e-01   1.1176636860089972e-01   1.1177472055344297e-01   1.1178298159407248e-01   1.1177132941266449e-01   1.1177462666836685e-01   1.1178499024684456e-01   1.1179140567435862e-01   1.1178474904973341e-01   1.1178589227264754e-01   1.1179034591217957e-01   1.1178574628248714e-01   1.1178996972204007e-01   1.1179198224425935e-01   1.1178206178740475e-01   1.1178764684900992e-01   1.1177808269503438e-01   1.1178118125914524e-01   1.1178703433506774e-01   1.1179167968919168e-01   1.1178454619127165e-01   1.1178609615641077e-01   1.1165390402234984e-01   1.1167940856648276e-01   1.1169471719741920e-01   1.1173764137891071e-01   1.1171399374568959e-01   1.1178002355093530e-01   1.1174154404196887e-01   1.1171832899875389e-01   1.1170334526815101e-01   1.1172220900194089e-01   1.1171491765199529e-01   1.1177471659419308e-01   1.1173400178539965e-01   1.1173103109397470e-01   1.1177188080864520e-01   1.1175048191245480e-01   1.1173289676602270e-01   1.1177760424163852e-01   1.1175406919180689e-01   1.1174742726082836e-01   1.1177235419257184e-01   1.1175311132800496e-01   1.1177726733451687e-01   1.1176921273385945e-01   1.1175878781014816e-01   1.1178019206612634e-01   1.1176533172974673e-01   1.1176229811963750e-01   1.1174867750542102e-01   1.1177980588036385e-01   1.1175918615613384e-01   1.1174549828024558e-01   1.1172403428479369e-01   1.1174071158839183e-01   1.1173167488930560e-01   1.1177870521975038e-01   1.1174822798572304e-01   1.1178139755352680e-01   1.1176211816878492e-01   1.1175960860052510e-01   1.1173890969206178e-01   1.1174958199001649e-01   1.1174066927550035e-01   1.1177542050757247e-01   1.1177516209257063e-01   1.1176156969321727e-01   1.1177179845139359e-01   1.1177799354340855e-01   1.1175884091774338e-01   1.1175673166778012e-01   1.1178292325633274e-01   1.1176693448028041e-01   1.1176717335845544e-01   1.1178637280269753e-01   1.1177405188030383e-01   1.1176622440465735e-01   1.1178130527797343e-01   1.1176886337628947e-01   1.1178144580605531e-01   1.1178426424281922e-01   1.1177230473412564e-01   1.1177235938821097e-01   1.1178925167443980e-01   1.1178316279826242e-01   1.1178305220939527e-01   1.1178194458854507e-01   1.1177790934127096e-01   1.1178003896847039e-01   1.1177722654803351e-01   1.1177307214741058e-01   1.1177151692506604e-01   1.1177793288044278e-01   1.1177229092071339e-01   1.1177155200326797e-01   1.1176390642820454e-01   1.1176567930126136e-01   1.1177680325040876e-01   1.1177262588316643e-01   1.1176829281521113e-01   1.1177281945635051e-01   1.1176338469010337e-01   1.1175498288190930e-01   1.1175045775000431e-01   1.1176326216383924e-01   1.1174495296938765e-01   1.1175083224931702e-01   1.1175138124612227e-01   1.1175952544149360e-01   1.1173244898744637e-01   1.1174145285866204e-01   1.1169461075031220e-01   1.1173352254216165e-01   1.1176363652594354e-01   1.1176320567750879e-01   1.1175134540514314e-01   1.1176486117077722e-01   1.1175186378132175e-01   1.1175079542170285e-01   1.1173284009355716e-01   1.1173779690876949e-01   1.1173384803769135e-01   1.1171635026756949e-01   1.1169489000984950e-01   1.1173202280273652e-01   1.1170192829031933e-01   1.1169660502153500e-01   1.1165241455494679e-01   1.1166192500142957e-01   1.1172983527638530e-01   1.1169359169422774e-01   1.1168324940519882e-01   1.1170105098748059e-01   1.1176901966479387e-01   1.1175315388835400e-01   1.1175679250251734e-01   1.1176362820784934e-01   1.1173526849231800e-01   1.1175885344330978e-01   1.1170245929648503e-01   1.1173805776731482e-01   1.1175135164289550e-01   1.1169789711763703e-01   1.1171490576329393e-01   1.1172546238069901e-01   1.1176720930159233e-01   1.1171016485607153e-01   1.1173362064680546e-01   1.1173867189869147e-01   1.1179223254790162e-01   1.1179182366718404e-01   1.1179175988949186e-01   1.1179205677996230e-01   1.1178980354984429e-01   1.1179056799855686e-01   1.1179086074988591e-01   1.1179184318050107e-01   1.1179013092526503e-01   1.1178904462845377e-01   1.1178889353875605e-01   1.1178952962646474e-01   1.1179250768669340e-01   1.1179285923389569e-01   1.1179172497649090e-01   1.1179203583106559e-01   1.1178801548302199e-01   1.1178847453603753e-01   1.1178874837325953e-01   1.1178974108265069e-01   1.1178965040019627e-01   1.1179055684122398e-01   1.1179071166624310e-01   1.1179059755379220e-01   1.1178951086077497e-01   1.1179024526102330e-01   1.1178908854532689e-01   1.1179055812472598e-01   1.1179181093032246e-01   1.1179196240907939e-01   1.1179198100833539e-01   1.1179311221937040e-01   1.1178752243439484e-01   1.1178703682345999e-01   1.1178631185143464e-01   1.1178741096693942e-01   1.1178643295176663e-01   1.1178656974493567e-01   1.1178700362164531e-01   1.1178781566256304e-01   1.1178461354446358e-01   1.1178491877193739e-01   1.1178418777938436e-01   1.1178543514728305e-01   1.1178886661344362e-01   1.1178827182032886e-01   1.1178753541785290e-01   1.1178865802135571e-01   1.1179119686224767e-01   1.1179345449728625e-01   1.1179208885267851e-01   1.1178926006797126e-01   1.1179268102410851e-01   1.1179080132317996e-01   1.1178785765150553e-01   1.1179088810863010e-01   1.1179136656579107e-01   1.1179013638780376e-01   1.1178933841588429e-01   1.1178883053937685e-01   1.1178671815334947e-01   1.1180207843789126e-01   1.1179885637450461e-01   1.1175044630123497e-01   1.1178486169551492e-01   1.1177995196963507e-01   1.1178568667420298e-01   1.1178209382121224e-01   1.1177839268281668e-01   1.1178156584346989e-01   1.1177813199278204e-01   1.1177854518001668e-01   1.1178581128707790e-01   1.1177776951166137e-01   1.1178598089059574e-01   1.1178172035288006e-01   1.1178362746424737e-01   1.1178040139333889e-01   1.1178387672620287e-01   1.1178468962397148e-01   1.1177693609129059e-01   1.1178177151326639e-01   1.1177693866651429e-01   1.1177764170169029e-01   1.1178409815040377e-01   1.1178004563776385e-01   1.1178536398588437e-01   1.1178433655888241e-01   1.1178052167700026e-01   1.1178754965550518e-01   1.1178056288467460e-01   1.1178313585967341e-01   1.1178027614255950e-01   1.1178529540111524e-01   1.1178239952558651e-01   1.1178225053896121e-01   1.1178618965865056e-01   1.1177584976225229e-01   1.1178561079487218e-01   1.1178110278455128e-01   1.1177571566100374e-01   1.1178327794006403e-01   1.1177289370627073e-01   1.1177704007805854e-01   1.1178834460156382e-01   1.1177029081559572e-01   1.1177248148301040e-01   1.1177022977679776e-01   1.1178632334534903e-01   1.1177716783649909e-01   1.1177543591550015e-01   1.1177818957108396e-01   1.1178640637263564e-01   1.1178457524052614e-01   1.1178686025109269e-01   1.1178793430436494e-01   1.1178558036992695e-01   1.1179035921344636e-01   1.1178640041482171e-01   1.1178759467020644e-01   1.1178900393243882e-01   1.1178362691092902e-01   1.1178115310577133e-01   1.1178379803728603e-01   1.1179137964658671e-01   1.1178869916122187e-01   1.1178619946985907e-01   1.1178848919745951e-01   1.1178755028598486e-01   1.1178598696618537e-01   1.1179450935862699e-01   1.1178597651259650e-01   1.1178388784959425e-01   1.1178936830806305e-01   1.1178630074709617e-01   1.1178548039538427e-01   1.1178870999623450e-01   1.1178617775001451e-01   1.1178859073791328e-01   1.1178877298484786e-01   1.1178895277014347e-01   1.1178637301475791e-01   1.1178885359003525e-01   1.1178843464467127e-01   1.1178647244779573e-01   1.1178765846613513e-01   1.1178647629266943e-01   1.1178641110966696e-01   1.1178639326444746e-01   1.1178648006139882e-01   1.1178657181562533e-01   1.1178774502422600e-01   1.1178590391699933e-01   1.1178459271826088e-01   1.1178490712169081e-01   1.1178598543289270e-01   1.1178664762