<?xml version="1.0"?>
<VTKFile type="UnstructuredGrid"  version="0.1"  >
<UnstructuredGrid>
<Piece  NumberOfPoints="4153" NumberOfCells="8064">
<Points>
<DataArray  type="Float64"  NumberOfComponents="3"  format="ascii">-0.4307129488672974 -0.5719929852686072 0  -0.05179205288486852 -0.6714033872468042 0  -0.101642180841871 -0.6709480473745708 0  -0.1512017947199142 -0.6666356592663727 0  -0.2002361418241467 -0.6589905450481821 0  -0.2488773790645428 -0.6489130754061162 0  -0.2965787289240241 -0.634033484123652 0  -0.3428596549687467 -0.6157561968559903 0  -0.3876078909138258 -0.5949639215915895 0  -0.002026795523313757 -0.6677831337724103 0  -0.4725236376489875 -0.5492295431428349 0  -0.5134145942661797 -0.5264953602451756 0  -0.5534886051803088 -0.5041175899291407 0  -0.5928686641074753 -0.4825240329863026 0  -0.6318130273376357 -0.4621623807346239 0  -0.6703613633295638 -0.4431792967703711 0  -0.7086555967939472 -0.4263573091139388 0  0.6647414749194471 -0.418912270439375 0  0.0472629585626173 -0.6602606049848089 0  0.09573744633018647 -0.6491736092637612 0  0.1431386606870634 -0.63504842490944 0  0.1893112856793577 -0.6184865383569438 0  0.2342664258579099 -0.6004007715789482 0  0.2781252362308747 -0.5813869906523579 0  0.3210313062593319 -0.5619427078857897 0  0.3631239427284397 -0.542500316819288 0  0.4045969066857049 -0.5233720113929385 0  0.4455720106888424 -0.5047550930303993 0  0.486148886030029 -0.4867647460086055 0  0.5263854769875067 -0.4695917511833575 0  0.5663353628874865 -0.4532165845691157 0  0.6060115591522599 -0.4379492595546853 0  0.645495452498988 -0.4243467546163289 0  0.6256590851877714 -0.4311883474153546 0  -0.6893870060069868 -0.4347291251642462 0  -0.612394071911522 -0.4722371144111033 0  -0.5335390862054722 -0.5152467207795275 0  -0.4517159495685152 -0.5605914824325841 0  -0.3654326393023956 -0.6055711943230213 0  -0.272889833251207 -0.6419520339179052 0  -0.1757887578971547 -0.6632227460122998 0  -0.07673223321735992 -0.6716793477827045 0  0.5861899276308875 -0.445528338677947 0  0.1195838840186316 -0.6424486943869042 0  0.2119337289850035 -0.6095954114182812 0  0.2996844407491364 -0.5717039642552453 0  0.3839329121124104 -0.5328866136042355 0  0.4659020143895271 -0.495689808120634 0  0.546401143668618 -0.4613139619304578 0  0.02270008882639251 -0.6644926952104908 0  -0.727267672218797 -0.4194333161906929 0  0.5062928714504071 -0.4780582884388636 0  0.4251390405474854 -0.5139965523647755 0  0.3421615478413574 -0.5521782375034787 0  0.2563243608490724 -0.5909817825820805 0  0.1663873544284752 -0.627020994404032 0  0.07162074671001858 -0.6551339199654183 0  -0.02687282003663231 -0.6701020787836793 0  -0.1264774039985612 -0.6692519325329168 0  -0.2245515907407304 -0.6544302115303264 0  -0.3199044043116241 -0.625241610819222 0  -0.4094462898161852 -0.5836947350331836 0  -0.493079094803702 -0.5378466193812614 0  -0.5732495517316714 -0.4931689314404556 0  -0.6511061719710505 -0.4525843958448297 0  0.8199532900673933 -0.2348129369373556 0  0.72548333775719 -0.3973747112583611 0  0.7771992064881823 -0.356633602415613 0  0.8105443781442713 -0.3002692751390741 0  0.6954605149916963 -0.4087390807311966 0  0.7521871882270875 -0.3781861237369104 0  0.7926392427596491 -0.3275152715689961 0  0.8145218298768102 -0.2671947624494292 0  0.6803182195026723 -0.4148557918894983 0  0.7104008746997841 -0.4025874708416028 0  0.738912451506053 -0.3879815701750963 0  0.7643156303988958 -0.3666980017142885 0  0.7861488509874346 -0.3427585794015205 0  0.801036411382765 -0.3137535100897799 0  0.8120215434398693 -0.2835559411835935 0  0.8167654858673534 -0.2509046230675172 0  0.8192380992621175 -0.2136722861808903 0  0.8219310968302991 0.2510059494743069 0  0.821491751636245 0.2092348231710011 0  0.8223129389392879 0.167390019681232 0  0.8237619349521598 0.1253334887659744 0  0.8256249732195593 0.08293140473658053 0  0.8264016298678416 0.04021348185456163 0  0.8261391772261578 -0.002587350565385401 0  0.8248391095194019 -0.04532321671203751 0  0.8224946019628281 -0.08775752238457953 0  0.8205656217035243 -0.1298812030148589 0  0.8192622482344498 -0.1718092301595115 0  0.8230089629733477 0.2720807038032626 0  0.8215097939875431 0.2301174660901899 0  0.8229855245257574 0.1463948526312213 0  0.8261449914273711 0.0615929746080956 0  0.8256225372234495 -0.02397344493351409 0  0.8214816022471539 -0.1088507038354351 0  0.8190487709558893 -0.1927402860643684 0  0.8218077791870227 0.1883323146812564 0  0.8247348606568621 0.1041996576524399 0  0.8263957438035074 0.01881428255989397 0  0.823698537829487 -0.0666031927132775 0  0.8198204227328645 -0.150864185693297 0  0.6717856363991679 0.4575741098170424 0  0.8146614488617571 0.3375731101141369 0  0.7823161504729995 0.3942883087702792 0  0.7316240669178029 0.4356400030831189 0  0.8182431315769421 0.3044935625011236 0  0.7974949593414957 0.3651419903443452 0  0.7578640162488879 0.4161120238978505 0  0.7020299464597237 0.44727044111348 0  0.8202429983321644 0.2882042450568336 0  0.8160061766121905 0.3208699427065998 0  0.8055931632904041 0.3512304520876684 0  0.7910100050230398 0.380304145417706 0  0.7697257766864835 0.4045030078932165 0  0.7448095652879358 0.4260439943414807 0  0.7167638305644559 0.4410415552803498 0  0.6870789833404063 0.4533589756359494 0  -0.05028018915539985 0.7551956741058165 0  0.6144314497354663 0.4789413522615769 0  0.5756349686061717 0.4961136212370182 0  0.53655908438793 0.5146583047244098 0  0.4971995949495657 0.5345227849108941 0  0.4574073100849093 0.555499114326964 0  0.4170865515983713 0.5773984224282437 0  0.3761041710945209 0.6000529963939524 0  0.3342613041386418 0.6232871140564394 0  0.2912981977327107 0.6465308552027733 0  0.2470283491433035 0.669316738998125 0  0.2012607557936009 0.6910114273803188 0  0.1538334724728506 0.7109780818219642 0  0.1047183038685124 0.7279759177156176 0  0.05410916294589334 0.7413490575008765 0  0.002326302065335073 0.7504282589092848 0  0.653030308856674 0.4637846932908145 0  -0.1031301310480116 0.7540231655527797 0  -0.1554964094695771 0.7474578338207125 0  -0.2067647331799214 0.7358121349589835 0  -0.2562420149358829 0.7190564475741337 0  -0.3039244442484703 0.7001041529661548 0  -0.3499487749334982 0.6790479606484988 0  -0.3943754805287489 0.656409795139454 0  -0.4372491219117373 0.6326068812497484 0  -0.4788995525055526 0.6088426188958033 0  -0.5195672668817953 0.5852760423608049 0  -0.5594158697435918 0.5622044393024672 0  -0.5985962138033819 0.5399293139337354 0  -0.6372266953313067 0.5187162597045456 0  -0.6754526136304978 0.4990245821901806 0  -0.7134467914185634 0.4815739732572157 0  -0.7319617192701362 0.4744313084340422 0  -0.6943499459904104 0.4902475156400574 0  -0.6179728803479022 0.5291891443015138 0  -0.5395843568695706 0.5736630349138092 0  -0.4582042452288038 0.6207172288408074 0  -0.3723556873308843 0.6678814667714614 0  -0.2802953897107402 0.7098920174832036 0  -0.1813042794110656 0.7421909043720862 0  -0.07671856055142021 0.7552519306014541 0  0.02834099799739939 0.7464770431627709 0  0.1294773846344856 0.7198599429631312 0  0.2243396275755205 0.6803425488467021 0  0.3129274048999289 0.6349327682967101 0  0.3966857022947005 0.5886403065716078 0  0.4773587948258658 0.5448889615823167 0  0.5561314545117746 0.505270044881336 0  0.6335976456024994 0.4713329464645667 0  -0.6563667060387433 0.5087594672125884 0  -0.5790794528907287 0.5509567952766039 0  -0.4993457632342779 0.5970160542772222 0  -0.4160150135052459 0.6445853177419397 0  -0.3271405626494071 0.6898060104034442 0  -0.2318184846329032 0.7279452664800191 0  -0.1294134190606933 0.7513914993800173 0  -0.02385937349761912 0.7535099145426458 0  0.07958320970939187 0.7351565626892435 0  0.177779958602724 0.7013223251251157 0  0.2693394848279323 0.6580206164476806 0  0.3553136640443466 0.6116295556286968 0  0.437320093290221 0.5663466515100188 0  0.5169261794462092 0.5244283088712038 0  0.5950403730940258 0.4874527417610902 0  -0.8789889706099818 0.2820027390609051 0  -0.7905994525688569 0.4492634693249005 0  -0.8399633455184313 0.4059406884511785 0  -0.8711247319908264 0.3480940333085847 0  -0.7615988525487483 0.4622316324512971 0  -0.8161022034374383 0.4285383819160768 0  -0.8544379217863295 0.3761034976087804 0  -0.8743399143233506 0.3146875766400362 0  -0.7469734571182198 0.4692179420512852 0  -0.7760249368166179 0.4552691976757342 0  -0.8034205655124498 0.4390340781307475 0  -0.8276449799971982 0.4165035110818254 0  -0.8482747608558182 0.3915685362892267 0  -0.8622781897505902 0.3619493765176408 0  -0.872252192204618 0.331217110674652 0  -0.876252114540012 0.29825742086879 0  -0.8779322762025289 0.2607491029862776 0  -0.8760309979667846 -0.208806054218936 0  -0.8760287435889585 -0.1667015286150942 0  -0.8773186668067968 -0.1244456631312404 0  -0.8791775493768915 -0.08191417463946142 0  -0.8813070390210732 -0.03902028325298603 0  -0.8824520585915248 0.004186274400015922 0  -0.8826366980725763 0.04747820190000041 0  -0.8818653000996935 0.09070312933038943 0  -0.8801140425051884 0.1336404361294656 0  -0.878597897424107 0.176230938291788 0  -0.8776255223869098 0.2185603735800302 0  -0.8769410341899397 -0.2300185463716136 0  -0.8758212900595496 -0.1877619749717834 0  -0.8782100184064707 -0.1032196394761258 0  -0.8820015010031335 -0.01743795271365468 0  -0.8823717531591766 0.06910922730443911 0  -0.8793197479132921 0.1549730445406392 0  -0.8775693438488132 0.2396602695074438 0  -0.8765797615806327 -0.145603061574372 0  -0.8802855993895187 -0.06053061203163553 0  -0.8826607423275263 0.0258311449571031 0  -0.8810376122631611 0.1122316616339969 0  -0.8780218413667985 0.1974232079244426 0  -0.8684177074228636 -0.2958684139505406 0  -0.8364544382873688 -0.3531445866770255 0  -0.7864437226373554 -0.395618005352173 0  -0.8720165446072733 -0.2626100955071393 0  -0.851395862263617 -0.3236695255733346 0  -0.8122787476434253 -0.3754098378539993 0  -0.7571491832693275 -0.4080286677851882 0  -0.8740771035327226 -0.2462291778898844 0  -0.86975892960436
[...]
<CellData  Scalars="f_3390"> 
<DataArray  type="Float64"  Name="f_3390"  format="ascii">1.1177179758346127e-01   1.1177322511981458e-01   1.1176935995599058e-01   1.1177090885744911e-01   1.1177300365391489e-01   1.1176919480523224e-01   1.1177448623749893e-01   1.1177449761813986e-01   1.1176734977649502e-01   1.1177336795179411e-01   1.1176580121338135e-01   1.1176729721888627e-01   1.1177178555482302e-01   1.1177596108025467e-01   1.1177070492921871e-01   1.1177236395454541e-01   1.1177393854573103e-01   1.1176608684391959e-01   1.1177527519855630e-01   1.1177472876186355e-01   1.1176840001517956e-01   1.1177648718584028e-01   1.1177070629716120e-01   1.1176933530772083e-01   1.1177760900732907e-01   1.1177177357120469e-01   1.1177739247375756e-01   1.1177829156313580e-01   1.1177624433586000e-01   1.1177204261699798e-01   1.1177753589108112e-01   1.1177717263157892e-01   1.1176478770089125e-01   1.1177502301423205e-01   1.1176375165449190e-01   1.1176534952358549e-01   1.1177572070837556e-01   1.1176692669885965e-01   1.1177557626410853e-01   1.1177690728894576e-01   1.1176728662428896e-01   1.1177923501119959e-01   1.1175629691586127e-01   1.1176316292893924e-01   1.1176981594146976e-01   1.1177703188652600e-01   1.1176446345949151e-01   1.1176658138705842e-01   1.1177313323719262e-01   1.1177807842464095e-01   1.1177317952096209e-01   1.1177365962266606e-01   1.1177904662993923e-01   1.1177560573065917e-01   1.1177841981918256e-01   1.1177921158608169e-01   1.1177357743387487e-01   1.1177786082056923e-01   1.1176840277833958e-01   1.1177002217476738e-01   1.1177533637983542e-01   1.1177820290739249e-01   1.1177201460973964e-01   1.1177107988499441e-01   1.1179685140837305e-01   1.1178671925040440e-01   1.1179024456647235e-01   1.1179436339050759e-01   1.1178121824422052e-01   1.1178439054318730e-01   1.1177483670140045e-01   1.1178138544582208e-01   1.1178984847600197e-01   1.1177855810290571e-01   1.1178728155848726e-01   1.1178455788551450e-01   1.1179328901491094e-01   1.1177619352215645e-01   1.1178051958229111e-01   1.1179170708271557e-01   1.1177506564668371e-01   1.1178266302392081e-01   1.1176778281908645e-01   1.1177192574348827e-01   1.1177742135566224e-01   1.1176375796168060e-01   1.1177526800367246e-01   1.1178114670787154e-01   1.1176064858561341e-01   1.1177721047532208e-01   1.1174398751050588e-01   1.1175525164101133e-01   1.1176767975751943e-01   1.1177564252918046e-01   1.1175776952612125e-01   1.1176907087099157e-01   1.1178486911003419e-01   1.1177115692966375e-01   1.1178104570059411e-01   1.1177986432009814e-01   1.1176940386569122e-01   1.1178190397694798e-01   1.1175836700256106e-01   1.1176535450919610e-01   1.1177981395787535e-01   1.1175754360582515e-01   1.1177039773650678e-01   1.1176160806158870e-01   1.1177938424340246e-01   1.1175112444391665e-01   1.1175877084291151e-01   1.1175360577937177e-01   1.1179072012699126e-01   1.1175870363553039e-01   1.1176803753189841e-01   1.1178830066638586e-01   1.1174610633190521e-01   1.1176803383945268e-01   1.1172377848588841e-01   1.1174900977785450e-01   1.1177509952687721e-01   1.1173406329294605e-01   1.1174733597318555e-01   1.1174267614313342e-01   1.1179409914593137e-01   1.1170836937441357e-01   1.1172155585052199e-01   1.1178169145586632e-01   1.1168532814605713e-01   1.1172872179333833e-01   1.1170836294212891e-01   1.1175181473467009e-01   1.1173396640156762e-01   1.1176582884470952e-01   1.1175602135550304e-01   1.1175164098144898e-01   1.1171349597615508e-01   1.1173409891136186e-01   1.1171991398050612e-01   1.1176695368512325e-01   1.1174514989061407e-01   1.1175353436275302e-01   1.1175945642050936e-01   1.1175187975099894e-01   1.1173809307628070e-01   1.1177076168377320e-01   1.1175824114160952e-01   1.1175636885775578e-01   1.1176414685762202e-01   1.1175737027749409e-01   1.1176458809084364e-01   1.1176049311087263e-01   1.1175925659522055e-01   1.1176797491366346e-01   1.1176209762682458e-01   1.1176162911049532e-01   1.1175695098188711e-01   1.1176388637900116e-01   1.1176120586496355e-01   1.1175813947070062e-01   1.1172723908795634e-01   1.1174227035232613e-01   1.1173468182710410e-01   1.1177346571332610e-01   1.1174780535336454e-01   1.1177648100735788e-01   1.1176264093130077e-01   1.1176062947105241e-01   1.1174138653481470e-01   1.1175131036571065e-01   1.1174860767318935e-01   1.1177692524338440e-01   1.1176755047317770e-01   1.1176044280297179e-01   1.1176819984087868e-01   1.1176807864306601e-01   1.1175559193398017e-01   1.1176162366151357e-01   1.1176596349297660e-01   1.1175930417718974e-01   1.1176440578039140e-01   1.1176860491470442e-01   1.1176673419481115e-01   1.1176506124078928e-01   1.1176687820274768e-01   1.1176382420658761e-01   1.1176719178886574e-01   1.1176704923736823e-01   1.1176243054905362e-01   1.1176656804682615e-01   1.1176883256819466e-01   1.1176701335855191e-01   1.1166361529027770e-01   1.1175009398377042e-01   1.1172552876348586e-01   1.1169327519518417e-01   1.1176544097001161e-01   1.1174608837630869e-01   1.1177026053958347e-01   1.1175824136991108e-01   1.1174231040245748e-01   1.1176684808850083e-01   1.1176097145200695e-01   1.1175334685056273e-01   1.1172257920957189e-01   1.1176672860584967e-01   1.1176165449668439e-01   1.1174271131674655e-01   1.1177074117604903e-01   1.1176456972998533e-01   1.1177487085150536e-01   1.1177128569337427e-01   1.1177444444552065e-01   1.1177783800380300e-01   1.1177433977934156e-01   1.1176667024987869e-01   1.1178088128378967e-01   1.1178029971792788e-01   1.1178445948662108e-01   1.1178256664989025e-01   1.1177642737949064e-01   1.1177130822202616e-01   1.1178113658830947e-01   1.1177309053821997e-01   1.1177187062762264e-01   1.1177475481544516e-01   1.1177910251909162e-01   1.1177183576048939e-01   1.1177834028110586e-01   1.1177755373818149e-01   1.1178076894960308e-01   1.1177820127179171e-01   1.1178462059589182e-01   1.1178180186586306e-01   1.1178536929678370e-01   1.1178003235115350e-01   1.1177977919061600e-01   1.1178290809990896e-01   1.1178200592358917e-01   1.1178221953885349e-01   1.1175666422003334e-01   1.1177868276489826e-01   1.1177823497849902e-01   1.1176686846462787e-01   1.1178523700237107e-01   1.1178375021617006e-01   1.1178803048229502e-01   1.1178346911916284e-01   1.1178067084094077e-01   1.1178589358517224e-01   1.1178303831286115e-01   1.1178334393529177e-01   1.1177498374541939e-01   1.1178652234354283e-01   1.1178578060908198e-01   1.1177984011076365e-01   1.1172969482031622e-01   1.1178437811647360e-01   1.1179567568334409e-01   1.1177622072521573e-01   1.1179040282241645e-01   1.1178570068478383e-01   1.1179071722428466e-01   1.1180546338595229e-01   1.1178921969370176e-01   1.1179151063736602e-01   1.1178958721542571e-01   1.1178777948272293e-01   1.1178754827609251e-01   1.1177175422059599e-01   1.1178737025090492e-01   1.1177373909129147e-01   1.1179019267730124e-01   1.1178829651973603e-01   1.1178986049492431e-01   1.1179039176661551e-01   1.1178762863736551e-01   1.1179012654660830e-01   1.1178580804263531e-01   1.1178641655349432e-01   1.1178945342260022e-01   1.1178702134901586e-01   1.1178929215326719e-01   1.1178989414769158e-01   1.1179158840846433e-01   1.1178689527008261e-01   1.1179094448040527e-01   1.1180386164177290e-01   1.1178863832208767e-01   1.1178879785751604e-01   1.1178751980795851e-01   1.1178820682849865e-01   1.1178689170828114e-01   1.1178765542749280e-01   1.1178688317571571e-01   1.1178847301390400e-01   1.1178560420833497e-01   1.1178420383721539e-01   1.1178541957860491e-01   1.1178723712931410e-01   1.1178750873689521e-01   1.1178827319092303e-01   1.1178768051626760e-01   1.1178783640845812e-01   1.1177610606143940e-01   1.1177388327872312e-01   1.1178562880880896e-01   1.1178442085257165e-01   1.1179042702099688e-01   1.1178304737372942e-01   1.1178940072815578e-01   1.1180221460054104e-01   1.1178576221387479e-01   1.1179033302851869e-01   1.1178743994945324e-01   1.1178587293089315e-01   1.1177835908203460e-01   1.1178617664668820e-01   1.1178858177547762e-01   1.1173580237698170e-01   1.1177729892167676e-01   1.1177667549959865e-01   1.1177674627129504e-01   1.1177562195596741e-01   1.1177784137325156e-01   1.1177662968625610e-01   1.1177750409456474e-01   1.1177699078986450e-01   1.1177717278857878e-01   1.1177881944295173e-01   1.1177831539868553e-01   1.1177734584361586e-01   1.1177636633685877e-01   1.1177627886011642e-01   1.1177683202223290e-01   1.1177611828807206e-01   1.1178028738486406e-01   1.1177870527134372e-01   1.1178032928071019e-01   1.1177872290502452e-01   1.1177910287281714e-01   1.1177850904238035e-01   1.1177775370243635e-01   1.1177784704228200e-01   1.1178072936758883e-01   1.1178044958154643e-01   1.1177892517336273e-01   1.1177847004014266e-01   1.1177720953235512e-01   1.1177685681139586e-01   1.1177650348920935e-01   1.1177555378292749e-01   1.1177991653650998e-01   1.1178211526201944e-01   1.1178172584425747e-01   1.1178027729254941e-01   1.1178464867021914e-01   1.1178338975318378e-01   1.1178374283289301e-01   1.1178273274972329e-01   1.1178493077385450e-01   1.1178573367792122e-01   1.1178363723245613e-01   1.1178149309942020e-01   1.1178201366175851e-01   1.1178148349816784e-01   1.1177964572389380e-01   1.1177750306971454e-01   1.1177577197125416e-01   1.1177430757028096e-01   1.1177633261605359e-01   1.1177479085487282e-01   1.1177596415920690e-01   1.1177700707039540e-01   1.1177285547921237e-01   1.1177330524874868e-01   1.1177875884501699e-01   1.1177603163364766e-01   1.1177516542982599e-01   1.1177259019246064e-01   1.1177464053640802e-01   1.1176863069469362e-01   1.1176970622754548e-01   1.1176752707406827e-01   1.1177265706262715e-01   1.1176996296588647e-01   1.1177991219833615e-01   1.1177390669566675e-01   1.1177410650106473e-01   1.1177972629806661e-01   1.1177476828803141e-01   1.1177097849520365e-01   1.1178098705982256e-01   1.1177662488941377e-01   1.1178299023689264e-01   1.1178063239752754e-01   1.1177423982146430e-01   1.1177210453837640e-01   1.1177956495329920e-01   1.1177456485269108e-01   1.1177915626465443e-01   1.1178234926781019e-01   1.1177897876925066e-01   1.1177684166902124e-01   1.1178162665806830e-01   1.1177697360598933e-01   1.1177968476724448e-01   1.1178022525707089e-01   1.1177875011367458e-01   1.1178084674668202e-01   1.1177827439708173e-01   1.1177703623715644e-01   1.1177529523329620e-01   1.1177928830698822e-01   1.1177571813578147e-01   1.1177301441799452e-01   1.1178460420581453e-01   1.1178138830563188e-01   1.1178603903480268e-01   1.1178369921739462e-01   1.1178321364015728e-01   1.1178495160992283e-01   1.1178225502272687e-01   1.1178089054282501e-01   1.1178763354029124e-01   1.1178556941134080e-01   1.1178753144883329e-01   1.1178601187398431e-01   1.1178277140146160e-01   1.1178017164119522e-01   1.1178335389979248e-01   1.1178126780877201e-01   1.1177474112536674e-01   1.1177372461290813e-01   1.1177890307783994e-01   1.1177493746546803e-01   1.1177601805468895e-01   1.1177864258618773e-01   1.1177620899221401e-01   1.1177465573954196e-01   1.1177912851339561e-01   1.1177683219381139e-01   1.1177950663973805e-01   1.1177800836214336e-01   1.1177455697281330e-01   1.1177410553522539e-01   1.1177760058910084e-01   1.1177638360432543e-01   1.1178090624148712e-01   1.1178679739202717e-01   1.1178047364202785e-01   1.1177992650735039e-01   1.1178632228948601e-01   1.1178034479268981e-01   1.1178697719840014e-01   1.1178789063413339e-01   1.1177716393855108e-01   1.1178497685557809e-01   1.1177539170513393e-01   1.1177636953146450e-01   1.1178167461694929e-01   1.1178891559552562e-01   1.1178175078101847e-01   1.1178279324182455e-01   1.1178338138283370e-01   1.1177324737519141e-01   1.1178276115812878e-01   1.1178487502563338e-01   1.1177591382250623e-01   1.1178588517021024e-01   1.1177942052889207e-01   1.1177845500820710e-01   1.1178395952259408e-01   1.1177739353186106e-01   1.1178388357497043e-01   1.1178640727626989e-01   1.1178796168562873e-01   1.1178259082921296e-01   1.1178846221888841e-01   1.1178970914392375e-01   1.1177376299144148e-01   1.1178217093866777e-01   1.1177207919272732e-01   1.1177035837406582e-01   1.1177909409952580e-01   1.1176789955970770e-01   1.1177772133892791e-01   1.1178092610414828e-01   1.1177388908605222e-01   1.1178218251946175e-01   1.1176713790205599e-01   1.1176636788409838e-01   1.1177395358748880e-01   1.1178164576734756e-01   1.1177107783077705e-01   1.1177404272218906e-01   1.1178389701607154e-01   1.1179026543643178e-01   1.1178330821479830e-01   1.1178475791427668e-01   1.1178888784662133e-01   1.1178414840655698e-01   1.1178843879654859e-01   1.1179066786666789e-01   1.1178077182466012e-01   1.1178620224212034e-01   1.1177721557452036e-01   1.1178008074128647e-01   1.1178581951520371e-01   1.1179035707270180e-01   1.1178311715787687e-01   1.1178481687785080e-01   1.1165746649152973e-01   1.1168501309787084e-01   1.1169674495269770e-01   1.1173642141510259e-01   1.1171709084428903e-01   1.1177756480281302e-01   1.1174305549596880e-01   1.1172065723701756e-01   1.1170469634065507e-01   1.1172471705314739e-01   1.1171581362907074e-01   1.1177263526913156e-01   1.1173296835659166e-01   1.1173212861656007e-01   1.1177039704096947e-01   1.1174889832018584e-01   1.1173476351490474e-01   1.1177577306640217e-01   1.1175485581156361e-01   1.1174853963387396e-01   1.1177087715206128e-01   1.1175355711147550e-01   1.1177568716664553e-01   1.1176769429439878e-01   1.1175910004071578e-01   1.1177886222302885e-01   1.1176479104704665e-01   1.1176216555049313e-01   1.1174938544380354e-01   1.1177841721999858e-01   1.1175913470332464e-01   1.1174546568691963e-01   1.1172448266772071e-01   1.1174205211446973e-01   1.1173171744111290e-01   1.1177698020088671e-01   1.1174918288282935e-01   1.1177993741600141e-01   1.1176221248726576e-01   1.1176015926540385e-01   1.1173876735352702e-01   1.1175004456307386e-01   1.1173979268432845e-01   1.1177343214966025e-01   1.1177387176211005e-01   1.1176140746975739e-01   1.1176974024744034e-01   1.1177573214054351e-01   1.1175718519104037e-01   1.1175602491761025e-01   1.1178176237192032e-01   1.1176514889388664e-01   1.1176671650414818e-01   1.1178560581195778e-01   1.1177299823922870e-01   1.1176520402556736e-01   1.1178009164513882e-01   1.1176796006751233e-01   1.1177924350441956e-01   1.1178216292891906e-01   1.1177067060938048e-01   1.1177068317189995e-01   1.1178755511905186e-01   1.1178138290228815e-01   1.1178296029568238e-01   1.1178231505419303e-01   1.1177708948383176e-01   1.1177966372839503e-01   1.1177688452231120e-01   1.1177178856330042e-01   1.1177021580433835e-01   1.1177762177099762e-01   1.1177061201851511e-01   1.1177033608603841e-01   1.1176099502788490e-01   1.1176335757304728e-01   1.1177615261379320e-01   1.1177134318016445e-01   1.1176664431706421e-01   1.1177193063892589e-01   1.1176103351146149e-01   1.1175124922395251e-01   1.1174603754532950e-01   1.1176071297519835e-01   1.1174075027562018e-01   1.1174627569844703e-01   1.1174857016214379e-01   1.1175686904522532e-01   1.1172516753541739e-01   1.1173838028443975e-01   1.1168216412488305e-01   1.1172645830432386e-01   1.1176100340661506e-01   1.1176140085030248e-01   1.1174683608112555e-01   1.1176226575621560e-01   1.1174720248862265e-01   1.1174671609006886e-01   1.1172542527843149e-01   1.1173183888368082e-01   1.1172770879132073e-01   1.1170800974637879e-01   1.1168211519991418e-01   1.1172490221568390e-01   1.1168991720448711e-01   1.1168479544666095e-01   1.1163285149673807e-01   1.1164603033155783e-01   1.1172455494083307e-01   1.1168022498489608e-01   1.1167270645575593e-01   1.1169390348174227e-01   1.1176804709862323e-01   1.1174892057743334e-01   1.1175501033727686e-01   1.1176256735855560e-01   1.1172880901703935e-01   1.1175791849121024e-01   1.1169378061646075e-01   1.1173238876419225e-01   1.1174967853627631e-01   1.1168712801298758e-01   1.1170983006850871e-01   1.1172148680734521e-01   1.1176642804396361e-01   1.1170356171050509e-01   1.1173030657589920e-01   1.1173532201251107e-01   1.1179276624013355e-01   1.1179143907418575e-01   1.1179254828887535e-01   1.1179256180871786e-01   1.1178910777059177e-01   1.1179056712337013e-01   1.1179023627451565e-01   1.1179126231946887e-01   1.1179082776175743e-01   1.1178851919567520e-01   1.1178950969585696e-01   1.1178961631783664e-01   1.1179358024023614e-01   1.1179266080131819e-01   1.1179219376926715e-01   1.1179348099233678e-01   1.1178754388953159e-01   1.1178845303552444e-01   1.1178832768203545e-01   1.1178922483066717e-01   1.1179009687030207e-01   1.1179033112093495e-01   1.1179152601093890e-01   1.1179113374966740e-01   1.1178931919073659e-01   1.1179073334420177e-01   1.1178930810940901e-01   1.1179049381579215e-01   1.1179145230600680e-01   1.1179263970594132e-01   1.1179185585462563e-01   1.1179316799383959e-01   1.1178800533282349e-01   1.1178666198384657e-01   1.1178667663530976e-01   1.1178733632592622e-01   1.1178611463511863e-01   1.1178623162769241e-01   1.1178702955297108e-01   1.1178744646794127e-01   1.1178462373458985e-01   1.1178492572122403e-01   1.1178473727949852e-01   1.1178577407431960e-01   1.1178905336962421e-01   1.1178844953387482e-01   1.1178838174348947e-01   1.1178976717946953e-01   1.1179308351953472e-01   1.1179350806840428e-01   1.1179297153871133e-01   1.1179186804542107e-01   1.1179235359112140e-01   1.1179247895379966e-01   1.1178861755664300e-01   1.1179212788339452e-01   1.1179224852493266e-01   1.1179030062251484e-01   1.1179078988745526e-01   1.1179048180094092e-01   1.1178854355537265e-01   1.1179828870715298e-01   1.1179834514691823e-01   1.1176918311236481e-01   1.1178370471186895e-01   1.1177897971313280e-01   1.1178430320126834e-01   1.1178070151784340e-01   1.1177728800655272e-01   1.1177992799270280e-01   1.1177674753895010e-01   1.1177727730452013e-01   1.1178445544560796e-01   1.1177664116064250e-01   1.1178461468839501e-01   1.1178014544566853e-01   1.1178212087515702e-01   1.1177891170607664e-01   1.1178215710001059e-01   1.1178308558474348e-01   1.1177576808360888e-01   1.1178023284367442e-01   1.1177546297712476e-01   1.1177623015926483e-01   1.1178252174552407e-01   1.1177839351474234e-01   1.1178369402153329e-01   1.1178273106033397e-01   1.1177887852282489e-01   1.1178617001136898e-01   1.1177852031585876e-01   1.1178135081671922e-01   1.1177865787274853e-01   1.1178351289107671e-01   1.1178055707166981e-01   1.1178053325543393e-01   1.1178485926868889e-01   1.1177462118462042e-01   1.1178430128518253e-01   1.1177958519538311e-01   1.1177447945218399e-01   1.1178198954165580e-01   1.1177116337432284e-01   1.1177554789312355e-01   1.1178725822497453e-01   1.1176870398708399e-01   1.1177072783046821e-01   1.1176834241581976e-01   1.1178501223304529e-01   1.1177523952359707e-01   1.1177355097079675e-01   1.1177616561902005e-01   1.1178475938905418e-01   1.1178266853621201e-01   1.1178502402861989e-01   1.1178623305243449e-01   1.1178364600590189e-01   1.1178876289963337e-01   1.1178416269776673e-01   1.1178562681613635e-01   1.1178755127315393e-01   1.1178147521633797e-01   1.1177903246001590e-01   1.1178160299199502e-01   1.1178995324563540e-01   1.1178642520919793e-01   1.1178382095887446e-01   1.1178640423636445e-01   1.1177658123693288e-01   1.1178992443102533e-01   1.1179553115410922e-01   1.1178659353464286e-01   1.1178500857228196e-01   1.1178961977269414e-01   1.1178803359155615e-01   1.1178692404914715e-01   1.1178887565690315e-01   1.1178726348552057e-01   1.1178868388133972e-01   1.1178927695841476e-01   1.1178889232747267e-01   1.1178827505779219e-01   1.1178936304866362e-01   1.1178863104795736e-01   1.1178730304486770e-01   1.1178802449889863e-01   1.1178740156427855e-01   1.1178763859245046e-01   1.1178646210087294e-01   1.1178765107071356e-01   1.1178672146990727e-01   1.1178802098193794e-01   1.1178674794341460e-01   1.1178447859772438e-01   1.1178554260117431e-01   1.1178706530689955e-01   1.1178817518