<?xml version="1.0"?>
<VTKFile type="UnstructuredGrid"  version="0.1"  >
<UnstructuredGrid>
<Piece  NumberOfPoints="4153" NumberOfCells="8064">
<Points>
<DataArray  type="Float64"  NumberOfComponents="3"  format="ascii">-0.3944714858287486 -0.6336837343728778 0  -0.01124329379618079 -0.7982242200270322 0  -0.06524450618719863 -0.7937332994818527 0  -0.1182359705579328 -0.7834532342586135 0  -0.1696830043259367 -0.7680122043026579 0  -0.2194854536127453 -0.7487979435668929 0  -0.2670517215135612 -0.7243450078701603 0  -0.3120019836794042 -0.6963781692175474 0  -0.3543856467583538 -0.6659265213916887 0  0.0430248482846413 -0.7965821880562201 0  -0.4321651908076791 -0.6013130614486287 0  -0.4681014041211216 -0.5689075023254462 0  -0.5023338952958315 -0.5367520062617323 0  -0.5351067917031311 -0.5053316363111885 0  -0.5667810116412443 -0.4752593740032455 0  -0.597648009518046 -0.4469115399683645 0  -0.6278569159090495 -0.4211118355186326 0  0.6583848492047197 -0.4071767894310271 0  0.09676045329782289 -0.7888757271907479 0  0.1491959077346866 -0.775415607194465 0  0.1996750038367657 -0.7568100793487523 0  0.2476900138808699 -0.7337633040758831 0  0.2930761493310651 -0.7075465851251527 0  0.3358311559712862 -0.6789504016401647 0  0.3761032323116569 -0.6487954208255 0  0.4140774669714125 -0.6177243234157307 0  0.450194572536005 -0.5865412566661493 0  0.4847491880067089 -0.5556405472701296 0  0.5180530711812342 -0.5253903321726553 0  0.5503386823456332 -0.4961137412815124 0  0.5819033476658416 -0.4680564149081818 0  0.6128998182077884 -0.4416405058743727 0  0.6435703448683527 -0.4176810747796569 0  0.6280304759848212 -0.429556129606577 0  -0.6125509298884033 -0.4338070787623847 0  -0.5510398763140435 -0.4902110352222195 0  -0.4854074182594298 -0.5527751265044452 0  -0.4135179938591292 -0.6174818393451945 0  -0.3335193123706199 -0.6812985605107287 0  -0.2435851622059357 -0.7371005272648284 0  -0.1441737212440121 -0.776435290476191 0  -0.03832755958687037 -0.7967358514876297 0  0.5974003199675072 -0.454815260358096 0  0.1747131323599625 -0.7666967789596368 0  0.2707184454533684 -0.7210136073777439 0  0.3562528932877672 -0.6640203247412045 0  0.4323546435591296 -0.602134106572128 0  0.5015325512501249 -0.5404331315966838 0  0.5662126072778014 -0.4820217473878148 0  0.07000861861113641 -0.793473787258191 0  -0.6423899111958826 -0.4097169051992294 0  0.5343026926113598 -0.5106231019783224 0  0.4676444026137188 -0.5710412676723332 0  0.3953603484529135 -0.6333074613669296 0  0.3147759579649917 -0.6935029952937271 0  0.2240238808363503 -0.7457789895402956 0  0.1231852208768289 -0.7828318524176011 0  0.01590829289945245 -0.7981755936436088 0  -0.09190692922360366 -0.7893067820222541 0  -0.1946729877375306 -0.7588275017367552 0  -0.289798354700874 -0.710592091399742 0  -0.3749989148638272 -0.6503777380489433 0  -0.4503621511927751 -0.5851237180553429 0  -0.5189084260387913 -0.5209559190022405 0  -0.5822212811707587 -0.4610180096086773 0  0.779966899809006 -0.2199412418515071 0  0.7062364931584723 -0.3756333265072548 0  0.7476526378488364 -0.3329832451531398 0  0.7736542510406198 -0.2801045465032297 0  0.6828407469041463 -0.3919702091402519 0  0.7280819107551827 -0.3556599200318408 0  0.7587704937874573 -0.3050631472720656 0  0.7756468319538823 -0.2496116057419532 0  0.6705720237636632 -0.4000179506929509 0  0.6945036407393806 -0.3830379861338233 0  0.7173004569559459 -0.3658328631346201 0  0.7375559702747035 -0.3435001544241589 0  0.7557130269239314 -0.320312713656776 0  0.7652969034974257 -0.29238133238435 0  0.7735701016248888 -0.2645879891980635 0  0.7771478642585745 -0.2346260991812261 0  0.779270067394235 -0.2005552904439706 0  0.7811250373378408 0.2326457539533606 0  0.7816047293025136 0.1942658357064256 0  0.7834956273245296 0.1555138529513319 0  0.7858403826889895 0.116282956694079 0  0.7883749898096956 0.07649650374286865 0  0.7894704847035243 0.03625315773052449 0  0.7892407092294903 -0.004104980931164247 0  0.7876840030750369 -0.04434330864211973 0  0.7847672039711904 -0.08411136998203374 0  0.7820891372552119 -0.1233524632236856 0  0.779912083449128 -0.1621249085971185 0  0.7822170450066899 0.2519425417434593 0  0.7811375205401681 0.2134903962525227 0  0.7846539669760422 0.1359622887703818 0  0.7890872438805745 0.0564051665959323 0  0.7886318878078304 -0.02425469561212251 0  0.7834164743115236 -0.1037975101179301 0  0.7793571274191062 -0.1813747205799566 0  0.7824678211191072 0.1749463682358687 0  0.7871832335745891 0.09648487569073486 0  0.7895159878965887 0.01607393919635635 0  0.7862750074801543 -0.06431989042666934 0  0.7809143398039559 -0.14279526271986 0  0.6651615157896672 0.4405097465565755 0  0.7768826699065585 0.3121267931683975 0  0.7519332368373819 0.3655145833650807 0  0.7117817972823756 0.4086826086438945 0  0.7785521561428584 0.2816412180712231 0  0.7629475334389453 0.3376350131111424 0  0.7329707605744858 0.388297718627433 0  0.688836383253965 0.4249910616163495 0  0.7798549993578124 0.2666832235990471 0  0.7768678803844002 0.2966532153102087 0  0.7691330384517193 0.324673271492834 0  0.7594052149549897 0.3525516084130031 0  0.7421181438184943 0.3760888790704405 0  0.7224936745142982 0.3986249102369443 0  0.7002582354036554 0.4161418205237781 0  0.6768777810815266 0.4330238873729662 0  -0.01040901532390088 0.8617885544095201 0  0.6215004691130086 0.4766844189122689 0  0.591777990684781 0.5045327340399195 0  0.5615345121437872 0.5343286812521648 0  0.5304920549183604 0.5657751969765085 0  0.4982393913970344 0.5983722599004325 0  0.464468075774357 0.6317619285291719 0  0.4288458742842859 0.6655722301096212 0  0.3909734507374819 0.6994049056103799 0  0.3503720127600338 0.7322543957425349 0  0.3068334685078473 0.7634291321492603 0  0.2602068478576908 0.7920072086662246 0  0.2105119149587859 0.817175034086053 0  0.1579510236056179 0.8374291028001326 0  0.1030975358849595 0.851968495003057 0  0.0467077253782717 0.8600872379076427 0  0.6508923900863052 0.4515349983171 0  -0.06719922075318344 0.855954582028277 0  -0.1226554267466406 0.843511626955465 0  -0.1760089369497839 0.825164105647312 0  -0.2265366871367193 0.8010454113648849 0  -0.2743929568067843 0.7744392859289903 0  -0.3193687062223338 0.7448805843489018 0  -0.3615856217779988 0.7132852793506901 0  -0.4011896691055249 0.6802346994980332 0  -0.4384977527687006 0.6470039472557401 0  -0.4739292578036794 0.6139112634799724 0  -0.5077313863759113 0.5813300979702294 0  -0.540166304661675 0.5496350116554879 0  -0.5714909438273444 0.5191695108018868 0  -0.6019616686826885 0.4904816844784893 0  -0.6318493886483386 0.4644347303919497 0  -0.6462274981586 0.453016530211776 0  -0.6167246011166305 0.4772960086055981 0  -0.5559614019644518 0.5343214449055516 0  -0.4910193465837854 0.5975453859394982 0  -0.4200825323745199 0.6636149483265372 0  -0.3408041033788398 0.7292452324968084 0  -0.2508197327514733 0.7881800669259861 0  -0.1496182218828797 0.8348681335880987 0  -0.03890227839350817 0.8597029437007123 0  0.07505205584589163 0.8568981391964043 0  0.1845602750870188 0.827937406984774 0  0.283910905672245 0.7781078453800577 0  0.3710162759849308 0.7159720391175061 0  0.4469107872912068 0.6486424345841947 0  0.5145334607935057 0.5819604332609002 0  0.5767217325165689 0.5193075830462052 0  0.635982115836026 0.4638866468334792 0  -0.5867564263745287 0.5047566787088186 0  -0.5241075619180726 0.5653820101955046 0  -0.4564367404641957 0.6304230882906785 0  -0.3817634112093601 0.696938210622207 0  -0.297226155124099 0.7599430199798881 0  -0.2018622341221788 0.8140340621901363 0  -0.09513700637942279 0.8504761630108155 0  0.01822372507091305 0.8617944331870999 0  0.1307693030383291 0.845460514793453 0  0.2357683401897589 0.8051663485543308 0  0.3289818612785459 0.7481080175061238 0  0.4102461188064435 0.6825573612199668 0  0.4815630102063802 0.6149951418671444 0  0.5461559668427038 0.5499124640334421 0  0.6066171618697942 0.4905042431992317 0  -0.7650853480461333 0.2607507045840481 0  -0.6929914336213485 0.4195689019298111 0  -0.7333914039781874 0.3755217252463785 0  -0.7587770513184422 0.3215473746443001 0  -0.6700560636778187 0.436580475092631 0  -0.7142875261026286 0.3986600801917387 0  -0.744492101257981 0.3472632944537073 0  -0.7608370201932668 0.2907776041488093 0  -0.6580505509905731 0.4451280067078775 0  -0.6814817804149209 0.4273443169541414 0  -0.7037756079796931 0.409251709956701 0  -0.7235072127337808 0.3862605093397714 0  -0.7409570012725922 0.362365298764599 0  -0.7508229179290635 0.3341955409951503 0  -0.7588907055813453 0.3059340342359697 0  -0.7623990406402136 0.2756531002815262 0  -0.7644068393796364 0.2411794520239343 0  -0.7630433751595821 -0.2000795656733475 0  -0.7643413619512421 -0.1611776129316403 0  -0.7670060092554539 -0.1217971679171049 0  -0.7700081363481289 -0.08184426647075263 0  -0.7730279244414939 -0.04129455492212511 0  -0.7745925515435331 -0.0002524224139604579 0  -0.7747552661858859 0.04093051004357168 0  -0.773519631206696 0.08200436182215171 0  -0.7708119818695421 0.1226268553098405 0  -0.7680598580419186 0.1626727874213584 0  -0.7655867946232612 0.2021647392095541 0  -0.7636163760055565 -0.2196210354442107 0  -0.7634748688692291 -0.1806823815025085 0  -0.7685149257182673 -0.1018961332269434 0  -0.7739864130241193 -0.0208076401356265 0  -0.7743115891517743 0.06149767211349794 0  -0.7694468167218146 0.1427210120133979 0  -0.7647838955816852 0.2217229790331186 0  -0.7656012042694991 -0.1415582071400749 0  -0.7715960421255053 -0.06166553582748661 0  -0.774844565292798 0.02033714473626145 0  -0.7722568094313148 0.1024069903913495 0  -0.766759780607862 0.1824871573267954 0  -0.7567160400907367 -0.2801803107194585 0  -0.7305758460751827 -0.3336035904049381 0  -0.6895829327418581 -0.377000962882352 0  -0.7591178961017303 -0.2495489540123538 0  -0.7420894785916232 -0.3056612779837526 0  -0.7112127219308521 -0.3565468389031206 0  -0.666388295772152 -0.3937156888947662 0  -0.7607862805171111 -0.2344650489663045 0  -0.7569971943667673 -0.26
[...]
<CellData  Scalars="f_4546"> 
<DataArray  type="Float64"  Name="f_4546"  format="ascii">1.1177212798103486e-01   1.1177548765767506e-01   1.1176905174718459e-01   1.1177076800525045e-01   1.1177583892164690e-01   1.1176852030389189e-01   1.1177773971143294e-01   1.1177716748318793e-01   1.1176619855629849e-01   1.1177677508644310e-01   1.1176403061282245e-01   1.1176603756648570e-01   1.1177164925381720e-01   1.1177915671071181e-01   1.1177044836838042e-01   1.1177232352062200e-01   1.1177771494937364e-01   1.1176469405684313e-01   1.1177917445710496e-01   1.1177836368102947e-01   1.1176796784973020e-01   1.1178047066077189e-01   1.1177085162638982e-01   1.1176875788598437e-01   1.1178168371925983e-01   1.1177232423627921e-01   1.1178169272336562e-01   1.1178253162070709e-01   1.1177998865068636e-01   1.1177227365679933e-01   1.1178164432893350e-01   1.1178077260033865e-01   1.1176269455377982e-01   1.1177879305774029e-01   1.1176197822579438e-01   1.1176431011572385e-01   1.1177938002985524e-01   1.1176682509250675e-01   1.1177942310653485e-01   1.1178074550977367e-01   1.1176587382103152e-01   1.1178162503998028e-01   1.1175756452259836e-01   1.1176455381798288e-01   1.1176991378514391e-01   1.1178101033390456e-01   1.1176571190248530e-01   1.1176793696272687e-01   1.1177337499926016e-01   1.1178204707796996e-01   1.1177402020609553e-01   1.1177429327439335e-01   1.1178348876380297e-01   1.1177714573881721e-01   1.1178321146993311e-01   1.1178350109954753e-01   1.1177454390192158e-01   1.1178240393119707e-01   1.1176999191384206e-01   1.1177187357462896e-01   1.1177654915579176e-01   1.1178301714334336e-01   1.1177437718931674e-01   1.1177318690331849e-01   1.1179125177801109e-01   1.1178581856749033e-01   1.1178988021958829e-01   1.1178934031996718e-01   1.1178308969010194e-01   1.1178488691644377e-01   1.1177743041972521e-01   1.1178175824426372e-01   1.1179011885407705e-01   1.1178097610392405e-01   1.1178939968725182e-01   1.1178464702039800e-01   1.1178873806205648e-01   1.1177744949374310e-01   1.1178198993708742e-01   1.1178751102832019e-01   1.1177807228573099e-01   1.1178361174216744e-01   1.1177019957874081e-01   1.1177442176248650e-01   1.1177997649478055e-01   1.1176675362227560e-01   1.1177749324555682e-01   1.1178229557963749e-01   1.1176253948364730e-01   1.1177999226185871e-01   1.1174588542767558e-01   1.1175761074421152e-01   1.1177118297396520e-01   1.1177804974271918e-01   1.1176190411252609e-01   1.1177129154764696e-01   1.1178858259105705e-01   1.1177435159194742e-01   1.1178665877406317e-01   1.1178177408399974e-01   1.1177190091697717e-01   1.1178366569956928e-01   1.1175989992301452e-01   1.1176666974924081e-01   1.1178576274705644e-01   1.1176067717445202e-01   1.1178338401152151e-01   1.1176919735410080e-01   1.1178204784284224e-01   1.1175294785093068e-01   1.1176751184340458e-01   1.1176251878384204e-01   1.1178690022910612e-01   1.1176171243399138e-01   1.1177184394753151e-01   1.1178541429393329e-01   1.1174989821815844e-01   1.1177287995111115e-01   1.1172749621027908e-01   1.1175201036502048e-01   1.1177791806606202e-01   1.1173622714299478e-01   1.1175687019158990e-01   1.1175278882427943e-01   1.1179156366825847e-01   1.1171083741391566e-01   1.1173457603461250e-01   1.1178988934171537e-01   1.1165785657607272e-01   1.1171670706906578e-01   1.1169253954676503e-01   1.1174956960879633e-01   1.1172177174482270e-01   1.1176803776471181e-01   1.1175205238443793e-01   1.1174773825764560e-01   1.1170168978599468e-01   1.1172271108228457e-01   1.1171287536616716e-01   1.1176948639276264e-01   1.1174111631161518e-01   1.1174990475405552e-01   1.1176010540234720e-01   1.1174893668887337e-01   1.1172900179178993e-01   1.1177392966312372e-01   1.1175398620199729e-01   1.1175176116323547e-01   1.1176665134510647e-01   1.1175357386377861e-01   1.1176596073153774e-01   1.1176179887094584e-01   1.1175585600583378e-01   1.1177030467123655e-01   1.1175952243692105e-01   1.1175892649320439e-01   1.1175345108718858e-01   1.1176474454163372e-01   1.1175877214062123e-01   1.1175559338351569e-01   1.1172463298112177e-01   1.1173604879366765e-01   1.1173567172865573e-01   1.1177675325766573e-01   1.1174425236060531e-01   1.1177945973414384e-01   1.1176057844677151e-01   1.1175721777974593e-01   1.1174530220522823e-01   1.1175128489835146e-01   1.1175591921605278e-01   1.1178052647241504e-01   1.1177067465278905e-01   1.1175786547578812e-01   1.1177219642822868e-01   1.1177097673392321e-01   1.1175351075030961e-01   1.1176001811695020e-01   1.1176698699814112e-01   1.1175800673061423e-01   1.1176289904299357e-01   1.1176983515309533e-01   1.1176579484549501e-01   1.1176430293645284e-01   1.1176843212615865e-01   1.1176187789817024e-01   1.1176927090663481e-01   1.1176828319106687e-01   1.1176190921185268e-01   1.1176632775912972e-01   1.1176977328628346e-01   1.1176706597861871e-01   1.1167625712966066e-01   1.1175426452175828e-01   1.1173779530825506e-01   1.1170470857482946e-01   1.1176835358788223e-01   1.1175406383643141e-01   1.1177148095076417e-01   1.1176162738830840e-01   1.1175363714339649e-01   1.1176941753845923e-01   1.1176838533717065e-01   1.1176072464784084e-01   1.1173447501055768e-01   1.1176917067421818e-01   1.1176712274634419e-01   1.1175286831050601e-01   1.1177301748104009e-01   1.1176946886518838e-01   1.1177605266480406e-01   1.1177282699455980e-01   1.1177707891830810e-01   1.1177830691203823e-01   1.1177725263888556e-01   1.1177142062085423e-01   1.1178071630852499e-01   1.1178104534517323e-01   1.1178359931859258e-01   1.1178193985359108e-01   1.1177686984250827e-01   1.1177469509015588e-01   1.1178074254665629e-01   1.1177481860107653e-01   1.1177611310856611e-01   1.1177657950952263e-01   1.1178096480915570e-01   1.1177473330496389e-01   1.1177943892512220e-01   1.1177834021930844e-01   1.1178100255356239e-01   1.1177879832820084e-01   1.1178447370855984e-01   1.1178254184067841e-01   1.1178460616890624e-01   1.1178046491568397e-01   1.1178043812127850e-01   1.1178256043367769e-01   1.1178239895845749e-01   1.1178290960001834e-01   1.1176500119592143e-01   1.1177959711020653e-01   1.1178003980912246e-01   1.1177358420951816e-01   1.1178386122400541e-01   1.1178382881670471e-01   1.1178613117093110e-01   1.1178333455829512e-01   1.1178167874610329e-01   1.1178468019859315e-01   1.1178387553338059e-01   1.1178456235712768e-01   1.1177982312557218e-01   1.1178604130817603e-01   1.1178636236432410e-01   1.1178447205932622e-01   1.1164690862478523e-01   1.1185169472062134e-01   1.1178920506316294e-01   1.1183792904991936e-01   1.1177511273322750e-01   1.1178236157636245e-01   1.1179379034173788e-01   1.1176712410972107e-01   1.1178745045844737e-01   1.1178769782622727e-01   1.1178709899775539e-01   1.1178304713631421e-01   1.1174303272586833e-01   1.1176102383901285e-01   1.1179229142248386e-01   1.1175750536594496e-01   1.1178710409229377e-01   1.1178464615839587e-01   1.1178671826444012e-01   1.1178535977939319e-01   1.1178386724434874e-01   1.1178704104465874e-01   1.1178144200150615e-01   1.1178153927882672e-01   1.1178668498407185e-01   1.1178282094908991e-01   1.1178677837441441e-01   1.1178684381599932e-01   1.1178683454219873e-01   1.1178415907843339e-01   1.1178785349315114e-01   1.1180964537197098e-01   1.1178633716609569e-01   1.1178636832903827e-01   1.1178558528826664e-01   1.1178419749567635e-01   1.1178538163809532e-01   1.1178408920423212e-01   1.1178507261843466e-01   1.1178596459873087e-01   1.1178430614202206e-01   1.1178366427474128e-01   1.1178407015087223e-01   1.1178368358067992e-01   1.1178367498719341e-01   1.1178602790128239e-01   1.1178378183292668e-01   1.1178321112517214e-01   1.1177007019939801e-01   1.1175583710936900e-01   1.1178316247001492e-01   1.1177069233684184e-01   1.1178819377997883e-01   1.1178048952775733e-01   1.1178852123511200e-01   1.1180970568827459e-01   1.1178057227360390e-01   1.1178752339237839e-01   1.1178249153701592e-01   1.1177958178322821e-01   1.1175933326183662e-01   1.1176866040262268e-01   1.1178409809756459e-01   1.1173424542762204e-01   1.1178368449674912e-01   1.1178575143144065e-01   1.1178253990591527e-01   1.1178372451277192e-01   1.1178671398112933e-01   1.1178395229615344e-01   1.1178763586257867e-01   1.1178691624544751e-01   1.1178400872023879e-01   1.1178822938480128e-01   1.1178582040258510e-01   1.1178584669621132e-01   1.1178541815769576e-01   1.1178747762888278e-01   1.1178538211061319e-01   1.1178656998972236e-01   1.1178989550892758e-01   1.1178788634242638e-01   1.1179127538523703e-01   1.1178940553310962e-01   1.1178969363692733e-01   1.1179053551606183e-01   1.1178915151490133e-01   1.1178759776625918e-01   1.1179276667514965e-01   1.1179194605182582e-01   1.1179347524694197e-01   1.1179185105722109e-01   1.1178857678798489e-01   1.1178682855499442e-01   1.1178943753614919e-01   1.1178815022541229e-01   1.1178800414865857e-01   1.1179174684769554e-01   1.1179029622099151e-01   1.1179016187332151e-01   1.1179375072591048e-01   1.1179294588363882e-01   1.1179489861672738e-01   1.1179341868584532e-01   1.1179296505724437e-01   1.1179499174805843e-01   1.1179400943030510e-01   1.1179374421170560e-01   1.1179253263210946e-01   1.1179433239571505e-01   1.1179324088916064e-01   1.1179247851025316e-01   1.1178769444477332e-01   1.1178865917631010e-01   1.1178806833219865e-01   1.1178853624943511e-01   1.1179049493781873e-01   1.1178991409027267e-01   1.1179053974794619e-01   1.1178938008898323e-01   1.1179120779831696e-01   1.1179225899820242e-01   1.1179143310955536e-01   1.1179015167374327e-01   1.1178985397749205e-01   1.1178863724802986e-01   1.1178818825655772e-01   1.1178741535719823e-01   1.1177758455744827e-01   1.1177241710863442e-01   1.1178504389558008e-01   1.1177860030356616e-01   1.1177801155320924e-01   1.1178541500411791e-01   1.1177896280424142e-01   1.1177396882321633e-01   1.1178619746761727e-01   1.1178135100761527e-01   1.1178850224123285e-01   1.1178646848294096e-01   1.1177956312303990e-01   1.1177546860752265e-01   1.1178586639687502e-01   1.1178035403210414e-01   1.1178469890038216e-01   1.1178863660811506e-01   1.1178506409096474e-01   1.1178198306596041e-01   1.1178884183359554e-01   1.1178261171594636e-01   1.1178701438689344e-01   1.1178683282455522e-01   1.1178540590060784e-01   1.1178883034010170e-01   1.1178566970382042e-01   1.1178314126141199e-01   1.1177992327011958e-01   1.1178615250216346e-01   1.1178078907601323e-01   1.1177683968010090e-01   1.1179041186667818e-01   1.1178764754196770e-01   1.1179226690574767e-01   1.1179046455408656e-01   1.1179028234144056e-01   1.1179223372037232e-01   1.1179036208607354e-01   1.1178782044554425e-01   1.1179404010212682e-01   1.1179298278371766e-01   1.1179557238858553e-01   1.1179416619207339e-01   1.1179053508989643e-01   1.1178799732404096e-01   1.1179233866946670e-01   1.1179049106360944e-01   1.1178101038777843e-01   1.1177802051867894e-01   1.1178630917182937e-01   1.1178167702774687e-01   1.1178150033649230e-01   1.1178646420466551e-01   1.1178230711503771e-01   1.1177939744928146e-01   1.1178704474694479e-01   1.1178356007401111e-01   1.1178872788360406e-01   1.1178698459902936e-01   1.1178163948332705e-01   1.1177922855241003e-01   1.1178614188754285e-01   1.1178438382957027e-01   1.1177990113759353e-01   1.1178606710892156e-01   1.1178028775741151e-01   1.1178267546754611e-01   1.1178612083941396e-01   1.1178358043864445e-01   1.1178822445703100e-01   1.1178809416900906e-01   1.1177741998967015e-01   1.1178554374741040e-01   1.1177553286578620e-01   1.1177997452734847e-01   1.1178348693427431e-01   1.1178927989533974e-01   1.1178447465071886e-01   1.1178482581658121e-01   1.1178489704029250e-01   1.1177679213787997e-01   1.1178581939040048e-01   1.1178706110546414e-01   1.1177868275365047e-01   1.1178828916449975e-01   1.1178255232925645e-01   1.1178136671683568e-01   1.1178738100142940e-01   1.1178077070928356e-01   1.1178733851690811e-01   1.1178953281347280e-01   1.1178942034078235e-01   1.1178571814915124e-01   1.1179052155708422e-01   1.1179049362712278e-01   1.1177357479959266e-01   1.1178472810146871e-01   1.1177119128782770e-01   1.1177323964269022e-01   1.1178249040909154e-01   1.1177008087431538e-01   1.1178159605931635e-01   1.1178492387997653e-01   1.1177294851749597e-01   1.1178642789075038e-01   1.1176436612486751e-01   1.1176582755479333e-01   1.1177657229400940e-01   1.1178527448572664e-01   1.1177129202278135e-01   1.1177531054565153e-01   1.1178602007523485e-01   1.1179155354183617e-01   1.1178670842002614e-01   1.1178703076714802e-01   1.1179170713605713e-01   1.1178834889306398e-01   1.1179160152147190e-01   1.1179273194272921e-01   1.1178443819141398e-01   1.1178944009291773e-01   1.1177921828531770e-01   1.1178261110022600e-01   1.1178863074049072e-01   1.1179260400414315e-01   1.1178640751201092e-01   1.1178740871838642e-01   1.1165808462017132e-01   1.1166917445862294e-01   1.1169710625325154e-01   1.1174773110101577e-01   1.1170786393912258e-01   1.1178873118841619e-01   1.1174057263977583e-01   1.1171843445955618e-01   1.1170596283814195e-01   1.1171692724746989e-01   1.1171678866779111e-01   1.1178275093928983e-01   1.1174114493718372e-01   1.1173357833079951e-01   1.1177582729509569e-01   1.1175652484531380e-01   1.1172847576447412e-01   1.1178435137536404e-01   1.1175320371844524e-01   1.1174660985775607e-01   1.1177639912625897e-01   1.1175402199310372e-01   1.1178055126428356e-01   1.1177368663974827e-01   1.1175916696826074e-01   1.1178264829418105e-01   1.1176760917216727e-01   1.1176404743549904e-01   1.1174977083590994e-01   1.1178224671684968e-01   1.1176139855867329e-01   1.1174948971116362e-01   1.1172575430055998e-01   1.1173713403744930e-01   1.1173345085942600e-01   1.1178481956504542e-01   1.1174521931033668e-01   1.1178638091256082e-01   1.1176219573538020e-01   1.1175868517956716e-01   1.1174019050352593e-01   1.1174779114637767e-01   1.1174411630993732e-01   1.1178231471542187e-01   1.1177845280578633e-01   1.1176277691213175e-01   1.1177759934822393e-01   1.1178327419145717e-01   1.1176339981308309e-01   1.1176068682046397e-01   1.1178401498584466e-01   1.1177046112660473e-01   1.1176931524596362e-01   1.1178606855253716e-01   1.1177659783399178e-01   1.1176939200109885e-01   1.1178272684917104e-01   1.1177169657295315e-01   1.1178549312202167e-01   1.1178725491914548e-01   1.1177444715525844e-01   1.1177554148106603e-01   1.1179052642096911e-01   1.1178495988390025e-01   1.1178213904709738e-01   1.1178062146504401e-01   1.1177802428760045e-01   1.1177968909893168e-01   1.1177698770464632e-01   1.1177403206183338e-01   1.1177257303196457e-01   1.1177773935892996e-01   1.1177353997781582e-01   1.1177241218490189e-01   1.1176669662806005e-01   1.1176793448448868e-01   1.1177692550715859e-01   1.1177367378205134e-01   1.1176976650693447e-01   1.1177338205683238e-01   1.1176565281656438e-01   1.1175899178935933e-01   1.1175507823319361e-01   1.1176581755452834e-01   1.1174962854411420e-01   1.1175560436356162e-01   1.1175451430592694e-01   1.1176229252318486e-01   1.1173992325975880e-01   1.1174530567641106e-01   1.1170675763712963e-01   1.1174082398130350e-01   1.1176629784823698e-01   1.1176500814636026e-01   1.1175611228547706e-01   1.1176751206920570e-01   1.1175678031542925e-01   1.1175501676559338e-01   1.1174082694766382e-01   1.1174439946473140e-01   1.1174008979623062e-01   1.1172586280853218e-01   1.1170691987385975e-01   1.1173933039660930e-01   1.1171520880834190e-01   1.1170763267291650e-01   1.1167116713496095e-01   1.1167895725611565e-01   1.1173612207135170e-01   1.1170622972058046e-01   1.1169546400598185e-01   1.1170997687290216e-01   1.1176983948389679e-01   1.1175769178436953e-01   1.1175873051841446e-01   1.1176472663063075e-01   1.1174204226420044e-01   1.1176007152000750e-01   1.1171123716545614e-01   1.1174415356719988e-01   1.1175353509713996e-01   1.1170859506766136e-01   1.1172179991804521e-01   1.1173111773744501e-01   1.1176816905207215e-01   1.1171690299456304e-01   1.1173849206723341e-01   1.1174370880325066e-01   1.1178829701321388e-01   1.1178875108139190e-01   1.1178821558072199e-01   1.1178789412138534e-01   1.1178748978197656e-01   1.1178801729992295e-01   1.1178811237090923e-01   1.1178873951982221e-01   1.1178688284732928e-01   1.1178652983108089e-01   1.1178604851869781e-01   1.1178693837950594e-01   1.1178753907805210e-01   1.1178893935994152e-01   1.1178859371361670e-01   1.1178666877581780e-01   1.1178556980768382e-01   1.1178628025048765e-01   1.1178596814837634e-01   1.1178691758193153e-01   1.1178694651017677e-01   1.1178718188433116e-01   1.1178734706029139e-01   1.1178748919294876e-01   1.1178626393504511e-01   1.1178757943144842e-01   1.1178531334545827e-01   1.1178677219619021e-01   1.1178849523571598e-01   1.1178868065979289e-01   1.1178809059435646e-01   1.1178860289357351e-01   1.1178510820507502e-01   1.1178462193118027e-01   1.1178431098815690e-01   1.1178550217639519e-01   1.1178409407865812e-01   1.1178510826427823e-01   1.1178414040807327e-01   1.1178512040908226e-01   1.1178319489933873e-01   1.1178249642693266e-01   1.1178268994214161e-01   1.1178368362516342e-01   1.1178663128311737e-01   1.1178487504286315e-01   1.1178501662300055e-01   1.1178565078640894e-01   1.1178549860553276e-01   1.1178911135819328e-01   1.1178901587823090e-01   1.1178296334695551e-01   1.1178930887212547e-01   1.1178609163463649e-01   1.1178225034517719e-01   1.1178335179518965e-01   1.1178825223393091e-01   1.1178599692335565e-01   1.1178571256898949e-01   1.1178588924570097e-01   1.1178680921762203e-01   1.1180847443504538e-01   1.1180081274508462e-01   1.1167904598718539e-01   1.1178822376359791e-01   1.1178181249462597e-01   1.1178941847815047e-01   1.1178530719531934e-01   1.1178021697554137e-01   1.1178508656238809e-01   1.1178030799391223e-01   1.1178073897942933e-01   1.1178911421111011e-01   1.1177930495604053e-01   1.1178898335196742e-01   1.1178466198858232e-01   1.1178678140999185e-01   1.1178293850627812e-01   1.1178729342283014e-01   1.1178759983720978e-01   1.1177824296866648e-01   1.1178424436020447e-01   1.1177865423031898e-01   1.1177952695728800e-01   1.1178634759877844e-01   1.1178232045257400e-01   1.1178774138582653e-01   1.1178705021091383e-01   1.1178249183193631e-01   1.1178898009734320e-01   1.1178302248318339e-01   1.1178546993929304e-01   1.1178283024535882e-01   1.1178839632497548e-01   1.1178521357061867e-01   1.1178507235683795e-01   1.1178878075005808e-01   1.1177699273165188e-01   1.1178780801805074e-01   1.1178313821250153e-01   1.1177665488708415e-01   1.1178456173042255e-01   1.1177452401730485e-01   1.1177853383323096e-01   1.1178985244989374e-01   1.1177144406251503e-01   1.1177440972360687e-01   1.1177189860859255e-01   1.1178770614042764e-01   1.1177932879110479e-01   1.1177733574239684e-01   1.1178033123965377e-01   1.1178896654694162e-01   1.1178753791672019e-01   1.1178962566512431e-01   1.1179012606164279e-01   1.1178830614912813e-01   1.1179217960534829e-01   1.1178931687648962e-01   1.1179033788814863e-01   1.1179053140210453e-01   1.1178633473593835e-01   1.1178349604333505e-01   1.1178625517348217e-01   1.1179252063428563e-01   1.1179157957172481e-01   1.1178902122460789e-01   1.1179038646858035e-01   1.1179225734755791e-01   1.1178123915034861e-01   1.1179366041650744e-01   1.1178299247276867e-01   1.1177935009759489e-01   1.1178749208173325e-01   1.1178211083107946e-01   1.1178075630607495e-01   1.1178670382634390e-01   1.1178233267505140e-01   1.1178683872157401e-01   1.1178686195798723e-01   1.1178688211040723e-01   1.1178189741863051e-01   1.1178696550771666e-01   1.1178624461882744e-01   1.1178286925392576e-01   1.1178590719913901e-01   1.1178312804974239e-01   1.1178261044504725e-01   1.1178500889502740e-01   1.1178302259802400e-01   1.1178509628848786e-01   1.1178602004216609e-01   1.1178293338550553e-01   1.1178363529349947e-01   1.1178237174526404e-01   1.1178293046876889e-01   1.1178272635