<?xml version="1.0"?>
<VTKFile type="UnstructuredGrid"  version="0.1"  >
<UnstructuredGrid>
<Piece  NumberOfPoints="4153" NumberOfCells="8064">
<Points>
<DataArray  type="Float64"  NumberOfComponents="3"  format="ascii">-0.410268752874238 -0.5141607647060427 0  -0.03361971556130505 -0.5765307192875234 0  -0.08166024047628093 -0.5754743585679711 0  -0.1295188604751051 -0.5722874930828957 0  -0.1771482530803959 -0.5673737330823057 0  -0.2247222025754275 -0.5612184574239271 0  -0.2719892235698427 -0.5520291895598235 0  -0.3187100736469087 -0.5407950571030919 0  -0.3648311995194642 -0.5280842370872577 0  0.01447343547710881 -0.5752642660745506 0  -0.4552472773822557 -0.500724670677841 0  -0.4998488785614401 -0.4873065527786051 0  -0.5441152488276088 -0.4741697882102199 0  -0.5880770839522347 -0.4616581881922258 0  -0.631820678644582 -0.4498880776932053 0  -0.6753123934719968 -0.4389552372035682 0  -0.7185837451440115 -0.4293323380854144 0  0.7202475704630048 -0.4331496084730834 0  0.06246934075435216 -0.571740862020515 0  0.1102284690780818 -0.5661171778269205 0  0.1576301784694595 -0.5586546945634571 0  0.2045858104741866 -0.5496915815717784 0  0.2510746667082989 -0.5397357066379536 0  0.297131022358323 -0.5291022181952998 0  0.342792301581901 -0.5180399871362736 0  0.3881006587918368 -0.5068416200471851 0  0.4331187494371094 -0.4956355994465043 0  0.4778889277595204 -0.4845781534162113 0  0.5224404438045795 -0.4737607433128019 0  0.5667919734756799 -0.4633789323833998 0  0.610944501302929 -0.4534236020167383 0  0.6548907919658334 -0.4441796531080441 0  0.6986450622291969 -0.4359919056197348 0  0.6767438074709584 -0.4400808151628324 0  -0.696905411991934 -0.4341584678838566 0  -0.6099803624940918 -0.4556997093556659 0  -0.5220191810849442 -0.4806996357346362 0  -0.4328061528500649 -0.507470912912123 0  -0.3418491811119799 -0.5345711193379408 0  -0.2484154803350529 -0.5569049898623655 0  -0.1533596844426498 -0.570025969172962 0  -0.05765617264492787 -0.5762862748896587 0  0.6329399595748217 -0.4487294690133103 0  0.13398028017017 -0.5625961053758316 0  0.2278861100948106 -0.5448156023356387 0  0.3200072898058252 -0.5236183573430362 0  0.4106434681545784 -0.5012258474696644 0  0.5001896315689929 -0.4791409790160403 0  0.588894226931126 -0.4583268299797749 0  0.03849239106330062 -0.5737769921738085 0  -0.7398630390724601 -0.4257911210261058 0  0.544632708416987 -0.4685106036172665 0  0.4555325178352747 -0.490083942636953 0  0.3654819316526164 -0.5124376458882931 0  0.2741546255577288 -0.5344882081330584 0  0.1811688711051414 -0.554329644953639 0  0.08638676833626546 -0.5691775148941781 0  -0.009569775633591383 -0.5761896019495002 0  -0.1056176880042297 -0.5741279527468564 0  -0.200907408826105 -0.5646087200819495 0  -0.2954223994689431 -0.5466249881910545 0  -0.3876733237887841 -0.521151528403631 0  -0.4775918233579617 -0.4939961697354547 0  -0.5661231452709066 -0.4677931091252073 0  -0.653590361615215 -0.4443447153563575 0  0.8932626638945269 -0.2448171374082925 0  0.7872675361021803 -0.4147907043220657 0  0.8442660025306232 -0.3736085863950557 0  0.8814941133990221 -0.3142126170174153 0  0.7539327953852079 -0.424243270131678 0  0.8162992318574167 -0.3949565788069755 0  0.862096246139731 -0.3433332031528959 0  0.8869096978633172 -0.2792827763665089 0  0.7372286344381548 -0.4293834609588681 0  0.7705313756263483 -0.4192243310338135 0  0.8018168749603607 -0.4050198341663653 0  0.8299274438047979 -0.3837026378993835 0  0.8537775756860154 -0.3587922751447883 0  0.8714911844238293 -0.3286960753894659 0  0.8839390217068661 -0.2966415980612728 0  0.8897986485818536 -0.2619948861069198 0  0.8928965736695763 -0.2223240610482955 0  0.8984304298150955 0.27231323130465 0  0.8977276856176353 0.2276187771696176 0  0.8979482432043815 0.1829101188280685 0  0.8986441844673824 0.1380783037427751 0  0.8996236538798876 0.09302388831127568 0  0.8998689371744135 0.047768220595303 0  0.8993898347991862 0.002455385600334769 0  0.8981853654892129 -0.04282448259387521 0  0.8962427134093579 -0.08792496504637452 0  0.8945447487169712 -0.132821753236299 0  0.8932825034892671 -0.1775942225627684 0  0.8993434793648026 0.294817142813708 0  0.8979271611020888 0.2499585574784189 0  0.8982551045131453 0.160514715748579 0  0.8998389182308235 0.07040930069731149 0  0.8988804984619302 -0.02019493232069213 0  0.8953573540651717 -0.1103926909627441 0  0.8929443257313097 -0.199958005026637 0  0.897766483102183 0.2052744041146437 0  0.8991630254195078 0.1155937477224095 0  0.8997170806465241 0.02511337806704791 0  0.8972459194638237 -0.06541412157618696 0  0.893846558202696 -0.1552196463900435 0  0.7316279686296081 0.4864064732735671 0  0.8891446841374758 0.3644649801875733 0  0.8532802988885304 0.424472230600159 0  0.7975931390182279 0.4668290050031538 0  0.8938362381062001 0.3293849956344489 0  0.8705120338736538 0.3939042552772716 0  0.8260716039462671 0.4464577655098703 0  0.7648290164367194 0.4770662868085539 0  0.8963108874650374 0.3120395773965943 0  0.891241561595824 0.3468143885544395 0  0.8795324848326862 0.3791007816402023 0  0.8625157188747858 0.4095116883472795 0  0.8393307849215228 0.4348719225257293 0  0.811867975265959 0.4567775388164659 0  0.7811542703180353 0.4716812746907804 0  0.748381115332165 0.4825231233946027 0  -0.03097166007687515 0.6840515503520073 0  0.6674710857463785 0.5008634355362093 0  0.6241927061491683 0.5127612120502673 0  0.5806299660503974 0.5256000098191527 0  0.536806350332919 0.5393045314748418 0  0.4926483067425779 0.5537401973916192 0  0.4481155228566123 0.568676227713323 0  0.4031516472372469 0.5839566043802001 0  0.3576827368977585 0.5994733140450625 0  0.3115918763870818 0.6148530773137262 0  0.2648194024404362 0.6297635983422224 0  0.2173032637709556 0.6438459722311184 0  0.1689786101598906 0.6567241759497389 0  0.1198545520219979 0.6675641284567168 0  0.07005003111360161 0.6759483110225759 0  0.01972877976277402 0.6814700743071419 0  0.7105049870233063 0.4903773517484848 0  -0.08173520458913569 0.6824609399034461 0  -0.1321520773097278 0.6770444902325112 0  -0.1819037606138552 0.6680725391576252 0  -0.2306343150990683 0.6556702246834993 0  -0.2783952051868399 0.6421219025358887 0  -0.3253600584077727 0.6275289187618913 0  -0.3715972798793428 0.61220769843501 0  -0.4171430494818959 0.5964504676649554 0  -0.4621568423293049 0.5809833096094876 0  -0.506728472806441 0.5658080986660586 0  -0.5509185618632096 0.5510893697880457 0  -0.5947724777426234 0.5369930404262895 0  -0.6383129115611905 0.5236817740724293 0  -0.6815680906368963 0.5114270476964144 0  -0.7245836621435815 0.5006536119543046 0  -0.7457467675438365 0.4966183574280659 0  -0.7030428777470705 0.5060181698818084 0  -0.6165796468029329 0.5302249533489061 0  -0.5288681095416492 0.5583826724904785 0  -0.4397096514063183 0.5886958486830964 0  -0.3485658063046201 0.6199380391806864 0  -0.2546203800474505 0.6490599759875693 0  -0.1571309300805445 0.6729554736285448 0  -0.05637227830633289 0.6837270452682256 0  0.04494296606070459 0.6790986212584662 0  0.1445107805213636 0.6624135618337603 0  0.2411568277684796 0.6369335372855692 0  0.3347173166491192 0.6072058852765021 0  0.425690981228741 0.5762835751765124 0  0.5147696617719758 0.5464552682496395 0  0.6024467911713065 0.5190909281489845 0  0.6889445321079222 0.4956286778344254 0  -0.6599696968153316 0.5174490147734935 0  -0.5728844649712271 0.5439573793439473 0  -0.4844935965327293 0.5733482651217864 0  -0.3944588758255103 0.6043233790512597 0  -0.3019723603418392 0.6349362156474836 0  -0.2064471911208436 0.6621700045494682 0  -0.1070079952559689 0.6802135587758025 0  -0.005561292713398874 0.6832221992835235 0  0.0950282410865709 0.6720909193799128 0  0.1932536190523399 0.6504970959195523 0  0.2882947513469151 0.6223885799974818 0  0.3804897908188317 0.5916970369981809 0  0.470431561232932 0.5611564065314214 0  0.5587530066397265 0.5323298160730124 0  0.6458602438760009 0.5067273795207301 0  -0.9129416230811112 0.3034885533161376 0  -0.8115401060044712 0.4762094967988814 0  -0.8670350995427003 0.4334501069485751 0  -0.9027088176430547 0.373215637860367 0  -0.7788474523180302 0.4867216276724073 0  -0.8398784734130901 0.4555601418718302 0  -0.8840995767101508 0.4027025023557267 0  -0.9073543510848272 0.3380793135422708 0  -0.7624443110515395 0.492400195613798 0  -0.7951319716942766 0.4811675660741427 0  -0.8257478392500728 0.4660109577033998 0  -0.853104652859981 0.4439009186568086 0  -0.8761903184664466 0.4183960909563966 0  -0.8930950742564492 0.3878672748205857 0  -0.9047653495128855 0.3555305697822675 0  -0.9098487544569176 0.3207188577916377 0  -0.9120982128737135 0.2809621335971441 0  -0.9094876513165923 -0.2137726098397746 0  -0.9094870084670822 -0.1690768994015387 0  -0.9103958868219758 -0.1243394017809425 0  -0.9117602412935063 -0.07946727120853957 0  -0.913377252899967 -0.03437834461129645 0  -0.9142801151726992 0.01089994020116337 0  -0.9144908950665482 0.05622216097771509 0  -0.9140172724073655 0.1014980714307358 0  -0.9128588772260539 0.146587593516135 0  -0.9119644945521843 0.1914661362517558 0  -0.9115517527197182 0.2362225342398602 0  -0.9100956881864795 -0.2362520848262714 0  -0.9093373767635632 -0.1914218728748958 0  -0.9110403331470032 -0.1019242978913065 0  -0.9139172728244446 -0.01175096423283353 0  -0.9143413109471944 0.07887196095952759 0  -0.9123713018146243 0.1690468382239036 0  -0.9116661289963645 0.2585852883741333 0  -0.9098702954992565 -0.1467206231357124 0  -0.9125992937227118 -0.05696366659618086 0  -0.9144688166832091 0.03356124788321019 0  -0.9134657756601966 0.1240824088678341 0  -0.911684502076492 0.2138544632933401 0  -0.8990450728439058 -0.3057233452530386 0  -0.8624902654487919 -0.3653556789993461 0  -0.8062397524846527 -0.4070765578482217 0  -0.9041675668665412 -0.2707568332780048 0  -0.8800878993878318 -0.335013220792689 0  -0.834930933556588 -0.3869877257491752 0  -0.7732215078377329 -0.4168357361922724 0  -0.9068757587859789 -0.2534508465952058 0  -0.901361797166287
[...]
<CellData  Scalars="f_2784"> 
<DataArray  type="Float64"  Name="f_2784"  format="ascii">1.1177314719961250e-01   1.1177301463336702e-01   1.1177143988830192e-01   1.1177246759683605e-01   1.1177246057720974e-01   1.1177135857520309e-01   1.1177313301667799e-01   1.1177362146482987e-01   1.1177034108337441e-01   1.1177232452630392e-01   1.1176952115497184e-01   1.1177018665333231e-01   1.1177307334854730e-01   1.1177426216299172e-01   1.1177218717324044e-01   1.1177335385213202e-01   1.1177234774016846e-01   1.1176934939380018e-01   1.1177288289168562e-01   1.1177290242970375e-01   1.1177040457657920e-01   1.1177370096579627e-01   1.1177172037464661e-01   1.1177125079046939e-01   1.1177420583072463e-01   1.1177239150742212e-01   1.1177326001535823e-01   1.1177461544933820e-01   1.1177395024534362e-01   1.1177284089752697e-01   1.1177442503050217e-01   1.1177473947801680e-01   1.1176902870554753e-01   1.1177289881188469e-01   1.1176821564809643e-01   1.1176865260274445e-01   1.1177313323506310e-01   1.1176955034524623e-01   1.1177226381617901e-01   1.1177388310538974e-01   1.1177115241758663e-01   1.1177627071173260e-01   1.1176087618668556e-01   1.1176540009185543e-01   1.1177135495627646e-01   1.1177324026713058e-01   1.1176600520916298e-01   1.1176722392483146e-01   1.1177366758187131e-01   1.1177493060642146e-01   1.1177320592570331e-01   1.1177368362486728e-01   1.1177510510812211e-01   1.1177468890405863e-01   1.1177380099158744e-01   1.1177538762814647e-01   1.1177343950881728e-01   1.1177346059534959e-01   1.1176824182047906e-01   1.1176919623112958e-01   1.1177458699754363e-01   1.1177357389188315e-01   1.1177041918288265e-01   1.1176960805621373e-01   1.1179479550593271e-01   1.1178416674605617e-01   1.1178217229499274e-01   1.1179783607681469e-01   1.1177736935363297e-01   1.1178293103050528e-01   1.1177466549001401e-01   1.1178164710968809e-01   1.1178168376183964e-01   1.1177543424368533e-01   1.1177794083540453e-01   1.1178360036695680e-01   1.1179553720819753e-01   1.1177780313960084e-01   1.1177842794525314e-01   1.1179441702485285e-01   1.1177279006892758e-01   1.1178124353919681e-01   1.1177053720758709e-01   1.1177327148582029e-01   1.1177518223829851e-01   1.1176776864591842e-01   1.1177476673933257e-01   1.1177943354342383e-01   1.1176684715199131e-01   1.1177679099610147e-01   1.1175437230645439e-01   1.1176399975880373e-01   1.1176962230302773e-01   1.1177485626922354e-01   1.1176360860801532e-01   1.1177331617069328e-01   1.1177502070319796e-01   1.1177004149142769e-01   1.1177082912534940e-01   1.1177820991050771e-01   1.1176979075884384e-01   1.1178096715100849e-01   1.1176304595346537e-01   1.1177001974414046e-01   1.1177111197652408e-01   1.1175885385742007e-01   1.1175588158806854e-01   1.1175728894389511e-01   1.1177773551230338e-01   1.1175818897988375e-01   1.1175384753870585e-01   1.1175073577466045e-01   1.1179324086761211e-01   1.1176707713830877e-01   1.1176858074118244e-01   1.1179010614400717e-01   1.1175792224709573e-01   1.1176975743075003e-01   1.1174277541612539e-01   1.1176277281067638e-01   1.1177582099134925e-01   1.1174883031045404e-01   1.1174637539070154e-01   1.1174356621438056e-01   1.1179442628690764e-01   1.1173606378231006e-01   1.1172782797357229e-01   1.1177398640713478e-01   1.1171993217406305e-01   1.1174750958822123e-01   1.1173339775688317e-01   1.1176038396889586e-01   1.1175139213888798e-01   1.1176913775161676e-01   1.1176429197839165e-01   1.1176097495035806e-01   1.1173524516471954e-01   1.1175106871472612e-01   1.1173762553589028e-01   1.1176937198398733e-01   1.1175545548739549e-01   1.1176176760459519e-01   1.1176460971554973e-01   1.1175957237357380e-01   1.1175297826584840e-01   1.1177159407290518e-01   1.1176574442510133e-01   1.1176461538845406e-01   1.1176650440919871e-01   1.1176459373460190e-01   1.1176738387163336e-01   1.1176463206460796e-01   1.1176568830625157e-01   1.1176922682055879e-01   1.1176717423212461e-01   1.1176701236906061e-01   1.1176436385967865e-01   1.1176750973276835e-01   1.1176677383373301e-01   1.1176437021174242e-01   1.1174056048147279e-01   1.1175461937969909e-01   1.1174387430741503e-01   1.1177315064585144e-01   1.1175750522085198e-01   1.1177523593341927e-01   1.1176777130184427e-01   1.1176699535200534e-01   1.1174638968023440e-01   1.1175748016727102e-01   1.1174924023015947e-01   1.1177481666209277e-01   1.1176834916586446e-01   1.1176603301581449e-01   1.1176793194690259e-01   1.1176869602609082e-01   1.1176162198981263e-01   1.1176629458250582e-01   1.1176872233443677e-01   1.1176381342575892e-01   1.1176851908319443e-01   1.1177040999977077e-01   1.1176987516430635e-01   1.1176834078346065e-01   1.1176876259359647e-01   1.1176809835017711e-01   1.1176854449050753e-01   1.1176887026244103e-01   1.1176557698000524e-01   1.1176896271033808e-01   1.1177050636687180e-01   1.1176915614283423e-01   1.1170276800196272e-01   1.1175775344475172e-01   1.1173877537121386e-01   1.1172127493769145e-01   1.1177067298665530e-01   1.1175696556183119e-01   1.1177650813995695e-01   1.1176519672497799e-01   1.1174655985218833e-01   1.1177292957310644e-01   1.1175910478655188e-01   1.1175947143390365e-01   1.1173493276472933e-01   1.1177089822117635e-01   1.1176542700133560e-01   1.1174723117216982e-01   1.1177655430762590e-01   1.1176725382051231e-01   1.1178056361295195e-01   1.1177763686862038e-01   1.1177368620903874e-01   1.1178166419924900e-01   1.1177352141667966e-01   1.1176755549945858e-01   1.1178471716030809e-01   1.1177969908701797e-01   1.1178659668666174e-01   1.1178542015741461e-01   1.1178035016391408e-01   1.1177242459396899e-01   1.1178380373029152e-01   1.1177539253765431e-01   1.1176775547021839e-01   1.1177972701059277e-01   1.1177442618792512e-01   1.1177258594443368e-01   1.1178289532826222e-01   1.1177839709789461e-01   1.1178462323595589e-01   1.1178335519591188e-01   1.1178091625820072e-01   1.1178412152675256e-01   1.1178151348902826e-01   1.1177773668600310e-01   1.1177922866518507e-01   1.1178566771330875e-01   1.1177882153088828e-01   1.1177881314908178e-01   1.1175628363084401e-01   1.1177947674074477e-01   1.1177749561944693e-01   1.1176331706937850e-01   1.1178719303335187e-01   1.1178279293793315e-01   1.1178852932241171e-01   1.1178324540301524e-01   1.1177952470798545e-01   1.1178715497753043e-01   1.1177922084975449e-01   1.1177890378951376e-01   1.1177064274027776e-01   1.1178547305451347e-01   1.1178163288289002e-01   1.1177099907730824e-01   1.1177814821981827e-01   1.1179177464729166e-01   1.1179521373244657e-01   1.1178675205408585e-01   1.1179765652201630e-01   1.1179353445012807e-01   1.1179614170742279e-01   1.1180421467313675e-01   1.1179164172306527e-01   1.1179566538985548e-01   1.1179034715347161e-01   1.1179308242393987e-01   1.1179482516749320e-01   1.1178783920835131e-01   1.1179296520871368e-01   1.1178490078808305e-01   1.1179367048060299e-01   1.1179257073317925e-01   1.1179391049104397e-01   1.1179531819250539e-01   1.1179154419999203e-01   1.1179416619205323e-01   1.1179118007201831e-01   1.1179162420426648e-01   1.1179287197349187e-01   1.1179129476984177e-01   1.1179246335453788e-01   1.1179344364532663e-01   1.1179603403832900e-01   1.1179299498200468e-01   1.1179520169833240e-01   1.1180041892218463e-01   1.1178840849538385e-01   1.1179153573634296e-01   1.1178646346046085e-01   1.1179166897214024e-01   1.1178936408141436e-01   1.1179041739639130e-01   1.1179033231709805e-01   1.1179204789485560e-01   1.1178347636406449e-01   1.1178640316526793e-01   1.1178310787198048e-01   1.1178976850581815e-01   1.1179052277634481e-01   1.1179142389268878e-01   1.1179021379048616e-01   1.1179148275742462e-01   1.1178385075289432e-01   1.1178551588701949e-01   1.1179200739932685e-01   1.1178727567576524e-01   1.1179395849107451e-01   1.1179088413220541e-01   1.1179354016185750e-01   1.1180062793132796e-01   1.1179084342179746e-01   1.1179315047169137e-01   1.1179205092484035e-01   1.1179119667134133e-01   1.1177663383884769e-01   1.1178687392003536e-01   1.1179534621311216e-01   1.1175780271550156e-01   1.1176973323670096e-01   1.1176981488021846e-01   1.1176881762982845e-01   1.1176862533036651e-01   1.1177084732398571e-01   1.1176937082700497e-01   1.1177068657949112e-01   1.1177032020258935e-01   1.1176991752368264e-01   1.1177210826248642e-01   1.1177173090223870e-01   1.1177073507493120e-01   1.1176993003008931e-01   1.1176963469048597e-01   1.1177000359995098e-01   1.1177002361223087e-01   1.1177382002113127e-01   1.1177262346277807e-01   1.1177388839293285e-01   1.1177210788352600e-01   1.1177317331337677e-01   1.1177181306990046e-01   1.1177161009944486e-01   1.1177157873303364e-01   1.1177425515182995e-01   1.1177486763962452e-01   1.1177178812047656e-01   1.1177169403737429e-01   1.1177038537153426e-01   1.1177032753551640e-01   1.1176953713445152e-01   1.1176884506685877e-01   1.1177405209250439e-01   1.1177593050562548e-01   1.1177648810227003e-01   1.1177469755329972e-01   1.1177884455816786e-01   1.1177852524079850e-01   1.1177750069517277e-01   1.1177659944495373e-01   1.1178046838876141e-01   1.1177990888099933e-01   1.1177878820303518e-01   1.1177598579923317e-01   1.1177674944500854e-01   1.1177478466813717e-01   1.1177355360693840e-01   1.1177088426908181e-01   1.1176989732196885e-01   1.1176737802073709e-01   1.1176987373687920e-01   1.1176893162578250e-01   1.1176885717687279e-01   1.1177091548191445e-01   1.1176487110251657e-01   1.1176620617671636e-01   1.1177296748830903e-01   1.1176847937412218e-01   1.1176807724672760e-01   1.1176513645114709e-01   1.1176909069509841e-01   1.1176044838200108e-01   1.1176179269393471e-01   1.1175981867866083e-01   1.1176263836254974e-01   1.1175991044608295e-01   1.1177262322150119e-01   1.1176365951892060e-01   1.1176705415751109e-01   1.1177249735769500e-01   1.1176707403592108e-01   1.1176081457533059e-01   1.1177436333244942e-01   1.1177080998304056e-01   1.1177711748787861e-01   1.1177387664784651e-01   1.1176454861785302e-01   1.1176178999663672e-01   1.1177242716583718e-01   1.1176514816020928e-01   1.1177425979687351e-01   1.1177625479782836e-01   1.1177345578945697e-01   1.1177040777909647e-01   1.1177539941762225e-01   1.1177013325028945e-01   1.1177286740130334e-01   1.1177345766689695e-01   1.1177276555707763e-01   1.1177445518559326e-01   1.1177198279803070e-01   1.1176994005260785e-01   1.1176730719826831e-01   1.1177220522553113e-01   1.1176760670472438e-01   1.1176286748370726e-01   1.1177917301910469e-01   1.1177701842352966e-01   1.1178086871659226e-01   1.1177797539611704e-01   1.1177908071992119e-01   1.1177942333634269e-01   1.1177755271662841e-01   1.1177591375890115e-01   1.1178260875740213e-01   1.1178165379637142e-01   1.1178227979759979e-01   1.1178063517103591e-01   1.1177681628880540e-01   1.1177474171576919e-01   1.1177757721316861e-01   1.1177514543520203e-01   1.1176561531979599e-01   1.1176384534145223e-01   1.1177185429687998e-01   1.1176613373432379e-01   1.1176790699097404e-01   1.1177165914910581e-01   1.1176831122887723e-01   1.1176526812919890e-01   1.1177225012691264e-01   1.1176963166254816e-01   1.1177304277065273e-01   1.1177117526566450e-01   1.1176584126909329e-01   1.1176479113586119e-01   1.1177067531019895e-01   1.1176875343236881e-01   1.1178556776945409e-01   1.1178526251688801e-01   1.1178080991206753e-01   1.1177881222410535e-01   1.1178328234806049e-01   1.1177544105085696e-01   1.1178138697210332e-01   1.1178431841276339e-01   1.1177908107025837e-01   1.1178166731448209e-01   1.1177772881707253e-01   1.1177346520955075e-01   1.1178127920992417e-01   1.1178445302261399e-01   1.1177697879482695e-01   1.1178146978680852e-01   1.1177963119732647e-01   1.1177131431346431e-01   1.1177724953823737e-01   1.1177938121731373e-01   1.1177380747869051e-01   1.1177975688577049e-01   1.1177565928495546e-01   1.1177555887337343e-01   1.1177772364569678e-01   1.1177392203071133e-01   1.1177750037191145e-01   1.1177927853109645e-01   1.1178165467040280e-01   1.1177683617030174e-01   1.1178113977736608e-01   1.1178419590478171e-01   1.1177672533078394e-01   1.1177817621657000e-01   1.1177566198216751e-01   1.1176986258730638e-01   1.1177541972836191e-01   1.1176834658139533e-01   1.1177355825446793e-01   1.1177552210587895e-01   1.1177690252898058e-01   1.1177820459354665e-01   1.1177212283401178e-01   1.1176922303239457e-01   1.1177251123433099e-01   1.1177628836544937e-01   1.1177225703777885e-01   1.1177337649230372e-01   1.1178193190030647e-01   1.1178381371583361e-01   1.1177687480619490e-01   1.1178206770338572e-01   1.1178056172157309e-01   1.1177646447382787e-01   1.1177969731740875e-01   1.1178294183074923e-01   1.1177587565624675e-01   1.1177891432155694e-01   1.1177478473325360e-01   1.1177621851256919e-01   1.1178230752510095e-01   1.1178293534578589e-01   1.1177659514720294e-01   1.1178043670104226e-01   1.1169795831078257e-01   1.1172457643714126e-01   1.1172014204483730e-01   1.1174750269131603e-01   1.1174154936489025e-01   1.1177300663070583e-01   1.1175765572492830e-01   1.1174403862800035e-01   1.1172475251585745e-01   1.1174515063909353e-01   1.1173146277941332e-01   1.1176998993169815e-01   1.1174357103158779e-01   1.1174897867898864e-01   1.1176896116538258e-01   1.1175375383696404e-01   1.1175058065260804e-01   1.1177254569061335e-01   1.1176365247406420e-01   1.1176025300045922e-01   1.1176877419223280e-01   1.1176188354402980e-01   1.1177239196506851e-01   1.1176670401620328e-01   1.1176540859287014e-01   1.1177559118543665e-01   1.1176671099854633e-01   1.1176686472532908e-01   1.1175993986175163e-01   1.1177523463813056e-01   1.1176507707912142e-01   1.1175564184556563e-01   1.1173660277506403e-01   1.1175428879193607e-01   1.1174069272156742e-01   1.1177331305574884e-01   1.1175847250242434e-01   1.1177632945340851e-01   1.1176626618129823e-01   1.1176678311967346e-01   1.1174562772275097e-01   1.1175687006646061e-01   1.1174302677208256e-01   1.1176795017408166e-01   1.1177164851032187e-01   1.1176490817680328e-01   1.1176439282603190e-01   1.1176849605319435e-01   1.1175933424739372e-01   1.1176133656104081e-01   1.1177815756367630e-01   1.1176460925061889e-01   1.1176959226207882e-01   1.1178267029245630e-01   1.1177188903336700e-01   1.1176711231448826e-01   1.1177697463254833e-01   1.1176824434413300e-01   1.1177129903026425e-01   1.1177397700403359e-01   1.1176978724405705e-01   1.1176830870735517e-01   1.1177911098014676e-01   1.1177640357153261e-01   1.1178205196859141e-01   1.1178604523140470e-01   1.1177697031024510e-01   1.1177839876750052e-01   1.1178226350647079e-01   1.1177202434876887e-01   1.1177830921571597e-01   1.1178323051715852e-01   1.1177152064516184e-01   1.1177764323300603e-01   1.1176462074041692e-01   1.1176544121926800e-01   1.1177382356622732e-01   1.1177938013842369e-01   1.1176583138109163e-01   1.1176806285621239e-01   1.1177199359740371e-01   1.1175740639584907e-01   1.1176587856127154e-01   1.1177276172138555e-01   1.1174923596527367e-01   1.1176657118202941e-01   1.1174977699098447e-01   1.1175818331469099e-01   1.1175829676372244e-01   1.1174104452781748e-01   1.1174913759148251e-01   1.1175898523515211e-01   1.1177332755959550e-01   1.1175830429363511e-01   1.1176706800482356e-01   1.1177449898036608e-01   1.1175626790248962e-01   1.1176493301543011e-01   1.1174627324344766e-01   1.1174804658173791e-01   1.1175738918347737e-01   1.1173774118807116e-01   1.1174813943917480e-01   1.1175757916103340e-01   1.1173212640670992e-01   1.1174498074688068e-01   1.1171925984713903e-01   1.1172442066834502e-01   1.1174015833011607e-01   1.1174852098952508e-01   1.1173129682358549e-01   1.1173426780087320e-01   1.1176083918389493e-01   1.1176845949177242e-01   1.1174909643633563e-01   1.1175133730439200e-01   1.1175947727575146e-01   1.1173754075909482e-01   1.1175028721328732e-01   1.1176092023854360e-01   1.1174036287486426e-01   1.1174981504163399e-01   1.1173349718891760e-01   1.1172945117756533e-01   1.1173894669934832e-01   1.1175276564228652e-01   1.1172145780350100e-01   1.1171682436340714e-01   1.1179265553401307e-01   1.1178992933551259e-01   1.1179626548184395e-01   1.1179206230776391e-01   1.1178798753582662e-01   1.1179143527904194e-01   1.1178905858118919e-01   1.1178907165325279e-01   1.1179489879493842e-01   1.1178814220249499e-01   1.1179438974950588e-01   1.1179107969354740e-01   1.1179513414781636e-01   1.1179193593093231e-01   1.1179461579309193e-01   1.1179657803966081e-01   1.1178766918088731e-01   1.1179036146536747e-01   1.1178831235118207e-01   1.1178863521313814e-01   1.1179340865153138e-01   1.1179100641977407e-01   1.1179525145486970e-01   1.1179403119706799e-01   1.1179028635795514e-01   1.1179383220037400e-01   1.1179236293579133e-01   1.1179217460519328e-01   1.1179142121463698e-01   1.1179576503671176e-01   1.1179301405692821e-01   1.1179371117688169e-01   1.1179344944587950e-01   1.1178734432985617e-01   1.1179269082166664e-01   1.1178975203412725e-01   1.1178679557474130e-01   1.1178812877839826e-01   1.1178866117956912e-01   1.1178766234161920e-01   1.1179049023768826e-01   1.1178764379095622e-01   1.1179395229558166e-01   1.1179149699327132e-01   1.1179187679001427e-01   1.1179087504448380e-01   1.1179461018265408e-01   1.1179590414196090e-01   1.1179812357371124e-01   1.1179534491867224e-01   1.1179720170732552e-01   1.1179944354965911e-01   1.1179417621412865e-01   1.1179803783977121e-01   1.1179463693784977e-01   1.1179649829394822e-01   1.1179612787036067e-01   1.1179390457454755e-01   1.1179740178194429e-01   1.1179840758097916e-01   1.1179889732128184e-01   1.1179761761719464e-01   1.1180198381490289e-01   1.1180409916698605e-01   1.1177886215010220e-01   1.1177637495174883e-01   1.1177862123180997e-01   1.1177533181079347e-01   1.1177471658632826e-01   1.1177385344974317e-01   1.1177340374394870e-01   1.1177394232957825e-01   1.1177897880071787e-01   1.1177447244970511e-01   1.1177919721497115e-01   1.1177449170418895e-01   1.1177599113980351e-01   1.1177462291438298e-01   1.1177525869790325e-01   1.1177631268751641e-01   1.1177402941500923e-01   1.1177487901794046e-01   1.1177291292917817e-01   1.1177328941220172e-01   1.1177648640455491e-01   1.1177431516147886e-01   1.1177676203111697e-01   1.1177633340435084e-01   1.1177509859047179e-01   1.1177976178443566e-01   1.1177361394490644e-01   1.1177614875822676e-01   1.1177423592968823e-01   1.1177594793086729e-01   1.1177498810362134e-01   1.1177515588277194e-01   1.1177964326576677e-01   1.1177340229755788e-01   1.1177945336484213e-01   1.1177472036679637e-01   1.1177375165909818e-01   1.1177745462305641e-01   1.1177003547743307e-01   1.1177336726846500e-01   1.1178249445308609e-01   1.1176890232018982e-01   1.1176879000018951e-01   1.1176595036353407e-01   1.1177939470550001e-01   1.1177195681934796e-01   1.1176962058840949e-01   1.1177069648822580e-01   1.1177734723672417e-01   1.1177613281572825e-01   1.1177678581710966e-01   1.1177816922428854e-01   1.1177696372964567e-01   1.1178026605248290e-01   1.1177623162155560e-01   1.1177807380037146e-01   1.1178026758440715e-01   1.1177498836474753e-01   1.1177208901890247e-01   1.1177332979669910e-01   1.1178180852739339e-01   1.1177726977488690e-01   1.1177362395432039e-01   1.1177667746598931e-01   1.1177889286240751e-01   1.1179635474217405e-01   1.1179536221245373e-01   1.1178990966097407e-01   1.1179056537358403e-01   1.1179193671335273e-01   1.1179266071338262e-01   1.1179168025051042e-01   1.1179123447145434e-01   1.1179174215580436e-01   1.1179111227170528e-01   1.1179154492873589e-01   1.1179023255118420e-01   1.1179269681488538e-01   1.1179157328685764e-01   1.1179006005578702e-01   1.1179095222646346e-01   1.1179047097940285e-01   1.1179056493102739e-01   1.1179151612368265e-01   1.1178859890982623e-01   1.1179095085506861e-01   1.1178856977860409e-01   1.1179011879084297e-01   1.1178961210511580e-01   1.1178699514977256e-01   1.1178767401932772e-01   1.1179012375880186e-01   1.1179212551