<?xml version="1.0"?>
<VTKFile type="UnstructuredGrid"  version="0.1"  >
<UnstructuredGrid>
<Piece  NumberOfPoints="4153" NumberOfCells="8064">
<Points>
<DataArray  type="Float64"  NumberOfComponents="3"  format="ascii">-0.4135676068336139 -0.4922948331746483 0  -0.02510907671782429 -0.515096901339904 0  -0.07384097369094757 -0.5134274234042137 0  -0.1224945967407225 -0.5113274828578745 0  -0.1710852574266782 -0.5089783580963354 0  -0.2196820943803504 -0.5064865070018835 0  -0.2682602773935301 -0.503396185798938 0  -0.3167764417787173 -0.4999369683535544 0  -0.3652238501932316 -0.4962182760807402 0  0.02369528448850149 -0.5161791404746572 0  -0.4618641605617168 -0.4885757910320673 0  -0.5101093878777319 -0.4848350403146344 0  -0.5582974850355169 -0.4811441653750506 0  -0.6064183897849111 -0.4776438898194204 0  -0.6544827490365042 -0.4743065949013759 0  -0.7024618062753893 -0.4712007667640172 0  -0.7503468687358968 -0.4683917404703853 0  0.7750643498817686 -0.4748110146720621 0  0.07255548272198592 -0.5165726569172493 0  0.1214468928478131 -0.5161998198240405 0  0.1703367080176543 -0.5150339717496119 0  0.2191867954144054 -0.5131150589930702 0  0.2679731438358227 -0.5105976676532088 0  0.3166853936476115 -0.5075805232560605 0  0.3653134687628705 -0.5041688853027637 0  0.41384948321542 -0.5005129112996528 0  0.4622982307080545 -0.4967066885840652 0  0.5106625099458302 -0.4928511696496168 0  0.558943302034164 -0.4890197356182178 0  0.6071411692491492 -0.4853228617573807 0  0.6552519149635723 -0.4817829012405669 0  0.7032694637047544 -0.4785328377382716 0  0.7511916059719373 -0.4756476041787572 0  0.7272351233663555 -0.4770790060132669 0  -0.7264047801088076 -0.4698242105976736 0  -0.6304601684576895 -0.4759550058395216 0  -0.5342106381188876 -0.4829846457121922 0  -0.4377232117515569 -0.4904592448269544 0  -0.3410086550170962 -0.4981062906894058 0  -0.2439774295972692 -0.5049912829767276 0  -0.1467957693448783 -0.5101724102292555 0  -0.0494849523207521 -0.5143267268184937 0  0.6792725227112452 -0.4801159488713652 0  0.145894201503778 -0.5157155433628547 0  0.243588486245866 -0.5119254799864323 0  0.3410102886955323 -0.5059193439319057 0  0.4380845225242126 -0.4986199713579436 0  0.5348132462200341 -0.4909297365254466 0  0.6312076798633405 -0.4835200026365577 0  0.0481196525197868 -0.5164675390596087 0  -0.7741720970112815 -0.4676275896301738 0  0.5830500561489026 -0.4871541571900139 0  0.4864908044481042 -0.4947804241218166 0  0.3895913312359132 -0.5023619536282505 0  0.2923392382958828 -0.5091451462533331 0  0.1947695415966556 -0.5141587840796319 0  0.09699922528308974 -0.5164850694377933 0  -0.0007149631395041244 -0.5157192167614161 0  -0.09817714216671206 -0.5124204458094349 0  -0.1953732665700935 -0.5077944143440898 0  -0.2925267033215583 -0.5017042905627709 0  -0.3894182204894792 -0.4942207712964289 0  -0.4859935453632917 -0.486703764418161 0  -0.5823627426255362 -0.4793583751391113 0  -0.6784835847487093 -0.472720346651597 0  0.9659221608891553 -0.2788733328483001 0  0.8483621156262527 -0.4584993312701927 0  0.910578222351397 -0.4159265916738346 0  0.9518220601494899 -0.3529241292091901 0  0.8117602551436269 -0.4666902910568653 0  0.8796558250330828 -0.4374683105807135 0  0.9309233023178868 -0.3842232075851148 0  0.9587030459169111 -0.315816514480405 0  0.7934510078049641 -0.4709512603964788 0  0.8300343890691642 -0.4624997399681329 0  0.8640146280729226 -0.448037198568817 0  0.8949560299440891 -0.4264470920225292 0  0.9209180106838224 -0.400158410793108 0  0.9412798136964737 -0.3685506301054277 0  0.9551817309811813 -0.3343347226384094 0  0.9622162709454635 -0.2973278607113349 0  0.9658369609593586 -0.2547498364230756 0  0.9694687246675546 0.2762463934919024 0  0.9690369508586942 0.2280606335839244 0  0.9689640452110301 0.1798762509219159 0  0.9690786590506962 0.131649441132439 0  0.9692914993378057 0.08334357899447149 0  0.9692410608364039 0.03496836642048249 0  0.9689261204886379 -0.01342765155659692 0  0.968345271789391 -0.06181340302516979 0  0.9674947345057893 -0.1101384125016683 0  0.9667215080807464 -0.1583859854234543 0  0.9661128046848375 -0.2065808785544816 0  0.969894015938379 0.3004023513959171 0  0.9691919948917002 0.2521495962467344 0  0.9690047540257989 0.1557700548502241 0  0.9693000819491324 0.05916064617245886 0  0.9686697539846213 -0.03762398832735801 0  0.9670943179457988 -0.1342698732011599 0  0.965918592579165 -0.2306661478286342 0  0.9689718264051224 0.2039715533616502 0  0.9691966989470717 0.1075110857385521 0  0.9691157657963142 0.01077104672979204 0  0.9679334824181455 -0.08598962354413316 0  0.9663909550869391 -0.182488757848297 0  0.7820869531088539 0.4986598864607254 0  0.9567659744152481 0.3746831916084397 0  0.9163514498896709 0.438142027039074 0  0.8548480125036161 0.4814732642745438 0  0.9631766110142457 0.337437100495791 0  0.9362976491222053 0.4061874792249656 0  0.8858409302408563 0.4600926118205823 0  0.8185391542615538 0.4901657756446289 0  0.9664302127289006 0.3188949674210515 0  0.9598962429747415 0.3560191968025973 0  0.9464371487094094 0.3904042473743864 0  0.9265105969185883 0.4222535785177635 0  0.9009298982855091 0.4488401979842415 0  0.8703534418212452 0.47083548379808 0  0.8366729668685912 0.4857315983878813 0  0.8003560543657184 0.4946525126159144 0  -0.02300038625789577 0.5663231946545433 0  0.7107435272169956 0.5041209354826368 0  0.662944520832896 0.5087206472543537 0  0.6150005615479172 0.5137319757971635 0  0.5669213267708518 0.519086651233978 0  0.5186840075075043 0.524733003369962 0  0.4702837036802827 0.5305254027268815 0  0.4217111679216706 0.5363625653806779 0  0.3729562983628099 0.542159652897254 0  0.3239982121906252 0.5477261904930895 0  0.2748479284459285 0.5528692749427484 0  0.2255144507851229 0.557435381029564 0  0.1760067804257943 0.561304267028541 0  0.1263525295640163 0.5641740331589287 0  0.07660652792690041 0.5659683924517225 0  0.02681566339131599 0.5666569388516726 0  0.7583995520762176 0.499999600515961 0  -0.07278251322141936 0.564626032469641 0  -0.1224465544098064 0.5617842326678262 0  -0.1719437741355832 0.5579713390799866 0  -0.2212076030198672 0.5533055408420426 0  -0.2702492375137552 0.5485114561213594 0  -0.319123743270503 0.5435759145610565 0  -0.3678509130303881 0.5385570451632631 0  -0.41643320226987 0.5335266139302755 0  -0.4648999481095182 0.5286347459352753 0  -0.5132616701566511 0.523851311248509 0  -0.5615213157158159 0.5192139963129601 0  -0.6096774464528428 0.5147678701718148 0  -0.6577216595917355 0.5105723694572725 0  -0.7056468285345597 0.5067254675793109 0  -0.7534491815562943 0.503279858024124 0  -0.7772281423977543 0.5022399759221017 0  -0.7295535644373585 0.5050062503727765 0  -0.6337138145249921 0.5126311016523563 0  -0.5374043018255665 0.5215118541596413 0  -0.4406804170568148 0.5310727544727568 0  -0.3435047975571708 0.5410749345659472 0  -0.2457516527547013 0.5509370272908567 0  -0.1472190430258627 0.5599843330105518 0  -0.04790211334269252 0.565623915086228 0  0.05171443267952158 0.5664540525277147 0  0.1511943015904207 0.5628675865359626 0  0.250203506634067 0.5552365944784271 0  0.3485014822982645 0.5449888886731723 0  0.4460197548347155 0.5334470433166146 0  0.5428222461679004 0.521888568544239 0  0.6389905479100607 0.5111845075582807 0  0.7345776486550163 0.5020664765186843 0  -0.6816994152204033 0.5086006416069097 0  -0.5856123752416207 0.5169656525099032 0  -0.4890936359140275 0.5262273471270452 0  -0.392161061600959 0.5360233073448971 0  -0.2947059058824045 0.5460578345511532 0  -0.1966183787706262 0.5556926272021644 0  -0.09763264797063913 0.5633367869130613 0  0.001917569647756843 0.5666424521071551 0  0.1014879733820473 0.5652093706943369 0  0.2007850865353042 0.5594752166494783 0  0.2994466430343271 0.5503602102983089 0  0.3973585730322806 0.5392683854916762 0  0.4945047687754374 0.527617197230281 0  0.5909782622086833 0.5163582491958046 0  0.6868619597022007 0.5063644946348415 0  -0.966613190691744 0.3055236016767734 0  -0.8502951292702229 0.4856621492738066 0  -0.9122066727331476 0.4428128103344303 0  -0.9530507071158042 0.3796437205874351 0  -0.8138255441306183 0.4940468887479329 0  -0.8814815037219824 0.4645384066028803 0  -0.9323378422094583 0.4110001623176393 0  -0.9596616564554843 0.3424817871472109 0  -0.7955699691987839 0.4983851223970986 0  -0.83203669904074 0.4897680301013186 0  -0.8658963430200655 0.4751610426835672 0  -0.8966722567239049 0.4533996347309709 0  -0.922464243885459 0.4270017840824675 0  -0.9425956800192926 0.3952953305370764 0  -0.956277462641214 0.3610233021064423 0  -0.9630224968229188 0.3239788038341124 0  -0.9663174411620069 0.281399818234768 0  -0.9649516603124243 -0.2486821889624622 0  -0.9650605478370524 -0.2005777949144872 0  -0.9654875604522015 -0.1524632171761137 0  -0.9660769976935445 -0.1043073849018087 0  -0.9667585599660109 -0.05607754807665995 0  -0.9671457806117179 -0.007785205060076704 0  -0.9672489758374532 0.04051837120338469 0  -0.9670731865690408 0.08880413115043295 0  -0.9666210750982382 0.1370237624558638 0  -0.9662759876833735 0.1851698478040987 0  -0.9661193324097674 0.2332815607174938 0  -0.9651097028580338 -0.2727818631327137 0  -0.9649518256527023 -0.2246285877424495 0  -0.965768004423638 -0.128391913187271 0  -0.9669888224049323 -0.03193486276802333 0  -0.9671967291041428 0.06466544627764025 0  -0.9664313117961711 0.1611030234402086 0  -0.9661569696223707 0.2573367631178546 0  -0.9652490276048289 -0.1765241067232876 0  -0.9664314083050372 -0.08020695018427652 0  -0.9672314120254353 0.01636702278347859 0  -0.9668587284375053 0.1129283096135381 0  -0.9661695346355798 0.2092278503671041 0  -0.9511063180041686 -0.34676532281657 0  -0.9098034161108909 -0.4096135087746459 0  -0.8475132141808145 -0.451920514207048 0  -0.9579742867531476 -0.3096965090935035 0  -0.9302110271788878 -0.3780168644804207 0  -0.8788737190847687 -0.4310829124297465 0  -0.8108917419744772 -0.4599191163404517 0  -0.961453532113009 -0.2912224949971391 0  -0.9544671602254839
[...]
<PointData  Vectors="f_44"> 
<DataArray  type="Float64"  Name="f_44"  NumberOfComponents="3" format="ascii">2.2096688016528587e-01 -3.4258196617982378e-02 0.0000000000000000e+00  2.2324097734991286e-01 -1.2810086765088545e-02 0.0000000000000000e+00  2.2291825229285728e-01 -1.7544733971596550e-02 0.0000000000000000e+00  2.2264926705097085e-01 -2.0675924519794747e-02 0.0000000000000000e+00  2.2254950533686821e-01 -2.1715411680789408e-02 0.0000000000000000e+00  2.2210976782021852e-01 -2.5825562703568297e-02 0.0000000000000000e+00  2.2156607005756576e-01 -3.0135845587765071e-02 0.0000000000000000e+00  2.2114617008689125e-01 -3.3076924362347944e-02 0.0000000000000000e+00  2.2070853583320008e-01 -3.5871217022217870e-02 0.0000000000000000e+00  2.2350282744834798e-01 -6.8815808090566715e-03 0.0000000000000000e+00  2.2089187236425864e-01 -3.4740757499618580e-02 0.0000000000000000e+00  2.2096002947498930e-01 -3.4302159713908001e-02 0.0000000000000000e+00  2.2106212704529693e-01 -3.3640407762381953e-02 0.0000000000000000e+00  2.2139108596353052e-01 -3.1403161426001157e-02 0.0000000000000000e+00  2.2160277219103314e-01 -2.9881332625456461e-02 0.0000000000000000e+00  2.2217938792309655e-01 -2.5652140822614581e-02 0.0000000000000000e+00  2.2437127215010072e-01 -1.2794445594640051e-02 0.0000000000000000e+00  2.1536468261285466e-01 4.5900296680567026e-02 0.0000000000000000e+00  2.2360901449460091e-01 -1.8177871182427878e-04 0.0000000000000000e+00  2.2349831104701695e-01 7.0396995992068195e-03 0.0000000000000000e+00  2.2315278110406511e-01 1.4272825854307419e-02 0.0000000000000000e+00  2.2267070963063668e-01 2.0455774049607165e-02 0.0000000000000000e+00  2.2215347545827388e-01 2.5462791471075639e-02 0.0000000000000000e+00  2.2164855047108831e-01 2.9535002876188234e-02 0.0000000000000000e+00  2.2120835995634325e-01 3.2665649413607174e-02 0.0000000000000000e+00  2.2095414576561317e-01 3.4340240798987058e-02 0.0000000000000000e+00  2.2080841223330192e-01 3.5265130151616947e-02 0.0000000000000000e+00  2.2078402007989126e-01 3.5417455193618247e-02 0.0000000000000000e+00  2.2087537739166660e-01 3.4843066335885749e-02 0.0000000000000000e+00  2.2106552481687461e-01 3.3618455010758448e-02 0.0000000000000000e+00  2.2139136840019599e-01 3.1420930138831550e-02 0.0000000000000000e+00  2.2202148920498199e-01 2.7088918561475436e-02 0.0000000000000000e+00  2.2462788847491302e-01 1.2688110446123670e-02 0.0000000000000000e+00  2.2132501917565872e-01 3.0296942992793899e-02 0.0000000000000000e+00  2.2147108156992615e-01 -2.9605019556889982e-02 0.0000000000000000e+00  2.2144276890616901e-01 -3.1032828458417445e-02 0.0000000000000000e+00  2.2099222764033849e-01 -3.4094841687636761e-02 0.0000000000000000e+00  2.2099053969517377e-01 -3.4101739748524214e-02 0.0000000000000000e+00  2.2101641969183239e-01 -3.3951771873302505e-02 0.0000000000000000e+00  2.2178457065366211e-01 -2.8511934034115186e-02 0.0000000000000000e+00  2.2254583435716904e-01 -2.1757492950224763e-02 0.0000000000000000e+00  2.2307924778935059e-01 -1.5365652918821457e-02 0.0000000000000000e+00  2.2149596683443828e-01 3.0568975065514536e-02 0.0000000000000000e+00  2.2335526418313331e-01 1.0658938867855509e-02 0.0000000000000000e+00  2.2241734881905115e-01 2.3042682990685293e-02 0.0000000000000000e+00  2.2140795844374261e-01 3.1282516779592380e-02 0.0000000000000000e+00  2.2085452568583369e-01 3.4976341080885008e-02 0.0000000000000000e+00  2.2079722100185406e-01 3.5336156529452774e-02 0.0000000000000000e+00  2.2118263441086666e-01 3.2832460787118802e-02 0.0000000000000000e+00  2.2357927427969557e-01 -3.6367379269728823e-03 0.0000000000000000e+00  2.1649451433250760e-01 -4.2341875149546140e-02 0.0000000000000000e+00  2.2100119226765183e-01 3.4036798033888989e-02 0.0000000000000000e+00  2.2077593031879764e-01 3.5468343095065094e-02 0.0000000000000000e+00  2.2108435778826477e-01 3.3493038212378833e-02 0.0000000000000000e+00  2.2189242794455485e-01 2.7640933000223550e-02 0.0000000000000000e+00  2.2291279436287062e-01 1.7627847868152698e-02 0.0000000000000000e+00  2.2358340184426959e-01 3.4004101962519578e-03 0.0000000000000000e+00  2.2338708125887977e-01 -9.9452976033281015e-03 0.0000000000000000e+00  2.2276884652234410e-01 -1.9344357090671744e-02 0.0000000000000000e+00  2.2248208012060400e-01 -2.2420528854305170e-02 0.0000000000000000e+00  2.2133744981846526e-01 -3.1784520172343893e-02 0.0000000000000000e+00  2.2060068119502557e-01 -3.6552671453198744e-02 0.0000000000000000e+00  2.2093844683028810e-01 -3.4441266365771259e-02 0.0000000000000000e+00  2.2126488136527656e-01 -3.2276846585434546e-02 0.0000000000000000e+00  2.2166426916141979e-01 -2.9358893083767001e-02 0.0000000000000000e+00  -2.1549933977315719e-01 3.7386006948224526e-02 0.0000000000000000e+00  1.4379263672343442e-01 1.4943745546198095e-01 0.0000000000000000e+00  9.9144771035975746e-04 2.0532187350757214e-01 0.0000000000000000e+00  -1.4635772489499760e-01 1.4195199741058503e-01 0.0000000000000000e+00  1.9659086363667533e-01 1.0081508864106917e-01 0.0000000000000000e+00  7.3174441103622576e-02 2.0638037155271169e-01 0.0000000000000000e+00  -9.2162365383532938e-02 1.9813012252945875e-01 0.0000000000000000e+00  -2.0419482746935674e-01 8.3038932609410213e-02 0.0000000000000000e+00  2.0103270413080659e-01 1.0480411382228536e-01 0.0000000000000000e+00  2.1830890115995660e-01 8.0385799234753724e-02 0.0000000000000000e+00  7.2477297845881694e-02 2.2158316641157022e-01 0.0000000000000000e+00  9.7618145938132395e-02 2.1154592717105702e-01 0.0000000000000000e+00  -1.1694043857332774e-01 2.0399203163637561e-01 0.0000000000000000e+00  -6.8896807681299840e-02 2.2478512186297683e-01 0.0000000000000000e+00  -2.2547488913847677e-01 6.3988762815575098e-02 0.0000000000000000e+00  -2.0579611827892189e-01 9.6152395229228027e-02 0.0000000000000000e+00  -2.2577609945136093e-01 -1.0807779804155520e-02 0.0000000000000000e+00  -2.2540350808011592e-01 1.7419024137543291e-02 0.0000000000000000e+00  -2.2373446119552937e-01 2.7194404448416766e-03 0.0000000000000000e+00  -2.2361613848569814e-01 -2.9551141092594294e-04 0.0000000000000000e+00  -2.2359945277210450e-01 -1.8420392997625182e-03 0.0000000000000000e+00  -2.2360421679914136e-01 -1.0052079110101158e-03 0.0000000000000000e+00  -2.2360037060862697e-01 1.6960857406559569e-03 0.0000000000000000e+00  -2.2356870621481903e-01 4.1276145117104760e-03 0.0000000000000000e+00  -2.2350157296474338e-01 6.8496333062046397e-03 0.0000000000000000e+00  -2.2346985805413094e-01 7.8324235933818469e-03 0.0000000000000000e+00  -2.2352133095154106e-01 6.5126048670769709e-03 0.0000000000000000e+00  -2.2371772232987558e-01 3.6914240662001413e-03 0.0000000000000000e+00  -2.1637479421312797e-01 -3.1580230708867944e-02 0.0000000000000000e+00  -2.2306749784463570e-01 9.7510369193301160e-04 0.0000000000000000e+00  -2.2360219410561433e-01 -1.0597297862637921e-03 0.0000000000000000e+00  -2.2360701099126948e-01 5.2657759345485044e-04 0.0000000000000000e+00  -2.2354463548889797e-01 5.3074720241756820e-03 0.0000000000000000e+00  -2.2348993889962956e-01 7.1615858010839004e-03 0.0000000000000000e+00  -2.2301110374042007e-01 5.6202652725604796e-03 0.0000000000000000e+00  -2.2357006438965318e-01 4.0909671509978713e-04 0.0000000000000000e+00  -2.2359609870439554e-01 -2.2439546981171707e-03 0.0000000000000000e+00  -2.2358833524883762e-01 2.9092609764052807e-03 0.0000000000000000e+00  -2.2345938106879448e-01 8.1326355681034610e-03 0.0000000000000000e+00  -2.2349266555954964e-01 5.9199442795934551e-03 0.0000000000000000e+00  2.1438452911505129e-01 -5.2330474542170408e-02 0.0000000000000000e+00  -1.4990512694181454e-01 -1.3813955564133798e-01 0.0000000000000000e+00  -4.0331252627012993e-03 -2.0547362183196224e-01 0.0000000000000000e+00  1.3962106608113969e-01 -1.5368474257048995e-01 0.0000000000000000e+00  -2.0640659369391434e-01 -7.7327082064528610e-02 0.0000000000000000e+00  -9.7555202204757219e-02 -1.9553915233769978e-01 0.0000000000000000e+00  6.7036143723057995e-02 -2.0848097951688194e-01 0.0000000000000000e+00  1.9362204896353286e-01 -1.0656930511758808e-01 0.0000000000000000e+00  -2.0832851071987091e-01 -9.0560724479185742e-02 0.0000000000000000e+00  -2.2704082382334054e-01 -5.8243800016554340e-02 0.0000000000000000e+00  -7.4407708810726877e-02 -2.2305217132627911e-01 0.0000000000000000e+00  -1.2191891412378900e-01 -2.0099654052133753e-01 0.0000000000000000e+00  9.0778644072375736e-02 -2.1433726005704923e-01 0.0000000000000000e+00  6.7461297987220920e-02 -2.2298852562417013e-01 0.0000000000000000e+00  2.1572147390098423e-01 -8.6821575151261973e-02 0.0000000000000000e+00  1.9876179061048016e-01 -1.0848029968610703e-01 0.0000000000000000e+00  2.2341959313000997e-01 9.2035395582096211e-03 0.0000000000000000e+00  2.2026976109159491e-01 -3.8685811660181146e-02 0.0000000000000000e+00  2.1913667630382372e-01 -4.4485837455576334e-02 0.0000000000000000e+00  2.1848861940305600e-01 -4.7570621498793625e-02 0.0000000000000000e+00  2.1775684226230324e-01 -5.0815339698932475e-02 0.0000000000000000e+00  2.1740217269846890e-01 -5.2309546078643979e-02 0.0000000000000000e+00  2.1722198357105774e-01 -5.3052832044710861e-02 0.0000000000000000e+00  2.1729985095473531e-01 -5.2732941431597055e-02 0.0000000000000000e+00  2.1752641133503242e-01 -5.1791634229658538e-02 0.0000000000000000e+00  2.1829880841946639e-01 -4.8436438194536476e-02 0.0000000000000000e+00  2.1924987666337370e-01 -4.3936726064750083e-02 0.0000000000000000e+00  2.2033682541490845e-01 -3.8116501172980113e-02 0.0000000000000000e+00  2.2151961363110600e-01 -3.0499302523856915e-02 0.0000000000000000e+00  2.2261552357178166e-01 -2.1073949952075254e-02 0.0000000000000000e+00  2.2333153363774003e-01 -1.1229986077174790e-02 0.0000000000000000e+00  2.2360677415924235e-01 -1.6787751452641919e-03 0.0000000000000000e+00  2.2334621559351725e-01 -2.4301568832647939e-02 0.0000000000000000e+00  2.2266272311663360e-01 2.0541223103185399e-02 0.0000000000000000e+00  2.2155623642306274e-01 3.0215325557316902e-02 0.0000000000000000e+00  2.2023745239258397e-01 3.8656675416625264e-02 0.0000000000000000e+00  2.1945447261395803e-01 4.2886258337854220e-02 0.0000000000000000e+00  2.1918823655715589e-01 4.4235366727521208e-02 0.0000000000000000e+00  2.1898472687165468e-01 4.5229836221585280e-02 0.0000000000000000e+00  2.1881791573950246e-01 4.6029392684372977e-02 0.0000000000000000e+00  2.1901382019330565e-01 4.5088265742973588e-02 0.0000000000000000e+00  2.1916329455977041e-01 4.4355669665208583e-02 0.0000000000000000e+00  2.1938275951405317e-01 4.3257555934782539e-02 0.0000000000000000e+00  2.1966252083247159e-01 4.1813970148448010e-02 0.0000000000000000e+00  2.1999735410062018e-01 4.0015684476989929e-02 0.0000000000000000e+00  2.2049165646721197e-01 3.7201782314877259e-02 0.0000000000000000e+00  2.2132449515266767e-01 3.2172680586142172e-02 0.0000000000000000e+00  2.2403465123318916e-01 1.7985968706288328e-02 0.0000000000000000e+00  2.1533986879414219e-01 4.7642986887700439e-02 0.0000000000000000e+00  2.2060325843160111e-01 3.5562587944424934e-02 0.0000000000000000e+00  2.2020959780156429e-01 3.8831445554235865e-02 0.0000000000000000e+00  2.1951116290292658e-01 4.2601840386542446e-02 0.0000000000000000e+00  2.1910092058825917e-01 4.4663646062560229e-02 0.0000000000000000e+00  2.1891744998214074e-01 4.5554088127742316e-02 0.0000000000000000e+00  2.1939868531947088e-01 4.3175265575107043e-02 0.0000000000000000e+00  2.2099183376051934e-01 3.4151508924830910e-02 0.0000000000000000e+00  2.2308667953651501e-01 1.5405719186493005e-02 0.0000000000000000e+00  2.2352572285509539e-01 -6.0471908105751227e-03 0.0000000000000000e+00  2.2212513023872746e-01 -2.5746264800211631e-02 0.0000000000000000e+00  2.1980758214373383e-01 -4.1047098699744308e-02 0.0000000000000000e+00  2.1788973211940349e-01 -5.0241924212540687e-02 0.0000000000000000e+00  2.1722973411449548e-01 -5.3021225419927431e-02 0.0000000000000000e+00  2.1755308575843757e-01 -5.1678963910907288e-02 0.0000000000000000e+00  2.1875245656470721e-01 -4.6344324045476629e-02 0.0000000000000000e+00  2.1952654522958581e-01 -4.1834793523525107e-02 0.0000000000000000e+00  2.2065930824729790e-01 3.6156303155367185e-02 0.0000000000000000e+00  2.1982466861556219e-01 4.0953733939498402e-02 0.0000000000000000e+00  2.1927436932586045e-01 4.3804184733429070e-02 0.0000000000000000e+00  2.1883611549145485e-01 4.5943306192716575e-02 0.0000000000000000e+00  2.1909482938937658e-01 4.4692084955250365e-02 0.0000000000000000e+00  2.1951949574211455e-01 4.2584024049826787e-02 0.0000000000000000e+00  2.2214721430022441e-01 2.5569109733485307e-02 0.0000000000000000e+00  2.2359843705224847e-01 2.6112575259660299e-03 0.0000000000000000e+00  2.2303107408095554e-01 -1.6088198243611671e-02 0.0000000000000000e+00  2.2086176874503122e-01 -3.4949892213046577e-02 0.0000000000000000e+00  2.1875276847528249e-01 -4.6340887321298145e-02 0.0000000000000000e+00  2.1735171254074606e-01 -5.2519490626126313e-02 0.0000000000000000e+00  2.1728189804318429e-01 -5.2807328273268339e-02 0.0000000000000000e+00  2.1812762520376294e-01 -4.9197345996780634e-02 0.0000000000000000e+00  2.1940051190490337e-01 -4.3165968611895963e-02 0.0000000000000000e+00  -2.1587877587890195e-01 3.4294410223584995e-02 0.0000000000000000e+00  1.4243127493436003e-01 1.5109375808904366e-01 0.0000000000000000e+00  -7.9225543545020688e-04 2.0539552636882413e-01 0.0000000000000000e+00  -1.4791599039225781e-01 1.3996993167137120e-01 0.0000000000000000e+00  1.9548180114656602e-01 1.0307046142332234e-01 0.0000000000000000e+00  7.0346183528719242e-02 2.0736700797838981e-01 0.0000000000000000e+00  -9.4985902675427558e-02 1.9674932281415358e-01 0.0000000000000000e+00  -2.0547443745014307e-01 7.9711488872997019e-02 0.0000000000000000e+00  2.0058813600013436e-01 1.0527447387908119e-01 0.0000000000000000e+00  2.1724211665327434e-01 8.2935460512962106e-02 0.0000000000000000e+00  7.1267369666066421e-02 2.2183180852380763e-01 0.0000000000000000e+00  9.4335619484829436e-02 2.1284668366891527e-01 0.0000000000000000e+00  -1.1964270078915594e-01 2.0250075764967768e-01 0.0000000000000000e+00  -7.0868656327028878e-02 2.2433279800064412e-01 0.0000000000000000e+00  -2.2649094878406797e-01 6.0730340030530905e-02 0.0000000000000000e+00  -2.0712613844099989e-01 9.3352154514729502e-02 0.0000000000000000e+00  -2.2561438478269966e-01 -1.5230753621165697e-02 0.0000000000000000e+00  -2.2571568331539540e-01 1.2266943022735701e-02 0.0000000000000000e+00  -2.2374030158526789e-01 -2.0690508915542196e-03 0.0000000000000000e+00  -2.2356455214549642e-01 -4.8105396470175489e-03 0.0000000000000000e+00  -2.2352055225370179e-01 -6.2153057522407089e-03 0.0000000000000000e+00  -2.2354560630697096e-01 -5.2119136288245145e-03 0.0000000000000000e+00  -2.2359541898930896e-01 -2.2529261482492936e-03 0.0000000000000000e+00  -2.2360655355910694e-01 3.2889016601779915e-04 0.0000000000000000e+00  -2.2358372211924382e-01 3.1857675427308784e-03 0.0000000000000000e+00  -2.2357065660070322e-01 4.0311425493351439e-03 0.0000000000000000e+00  -2.2360350497042228e-01 2.4210024208465922e-03 0.0000000000000000e+00  -2.2375417089230573e-01 -5.4989223813881646e-04 0.0000000000000000e+00  -2.1568809361600444e-01 -3.6171399473385615e-02 0.0000000000000000e+00  -2.2303932051792330e-01 -4.0680881149464214e-03 0.0000000000000000e+00  -2.2353820165348182e-01 -5.4531830630432203e-03 0.0000000000000000e+00  -2.2358026509710358e-01 -3.5123307810116015e-03 0.0000000000000000e+00  -2.2360227214305867e-01 1.5636034130696972e-03 0.0000000000000000e+00  -2.2358185662017438e-01 3.1947160648383727e-03 0.0000000000000000e+00  -2.2305223751346134e-01 1.1840325804862431e-03 0.0000000000000000e+00  -2.2353043394034935e-01 -4.2329836166543093e-03 0.0000000000000000e+00  -2.2350949615108337e-01 -6.6211757649143350e-03 0.0000000000000000e+00  -2.2360530985662722e-01 -9.5209834088834432e-04 0.0000000000000000e+00  -2.2356247390541914e-01 4.4850122071104781e-03 0.0000000000000000e+00  -2.2356275272449114e-01 1.7163650691251428e-03 0.0000000000000000e+00  -1.4627762784976495e-01 -1.4205836254325441e-01 0.0000000000000000e+00  2.2309149980293433e-03 -2.0544950286439514e-01 0.0000000000000000e+00  1.4523083609946658e-01 -1.4824269242940524e-01 0.0000000000000000e+00  -2.0435233997196298e-01 -8.2564972200376952e-02 0.0000000000000000e+00  -9.1538106488221402e-02 -1.9840498803830020e-01 0.0000000000000000e+00  7.4486487782081140e-02 -2.0588336409525437e-01 0.0000000000000000e+00  1.9798873421987934e-01 -9.8092145867762548e-02 0.0000000000000000e+00  -2.0622465229381598e-01 -9.5306422490242390e-02 0.0000000000000000e+00  -2.2549393399445736e-01 -6.3986727711249816e-02 0.0000000000000000e+00  -6.8685169099859972e-02 -2.2485291369626834e-01 0.0000000000000000e+00  -1.1560869394454738e-01 -2.0469886008464921e-01 0.0000000000000000e+00  9.8039065401684236e-02 -2.1124140285516124e-01 0.0000000000000000e+00  7.5051060716761903e-02 -2.2065239043127996e-01 0.0000000000000000e+00  2.1905747089051103e-01 -7.8249956974759713e-02 0.0000000000000000e+00  2.0337432497347047e-01 -9.9714393999030856e-02 0.0000000000000000e+00  1.3590204413473506e-01 1.7777011749494215e-01 0.0000000000000000e+00  1.7299475163214478e-01 1.4189123167717990e-01 0.0000000000000000e+00  2.0224596146033333e-01 -9.5563310992135678e-02 0.0000000000000000e+00  7.9441445643031822e-02 -2.0928248911431593e-01 0.0000000000000000e+00  1.0035533475091542e-01 -2.0004807677869998e-01 0.0000000000000000e+00  2.2127992103687560e-01 -3.2701738453960003e-02 0.0000000000000000e+00  -1.8088523218861544e-01 1.3172031970890194e-01 0.0000000000000000e+00  -1.8231782391761631e-01 1.2971364285678763e-01 0.0000000000000000e+00  -1.8289947674507898e-01 -1.2887286695330477e-01 0.0000000000000000e+00  -1.8353627767645164e-01 -1.2797259720999396e-01 0.0000000000000000e+00  3.9708941939800353e-02 -2.2032219408138859e-01 0.0000000000000000e+00  -1.3343269798981328e-01 -1.7968575328151892e-01 0.0000000000000000e+00  -8.4801577669665007e-02 -2.0726575338150108e-01 0.0000000000000000e+00  -2.2333324961962439e-01 1.5456915817088648e-02 0.0000000000000000e+00  -2.2013299564203728e-01 4.2990944521595041e-02 0.0000000000000000e+00  -2.2375871225193325e-01 -4.2353092495110977e-04 0.0000000000000000e+00  9.0007754173130047e-02 -2.0525776341950916e-01 0.0000000000000000e+00  1.9991158218074631e-01 1.0318754274056278e-01 0.0000000000000000e+00  2.1120664658283575e-01 7.4870741570640248e-02 0.0000000000000000e+00  3.7781939520326865e-02 -2.2210520663145877e-01 0.0000000000000000e+00  -6.8297907732411053e-02 2.1351574568441375e-01 0.0000000000000000e+00  -1.7158988961759258e-01 -1.4412580881352807e-01 0.0000000000000000e+00  -2.1703436669929912e-01 5.4696556646081321e-02 0.0000000000000000e+00  3.9033740867699944e-02 -2.2046061775297043e-01 0.0000000000000000e+00  -1.4738989728811816e-01 -1.6840541819609670e-01 0.0000000000000000e+00  -2.2374111495143664e-01 1.1550683828199704e-03 0.0000000000000000e+00  -1.3169925199756047e-01 1.8094804970934822e-01 0.0000000000000000e+00  6.3722516812615135e-02 2.1461909559290498e-01 0.0000000000000000e+00  1.9201880678818789e-01 1.1484086623461892e-01 0.0000000000000000e+00  4.5921943807885758e-02 2.1911096829376497e-01 0.0000000000000000e+00  1.0200105397761249e-01 1.9919774595484088e-01 0.0000000000000000e+00  1.6387503778189683e-01 -1.5234811536007409e-01 0.0000000000000000e+00  -6.3733443681430663e-02 2.1463090995515868e-01 0.0000000000000000e+00  2.2021850544066746e-01 3.9195696014783683e-02 0.0000000000000000e+00  9.7893845089772447e-02 -2.0135579195360009e-01 0.0000000000000000e+00  -1.1866910932490228e-01 1.8978732137300308e-01 0.0000000000000000e+00  -1.4335909886938619e-01 -1.7193671120194939e-01 0.0000000000000000e+00  -2.2266146689092159e-01 2.2765872626964223e-02 0.0000000000000000e+00  1.2265328182745608e-01 1.8719269680529824e-01 0.0000000000000000e+00  -4.1499515630528026e-02 2.1991211600592020e-01 0.0000000000000000e+00  9.1382918505072894e-02 2.0448986617688036e-01 0.0000000