<?xml version="1.0"?>
<VTKFile type="UnstructuredGrid"  version="0.1"  >
<UnstructuredGrid>
<Piece  NumberOfPoints="4153" NumberOfCells="8064">
<Points>
<DataArray  type="Float64"  NumberOfComponents="3"  format="ascii">-0.402135213667228 -0.4845896663492966 0  -0.02521815343564871 -0.530193802679808 0  -0.07268194738189526 -0.5268548468084273 0  -0.1199891934814453 -0.5226549657157491 0  -0.1671705148533566 -0.5179567161926708 0  -0.2143641887607009 -0.5129730140037669 0  -0.2615205547870604 -0.506792371597876 0  -0.3085528835574348 -0.4998739367071087 0  -0.3554477003864633 -0.4924365521614804 0  0.02239056897700281 -0.5323582809493144 0  -0.4487283211234337 -0.4771515820641345 0  -0.4952187757554638 -0.4696700806292687 0  -0.5415949700710341 -0.4622883307501011 0  -0.5878367795698224 -0.4552877796388408 0  -0.6339654980730084 -0.4486131898027518 0  -0.6799236125507786 -0.4424015335280344 0  -0.7256937374717936 -0.4367834809407707 0  0.7501286997635371 -0.4496220293441242 0  0.07011096544397161 -0.5331453138344987 0  0.1178937856956259 -0.532399639648081 0  0.1656734160353082 -0.5300679434992236 0  0.2133735908288105 -0.5262301179861405 0  0.2609462876716449 -0.5211953353064176 0  0.3083707872952227 -0.515161046512121 0  0.3556269375257409 -0.5083377706055273 0  0.4026989664308399 -0.5010258225993056 0  0.4495964614161089 -0.4934133771681304 0  0.4963250198916603 -0.4857023392992337 0  0.5428866040683279 -0.4780394712364356 0  0.5892823384982984 -0.4706457235147613 0  0.6355038299271445 -0.4635658024811337 0  0.6815389274095089 -0.4570656754765433 0  0.7273832119438746 -0.4512952083575144 0  0.7044702467327111 -0.4541580120265339 0  -0.7028095602176153 -0.4396484211953471 0  -0.6109203369153791 -0.4519100116790432 0  -0.5184212762377752 -0.4659692914243844 0  -0.425446423503114 -0.4809184896539088 0  -0.3320173100341925 -0.4962125813788116 0  -0.2379548591945387 -0.5099825659534551 0  -0.1435915386897568 -0.520344820458511 0  -0.04896990464150434 -0.5286534536369875 0  0.6585450454224905 -0.4602318977427304 0  0.1417884030075557 -0.5314310867257095 0  0.2371769724917317 -0.5238509599728648 0  0.3320205773910644 -0.5118386878638115 0  0.4261690450484251 -0.4972399427158872 0  0.519626492440068 -0.4818594730508932 0  0.6124153597266808 -0.4670400052731154 0  0.04623930503957341 -0.5329350781192176 0  -0.7483441940225629 -0.4352551792603476 0  0.5661001122978051 -0.4743083143800278 0  0.4729816088962081 -0.4895608482436331 0  0.3791826624718262 -0.504723907256501 0  0.2846784765917652 -0.518290292506666 0  0.1895390831933108 -0.5283175681592639 0  0.09399845056617917 -0.5329701388755866 0  -0.00142992627900836 -0.531438433522832 0  -0.09635428433342424 -0.5248408916188697 0  -0.1907465331401872 -0.5155888286881795 0  -0.2850534066431168 -0.5034085811255418 0  -0.3788364409789586 -0.4884415425928579 0  -0.4719870907265836 -0.4734075288363221 0  -0.5647254852510725 -0.4587167502782226 0  -0.6569671694974186 -0.4454406933031939 0  0.9318443217783106 -0.2577466656966001 0  0.8201875447794875 -0.432222756038128 0  0.8797350884654845 -0.3904318271103596 0  0.9188682137967226 -0.3293115719453622 0  0.7852521670507449 -0.4409926288626019 0  0.8503326287110021 -0.4118379897916435 0  0.8987479732659902 -0.3594673938150657 0  0.9250181385826937 -0.2933646857243011 0  0.7677678439916739 -0.4457085441673931 0  0.8026662632835647 -0.4364175500595728 0  0.8352714022317543 -0.4221371282016134 0  0.8647118710919418 -0.4006341902415119 0  0.8895760275640985 -0.3751166327899794 0  0.9086223584569271 -0.3443434062967643 0  0.9217815320856697 -0.3112669304220553 0  0.9282385652653626 -0.2755215498044153 0  0.931673921918717 -0.2344996728461513 0  0.9389374493351093 0.2774927869838048 0  0.9380739017173884 0.2311212671678489 0  0.9379280904220602 0.1847525018438318 0  0.9381573181013926 0.138298882264878 0  0.9385829986756113 0.09168715798894303 0  0.9384821216728078 0.04493673284096511 0  0.9378522409772759 -0.001855303113193641 0  0.936690543578782 -0.04862680605033931 0  0.9349894690115784 -0.09527682500333634 0  0.9334430161614928 -0.1417719708469085 0  0.9322256093696749 -0.1881617571089631 0  0.939788031876758 0.3008047027918341 0  0.9383839897834003 0.2542991924934689 0  0.9380095080515978 0.1615401097004482 0  0.9386001638982647 0.06832129234491782 0  0.9373395079692426 -0.0252479766547158 0  0.9341886358915975 -0.1185397464023195 0  0.93183718515833 -0.2113322956572683 0  0.9379436528102446 0.2079431067233004 0  0.9383933978941433 0.1150221714771042 0  0.9382315315926285 0.02154209345958424 0  0.9358669648362908 -0.07197924708826603 0  0.932781910173878 -0.1649775156965938 0  0.7641739062177078 0.4973197729214509 0  0.9287560423282388 0.3728296967438613 0  0.8912815435420323 0.4348626978408383 0  0.8331593385342144 0.4781706220468303 0  0.9339652687773627 0.336605857755073 0  0.9094966668746272 0.4033959370947673 0  0.8627028391265491 0.457086592271381 0  0.7988099652865985 0.4879435980381291 0  0.936666448832237 0.3186557632238485 0  0.9312105560727902 0.3546358787504311 0  0.9189370284827986 0.3880506408346818 0  0.9007612000336302 0.4193069682392901 0  0.8766596077747816 0.4454204021649363 0  0.8479490297283997 0.4677336986601396 0  0.8159434188824188 0.4828812668990696 0  0.7815779371131822 0.4931110486062643 0  -0.02100077251579138 0.6326463893090866 0  0.6964870544339912 0.5082418709652737 0  0.6508890416657921 0.5174412945087074 0  0.6050011230958345 0.5274639515943268 0  0.5588426535417039 0.538173302467956 0  0.5123680150150088 0.549466006739924 0  0.4655674073605656 0.5610508054537631 0  0.4184223358433413 0.5727251307613559 0  0.37091259672562 0.584319305794508 0  0.3229964243812505 0.5954523809861789 0  0.2746958568918573 0.6057385498854968 0  0.2260289015702459 0.6148707620591281 0  0.1770135608515888 0.6226085340570818 0  0.1277050591280328 0.6283480663178572 0  0.07821305585380094 0.631936784903445 0  0.02863132678263209 0.6333138777033452 0  0.741799104152435 0.499999201031922 0  -0.07056502644283846 0.6292520649392821 0  -0.1198931088196126 0.6235684653356525 0  -0.168887548271166 0.6159426781599734 0  -0.217415206039734 0.6066110816840853 0  -0.26549847502751 0.597022912242719 0  -0.3132474865410057 0.5871518291221129 0  -0.3607018260607761 0.5771140903265262 0  -0.4078664045397397 0.567053227860551 0  -0.4547998962190363 0.5572694918705504 0  -0.5015233403133021 0.5477026224970181 0  -0.5480426314316315 0.5384279926259201 0  -0.5943548929056857 0.5295357403436297 0  -0.6404433191834707 0.521144738914545 0  -0.6862936570691196 0.5134509351586218 0  -0.7318983631125885 0.5065597160482481 0  -0.7544562847955086 0.5044799518442032 0  -0.7091071288747171 0.510012500745553 0  -0.6174276290499842 0.5252622033047124 0  -0.5248086036511328 0.5430237083192827 0  -0.4313608341136294 0.5621455089455135 0  -0.3370095951143414 0.5821498691318944 0  -0.2415033055094022 0.6018740545817135 0  -0.144438086051725 0.6199686660211038 0  -0.04580422668538483 0.631247830172456 0  0.05342886535904329 0.6329081050554296 0  0.1523886031808415 0.6257351730719253 0  0.2504070132681342 0.6104731889568543 0  0.3470029645965291 0.5899777773463447 0  0.4420395096694311 0.5668940866332293 0  0.535644492335801 0.5437771370884782 0  0.6279810958201215 0.5223690151165614 0  0.7191552973100327 0.5041329530373686 0  -0.6633988304408066 0.5172012832138194 0  -0.5712247504832412 0.5339313050198066 0  -0.4781872718280548 0.5524546942540903 0  -0.384322123201918 0.5720466146897942 0  -0.2894118117648087 0.5921156691023064 0  -0.193236757541252 0.6113852544043288 0  -0.09526529594127794 0.6266735738261227 0  0.003835139295513797 0.6332849042143103 0  0.1029759467640947 0.6304187413886736 0  0.2015701730706085 0.6189504332989566 0  0.2988932860686543 0.6007204205966179 0  0.3947171460645612 0.5785367709833525 0  0.4890095375508751 0.5552343944605619 0  0.5819565244173669 0.5327164983916093 0  0.6737239194044015 0.5127289892696828 0  -0.933226381383488 0.311047203353547 0  -0.8240535720674276 0.4865483920453559 0  -0.8829919892289856 0.4442042644315511 0  -0.9213255077293508 0.3827507547018523 0  -0.7893827450247274 0.4957058242447371 0  -0.853983986088801 0.4659781818359772 0  -0.9015770530491329 0.413021303280115 0  -0.9269353596598398 0.3466952310579129 0  -0.7720057667793131 0.5005762681686329 0  -0.8066708832267165 0.4909541303259443 0  -0.8390348321260398 0.4763848164311142 0  -0.8681443246515731 0.4545392756583955 0  -0.8926684939673714 0.4288033793686984 0  -0.9112540911025648 0.397832807160062 0  -0.923972995405735 0.3646440893581213 0  -0.9298510170202734 0.3288234360499703 0  -0.9326348823240138 0.287799636469536 0  -0.9299033206248486 -0.2223643779249243 0  -0.9301210956741048 -0.1761555898289743 0  -0.930975120904403 -0.1299264343522275 0  -0.932153995387089 -0.0836147698036174 0  -0.9335171199320217 -0.03715509615331995 0  -0.9342915612234356 0.009429589879846462 0  -0.9344979516749063 0.05603674240676917 0  -0.9341463731380817 0.1026082623008656 0  -0.9332421501964765 0.1490475249117273 0  -0.9325519753667471 0.1953396956081972 0  -0.9322386648195348 0.2415631214349874 0  -0.9302194057160674 -0.2455637262654274 0  -0.9299036513054046 -0.199257175484899 0  -0.9315360088472759 -0.1067838263745421 0  -0.9339776448098647 -0.01386972553604674 0  -0.9343934582082856 0.07933089255528025 0  -0.9328626235923422 0.1722060468804171 0  -0.9323139392447415 0.2646735262357091 0  -0.9304980552096578 -0.1530482134465751 0  -0.9328628166100744 -0.06041390036855306 0  -0.9344628240508704 0.03273404556695701 0  -0.9337174568750106 0.1258566192270759 0  -0.9323390692711596 0.2184557007342081 0  -0.9174367295060796 -0.3169939591601221 0  -0.8781854759844722 -0.3778056613119823 0  -0.8184897418886108 -0.4190651219118386 0  -0.9235606202551663 -0.281124674950498 0  -0.8973234229879919 -0.3470547076056777 0  -0.8487684168143736 -0.3990671934897095 0  -0.7835151407124455 -0.4274502794297748 0  -0.9267130876004537 -0.2633108183760237 0  -0.9203523905742748 -0
[...]
<PointData  Vectors="f_44"> 
<DataArray  type="Float64"  Name="f_44"  NumberOfComponents="3" format="ascii">2.1247692516176661e-01 -6.9665272397738356e-02 0.0000000000000000e+00  2.2207093348969509e-01 -2.6213883162029047e-02 0.0000000000000000e+00  2.2071286931618414e-01 -3.5880039673884999e-02 0.0000000000000000e+00  2.1957711334661989e-01 -4.2269363127064342e-02 0.0000000000000000e+00  2.1915105373510166e-01 -4.4408478912274167e-02 0.0000000000000000e+00  2.1732895210732128e-01 -5.2600261694530852e-02 0.0000000000000000e+00  2.1506057039092236e-01 -6.1218073449875801e-02 0.0000000000000000e+00  2.1330310085854953e-01 -6.7086448221123793e-02 0.0000000000000000e+00  2.1147562123300226e-01 -7.2621428846436645e-02 0.0000000000000000e+00  2.2317069700122952e-01 -1.4088856026805468e-02 0.0000000000000000e+00  2.1215333135042436e-01 -7.0651096231206981e-02 0.0000000000000000e+00  2.1241032789632872e-01 -6.9869594374099883e-02 0.0000000000000000e+00  2.1280307806460558e-01 -6.8668945624855982e-02 0.0000000000000000e+00  2.1415384400886242e-01 -6.4329868849189606e-02 0.0000000000000000e+00  2.1498435108051339e-01 -6.1457578573112209e-02 0.0000000000000000e+00  2.1697463900682443e-01 -5.3795885409058303e-02 0.0000000000000000e+00  2.2040171921046964e-01 -3.7575964041776995e-02 0.0000000000000000e+00  2.1451778642285732e-01 5.4797216028717413e-02 0.0000000000000000e+00  2.2361608648846062e-01 -3.7169207512115958e-04 0.0000000000000000e+00  2.2315289001815616e-01 1.4394060396528732e-02 0.0000000000000000e+00  2.2171043431482909e-01 2.9123118203748275e-02 0.0000000000000000e+00  2.1970060615653661e-01 4.1647456667481840e-02 0.0000000000000000e+00  2.1754705075953445e-01 5.1724879051654224e-02 0.0000000000000000e+00  2.1544321317145115e-01 5.9882262416572352e-02 0.0000000000000000e+00  2.1360089285468437e-01 6.6147014389504807e-02 0.0000000000000000e+00  2.1251955382046023e-01 6.9536899925531748e-02 0.0000000000000000e+00  2.1187866849397122e-01 7.1465833359493802e-02 0.0000000000000000e+00  2.1173552037702931e-01 7.1888756671976903e-02 0.0000000000000000e+00  2.1206854348676890e-01 7.0899872345312739e-02 0.0000000000000000e+00  2.1281890232374751e-01 6.8616424605751403e-02 0.0000000000000000e+00  2.1410733065871543e-01 6.4461796615389422e-02 0.0000000000000000e+00  2.1627124525687313e-01 5.6631840650561538e-02 0.0000000000000000e+00  2.2088270647668093e-01 3.7290721232145517e-02 0.0000000000000000e+00  2.1565936825720242e-01 5.9636668303627315e-02 0.0000000000000000e+00  2.1610531324657958e-01 -5.8274821147960211e-02 0.0000000000000000e+00  2.1436753282903373e-01 -6.3625647720916140e-02 0.0000000000000000e+00  2.1253126585174792e-01 -6.9502009016802771e-02 0.0000000000000000e+00  2.1257901315623359e-01 -6.9347949301530890e-02 0.0000000000000000e+00  2.1275220094891567e-01 -6.8852018394440467e-02 0.0000000000000000e+00  2.1597211312628317e-01 -5.7979795517862580e-02 0.0000000000000000e+00  2.1913977852847100e-01 -4.4473817058659881e-02 0.0000000000000000e+00  2.2139081611665820e-01 -3.1432902963891909e-02 0.0000000000000000e+00  2.1469590394105909e-01 6.2589335852988690e-02 0.0000000000000000e+00  2.2255522311493667e-01 2.1774480614580552e-02 0.0000000000000000e+00  2.1864555025719604e-01 4.6861256117048548e-02 0.0000000000000000e+00  2.1443975559711034e-01 6.3371559670954050e-02 0.0000000000000000e+00  2.1208880685810236e-01 7.0842323087230097e-02 0.0000000000000000e+00  2.1176921679269789e-01 7.1791459574612679e-02 0.0000000000000000e+00  2.1329650766244240e-01 6.7124206271690870e-02 0.0000000000000000e+00  2.2349142649849493e-01 -7.4453246428060850e-03 0.0000000000000000e+00  2.1703684718486826e-01 -4.7416013479242625e-02 0.0000000000000000e+00  2.1257285058730960e-01 6.9376037624252540e-02 0.0000000000000000e+00  2.1172381542561980e-01 7.1924176428068462e-02 0.0000000000000000e+00  2.1307278603892135e-01 6.7825800967782443e-02 0.0000000000000000e+00  2.1646026100562263e-01 5.6090133110852036e-02 0.0000000000000000e+00  2.2070972560201468e-01 3.5927490981102164e-02 0.0000000000000000e+00  2.2350882018958790e-01 6.9578246022571040e-03 0.0000000000000000e+00  2.2268474394952589e-01 -2.0357784257726486e-02 0.0000000000000000e+00  2.2008280005190481e-01 -3.9550711888549847e-02 0.0000000000000000e+00  2.1887554876428250e-01 -4.5799344271837912e-02 0.0000000000000000e+00  2.1410446179565698e-01 -6.4509580920853959e-02 0.0000000000000000e+00  2.1098916186390249e-01 -7.4074047470304119e-02 0.0000000000000000e+00  2.1233559625975906e-01 -7.0096776371634709e-02 0.0000000000000000e+00  2.1363563825366713e-01 -6.6027782667729476e-02 0.0000000000000000e+00  2.1538166017156402e-01 -6.0223597465633411e-02 0.0000000000000000e+00  -2.1509989618807057e-01 3.6965503080587048e-02 0.0000000000000000e+00  1.4163766441056566e-01 1.5321705807573865e-01 0.0000000000000000e+00  2.0762300408673257e-03 2.0490832443474327e-01 0.0000000000000000e+00  -1.4689486715085362e-01 1.3769454169661796e-01 0.0000000000000000e+00  1.8874325994222696e-01 1.1582481543315012e-01 0.0000000000000000e+00  6.1595479583099973e-02 2.1010505875567861e-01 0.0000000000000000e+00  -1.0099028623070290e-01 1.9329207455200975e-01 0.0000000000000000e+00  -2.0555099166205437e-01 7.9339896663764217e-02 0.0000000000000000e+00  1.9611242327043951e-01 1.1259906127058801e-01 0.0000000000000000e+00  2.1298069098028541e-01 9.1112664781679328e-02 0.0000000000000000e+00  7.4155049623636796e-02 2.2039491656971416e-01 0.0000000000000000e+00  8.6856517949625997e-02 2.1475950077767300e-01 0.0000000000000000e+00  -1.2693219331815522e-01 1.9931609971742892e-01 0.0000000000000000e+00  -6.6733681372873638e-02 2.2694806870975409e-01 0.0000000000000000e+00  -2.2820109034260266e-01 5.7190131869654985e-02 0.0000000000000000e+00  -2.0640850981811418e-01 9.4904163064526786e-02 0.0000000000000000e+00  -2.2586937992744904e-01 -1.1545936578306630e-02 0.0000000000000000e+00  -2.2484042385210212e-01 2.5246085751026916e-02 0.0000000000000000e+00  -2.2368949987657880e-01 4.8669807637870084e-03 0.0000000000000000e+00  -2.2361350261277871e-01 -6.7044439461490767e-04 0.0000000000000000e+00  -2.2357276809430468e-01 -3.8263411502807952e-03 0.0000000000000000e+00  -2.2359557189338575e-01 -2.0809279139790910e-03 0.0000000000000000e+00  -2.2357927609954345e-01 3.5087821496652570e-03 0.0000000000000000e+00  -2.2344384584052046e-01 8.5356965545538878e-03 0.0000000000000000e+00  -2.2315624481181456e-01 1.4165789120607191e-02 0.0000000000000000e+00  -2.2301572728475552e-01 1.6232271586321654e-02 0.0000000000000000e+00  -2.2320192941303346e-01 1.3571652368973407e-02 0.0000000000000000e+00  -2.2357567345336621e-01 8.4546673408892620e-03 0.0000000000000000e+00  -2.1671963596753305e-01 -2.4928975694293146e-02 0.0000000000000000e+00  -2.2302662838214454e-01 4.9567636629169248e-03 0.0000000000000000e+00  -2.2359593715503845e-01 -2.1854107866210630e-03 0.0000000000000000e+00  -2.2360775550254522e-01 1.0899189413408712e-03 0.0000000000000000e+00  -2.2334086998020578e-01 1.0976034923135120e-02 0.0000000000000000e+00  -2.2311362439045157e-01 1.4835675285014801e-02 0.0000000000000000e+00  -2.2293810842169304e-01 8.7572958241241752e-03 0.0000000000000000e+00  -2.2357371126648354e-01 1.0606426006740371e-03 0.0000000000000000e+00  -2.2356147919354025e-01 -4.6494540900050155e-03 0.0000000000000000e+00  -2.2352781648240380e-01 6.0170884043223051e-03 0.0000000000000000e+00  -2.2297542146707827e-01 1.6829719270117983e-02 0.0000000000000000e+00  -2.2325079369412032e-01 1.2084798681725272e-02 0.0000000000000000e+00  2.1156704165732296e-01 -6.8368315879672403e-02 0.0000000000000000e+00  -1.5392525585536435e-01 -1.2968099140196318e-01 0.0000000000000000e+00  -8.3567222219165811e-03 -2.0521737005965140e-01 0.0000000000000000e+00  1.3256997863690809e-01 -1.6180165892386397e-01 0.0000000000000000e+00  -2.0974046592831236e-01 -6.7365294790719232e-02 0.0000000000000000e+00  -1.1185252441156503e-01 -1.8725400444333731e-01 0.0000000000000000e+00  4.8569287126919443e-02 -2.1348298096239068e-01 0.0000000000000000e+00  1.8142667727890280e-01 -1.2736147646721838e-01 0.0000000000000000e+00  -2.1141938949590927e-01 -8.3179338523603194e-02 0.0000000000000000e+00  -2.3089823017602701e-01 -4.5186923131008243e-02 0.0000000000000000e+00  -7.8267363427072134e-02 -2.2329246319053983e-01 0.0000000000000000e+00  -1.3686693731977403e-01 -1.9243159862870493e-01 0.0000000000000000e+00  7.2297362149912781e-02 -2.1957559642934490e-01 0.0000000000000000e+00  6.3807252725020858e-02 -2.2331774775439317e-01 0.0000000000000000e+00  2.0661083031413860e-01 -1.0424392235569295e-01 0.0000000000000000e+00  1.9095392898412294e-01 -1.1998149042631159e-01 0.0000000000000000e+00  2.2285354071564981e-01 1.8449156434007064e-02 0.0000000000000000e+00  2.0872991940472924e-01 -7.9932718563278923e-02 0.0000000000000000e+00  2.0462692632339383e-01 -9.0117213268040661e-02 0.0000000000000000e+00  2.0214820075160178e-01 -9.5585572599139079e-02 0.0000000000000000e+00  1.9935934592625779e-01 -1.0127550584926895e-01 0.0000000000000000e+00  1.9812843776155595e-01 -1.0365854634237567e-01 0.0000000000000000e+00  1.9760381332459914e-01 -1.0465526474680759e-01 0.0000000000000000e+00  1.9809272486283563e-01 -1.0372673649257518e-01 0.0000000000000000e+00  1.9916827881929200e-01 -1.0164881901954845e-01 0.0000000000000000e+00  2.0233015790024939e-01 -9.5207253521883195e-02 0.0000000000000000e+00  2.0616201994333955e-01 -8.6608888493742126e-02 0.0000000000000000e+00  2.1050919326915124e-01 -7.5437173536373192e-02 0.0000000000000000e+00  2.1523981245632953e-01 -6.0634635744672441e-02 0.0000000000000000e+00  2.1962160338120981e-01 -4.2113659379984340e-02 0.0000000000000000e+00  2.2249772577349697e-01 -2.2521174765228490e-02 0.0000000000000000e+00  2.2360669762710894e-01 -3.3711093179187570e-03 0.0000000000000000e+00  2.1489984154409181e-01 -6.1225549601217344e-02 0.0000000000000000e+00  2.1981399150963865e-01 4.1041161826228592e-02 0.0000000000000000e+00  2.1538312595813036e-01 6.0089941186281082e-02 0.0000000000000000e+00  2.1011801051505108e-01 7.6461822547812294e-02 0.0000000000000000e+00  2.0687814765791446e-01 8.4851018625192898e-02 0.0000000000000000e+00  2.0571274364067904e-01 8.7655102192526022e-02 0.0000000000000000e+00  2.0479613228232543e-01 8.9770672459780682e-02 0.0000000000000000e+00  2.0402636649349765e-01 9.1504902815127034e-02 0.0000000000000000e+00  2.0469055452987070e-01 9.0009767177040248e-02 0.0000000000000000e+00  2.0520600023827734e-01 8.8827928851585317e-02 0.0000000000000000e+00  2.0601140858232783e-01 8.6944409756469790e-02 0.0000000000000000e+00  2.0707096844463405e-01 8.4390121014333977e-02 0.0000000000000000e+00  2.0836586558279446e-01 8.1139104901467973e-02 0.0000000000000000e+00  2.1030576762071601e-01 7.5938330882057078e-02 0.0000000000000000e+00  2.1327497159079883e-01 6.6931215474830427e-02 0.0000000000000000e+00  2.1832657907682715e-01 4.8267836675617688e-02 0.0000000000000000e+00  2.1424140305510628e-01 5.8531902316402949e-02 0.0000000000000000e+00  2.1253500909428480e-01 7.0301407436951874e-02 0.0000000000000000e+00  2.0921501652008026e-01 7.8939320000856128e-02 0.0000000000000000e+00  2.0649344448502535e-01 8.5794573844762217e-02 0.0000000000000000e+00  2.0499935352653739e-01 8.9305408753028642e-02 0.0000000000000000e+00  2.0447497624217836e-01 9.0499279689907230e-02 0.0000000000000000e+00  2.0660369963327455e-01 8.5523726106528919e-02 0.0000000000000000e+00  2.1311808986699091e-01 6.7789595808821462e-02 0.0000000000000000e+00  2.2151534329399716e-01 3.0839891540757260e-02 0.0000000000000000e+00  2.2327991667445110e-01 -1.2138996410412930e-02 0.0000000000000000e+00  2.1765655159017308e-01 -5.1336080639674736e-02 0.0000000000000000e+00  2.0839387861915870e-01 -8.1073856476647152e-02 0.0000000000000000e+00  2.0066586458074750e-01 -9.8661330459037702e-02 0.0000000000000000e+00  1.9772844823364571e-01 -1.0441978132943898e-01 0.0000000000000000e+00  1.9863907343671441e-01 -1.0267757527003196e-01 0.0000000000000000e+00  2.0316704863650978e-01 -9.3414914256731735e-02 0.0000000000000000e+00  2.0801614989344450e-01 -8.2827940148204077e-02 0.0000000000000000e+00  2.1113547096602911e-01 7.3757467434092061e-02 0.0000000000000000e+00  2.0769776276958549e-01 8.2837789426863442e-02 0.0000000000000000e+00  2.0561309853853293e-01 8.7883158450928742e-02 0.0000000000000000e+00  2.0403468774846070e-01 9.1487746956633614e-02 0.0000000000000000e+00  2.0528770958881537e-01 8.8637684214221746e-02 0.0000000000000000e+00  2.0722325153482857e-01 8.4066270536535218e-02 0.0000000000000000e+00  2.1774688146933760e-01 5.0980375622141215e-02 0.0000000000000000e+00  2.2357309774062850e-01 5.2425560347348346e-03 0.0000000000000000e+00  2.2128920802439914e-01 -3.2216123771486069e-02 0.0000000000000000e+00  2.1261280082988396e-01 -6.9292361335521413e-02 0.0000000000000000e+00  2.0416528699644096e-01 -9.1200976177405371e-02 0.0000000000000000e+00  1.9838891990882460e-01 -1.0316087468789766e-01 0.0000000000000000e+00  1.9774672812867206e-01 -1.0438548966665168e-01 0.0000000000000000e+00  2.0076029687810282e-01 -9.8465674545677173e-02 0.0000000000000000e+00  2.0582465500314426e-01 -8.7521214580020337e-02 0.0000000000000000e+00  -2.1581602076661291e-01 3.0555856196969048e-02 0.0000000000000000e+00  1.3867640380643023e-01 1.5658812715676118e-01 0.0000000000000000e+00  -1.6272110734206337e-03 2.0513575321315689e-01 0.0000000000000000e+00  -1.4996719735329128e-01 1.3353040120636503e-01 0.0000000000000000e+00  1.8605264074211567e-01 1.2039946932655005e-01 0.0000000000000000e+00  5.5592087495200955e-02 2.1172581326106202e-01 0.0000000000000000e+00  -1.0670461963059868e-01 1.9009429820687429e-01 0.0000000000000000e+00  -2.0802544645842339e-01 7.2363134213483699e-02 0.0000000000000000e+00  1.9509050248878163e-01 1.1352100814653351e-01 0.0000000000000000e+00  2.1042463485211585e-01 9.6345230973280516e-02 0.0000000000000000e+00  7.1693632400123650e-02 2.2098688653444049e-01 0.0000000000000000e+00  7.9885885714116214e-02 2.1702674854664006e-01 0.0000000000000000e+00  -1.3236870739507811e-01 1.9587376535813605e-01 0.0000000000000000e+00  -7.0898079276039069e-02 2.2605525785633795e-01 0.0000000000000000e+00  -2.3004540706378374e-01 5.0369855412592257e-02 0.0000000000000000e+00  -2.0908378050441495e-01 8.9035704451604178e-02 0.0000000000000000e+00  -2.2541662584967506e-01 -2.0734978360580674e-02 0.0000000000000000e+00  -2.2572593386966236e-01 1.4582616224298480e-02 0.0000000000000000e+00  -2.2368132723881778e-01 -5.0941244028708983e-03 0.0000000000000000e+00  -2.2338783814608382e-01 -1.0062305627355500e-02 0.0000000000000000e+00  -2.2323186367127451e-01 -1.2914240128271869e-02 0.0000000000000000e+00  -2.2334356018642240e-01 -1.0804403656208654e-02 0.0000000000000000e+00  -2.2355790242735601e-01 -4.6694284335851398e-03 0.0000000000000000e+00  -2.2360573577185910e-01 6.8168524321138508e-04 0.0000000000000000e+00  -2.2350735641992955e-01 6.6073406174264179e-03 0.0000000000000000e+00  -2.2344809229319232e-01 8.3825351678124046e-03 0.0000000000000000e+00  -2.2355704942871304e-01 5.0945634321188215e-03 0.0000000000000000e+00  -2.2375068208941146e-01 -3.5757998319197940e-04 0.0000000000000000e+00  -2.1547429892890343e-01 -3.4443553197430865e-02 0.0000000000000000e+00  -2.2302862023059736e-01 -5.5338778638281466e-03 0.0000000000000000e+00  -2.2331991194835438e-01 -1.1320219733755256e-02 0.0000000000000000e+00  -2.2349281670410559e-01 -7.2805879535509316e-03 0.0000000000000000e+00  -2.2358738867248015e-01 3.2420284961550880e-03 0.0000000000000000e+00  -2.2350838082030935e-01 6.6293309814744617e-03 0.0000000000000000e+00  -2.2305004068661011e-01 -4.7265541143274664e-04 0.0000000000000000e+00  -2.2341094774675613e-01 -8.5986720382203747e-03 0.0000000000000000e+00  -2.2318836053014227e-01 -1.3735829884877876e-02 0.0000000000000000e+00  -2.2360041116993376e-01 -1.9734814068310211e-03 0.0000000000000000e+00  -2.2341638817035206e-01 9.3096964429840046e-03 0.0000000000000000e+00  -2.2354848613059539e-01 3.3621552859306198e-03 0.0000000000000000e+00  -1.4673674384299945e-01 -1.3790884219036345e-01 0.0000000000000000e+00  4.6484468918862780e-03 -2.0517087420834274e-01 0.0000000000000000e+00  1.4466249784554056e-01 -1.5074792413655086e-01 0.0000000000000000e+00  -2.0585356437716065e-01 -7.8337993162161904e-02 0.0000000000000000e+00  -9.9749536849810444e-02 -1.9392225073721955e-01 0.0000000000000000e+00  6.4315753768449863e-02 -2.0916721692533294e-01 0.0000000000000000e+00  1.9206763404295404e-01 -1.1041304584947118e-01 0.0000000000000000e+00  -2.0729240895622333e-01 -9.3136447299249303e-02 0.0000000000000000e+00  -2.2825084743511462e-01 -5.7172118644816403e-02 0.0000000000000000e+00  -6.6279235367269415e-02 -2.2708008403580904e-01 0.0000000000000000e+00  -1.2424825068753459e-01 -2.0087000650924877e-01 0.0000000000000000e+00  8.7728976360087099e-02 -2.1419452743749437e-01 0.0000000000000000e+00  7.9482310919761406e-02 -2.1843845804794826e-01 0.0000000000000000e+00  2.1473011356631386e-01 -8.6765525295009485e-02 0.0000000000000000e+00  2.0121735384155059e-01 -1.0218097703702704e-01 0.0000000000000000e+00  1.6292683631900520e-01 1.5325749265415067e-01 0.0000000000000000e+00  1.5517338052994545e-01 1.6116690338410147e-01 0.0000000000000000e+00  2.2349735116198172e-01 -8.3128670186767752e-03 0.0000000000000000e+00  9.8811733466500393e-02 -2.0079770451565654e-01 0.0000000000000000e+00  5.7598557630323094e-02 -2.1626769976663052e-01 0.0000000000000000e+00  2.0827648788132899e-01 -8.1607022898846818e-02 0.0000000000000000e+00  -1.7890932590049505e-01 1.3436632938002932e-01 0.0000000000000000e+00  -1.8433957286315689e-01 1.2680754244520567e-01 0.0000000000000000e+00  -1.8138023570428247e-01 -1.3099259367300664e-01 0.0000000000000000e+00  -1.9291207850576000e-01 -1.1330343149822715e-01 0.0000000000000000e+00  4.7016862917459296e-03 -2.2379668279979623e-01 0.0000000000000000e+00  -1.6035548033545713e-01 -1.5610781881593336e-01 0.0000000000000000e+00  -1.3689556947686476e-01 -1.7724947380092435e-01 0.0000000000000000e+00  -2.1848043497361827e-01 4.8640763248527480e-02 0.0000000000000000e+00  -1.9702418986623668e-01 1.0665484754816358e-01 0.0000000000000000e+00  -2.2303717385050739e-01 1.7721368681626454e-02 0.0000000000000000e+00  -1.7391797531086741e-02 -2.2382908346188835e-01 0.0000000000000000e+00  2.6169763811273904e-02 2.2251074415200400e-01 0.0000000000000000e+00  2.2387177996363167e-01 1.8901948125488086e-03 0.0000000000000000e+00  2.0376341975026463e-01 9.2264711533651095e-02 0.0000000000000000e+00  1.1778206036178795e-01 1.9034786823976446e-01 0.0000000000000000e+00  1.3063448256221324e-01 -1.8256375466965599e-01 0.0000000000000000e+00  -1.9641368726565128e-01 1.0812530608493259e-01 0.0000000000000000e+00  3.5736022862612890e-02 -2.2098025129415461e-01 0.0000000000000000e+00  -1.3644595250835168e-01 -1.7740470232322125e-01 0.0000000000000000e+00  -2.2373966886158339e-01 -2.1395331314363539e-03 0.0000000000000000e+00  -1.2698252274948618e-01 1.8430125744076417e-01 0.0000000000000000e+00  5.1610683758990271e-02 2.1780713847416361e-01 0.0000000000000000e+00  2.1638744050524181e-01 5.6617697198823085e-02 0.0000000000000000e+00  3.3252343405488625e-02 2.2134974677927619e-01 0.0000000000000000e+00  1.0280009971295066e-01 1.9873266646395679e-01 0.0000000000000000e+00  1.2749302930189954e-01 -1.8390840089623323e-01 0.0000000000000000e+00  -5.6600838946819929e-02 2.1654786600827167e-01 0.0000000000000000e+00  2.0281770295892204e-01 9.4342625124887225e-02 0.0000000000000000e+00  1.7506203022034220e-01 -1.3933060848582884e-01 0.0000000000000000e+00  -1.1337785549211638e-01 1.9295470484511787e-01 0.0000000000000000e+00  -8.9370365835468521e-02 -2.0541066608437314e-01 0.0000000000000000e+00  -2.2243791022442666e-01 2.5624470917790094e-02 0.0000000000000000e+00  1.0882396100352763e-01 1.9551800926294377e-01 0.0000000000000000e+00  -5.1669671551084533e-02 2.1772310742566431e-01 0.0000000000000000e+00  5.2022223323954432e-02 2.1768045395218155e-01 0.00000000