<?xml version="1.0"?>
<VTKFile type="UnstructuredGrid"  version="0.1"  >
<UnstructuredGrid>
<Piece  NumberOfPoints="4153" NumberOfCells="8064">
<Points>
<DataArray  type="Float64"  NumberOfComponents="3"  format="ascii">-0.4249999999999999 -0.5 0  -0.02499999999999988 -0.5 0  -0.07499999999999987 -0.5 0  -0.1249999999999998 -0.5 0  -0.1749999999999998 -0.5 0  -0.2249999999999998 -0.5 0  -0.2749999999999998 -0.5 0  -0.3249999999999998 -0.5 0  -0.3749999999999999 -0.5 0  0.02500000000000016 -0.5 0  -0.4749999999999998 -0.5 0  -0.5249999999999998 -0.5 0  -0.5749999999999998 -0.5 0  -0.6249999999999999 -0.5 0  -0.6749999999999999 -0.5 0  -0.725 -0.5 0  -0.775 -0.5 0  0.8 -0.5 0  0.07500000000000025 -0.5 0  0.1250000000000003 -0.5 0  0.1750000000000004 -0.5 0  0.2250000000000004 -0.5 0  0.2750000000000004 -0.5 0  0.3250000000000003 -0.5 0  0.3750000000000001 -0.5 0  0.4250000000000002 -0.5 0  0.4750000000000002 -0.5 0  0.5250000000000001 -0.5 0  0.5750000000000002 -0.5 0  0.625 -0.5 0  0.675 -0.5 0  0.725 -0.5 0  0.775 -0.5 0  0.75 -0.5 0  -0.75 -0.5 0  -0.6499999999999999 -0.5 0  -0.5499999999999998 -0.5 0  -0.4499999999999998 -0.5 0  -0.3499999999999999 -0.5 0  -0.2499999999999998 -0.5 0  -0.1499999999999998 -0.5 0  -0.04999999999999988 -0.5 0  0.7 -0.5 0  0.1500000000000004 -0.5 0  0.2500000000000003 -0.5 0  0.3500000000000002 -0.5 0  0.4500000000000002 -0.5 0  0.5500000000000002 -0.5 0  0.65 -0.5 0  0.0500000000000002 -0.5 0  -0.8 -0.5 0  0.6000000000000001 -0.5 0  0.5000000000000002 -0.5 0  0.4000000000000001 -0.5 0  0.3000000000000003 -0.5 0  0.2000000000000004 -0.5 0  0.1000000000000003 -0.5 0  1.110223024625157e-16 -0.5 0  -0.09999999999999987 -0.5 0  -0.1999999999999998 -0.5 0  -0.2999999999999998 -0.5 0  -0.3999999999999999 -0.5 0  -0.4999999999999998 -0.5 0  -0.5999999999999999 -0.5 0  -0.7 -0.5 0  1 -0.3 0  0.8765366864730179 -0.4847759065022574 0  0.9414213562373094 -0.4414213562373097 0  0.9847759065022573 -0.3765366864730181 0  0.838268343236509 -0.4923879532511287 0  0.9089790213551636 -0.4630986313697836 0  0.9630986313697834 -0.4089790213551639 0  0.9923879532511286 -0.338268343236509 0  0.8191341716182545 -0.4961939766255644 0  0.8574025148547635 -0.488581929876693 0  0.8927578539140908 -0.4739372689360205 0  0.9252001887962364 -0.4522599938035466 0  0.9522599938035463 -0.4252001887962368 0  0.9739372689360204 -0.392757853914091 0  0.9885819298766929 -0.3574025148547635 0  0.9961939766255643 -0.3191341716182545 0  1 -0.275 0  1 0.275 0  1 0.225 0  1 0.175 0  1 0.125 0  1 0.07499999999999994 0  1 0.02499999999999987 0  1 -0.0250000000000002 0  1 -0.07500000000000026 0  1 -0.1250000000000003 0  1 -0.1750000000000002 0  1 -0.2250000000000001 0  1 0.3 0  1 0.25 0  1 0.15 0  1 0.04999999999999991 0  1 -0.05000000000000023 0  1 -0.1500000000000002 0  1 -0.2500000000000001 0  1 0.2 0  1 0.09999999999999998 0  1 -1.665334536937735e-16 0  1 -0.1000000000000003 0  1 -0.2000000000000002 0  0.8 0.5 0  0.9847759065022573 0.3765366864730181 0  0.9414213562373094 0.4414213562373097 0  0.8765366864730179 0.4847759065022574 0  0.9923879532511286 0.338268343236509 0  0.9630986313697834 0.4089790213551639 0  0.9089790213551636 0.4630986313697836 0  0.838268343236509 0.4923879532511287 0  0.9961939766255643 0.3191341716182545 0  0.9885819298766929 0.3574025148547635 0  0.9739372689360204 0.392757853914091 0  0.9522599938035463 0.4252001887962368 0  0.9252001887962364 0.4522599938035466 0  0.8927578539140908 0.4739372689360205 0  0.8574025148547635 0.488581929876693 0  0.8191341716182545 0.4961939766255644 0  -0.02500000000000016 0.5 0  0.725 0.5 0  0.6749999999999999 0.5 0  0.6249999999999999 0.5 0  0.5749999999999998 0.5 0  0.5249999999999998 0.5 0  0.4749999999999998 0.5 0  0.4249999999999999 0.5 0  0.3749999999999999 0.5 0  0.3249999999999998 0.5 0  0.2749999999999998 0.5 0  0.2249999999999998 0.5 0  0.1749999999999998 0.5 0  0.1249999999999998 0.5 0  0.07499999999999987 0.5 0  0.02499999999999988 0.5 0  0.775 0.5 0  -0.07500000000000025 0.5 0  -0.1250000000000003 0.5 0  -0.1750000000000004 0.5 0  -0.2250000000000004 0.5 0  -0.2750000000000004 0.5 0  -0.3250000000000003 0.5 0  -0.3750000000000001 0.5 0  -0.4250000000000002 0.5 0  -0.4750000000000002 0.5 0  -0.5250000000000001 0.5 0  -0.5750000000000002 0.5 0  -0.625 0.5 0  -0.675 0.5 0  -0.725 0.5 0  -0.775 0.5 0  -0.8 0.5 0  -0.75 0.5 0  -0.65 0.5 0  -0.5500000000000002 0.5 0  -0.4500000000000002 0.5 0  -0.3500000000000002 0.5 0  -0.2500000000000003 0.5 0  -0.1500000000000004 0.5 0  -0.0500000000000002 0.5 0  0.04999999999999988 0.5 0  0.1499999999999998 0.5 0  0.2499999999999998 0.5 0  0.3499999999999999 0.5 0  0.4499999999999998 0.5 0  0.5499999999999998 0.5 0  0.6499999999999999 0.5 0  0.75 0.5 0  -0.7 0.5 0  -0.6000000000000001 0.5 0  -0.5000000000000002 0.5 0  -0.4000000000000001 0.5 0  -0.3000000000000003 0.5 0  -0.2000000000000004 0.5 0  -0.1000000000000003 0.5 0  -1.110223024625157e-16 0.5 0  0.09999999999999987 0.5 0  0.1999999999999998 0.5 0  0.2999999999999998 0.5 0  0.3999999999999999 0.5 0  0.4999999999999998 0.5 0  0.5999999999999999 0.5 0  0.7 0.5 0  -1 0.3 0  -0.8765366864730181 0.4847759065022573 0  -0.9414213562373097 0.4414213562373094 0  -0.9847759065022574 0.3765366864730179 0  -0.838268343236509 0.4923879532511287 0  -0.9089790213551638 0.4630986313697834 0  -0.9630986313697836 0.4089790213551636 0  -0.9923879532511287 0.338268343236509 0  -0.8191341716182545 0.4961939766255643 0  -0.8574025148547635 0.488581929876693 0  -0.892757853914091 0.4739372689360203 0  -0.9252001887962368 0.4522599938035464 0  -0.9522599938035466 0.4252001887962365 0  -0.9739372689360205 0.3927578539140908 0  -0.9885819298766931 0.3574025148547634 0  -0.9961939766255643 0.3191341716182545 0  -1 0.275 0  -1 -0.275 0  -1 -0.225 0  -1 -0.175 0  -1 -0.125 0  -1 -0.07499999999999994 0  -1 -0.02499999999999987 0  -1 0.0250000000000002 0  -1 0.07500000000000026 0  -1 0.1250000000000003 0  -1 0.1750000000000002 0  -1 0.2250000000000001 0  -1 -0.3 0  -1 -0.25 0  -1 -0.15 0  -1 -0.04999999999999991 0  -1 0.05000000000000023 0  -1 0.1500000000000002 0  -1 0.2500000000000001 0  -1 -0.2 0  -1 -0.09999999999999998 0  -1 1.665334536937735e-16 0  -1 0.1000000000000003 0  -1 0.2000000000000002 0  -0.9847759065022574 -0.3765366864730179 0  -0.9414213562373096 -0.4414213562373094 0  -0.8765366864730181 -0.4847759065022573 0  -0.9923879532511287 -0.338268343236509 0  -0.9630986313697836 -0.4089790213551636 0  -0.9089790213551638 -0.4630986313697834 0  -0.838268343236509 -0.4923879532511287 0  -0.9961939766255643 -0.3191341716182545 0  -0.9885819298766931 -0.3574025148547634 0  -0.9739372689360205 -0.3927578539140908 0  -0.9522599938035465 -0.4252001887962365 0  -0.9252001887962367 -0.4522599938035464 0  -0.892757853914091 -0.4739372689360203 0  -0.8574025148547635 -0.488581929876693 0  -0.8191341716182545 -0.4961939766255643 0  -0.3000000000000003 0.3267949192431125 0  0.3181343990330772 -0.3439416921723297 0  -0.08257249764926196 -0.3383308877677023 0  -0.50979744334887 -0.3255818518047211 0  0.5060441378325211 0.3274561643884037 0  0.1037631564626732 0.3131559137665553 0  0.843149210446875 -0.1923130104173427 0  -0.8418263458721231 0.1927503215247096 0  -0.8408809410250262 -0.1897116835785854 0  0.8409071959036176 0.1896235182386696 0  0.705967194587281 0.3354524287114743 0  0.6276370409402552 0.1658336215477063 0  0.4215070288293651 0.1446794873901968 0  0.5369019087152576 -0.01677883310260353 0  0.3378219718963524 -0.0304857337078401 0  0.7359191653189867 -0.0003779706345871367 0  0.2206709281181736 0.1292871338121241 0  0.1390057666500616 -0.05482518983879574 0  0.02156604114872933 0.1091113821954512 0  -0.05991856886335568 -0.07544049830328706 0  -0.2091026540303009 0.113218101697482 0  -0.2557387210741711 -0.08957125969209863 0  -0.3742518736706093 0.02381865171750689 0  -0.7065883696935737 -0.3351547375041799 0  -0.6319769825415822 -0.1640183941417108 0  -0.7379485134301987 -0.0003221286420197649 0  -0.6263925638672921 0.1747922261462193 0  0.7000000000000003 -0.3471147448144379 0  -0.09731754444756222 0.2985839976753261 0  -0.7019016658227 0.339872535812372 0  -0.5036626740707574 0.3416097573515475 0  0.3086642085404555 0.31909644989288 0  0.4355889359290377 -0.1794947220360297 0  0.1233906847482294 -0.33992001942789 0  -0.2910439982708135 -0.2942818290560931 0  0.6252598700683595 -0.1832373653183336 0  -0.4390211493546888 -0.1414717198202583 0  -0.5445756908252299 0.01225332998817602 0  0.5094027625036279 -0.3483114655372777 0  -0.8570298735864267 0.3548088427148782 0  0.2432245006188761 -0.181388344807941 0  0.8576591493456415 0.3532994606374906 0  -0.8577781333911819 -0.3532575554640149 0  0.856914113336837 -0.3561698222938181 0  -0.4103395160999327 0.186370105143853 0  0.04059278020228735 -0.1932320619509051 0  -0.894759031223147 0.000141425932117211 0  0.8948577502800618 -0.0001596971477125707 0  -0.1430838089440986 -0.1942958300671257 0  -0.4774576034625814 0.09931171756601452 0  -0.5183660399836124 0.1805811656450362 0  -0.585484127346261 0.09352277806719765 0  -0.3551697580499665 0.2565825121934828 0  -0.3097210850651168 0.1497941034206675 0  -0.2545513270151506 0.2200065104702973 0  -0.3922956948852711 0.10509437843068 0  -0.4594137822479196 0.01803599085284146 0  -0.1532100992389315 0.205901049686404 0  -0.1986587722237813 0.3126894584592193 0  -0.1486587722237813 0.399291998837663 0  -0.04865877222378117 0.399291998837663 0  0.5673313162859936 -0.2657744154278056 0  0.6047013812518141 -0.3477131051758577 0  0.6626299350341799 -0.2651760550663858 0  0.4724958492163328 -0.2639030937866537 0  0.5304244029986986 -0.1813660436771817 0  -0.3650325738127511 -0.2178767744381757 0  -0.4744092963517794 -0.2335267858124897 0  -0.4004207208098418 -0.3099318404304071 0  -0.3473799352144299 -0.1155214897561785 0  -0.2733913596724923 -0.1919265443740958 0  0.06266459880570127 0.2111336479810033 0  0.1211184846334515 0.1191992580037876 0  0.1622170422904234 0.2212215237893397 0  
[...]
<CellData  Scalars="f_100"> 
<DataArray  type="Float64"  Name="f_100"  format="ascii">1.1174579683626758e-01   1.1174538050175030e-01   1.1174098474649656e-01   1.1174710140630753e-01   1.1174111233872339e-01   1.1174265783051146e-01   1.1174322172973798e-01   1.1174712196661406e-01   1.1173582544397419e-01   1.1173662874574924e-01   1.1173036229680289e-01   1.1173795262108610e-01   1.1174851025719952e-01   1.1174889877216952e-01   1.1174443177512457e-01   1.1175000399996009e-01   1.1173197416918963e-01   1.1173303872930600e-01   1.1173500426471693e-01   1.1173916673525386e-01   1.1173577115680254e-01   1.1174169346175238e-01   1.1174243396843760e-01   1.1174016610692579e-01   1.1173798340420583e-01   1.1173852227779224e-01   1.1174089274266771e-01   1.1174418991467232e-01   1.1174534787563740e-01   1.1174628096502610e-01   1.1174747294042613e-01   1.1175069501859232e-01   1.1172466954058717e-01   1.1172721228944996e-01   1.1171885744375973e-01   1.1172799558497604e-01   1.1172242800056305e-01   1.1172293147860116e-01   1.1172662760057665e-01   1.1173079776454355e-01   1.1171307460260053e-01   1.1171772790815565e-01   1.1170750549851900e-01   1.1171798305187086e-01   1.1173132664232766e-01   1.1173427878562259e-01   1.1172693447937693e-01   1.1173462248533088e-01   1.1175156309114335e-01   1.1175249640716085e-01   1.1174818097549589e-01   1.1175316865683589e-01   1.1174958145146828e-01   1.1175010936926966e-01   1.1175166027286412e-01   1.1175429032231946e-01   1.1174472738105841e-01   1.1174664031882023e-01   1.1174126031990061e-01   1.1174702120598988e-01   1.1175480309801379e-01   1.1175606584765256e-01   1.1175204618475826e-01   1.1175645048982616e-01   1.1173334946523866e-01   1.1172358747727185e-01   1.1173179254166450e-01   1.1172358571160490e-01   1.1172176183489610e-01   1.1172168752793700e-01   1.1170956630148458e-01   1.1171163802636766e-01   1.1173018957600098e-01   1.1172013819103808e-01   1.1172857622300446e-01   1.1171974506901934e-01   1.1171162621991920e-01   1.1169690724849313e-01   1.1170928169852283e-01   1.1169675402566422e-01   1.1171876530153159e-01   1.1171782015223997e-01   1.1170640583230169e-01   1.1170780114974936e-01   1.1170462198763360e-01   1.1169276318714624e-01   1.1169092584064869e-01   1.1170691176923329e-01   1.1169147051884953e-01   1.1168823882706577e-01   1.1167335542827306e-01   1.1167430899928285e-01   1.1169460136722506e-01   1.1169382323659852e-01   1.1167606315407129e-01   1.1167853212021214e-01   1.1172700426066379e-01   1.1171768810961112e-01   1.1172553751298468e-01   1.1171599531578251e-01   1.1171694419996331e-01   1.1171436518439845e-01   1.1170492379116043e-01   1.1170543374375670e-01   1.1172424563966597e-01   1.1171656090643754e-01   1.1172319687319160e-01   1.1171302542074324e-01   1.1170254165855417e-01   1.1169078022501223e-01   1.1170080696112321e-01   1.1168595901689472e-01   1.1167793459051209e-01   1.1165533767266171e-01   1.1167423980300153e-01   1.1165363939961714e-01   1.1165290020663302e-01   1.1164898239066758e-01   1.1162376769070270e-01   1.1162573310120892e-01   1.1167072505934794e-01   1.1165155084337275e-01   1.1166767886053586e-01   1.1164483698330778e-01   1.1162156210053280e-01   1.1158760809552583e-01   1.1161580626943676e-01   1.1157817918987656e-01   1.1168527936066387e-01   1.1168948156371178e-01   1.1168621713649228e-01   1.1169770860444223e-01   1.1168967432973667e-01   1.1169834780464455e-01   1.1170140435900565e-01   1.1170136904092205e-01   1.1168797587900040e-01   1.1169074962982023e-01   1.1169044564082818e-01   1.1169966298457454e-01   1.1170829462709210e-01   1.1171150017483528e-01   1.1170871986722085e-01   1.1171738127628943e-01   1.1169261597324769e-01   1.1170157446168366e-01   1.1170356669951320e-01   1.1170215845452774e-01   1.1171119318869344e-01   1.1171195304120579e-01   1.1171839090043009e-01   1.1170970551252803e-01   1.1171301890654790e-01   1.1171955404294472e-01   1.1172122596984316e-01   1.1172041821357577e-01   1.1171143140627321e-01   1.1171765224658602e-01   1.1172006598149574e-01   1.1172020260079046e-01   1.1169350479526532e-01   1.1169516023282257e-01   1.1169702926248824e-01   1.1170399200907134e-01   1.1169825880444767e-01   1.1170682148485905e-01   1.1170800701243511e-01   1.1170554689412644e-01   1.1170089977594030e-01   1.1170178715881103e-01   1.1170500698801575e-01   1.1170997030837400e-01   1.1171311535945160e-01   1.1171456866073148e-01   1.1171540011416294e-01   1.1172109068466668e-01   1.1172523648843659e-01   1.1172773140521146e-01   1.1172539577049512e-01   1.1173207138623005e-01   1.1172755172345331e-01   1.1173214965768843e-01   1.1173408177254016e-01   1.1173428747778258e-01   1.1172594785646763e-01   1.1172777985686624e-01   1.1172686048562723e-01   1.1173255986253350e-01   1.1173805403941328e-01   1.1174003069595399e-01   1.1173807359244518e-01   1.1174331951522060e-01   1.1143635405777270e-01   1.1150545322931683e-01   1.1145259968743626e-01   1.1150584069782007e-01   1.1152160582460072e-01   1.1152188688355695e-01   1.1157277161228653e-01   1.1155927302451608e-01   1.1147767786622345e-01   1.1154000863642229e-01   1.1150789171202122e-01   1.1154275781280112e-01   1.1155923802496157e-01   1.1160037762188887e-01   1.1157361929100525e-01   1.1160051257927783e-01   1.1155952560231208e-01   1.1156608382469091e-01   1.1160293161341085e-01   1.1158755645653005e-01   1.1160881963761383e-01   1.1162359622852289e-01   1.1162672412738102e-01   1.1159064423201222e-01   1.1163588045220393e-01   1.1164106207295472e-01   1.1166143657470698e-01   1.1165149389842173e-01   1.1161161250571008e-01   1.1161289238973775e-01   1.1164168960402271e-01   1.1163232301099563e-01   1.1153958371319873e-01   1.1157934558147992e-01   1.1157003561299261e-01   1.1158977038350464e-01   1.1159886072521988e-01   1.1161233599969594e-01   1.1163349402395244e-01   1.1161837656084607e-01   1.1159771218108812e-01   1.1161759761360293e-01   1.1162204165782381e-01   1.1163295216124933e-01   1.1162691365588569e-01   1.1164812091521679e-01   1.1164407987871106e-01   1.1165515956699135e-01   1.1163274283247138e-01   1.1165754878444471e-01   1.1164322258512833e-01   1.1165821295313549e-01   1.1166539165627197e-01   1.1166703532591545e-01   1.1168436167308717e-01   1.1167775804639625e-01   1.1165449596925836e-01   1.1167348758170066e-01   1.1166595514897024e-01   1.1167628330351348e-01   1.1167859098632126e-01   1.1169416119881677e-01   1.1168601951857451e-01   1.1169509280553164e-01   1.1173908717019274e-01   1.1173422520809741e-01   1.1173181141578367e-01   1.1173783341906088e-01   1.1172599792684004e-01   1.1173039164552427e-01   1.1172377700139310e-01   1.1173232115465928e-01   1.1172323826516391e-01   1.1171621197837295e-01   1.1171304295532515e-01   1.1172162515675556e-01   1.1173673465399121e-01   1.1173059732176804e-01   1.1172916445322603e-01   1.1173579567347447e-01   1.1170444800087552e-01   1.1171120471557107e-01   1.1170135728317494e-01   1.1171360226475485e-01   1.1170967197048245e-01   1.1171130238937484e-01   1.1171912545900115e-01   1.1172025349290414e-01   1.1169868460947015e-01   1.1170844294360124e-01   1.1169652729702058e-01   1.1170938321507351e-01   1.1172179031172585e-01   1.1172813390800773e-01   1.1172009021271831e-01   1.1172909294416380e-01   1.1170079351564308e-01   1.1169013596712768e-01   1.1168590586290553e-01   1.1169869377211245e-01   1.1167248560852643e-01   1.1168350429240516e-01   1.1166804159618403e-01   1.1168644536300631e-01   1.1166757563297185e-01   1.1165037660690756e-01   1.1164467209635867e-01   1.1166483013898926e-01   1.1169698408214729e-01   1.1168333158081772e-01   1.1168160497610832e-01   1.1169565503334117e-01   1.1173501781395513e-01   1.1172784578938000e-01   1.1172729960814876e-01   1.1173440017244543e-01   1.1171872623044322e-01   1.1172665875908053e-01   1.1171774140892865e-01   1.1172688980958143e-01   1.1171823759727466e-01   1.1170791019454226e-01   1.1170750907389763e-01   1.1171758435057746e-01   1.1173394121128126e-01   1.1172625270568885e-01   1.1172620870479637e-01   1.1173364039786765e-01   1.1176312976641326e-01   1.1176445490708843e-01   1.1176185422030406e-01   1.1176472521234659e-01   1.1176341714686919e-01   1.1176361616751038e-01   1.1176517888554004e-01   1.1176607923791720e-01   1.1176066940271449e-01   1.1176246581935574e-01   1.1175959737534091e-01   1.1176259979618756e-01   1.1176628299412066e-01   1.1176764603504208e-01   1.1176532262670974e-01   1.1176779703276507e-01   1.1176161614020372e-01   1.1176169471217784e-01   1.1176364680503005e-01   1.1176436381400373e-01   1.1176369491056327e-01   1.1176617202788701e-01   1.1176623131851492e-01   1.1176445475268142e-01   1.1176557020614127e-01   1.1176559738974291e-01   1.1176738950641907e-01   1.1176789153324150e-01   1.1176686752206434e-01   1.1176696881365961e-01   1.1176848233901297e-01   1.1176915311205592e-01   1.1175865957517195e-01   1.1176088253082246e-01   1.1175787584729827e-01   1.1176091852495004e-01   1.1176027808361459e-01   1.1176028704842256e-01   1.1176255299466802e-01   1.1176303970615949e-01   1.1175726346257661e-01   1.1175981403683755e-01   1.1175683620396017e-01   1.1175981353513546e-01   1.1176305741022284e-01   1.1176507170721514e-01   1.1176255469915754e-01   1.1176507853145135e-01   1.1176926278855658e-01   1.1177059930954943e-01   1.1176855155569396e-01   1.1177067705678483e-01   1.1177002357980870e-01   1.1177006902710894e-01   1.1177149224564240e-01   1.1177198431066557e-01   1.1176792812914782e-01   1.1176952423249750e-01   1.1176740302063037e-01   1.1176954509377567e-01   1.1177203776924216e-01   1.1177330847884362e-01   1.1177152050693312e-01   1.1177334380843680e-01   1.1173072514738432e-01   1.1173118220953905e-01   1.1173530787069057e-01   1.1173697387740385e-01   1.1173559604942666e-01   1.1174091503209002e-01   1.1174122941396886e-01   1.1173744857039659e-01   1.1173958884143799e-01   1.1173976131390920e-01   1.1174357640839230e-01   1.1174462028825095e-01   1.1174248720182038e-01   1.1174296932953115e-01   1.1174589486940704e-01   1.1174737069693483e-01   1.1174367230594710e-01   1.1174809298114875e-01   1.1174821414601022e-01   1.1174482056420129e-01   1.1175215401045949e-01   1.1174933895252616e-01   1.1175314710951503e-01   1.1174911707635792e-01   1.1175229668025415e-01   1.1175581370957377e-01   1.1175597387008329e-01   1.1175338486685778e-01   1.1174622692395825e-01   1.1175033219543566e-01   1.1175067476935852e-01   1.1174785240259313e-01   1.1174728279132996e-01   1.1174733038944461e-01   1.1175072262065112e-01   1.1175134000710661e-01   1.1175074196343175e-01   1.1175437066971093e-01   1.1175440489228858e-01   1.1175140813974066e-01   1.1175391185156798e-01   1.1175391684335796e-01   1.1175686697429592e-01   1.1175719579126629e-01   1.1175500902166410e-01   1.1175509617701990e-01   1.1175768771953795e-01   1.1175833301401950e-01   1.1175171262774786e-01   1.1175218802836138e-01   1.1175429890520756e-01   1.1175558703956830e-01   1.1175464619185242e-01   1.1175785606951005e-01   1.1175820347501481e-01   1.1175605185776373e-01   1.1175676874750629e-01   1.1175701737609130e-01   1.1175911931513288e-01   1.1176003218421733e-01   1.1175905627455096e-01   1.1175950750726796e-01   1.1176105569155999e-01   1.1176217301804404e-01   1.1168673058268233e-01   1.1169934742788830e-01   1.1168907697571144e-01   1.1169945958131090e-01   1.1170196017612477e-01   1.1170195345525230e-01   1.1171296413406522e-01   1.1171045600724602e-01   1.1169243605109992e-01   1.1170512610020657e-01   1.1169663876932322e-01   1.1170519716096729e-01   1.1171047523250183e-01   1.1172002064324799e-01   1.1171297136779881e-01   1.1172001526770087e-01   1.1170873029042118e-01   1.1170904667233199e-01   1.1171912320178949e-01   1.1171588344714427e-01   1.1171951047109092e-01   1.1172505275575810e-01   1.1172525408236290e-01   1.1171602275312029e-01   1.1172795836331405e-01   1.1172839475544342e-01   1.1173552112994398e-01   1.1173291680544904e-01   1.1172238292984683e-01   1.1172242875150847e-01   1.1173048689861971e-01   1.1172828833495763e-01   1.1170148385258290e-01   1.1171265906217835e-01   1.1170676082680055e-01   1.1171334270836281e-01   1.1171680595741566e-01   1.1171792609999857e-01   1.1172621912332652e-01   1.1172259551885078e-01   1.1171227044066366e-01   1.1172107547615877e-01   1.1171783937762979e-01   1.1172265040891596e-01   1.1172330971890564e-01   1.1173103138282034e-01   1.1172729990874179e-01   1.1173175333580340e-01   1.1172829323798304e-01   1.1173546472885480e-01   1.1173057775916674e-01   1.1173549550914710e-01   1.1173749557260224e-01   1.1173762900927184e-01   1.1174358751959562e-01   1.1174172036743880e-01   1.1173316853291297e-01   1.1173970134486291e-01   1.1173598794750128e-01   1.1173999089472599e-01   1.1174178190220441e-01   1.1174719653079493e-01   1.1174375723032093e-01   1.1174728804780434e-01   1.1155049946137206e-01   1.1156570763725818e-01   1.1158774705734975e-01   1.1157585054480709e-01   1.1160004732881247e-01   1.1160740954258502e-01   1.1161580548471335e-01   1.1158582782944416e-01   1.1161737133876311e-01   1.1162745322315984e-01   1.1164131046728595e-01   1.1163290812858491e-01   1.1159970616193605e-01   1.1160595160730465e-01   1.1162615582467106e-01   1.1162150012889896e-01   1.1164967263636967e-01   1.1165378751399085e-01   1.1165985386495109e-01   1.1164002084045513e-01   1.1166591073622535e-01   1.1165272401412984e-01   1.1166192843490926e-01   1.1164787694742054e-01   1.1167018018190644e-01   1.1167740771392735e-01   1.1168032640814958e-01   1.1166512273703771e-01   1.1163166171244555e-01   1.1164353867588500e-01   1.1164701061499908e-01   1.1162523112082728e-01   1.1166092595306808e-01   1.1166793562034233e-01   1.1167719621232741e-01   1.1167108896966763e-01   1.1168312826693207e-01   1.1168557869495056e-01   1.1169007794848358e-01   1.1167629696195144e-01   1.1169083860233937e-01   1.1169590192014055e-01   1.1170238852739646e-01   1.1169782988385278e-01   1.1168103231899747e-01   1.1168479952911919e-01   1.1169382679983908e-01   1.1169054295780301e-01   1.1164103783889104e-01   1.1164315463728647e-01   1.1165936038244852e-01   1.1165834793464793e-01   1.1166146045777420e-01   1.1167358593235602e-01   1.1167479577866661e-01   1.1165947439024933e-01   1.1167488307505473e-01   1.1167691651034629e-01   1.1168812336822603e-01   1.1168667942675828e-01   1.1167357809702255e-01   1.1167412597941531e-01   1.1168627686619016e-01   1.1168692904808930e-01   1.1161872142615137e-01   1.1160321437850855e-01   1.1158153054599111e-01   1.1159790786522095e-01   1.1156120992084180e-01   1.1155419078586733e-01   1.1152248438954174e-01   1.1157466677743140e-01   1.1153182900164071e-01   1.1150447895374385e-01   1.1146328676248569e-01   1.1149492680149192e-01   1.1157603286880649e-01   1.1154276102891832e-01   1.1152549471492078e-01   1.1155384054066075e-01   1.1142525571241263e-01   1.1141179696956707e-01   1.1134553373843639e-01   1.1145010414708134e-01   1.1135831058237501e-01   1.1138789729173103e-01   1.1141811230043108e-01   1.1145632407698271e-01   1.1125301576796785e-01   1.1130657191013986e-01   1.1115842151185622e-01   1.1132273008569700e-01   1.1147873329562874e-01   1.1149666398435680e-01   1.1143238826896203e-01   1.1150880722434854e-01   1.1136498316549269e-01   1.1130990708154805e-01   1.1121672787252825e-01   1.1129010399032147e-01   1.1113270781080480e-01   1.1110190843422867e-01   1.1092622736177216e-01   1.1118631258104736e-01   1.1097767679535858e-01   1.1084034560295759e-01   1.1055447008074729e-01   1.1078881662707768e-01   1.1121338427751498e-01   1.1104067457416768e-01   1.1098740437943341e-01   1.1114181289352112e-01   1.1153232055742873e-01   1.1147541937138188e-01   1.1146927442197091e-01   1.1151266048866927e-01   1.1138835261218166e-01   1.1144515239744773e-01   1.1135361894695008e-01   1.1144649103171063e-01   1.1138285292848840e-01   1.1126440418178841e-01   1.1126077603595169e-01   1.1135338998221540e-01   1.1149620169314442e-01   1.1142642656977204e-01   1.1142634026304701e-01   1.1148439393321985e-01   1.1172009874517233e-01   1.1171473720574829e-01   1.1171262036369842e-01   1.1172337584055110e-01   1.1170743405802323e-01   1.1171653118187318e-01   1.1171291347813007e-01   1.1171932119654109e-01   1.1170423688792530e-01   1.1169955062780915e-01   1.1169483507384523e-01   1.1170893042655587e-01   1.1172669024137623e-01   1.1172385197473292e-01   1.1172046191237187e-01   1.1173001298211707e-01   1.1169110216371983e-01   1.1170050505053801e-01   1.1169884326317972e-01   1.1170607877061373e-01   1.1170612473509936e-01   1.1171232471938715e-01   1.1171825445406194e-01   1.1171361706956852e-01   1.1170612497130204e-01   1.1171163956128925e-01   1.1171290821431902e-01   1.1171822867169383e-01   1.1171824371728484e-01   1.1172437834433618e-01   1.1172335601629092e-01   1.1172825989703768e-01   1.1168430681594704e-01   1.1168212769103467e-01   1.1167256991720968e-01   1.1169120526514187e-01   1.1167269283595045e-01   1.1168102087634459e-01   1.1168336316427893e-01   1.1169125063739946e-01   1.1165960336363395e-01   1.1166289042858937e-01   1.1164549998622926e-01   1.1167001127789553e-01   1.1169798027636006e-01   1.1169968742148488e-01   1.1168922319229609e-01   1.1170456080624210e-01   1.1173331801232721e-01   1.1173249709500339e-01   1.1172824900166289e-01   1.1173658164425289e-01   1.1172820868501651e-01   1.1173204524972587e-01   1.1173278076300133e-01   1.1173653377571431e-01   1.1172280342845946e-01   1.1172376228441998e-01   1.1171700046824869e-01   1.1172722921942781e-01   1.1173978257046567e-01   1.1174035417102915e-01   1.1173574187825941e-01   1.1174290214786985e-01   1.1176265608110389e-01   1.1175918579833842e-01   1.1175899837444829e-01   1.1176096776730367e-01   1.1175502010330912e-01   1.1175713304637055e-01   1.1175287037812366e-01   1.1175723904668750e-01   1.1175484958589967e-01   1.1175027050145524e-01   1.1175012277802233e-01   1.1175278618072471e-01   1.1175930332940726e-01   1.1175534794555961e-01   1.1175530543926129e-01   1.1175768519739725e-01   1.1174483095941258e-01   1.1174783848195208e-01   1.1174221485324091e-01   1.1174789740533859e-01   1.1174563749991588e-01   1.1174564208121171e-01   1.1174886460350884e-01   1.1175077963768985e-01   1.1173976593657772e-01   1.1174356307800053e-01   1.1173754829099995e-01   1.1174355670819933e-01   1.1175080245782400e-01   1.1175354338377708e-01   1.1174885866268296e-01   1.1175354676737397e-01   1.1174471226337365e-01   1.1173857293466376e-01   1.1173848901069738e-01   1.1174218306071318e-01   1.1173134048162743e-01   1.1173569081916404e-01   1.1172819521258849e-01   1.1173569717763454e-01   1.1173129489292921e-01   1.1172294463820791e-01   1.1172293555204886e-01   1.1172820568591321e-01   1.1173977375252292e-01   1.1173305644259991e-01   1.1173306318390959e-01   1.1173753840452511e-01   1.1175613804235267e-01   1.1175187149160958e-01   1.1175187716473800e-01   1.1175468814679154e-01   1.1174708252390610e-01   1.1175033858641735e-01   1.1174551657797575e-01   1.1175035823238723e-01   1.1174707829226331e-01   1.1174169362402776e-01   1.1174166092952736e-01   1.1174545910505793e-01   1.1175336254157016e-01   1.1174904143146723e-01   1.1174895974110313e-01   1.1175218793630563e-01   1.1172541847724997e-01   1.1172540562958089e-01   1.1171626289797446e-01   1.1171750661480954e-01   1.1171626354305392e-01   1.1170673372030321e-01   1.1170671260944905e-01   1.1171742850931270e-01   1.1170555134139500e-01   1.1170551271841087e-01   1.1169296528598703e-01   1.1169397028788712e-01   1.1170849659558213e-01   1.1170825905054708e-01   1.1169575071243106e-01   1.1169822547277294e-01   1.1169277684325042e-01   1.1167876003658724e-01   1.1167868583857150e-01   1.1169397079276333e-01   1.1166189064558898e-01   1.1168039899281773e-01   1.1166456636886153e-01   1.1168043595153072e-01   1.1166189039323678e-01   1.1164175319507033e-01   1.1164168301377470e-01   1.1166431665049738e-01   1.116956159988