<?xml version="1.0"?>
<VTKFile type="UnstructuredGrid"  version="0.1"  >
<UnstructuredGrid>
<Piece  NumberOfPoints="4153" NumberOfCells="8064">
<Points>
<DataArray  type="Float64"  NumberOfComponents="3"  format="ascii">-0.4249999999999999 -0.5 0  -0.02499999999999988 -0.5 0  -0.07499999999999987 -0.5 0  -0.1249999999999998 -0.5 0  -0.1749999999999998 -0.5 0  -0.2249999999999998 -0.5 0  -0.2749999999999998 -0.5 0  -0.3249999999999998 -0.5 0  -0.3749999999999999 -0.5 0  0.02500000000000016 -0.5 0  -0.4749999999999998 -0.5 0  -0.5249999999999998 -0.5 0  -0.5749999999999998 -0.5 0  -0.6249999999999999 -0.5 0  -0.6749999999999999 -0.5 0  -0.725 -0.5 0  -0.775 -0.5 0  0.8 -0.5 0  0.07500000000000025 -0.5 0  0.1250000000000003 -0.5 0  0.1750000000000004 -0.5 0  0.2250000000000004 -0.5 0  0.2750000000000004 -0.5 0  0.3250000000000003 -0.5 0  0.3750000000000001 -0.5 0  0.4250000000000002 -0.5 0  0.4750000000000002 -0.5 0  0.5250000000000001 -0.5 0  0.5750000000000002 -0.5 0  0.625 -0.5 0  0.675 -0.5 0  0.725 -0.5 0  0.775 -0.5 0  0.75 -0.5 0  -0.75 -0.5 0  -0.6499999999999999 -0.5 0  -0.5499999999999998 -0.5 0  -0.4499999999999998 -0.5 0  -0.3499999999999999 -0.5 0  -0.2499999999999998 -0.5 0  -0.1499999999999998 -0.5 0  -0.04999999999999988 -0.5 0  0.7 -0.5 0  0.1500000000000004 -0.5 0  0.2500000000000003 -0.5 0  0.3500000000000002 -0.5 0  0.4500000000000002 -0.5 0  0.5500000000000002 -0.5 0  0.65 -0.5 0  0.0500000000000002 -0.5 0  -0.8 -0.5 0  0.6000000000000001 -0.5 0  0.5000000000000002 -0.5 0  0.4000000000000001 -0.5 0  0.3000000000000003 -0.5 0  0.2000000000000004 -0.5 0  0.1000000000000003 -0.5 0  1.110223024625157e-16 -0.5 0  -0.09999999999999987 -0.5 0  -0.1999999999999998 -0.5 0  -0.2999999999999998 -0.5 0  -0.3999999999999999 -0.5 0  -0.4999999999999998 -0.5 0  -0.5999999999999999 -0.5 0  -0.7 -0.5 0  1 -0.3 0  0.8765366864730179 -0.4847759065022574 0  0.9414213562373094 -0.4414213562373097 0  0.9847759065022573 -0.3765366864730181 0  0.838268343236509 -0.4923879532511287 0  0.9089790213551636 -0.4630986313697836 0  0.9630986313697834 -0.4089790213551639 0  0.9923879532511286 -0.338268343236509 0  0.8191341716182545 -0.4961939766255644 0  0.8574025148547635 -0.488581929876693 0  0.8927578539140908 -0.4739372689360205 0  0.9252001887962364 -0.4522599938035466 0  0.9522599938035463 -0.4252001887962368 0  0.9739372689360204 -0.392757853914091 0  0.9885819298766929 -0.3574025148547635 0  0.9961939766255643 -0.3191341716182545 0  1 -0.275 0  1 0.275 0  1 0.225 0  1 0.175 0  1 0.125 0  1 0.07499999999999994 0  1 0.02499999999999987 0  1 -0.0250000000000002 0  1 -0.07500000000000026 0  1 -0.1250000000000003 0  1 -0.1750000000000002 0  1 -0.2250000000000001 0  1 0.3 0  1 0.25 0  1 0.15 0  1 0.04999999999999991 0  1 -0.05000000000000023 0  1 -0.1500000000000002 0  1 -0.2500000000000001 0  1 0.2 0  1 0.09999999999999998 0  1 -1.665334536937735e-16 0  1 -0.1000000000000003 0  1 -0.2000000000000002 0  0.8 0.5 0  0.9847759065022573 0.3765366864730181 0  0.9414213562373094 0.4414213562373097 0  0.8765366864730179 0.4847759065022574 0  0.9923879532511286 0.338268343236509 0  0.9630986313697834 0.4089790213551639 0  0.9089790213551636 0.4630986313697836 0  0.838268343236509 0.4923879532511287 0  0.9961939766255643 0.3191341716182545 0  0.9885819298766929 0.3574025148547635 0  0.9739372689360204 0.392757853914091 0  0.9522599938035463 0.4252001887962368 0  0.9252001887962364 0.4522599938035466 0  0.8927578539140908 0.4739372689360205 0  0.8574025148547635 0.488581929876693 0  0.8191341716182545 0.4961939766255644 0  -0.02500000000000016 0.5 0  0.725 0.5 0  0.6749999999999999 0.5 0  0.6249999999999999 0.5 0  0.5749999999999998 0.5 0  0.5249999999999998 0.5 0  0.4749999999999998 0.5 0  0.4249999999999999 0.5 0  0.3749999999999999 0.5 0  0.3249999999999998 0.5 0  0.2749999999999998 0.5 0  0.2249999999999998 0.5 0  0.1749999999999998 0.5 0  0.1249999999999998 0.5 0  0.07499999999999987 0.5 0  0.02499999999999988 0.5 0  0.775 0.5 0  -0.07500000000000025 0.5 0  -0.1250000000000003 0.5 0  -0.1750000000000004 0.5 0  -0.2250000000000004 0.5 0  -0.2750000000000004 0.5 0  -0.3250000000000003 0.5 0  -0.3750000000000001 0.5 0  -0.4250000000000002 0.5 0  -0.4750000000000002 0.5 0  -0.5250000000000001 0.5 0  -0.5750000000000002 0.5 0  -0.625 0.5 0  -0.675 0.5 0  -0.725 0.5 0  -0.775 0.5 0  -0.8 0.5 0  -0.75 0.5 0  -0.65 0.5 0  -0.5500000000000002 0.5 0  -0.4500000000000002 0.5 0  -0.3500000000000002 0.5 0  -0.2500000000000003 0.5 0  -0.1500000000000004 0.5 0  -0.0500000000000002 0.5 0  0.04999999999999988 0.5 0  0.1499999999999998 0.5 0  0.2499999999999998 0.5 0  0.3499999999999999 0.5 0  0.4499999999999998 0.5 0  0.5499999999999998 0.5 0  0.6499999999999999 0.5 0  0.75 0.5 0  -0.7 0.5 0  -0.6000000000000001 0.5 0  -0.5000000000000002 0.5 0  -0.4000000000000001 0.5 0  -0.3000000000000003 0.5 0  -0.2000000000000004 0.5 0  -0.1000000000000003 0.5 0  -1.110223024625157e-16 0.5 0  0.09999999999999987 0.5 0  0.1999999999999998 0.5 0  0.2999999999999998 0.5 0  0.3999999999999999 0.5 0  0.4999999999999998 0.5 0  0.5999999999999999 0.5 0  0.7 0.5 0  -1 0.3 0  -0.8765366864730181 0.4847759065022573 0  -0.9414213562373097 0.4414213562373094 0  -0.9847759065022574 0.3765366864730179 0  -0.838268343236509 0.4923879532511287 0  -0.9089790213551638 0.4630986313697834 0  -0.9630986313697836 0.4089790213551636 0  -0.9923879532511287 0.338268343236509 0  -0.8191341716182545 0.4961939766255643 0  -0.8574025148547635 0.488581929876693 0  -0.892757853914091 0.4739372689360203 0  -0.9252001887962368 0.4522599938035464 0  -0.9522599938035466 0.4252001887962365 0  -0.9739372689360205 0.3927578539140908 0  -0.9885819298766931 0.3574025148547634 0  -0.9961939766255643 0.3191341716182545 0  -1 0.275 0  -1 -0.275 0  -1 -0.225 0  -1 -0.175 0  -1 -0.125 0  -1 -0.07499999999999994 0  -1 -0.02499999999999987 0  -1 0.0250000000000002 0  -1 0.07500000000000026 0  -1 0.1250000000000003 0  -1 0.1750000000000002 0  -1 0.2250000000000001 0  -1 -0.3 0  -1 -0.25 0  -1 -0.15 0  -1 -0.04999999999999991 0  -1 0.05000000000000023 0  -1 0.1500000000000002 0  -1 0.2500000000000001 0  -1 -0.2 0  -1 -0.09999999999999998 0  -1 1.665334536937735e-16 0  -1 0.1000000000000003 0  -1 0.2000000000000002 0  -0.9847759065022574 -0.3765366864730179 0  -0.9414213562373096 -0.4414213562373094 0  -0.8765366864730181 -0.4847759065022573 0  -0.9923879532511287 -0.338268343236509 0  -0.9630986313697836 -0.4089790213551636 0  -0.9089790213551638 -0.4630986313697834 0  -0.838268343236509 -0.4923879532511287 0  -0.9961939766255643 -0.3191341716182545 0  -0.9885819298766931 -0.3574025148547634 0  -0.9739372689360205 -0.3927578539140908 0  -0.9522599938035465 -0.4252001887962365 0  -0.9252001887962367 -0.4522599938035464 0  -0.892757853914091 -0.4739372689360203 0  -0.8574025148547635 -0.488581929876693 0  -0.8191341716182545 -0.4961939766255643 0  -0.3000000000000003 0.3267949192431125 0  0.3181343990330772 -0.3439416921723297 0  -0.08257249764926196 -0.3383308877677023 0  -0.50979744334887 -0.3255818518047211 0  0.5060441378325211 0.3274561643884037 0  0.1037631564626732 0.3131559137665553 0  0.843149210446875 -0.1923130104173427 0  -0.8418263458721231 0.1927503215247096 0  -0.8408809410250262 -0.1897116835785854 0  0.8409071959036176 0.1896235182386696 0  0.705967194587281 0.3354524287114743 0  0.6276370409402552 0.1658336215477063 0  0.4215070288293651 0.1446794873901968 0  0.5369019087152576 -0.01677883310260353 0  0.3378219718963524 -0.0304857337078401 0  0.7359191653189867 -0.0003779706345871367 0  0.2206709281181736 0.1292871338121241 0  0.1390057666500616 -0.05482518983879574 0  0.02156604114872933 0.1091113821954512 0  -0.05991856886335568 -0.07544049830328706 0  -0.2091026540303009 0.113218101697482 0  -0.2557387210741711 -0.08957125969209863 0  -0.3742518736706093 0.02381865171750689 0  -0.7065883696935737 -0.3351547375041799 0  -0.6319769825415822 -0.1640183941417108 0  -0.7379485134301987 -0.0003221286420197649 0  -0.6263925638672921 0.1747922261462193 0  0.7000000000000003 -0.3471147448144379 0  -0.09731754444756222 0.2985839976753261 0  -0.7019016658227 0.339872535812372 0  -0.5036626740707574 0.3416097573515475 0  0.3086642085404555 0.31909644989288 0  0.4355889359290377 -0.1794947220360297 0  0.1233906847482294 -0.33992001942789 0  -0.2910439982708135 -0.2942818290560931 0  0.6252598700683595 -0.1832373653183336 0  -0.4390211493546888 -0.1414717198202583 0  -0.5445756908252299 0.01225332998817602 0  0.5094027625036279 -0.3483114655372777 0  -0.8570298735864267 0.3548088427148782 0  0.2432245006188761 -0.181388344807941 0  0.8576591493456415 0.3532994606374906 0  -0.8577781333911819 -0.3532575554640149 0  0.856914113336837 -0.3561698222938181 0  -0.4103395160999327 0.186370105143853 0  0.04059278020228735 -0.1932320619509051 0  -0.894759031223147 0.000141425932117211 0  0.8948577502800618 -0.0001596971477125707 0  -0.1430838089440986 -0.1942958300671257 0  -0.4774576034625814 0.09931171756601452 0  -0.5183660399836124 0.1805811656450362 0  -0.585484127346261 0.09352277806719765 0  -0.3551697580499665 0.2565825121934828 0  -0.3097210850651168 0.1497941034206675 0  -0.2545513270151506 0.2200065104702973 0  -0.3922956948852711 0.10509437843068 0  -0.4594137822479196 0.01803599085284146 0  -0.1532100992389315 0.205901049686404 0  -0.1986587722237813 0.3126894584592193 0  -0.1486587722237813 0.399291998837663 0  -0.04865877222378117 0.399291998837663 0  0.5673313162859936 -0.2657744154278056 0  0.6047013812518141 -0.3477131051758577 0  0.6626299350341799 -0.2651760550663858 0  0.4724958492163328 -0.2639030937866537 0  0.5304244029986986 -0.1813660436771817 0  -0.3650325738127511 -0.2178767744381757 0  -0.4744092963517794 -0.2335267858124897 0  -0.4004207208098418 -0.3099318404304071 0  -0.3473799352144299 -0.1155214897561785 0  -0.2733913596724923 -0.1919265443740958 0  0.06266459880570127 0.2111336479810033 0  0.1211184846334515 0.1191992580037876 0  0.1622170422904234 0.2212215237893397 0  
[...]
<PointData  Vectors="f_59"> 
<DataArray  type="Float64"  Name="f_59"  NumberOfComponents="3" format="ascii">3.6023736647674415e-02 -2.2068595423800538e-01 0.0000000000000000e+00  2.2249155187591454e-01 -2.2304917481294529e-02 0.0000000000000000e+00  2.1376591178543217e-01 -6.5605906430311597e-02 0.0000000000000000e+00  1.9730011566174638e-01 -1.0522672835293122e-01 0.0000000000000000e+00  1.7480175057960518e-01 -1.3944299191535425e-01 0.0000000000000000e+00  1.4829640017098403e-01 -1.6735643906443345e-01 0.0000000000000000e+00  1.1974337153981617e-01 -1.8884259310938728e-01 0.0000000000000000e+00  9.0778858137513505e-02 -2.0435067632687015e-01 0.0000000000000000e+00  6.2609903369994252e-02 -2.1466252583997983e-01 0.0000000000000000e+00  2.2249155187591438e-01 2.2304917481294772e-02 0.0000000000000000e+00  1.1459481093625897e-02 -2.2331296490142458e-01 0.0000000000000000e+00  -1.0901163742864517e-02 -2.2334091570747022e-01 0.0000000000000000e+00  -3.1049813681105692e-02 -2.2144053167920436e-01 0.0000000000000000e+00  -4.9084419018288139e-02 -2.1815297341461376e-01 0.0000000000000000e+00  -6.5160882603846809e-02 -2.1390198544727843e-01 0.0000000000000000e+00  -7.9460594526785389e-02 -2.0901199467363069e-01 0.0000000000000000e+00  -9.2170031989521312e-02 -2.0372698692870972e-01 0.0000000000000000e+00  -9.7985001261226820e-02 2.0099487438200381e-01 0.0000000000000000e+00  2.1376591178543244e-01 6.5605906430311930e-02 0.0000000000000000e+00  1.9730011566174610e-01 1.0522672835293147e-01 0.0000000000000000e+00  1.7480175057960481e-01 1.3944299191535481e-01 0.0000000000000000e+00  1.4829640017098381e-01 1.6735643906443359e-01 0.0000000000000000e+00  1.1974337153981586e-01 1.8884259310938750e-01 0.0000000000000000e+00  9.0778858137513296e-02 2.0435067632687010e-01 0.0000000000000000e+00  6.2609903369994113e-02 2.1466252583998000e-01 0.0000000000000000e+00  3.6023736647674276e-02 2.2068595423800563e-01 0.0000000000000000e+00  1.1459481093625686e-02 2.2331296490142469e-01 0.0000000000000000e+00  -1.0901163742864662e-02 2.2334091570747014e-01 0.0000000000000000e+00  -3.1049813681105886e-02 2.2144053167920419e-01 0.0000000000000000e+00  -4.9084419018288090e-02 2.1815297341461373e-01 0.0000000000000000e+00  -6.5160882603846823e-02 2.1390198544727834e-01 0.0000000000000000e+00  -7.9460594526785444e-02 2.0901199467363066e-01 0.0000000000000000e+00  -9.2170031989521048e-02 2.0372698692870975e-01 0.0000000000000000e+00  -8.6002614519222781e-02 2.0640627484613439e-01 0.0000000000000000e+00  -8.6002614519222711e-02 -2.0640627484613444e-01 0.0000000000000000e+00  -5.7356390500923962e-02 -2.1612552942377150e-01 0.0000000000000000e+00  -2.1247704763572645e-02 -2.2259500228504697e-01 0.0000000000000000e+00  2.3472536780384651e-02 -2.2237140107732703e-01 0.0000000000000000e+00  7.6536554934556675e-02 -2.1010034687917492e-01 0.0000000000000000e+00  1.3416407864998758e-01 -1.7888543819998309e-01 0.0000000000000000e+00  1.8668090454356057e-01 -1.2308631068806168e-01 0.0000000000000000e+00  2.1917894036879121e-01 -4.4278573811876942e-02 0.0000000000000000e+00  -7.2521123594587789e-02 2.1151994381754771e-01 0.0000000000000000e+00  1.8668090454356021e-01 1.2308631068806214e-01 0.0000000000000000e+00  1.3416407864998717e-01 1.7888543819998337e-01 0.0000000000000000e+00  7.6536554934556508e-02 2.1010034687917498e-01 0.0000000000000000e+00  2.3472536780384454e-02 2.2237140107732717e-01 0.0000000000000000e+00  -2.1247704763572708e-02 2.2259500228504689e-01 0.0000000000000000e+00  -5.7356390500923948e-02 2.1612552942377147e-01 0.0000000000000000e+00  2.1917894036879132e-01 4.4278573811877220e-02 0.0000000000000000e+00  -9.7985001261226695e-02 -2.0099487438200370e-01 0.0000000000000000e+00  -4.0322537299176578e-02 2.1994111254096296e-01 0.0000000000000000e+00  -9.7385439528689467e-17 2.2360679774997888e-01 0.0000000000000000e+00  4.9084419018288014e-02 2.1815297341461359e-01 0.0000000000000000e+00  1.0522672835293113e-01 1.9730011566174638e-01 0.0000000000000000e+00  1.6192216388791567e-01 1.5421158465515827e-01 0.0000000000000000e+00  2.0640627484613427e-01 8.6002614519222975e-02 0.0000000000000000e+00  2.2360679774997899e-01 1.3591929180178313e-16 0.0000000000000000e+00  2.0640627484613447e-01 -8.6002614519222628e-02 0.0000000000000000e+00  1.6192216388791586e-01 -1.5421158465515777e-01 0.0000000000000000e+00  1.0522672835293140e-01 -1.9730011566174616e-01 0.0000000000000000e+00  4.9084419018288215e-02 -2.1815297341461365e-01 0.0000000000000000e+00  4.8174842604997213e-17 -2.2360679774997894e-01 0.0000000000000000e+00  -4.0322537299176439e-02 -2.1994111254096285e-01 0.0000000000000000e+00  -7.2521123594587761e-02 -2.1151994381754768e-01 0.0000000000000000e+00  -1.8668090454356059e-01 1.2308631068806183e-01 0.0000000000000000e+00  -1.1885638417084564e-01 1.8940211176708774e-01 0.0000000000000000e+00  -1.4300495472964353e-01 1.7189992124132181e-01 0.0000000000000000e+00  -1.6656472108678061e-01 1.4918509875079020e-01 0.0000000000000000e+00  -1.0888820139885128e-01 1.9530325034705182e-01 0.0000000000000000e+00  -1.3144836057895201e-01 1.8089037702737504e-01 0.0000000000000000e+00  -1.5528280750269510e-01 1.6089515124478113e-01 0.0000000000000000e+00  -1.7705488251811541e-01 1.3657074568331387e-01 0.0000000000000000e+00  -1.0355766797262844e-01 1.9818125391689020e-01 0.0000000000000000e+00  -1.1398495017310446e-01 1.9237315596006360e-01 0.0000000000000000e+00  -1.2528229539321228e-01 1.8521432574454905e-01 0.0000000000000000e+00  -1.3735531986763660e-01 1.7644692149215657e-01 0.0000000000000000e+00  -1.4926467223550835e-01 1.6649341615339119e-01 0.0000000000000000e+00  -1.6105164910823189e-01 1.5512048968308137e-01 0.0000000000000000e+00  -1.7191093031864171e-01 1.4299172016931300e-01 0.0000000000000000e+00  -1.8198264231904226e-01 1.2993197410406551e-01 0.0000000000000000e+00  -1.9216412194783195e-01 1.1433700291689812e-01 0.0000000000000000e+00  -1.9216412194783208e-01 -1.1433700291689811e-01 0.0000000000000000e+00  -2.0205754061999895e-01 -9.5774476133245023e-02 0.0000000000000000e+00  -2.1031785525179952e-01 -7.5936814275311182e-02 0.0000000000000000e+00  -2.1672658858844121e-01 -5.5041673292302543e-02 0.0000000000000000e+00  -2.2110529224376424e-01 -3.3353406749530704e-02 0.0000000000000000e+00  -2.2332746383648741e-01 -1.1173356539661597e-02 0.0000000000000000e+00  -2.2332746383648772e-01 1.1173356539661753e-02 0.0000000000000000e+00  -2.2110529224376427e-01 3.3353406749530884e-02 0.0000000000000000e+00  -2.1672658858844121e-01 5.5041673292302647e-02 0.0000000000000000e+00  -2.1031785525179963e-01 7.5936814275311348e-02 0.0000000000000000e+00  -2.0205754061999881e-01 9.5774476133245065e-02 0.0000000000000000e+00  -1.8668090454356054e-01 -1.2308631068806183e-01 0.0000000000000000e+00  -1.9730011566174621e-01 -1.0522672835293129e-01 0.0000000000000000e+00  -2.1376591178543217e-01 -6.5605906430311653e-02 0.0000000000000000e+00  -2.2249155187591432e-01 -2.2304917481294633e-02 0.0000000000000000e+00  -2.2249155187591432e-01 2.2304917481294765e-02 0.0000000000000000e+00  -2.1376591178543233e-01 6.5605906430311819e-02 0.0000000000000000e+00  -1.9730011566174613e-01 1.0522672835293134e-01 0.0000000000000000e+00  -2.0640627484613441e-01 -8.6002614519222684e-02 0.0000000000000000e+00  -2.1917894036879135e-01 -4.4278573811877046e-02 0.0000000000000000e+00  -2.2360679774997891e-01 7.4115811060697122e-17 0.0000000000000000e+00  -2.1917894036879121e-01 4.4278573811877150e-02 0.0000000000000000e+00  -2.0640627484613436e-01 8.6002614519222781e-02 0.0000000000000000e+00  -9.7985001261226792e-02 -2.0099487438200378e-01 0.0000000000000000e+00  -1.6656472108678066e-01 -1.4918509875079025e-01 0.0000000000000000e+00  -1.4300495472964359e-01 -1.7189992124132189e-01 0.0000000000000000e+00  -1.1885638417084558e-01 -1.8940211176708779e-01 0.0000000000000000e+00  -1.7705488251811546e-01 -1.3657074568331384e-01 0.0000000000000000e+00  -1.5528280750269505e-01 -1.6089515124478104e-01 0.0000000000000000e+00  -1.3144836057895196e-01 -1.8089037702737487e-01 0.0000000000000000e+00  -1.0888820139885126e-01 -1.9530325034705182e-01 0.0000000000000000e+00  -1.8198264231904213e-01 -1.2993197410406535e-01 0.0000000000000000e+00  -1.7191093031864157e-01 -1.4299172016931308e-01 0.0000000000000000e+00  -1.6105164910823191e-01 -1.5512048968308137e-01 0.0000000000000000e+00  -1.4926467223550829e-01 -1.6649341615339100e-01 0.0000000000000000e+00  -1.3735531986763666e-01 -1.7644692149215646e-01 0.0000000000000000e+00  -1.2528229539321228e-01 -1.8521432574454896e-01 0.0000000000000000e+00  -1.1398495017310435e-01 -1.9237315596006346e-01 0.0000000000000000e+00  -1.0355766797262843e-01 -1.9818125391689015e-01 0.0000000000000000e+00  2.2249155187591416e-01 2.2304917481294810e-02 0.0000000000000000e+00  -7.9460594526785458e-02 -2.0901199467363071e-01 0.0000000000000000e+00  -6.5160882603846879e-02 -2.1390198544727848e-01 0.0000000000000000e+00  -4.9084419018288070e-02 -2.1815297341461365e-01 0.0000000000000000e+00  -3.1049813681105726e-02 -2.2144053167920433e-01 0.0000000000000000e+00  -1.0901163742864520e-02 -2.2334091570747011e-01 0.0000000000000000e+00  1.1459481093625793e-02 -2.2331296490142444e-01 0.0000000000000000e+00  3.6023736647674519e-02 -2.2068595423800555e-01 0.0000000000000000e+00  6.2609903369994238e-02 -2.1466252583997994e-01 0.0000000000000000e+00  9.0778858137513602e-02 -2.0435067632687004e-01 0.0000000000000000e+00  1.1974337153981617e-01 -1.8884259310938722e-01 0.0000000000000000e+00  1.4829640017098400e-01 -1.6735643906443323e-01 0.0000000000000000e+00  1.7480175057960501e-01 -1.3944299191535425e-01 0.0000000000000000e+00  1.9730011566174641e-01 -1.0522672835293116e-01 0.0000000000000000e+00  2.1376591178543225e-01 -6.5605906430311570e-02 0.0000000000000000e+00  2.2249155187591430e-01 -2.2304917481294585e-02 0.0000000000000000e+00  -9.2170031989521076e-02 -2.0372698692870975e-01 0.0000000000000000e+00  2.1376591178543214e-01 6.5605906430311903e-02 0.0000000000000000e+00  1.9730011566174621e-01 1.0522672835293155e-01 0.0000000000000000e+00  1.7480175057960481e-01 1.3944299191535461e-01 0.0000000000000000e+00  1.4829640017098375e-01 1.6735643906443359e-01 0.0000000000000000e+00  1.1974337153981582e-01 1.8884259310938750e-01 0.0000000000000000e+00  9.0778858137513310e-02 2.0435067632687029e-01 0.0000000000000000e+00  6.2609903369993961e-02 2.1466252583997991e-01 0.0000000000000000e+00  3.6023736647674262e-02 2.2068595423800547e-01 0.0000000000000000e+00  1.1459481093625691e-02 2.2331296490142474e-01 0.0000000000000000e+00  -1.0901163742864725e-02 2.2334091570747019e-01 0.0000000000000000e+00  -3.1049813681105917e-02 2.2144053167920424e-01 0.0000000000000000e+00  -4.9084419018288104e-02 2.1815297341461370e-01 0.0000000000000000e+00  -6.5160882603846809e-02 2.1390198544727843e-01 0.0000000000000000e+00  -7.9460594526785444e-02 2.0901199467363066e-01 0.0000000000000000e+00  -9.2170031989521381e-02 2.0372698692870975e-01 0.0000000000000000e+00  -9.7985001261226640e-02 2.0099487438200372e-01 0.0000000000000000e+00  -8.6002614519222698e-02 2.0640627484613441e-01 0.0000000000000000e+00  -5.7356390500923948e-02 2.1612552942377142e-01 0.0000000000000000e+00  -2.1247704763572749e-02 2.2259500228504689e-01 0.0000000000000000e+00  2.3472536780384495e-02 2.2237140107732717e-01 0.0000000000000000e+00  7.6536554934556411e-02 2.1010034687917492e-01 0.0000000000000000e+00  1.3416407864998725e-01 1.7888543819998329e-01 0.0000000000000000e+00  1.8668090454356034e-01 1.2308631068806215e-01 0.0000000000000000e+00  2.1917894036879143e-01 4.4278573811877241e-02 0.0000000000000000e+00  2.1917894036879132e-01 -4.4278573811876866e-02 0.0000000000000000e+00  1.8668090454356048e-01 -1.2308631068806174e-01 0.0000000000000000e+00  1.3416407864998764e-01 -1.7888543819998323e-01 0.0000000000000000e+00  7.6536554934556633e-02 -2.1010034687917489e-01 0.0000000000000000e+00  2.3472536780384651e-02 -2.2237140107732720e-01 0.0000000000000000e+00  -2.1247704763572642e-02 -2.2259500228504700e-01 0.0000000000000000e+00  -5.7356390500923934e-02 -2.1612552942377145e-01 0.0000000000000000e+00  -8.6002614519222711e-02 -2.0640627484613447e-01 0.0000000000000000e+00  -7.2521123594587761e-02 2.1151994381754774e-01 0.0000000000000000e+00  -4.0322537299176640e-02 2.1994111254096302e-01 0.0000000000000000e+00  -1.7390914354394525e-16 2.2360679774997905e-01 0.0000000000000000e+00  4.9084419018288014e-02 2.1815297341461357e-01 0.0000000000000000e+00  1.0522672835293137e-01 1.9730011566174604e-01 0.0000000000000000e+00  1.6192216388791583e-01 1.5421158465515827e-01 0.0000000000000000e+00  2.0640627484613444e-01 8.6002614519222961e-02 0.0000000000000000e+00  2.2360679774997921e-01 6.9612879160418122e-17 0.0000000000000000e+00  2.0640627484613452e-01 -8.6002614519222600e-02 0.0000000000000000e+00  1.6192216388791594e-01 -1.5421158465515777e-01 0.0000000000000000e+00  1.0522672835293137e-01 -1.9730011566174607e-01 0.0000000000000000e+00  4.9084419018288160e-02 -2.1815297341461382e-01 0.0000000000000000e+00  9.7278189532167771e-17 -2.2360679774997913e-01 0.0000000000000000e+00  -4.0322537299176509e-02 -2.1994111254096299e-01 0.0000000000000000e+00  -7.2521123594587747e-02 -2.1151994381754788e-01 0.0000000000000000e+00  -1.8668090454356043e-01 1.2308631068806178e-01 0.0000000000000000e+00  -1.1885638417084575e-01 1.8940211176708754e-01 0.0000000000000000e+00  -1.4300495472964370e-01 1.7189992124132167e-01 0.0000000000000000e+00  -1.6656472108678072e-01 1.4918509875079006e-01 0.0000000000000000e+00  -1.0888820139885126e-01 1.9530325034705182e-01 0.0000000000000000e+00  -1.3144836057895207e-01 1.8089037702737479e-01 0.0000000000000000e+00  -1.5528280750269507e-01 1.6089515124478107e-01 0.0000000000000000e+00  -1.7705488251811544e-01 1.3657074568331373e-01 0.0000000000000000e+00  -1.0355766797262846e-01 1.9818125391689012e-01 0.0000000000000000e+00  -1.1398495017310439e-01 1.9237315596006349e-01 0.0000000000000000e+00  -1.2528229539321240e-01 1.8521432574454888e-01 0.0000000000000000e+00  -1.3735531986763680e-01 1.7644692149215649e-01 0.0000000000000000e+00  -1.4926467223550843e-01 1.6649341615339103e-01 0.0000000000000000e+00  -1.6105164910823211e-01 1.5512048968308126e-01 0.0000000000000000e+00  -1.7191093031864174e-01 1.4299172016931300e-01 0.0000000000000000e+00  -1.8198264231904235e-01 1.2993197410406543e-01 0.0000000000000000e+00  -1.9216412194783200e-01 1.1433700291689815e-01 0.0000000000000000e+00  -1.9216412194783200e-01 -1.1433700291689819e-01 0.0000000000000000e+00  -2.0205754061999887e-01 -9.5774476133245134e-02 0.0000000000000000e+00  -2.1031785525179947e-01 -7.5936814275311279e-02 0.0000000000000000e+00  -2.1672658858844124e-01 -5.5041673292302508e-02 0.0000000000000000e+00  -2.2110529224376421e-01 -3.3353406749530606e-02 0.0000000000000000e+00  -2.2332746383648747e-01 -1.1173356539661594e-02 0.0000000000000000e+00  -2.2332746383648761e-01 1.1173356539661788e-02 0.0000000000000000e+00  -2.2110529224376413e-01 3.3353406749530828e-02 0.0000000000000000e+00  -2.1672658858844121e-01 5.5041673292302709e-02 0.0000000000000000e+00  -2.1031785525179961e-01 7.5936814275311307e-02 0.0000000000000000e+00  -2.0205754061999878e-01 9.5774476133245023e-02 0.0000000000000000e+00  -1.8668090454356062e-01 -1.2308631068806171e-01 0.0000000000000000e+00  -1.9730011566174613e-01 -1.0522672835293134e-01 0.0000000000000000e+00  -2.1376591178543211e-01 -6.5605906430311653e-02 0.0000000000000000e+00  -2.2249155187591432e-01 -2.2304917481294605e-02 0.0000000000000000e+00  -2.2249155187591435e-01 2.2304917481294786e-02 0.0000000000000000e+00  -2.1376591178543222e-01 6.5605906430311708e-02 0.0000000000000000e+00  -1.9730011566174616e-01 1.0522672835293138e-01 0.0000000000000000e+00  -2.0640627484613447e-01 -8.6002614519222614e-02 0.0000000000000000e+00  -2.1917894036879138e-01 -4.4278573811877026e-02 0.0000000000000000e+00  -2.2360679774997902e-01 5.5695686414936860e-17 0.0000000000000000e+00  -2.1917894036879149e-01 4.4278573811877206e-02 0.0000000000000000e+00  -2.0640627484613441e-01 8.6002614519222795e-02 0.0000000000000000e+00  -1.6656472108678069e-01 -1.4918509875079008e-01 0.0000000000000000e+00  -1.4300495472964375e-01 -1.7189992124132170e-01 0.0000000000000000e+00  -1.1885638417084583e-01 -1.8940211176708757e-01 0.0000000000000000e+00  -1.7705488251811546e-01 -1.3657074568331370e-01 0.0000000000000000e+00  -1.5528280750269513e-01 -1.6089515124478113e-01 0.0000000000000000e+00  -1.3144836057895207e-01 -1.8089037702737487e-01 0.0000000000000000e+00  -1.0888820139885129e-01 -1.9530325034705195e-01 0.0000000000000000e+00  -1.8198264231904229e-01 -1.2993197410406543e-01 0.0000000000000000e+00  -1.7191093031864177e-01 -1.4299172016931297e-01 0.0000000000000000e+00  -1.6105164910823203e-01 -1.5512048968308137e-01 0.0000000000000000e+00  -1.4926467223550835e-01 -1.6649341615339108e-01 0.0000000000000000e+00  -1.3735531986763663e-01 -1.7644692149215638e-01 0.0000000000000000e+00  -1.2528229539321237e-01 -1.8521432574454899e-01 0.0000000000000000e+00  -1.1398495017310424e-01 -1.9237315596006355e-01 0.0000000000000000e+00  -1.0355766797262853e-01 -1.9818125391689009e-01 0.0000000000000000e+00  1.9083105015442397e-02 2.2279101216828665e-01 0.0000000000000000e+00  1.7405647586773723e-02 2.2292833698766301e-01 0.0000000000000000e+00  1.9846622646858381e-01 -1.0301047010532866e-01 0.0000000000000000e+00  -9.4045122108511098e-02 -2.0286822079269917e-01 0.0000000000000000e+00  -9.1615248075736594e-02 -2.0397707302542917e-01 0.0000000000000000e+00  1.7936435738674314e-01 -1.3352313394779483e-01 0.0000000000000000e+00  -2.0149125641935706e-01 9.6960164946997482e-02 0.0000000000000000e+00  -2.0132918241028980e-01 9.7296250236092563e-02 0.0000000000000000e+00  -2.0194608823259985e-01 -9.6009257093006437e-02 0.0000000000000000e+00  -2.0196652839262305e-01 -9.5966251406584921e-02 0.0000000000000000e+00  -1.4123207815022210e-01 -1.7335945345255796e-01 0.0000000000000000e+00  -1.9442341010471964e-01 -1.1045151698031153e-01 0.0000000000000000e+00  -1.7647120683218970e-01 -1.3732411717972404e-01 0.0000000000000000e+00  -2.2317045811007669e-01 1.3962328850819451e-02 0.0000000000000000e+00  -2.1999427899952745e-01 4.0031452727550106e-02 0.0000000000000000e+00  -2.2360667978019727e-01 2.2969039245599043e-04 0.0000000000000000e+00  -1.0932527733664675e-01 -1.9505892375194028e-01 0.0000000000000000e+00  -1.6340387265807638e-01 1.5264067085918864e-01 0.0000000000000000e+00  2.0679273978149626e-01 -8.5069164646553508e-02 0.0000000000000000e+00  5.0617386608390762e-02 -2.1780238789539641e-01 0.0000000000000000e+00  -1.2222182610522364e-01 1.8724803129406856e-01 0.0000000000000000e+00  -1.7474081825624671e-01 -1.3951934072069491e-01 0.0000000000000000e+00  -2.2180267604355586e-01 2.8347361427784195e-02 0.0000000000000000e+00  -1.4146934828713020e-01 -1.7316588432833604e-01 0.0000000000000000e+00  -1.9538479086011859e-01 -1.0874182038455948e-01 0.0000000000000000e+00  -2.2360671253391429e-01 -1.9521725179860139e-04 0.0000000000000000e+00  -1.9129947011831214e-01 1.1577785942248653e-01 0.0000000000000000e+00  -1.3534281287180025e-01 1.7799528927460107e-01 0.0000000000000000e+00  1.8066120545637251e-01 1.3176315434540262e-01 0.0000000000000000e+00  -1.3866616049888897e-01 1.7541863051710430e-01 0.0000000000000000e+00  -8.2698735606932527e-02 2.0775206167211607e-01 0.0000000000000000e+00  7.4298254132240888e-03 -2.2348332755337494e-01 0.0000000000000000e+00  -1.5869086156630000e-01 1.5753479125369546e-01 0.0000000000000000e+00  1.7153906129948501e-01 1.4343761866571675e-01 0.0000000000000000e+00  2.4737634542489994e-03 -2.2359311370069637e-01 0.0000000000000000e+00  -1.8823648108321822e-01 1.2069394015196967e-01 0.0000000000000000e+00  -1.8153637235351291e-01 -1.3055476059005580e-01 0.0000000000000000e+00  -2.2338049650923358e-01 1.0057523516667216e-02 0.0000000000000000e+00  -8.1131407557239313e-02 2.0836913088982542e-01 0.0000000000000000e+00  -1.5817200119747588e-01 1.5805574344