<?xml version="1.0"?>
<VTKFile type="UnstructuredGrid"  version="0.1"  >
<UnstructuredGrid>
<Piece  NumberOfPoints="11902" NumberOfCells="23402">
<Points>
<DataArray  type="Float64"  NumberOfComponents="3"  format="ascii">-5 -5 0  5 -5 0  5 5 0  -5 5 0  1.978428244985365 0.01379494259711613 0  -4.9 -5 0  -4.8 -5 0  -4.7 -5 0  -4.6 -5 0  -4.5 -5 0  -4.4 -5 0  -4.3 -5 0  -4.2 -5 0  -4.1 -5 0  -4 -5 0  -3.9 -5 0  -3.8 -5 0  -3.7 -5 0  -3.6 -5 0  -3.5 -5 0  -3.4 -5 0  -3.3 -5 0  -3.2 -5 0  -3.1 -5 0  -3 -5 0  -2.9 -5 0  -2.8 -5 0  -2.7 -5 0  -2.6 -5 0  -2.5 -5 0  -2.4 -5 0  -2.3 -5 0  -2.2 -5 0  -2.1 -5 0  -2 -5 0  -1.9 -5 0  -1.8 -5 0  -1.7 -5 0  -1.6 -5 0  -1.5 -5 0  -1.4 -5 0  -1.3 -5 0  -1.2 -5 0  -1.1 -5 0  -1 -5 0  -0.9000000000000004 -5 0  -0.7999999999999998 -5 0  -0.7000000000000002 -5 0  -0.5999999999999996 -5 0  -0.5 -5 0  -0.4000000000000004 -5 0  -0.2999999999999998 -5 0  -0.2000000000000002 -5 0  -0.09999999999999964 -5 0  0 -5 0  0.09999999999999964 -5 0  0.2000000000000002 -5 0  0.2999999999999998 -5 0  0.4000000000000004 -5 0  0.5 -5 0  0.5999999999999996 -5 0  0.7000000000000002 -5 0  0.7999999999999998 -5 0  0.9000000000000004 -5 0  1 -5 0  1.1 -5 0  1.2 -5 0  1.3 -5 0  1.4 -5 0  1.5 -5 0  1.6 -5 0  1.7 -5 0  1.8 -5 0  1.9 -5 0  2 -5 0  2.1 -5 0  2.2 -5 0  2.3 -5 0  2.4 -5 0  2.5 -5 0  2.6 -5 0  2.7 -5 0  2.8 -5 0  2.9 -5 0  3 -5 0  3.1 -5 0  3.199999999999999 -5 0  3.300000000000001 -5 0  3.4 -5 0  3.5 -5 0  3.6 -5 0  3.699999999999999 -5 0  3.800000000000001 -5 0  3.9 -5 0  4 -5 0  4.1 -5 0  4.199999999999999 -5 0  4.300000000000001 -5 0  4.4 -5 0  4.5 -5 0  4.6 -5 0  4.699999999999999 -5 0  4.800000000000001 -5 0  4.9 -5 0  5 -4.9 0  5 -4.8 0  5 -4.7 0  5 -4.6 0  5 -4.5 0  5 -4.4 0  5 -4.3 0  5 -4.2 0  5 -4.1 0  5 -4 0  5 -3.9 0  5 -3.8 0  5 -3.7 0  5 -3.6 0  5 -3.5 0  5 -3.4 0  5 -3.3 0  5 -3.2 0  5 -3.1 0  5 -3 0  5 -2.9 0  5 -2.8 0  5 -2.7 0  5 -2.6 0  5 -2.5 0  5 -2.4 0  5 -2.3 0  5 -2.2 0  5 -2.1 0  5 -2 0  5 -1.9 0  5 -1.8 0  5 -1.7 0  5 -1.6 0  5 -1.5 0  5 -1.4 0  5 -1.3 0  5 -1.2 0  5 -1.1 0  5 -1 0  5 -0.9000000000000004 0  5 -0.7999999999999998 0  5 -0.7000000000000002 0  5 -0.5999999999999996 0  5 -0.5 0  5 -0.4000000000000004 0  5 -0.2999999999999998 0  5 -0.2000000000000002 0  5 -0.09999999999999964 0  5 0 0  5 0.09999999999999964 0  5 0.2000000000000002 0  5 0.2999999999999998 0  5 0.4000000000000004 0  5 0.5 0  5 0.5999999999999996 0  5 0.7000000000000002 0  5 0.7999999999999998 0  5 0.9000000000000004 0  5 1 0  5 1.1 0  5 1.2 0  5 1.3 0  5 1.4 0  5 1.5 0  5 1.6 0  5 1.7 0  5 1.8 0  5 1.9 0  5 2 0  5 2.1 0  5 2.2 0  5 2.3 0  5 2.4 0  5 2.5 0  5 2.6 0  5 2.7 0  5 2.8 0  5 2.9 0  5 3 0  5 3.1 0  5 3.199999999999999 0  5 3.300000000000001 0  5 3.4 0  5 3.5 0  5 3.6 0  5 3.699999999999999 0  5 3.800000000000001 0  5 3.9 0  5 4 0  5 4.1 0  5 4.199999999999999 0  5 4.300000000000001 0  5 4.4 0  5 4.5 0  5 4.6 0  5 4.699999999999999 0  5 4.800000000000001 0  5 4.9 0  4.9 5 0  4.8 5 0  4.7 5 0  4.6 5 0  4.5 5 0  4.4 5 0  4.3 5 0  4.2 5 0  4.1 5 0  4 5 0  3.9 5 0  3.8 5 0  3.7 5 0  3.6 5 0  3.5 5 0  3.4 5 0  3.3 5 0  3.2 5 0  3.1 5 0  3 5 0  2.9 5 0  2.8 5 0  2.7 5 0  2.6 5 0  2.5 5 0  2.4 5 0  2.3 5 0  2.2 5 0  2.1 5 0  2 5 0  1.9 5 0  1.8 5 0  1.7 5 0  1.6 5 0  1.5 5 0  1.4 5 0  1.3 5 0  1.2 5 0  1.1 5 0  1 5 0  0.9000000000000004 5 0  0.7999999999999998 5 0  0.7000000000000002 5 0  0.5999999999999996 5 0  0.5 5 0  0.4000000000000004 5 0  0.2999999999999998 5 0  0.2000000000000002 5 0  0.09999999999999964 5 0  0 5 0  -0.09999999999999964 5 0  -0.2000000000000002 5 0  -0.2999999999999998 5 0  -0.4000000000000004 5 0  -0.5 5 0  -0.5999999999999996 5 0  -0.7000000000000002 5 0  -0.7999999999999998 5 0  -0.9000000000000004 5 0  -1 5 0  -1.1 5 0  -1.2 5 0  -1.3 5 0  -1.4 5 0  -1.5 5 0  -1.6 5 0  -1.7 5 0  -1.8 5 0  -1.9 5 0  -2 5 0  -2.1 5 0  -2.2 5 0  -2.3 5 0  -2.4 5 0  -2.5 5 0  -2.6 5 0  -2.7 5 0  -2.8 5 0  -2.9 5 0  -3 5 0  -3.1 5 0  -3.199999999999999 5 0  -3.300000000000001 5 0  -3.4 5 0  -3.5 5 0  -3.6 5 0  -3.699999999999999 5 0  -3.800000000000001 5 0  -3.9 5 0  -4 5 0  -4.1 5 0  -4.199999999999999 5 0  -4.300000000000001 5 0  -4.4 5 0  -4.5 5 0  -4.6 5 0  -4.699999999999999 5 0  -4.800000000000001 5 0  -4.9 5 0  -5 4.9 0  -5 4.8 0  -5 4.7 0  -5 4.6 0  -5 4.5 0  -5 4.4 0  -5 4.3 0  -5 4.2 0  -5 4.1 0  -5 4 0  -5 3.9 0  -5 3.8 0  -5 3.7 0  -5 3.6 0  -5 3.5 0  -5 3.4 0  -5 3.3 0  -5 3.2 0  -5 3.1 0  -5 3 0  -5 2.9 0  -5 2.8 0  -5 2.7 0  -5 2.6 0  -5 2.5 0  -5 2.4 0  -5 2.3 0  -5 2.2 0  -5 2.1 0  -5 2 0  -5 1.9 0  -5 1.8 0  -5 1.7 0  -5 1.6 0  -5 1.5 0  -5 1.4 0  -5 1.3 0  -5 1.2 0  -5 1.1 0  -5 1 0  -5 0.9000000000000004 0  -5 0.7999999999999998 0  -5 0.7000000000000002 0  -5 0.5999999999999996 0  -5 0.5 0  -5 0.4000000000000004 0  -5 0.2999999999999998 0  -5 0.2000000000000002 0  -5 0.09999999999999964 0  -5 0 0  -5 -0.09999999999999964 0  -5 -0.2000000000000002 0  -5 -0.2999999999999998 0  -5 -0.4000000000000004 0  -5 -0.5 0  -5 -0.5999999999999996 0  -5 -0.7000000000000002 0  -5 -0.7999999999999998 0  -5 -0.9000000000000004 0  -5 -1 0  -5 -1.1 0  -5 -1.2 0  -5 -1.3 0  -5 -1.4 0  -5 -1.5 0  -5 -1.6 0  -5 -1.7 0  -5 -1.8 0  -5 -1.9 0  -5 -2 0  -5 -2.1 0  -5 -2.2 0  -5 -2.3 0  -5 -2.4 0  -5 -2.5 0  -5 -2.6 0  -5 -2.7 0  -5 -2.8 0  -5 -2.9 0  -5 -3 0  -5 -3.1 0  -5 -3.199999999999999 0  -5 -3.300000000000001 0  -5 -3.4 0  -5 -3.5 0  -5 -3.6 0  -5 -3.699999999999999 0  -5 -3.800000000000001 0  -5 -3.9 0  -5 -4 0  -5 -4.1 0  -5 -4.199999999999999 0  -5 -4.300000000000001 0  -5 -4.4 0  -5 -4.5 0  -5 -4.6 0  -5 -4.699999999999999 0  -5 -4.800000000000001 0  -5 -4.9 0  2.202950403106598 0.235394314636416 0  1.931093456586907 0.3740842951234889 0  2.170829849903655 0.6379402130300228 0  1.756391078867298 0.6779881867171635 0  1.725169338324308 0.9025173020539013 0  1.514378188909252 0.9902124934488279 0  1.448979875023234 1.179518676572935 0  1.189436914173991 1.110893709954883 0  1.104045865091742 1.316756030334607 0  0.9410604699170636 1.420892829090778 0  0.7721173877570757 1.434177987713374 0  0.6294933182969775 1.482783239133127 0  0.4514107490154531 1.56320132417394 0  0.2893168909233216 1.586496369322377 0  0.1307817971508486 1.629195635335446 0  -0.02108106382594966 1.619737910349258 0  -0.2247837108378605 1.586233814419583 0  -0.3877281760147859 1.587125258845727 0  -0.5343241963930969 1.536047177890881 0  -0.6909701983440605 1.45812815332308 0  -0.8648048719947646 1.432922460249486 0  -1.008535795836112 1.321015760741656 0  -1.165137850299397 1.232223831199651 0  -1.40256539064239 1.24017087701243 0  -1.33315287471461 0.9607402716105569 0  -1.62637964133127 0.9692632635885456 0  -1.827392482082083 0.8549443450218082 0  -1.817309867642715 0.6549131569115227 0  -2.017211672302232 0.5178701997211864 0  -2.093157260943615 0.2950325926895828 0  -2.138964808999152 0.08573303472281399 0  -1.917976928060827 -0.1360654553876527 0  -2.296475538472699 -0.3572981319952939 0  -1.935022389347854 -0.4388991691407726 0  -1.823843224846649 -0.6467637576015414 0  -1.86271891402471 -0.8670835945473443 0  -1.513448539244764 -0.8641794152341877 0  -1.499624111645832 -1.073351497493588 0  -1.347911791564997 -1.194642680195536 0  -1.150711538305483 -1.21831236142973 0  -1.014560940943953 -1.347912207397689 0  -0.856668606265042 -1.449682261822632 0  -0.6946809898996847 -1.488257171391329 0  -0.5271670432371217 -1.528368119308554 0  -0.3765652073213172 -1.600545276083866 0  -0.2098644168927238 -1.595216035609581 0  -0.04620854273783052 -1.620755571347465 0  0.1380882070979189 -1.613905999282266 0  0.2885329536550673 -1.606178263233156 0  0.4608794201206263 -1.572183960774497 0  0.6147407514630089 -1.516079413689192 0  0.7705260429822011 -1.415913939282079 0  0.9468134892200856 -1.421776288594044 0  1.10316971691554 -1.305928293522349 0  1.270382047790028 -1.25303645280642 0  1.387398730537815 -1.112953614769369 0  1.520309197256227 -0.9792906880420951 0  1.726797611325473 -0.8938166998771684 0  1.827610608482712 -0.748923888806355 0  1.905846920525628 -0.5580204039763255 0  2.106448826601421 -0.4144917793054574 0  2.098949377048686 -0.2049835510375396 0  -2.44980122931313 4.920143583596341 0  -2.449768243789407 -4.912701512880127 0  4.911583627330153 2.448617397673281 0  4.919606441091577 -2.449947027812576 0  2.447692715096267 -4.898298503199268 0  2.442079344274378 4.902029403965943 0  -4.911616059975587 -2.448628161587467 0  -4.911655638331117 2.448633363294817 0  -1.74999725084094 4.914119518416198 0  -1.745703984299291 -4.917414751566881 0  4.921486194463509 1.74435116499033 0  4.910129036238332 -1.748276522565246 0  -4.910445507424209 -1.747965516083587 0  -4.911297863761163 1.74770585373986 0  1.747371811041569 4.908184889777141 0  1.748946090913342 -4.896707801144078 0  -1.150121512478178 4.91278562314887 0  -1.130852632019275 -4.920281690218124 0  -4.909753658125557 -1.147984554334337 0  -4.909598325067641 1.147776567790968 0  1.14502352300938 -4.916656713936435 0  1.150128780565187 4.912752481068424 0  4.909888023193225 1.146259191282887 0  4.920639595834112 -1.151930928262777 0  -0.5473644570428684 -4.914420138030281 0  -0.5470785783272708 4.922741933060824 0  -4.908002668078364 -0.5486393247255346 0  -4.908041375368578 0.5471760903098959 0  4.90725557452767 -0.5489607655854151 0  4.918930097255981 0.5456610351496309 0  0.543254569384384 -4.901932217089255 0  0.5518321598279075 4.919718620270847 0  -4.912924082951982 -3.049037489499649 0  4.919432501411613 3.046982913145976 0  4.912439864221704 -3.049026791210492 0  -4.913792871281583 3.046116739011392 0  3.056260644720528 -4.918845377798815 0  -3.049639134437427 -4.912803941198931 0  3.053192959757267 4.914910867767012 0  -3.049115701194167 4.913748753141634 0  -4.906907598159586 -0.04990530367944827 0  0.04517622953519704 -4.916457857881983 0  0.04962369472405845 4.92317607636781 0  4.91393306551927 -0.05129232168360626 0  3.546287683512151 -4.919998761857317 0  -3.549641864783036 4.913024927185268 0  -3.549612537042684 -4.913037221736252
[...]
<PointData  Scalars="f_26"> 
<DataArray  type="Float64"  Name="f_26"  format="ascii">0.0000000000000000e+00  0.0000000000000000e+00  0.0000000000000000e+00  0.0000000000000000e+00  1.1183907594338308e+02  0.0000000000000000e+00  0.0000000000000000e+00  0.0000000000000000e+00  0.0000000000000000e+00  0.0000000000000000e+00  0.0000000000000000e+00  0.0000000000000000e+00  0.0000000000000000e+00  0.0000000000000000e+00  0.0000000000000000e+00  0.0000000000000000e+00  0.0000000000000000e+00  0.0000000000000000e+00  0.0000000000000000e+00  0.0000000000000000e+00  0.0000000000000000e+00  0.0000000000000000e+00  0.0000000000000000e+00  0.0000000000000000e+00  0.0000000000000000e+00  0.0000000000000000e+00  0.0000000000000000e+00  0.0000000000000000e+00  0.0000000000000000e+00  0.0000000000000000e+00  0.0000000000000000e+00  0.0000000000000000e+00  0.0000000000000000e+00  0.0000000000000000e+00  0.0000000000000000e+00  0.0000000000000000e+00  0.0000000000000000e+00  0.0000000000000000e+00  0.0000000000000000e+00  0.0000000000000000e+00  0.0000000000000000e+00  0.0000000000000000e+00  0.0000000000000000e+00  0.0000000000000000e+00  0.0000000000000000e+00  0.0000000000000000e+00  0.0000000000000000e+00  0.0000000000000000e+00  0.0000000000000000e+00  0.0000000000000000e+00  0.0000000000000000e+00  0.0000000000000000e+00  0.0000000000000000e+00  0.0000000000000000e+00  0.0000000000000000e+00  0.0000000000000000e+00  0.0000000000000000e+00  0.0000000000000000e+00  0.0000000000000000e+00  0.0000000000000000e+00  0.0000000000000000e+00  0.0000000000000000e+00  0.0000000000000000e+00  0.0000000000000000e+00  0.0000000000000000e+00  0.0000000000000000e+00  0.0000000000000000e+00  0.0000000000000000e+00  0.0000000000000000e+00  0.0000000000000000e+00  0.0000000000000000e+00  0.0000000000000000e+00  0.0000000000000000e+00  0.0000000000000000e+00  0.0000000000000000e+00  0.0000000000000000e+00  0.0000000000000000e+00  0.0000000000000000e+00  0.0000000000000000e+00  0.0000000000000000e+00  0.0000000000000000e+00  0.0000000000000000e+00  0.0000000000000000e+00  0.0000000000000000e+00  0.0000000000000000e+00  0.0000000000000000e+00  0.0000000000000000e+00  0.0000000000000000e+00  0.0000000000000000e+00  0.0000000000000000e+00  0.0000000000000000e+00  0.0000000000000000e+00  0.0000000000000000e+00  0.0000000000000000e+00  0.0000000000000000e+00  0.0000000000000000e+00  0.0000000000000000e+00  0.0000000000000000e+00  0.0000000000000000e+00  0.0000000000000000e+00  0.0000000000000000e+00  0.0000000000000000e+00  0.0000000000000000e+00  0.0000000000000000e+00  0.0000000000000000e+00  0.0000000000000000e+00  0.0000000000000000e+00  0.0000000000000000e+00  0.0000000000000000e+00  0.0000000000000000e+00  0.0000000000000000e+00  0.0000000000000000e+00  0.0000000000000000e+00  0.0000000000000000e+00  0.0000000000000000e+00  0.0000000000000000e+00  0.0000000000000000e+00  0.0000000000000000e+00  0.0000000000000000e+00  0.0000000000000000e+00  0.0000000000000000e+00  0.0000000000000000e+00  0.0000000000000000e+00  0.0000000000000000e+00  0.0000000000000000e+00  0.0000000000000000e+00  0.0000000000000000e+00  0.0000000000000000e+00  0.0000000000000000e+00  0.0000000000000000e+00  0.0000000000000000e+00  0.0000000000000000e+00  0.0000000000000000e+00  0.0000000000000000e+00  0.0000000000000000e+00  0.0000000000000000e+00  0.0000000000000000e+00  0.0000000000000000e+00  0.0000000000000000e+00  0.0000000000000000e+00  0.0000000000000000e+00  0.0000000000000000e+00  0.0000000000000000e+00  0.0000000000000000e+00  0.0000000000000000e+00  0.0000000000000000e+00  0.0000000000000000e+00  0.0000000000000000e+00  0.0000000000000000e+00  0.0000000000000000e+00  0.0000000000000000e+00  0.0000000000000000e+00  0.0000000000000000e+00  0.0000000000000000e+00  0.0000000000000000e+00  0.0000000000000000e+00  0.0000000000000000e+00  0.0000000000000000e+00  0.0000000000000000e+00  0.0000000000000000e+00  0.0000000000000000e+00  0.0000000000000000e+00  0.0000000000000000e+00  0.0000000000000000e+00  0.0000000000000000e+00  0.0000000000000000e+00  0.0000000000000000e+00  0.0000000000000000e+00  0.0000000000000000e+00  0.0000000000000000e+00  0.0000000000000000e+00  0.0000000000000000e+00  0.0000000000000000e+00  0.0000000000000000e+00  0.0000000000000000e+00  0.0000000000000000e+00  0.0000000000000000e+00  0.0000000000000000e+00  0.0000000000000000e+00  0.0000000000000000e+00  0.0000000000000000e+00  0.0000000000000000e+00  0.0000000000000000e+00  0.0000000000000000e+00  0.0000000000000000e+00  0.0000000000000000e+00  0.0000000000000000e+00  0.0000000000000000e+00  0.0000000000000000e+00  0.0000000000000000e+00  0.0000000000000000e+00  0.0000000000000000e+00  0.0000000000000000e+00  0.0000000000000000e+00  0.0000000000000000e+00  0.0000000000000000e+00  0.0000000000000000e+00  0.0000000000000000e+00  0.0000000000000000e+00  0.0000000000000000e+00  0.0000000000000000e+00  0.0000000000000000e+00  0.0000000000000000e+00  0.0000000000000000e+00  0.0000000000000000e+00  0.0000000000000000e+00  0.0000000000000000e+00  0.0000000000000000e+00  0.0000000000000000e+00  0.0000000000000000e+00  0.0000000000000000e+00  0.0000000000000000e+00  0.0000000000000000e+00  0.0000000000000000e+00  0.0000000000000000e+00  0.0000000000000000e+00  0.0000000000000000e+00  0.0000000000000000e+00  0.0000000000000000e+00  0.0000000000000000e+00  0.0000000000000000e+00  0.0000000000000000e+00  0.0000000000000000e+00  0.0000000000000000e+00  0.0000000000000000e+00  0.0000000000000000e+00  0.0000000000000000e+00  0.0000000000000000e+00  0.0000000000000000e+00  0.0000000000000000e+00  0.0000000000000000e+00  0.0000000000000000e+00  0.0000000000000000e+00  0.0000000000000000e+00  0.0000000000000000e+00  0.0000000000000000e+00  0.0000000000000000e+00  0.0000000000000000e+00  0.0000000000000000e+00  0.0000000000000000e+00  0.0000000000000000e+00  0.0000000000000000e+00  0.0000000000000000e+00  0.0000000000000000e+00  0.0000000000000000e+00  0.0000000000000000e+00  0.0000000000000000e+00  0.0000000000000000e+00  0.0000000000000000e+00  0.0000000000000000e+00  0.0000000000000000e+00  0.0000000000000000e+00  0.0000000000000000e+00  0.0000000000000000e+00  0.0000000000000000e+00  0.0000000000000000e+00  0.0000000000000000e+00  0.0000000000000000e+00  0.0000000000000000e+00  0.0000000000000000e+00  0.0000000000000000e+00  0.0000000000000000e+00  0.0000000000000000e+00  0.0000000000000000e+00  0.0000000000000000e+00  0.0000000000000000e+00  0.0000000000000000e+00  0.0000000000000000e+00  0.0000000000000000e+00  0.0000000000000000e+00  0.0000000000000000e+00  0.0000000000000000e+00  0.0000000000000000e+00  0.0000000000000000e+00  0.0000000000000000e+00  0.0000000000000000e+00  0.0000000000000000e+00  0.0000000000000000e+00  0.0000000000000000e+00  0.0000000000000000e+00  0.0000000000000000e+00  0.0000000000000000e+00  0.0000000000000000e+00  0.0000000000000000e+00  0.0000000000000000e+00  0.0000000000000000e+00  0.0000000000000000e+00  0.0000000000000000e+00  0.0000000000000000e+00  0.0000000000000000e+00  0.0000000000000000e+00  0.0000000000000000e+00  0.0000000000000000e+00  0.0000000000000000e+00  0.0000000000000000e+00  0.0000000000000000e+00  0.0000000000000000e+00  0.0000000000000000e+00  0.0000000000000000e+00  0.0000000000000000e+00  0.0000000000000000e+00  0.0000000000000000e+00  0.0000000000000000e+00  0.0000000000000000e+00  0.0000000000000000e+00  0.0000000000000000e+00  0.0000000000000000e+00  0.0000000000000000e+00  0.0000000000000000e+00  0.0000000000000000e+00  0.0000000000000000e+00  0.0000000000000000e+00  0.0000000000000000e+00  0.0000000000000000e+00  0.0000000000000000e+00  0.0000000000000000e+00  0.0000000000000000e+00  0.0000000000000000e+00  0.0000000000000000e+00  0.0000000000000000e+00  0.0000000000000000e+00  0.0000000000000000e+00  0.0000000000000000e+00  0.0000000000000000e+00  0.0000000000000000e+00  0.0000000000000000e+00  0.0000000000000000e+00  0.0000000000000000e+00  0.0000000000000000e+00  0.0000000000000000e+00  0.0000000000000000e+00  0.0000000000000000e+00  0.0000000000000000e+00  0.0000000000000000e+00  0.0000000000000000e+00  0.0000000000000000e+00  0.0000000000000000e+00  0.0000000000000000e+00  0.0000000000000000e+00  0.0000000000000000e+00  0.0000000000000000e+00  0.0000000000000000e+00  0.0000000000000000e+00  0.0000000000000000e+00  0.0000000000000000e+00  0.0000000000000000e+00  0.0000000000000000e+00  0.0000000000000000e+00  0.0000000000000000e+00  0.0000000000000000e+00  0.0000000000000000e+00  0.0000000000000000e+00  0.0000000000000000e+00  0.0000000000000000e+00  0.0000000000000000e+00  0.0000000000000000e+00  0.0000000000000000e+00  0.0000000000000000e+00  0.0000000000000000e+00  0.0000000000000000e+00  0.0000000000000000e+00  0.0000000000000000e+00  0.0000000000000000e+00  0.0000000000000000e+00  0.0000000000000000e+00  0.0000000000000000e+00  0.0000000000000000e+00  0.0000000000000000e+00  0.0000000000000000e+00  0.0000000000000000e+00  0.0000000000000000e+00  0.0000000000000000e+00  0.0000000000000000e+00  0.0000000000000000e+00  0.0000000000000000e+00  0.0000000000000000e+00  0.0000000000000000e+00  0.0000000000000000e+00  0.0000000000000000e+00  0.0000000000000000e+00  0.0000000000000000e+00  0.0000000000000000e+00  0.0000000000000000e+00  0.0000000000000000e+00  0.0000000000000000e+00  0.0000000000000000e+00  0.0000000000000000e+00  0.0000000000000000e+00  0.0000000000000000e+00  0.0000000000000000e+00  0.0000000000000000e+00  0.0000000000000000e+00  0.0000000000000000e+00  0.0000000000000000e+00  0.0000000000000000e+00  0.0000000000000000e+00  0.0000000000000000e+00  0.0000000000000000e+00  0.0000000000000000e+00  0.0000000000000000e+00  0.0000000000000000e+00  1.1452156501031786e+02  1.1123788402525913e+02  1.1427655353258943e+02  1.0718950859451142e+02  1.0381165054572605e+02  9.9034305829633894e+01  9.6808799337258819e+01  9.1209433349593795e+01  8.5797111719530491e+01  8.3141733651833178e+01  8.0610720083799634e+01  7.8043289157681969e+01  7.5771676054573916e+01  7.4522652998559877e+01  7.3852366881495925e+01  7.3854822673210705e+01  7.4385493757068588e+01  7.5217149556425653e+01  7.6556326454401301e+01  7.8940746095532603e+01  8.1618423416006792e+01  8.4772898261169729e+01  8.9152277548639134e+01  9.2098400094556496e+01  9.4808094760903927e+01  1.0262135652638310e+02  1.0624416217341960e+02  1.0713905111582758e+02  1.1090013937894138e+02  1.1260479462575047e+02  1.1341839354146258e+02  1.1086082973290470e+02  1.1557341273877084e+02  1.1069043193639379e+02  1.0684486265062706e+02  1.0679543763578266e+02  1.0007862136896436e+02  9.6300639717013269e+01  9.3371021221004554e+01  8.9313543430997910e+01  8.4872431934628722e+01  8.2294763271807227e+01  7.9968424337978817e+01  7.7678312644137904e+01  7.6241781794979573e+01  7.5408316336545951e+01  7.5080323396436242e+01  7.5360879412422690e+01  7.6039583279606006e+01  7.7418715045819539e+01  7.9182924670950214e+01  8.2306491832285047e+01  8.5260247263271566e+01  8.8543735521567442e+01  9.1930759869764017e+01  9.5292066553097584e+01  9.9871673503680384e+01  1.0473915340759044e+02  1.0713556988933053e+02  1.0980765185741649e+02  1.1314061076186640e+02  1.1318644371310670e+02  1.2796271962514276e+00  1.4481184194656176e+00  2.1642855908540737e+00  2.0541576023174239e+00  1.7738490109512399e+00  1.5930094023837333e+00  2.1524733729719276e+00  2.1262148933526492e+00  1.4617079840270202e+00  1.4680532387795284e+00  2.4902440238537773e+00  2.9412994370306986e+00  2.8069770348693859e+00  2.7605436624078030e+00  1.5810671949903767e+00  1.9140211128407676e+00  1.4910865624276131e+00  1.4349564036549014e+00  3.2926966939958797e+00  3.2849399192636022e+00  1.5469540005490079e+00  1.5044268935825775e+00  3.3413639192505094e+00  3.0059295132435389e+00  1.5383333143990190e+00  1.3079853574537823e+00  3.6763627449014482e+00  3.6691374887251671e+00  3.8281689389917730e+00  3.3115271910278765e+00  1.7908872809770906e+00  1.3652290613885556e+00  1.5877341053709031e+00  1.4719693883867511e+00  1.6808579650021609e+00  1.5497417821138753e+00  1.2287208488599297e+00  1.2565320535142368e+00  1.2064166094468494e+00  1.2053184037682756e+00  3.8209186630935457e+00  1.5075830425511862e+00  1.2964220206983204e+00  3.6326168750408772e+00  9.8460606025191344e-01  9.8557631511398835e-01  1.0112006402814251e+00  1.0639452535079037e+00  1.1585579233055447e+00  1.1904879610249437e+00  1.1183118723273322e+00  9.7856433581540658e-01  8.4900114633541901e-01  8.5901404975422957e-01  8.1274538125976525e-01  8.2553865635394286e-01  6.9633224195597054e-01  8.2189065818096130e-01  7.4805687095139517e-01  7.9834527757494700e-01  6.0876690478916784e-01  4.4248564806381940e-01  4.1584605029029470e-01  5.0242756932955457e-01  5.2509624634693275e-01  4.9820371679613740e-01  4.8185738424907304e-01  5.0697712570240072e-01  3.7941348498578136e+00  1.5669448411894473e+00  1.3696143396275562e+00  3.4054365231788393e+00  1.5363357549297769e+00  3.0588935480554555e+00  3.5170762944324090e+00  3.5415457192508399e+00  3.0729407184109983e+00  1.4299146554053053e+00  1.7232004787450752e+00  1.5760296397796327e+00  1.5099315010366716e+00  2.9872452727668479e+00  3.6718034454011903e+00  3.2106030768299973e+00  3.2168031336907150e+00  1.4939489672254285e+00  1.7346909214205999e+00  1.5668062098796922e+00  1.7112954539817335e+00  1.6005630991814384e+00  2.5327454195437880e+00  2.4705350568789242e+00  1.2408192359099588e+00  1.5808348818514018e+00  2.3503126778761940e+00  2.6520384032977291e+00  1.9675053161482698e+00  1.4394977308179260e+00  1.3808091782502918e+00  1.8259577887786529e+00  1.4996177287874821e+00  1.8711530216387262e+00  1.7942270725464291e+00  1.2611251876600802e+00  2.6896202199449526e-01  2.7962815913063055e-01  2.5669564754371565e-01  2.7947360330300125e-01  2.8567725862273835e-01  2.7925409819415675e-01  2.6074014156911346e-01  2.1907400260085816e-01  3.7970244003758262e+00  1.7105561728536558e+00  1.7483390178445863e+00  3.4727025745503206e+00  1.4359963909324711e+00  2.3581448202270203e+00  2.4559415116044225e+00  1.6715377881705724e+00  2.3424208737156071e+00  1.5635275212420310e+00  1.5629736830335141e+00  2.2911909670872044e+00  1.4729061170901632e+00  1.3421493046616324e+00  1.2909186388147538e+00  1.4182853561604940e+00  1.3376391348664374e+00  1.2792661020493648e+00  1.1304704048248082e+00  1.3783291733550707e+00  1.0296587069013106e+00  6.8994513316274786e-01  9.0517710162476850e-01  6.8387085850204199e-01  8.7198999840888902e-01  6.7707244036779590e-01  9.9027199976992997e-01  6.6400569160335554e-01  8.7327682324876288e-01  7.4303595342664008e-01  9.8675379504367977e-01  6.6089865512187196e-01  9.7077485556256204e-01  6.4201217484902973e-01  9.2686593493829816e-01  6.4967043294233506e-01  1.2731807655137106e-01  1.1460112880239316e-01  1.2206820477717137e-01  1.2232613499636652e-01  3.8130374382481627e+00  7.6104299667720152e+00  7.5700548858509737e+00  1.1380459165485826e+01  1.1307571478843364e+01  1.5112937611003771e+01  1.5004817618130819e+01  1.8798805980738098e+01  1.8642029085959692e+01  2.2426201181637165e+01  2.2212395230829962e+01  2.5985363723591135e+01  2.5706890479867557e+01  2.9466090527231735e+01  2.9115351891321836e+01  3.2858544880432930e+01  3.2424407613201609e+01  3.6151029356072044e+01  3.5633646973239841e+01  3.9328807826817219e+01  3.8723095735444012e+01  3.9877203360897752e+01  4.2396774268009544e+01  4.1684460195989381e+01  4.5336109865912228e+01  4.4515476345833683e+01  4.8126037318275053e+01  4.7197537215202679e+01  5.0767858950048115e+01  4.9724719579837085e+01  5.3246474545921401e+01  5.2088315850784618e+01  5.4338523973212993e+01  5.5551411271396908e+01  5.4279679710309757e+01  5.7689823068432027e+01  5.6295206880090923e+01  5.9651417733714361e+01  5.8125493699761194e+01  6.1416120689664780e+01  5.9771943807712582e+01  6.2986450816322765e+01  6.1224549213445613e+01  6.4701219200305644e+01  6.4359366081469190e+01  6.2483441744166129e+01  6.5533705321315352e+01  6.3544066314864018e+01  6.0556799976445603e+01  6.1521092545271841e+01  6.4413519719229171e+01  6.2305053343165596e+01  5.9493589580847093e+01  6.0189891317343495e+01  5.7467123407518578e+01  5.8076355809475913e+01  6.0701361139109814e+01  5.8512361474221919e+01  5.5967795547257104e+01  5.6335765982847995e+01  5.3869998798865190e+01  5.4176005415581812e+01  5.6544193134596213e+01  5.4329122166104639e+01  5.2036714773438888e+01  5.2139467050710365e+01  5.4335582703042832e+01  5.2102376853875903e+01  4.9977380764223518e+01  4.9900719138992521e+01  5.1932452053236297e+01  4.9697891364479730e+01  5.1637626635999034e+01  4.7844500603205390e+01  4.9376541441565941e+01  5.1225874710033331e+01  4.8944788600684660e+01  5.0706258362725393e+01  4.8411179190826445e+01  5.0087866195322640e+01  4.7784568316407821e+01  4.9379585988817048e+01  4.6158706801257082e+01  4.7073781669981784e+01  4.8591204737107539e+01  4.6287888597321412e+01  4.7732129264468796e+01  4.5435999728333854e+01  4.6811680294194261e+01  4.4526862467074039e+01  4.5839122760587543e+01  4.3569234793896470e+01  4.4823109775173847e+01  4.2571314409241047e+01  4.3772275670980420e+01  4.2287434165680146e+01  5.2437369859961755e+01  9.6216184776152943e+01  4.1540893399340447e+01  4.2694538060739703e+01  4.0485775779520459e+01  4.1597327244997743e+01  8.5259841463829659e+01  3.9412699119167094e+01  4.0487515720109265e+01  7.7736210582857140e+01  3.8327992814493186e+01  3.9371297429541229e+01  4.1546061209055708e+01  4.0401137456415711e+01  3.8254087157629776e+01  3.9260275632028190e+01  4.8158431138629560e+01  3.7269084164274041e+01  3.7140908851673650e+01  3.8128263824151823e+01  4.0258908046010198e+01  3.9110676974528339e+01  3.7008405073961939e+01  3.7979063623783730e+01  4.0091955340530120e+01  3.8951563352871894e+01  3.6866362167609672e+01  3.7834061007771609e+01  3.9929837335414206e+01  3.8810244897257192e+01  3.6740540163695066e+01  3.7717335745773177e+01  3.9801508923129141e+01  3.8710820930553325e+01  3.6651874606694754e+01  3.7648979949815008e+01  3.9721018996269770e+01  3.8666438561574566e+01  3.6616297098569021e+01  3.7642316673938062e+01  3.9708025673048454e+01  3.8693715665175311e+01  4.0777612663451507e+01  3.9773740146799177e+01  3.7706724061839857e+01  3.8796967084907337e+01  4.0885361371129200e+01  3.9918764150469443e+01  3.7843792789961753e+01  3.8974660686010246e+01  4.1074358186183126e+01  4.0138178869887255e+01  4.2265310572659281e+01  4.1335398434706214e+01  4.3492810942358233e+01  4.2566939800104528e+01  4.0419704987517051e+01  4.1652605552465410e+01  4.3832726933292861e+01  4.2916453266665599e+01  4.5131840274388438e+01  4.4209743340074340e+01  4.6462580812303102e+01  4.5530080489261756e+01  4.7822217257120037e+01  4.6874171480810155e+01  4.4593556760180277e+01  4.5918225715355312e+01  4.8237888113922040e+01  4.7257475201046404e+01  4.9614599927968712e+01  4.8603792234328111e+01  5.1000188438266477e+01  4.9951144874302905e+01  5.2390583610896357e+01  5.1292020312038460e+01  5.3769705742320426e+01  5.2618652450012853e+01  5.5128288552226486e+01  5.3919320918071456e+01  5.6460954329129443e+01  5.5184971293512902e+01  5.7765468852033550e+01  5.6406344308813935e+01  5.9011515490670547e+01  5.7569128042256580e+01  6.0180252246847388e+01  5.8658553398450401e+01  6.1281656504749797e+01  5.9667174519915058e+01  6.2296769343984018e+01  5.7093363143316459e+01  5.8008784846709311e+01  5.5485660430125897e+01  5.6306214121828766e+01  5.3835697111516318e+01  5.4561623143548431e+01  5.2143998083623217e+01  5.2775973598445042e+01  5.0412198343915364e+01  5.0951400311630834e+01  5.3297941443756400e+01  4.8642992059742831e+01  4.7568390267467699e+01  5.1377655454890636e+01  5.3700385561151499e+01  5.1683032528401590e+01  5.3974478749427234e+01  5.1857942986164133e+01  5.4111645121202372e+01  5.1894343989554045e+01  5.4104096124404073e+01  5.1786677814547900e+01  4.9649556699464803e+01  5.3945181547707755e+01  4.9445225622049875e+01  4.7381830181021179e+01  4.7084012240220673e+01  4.5095520121933205e