<?xml version="1.0"?>
<VTKFile type="UnstructuredGrid"  version="0.1"  >
<UnstructuredGrid>
<Piece  NumberOfPoints="11902" NumberOfCells="23402">
<Points>
<DataArray  type="Float64"  NumberOfComponents="3"  format="ascii">-5 -5 0  5 -5 0  5 5 0  -5 5 0  2.026187883676317 -0.00276142063586981 0  -4.9 -5 0  -4.8 -5 0  -4.7 -5 0  -4.6 -5 0  -4.5 -5 0  -4.4 -5 0  -4.3 -5 0  -4.2 -5 0  -4.1 -5 0  -4 -5 0  -3.9 -5 0  -3.8 -5 0  -3.7 -5 0  -3.6 -5 0  -3.5 -5 0  -3.4 -5 0  -3.3 -5 0  -3.2 -5 0  -3.1 -5 0  -3 -5 0  -2.9 -5 0  -2.8 -5 0  -2.7 -5 0  -2.6 -5 0  -2.5 -5 0  -2.4 -5 0  -2.3 -5 0  -2.2 -5 0  -2.1 -5 0  -2 -5 0  -1.9 -5 0  -1.8 -5 0  -1.7 -5 0  -1.6 -5 0  -1.5 -5 0  -1.4 -5 0  -1.3 -5 0  -1.2 -5 0  -1.1 -5 0  -1 -5 0  -0.9000000000000004 -5 0  -0.7999999999999998 -5 0  -0.7000000000000002 -5 0  -0.5999999999999996 -5 0  -0.5 -5 0  -0.4000000000000004 -5 0  -0.2999999999999998 -5 0  -0.2000000000000002 -5 0  -0.09999999999999964 -5 0  0 -5 0  0.09999999999999964 -5 0  0.2000000000000002 -5 0  0.2999999999999998 -5 0  0.4000000000000004 -5 0  0.5 -5 0  0.5999999999999996 -5 0  0.7000000000000002 -5 0  0.7999999999999998 -5 0  0.9000000000000004 -5 0  1 -5 0  1.1 -5 0  1.2 -5 0  1.3 -5 0  1.4 -5 0  1.5 -5 0  1.6 -5 0  1.7 -5 0  1.8 -5 0  1.9 -5 0  2 -5 0  2.1 -5 0  2.2 -5 0  2.3 -5 0  2.4 -5 0  2.5 -5 0  2.6 -5 0  2.7 -5 0  2.8 -5 0  2.9 -5 0  3 -5 0  3.1 -5 0  3.199999999999999 -5 0  3.300000000000001 -5 0  3.4 -5 0  3.5 -5 0  3.6 -5 0  3.699999999999999 -5 0  3.800000000000001 -5 0  3.9 -5 0  4 -5 0  4.1 -5 0  4.199999999999999 -5 0  4.300000000000001 -5 0  4.4 -5 0  4.5 -5 0  4.6 -5 0  4.699999999999999 -5 0  4.800000000000001 -5 0  4.9 -5 0  5 -4.9 0  5 -4.8 0  5 -4.7 0  5 -4.6 0  5 -4.5 0  5 -4.4 0  5 -4.3 0  5 -4.2 0  5 -4.1 0  5 -4 0  5 -3.9 0  5 -3.8 0  5 -3.7 0  5 -3.6 0  5 -3.5 0  5 -3.4 0  5 -3.3 0  5 -3.2 0  5 -3.1 0  5 -3 0  5 -2.9 0  5 -2.8 0  5 -2.7 0  5 -2.6 0  5 -2.5 0  5 -2.4 0  5 -2.3 0  5 -2.2 0  5 -2.1 0  5 -2 0  5 -1.9 0  5 -1.8 0  5 -1.7 0  5 -1.6 0  5 -1.5 0  5 -1.4 0  5 -1.3 0  5 -1.2 0  5 -1.1 0  5 -1 0  5 -0.9000000000000004 0  5 -0.7999999999999998 0  5 -0.7000000000000002 0  5 -0.5999999999999996 0  5 -0.5 0  5 -0.4000000000000004 0  5 -0.2999999999999998 0  5 -0.2000000000000002 0  5 -0.09999999999999964 0  5 0 0  5 0.09999999999999964 0  5 0.2000000000000002 0  5 0.2999999999999998 0  5 0.4000000000000004 0  5 0.5 0  5 0.5999999999999996 0  5 0.7000000000000002 0  5 0.7999999999999998 0  5 0.9000000000000004 0  5 1 0  5 1.1 0  5 1.2 0  5 1.3 0  5 1.4 0  5 1.5 0  5 1.6 0  5 1.7 0  5 1.8 0  5 1.9 0  5 2 0  5 2.1 0  5 2.2 0  5 2.3 0  5 2.4 0  5 2.5 0  5 2.6 0  5 2.7 0  5 2.8 0  5 2.9 0  5 3 0  5 3.1 0  5 3.199999999999999 0  5 3.300000000000001 0  5 3.4 0  5 3.5 0  5 3.6 0  5 3.699999999999999 0  5 3.800000000000001 0  5 3.9 0  5 4 0  5 4.1 0  5 4.199999999999999 0  5 4.300000000000001 0  5 4.4 0  5 4.5 0  5 4.6 0  5 4.699999999999999 0  5 4.800000000000001 0  5 4.9 0  4.9 5 0  4.8 5 0  4.7 5 0  4.6 5 0  4.5 5 0  4.4 5 0  4.3 5 0  4.2 5 0  4.1 5 0  4 5 0  3.9 5 0  3.8 5 0  3.7 5 0  3.6 5 0  3.5 5 0  3.4 5 0  3.3 5 0  3.2 5 0  3.1 5 0  3 5 0  2.9 5 0  2.8 5 0  2.7 5 0  2.6 5 0  2.5 5 0  2.4 5 0  2.3 5 0  2.2 5 0  2.1 5 0  2 5 0  1.9 5 0  1.8 5 0  1.7 5 0  1.6 5 0  1.5 5 0  1.4 5 0  1.3 5 0  1.2 5 0  1.1 5 0  1 5 0  0.9000000000000004 5 0  0.7999999999999998 5 0  0.7000000000000002 5 0  0.5999999999999996 5 0  0.5 5 0  0.4000000000000004 5 0  0.2999999999999998 5 0  0.2000000000000002 5 0  0.09999999999999964 5 0  0 5 0  -0.09999999999999964 5 0  -0.2000000000000002 5 0  -0.2999999999999998 5 0  -0.4000000000000004 5 0  -0.5 5 0  -0.5999999999999996 5 0  -0.7000000000000002 5 0  -0.7999999999999998 5 0  -0.9000000000000004 5 0  -1 5 0  -1.1 5 0  -1.2 5 0  -1.3 5 0  -1.4 5 0  -1.5 5 0  -1.6 5 0  -1.7 5 0  -1.8 5 0  -1.9 5 0  -2 5 0  -2.1 5 0  -2.2 5 0  -2.3 5 0  -2.4 5 0  -2.5 5 0  -2.6 5 0  -2.7 5 0  -2.8 5 0  -2.9 5 0  -3 5 0  -3.1 5 0  -3.199999999999999 5 0  -3.300000000000001 5 0  -3.4 5 0  -3.5 5 0  -3.6 5 0  -3.699999999999999 5 0  -3.800000000000001 5 0  -3.9 5 0  -4 5 0  -4.1 5 0  -4.199999999999999 5 0  -4.300000000000001 5 0  -4.4 5 0  -4.5 5 0  -4.6 5 0  -4.699999999999999 5 0  -4.800000000000001 5 0  -4.9 5 0  -5 4.9 0  -5 4.8 0  -5 4.7 0  -5 4.6 0  -5 4.5 0  -5 4.4 0  -5 4.3 0  -5 4.2 0  -5 4.1 0  -5 4 0  -5 3.9 0  -5 3.8 0  -5 3.7 0  -5 3.6 0  -5 3.5 0  -5 3.4 0  -5 3.3 0  -5 3.2 0  -5 3.1 0  -5 3 0  -5 2.9 0  -5 2.8 0  -5 2.7 0  -5 2.6 0  -5 2.5 0  -5 2.4 0  -5 2.3 0  -5 2.2 0  -5 2.1 0  -5 2 0  -5 1.9 0  -5 1.8 0  -5 1.7 0  -5 1.6 0  -5 1.5 0  -5 1.4 0  -5 1.3 0  -5 1.2 0  -5 1.1 0  -5 1 0  -5 0.9000000000000004 0  -5 0.7999999999999998 0  -5 0.7000000000000002 0  -5 0.5999999999999996 0  -5 0.5 0  -5 0.4000000000000004 0  -5 0.2999999999999998 0  -5 0.2000000000000002 0  -5 0.09999999999999964 0  -5 0 0  -5 -0.09999999999999964 0  -5 -0.2000000000000002 0  -5 -0.2999999999999998 0  -5 -0.4000000000000004 0  -5 -0.5 0  -5 -0.5999999999999996 0  -5 -0.7000000000000002 0  -5 -0.7999999999999998 0  -5 -0.9000000000000004 0  -5 -1 0  -5 -1.1 0  -5 -1.2 0  -5 -1.3 0  -5 -1.4 0  -5 -1.5 0  -5 -1.6 0  -5 -1.7 0  -5 -1.8 0  -5 -1.9 0  -5 -2 0  -5 -2.1 0  -5 -2.2 0  -5 -2.3 0  -5 -2.4 0  -5 -2.5 0  -5 -2.6 0  -5 -2.7 0  -5 -2.8 0  -5 -2.9 0  -5 -3 0  -5 -3.1 0  -5 -3.199999999999999 0  -5 -3.300000000000001 0  -5 -3.4 0  -5 -3.5 0  -5 -3.6 0  -5 -3.699999999999999 0  -5 -3.800000000000001 0  -5 -3.9 0  -5 -4 0  -5 -4.1 0  -5 -4.199999999999999 0  -5 -4.300000000000001 0  -5 -4.4 0  -5 -4.5 0  -5 -4.6 0  -5 -4.699999999999999 0  -5 -4.800000000000001 0  -5 -4.9 0  2.068389388537273 0.2094209969252807 0  1.978608585121208 0.3828663931501721 0  2.001438743484058 0.604868532270987 0  1.791120930385828 0.7370442522746879 0  1.681208410034257 0.9054669167329984 0  1.534802140195774 1.020138489073817 0  1.424231334759108 1.15708130878247 0  1.221518985045155 1.19326827439293 0  1.084409694644785 1.325286816069159 0  0.9370743154505935 1.413647393270596 0  0.7717820274500036 1.44674042305478 0  0.6205589157203861 1.489303202087322 0  0.4433985612600581 1.556395138922111 0  0.2864080099486909 1.580565395379216 0  0.1293490285072155 1.624436045942424 0  -0.01734849960922926 1.615639804531557 0  -0.2222800918992767 1.583555739807966 0  -0.3830817081939966 1.581330739271308 0  -0.5261910791450052 1.529603257502794 0  -0.6858813734033005 1.465959603730514 0  -0.8588498052904634 1.431847081282962 0  -0.9988824618691404 1.34035140172274 0  -1.165499940559879 1.263363037444731 0  -1.355009902484136 1.228741772670548 0  -1.409507458003021 1.049196296705998 0  -1.61718555177762 0.9541522248079088 0  -1.768881868341139 0.8324948864726748 0  -1.842256072798278 0.6712248528570205 0  -1.958689504781463 0.4994572013851959 0  -2.030432045346599 0.2926014492986265 0  -2.052775318487809 0.1025632522671217 0  -2.000348618511161 -0.1145739103399035 0  -2.099003437174904 -0.3208895574866978 0  -1.93357452131452 -0.4749639393564001 0  -1.828520290926795 -0.6590698754133519 0  -1.768901939618952 -0.8256175126328116 0  -1.565108609192795 -0.9378731459969463 0  -1.467329932506688 -1.087468215185114 0  -1.332441520198373 -1.192003625394126 0  -1.159709544009198 -1.257084012870822 0  -1.011094091434694 -1.359562154815523 0  -0.8505207832881777 -1.441133803071243 0  -0.693568300167934 -1.493921454322994 0  -0.5210198754039618 -1.527104123350762 0  -0.3735594988807756 -1.591473445785208 0  -0.2090511528504244 -1.587244497929691 0  -0.04633945507260704 -1.6118049519206 0  0.1365765577162555 -1.606329199257194 0  0.2867324660021312 -1.599125499739315 0  0.4561659533674036 -1.564732633949872 0  0.6052077738554612 -1.513505395382892 0  0.7729040699070057 -1.440106921786405 0  0.9424327596553178 -1.419861209388412 0  1.106364531437657 -1.324769216527286 0  1.258243828754058 -1.256629090214234 0  1.391661515636313 -1.142844339923202 0  1.537135364462506 -1.017037549881246 0  1.697876977187506 -0.8887917988283681 0  1.804298655101221 -0.7534016571721951 0  1.907740994000388 -0.5720556855855822 0  2.01187707833046 -0.3974530321900345 0  2.038303646349877 -0.2082780247490685 0  -2.449764793211991 4.920148942552993 0  -2.449742575169516 -4.91271992558669 0  4.911888875295755 2.448892692795813 0  4.919891917273044 -2.450217341445305 0  2.447664334086293 -4.89832637487778 0  2.442033840722681 4.902045600102658 0  -4.911917709297604 -2.448902868350499 0  -4.911946378575695 2.448906398365008 0  -1.749899745868813 4.914035668752366 0  -1.745619350820324 -4.917350123985378 0  4.921991639311424 1.744685174186875 0  4.910722471483254 -1.748633301418211 0  -4.911013233110617 -1.748322418455249 0  -4.911850555052258 1.748059413151994 0  1.747249835288648 4.90810155155269 0  1.74883594444612 -4.896637145053545 0  -1.150010502786178 4.912591702905508 0  -1.130753440680384 -4.920152794256302 0  -4.910595534260164 -1.148324679412738 0  -4.910435543858402 1.148119898390659 0  1.144928532880737 -4.916507368627806 0  1.150014106096451 4.912574651804998 0  4.910739067463218 1.146606462717586 0  4.921401602704493 -1.152259151891738 0  -0.5473031995191971 -4.914187902052063 0  -0.5470205017098566 4.922503233499269 0  -4.909091203042736 -0.548845312386384 0  -4.909126415978198 0.5473872290041313 0  4.908389662180464 -0.5491669207508394 0  4.91991156394454 0.5458632035959868 0  0.543167322871333 -4.90167489474744 0  0.5517689411391214 4.919472409854093 0  -4.913075726635835 -3.049221864682319 0  4.919571010471169 3.047158594253545 0  4.912599015956162 -3.049218626441097 0  -4.91393601064624 3.046298587233391 0  3.056281562554277 -4.918889001484267 0  -3.049659759201848 -4.912853113917977 0  3.053207735610231 4.914950735341283 0  -3.049128368166405 4.913787257943211 0  -4.908091666030582 -0.04992351381898891 0  0.04516579827199906 -4.916204202608582 0  0.04961636662963698 4.922918379728076 0  4.91505467876797 -0.05130396631170289 0  3.546329987856542 -4.920047380899311 0  -3.549678703645574 4.913063923908283 0  -3.549657804493105 -4.913076183304851
[...]
<PointData  Scalars="f_26"> 
<DataArray  type="Float64"  Name="f_26"  format="ascii">0.0000000000000000e+00  0.0000000000000000e+00  0.0000000000000000e+00  0.0000000000000000e+00  8.6841933264458007e+01  0.0000000000000000e+00  0.0000000000000000e+00  0.0000000000000000e+00  0.0000000000000000e+00  0.0000000000000000e+00  0.0000000000000000e+00  0.0000000000000000e+00  0.0000000000000000e+00  0.0000000000000000e+00  0.0000000000000000e+00  0.0000000000000000e+00  0.0000000000000000e+00  0.0000000000000000e+00  0.0000000000000000e+00  0.0000000000000000e+00  0.0000000000000000e+00  0.0000000000000000e+00  0.0000000000000000e+00  0.0000000000000000e+00  0.0000000000000000e+00  0.0000000000000000e+00  0.0000000000000000e+00  0.0000000000000000e+00  0.0000000000000000e+00  0.0000000000000000e+00  0.0000000000000000e+00  0.0000000000000000e+00  0.0000000000000000e+00  0.0000000000000000e+00  0.0000000000000000e+00  0.0000000000000000e+00  0.0000000000000000e+00  0.0000000000000000e+00  0.0000000000000000e+00  0.0000000000000000e+00  0.0000000000000000e+00  0.0000000000000000e+00  0.0000000000000000e+00  0.0000000000000000e+00  0.0000000000000000e+00  0.0000000000000000e+00  0.0000000000000000e+00  0.0000000000000000e+00  0.0000000000000000e+00  0.0000000000000000e+00  0.0000000000000000e+00  0.0000000000000000e+00  0.0000000000000000e+00  0.0000000000000000e+00  0.0000000000000000e+00  0.0000000000000000e+00  0.0000000000000000e+00  0.0000000000000000e+00  0.0000000000000000e+00  0.0000000000000000e+00  0.0000000000000000e+00  0.0000000000000000e+00  0.0000000000000000e+00  0.0000000000000000e+00  0.0000000000000000e+00  0.0000000000000000e+00  0.0000000000000000e+00  0.0000000000000000e+00  0.0000000000000000e+00  0.0000000000000000e+00  0.0000000000000000e+00  0.0000000000000000e+00  0.0000000000000000e+00  0.0000000000000000e+00  0.0000000000000000e+00  0.0000000000000000e+00  0.0000000000000000e+00  0.0000000000000000e+00  0.0000000000000000e+00  0.0000000000000000e+00  0.0000000000000000e+00  0.0000000000000000e+00  0.0000000000000000e+00  0.0000000000000000e+00  0.0000000000000000e+00  0.0000000000000000e+00  0.0000000000000000e+00  0.0000000000000000e+00  0.0000000000000000e+00  0.0000000000000000e+00  0.0000000000000000e+00  0.0000000000000000e+00  0.0000000000000000e+00  0.0000000000000000e+00  0.0000000000000000e+00  0.0000000000000000e+00  0.0000000000000000e+00  0.0000000000000000e+00  0.0000000000000000e+00  0.0000000000000000e+00  0.0000000000000000e+00  0.0000000000000000e+00  0.0000000000000000e+00  0.0000000000000000e+00  0.0000000000000000e+00  0.0000000000000000e+00  0.0000000000000000e+00  0.0000000000000000e+00  0.0000000000000000e+00  0.0000000000000000e+00  0.0000000000000000e+00  0.0000000000000000e+00  0.0000000000000000e+00  0.0000000000000000e+00  0.0000000000000000e+00  0.0000000000000000e+00  0.0000000000000000e+00  0.0000000000000000e+00  0.0000000000000000e+00  0.0000000000000000e+00  0.0000000000000000e+00  0.0000000000000000e+00  0.0000000000000000e+00  0.0000000000000000e+00  0.0000000000000000e+00  0.0000000000000000e+00  0.0000000000000000e+00  0.0000000000000000e+00  0.0000000000000000e+00  0.0000000000000000e+00  0.0000000000000000e+00  0.0000000000000000e+00  0.0000000000000000e+00  0.0000000000000000e+00  0.0000000000000000e+00  0.0000000000000000e+00  0.0000000000000000e+00  0.0000000000000000e+00  0.0000000000000000e+00  0.0000000000000000e+00  0.0000000000000000e+00  0.0000000000000000e+00  0.0000000000000000e+00  0.0000000000000000e+00  0.0000000000000000e+00  0.0000000000000000e+00  0.0000000000000000e+00  0.0000000000000000e+00  0.0000000000000000e+00  0.0000000000000000e+00  0.0000000000000000e+00  0.0000000000000000e+00  0.0000000000000000e+00  0.0000000000000000e+00  0.0000000000000000e+00  0.0000000000000000e+00  0.0000000000000000e+00  0.0000000000000000e+00  0.0000000000000000e+00  0.0000000000000000e+00  0.0000000000000000e+00  0.0000000000000000e+00  0.0000000000000000e+00  0.0000000000000000e+00  0.0000000000000000e+00  0.0000000000000000e+00  0.0000000000000000e+00  0.0000000000000000e+00  0.0000000000000000e+00  0.0000000000000000e+00  0.0000000000000000e+00  0.0000000000000000e+00  0.0000000000000000e+00  0.0000000000000000e+00  0.0000000000000000e+00  0.0000000000000000e+00  0.0000000000000000e+00  0.0000000000000000e+00  0.0000000000000000e+00  0.0000000000000000e+00  0.0000000000000000e+00  0.0000000000000000e+00  0.0000000000000000e+00  0.0000000000000000e+00  0.0000000000000000e+00  0.0000000000000000e+00  0.0000000000000000e+00  0.0000000000000000e+00  0.0000000000000000e+00  0.0000000000000000e+00  0.0000000000000000e+00  0.0000000000000000e+00  0.0000000000000000e+00  0.0000000000000000e+00  0.0000000000000000e+00  0.0000000000000000e+00  0.0000000000000000e+00  0.0000000000000000e+00  0.0000000000000000e+00  0.0000000000000000e+00  0.0000000000000000e+00  0.0000000000000000e+00  0.0000000000000000e+00  0.0000000000000000e+00  0.0000000000000000e+00  0.0000000000000000e+00  0.0000000000000000e+00  0.0000000000000000e+00  0.0000000000000000e+00  0.0000000000000000e+00  0.0000000000000000e+00  0.0000000000000000e+00  0.0000000000000000e+00  0.0000000000000000e+00  0.0000000000000000e+00  0.0000000000000000e+00  0.0000000000000000e+00  0.0000000000000000e+00  0.0000000000000000e+00  0.0000000000000000e+00  0.0000000000000000e+00  0.0000000000000000e+00  0.0000000000000000e+00  0.0000000000000000e+00  0.0000000000000000e+00  0.0000000000000000e+00  0.0000000000000000e+00  0.0000000000000000e+00  0.0000000000000000e+00  0.0000000000000000e+00  0.0000000000000000e+00  0.0000000000000000e+00  0.0000000000000000e+00  0.0000000000000000e+00  0.0000000000000000e+00  0.0000000000000000e+00  0.0000000000000000e+00  0.0000000000000000e+00  0.0000000000000000e+00  0.0000000000000000e+00  0.0000000000000000e+00  0.0000000000000000e+00  0.0000000000000000e+00  0.0000000000000000e+00  0.0000000000000000e+00  0.0000000000000000e+00  0.0000000000000000e+00  0.0000000000000000e+00  0.0000000000000000e+00  0.0000000000000000e+00  0.0000000000000000e+00  0.0000000000000000e+00  0.0000000000000000e+00  0.0000000000000000e+00  0.0000000000000000e+00  0.0000000000000000e+00  0.0000000000000000e+00  0.0000000000000000e+00  0.0000000000000000e+00  0.0000000000000000e+00  0.0000000000000000e+00  0.0000000000000000e+00  0.0000000000000000e+00  0.0000000000000000e+00  0.0000000000000000e+00  0.0000000000000000e+00  0.0000000000000000e+00  0.0000000000000000e+00  0.0000000000000000e+00  0.0000000000000000e+00  0.0000000000000000e+00  0.0000000000000000e+00  0.0000000000000000e+00  0.0000000000000000e+00  0.0000000000000000e+00  0.0000000000000000e+00  0.0000000000000000e+00  0.0000000000000000e+00  0.0000000000000000e+00  0.0000000000000000e+00  0.0000000000000000e+00  0.0000000000000000e+00  0.0000000000000000e+00  0.0000000000000000e+00  0.0000000000000000e+00  0.0000000000000000e+00  0.0000000000000000e+00  0.0000000000000000e+00  0.0000000000000000e+00  0.0000000000000000e+00  0.0000000000000000e+00  0.0000000000000000e+00  0.0000000000000000e+00  0.0000000000000000e+00  0.0000000000000000e+00  0.0000000000000000e+00  0.0000000000000000e+00  0.0000000000000000e+00  0.0000000000000000e+00  0.0000000000000000e+00  0.0000000000000000e+00  0.0000000000000000e+00  0.0000000000000000e+00  0.0000000000000000e+00  0.0000000000000000e+00  0.0000000000000000e+00  0.0000000000000000e+00  0.0000000000000000e+00  0.0000000000000000e+00  0.0000000000000000e+00  0.0000000000000000e+00  0.0000000000000000e+00  0.0000000000000000e+00  0.0000000000000000e+00  0.0000000000000000e+00  0.0000000000000000e+00  0.0000000000000000e+00  0.0000000000000000e+00  0.0000000000000000e+00  0.0000000000000000e+00  0.0000000000000000e+00  0.0000000000000000e+00  0.0000000000000000e+00  0.0000000000000000e+00  0.0000000000000000e+00  0.0000000000000000e+00  0.0000000000000000e+00  0.0000000000000000e+00  0.0000000000000000e+00  0.0000000000000000e+00  0.0000000000000000e+00  0.0000000000000000e+00  0.0000000000000000e+00  0.0000000000000000e+00  0.0000000000000000e+00  0.0000000000000000e+00  0.0000000000000000e+00  0.0000000000000000e+00  0.0000000000000000e+00  0.0000000000000000e+00  0.0000000000000000e+00  0.0000000000000000e+00  0.0000000000000000e+00  0.0000000000000000e+00  0.0000000000000000e+00  0.0000000000000000e+00  0.0000000000000000e+00  0.0000000000000000e+00  0.0000000000000000e+00  0.0000000000000000e+00  0.0000000000000000e+00  0.0000000000000000e+00  0.0000000000000000e+00  0.0000000000000000e+00  0.0000000000000000e+00  0.0000000000000000e+00  0.0000000000000000e+00  0.0000000000000000e+00  0.0000000000000000e+00  0.0000000000000000e+00  0.0000000000000000e+00  0.0000000000000000e+00  0.0000000000000000e+00  0.0000000000000000e+00  0.0000000000000000e+00  0.0000000000000000e+00  0.0000000000000000e+00  0.0000000000000000e+00  0.0000000000000000e+00  0.0000000000000000e+00  0.0000000000000000e+00  0.0000000000000000e+00  0.0000000000000000e+00  0.0000000000000000e+00  0.0000000000000000e+00  0.0000000000000000e+00  0.0000000000000000e+00  0.0000000000000000e+00  0.0000000000000000e+00  0.0000000000000000e+00  0.0000000000000000e+00  0.0000000000000000e+00  0.0000000000000000e+00  0.0000000000000000e+00  0.0000000000000000e+00  0.0000000000000000e+00  0.0000000000000000e+00  0.0000000000000000e+00  0.0000000000000000e+00  0.0000000000000000e+00  0.0000000000000000e+00  0.0000000000000000e+00  0.0000000000000000e+00  0.0000000000000000e+00  0.0000000000000000e+00  0.0000000000000000e+00  0.0000000000000000e+00  0.0000000000000000e+00  0.0000000000000000e+00  0.0000000000000000e+00  0.0000000000000000e+00  8.6949341435731853e+01  8.5537728803638799e+01  8.4962441956577266e+01  8.0789990676112197e+01  7.6917898322452714e+01  7.2521631946433203e+01  6.8907807228374352e+01  6.3236923570971939e+01  5.8255326600178407e+01  5.4698327742869040e+01  5.1224062555476088e+01  4.8128045430787125e+01  4.5560757863027298e+01  4.3974179052064144e+01  4.3148860921076398e+01  4.3001715154762344e+01  4.3596663960256393e+01  4.4881883889408797e+01  4.6617446591031836e+01  4.9453236832531744e+01  5.2964171241321615e+01  5.6532561823607487e+01  6.1512950973513966e+01  6.5926861752626237e+01  6.9016255813611338e+01  7.5427141851767146e+01  7.9240126716235309e+01  8.1729743213380843e+01  8.4606282994687191e+01  8.6455949176471137e+01  8.7155664907578625e+01  8.6635207954713081e+01  8.7231163654419078e+01  8.5025374868178162e+01  8.1897285995859221e+01  7.9750431012660357e+01  7.4531076030698230e+01  7.0609087295747784e+01  6.6965260788674058e+01  6.2236661308443587e+01  5.7809998664836570e+01  5.4224087751004745e+01  5.1128343937640715e+01  4.8236257454336886e+01  4.6482839673632938e+01  4.5211936462958398e+01  4.4711659439496373e+01  4.4947880285421761e+01  4.5804905528298377e+01  4.7495208060196980e+01  4.9592437488996545e+01  5.2975654541170151e+01  5.6649437955872592e+01  6.0622709029120784e+01  6.4655642334852871e+01  6.8612375829133427e+01  7.3252126735231514e+01  7.7852693726696614e+01  8.0786626696918262e+01  8.3689566610626713e+01  8.5937150365832323e+01  8.6803829375669523e+01  1.0138729480830770e+00  1.1690111848037683e+00  2.0683537628915762e+00  1.9247716147744285e+00  1.3899277204372122e+00  1.2622176754430385e+00  2.0782826336992324e+00  2.0375509812709756e+00  1.0469481842396031e+00  1.0780979934350019e+00  2.4270251458299366e+00  2.8202219331256688e+00  2.7637492389203699e+00  2.7020008229950325e+00  1.1336300141883406e+00  1.3739725820054067e+00  9.6374288175519929e-01  9.5793851931348473e-01  3.2843251201396551e+00  3.2626926000257241e+00  1.0179895240667671e+00  9.7457617093065441e-01  3.2968871637108066e+00  2.9312269601792211e+00  9.4981958606911032e-01  7.7417408708717428e-01  3.6948350434921204e+00  3.6796888601890863e+00  3.7782951261553865e+00  3.2880023365869038e+00  1.0968139532397743e+00  8.0955601405910982e-01  1.5062419316273543e+00  1.3818928972538604e+00  1.5442744388591989e+00  1.4576054871534518e+00  1.0184876658814241e+00  1.0745935609635877e+00  1.0172693924882159e+00  1.0162615138520978e+00  3.8462165559941672e+00  9.0211984231949516e-01  7.4396124992761070e-01  3.6051532997434808e+00  8.4220272657321171e-01  8.6101806849832585e-01  8.9469866210264826e-01  9.8528365165861698e-01  1.0846741303001437e+00  1.0781457572148523e+00  1.0371077913153270e+00  8.5442879285953377e-01  7.6183872991417545e-01  7.7433907693736537e-01  7.0799140435223273e-01  7.6628927312549844e-01  6.2038051547850259e-01  7.5437293468955480e-01  6.6591830551877396e-01  7.3362769399420968e-01  5.3660274584588419e-01  3.9921472167125577e-01  3.7932703872943624e-01  4.5819449008780816e-01  4.6809365839254569e-01  4.5960109046328035e-01  4.3988367767319891e-01  4.5700097740392265e-01  3.8149816792524724e+00  9.4500397180144513e-01  7.9118219874479012e-01  3.3833348371491856e+00  9.4647196316082827e-01  3.0332514526879306e+00  3.5126718361513007e+00  3.5485082343106118e+00  3.0314461150833405e+00  9.8275109499771551e-01  1.0646892981190095e+00  9.9721206418160691e-01  1.0302346217483038e+00  2.9312123864339865e+00  3.6050815939792180e+00  3.1801298318201732e+00  3.1117662672863453e+00  1.0171798844438216e+00  1.1114172023979672e+00  1.0990935962322508e+00  1.2852389194601608e+00  1.2288367402454179e+00  2.4738646777620792e+00  2.3973627038160643e+00  9.3342126234108447e-01  1.1818580361903959e+00  2.2724939957510881e+00  2.5186201110533450e+00  1.8250103079830300e+00  1.1991945856300559e+00  1.1316288405447996e+00  1.7333159572318562e+00  1.2295421693981874e+00  1.7906486738568308e+00  1.6995080068667423e+00  1.0186945343265668e+00  2.4742187235770852e-01  2.4773783438007355e-01  2.3342124955063009e-01  2.5353558825646216e-01  2.5385963120409516e-01  2.5610882465797863e-01  2.3731226687661158e-01  1.9858374814561675e-01  3.8217145898637126e+00  1.0332920266702990e+00  1.0173135108174443e+00  3.4406916862300170e+00  1.1088119425312364e+00  2.2669813167460666e+00  2.3169675716350078e+00  1.3159073269366701e+00  2.2749860705078677e+00  1.1980047632382258e+00  1.2086737010679314e+00  2.2097433867436851e+00  1.3449382043476861e+00  1.1658633184904976e+00  1.1064626521636118e+00  1.3380542199619601e+00  1.2487484518730712e+00  1.0749369446891184e+00  9.6792241464130591e-01  1.2886879419678621e+00  9.2785683684463471e-01  6.1685779596003742e-01  8.0894317441791808e-01  6.2059226664075062e-01  7.5374694887493698e-01  5.9380399661512850e-01  9.2290494834781267e-01  6.1424518206668377e-01  7.7106498383797417e-01  6.6667087118789059e-01  9.0946388287293567e-01  6.0446037248261653e-01  8.9587433833668373e-01  5.8781925240612121e-01  8.1812452889482368e-01  5.8267487210028068e-01  1.1696286058653818e-01  1.0405716068195474e-01  1.0833076096153323e-01  1.1117223880989673e-01  3.8383923562003734e+00  7.6584521649769322e+00  7.6160456696183365e+00  1.1446352416654946e+01  1.1369388628653903e+01  1.5189558161116880e+01  1.5074704881259514e+01  1.8876603778173546e+01  1.8709837467664158e+01  2.2493266305090735e+01  2.2265685082263001e+01  2.6027344908693124e+01  2.5730881972752908e+01  2.9466289467383056e+01  2.9092905296624920e+01  3.2797702090641252e+01  3.2336108838428380e+01  3.6007665500628136e+01  3.5457777862219018e+01  3.9079041540065717e+01  3.8435751171012676e+01  3.9658947736894710e+01  4.2013916371131756e+01  4.1259599680391254e+01  4.4791695012861780e+01  4.3924879832292490e+01  4.7390044055735984e+01  4.6411262211239567e+01  4.9807457363171473e+01  4.8711007684999288e+01  5.2027540571871555e+01  5.0813824335486451e+01  5.3168706631166039e+01  5.4038350125677006e+01  5.2710021811925309e+01  5.5845029427614854e+01  5.4394669105247907e+01  5.7436772668693450e+01  5.5858143047297467e+01  5.8793927781184557e+01  5.7101227454494591e+01  5.9918554828026835e+01  5.8114477254506127e+01  6.1669961802464591e+01  6.0808263992414368e+01  5.8898727322438347e+01  6.1462842752069918e+01  5.9450898708085937e+01  5.6940675842983808e+01  5.7406025383176278e+01  5.9779638443798717e+01  5.7660142822770808e+01  5.5353365303238249e+01  5.5534381669760670e+01  5.3302041308001293e+01  5.3412714473303140e+01  5.5507101604056857e+01  5.3328067936510188e+01  5.1301404396109838e+01  5.1167143799201703e+01  4.9207610267421337e+01  4.9030403065276651e+01  5.0856136550381471e+01  4.8685627529276005e+01  4.6922823184318290e+01  4.6549757683710418e+01  4.8182759332489375e+01  4.6027718963499922e+01  4.4451688683995101e+01  4.3914814736294829e+01  4.5367096097502895e+01  4.3248125619907071e+01  4.4579443791989242e+01  4.2393766162757480e+01  4.2462737258260361e+01  4.3676553515342853e+01  4.1570360856373483e+01  4.2671307375178507e+01  4.0583188331143127e+01  4.1576764483159984e+01  3.9513742587772427e+01  4.0405658429767691e+01  3.8548165372420215e+01  3.8374520720756074e+01  3.9171646220929638e+01  3.7178150494735249e+01  3.7887861332480455e+01  3.5937144909024184e+01  3.6567149742547059e+01  3.4663526614523171e+01  3.5222099918770226e+01  3.3369034974755529e+01  3.3864393584860856e+01  3.2064644245592568e+01  3.2505417991141996e+01  3.2811791984180118e+01  4.3695870814112297e+01  7.3262313444729301e+01  3.0760648962755784e+01  3.1155452480313254e+01  2.9466832831820547e+01  2.9823959069172169e+01  5.9213861442261560e+01  2.8191763329441820e+01  2.8519440885019481e+01  4.9070666665211327e+01  2.6943158437922882e+01  2.7249327093801437e+01  2.8809908565443337e+01  2.7524213872014471e+01  2.6019871138463127e+01  2.6286724176677808e+01  3.7130362640019470e+01  2.6601062277802722e+01  2.4836481779927926e+01  2.5102358047880799e+01  2.6534420863955251e+01  2.5354982038676745e+01  2.3974392662746922e+01  2.4238174615965740e+01  2.5601707756825235e+01  2.4502299494954269e+01  2.3185446938773481e+01  2.3472352110967037e+01  2.4774622448240216e+01  2.3773238134551416e+01  2.2511382334734343e+01  2.2844497277637622e+01  2.4096926823728545e+01  2.3205679130505530e+01  2.1986605195636738e+01  2.2387201188431362e+01  2.3601772085785981e+01  2.2827629582977426e+01  2.1638240141839489e+01  2.2123908529132319e+01  2.3316035803254454e+01  2.2660639150185691e+01  2.3860560382124952e+01  2.3255860240642935e+01  2.2069250087583114e+01  2.2713835089078827e+01  2.3916702043671037e+01  2.3425056128108071e+01  2.2227013403516874e+01  2.2985845716745882e+01  2.4208858224263547e+01  2.3816638888359964e+01  2.5070411171979831e+01  2.4723706523140478e+01  2.6014189490664595e+01  2.5710615094795024e+01  2.4412391898322973e+01  2.5437060652919541e+01  2.6779928347425656e+01  2.6540099488976995e+01  2.7933060234729350e+01  2.7721978404360534e+01  2.9170249634336084e+01  2.8981915633424290e+01  3.0490289006192100e+01  3.0317815382401374e+01  2.8793958508271562e+01  3.0138256173134149e+01  3.1726250677295052e+01  3.1547442576453594e+01  3.3201082258558763e+01  3.3014712504919984e+01  3.4737739186374291e+01  3.4533359804018382e+01  3.6330254694187765e+01  3.6094984293166220e+01  3.7963911052969117e+01  3.7689866559417680e+01  3.9627940148466848e+01  3.9305388933746599e+01  4.1312703781863718e+01  4.0929692554230556e+01  4.3010457275936268e+01  4.2550348045207016e+01  4.4694581387576335e+01  4.4150876529656053e+01  4.6344488771423165e+01  4.5713813818686866e+01  4.7958898966299024e+01  4.7226493143069320e+01  4.9516919588009053e+01  4.5000895389461803e+01  4.6408898778645970e+01  4.4206012827292881e+01  4.5505414651154517e+01  4.3329195168606994e+01  4.4518134902377717e+01  4.2370861244027203e+01  4.3448677926373513e+01  4.1333332596126205e+01  4.2300057160098632e+01  4.4431004745958873e+01  4.0220147644891604e+01  3.2792970273571846e+01  4.3166021804336182e+01  4.5304771074547958e+01  4.3919758082750675e+01  4.6057520748541101e+01  4.4548574607534370e+01  4.6677152668738202e+01  4.5041147263666915e+01  4.7152400947204178e+01  4.5388487055612522e+01  4.3338433494915733e+01  4.7473198516199652e+01  4.3561919556079204e+01  4.1575865283397839e+01  4.1679537269166978e+01  3.9760175565591915e