<?xml version="1.0"?>
<VTKFile type="UnstructuredGrid"  version="0.1"  >
<UnstructuredGrid>
<Piece  NumberOfPoints="11902" NumberOfCells="23402">
<Points>
<DataArray  type="Float64"  NumberOfComponents="3"  format="ascii">-5 -5 0  5 -5 0  5 5 0  -5 5 0  1.870532564417259 0.003526089481990929 0  -4.9 -5 0  -4.8 -5 0  -4.7 -5 0  -4.6 -5 0  -4.5 -5 0  -4.4 -5 0  -4.3 -5 0  -4.2 -5 0  -4.1 -5 0  -4 -5 0  -3.9 -5 0  -3.8 -5 0  -3.7 -5 0  -3.6 -5 0  -3.5 -5 0  -3.4 -5 0  -3.3 -5 0  -3.2 -5 0  -3.1 -5 0  -3 -5 0  -2.9 -5 0  -2.8 -5 0  -2.7 -5 0  -2.6 -5 0  -2.5 -5 0  -2.4 -5 0  -2.3 -5 0  -2.2 -5 0  -2.1 -5 0  -2 -5 0  -1.9 -5 0  -1.8 -5 0  -1.7 -5 0  -1.6 -5 0  -1.5 -5 0  -1.4 -5 0  -1.3 -5 0  -1.2 -5 0  -1.1 -5 0  -1 -5 0  -0.9000000000000004 -5 0  -0.7999999999999998 -5 0  -0.7000000000000002 -5 0  -0.5999999999999996 -5 0  -0.5 -5 0  -0.4000000000000004 -5 0  -0.2999999999999998 -5 0  -0.2000000000000002 -5 0  -0.09999999999999964 -5 0  0 -5 0  0.09999999999999964 -5 0  0.2000000000000002 -5 0  0.2999999999999998 -5 0  0.4000000000000004 -5 0  0.5 -5 0  0.5999999999999996 -5 0  0.7000000000000002 -5 0  0.7999999999999998 -5 0  0.9000000000000004 -5 0  1 -5 0  1.1 -5 0  1.2 -5 0  1.3 -5 0  1.4 -5 0  1.5 -5 0  1.6 -5 0  1.7 -5 0  1.8 -5 0  1.9 -5 0  2 -5 0  2.1 -5 0  2.2 -5 0  2.3 -5 0  2.4 -5 0  2.5 -5 0  2.6 -5 0  2.7 -5 0  2.8 -5 0  2.9 -5 0  3 -5 0  3.1 -5 0  3.199999999999999 -5 0  3.300000000000001 -5 0  3.4 -5 0  3.5 -5 0  3.6 -5 0  3.699999999999999 -5 0  3.800000000000001 -5 0  3.9 -5 0  4 -5 0  4.1 -5 0  4.199999999999999 -5 0  4.300000000000001 -5 0  4.4 -5 0  4.5 -5 0  4.6 -5 0  4.699999999999999 -5 0  4.800000000000001 -5 0  4.9 -5 0  5 -4.9 0  5 -4.8 0  5 -4.7 0  5 -4.6 0  5 -4.5 0  5 -4.4 0  5 -4.3 0  5 -4.2 0  5 -4.1 0  5 -4 0  5 -3.9 0  5 -3.8 0  5 -3.7 0  5 -3.6 0  5 -3.5 0  5 -3.4 0  5 -3.3 0  5 -3.2 0  5 -3.1 0  5 -3 0  5 -2.9 0  5 -2.8 0  5 -2.7 0  5 -2.6 0  5 -2.5 0  5 -2.4 0  5 -2.3 0  5 -2.2 0  5 -2.1 0  5 -2 0  5 -1.9 0  5 -1.8 0  5 -1.7 0  5 -1.6 0  5 -1.5 0  5 -1.4 0  5 -1.3 0  5 -1.2 0  5 -1.1 0  5 -1 0  5 -0.9000000000000004 0  5 -0.7999999999999998 0  5 -0.7000000000000002 0  5 -0.5999999999999996 0  5 -0.5 0  5 -0.4000000000000004 0  5 -0.2999999999999998 0  5 -0.2000000000000002 0  5 -0.09999999999999964 0  5 0 0  5 0.09999999999999964 0  5 0.2000000000000002 0  5 0.2999999999999998 0  5 0.4000000000000004 0  5 0.5 0  5 0.5999999999999996 0  5 0.7000000000000002 0  5 0.7999999999999998 0  5 0.9000000000000004 0  5 1 0  5 1.1 0  5 1.2 0  5 1.3 0  5 1.4 0  5 1.5 0  5 1.6 0  5 1.7 0  5 1.8 0  5 1.9 0  5 2 0  5 2.1 0  5 2.2 0  5 2.3 0  5 2.4 0  5 2.5 0  5 2.6 0  5 2.7 0  5 2.8 0  5 2.9 0  5 3 0  5 3.1 0  5 3.199999999999999 0  5 3.300000000000001 0  5 3.4 0  5 3.5 0  5 3.6 0  5 3.699999999999999 0  5 3.800000000000001 0  5 3.9 0  5 4 0  5 4.1 0  5 4.199999999999999 0  5 4.300000000000001 0  5 4.4 0  5 4.5 0  5 4.6 0  5 4.699999999999999 0  5 4.800000000000001 0  5 4.9 0  4.9 5 0  4.8 5 0  4.7 5 0  4.6 5 0  4.5 5 0  4.4 5 0  4.3 5 0  4.2 5 0  4.1 5 0  4 5 0  3.9 5 0  3.8 5 0  3.7 5 0  3.6 5 0  3.5 5 0  3.4 5 0  3.3 5 0  3.2 5 0  3.1 5 0  3 5 0  2.9 5 0  2.8 5 0  2.7 5 0  2.6 5 0  2.5 5 0  2.4 5 0  2.3 5 0  2.2 5 0  2.1 5 0  2 5 0  1.9 5 0  1.8 5 0  1.7 5 0  1.6 5 0  1.5 5 0  1.4 5 0  1.3 5 0  1.2 5 0  1.1 5 0  1 5 0  0.9000000000000004 5 0  0.7999999999999998 5 0  0.7000000000000002 5 0  0.5999999999999996 5 0  0.5 5 0  0.4000000000000004 5 0  0.2999999999999998 5 0  0.2000000000000002 5 0  0.09999999999999964 5 0  0 5 0  -0.09999999999999964 5 0  -0.2000000000000002 5 0  -0.2999999999999998 5 0  -0.4000000000000004 5 0  -0.5 5 0  -0.5999999999999996 5 0  -0.7000000000000002 5 0  -0.7999999999999998 5 0  -0.9000000000000004 5 0  -1 5 0  -1.1 5 0  -1.2 5 0  -1.3 5 0  -1.4 5 0  -1.5 5 0  -1.6 5 0  -1.7 5 0  -1.8 5 0  -1.9 5 0  -2 5 0  -2.1 5 0  -2.2 5 0  -2.3 5 0  -2.4 5 0  -2.5 5 0  -2.6 5 0  -2.7 5 0  -2.8 5 0  -2.9 5 0  -3 5 0  -3.1 5 0  -3.199999999999999 5 0  -3.300000000000001 5 0  -3.4 5 0  -3.5 5 0  -3.6 5 0  -3.699999999999999 5 0  -3.800000000000001 5 0  -3.9 5 0  -4 5 0  -4.1 5 0  -4.199999999999999 5 0  -4.300000000000001 5 0  -4.4 5 0  -4.5 5 0  -4.6 5 0  -4.699999999999999 5 0  -4.800000000000001 5 0  -4.9 5 0  -5 4.9 0  -5 4.8 0  -5 4.7 0  -5 4.6 0  -5 4.5 0  -5 4.4 0  -5 4.3 0  -5 4.2 0  -5 4.1 0  -5 4 0  -5 3.9 0  -5 3.8 0  -5 3.7 0  -5 3.6 0  -5 3.5 0  -5 3.4 0  -5 3.3 0  -5 3.2 0  -5 3.1 0  -5 3 0  -5 2.9 0  -5 2.8 0  -5 2.7 0  -5 2.6 0  -5 2.5 0  -5 2.4 0  -5 2.3 0  -5 2.2 0  -5 2.1 0  -5 2 0  -5 1.9 0  -5 1.8 0  -5 1.7 0  -5 1.6 0  -5 1.5 0  -5 1.4 0  -5 1.3 0  -5 1.2 0  -5 1.1 0  -5 1 0  -5 0.9000000000000004 0  -5 0.7999999999999998 0  -5 0.7000000000000002 0  -5 0.5999999999999996 0  -5 0.5 0  -5 0.4000000000000004 0  -5 0.2999999999999998 0  -5 0.2000000000000002 0  -5 0.09999999999999964 0  -5 0 0  -5 -0.09999999999999964 0  -5 -0.2000000000000002 0  -5 -0.2999999999999998 0  -5 -0.4000000000000004 0  -5 -0.5 0  -5 -0.5999999999999996 0  -5 -0.7000000000000002 0  -5 -0.7999999999999998 0  -5 -0.9000000000000004 0  -5 -1 0  -5 -1.1 0  -5 -1.2 0  -5 -1.3 0  -5 -1.4 0  -5 -1.5 0  -5 -1.6 0  -5 -1.7 0  -5 -1.8 0  -5 -1.9 0  -5 -2 0  -5 -2.1 0  -5 -2.2 0  -5 -2.3 0  -5 -2.4 0  -5 -2.5 0  -5 -2.6 0  -5 -2.7 0  -5 -2.8 0  -5 -2.9 0  -5 -3 0  -5 -3.1 0  -5 -3.199999999999999 0  -5 -3.300000000000001 0  -5 -3.4 0  -5 -3.5 0  -5 -3.6 0  -5 -3.699999999999999 0  -5 -3.800000000000001 0  -5 -3.9 0  -5 -4 0  -5 -4.1 0  -5 -4.199999999999999 0  -5 -4.300000000000001 0  -5 -4.4 0  -5 -4.5 0  -5 -4.6 0  -5 -4.699999999999999 0  -5 -4.800000000000001 0  -5 -4.9 0  2.417362136775328 0.2958317277633786 0  1.937921406603751 0.3560864843490162 0  2.37892250298856 0.7526244602836457 0  1.764400281506762 0.6519456713557941 0  1.868635157671618 0.9206601415329002 0  1.526649034846108 0.9938675964360326 0  1.304912840550975 1.279568007423607 0  1.144437717225135 0.9365011033792714 0  1.134212653239989 1.230235557421115 0  0.9452435646569359 1.389955820408286 0  0.781424833222554 1.395918612006344 0  0.6492306454077988 1.425051519245368 0  0.462749442465836 1.518738952979988 0  0.2929787109914763 1.550634758735223 0  0.1318838644250343 1.578742121414483 0  -0.02424923170070209 1.574116465631658 0  -0.2259973906876019 1.546046690887894 0  -0.3886418466656694 1.53682552889703 0  -0.5389934282754268 1.490610644932909 0  -0.6990103519135673 1.412264218791214 0  -0.8678572758490275 1.379715150601975 0  -1.037942551132159 1.268118768467712 0  -1.185546438026409 1.156167097542024 0  -1.309755275123166 1.224454689490947 0  -1.216325114049419 0.7975395766489699 0  -1.545648420710459 1.062162031651541 0  -1.97438157863511 0.9195270895308094 0  -1.79960501276763 0.6490639657627408 0  -2.176161744524255 0.600857070744799 0  -2.224514742850652 0.3107098983733297 0  -2.345738247594653 0.06881358839052011 0  -1.815551868341298 -0.1058608735134883 0  -2.528582001769987 -0.5248553615049372 0  -1.992916764864535 -0.4145778314439686 0  -1.871194280275503 -0.6400794278309387 0  -1.902446811709494 -1.009763334443699 0  -1.516261812440658 -0.7929730481577274 0  -1.524544291241345 -0.9309348362890083 0  -1.361307365417716 -1.158211665995807 0  -1.140128888073431 -1.129726924632958 0  -1.009018720547635 -1.274035877881591 0  -0.8575383788343015 -1.41394443439868 0  -0.6891449902733252 -1.43808341772267 0  -0.5305631071603403 -1.474177447523794 0  -0.3745114084466164 -1.540345303351395 0  -0.2061724129725259 -1.551375747689416 0  -0.04322314454938411 -1.570259625583596 0  0.1431888158884863 -1.567538507485008 0  0.2882062870194826 -1.560787473628108 0  0.4617609344233237 -1.532525323164381 0  0.6252433412017178 -1.4727349316242 0  0.7423942130400933 -1.30117788287205 0  0.9234566897082946 -1.36926008963663 0  1.105810321805871 -1.271746579662663 0  1.296453985459231 -1.216724383081277 0  1.374102941816857 -0.9959601515042482 0  1.472437532998238 -0.8386986285753893 0  1.815577949300439 -0.9388543403199384 0  1.899506046643392 -0.7228514723941039 0  1.874762703467441 -0.4974026634817874 0  2.312293593911461 -0.4618984865856126 0  2.255543911294492 -0.1708909988013568 0  -2.449965893588235 4.92021616313065 0  -2.449934994630476 -4.912767421690435 0  4.910933717851323 2.448094292324592 0  4.918981766511888 -2.449424966544647 0  2.447880287541806 -4.898339033526312 0  2.442298757664516 4.90207850587795 0  -4.910998203352015 -2.44813496058769 0  -4.91103276147176 2.448129797233963 0  -1.750289978661347 4.914454069631041 0  -1.745988705707513 -4.917734919322378 0  4.920437922491399 1.743721675594586 0  4.908875156974383 -1.747599311102034 0  -4.909302710663052 -1.74732003726527 0  -4.910149486735014 1.747061527358126 0  1.747742405719244 4.908534501464069 0  1.749321797414418 -4.897057305511974 0  -1.150415080912364 4.913405648738089 0  -1.131131822031452 -4.920770267907715 0  -4.908095445701813 -1.14737173651662 0  -4.907914368866379 1.147167326534327 0  1.145303047723239 -4.917191265933775 0  1.15043380853528 4.913336503359934 0  4.908171057686832 1.14561444202627 0  4.91908315784741 -1.151325878915826 0  -0.5475187799533338 -4.915183418370048 0  -0.5472230697983641 4.923451110487277 0  -4.90589466861109 -0.5482654140948613 0  -4.90591806327233 0.5468161077823469 0  4.905006576661937 -0.5485949192511757 0  4.916994424741731 0.5452869548344205 0  0.5435065738310286 -4.902768177443988 0  0.5519908441234029 4.920454646824932 0  -4.912613471500198 -3.048715566954196 0  4.919133642676181 3.04665303274958 0  4.912085725007858 -3.048656359631057 0  -4.913482479328664 3.045785340587046 0  3.056278483513663 -4.918772515570291 0  -3.049691842823437 -4.912768809065824 0  3.053234150566216 4.914864062633741 0  -3.049157129120652 4.913701612219924 0  -4.904621823105896 -0.04985904351071754 0  0.0452182742568727 -4.917264795198473 0  0.04964280994256388 4.923930586030037 0  4.911732397138122 -0.05128056334088703 0  3.546241380168926 -4.919912054965041 0  -3.549615485440913 4.912958196128359 0  -3.549586792525832 -4.912976590348653 
[...]
<PointData  Scalars="f_26"> 
<DataArray  type="Float64"  Name="f_26"  format="ascii">0.0000000000000000e+00  0.0000000000000000e+00  0.0000000000000000e+00  0.0000000000000000e+00  7.2761454463436749e+01  0.0000000000000000e+00  0.0000000000000000e+00  0.0000000000000000e+00  0.0000000000000000e+00  0.0000000000000000e+00  0.0000000000000000e+00  0.0000000000000000e+00  0.0000000000000000e+00  0.0000000000000000e+00  0.0000000000000000e+00  0.0000000000000000e+00  0.0000000000000000e+00  0.0000000000000000e+00  0.0000000000000000e+00  0.0000000000000000e+00  0.0000000000000000e+00  0.0000000000000000e+00  0.0000000000000000e+00  0.0000000000000000e+00  0.0000000000000000e+00  0.0000000000000000e+00  0.0000000000000000e+00  0.0000000000000000e+00  0.0000000000000000e+00  0.0000000000000000e+00  0.0000000000000000e+00  0.0000000000000000e+00  0.0000000000000000e+00  0.0000000000000000e+00  0.0000000000000000e+00  0.0000000000000000e+00  0.0000000000000000e+00  0.0000000000000000e+00  0.0000000000000000e+00  0.0000000000000000e+00  0.0000000000000000e+00  0.0000000000000000e+00  0.0000000000000000e+00  0.0000000000000000e+00  0.0000000000000000e+00  0.0000000000000000e+00  0.0000000000000000e+00  0.0000000000000000e+00  0.0000000000000000e+00  0.0000000000000000e+00  0.0000000000000000e+00  0.0000000000000000e+00  0.0000000000000000e+00  0.0000000000000000e+00  0.0000000000000000e+00  0.0000000000000000e+00  0.0000000000000000e+00  0.0000000000000000e+00  0.0000000000000000e+00  0.0000000000000000e+00  0.0000000000000000e+00  0.0000000000000000e+00  0.0000000000000000e+00  0.0000000000000000e+00  0.0000000000000000e+00  0.0000000000000000e+00  0.0000000000000000e+00  0.0000000000000000e+00  0.0000000000000000e+00  0.0000000000000000e+00  0.0000000000000000e+00  0.0000000000000000e+00  0.0000000000000000e+00  0.0000000000000000e+00  0.0000000000000000e+00  0.0000000000000000e+00  0.0000000000000000e+00  0.0000000000000000e+00  0.0000000000000000e+00  0.0000000000000000e+00  0.0000000000000000e+00  0.0000000000000000e+00  0.0000000000000000e+00  0.0000000000000000e+00  0.0000000000000000e+00  0.0000000000000000e+00  0.0000000000000000e+00  0.0000000000000000e+00  0.0000000000000000e+00  0.0000000000000000e+00  0.0000000000000000e+00  0.0000000000000000e+00  0.0000000000000000e+00  0.0000000000000000e+00  0.0000000000000000e+00  0.0000000000000000e+00  0.0000000000000000e+00  0.0000000000000000e+00  0.0000000000000000e+00  0.0000000000000000e+00  0.0000000000000000e+00  0.0000000000000000e+00  0.0000000000000000e+00  0.0000000000000000e+00  0.0000000000000000e+00  0.0000000000000000e+00  0.0000000000000000e+00  0.0000000000000000e+00  0.0000000000000000e+00  0.0000000000000000e+00  0.0000000000000000e+00  0.0000000000000000e+00  0.0000000000000000e+00  0.0000000000000000e+00  0.0000000000000000e+00  0.0000000000000000e+00  0.0000000000000000e+00  0.0000000000000000e+00  0.0000000000000000e+00  0.0000000000000000e+00  0.0000000000000000e+00  0.0000000000000000e+00  0.0000000000000000e+00  0.0000000000000000e+00  0.0000000000000000e+00  0.0000000000000000e+00  0.0000000000000000e+00  0.0000000000000000e+00  0.0000000000000000e+00  0.0000000000000000e+00  0.0000000000000000e+00  0.0000000000000000e+00  0.0000000000000000e+00  0.0000000000000000e+00  0.0000000000000000e+00  0.0000000000000000e+00  0.0000000000000000e+00  0.0000000000000000e+00  0.0000000000000000e+00  0.0000000000000000e+00  0.0000000000000000e+00  0.0000000000000000e+00  0.0000000000000000e+00  0.0000000000000000e+00  0.0000000000000000e+00  0.0000000000000000e+00  0.0000000000000000e+00  0.0000000000000000e+00  0.0000000000000000e+00  0.0000000000000000e+00  0.0000000000000000e+00  0.0000000000000000e+00  0.0000000000000000e+00  0.0000000000000000e+00  0.0000000000000000e+00  0.0000000000000000e+00  0.0000000000000000e+00  0.0000000000000000e+00  0.0000000000000000e+00  0.0000000000000000e+00  0.0000000000000000e+00  0.0000000000000000e+00  0.0000000000000000e+00  0.0000000000000000e+00  0.0000000000000000e+00  0.0000000000000000e+00  0.0000000000000000e+00  0.0000000000000000e+00  0.0000000000000000e+00  0.0000000000000000e+00  0.0000000000000000e+00  0.0000000000000000e+00  0.0000000000000000e+00  0.0000000000000000e+00  0.0000000000000000e+00  0.0000000000000000e+00  0.0000000000000000e+00  0.0000000000000000e+00  0.0000000000000000e+00  0.0000000000000000e+00  0.0000000000000000e+00  0.0000000000000000e+00  0.0000000000000000e+00  0.0000000000000000e+00  0.0000000000000000e+00  0.0000000000000000e+00  0.0000000000000000e+00  0.0000000000000000e+00  0.0000000000000000e+00  0.0000000000000000e+00  0.0000000000000000e+00  0.0000000000000000e+00  0.0000000000000000e+00  0.0000000000000000e+00  0.0000000000000000e+00  0.0000000000000000e+00  0.0000000000000000e+00  0.0000000000000000e+00  0.0000000000000000e+00  0.0000000000000000e+00  0.0000000000000000e+00  0.0000000000000000e+00  0.0000000000000000e+00  0.0000000000000000e+00  0.0000000000000000e+00  0.0000000000000000e+00  0.0000000000000000e+00  0.0000000000000000e+00  0.0000000000000000e+00  0.0000000000000000e+00  0.0000000000000000e+00  0.0000000000000000e+00  0.0000000000000000e+00  0.0000000000000000e+00  0.0000000000000000e+00  0.0000000000000000e+00  0.0000000000000000e+00  0.0000000000000000e+00  0.0000000000000000e+00  0.0000000000000000e+00  0.0000000000000000e+00  0.0000000000000000e+00  0.0000000000000000e+00  0.0000000000000000e+00  0.0000000000000000e+00  0.0000000000000000e+00  0.0000000000000000e+00  0.0000000000000000e+00  0.0000000000000000e+00  0.0000000000000000e+00  0.0000000000000000e+00  0.0000000000000000e+00  0.0000000000000000e+00  0.0000000000000000e+00  0.0000000000000000e+00  0.0000000000000000e+00  0.0000000000000000e+00  0.0000000000000000e+00  0.0000000000000000e+00  0.0000000000000000e+00  0.0000000000000000e+00  0.0000000000000000e+00  0.0000000000000000e+00  0.0000000000000000e+00  0.0000000000000000e+00  0.0000000000000000e+00  0.0000000000000000e+00  0.0000000000000000e+00  0.0000000000000000e+00  0.0000000000000000e+00  0.0000000000000000e+00  0.0000000000000000e+00  0.0000000000000000e+00  0.0000000000000000e+00  0.0000000000000000e+00  0.0000000000000000e+00  0.0000000000000000e+00  0.0000000000000000e+00  0.0000000000000000e+00  0.0000000000000000e+00  0.0000000000000000e+00  0.0000000000000000e+00  0.0000000000000000e+00  0.0000000000000000e+00  0.0000000000000000e+00  0.0000000000000000e+00  0.0000000000000000e+00  0.0000000000000000e+00  0.0000000000000000e+00  0.0000000000000000e+00  0.0000000000000000e+00  0.0000000000000000e+00  0.0000000000000000e+00  0.0000000000000000e+00  0.0000000000000000e+00  0.0000000000000000e+00  0.0000000000000000e+00  0.0000000000000000e+00  0.0000000000000000e+00  0.0000000000000000e+00  0.0000000000000000e+00  0.0000000000000000e+00  0.0000000000000000e+00  0.0000000000000000e+00  0.0000000000000000e+00  0.0000000000000000e+00  0.0000000000000000e+00  0.0000000000000000e+00  0.0000000000000000e+00  0.0000000000000000e+00  0.0000000000000000e+00  0.0000000000000000e+00  0.0000000000000000e+00  0.0000000000000000e+00  0.0000000000000000e+00  0.0000000000000000e+00  0.0000000000000000e+00  0.0000000000000000e+00  0.0000000000000000e+00  0.0000000000000000e+00  0.0000000000000000e+00  0.0000000000000000e+00  0.0000000000000000e+00  0.0000000000000000e+00  0.0000000000000000e+00  0.0000000000000000e+00  0.0000000000000000e+00  0.0000000000000000e+00  0.0000000000000000e+00  0.0000000000000000e+00  0.0000000000000000e+00  0.0000000000000000e+00  0.0000000000000000e+00  0.0000000000000000e+00  0.0000000000000000e+00  0.0000000000000000e+00  0.0000000000000000e+00  0.0000000000000000e+00  0.0000000000000000e+00  0.0000000000000000e+00  0.0000000000000000e+00  0.0000000000000000e+00  0.0000000000000000e+00  0.0000000000000000e+00  0.0000000000000000e+00  0.0000000000000000e+00  0.0000000000000000e+00  0.0000000000000000e+00  0.0000000000000000e+00  0.0000000000000000e+00  0.0000000000000000e+00  0.0000000000000000e+00  0.0000000000000000e+00  0.0000000000000000e+00  0.0000000000000000e+00  0.0000000000000000e+00  0.0000000000000000e+00  0.0000000000000000e+00  0.0000000000000000e+00  0.0000000000000000e+00  0.0000000000000000e+00  0.0000000000000000e+00  0.0000000000000000e+00  0.0000000000000000e+00  0.0000000000000000e+00  0.0000000000000000e+00  0.0000000000000000e+00  0.0000000000000000e+00  0.0000000000000000e+00  0.0000000000000000e+00  0.0000000000000000e+00  0.0000000000000000e+00  0.0000000000000000e+00  0.0000000000000000e+00  0.0000000000000000e+00  0.0000000000000000e+00  0.0000000000000000e+00  0.0000000000000000e+00  0.0000000000000000e+00  0.0000000000000000e+00  0.0000000000000000e+00  0.0000000000000000e+00  0.0000000000000000e+00  0.0000000000000000e+00  0.0000000000000000e+00  0.0000000000000000e+00  0.0000000000000000e+00  0.0000000000000000e+00  0.0000000000000000e+00  0.0000000000000000e+00  0.0000000000000000e+00  0.0000000000000000e+00  0.0000000000000000e+00  0.0000000000000000e+00  0.0000000000000000e+00  0.0000000000000000e+00  0.0000000000000000e+00  0.0000000000000000e+00  0.0000000000000000e+00  0.0000000000000000e+00  0.0000000000000000e+00  0.0000000000000000e+00  0.0000000000000000e+00  0.0000000000000000e+00  0.0000000000000000e+00  0.0000000000000000e+00  0.0000000000000000e+00  0.0000000000000000e+00  0.0000000000000000e+00  0.0000000000000000e+00  0.0000000000000000e+00  0.0000000000000000e+00  0.0000000000000000e+00  0.0000000000000000e+00  0.0000000000000000e+00  0.0000000000000000e+00  0.0000000000000000e+00  0.0000000000000000e+00  0.0000000000000000e+00  0.0000000000000000e+00  0.0000000000000000e+00  7.8636516270745943e+01  7.3572728295437884e+01  7.8996847406733039e+01  7.1210803694763754e+01  7.1085367901758303e+01  6.7191832169528908e+01  6.6140838788568431e+01  6.1749613881449847e+01  5.7384554283570949e+01  5.6000857472154479e+01  5.4974960938611872e+01  5.3810098699197695e+01  5.2442011741068441e+01  5.1719731373868541e+01  5.1335827788687013e+01  5.1222051340023746e+01  5.1169191310710922e+01  5.1267966000108999e+01  5.1639385791220938e+01  5.2363061189106453e+01  5.3204985539636070e+01  5.4212187577070679e+01  5.5564318254347413e+01  5.5139093769334330e+01  5.9533252622581898e+01  6.4423068523198367e+01  6.7097363979253444e+01  6.5588298536463455e+01  6.8955754568978946e+01  6.9432919186422666e+01  7.0606302119727360e+01  6.6037972139135121e+01  7.3652424017155013e+01  6.8266610428405613e+01  6.6173676311634637e+01  6.7156033063018683e+01  6.2367029452780947e+01  6.0461398052830873e+01  5.8110007612667431e+01  5.5821632602239220e+01  5.3143090796873352e+01  5.2048942995452357e+01  5.1206040208017939e+01  5.0345579645907058e+01  4.9823448881058667e+01  4.9546212582931247e+01  4.9605907473843651e+01  4.9923100324491600e+01  5.0283340769083559e+01  5.0962798954966807e+01  5.1939046005799575e+01  5.4042646547617736e+01  5.6186252410239362e+01  5.7937842160515061e+01  5.9620178519827782e+01  6.1723254316930785e+01  6.6101629718977165e+01  7.1044563811339941e+01  7.1720559006396130e+01  7.2641052829838856e+01  7.8055072472398265e+01  7.7191501133199480e+01  8.5070782926062205e-01  8.8191662712258800e-01  1.4075092907181408e+00  1.2528992575629254e+00  1.0814615313425382e+00  1.0928955430149632e+00  1.2964712667929603e+00  1.3291158780431573e+00  9.9045193615844729e-01  8.9715650108758516e-01  1.5856706210025715e+00  1.7858186141272019e+00  1.6717784481166038e+00  1.6869222006812681e+00  1.0997017757653629e+00  1.1699388155616972e+00  1.0329166600794693e+00  8.8483748064406242e-01  1.9454185556331314e+00  1.9726820027552951e+00  9.5272741914871317e-01  1.0624064640373299e+00  2.0913573897254314e+00  1.8221246320615772e+00  9.5590986637517228e-01  9.2540910505477603e-01  2.1630034777886729e+00  2.1750183932637954e+00  2.3257479076290877e+00  2.0431913025488471e+00  1.1126343430248566e+00  9.7519032975814679e-01  9.6503322632055033e-01  9.7300452686675909e-01  1.0299808376022128e+00  9.8661000362845919e-01  7.5111425820948685e-01  7.6661326590815526e-01  8.2178837466522237e-01  7.9431879314514275e-01  2.2497615431626365e+00  9.3955583475381876e-01  9.2743020761633421e-01  2.2181434795401302e+00  6.0410142943317602e-01  6.4732701873761567e-01  6.1909357180333902e-01  7.1134961711409250e-01  7.0852991599758042e-01  7.3202468872381743e-01  7.2112750841948248e-01  6.6486092966888222e-01  5.2316626531638033e-01  5.2753182015747646e-01  5.0011314319719158e-01  5.0674834206487884e-01  4.5683632031948362e-01  5.5334841053380768e-01  5.0783201148938872e-01  5.1889976246611236e-01  3.7549589726642718e-01  2.9021617669919680e-01  2.5590775584635173e-01  3.3991302963079445e-01  3.2405863806586793e-01  3.0659396129481525e-01  3.1493140902638744e-01  3.4404918489774855e-01  2.2397764242440608e+00  9.7594754731778666e-01  9.7590498809968751e-01  2.0890776651665495e+00  1.0764072577194608e+00  1.8138551644091188e+00  2.0969450951762094e+00  2.0868283984668476e+00  1.8608075752075708e+00  8.7705869765214972e-01  1.2245385077163429e+00  9.7485631871524159e-01  1.0584126475001099e+00  1.8855243550438558e+00  2.2268357985776701e+00  1.9946885875216112e+00  1.9511306913609705e+00  1.0231882674526338e+00  1.0729822490005385e+00  9.6090857222488180e-01  1.1487687370941022e+00  9.7552154941902947e-01  1.5156331760159345e+00  1.5241750566057619e+00  8.5703262401883995e-01  9.6435838785585704e-01  1.5102595704950457e+00  1.6128379836798952e+00  1.2030075389658992e+00  8.7697731451173111e-01  9.4314355534996175e-01  1.1522478575022355e+00  9.9158704817022514e-01  1.1323476294822616e+00  1.1766688405734049e+00  7.6961007485287825e-01  1.6570561349083410e-01  1.7266419800325120e-01  1.7403763842596592e-01  1.8330441089087995e-01  1.7645019375310939e-01  1.7205260142106318e-01  1.7083690678284780e-01  1.4865610807688087e-01  2.2338679945158915e+00  1.0641374178170564e+00  1.2508878801410153e+00  2.1154134564234108e+00  9.5880178510748104e-01  1.5244935763716991e+00  1.4955868514203792e+00  1.0185757843139129e+00  1.4063117276621731e+00  9.5322838405539945e-01  1.0751048891155377e+00  1.4227893882117559e+00  9.0392647302406526e-01  8.1995608603676085e-01  8.4920484667677298e-01  8.6433177480666956e-01  8.8842411037113567e-01  7.8299804596591238e-01  7.6904162168555712e-01  8.8232318948168997e-01  6.3390450312363578e-01  4.2551159803826588e-01  5.5501821665973450e-01  4.2040150267502152e-01  5.3576160533653994e-01  4.1715651425890704e-01  6.0682629403110777e-01  4.0817185230077985e-01  5.7320959588293152e-01  4.8738961165454120e-01  6.6221368937984848e-01  4.4615635594422082e-01  6.2868561226610598e-01  4.1857602941862648e-01  6.2943444528247317e-01  4.4099211228031454e-01  7.8467734687675289e-02  7.7769419379235663e-02  7.5402420974083825e-02  8.0226457733165613e-02  2.2440032301635320e+00  4.4771822196686637e+00  4.4524169899796417e+00  6.6915520684279386e+00  6.6477948593755745e+00  8.8803376901791076e+00  8.8164299013645167e+00  1.1037547752454993e+01  1.0946043689024195e+01  1.3155573403581851e+01  1.3032047440486217e+01  1.5228203088223788e+01  1.5068685504168917e+01  1.7249005253412399e+01  1.7049661516586070e+01  1.9212050334200526e+01  1.8966915822806147e+01  2.1110237691407260e+01  2.0820043318691265e+01  2.2935272487277981e+01  2.2597607425582023e+01  2.3242829798442621e+01  2.4689989991090894e+01  2.4294982969715225e+01  2.6363868670876094e+01  2.5911210170783434e+01  2.7945782492560845e+01  2.7436374611118364e+01  2.9437292990987949e+01  2.8867868215573527e+01  3.0830961719858085e+01  3.0201876476019361e+01  3.1424865687422340e+01  3.2122189166618377e+01  3.1434589420748797e+01  3.3316235196558281e+01  3.2565503640267856e+01  3.4408971463025871e+01  3.3590680241840353e+01  3.5391004076634488e+01  3.4512517134190638e+01  3.6265460124829161e+01  3.5327115368011732e+01  3.7177348551038641e+01  3.7032365794094986e+01  3.6035942920561190e+01  3.7692674993499146e+01  3.6638030527952807e+01  3.5009371629252868e+01  3.5562118797632245e+01  3.7138454437061604e+01  3.6018623028029978e+01  3.4479791951563136e+01  3.4890394241146616e+01  3.3393338018882062e+01  3.3757480997976124e+01  3.5202356578123826e+01  3.4028798302979979e+01  3.2621220139932490e+01  3.2855240117772112e+01  3.1484219922187087e+01  3.1683736384871967e+01  3.3003736950172801e+01  3.1800648785490509e+01  3.0516082026763712e+01  3.0603618751527588e+01  3.1838644256901375e+01  3.0615283372026294e+01  2.9413827134254060e+01  2.9400971261450728e+01  3.0555067678043056e+01  2.9319249290611417e+01  3.0427368207361894e+01  2.8232287097970008e+01  2.9172895399772056e+01  3.0236458506235508e+01  2.8966306171091816e+01  2.9987180753091646e+01  2.8704037992268525e+01  2.9684241230133036e+01  2.8390725403847981e+01  2.9332190290023224e+01  2.7435667864460800e+01  2.8030917670719102e+01  2.8935987198171663e+01  2.7629230313875688e+01  2.8500310299145930e+01  2.7190244851798631e+01  2.8029742405530371e+01  2.6718289454677123e+01  2.7528787880021330e+01  2.6217667882699601e+01  2.7001583024799963e+01  2.5692340984820806e+01  2.6452233194639895e+01  2.5424087475882661e+01  3.0993992982824238e+01  5.9221950408879685e+01  2.5146030772938424e+01  2.5884457037736304e+01  2.4582500298832191e+01  2.5301714440484297e+01  5.3318849171932335e+01  2.4004913289580390e+01  2.4707191450293941e+01  4.9964468529954502e+01  2.3416251369380685e+01  2.4103752833280303e+01  2.5406129926272129e+01  2.4789122510850653e+01  2.3493897453671678e+01  2.4167663616750829e+01  2.8858898492149258e+01  2.2725621769745949e+01  2.2879997801938920e+01  2.3544003578047029e+01  2.4841725292486544e+01  2.4209173412297780e+01  2.2919640133310178e+01  2.3577567805994423e+01  2.4876986459595514e+01  2.4239112161406890e+01  2.2948037733887670e+01  2.3604717753278507e+01  2.4905632188427060e+01  2.4267153977244121e+01  2.2974515609803838e+01  2.3633664280773527e+01  2.4938410106750254e+01  2.4301680509405596e+01  2.3006020663506725e+01  2.3670989433719804e+01  2.4977066379118295e+01  2.4344920649042152e+01  2.3047311858618453e+01  2.3720241791764217e+01  2.5028838886943451e+01  2.4403382064725648e+01  2.5723847777808263e+01  2.5097529836720646e+01  2.3784302969870346e+01  2.4477510491552298e+01  2.5803364468898309e+01  2.5182179950229418e+01  2.3863076147612801e+01  2.4566242197395390e+01  2.5898760603875424e+01  2.5280695712436550e+01  2.6627403744470932e+01  2.6006417553961093e+01  2.7368184563957485e+01  2.6743269600719504e+01  2.5388493046827293e+01  2.6120611958877411e+01  2.7490895553638065e+01  2.6862100462585012e+01  2.8248594807994717e+01  2.7612035721256838e+01  2.9015400508559999e+01  2.8369147531317104e+01  2.9789966203091314e+01  2.9131812225285401e+01  2.7720341776471333e+01  2.8469792371073055e+01  2.9898101080773451e+01  2.9220816898736206e+01  3.0664742814999293e+01  2.9969571277557304e+01  3.1430028817414232e+01  3.0713258745605721e+01  3.2192580100474508e+01  3.1448280063906171e+01  3.2943635046377558e+01  3.2171064278935773e+01  3.3678689931725430e+01  3.2875553900340272e+01  3.4395831375645599e+01  3.3557475278653634e+01  3.5094989760727508e+01  3.4212370215772637e+01  3.5758978022314530e+01  3.4832764123054218e+01  3.6377586842710777e+01  3.5410954053071002e+01  3.6958214820540789e+01  3.5943500742094301e+01  3.7490430617464831e+01  3.4428275252165797e+01  3.4912881651386144e+01  3.3429756437000684e+01  3.3865584514625269e+01  3.2414982214009108e+01  3.2802077938721951e+01  3.1383530850347189e+01  3.1721971951226742e+01  3.0335429284437584e+01  3.0625464788324216e+01  3.1998882501868511e+01  2.9271283347806925e+01  2.9263939323439558e+01  3.0852034311866721e+01  3.2209005427182582e+01  3.1010719883035343e+01  3.2347403369014849e+01  3.1096005695667618e+01  3.2409163429606906e+01  3.1103189754647051e+01  3.2389726497060629e+01  3.1028897369521975e+01  2.9783287971714866e+01  3.2285076909931028e+01  2.9655279399018770e+01  2.8450902103550472e+01  2.8270147646344284e+01  2.7107481808530213e