<?xml version="1.0"?>
<VTKFile type="UnstructuredGrid"  version="0.1"  >
<UnstructuredGrid>
<Piece  NumberOfPoints="11902" NumberOfCells="23402">
<Points>
<DataArray  type="Float64"  NumberOfComponents="3"  format="ascii">-5 -5 0  5 -5 0  5 5 0  -5 5 0  1.303339564361806 -0.00126843041230682 0  -4.9 -5 0  -4.8 -5 0  -4.7 -5 0  -4.6 -5 0  -4.5 -5 0  -4.4 -5 0  -4.3 -5 0  -4.2 -5 0  -4.1 -5 0  -4 -5 0  -3.9 -5 0  -3.8 -5 0  -3.7 -5 0  -3.6 -5 0  -3.5 -5 0  -3.4 -5 0  -3.3 -5 0  -3.2 -5 0  -3.1 -5 0  -3 -5 0  -2.9 -5 0  -2.8 -5 0  -2.7 -5 0  -2.6 -5 0  -2.5 -5 0  -2.4 -5 0  -2.3 -5 0  -2.2 -5 0  -2.1 -5 0  -2 -5 0  -1.9 -5 0  -1.8 -5 0  -1.7 -5 0  -1.6 -5 0  -1.5 -5 0  -1.4 -5 0  -1.3 -5 0  -1.2 -5 0  -1.1 -5 0  -1 -5 0  -0.9000000000000004 -5 0  -0.7999999999999998 -5 0  -0.7000000000000002 -5 0  -0.5999999999999996 -5 0  -0.5 -5 0  -0.4000000000000004 -5 0  -0.2999999999999998 -5 0  -0.2000000000000002 -5 0  -0.09999999999999964 -5 0  0 -5 0  0.09999999999999964 -5 0  0.2000000000000002 -5 0  0.2999999999999998 -5 0  0.4000000000000004 -5 0  0.5 -5 0  0.5999999999999996 -5 0  0.7000000000000002 -5 0  0.7999999999999998 -5 0  0.9000000000000004 -5 0  1 -5 0  1.1 -5 0  1.2 -5 0  1.3 -5 0  1.4 -5 0  1.5 -5 0  1.6 -5 0  1.7 -5 0  1.8 -5 0  1.9 -5 0  2 -5 0  2.1 -5 0  2.2 -5 0  2.3 -5 0  2.4 -5 0  2.5 -5 0  2.6 -5 0  2.7 -5 0  2.8 -5 0  2.9 -5 0  3 -5 0  3.1 -5 0  3.199999999999999 -5 0  3.300000000000001 -5 0  3.4 -5 0  3.5 -5 0  3.6 -5 0  3.699999999999999 -5 0  3.800000000000001 -5 0  3.9 -5 0  4 -5 0  4.1 -5 0  4.199999999999999 -5 0  4.300000000000001 -5 0  4.4 -5 0  4.5 -5 0  4.6 -5 0  4.699999999999999 -5 0  4.800000000000001 -5 0  4.9 -5 0  5 -4.9 0  5 -4.8 0  5 -4.7 0  5 -4.6 0  5 -4.5 0  5 -4.4 0  5 -4.3 0  5 -4.2 0  5 -4.1 0  5 -4 0  5 -3.9 0  5 -3.8 0  5 -3.7 0  5 -3.6 0  5 -3.5 0  5 -3.4 0  5 -3.3 0  5 -3.2 0  5 -3.1 0  5 -3 0  5 -2.9 0  5 -2.8 0  5 -2.7 0  5 -2.6 0  5 -2.5 0  5 -2.4 0  5 -2.3 0  5 -2.2 0  5 -2.1 0  5 -2 0  5 -1.9 0  5 -1.8 0  5 -1.7 0  5 -1.6 0  5 -1.5 0  5 -1.4 0  5 -1.3 0  5 -1.2 0  5 -1.1 0  5 -1 0  5 -0.9000000000000004 0  5 -0.7999999999999998 0  5 -0.7000000000000002 0  5 -0.5999999999999996 0  5 -0.5 0  5 -0.4000000000000004 0  5 -0.2999999999999998 0  5 -0.2000000000000002 0  5 -0.09999999999999964 0  5 0 0  5 0.09999999999999964 0  5 0.2000000000000002 0  5 0.2999999999999998 0  5 0.4000000000000004 0  5 0.5 0  5 0.5999999999999996 0  5 0.7000000000000002 0  5 0.7999999999999998 0  5 0.9000000000000004 0  5 1 0  5 1.1 0  5 1.2 0  5 1.3 0  5 1.4 0  5 1.5 0  5 1.6 0  5 1.7 0  5 1.8 0  5 1.9 0  5 2 0  5 2.1 0  5 2.2 0  5 2.3 0  5 2.4 0  5 2.5 0  5 2.6 0  5 2.7 0  5 2.8 0  5 2.9 0  5 3 0  5 3.1 0  5 3.199999999999999 0  5 3.300000000000001 0  5 3.4 0  5 3.5 0  5 3.6 0  5 3.699999999999999 0  5 3.800000000000001 0  5 3.9 0  5 4 0  5 4.1 0  5 4.199999999999999 0  5 4.300000000000001 0  5 4.4 0  5 4.5 0  5 4.6 0  5 4.699999999999999 0  5 4.800000000000001 0  5 4.9 0  4.9 5 0  4.8 5 0  4.7 5 0  4.6 5 0  4.5 5 0  4.4 5 0  4.3 5 0  4.2 5 0  4.1 5 0  4 5 0  3.9 5 0  3.8 5 0  3.7 5 0  3.6 5 0  3.5 5 0  3.4 5 0  3.3 5 0  3.2 5 0  3.1 5 0  3 5 0  2.9 5 0  2.8 5 0  2.7 5 0  2.6 5 0  2.5 5 0  2.4 5 0  2.3 5 0  2.2 5 0  2.1 5 0  2 5 0  1.9 5 0  1.8 5 0  1.7 5 0  1.6 5 0  1.5 5 0  1.4 5 0  1.3 5 0  1.2 5 0  1.1 5 0  1 5 0  0.9000000000000004 5 0  0.7999999999999998 5 0  0.7000000000000002 5 0  0.5999999999999996 5 0  0.5 5 0  0.4000000000000004 5 0  0.2999999999999998 5 0  0.2000000000000002 5 0  0.09999999999999964 5 0  0 5 0  -0.09999999999999964 5 0  -0.2000000000000002 5 0  -0.2999999999999998 5 0  -0.4000000000000004 5 0  -0.5 5 0  -0.5999999999999996 5 0  -0.7000000000000002 5 0  -0.7999999999999998 5 0  -0.9000000000000004 5 0  -1 5 0  -1.1 5 0  -1.2 5 0  -1.3 5 0  -1.4 5 0  -1.5 5 0  -1.6 5 0  -1.7 5 0  -1.8 5 0  -1.9 5 0  -2 5 0  -2.1 5 0  -2.2 5 0  -2.3 5 0  -2.4 5 0  -2.5 5 0  -2.6 5 0  -2.7 5 0  -2.8 5 0  -2.9 5 0  -3 5 0  -3.1 5 0  -3.199999999999999 5 0  -3.300000000000001 5 0  -3.4 5 0  -3.5 5 0  -3.6 5 0  -3.699999999999999 5 0  -3.800000000000001 5 0  -3.9 5 0  -4 5 0  -4.1 5 0  -4.199999999999999 5 0  -4.300000000000001 5 0  -4.4 5 0  -4.5 5 0  -4.6 5 0  -4.699999999999999 5 0  -4.800000000000001 5 0  -4.9 5 0  -5 4.9 0  -5 4.8 0  -5 4.7 0  -5 4.6 0  -5 4.5 0  -5 4.4 0  -5 4.3 0  -5 4.2 0  -5 4.1 0  -5 4 0  -5 3.9 0  -5 3.8 0  -5 3.7 0  -5 3.6 0  -5 3.5 0  -5 3.4 0  -5 3.3 0  -5 3.2 0  -5 3.1 0  -5 3 0  -5 2.9 0  -5 2.8 0  -5 2.7 0  -5 2.6 0  -5 2.5 0  -5 2.4 0  -5 2.3 0  -5 2.2 0  -5 2.1 0  -5 2 0  -5 1.9 0  -5 1.8 0  -5 1.7 0  -5 1.6 0  -5 1.5 0  -5 1.4 0  -5 1.3 0  -5 1.2 0  -5 1.1 0  -5 1 0  -5 0.9000000000000004 0  -5 0.7999999999999998 0  -5 0.7000000000000002 0  -5 0.5999999999999996 0  -5 0.5 0  -5 0.4000000000000004 0  -5 0.2999999999999998 0  -5 0.2000000000000002 0  -5 0.09999999999999964 0  -5 0 0  -5 -0.09999999999999964 0  -5 -0.2000000000000002 0  -5 -0.2999999999999998 0  -5 -0.4000000000000004 0  -5 -0.5 0  -5 -0.5999999999999996 0  -5 -0.7000000000000002 0  -5 -0.7999999999999998 0  -5 -0.9000000000000004 0  -5 -1 0  -5 -1.1 0  -5 -1.2 0  -5 -1.3 0  -5 -1.4 0  -5 -1.5 0  -5 -1.6 0  -5 -1.7 0  -5 -1.8 0  -5 -1.9 0  -5 -2 0  -5 -2.1 0  -5 -2.2 0  -5 -2.3 0  -5 -2.4 0  -5 -2.5 0  -5 -2.6 0  -5 -2.7 0  -5 -2.8 0  -5 -2.9 0  -5 -3 0  -5 -3.1 0  -5 -3.199999999999999 0  -5 -3.300000000000001 0  -5 -3.4 0  -5 -3.5 0  -5 -3.6 0  -5 -3.699999999999999 0  -5 -3.800000000000001 0  -5 -3.9 0  -5 -4 0  -5 -4.1 0  -5 -4.199999999999999 0  -5 -4.300000000000001 0  -5 -4.4 0  -5 -4.5 0  -5 -4.6 0  -5 -4.699999999999999 0  -5 -4.800000000000001 0  -5 -4.9 0  1.29790927722924 0.1260848706644601 0  1.276688091124384 0.2467943636946324 0  1.244597637175577 0.3646642614467936 0  1.192837730328638 0.4755724517741783 0  1.131574194561631 0.5821599347963609 0  1.05880818167277 0.6813210882139654 0  0.9729949500884517 0.7792029265775354 0  0.8824297334000525 0.8584539731089453 0  0.7852106509324011 0.9335610452588856 0  0.6818392255611898 0.9980184851644455 0  0.5659327296915999 1.054325893801914 0  0.4559849756858539 1.097631460819701 0  0.333218774456183 1.135430403658238 0  0.2125167127630411 1.160332742811416 0  0.09108632170036356 1.17612922243997 0  -0.03379905783788175 1.179577975312168 0  -0.1507591595708991 1.170433589490776 0  -0.2713895360150755 1.150899041828053 0  -0.3944608155695131 1.11867443224969 0  -0.5097757686523068 1.078054467206601 0  -0.6239414968491911 1.028163079064279 0  -0.7325582539986152 0.9662728445148185 0  -0.833034298261374 0.8982152627388916 0  -0.9319527875237363 0.8187963852157849 0  -1.015506451944749 0.7288231410509288 0  -1.094302652519271 0.6346900830482471 0  -1.16204121633232 0.5315119234822222 0  -1.217223065913066 0.4187060490864673 0  -1.260356741910797 0.3040778267083646 0  -1.288946584543192 0.1852367508592174 0  -1.303026031510593 0.06197745633218367 0  -1.302026640450935 -0.06026514519385578 0  -1.291510859406615 -0.1818631297793946 0  -1.258838484579551 -0.3059636188314875 0  -1.215495947992723 -0.4194537434603492 0  -1.160233769318631 -0.5322999458675916 0  -1.092534836929353 -0.6319866492149236 0  -1.015379933954116 -0.7300089519754689 0  -0.9279059067356759 -0.8197246863985399 0  -0.8332716570613777 -0.8974950933710293 0  -0.733039817067391 -0.9674739738863872 0  -0.6242261798197752 -1.029588827167105 0  -0.5104911285012519 -1.079783901827655 0  -0.3943917624345853 -1.118630969464051 0  -0.2743880749675061 -1.149486965424624 0  -0.1545266645670974 -1.166705084799085 0  -0.03328775663065341 -1.17574187848203 0  0.09588356678027911 -1.173040595157332 0  0.2129879974763077 -1.160071818987752 0  0.3385171309376255 -1.134504981280426 0  0.4523454801525924 -1.100009637029657 0  0.5705387502954751 -1.052851759270955 0  0.6774986610453425 -1.002098586063665 0  0.7866260085136006 -0.9345081127093726 0  0.8849578169458793 -0.8605567990717041 0  0.9753826330349427 -0.7765439210004859 0  1.05733214611664 -0.6842923652447134 0  1.128861555189266 -0.5861920082504767 0  1.189752756252816 -0.4782144818454369 0  1.240763826866124 -0.3595659858581975 0  1.275419200842061 -0.246593976232721 0  1.296868409042771 -0.1216199273882783 0  -2.449953607888292 4.92043522420213 0  -2.449947347464176 -4.913012905116265 0  4.912781801907997 2.449726144501473 0  4.920689950205191 -2.451015171060009 0  2.447934430296077 -4.898689961086351 0  2.442319039633908 4.902342362427417 0  -4.912791112961672 -2.449733828808494 0  -4.912798677030115 2.449737405621454 0  -1.749988817692568 4.91433069327802 0  -1.745711272369549 -4.91763117592683 0  4.923422860250526 1.745649296871372 0  4.912351971962061 -1.749656995543056 0  -4.912614161911407 -1.749361965287617 0  -4.913418919725168 1.749086806045973 0  1.747377828292775 4.908427690268939 0  1.748968556031952 -4.897007728921026 0  -1.150015249742182 4.912831371413897 0  -1.130762985209824 -4.920357399378782 0  -4.912960010614692 -1.149312508334435 0  -4.912794586351542 1.149109505562931 0  1.144929624631271 -4.916740811264037 0  1.15001724583483 4.912811026175135 0  4.913128599632096 1.147597238464038 0  4.923499138017033 -1.153206242359461 0  -0.5472867229819472 -4.914350302255235 0  -0.5470043155174186 4.922646054695595 0  -4.912161387700641 -0.5494516900017783 0  -4.912189860727151 0.5479978827005598 0  4.911544402560305 -0.5497836584306618 0  4.922666121717882 0.5464315150852105 0  0.5431427008525926 -4.901865795119789 0  0.551746178789109 4.919624027877212 0  -4.913534126428677 -3.049816286049065 0  4.919995500778005 3.047730285654554 0  4.913059540344674 -3.049816062283796 0  -4.914376567384472 3.046895097776585 0  3.056500989950203 -4.919085801614135 0  -3.04992746512958 -4.913146324735181 0  3.053465966009831 4.915190491310726 0  -3.04936300792506 4.914018363427782 0  -4.911440202646768 -0.04998228605469758 0  0.04516004602825532 -4.916339823223026 0  0.04961103540481089 4.923037602433152 0  4.918195294837432 -0.05135906626294115 0  3.546560038309642 -4.920245734165008 0  -3.549926111094426 4.913241394187905 0  -3
[...]
<PointData  Scalars="f_26"> 
<DataArray  type="Float64"  Name="f_26"  format="ascii">0.0000000000000000e+00  0.0000000000000000e+00  0.0000000000000000e+00  0.0000000000000000e+00  5.7351466809260430e+01  0.0000000000000000e+00  0.0000000000000000e+00  0.0000000000000000e+00  0.0000000000000000e+00  0.0000000000000000e+00  0.0000000000000000e+00  0.0000000000000000e+00  0.0000000000000000e+00  0.0000000000000000e+00  0.0000000000000000e+00  0.0000000000000000e+00  0.0000000000000000e+00  0.0000000000000000e+00  0.0000000000000000e+00  0.0000000000000000e+00  0.0000000000000000e+00  0.0000000000000000e+00  0.0000000000000000e+00  0.0000000000000000e+00  0.0000000000000000e+00  0.0000000000000000e+00  0.0000000000000000e+00  0.0000000000000000e+00  0.0000000000000000e+00  0.0000000000000000e+00  0.0000000000000000e+00  0.0000000000000000e+00  0.0000000000000000e+00  0.0000000000000000e+00  0.0000000000000000e+00  0.0000000000000000e+00  0.0000000000000000e+00  0.0000000000000000e+00  0.0000000000000000e+00  0.0000000000000000e+00  0.0000000000000000e+00  0.0000000000000000e+00  0.0000000000000000e+00  0.0000000000000000e+00  0.0000000000000000e+00  0.0000000000000000e+00  0.0000000000000000e+00  0.0000000000000000e+00  0.0000000000000000e+00  0.0000000000000000e+00  0.0000000000000000e+00  0.0000000000000000e+00  0.0000000000000000e+00  0.0000000000000000e+00  0.0000000000000000e+00  0.0000000000000000e+00  0.0000000000000000e+00  0.0000000000000000e+00  0.0000000000000000e+00  0.0000000000000000e+00  0.0000000000000000e+00  0.0000000000000000e+00  0.0000000000000000e+00  0.0000000000000000e+00  0.0000000000000000e+00  0.0000000000000000e+00  0.0000000000000000e+00  0.0000000000000000e+00  0.0000000000000000e+00  0.0000000000000000e+00  0.0000000000000000e+00  0.0000000000000000e+00  0.0000000000000000e+00  0.0000000000000000e+00  0.0000000000000000e+00  0.0000000000000000e+00  0.0000000000000000e+00  0.0000000000000000e+00  0.0000000000000000e+00  0.0000000000000000e+00  0.0000000000000000e+00  0.0000000000000000e+00  0.0000000000000000e+00  0.0000000000000000e+00  0.0000000000000000e+00  0.0000000000000000e+00  0.0000000000000000e+00  0.0000000000000000e+00  0.0000000000000000e+00  0.0000000000000000e+00  0.0000000000000000e+00  0.0000000000000000e+00  0.0000000000000000e+00  0.0000000000000000e+00  0.0000000000000000e+00  0.0000000000000000e+00  0.0000000000000000e+00  0.0000000000000000e+00  0.0000000000000000e+00  0.0000000000000000e+00  0.0000000000000000e+00  0.0000000000000000e+00  0.0000000000000000e+00  0.0000000000000000e+00  0.0000000000000000e+00  0.0000000000000000e+00  0.0000000000000000e+00  0.0000000000000000e+00  0.0000000000000000e+00  0.0000000000000000e+00  0.0000000000000000e+00  0.0000000000000000e+00  0.0000000000000000e+00  0.0000000000000000e+00  0.0000000000000000e+00  0.0000000000000000e+00  0.0000000000000000e+00  0.0000000000000000e+00  0.0000000000000000e+00  0.0000000000000000e+00  0.0000000000000000e+00  0.0000000000000000e+00  0.0000000000000000e+00  0.0000000000000000e+00  0.0000000000000000e+00  0.0000000000000000e+00  0.0000000000000000e+00  0.0000000000000000e+00  0.0000000000000000e+00  0.0000000000000000e+00  0.0000000000000000e+00  0.0000000000000000e+00  0.0000000000000000e+00  0.0000000000000000e+00  0.0000000000000000e+00  0.0000000000000000e+00  0.0000000000000000e+00  0.0000000000000000e+00  0.0000000000000000e+00  0.0000000000000000e+00  0.0000000000000000e+00  0.0000000000000000e+00  0.0000000000000000e+00  0.0000000000000000e+00  0.0000000000000000e+00  0.0000000000000000e+00  0.0000000000000000e+00  0.0000000000000000e+00  0.0000000000000000e+00  0.0000000000000000e+00  0.0000000000000000e+00  0.0000000000000000e+00  0.0000000000000000e+00  0.0000000000000000e+00  0.0000000000000000e+00  0.0000000000000000e+00  0.0000000000000000e+00  0.0000000000000000e+00  0.0000000000000000e+00  0.0000000000000000e+00  0.0000000000000000e+00  0.0000000000000000e+00  0.0000000000000000e+00  0.0000000000000000e+00  0.0000000000000000e+00  0.0000000000000000e+00  0.0000000000000000e+00  0.0000000000000000e+00  0.0000000000000000e+00  0.0000000000000000e+00  0.0000000000000000e+00  0.0000000000000000e+00  0.0000000000000000e+00  0.0000000000000000e+00  0.0000000000000000e+00  0.0000000000000000e+00  0.0000000000000000e+00  0.0000000000000000e+00  0.0000000000000000e+00  0.0000000000000000e+00  0.0000000000000000e+00  0.0000000000000000e+00  0.0000000000000000e+00  0.0000000000000000e+00  0.0000000000000000e+00  0.0000000000000000e+00  0.0000000000000000e+00  0.0000000000000000e+00  0.0000000000000000e+00  0.0000000000000000e+00  0.0000000000000000e+00  0.0000000000000000e+00  0.0000000000000000e+00  0.0000000000000000e+00  0.0000000000000000e+00  0.0000000000000000e+00  0.0000000000000000e+00  0.0000000000000000e+00  0.0000000000000000e+00  0.0000000000000000e+00  0.0000000000000000e+00  0.0000000000000000e+00  0.0000000000000000e+00  0.0000000000000000e+00  0.0000000000000000e+00  0.0000000000000000e+00  0.0000000000000000e+00  0.0000000000000000e+00  0.0000000000000000e+00  0.0000000000000000e+00  0.0000000000000000e+00  0.0000000000000000e+00  0.0000000000000000e+00  0.0000000000000000e+00  0.0000000000000000e+00  0.0000000000000000e+00  0.0000000000000000e+00  0.0000000000000000e+00  0.0000000000000000e+00  0.0000000000000000e+00  0.0000000000000000e+00  0.0000000000000000e+00  0.0000000000000000e+00  0.0000000000000000e+00  0.0000000000000000e+00  0.0000000000000000e+00  0.0000000000000000e+00  0.0000000000000000e+00  0.0000000000000000e+00  0.0000000000000000e+00  0.0000000000000000e+00  0.0000000000000000e+00  0.0000000000000000e+00  0.0000000000000000e+00  0.0000000000000000e+00  0.0000000000000000e+00  0.0000000000000000e+00  0.0000000000000000e+00  0.0000000000000000e+00  0.0000000000000000e+00  0.0000000000000000e+00  0.0000000000000000e+00  0.0000000000000000e+00  0.0000000000000000e+00  0.0000000000000000e+00  0.0000000000000000e+00  0.0000000000000000e+00  0.0000000000000000e+00  0.0000000000000000e+00  0.0000000000000000e+00  0.0000000000000000e+00  0.0000000000000000e+00  0.0000000000000000e+00  0.0000000000000000e+00  0.0000000000000000e+00  0.0000000000000000e+00  0.0000000000000000e+00  0.0000000000000000e+00  0.0000000000000000e+00  0.0000000000000000e+00  0.0000000000000000e+00  0.0000000000000000e+00  0.0000000000000000e+00  0.0000000000000000e+00  0.0000000000000000e+00  0.0000000000000000e+00  0.0000000000000000e+00  0.0000000000000000e+00  0.0000000000000000e+00  0.0000000000000000e+00  0.0000000000000000e+00  0.0000000000000000e+00  0.0000000000000000e+00  0.0000000000000000e+00  0.0000000000000000e+00  0.0000000000000000e+00  0.0000000000000000e+00  0.0000000000000000e+00  0.0000000000000000e+00  0.0000000000000000e+00  0.0000000000000000e+00  0.0000000000000000e+00  0.0000000000000000e+00  0.0000000000000000e+00  0.0000000000000000e+00  0.0000000000000000e+00  0.0000000000000000e+00  0.0000000000000000e+00  0.0000000000000000e+00  0.0000000000000000e+00  0.0000000000000000e+00  0.0000000000000000e+00  0.0000000000000000e+00  0.0000000000000000e+00  0.0000000000000000e+00  0.0000000000000000e+00  0.0000000000000000e+00  0.0000000000000000e+00  0.0000000000000000e+00  0.0000000000000000e+00  0.0000000000000000e+00  0.0000000000000000e+00  0.0000000000000000e+00  0.0000000000000000e+00  0.0000000000000000e+00  0.0000000000000000e+00  0.0000000000000000e+00  0.0000000000000000e+00  0.0000000000000000e+00  0.0000000000000000e+00  0.0000000000000000e+00  0.0000000000000000e+00  0.0000000000000000e+00  0.0000000000000000e+00  0.0000000000000000e+00  0.0000000000000000e+00  0.0000000000000000e+00  0.0000000000000000e+00  0.0000000000000000e+00  0.0000000000000000e+00  0.0000000000000000e+00  0.0000000000000000e+00  0.0000000000000000e+00  0.0000000000000000e+00  0.0000000000000000e+00  0.0000000000000000e+00  0.0000000000000000e+00  0.0000000000000000e+00  0.0000000000000000e+00  0.0000000000000000e+00  0.0000000000000000e+00  0.0000000000000000e+00  0.0000000000000000e+00  0.0000000000000000e+00  0.0000000000000000e+00  0.0000000000000000e+00  0.0000000000000000e+00  0.0000000000000000e+00  0.0000000000000000e+00  0.0000000000000000e+00  0.0000000000000000e+00  0.0000000000000000e+00  0.0000000000000000e+00  0.0000000000000000e+00  0.0000000000000000e+00  0.0000000000000000e+00  0.0000000000000000e+00  0.0000000000000000e+00  0.0000000000000000e+00  0.0000000000000000e+00  0.0000000000000000e+00  0.0000000000000000e+00  0.0000000000000000e+00  0.0000000000000000e+00  0.0000000000000000e+00  0.0000000000000000e+00  0.0000000000000000e+00  0.0000000000000000e+00  0.0000000000000000e+00  0.0000000000000000e+00  0.0000000000000000e+00  0.0000000000000000e+00  0.0000000000000000e+00  0.0000000000000000e+00  0.0000000000000000e+00  0.0000000000000000e+00  0.0000000000000000e+00  0.0000000000000000e+00  0.0000000000000000e+00  0.0000000000000000e+00  0.0000000000000000e+00  0.0000000000000000e+00  0.0000000000000000e+00  0.0000000000000000e+00  0.0000000000000000e+00  0.0000000000000000e+00  0.0000000000000000e+00  0.0000000000000000e+00  0.0000000000000000e+00  0.0000000000000000e+00  0.0000000000000000e+00  0.0000000000000000e+00  0.0000000000000000e+00  0.0000000000000000e+00  0.0000000000000000e+00  0.0000000000000000e+00  0.0000000000000000e+00  0.0000000000000000e+00  0.0000000000000000e+00  0.0000000000000000e+00  0.0000000000000000e+00  0.0000000000000000e+00  0.0000000000000000e+00  0.0000000000000000e+00  0.0000000000000000e+00  0.0000000000000000e+00  0.0000000000000000e+00  0.0000000000000000e+00  0.0000000000000000e+00  0.0000000000000000e+00  0.0000000000000000e+00  5.6951341230614979e+01  5.5759590197579286e+01  5.3912939447140850e+01  5.1573580154748981e+01  4.8819316069836482e+01  4.5812578896751084e+01  4.2366777428473519e+01  3.9097549139447914e+01  3.5882821776600366e+01  3.2929450108215065e+01  3.0116121865877016e+01  2.7889623517913183e+01  2.5954540319069714e+01  2.4612493850446505e+01  2.3802848016437817e+01  2.3543901388628566e+01  2.3959197839019630e+01  2.5056582084077192e+01  2.6695592705239715e+01  2.8724604193638037e+01  3.1208041439567985e+01  3.4042940371434177e+01  3.7025825032580919e+01  4.0316206018452895e+01  4.3510367395962575e+01  4.6631218375875044e+01  4.9600802977054819e+01  5.2165075248333707e+01  5.4130914401901315e+01  5.5548388759653072e+01  5.6311800609253140e+01  5.6332567815906053e+01  5.5693247038441200e+01  5.4325546803124759e+01  5.2178677966268275e+01  4.9533593386178268e+01  4.6645432931883811e+01  4.3502614151505753e+01  4.0163622997822294e+01  3.6903554364794715e+01  3.3831805591325342e+01  3.1075620263900294e+01  2.8507659054766464e+01  2.6468728756225971e+01  2.4900963990436406e+01  2.3905048888967354e+01  2.3484708234666790e+01  2.3676353791196068e+01  2.4428855060204135e+01  2.5835560285768981e+01  2.7635049751890485e+01  3.0002752357369669e+01  3.2588700544927867e+01  3.5765314285260835e+01  3.9003440590120476e+01  4.2355802686007770e+01  4.5666456114747376e+01  4.8813996750766186e+01  5.1690617563346549e+01  5.4150648532350438e+01  5.5870865155114991e+01  5.7006425697795414e+01  1.7664024670723781e+00  1.9340528507294670e+00  2.9710283400150104e+00  2.7010122918965416e+00  2.2824427737389987e+00  2.2001960803592242e+00  2.9284565402436717e+00  2.9243202635033927e+00  1.9762052411467685e+00  1.9035994791375448e+00  3.3738717012959301e+00  3.8565985565527758e+00  3.7908949509195828e+00  3.7529345816823461e+00  2.1383306450672532e+00  2.4061776070728156e+00  1.9732651770202216e+00  1.8049742948339673e+00  4.4216075436519215e+00  4.4270787761262707e+00  1.9032553515679156e+00  1.9922809057998063e+00  4.4774763255072729e+00  3.9389503623776019e+00  1.8853689317734705e+00  1.7001766077168461e+00  4.9156974845952268e+00  4.9132590814288974e+00  5.0204223871804237e+00  4.3912187826889690e+00  2.1691302845748877e+00  1.7754814561696100e+00  2.1744336020100303e+00  2.0432573068447386e+00  2.2180229366543016e+00  2.1533419397417961e+00  1.6062709168996399e+00  1.7066073690390133e+00  1.6859750416920316e+00  1.6849039500843246e+00  5.1027765861379315e+00  1.8225951735441810e+00  1.6748022891377232e+00  4.7812536332942033e+00  1.2970588424576908e+00  1.3867634782135818e+00  1.3882128706805734e+00  1.4888164961482451e+00  1.5949575953237476e+00  1.5762146477118184e+00  1.5664025490049851e+00  1.3761737738287001e+00  1.1269802343167272e+00  1.1846017493928243e+00  1.0764447197845317e+00  1.1405650750346998e+00  9.8371626760442321e-01  1.1564698863696083e+00  1.0554560431477804e+00  1.1241892616890146e+00  8.0888371228831546e-01  6.2629384378818076e-01  5.7591787157907293e-01  7.0976347144196095e-01  6.9840994575336701e-01  6.9018155208908427e-01  6.8121036937721191e-01  7.1712548272842525e-01  5.0708231781722350e+00  1.9033847566367739e+00  1.7715768571964925e+00  4.4968639789522795e+00  2.0132314053828857e+00  4.1191714281094622e+00  4.7228998167592868e+00  4.7441227144232245e+00  4.1581178832296271e+00  1.7781050093136346e+00  2.2599100294501873e+00  1.9217887571526693e+00  2.0212269031846080e+00  4.0245986852123554e+00  4.8130862594791557e+00  4.2774936640028800e+00  4.2138171112551674e+00  1.9985520582374481e+00  2.1531276967452118e+00  2.0023593087758762e+00  2.3366288657905856e+00  2.1039461753073447e+00  3.4311084061949479e+00  3.3752378973365333e+00  1.6951056809923359e+00  2.0088328786726959e+00  3.2024584304167765e+00  3.4812516945369656e+00  2.5905073521704685e+00  1.9402625862143883e+00  1.9182767175871041e+00  2.5243162616392447e+00  2.0831627434583799e+00  2.5541042011099631e+00  2.4771448310689586e+00  1.6365594769537177e+00  3.7306472056572548e-01  3.7214661462365634e-01  3.6329670745045700e-01  3.9584540929314627e-01  3.8015273169873659e-01  3.8729315548466109e-01  3.6928171603932197e-01  3.1023179200916268e-01  5.0715287440004699e+00  2.0677413634977309e+00  2.2648650825360912e+00  4.5627359910256624e+00  1.9716621160472483e+00  3.2253777482452697e+00  3.2267494822964493e+00  2.2158585183461619e+00  3.1800035267290152e+00  1.9996766736636995e+00  2.1462504109804765e+00  3.1406483994539229e+00  1.9460228218512674e+00  1.8316047951571672e+00  1.8083266811313448e+00  1.9465257856335090e+00  1.8632406764230611e+00  1.6770676644395646e+00  1.5835330771745071e+00  1.9215736150743481e+00  1.3648869227676521e+00  9.1682987738480837e-01  1.2457807530740213e+00  9.4586179420028327e-01  1.1532505359616434e+00  8.9859939801745781e-01  1.3658433823813743e+00  9.1874820462370388e-01  1.2308124998182202e+00  1.0506219408121242e+00  1.3848530879831755e+00  9.3199905267921945e-01  1.3634465694827056e+00  9.0600310302544917e-01  1.3054829341701657e+00  9.1750039754039292e-01  1.7669221563963722e-01  1.6229702345264149e-01  1.6254069947300806e-01  1.7337467141669222e-01  5.0922788930864380e+00  1.0158529757041316e+01  1.0106552713600244e+01  1.5181562767837748e+01  1.5088158575861607e+01  2.0144935332682333e+01  2.0007181289508356e+01  2.5033420652336702e+01  2.4834369452852172e+01  2.9828386201679518e+01  2.9557818294304809e+01  3.4513544050044047e+01  3.4162477253914048e+01  3.9072569378845174e+01  3.8631700182863391e+01  4.3488553028944601e+01  4.2945021309709020e+01  4.7743761109784337e+01  4.7098655733320435e+01  5.1814872422527792e+01  5.1063545716312539e+01  5.2494019081272867e+01  5.5705646349797753e+01  5.4826319608043988e+01  5.9388406384038568e+01  5.8380629038443516e+01  6.2832608332954337e+01  6.1699535474111372e+01  6.6037577507440730e+01  6.4773154693335357e+01  6.8981158042435538e+01  6.7587396957743721e+01  7.0287680654632624e+01  7.1648251704424951e+01  7.0130076640203669e+01  7.4043982909193772e+01  7.2393540992687093e+01  7.6153215260671644e+01  7.4365827683348300e+01  7.7952088759843548e+01  7.6046889582005576e+01  7.9442302984252834e+01  7.7425209034407274e+01  8.1388094181251134e+01  8.0621271841791923e+01  7.8502522530818268e+01  8.1489274266816153e+01  7.9275898133082507e+01  7.6311252281048013e+01  7.7006579698095578e+01  7.9756898834053530e+01  7.7426078133495324e+01  7.4709890609202191e+01  7.5066169085332305e+01  7.2394857254302025e+01  7.2687897372070580e+01  7.5155350326785509e+01  7.2730815224876764e+01  7.0296465812435130e+01  7.0298982783810089e+01  6.7899765157733896e+01  6.7865953569295939e+01  7.0076799223666242e+01  6.7619088024168747e+01  6.5436743992491287e+01  6.5167957613367093e+01  6.7172250251860689e+01  6.4710100863872569e+01  6.2726742448446643e+01  6.2259211483410979e+01  6.4076992843434283e+01  6.1626346282652761e+01  6.3283725715697479e+01  6.0298033616977023e+01  6.0842449372630405e+01  6.2345739572224041e+01  5.9922433837686633e+01  6.1279375757096254e+01  5.8881598951485017e+01  6.0101146878870274e+01  5.7735478638653142e+01  5.8826910777163064e+01  5.6493022184044676e+01  5.6499334261213626e+01  5.7473292802348269e+01  5.5188370229204878e+01  5.6056081829500684e+01  5.3817410758565572e+01  5.4590415834608130e+01  5.2400469798102819e+01  5.3090861030680294e+01  5.0950995586781687e+01  5.1570659261950354e+01  4.9481339804872171e+01  5.0042453267518113e+01  5.0200760285150189e+01  6.2473712442274973e+01  6.7157740388236931e+01  4.8002851943221152e+01  4.8517391711767281e+01  4.6526148197216799e+01  4.7005484543525540e+01  5.3058812099035947e+01  4.5060271678227657e+01  4.5515489401057572e+01  4.4915939642035177e+01  4.3613192963737546e+01  4.4054815758612158e+01  4.5874347320206049e+01  4.4409723186764758e+01  4.2629443806987474e+01  4.2990227721339508e+01  5.5217652658064907e+01  4.3082399121861712e+01  4.1244355106358888e+01  4.1620023440081319e+01  4.3278778032634889e+01  4.1933343852528473e+01  4.0301383994230740e+01  4.0647189261986568e+01  4.2191176714991215e+01  4.0947988063547896e+01  3.9420265555275982e+01  3.9770366990806245e+01  4.1211902141961836e+01  4.0093648603368983e+01  3.8655861936468426e+01  3.9042382071315551e+01  4.0399784952317333e+01  3.9421319145869113e+01  3.8053983804514907e+01  3.8507006430602274e+01  3.9801204253561473e+01  3.8969831043607030e+01  3.7650996417873642e+01  3.8196260215483427e+01  3.9452915208986411e+01  3.8768217669620974e+01  3.9967164906040637e+01  3.9376965259615183e+01  3.8129996665101601e+01  3.8829213461033191e+01  4.0032696604345453e+01  3.9578916284644826e+01  3.8313421103972068e+01  3.9150900586777418e+01  4.0388168269710548e+01  4.0048936006024576e+01  4.1265497135676711e+01  4.1014829178099184e+01  4.2218920270609480e+01  4.2055246713142544e+01  4.0761743487973625e+01  4.1878827169347581e+01  4.3175909788604798e+01  4.3072006768241621e+01  4.4381394772383253e+01  4.4344413296554727e+01  4.5675041632345483e+01  4.5697844269253643e+01  4.7058637109369819e+01  4.7132637797683778e+01  4.5660029944470104e+01  4.7132518866242712e+01  4.8647571989385099e+01  4.8674975820270348e+01  5.0238443938656019e+01  5.0282129962648554e+01  5.1902329424858287e+01  5.1948389413038903e+01  5.3634159345228781e+01  5.3666061118185773e+01  5.5420669516445166e+01  5.5425584582264385e+01  5.7251458219353644e+01  5.7214394567814566e+01  5.9116051335514285e+01  5.9019782508025465e+01  6.1004611132191691e+01  6.0827861016234849e+01  6.2891230314535491e+01  6.2620399802383169e+01  6.4753580740042239e+01  6.4377464678072656e+01  6.6584751616968489e+01  6.6083006771447714e+01  6.8360836265545302e+01  6.3800389937564894e+01  6.5374596735504113e+01  6.3031455463533419e+01  6.4468260464370474e+01  6.2079409288763145e+01  6.3375600227795978e+01  6.0953180243344590e+01  6.2107420871442450e+01  5.9663531478329837e+01  6.0675636242445186e+01  6.3142083807624083e+01  5.8222082745705528e+01  5.0212099667046253e+01  6.1559645314948504e+01  6.4040730688069004e+01  6.2301091558811038e+01  6.4787433600601517e+01  6.2883955200642539e+01  6.5366554950923359e+01  6.3293692087769955e+01  6.5763329352780190e+01  6.3518594828690787e+01  6.1083911442447658e+01  6.5964380512466064e+01  6.1143545181680686e+01  5.8752924042453969e+01  5.8653907103005920e+01  5.6315671905345205e