<?xml version="1.0"?>
<VTKFile type="UnstructuredGrid"  version="0.1"  >
<UnstructuredGrid>
<Piece  NumberOfPoints="11902" NumberOfCells="23402">
<Points>
<DataArray  type="Float64"  NumberOfComponents="3"  format="ascii">-5 -5 0  5 -5 0  5 5 0  -5 5 0  1.295251079039469 -0.001294458416183096 0  -4.9 -5 0  -4.8 -5 0  -4.7 -5 0  -4.6 -5 0  -4.5 -5 0  -4.4 -5 0  -4.3 -5 0  -4.2 -5 0  -4.1 -5 0  -4 -5 0  -3.9 -5 0  -3.8 -5 0  -3.7 -5 0  -3.6 -5 0  -3.5 -5 0  -3.4 -5 0  -3.3 -5 0  -3.2 -5 0  -3.1 -5 0  -3 -5 0  -2.9 -5 0  -2.8 -5 0  -2.7 -5 0  -2.6 -5 0  -2.5 -5 0  -2.4 -5 0  -2.3 -5 0  -2.2 -5 0  -2.1 -5 0  -2 -5 0  -1.9 -5 0  -1.8 -5 0  -1.7 -5 0  -1.6 -5 0  -1.5 -5 0  -1.4 -5 0  -1.3 -5 0  -1.2 -5 0  -1.1 -5 0  -1 -5 0  -0.9000000000000004 -5 0  -0.7999999999999998 -5 0  -0.7000000000000002 -5 0  -0.5999999999999996 -5 0  -0.5 -5 0  -0.4000000000000004 -5 0  -0.2999999999999998 -5 0  -0.2000000000000002 -5 0  -0.09999999999999964 -5 0  0 -5 0  0.09999999999999964 -5 0  0.2000000000000002 -5 0  0.2999999999999998 -5 0  0.4000000000000004 -5 0  0.5 -5 0  0.5999999999999996 -5 0  0.7000000000000002 -5 0  0.7999999999999998 -5 0  0.9000000000000004 -5 0  1 -5 0  1.1 -5 0  1.2 -5 0  1.3 -5 0  1.4 -5 0  1.5 -5 0  1.6 -5 0  1.7 -5 0  1.8 -5 0  1.9 -5 0  2 -5 0  2.1 -5 0  2.2 -5 0  2.3 -5 0  2.4 -5 0  2.5 -5 0  2.6 -5 0  2.7 -5 0  2.8 -5 0  2.9 -5 0  3 -5 0  3.1 -5 0  3.199999999999999 -5 0  3.300000000000001 -5 0  3.4 -5 0  3.5 -5 0  3.6 -5 0  3.699999999999999 -5 0  3.800000000000001 -5 0  3.9 -5 0  4 -5 0  4.1 -5 0  4.199999999999999 -5 0  4.300000000000001 -5 0  4.4 -5 0  4.5 -5 0  4.6 -5 0  4.699999999999999 -5 0  4.800000000000001 -5 0  4.9 -5 0  5 -4.9 0  5 -4.8 0  5 -4.7 0  5 -4.6 0  5 -4.5 0  5 -4.4 0  5 -4.3 0  5 -4.2 0  5 -4.1 0  5 -4 0  5 -3.9 0  5 -3.8 0  5 -3.7 0  5 -3.6 0  5 -3.5 0  5 -3.4 0  5 -3.3 0  5 -3.2 0  5 -3.1 0  5 -3 0  5 -2.9 0  5 -2.8 0  5 -2.7 0  5 -2.6 0  5 -2.5 0  5 -2.4 0  5 -2.3 0  5 -2.2 0  5 -2.1 0  5 -2 0  5 -1.9 0  5 -1.8 0  5 -1.7 0  5 -1.6 0  5 -1.5 0  5 -1.4 0  5 -1.3 0  5 -1.2 0  5 -1.1 0  5 -1 0  5 -0.9000000000000004 0  5 -0.7999999999999998 0  5 -0.7000000000000002 0  5 -0.5999999999999996 0  5 -0.5 0  5 -0.4000000000000004 0  5 -0.2999999999999998 0  5 -0.2000000000000002 0  5 -0.09999999999999964 0  5 0 0  5 0.09999999999999964 0  5 0.2000000000000002 0  5 0.2999999999999998 0  5 0.4000000000000004 0  5 0.5 0  5 0.5999999999999996 0  5 0.7000000000000002 0  5 0.7999999999999998 0  5 0.9000000000000004 0  5 1 0  5 1.1 0  5 1.2 0  5 1.3 0  5 1.4 0  5 1.5 0  5 1.6 0  5 1.7 0  5 1.8 0  5 1.9 0  5 2 0  5 2.1 0  5 2.2 0  5 2.3 0  5 2.4 0  5 2.5 0  5 2.6 0  5 2.7 0  5 2.8 0  5 2.9 0  5 3 0  5 3.1 0  5 3.199999999999999 0  5 3.300000000000001 0  5 3.4 0  5 3.5 0  5 3.6 0  5 3.699999999999999 0  5 3.800000000000001 0  5 3.9 0  5 4 0  5 4.1 0  5 4.199999999999999 0  5 4.300000000000001 0  5 4.4 0  5 4.5 0  5 4.6 0  5 4.699999999999999 0  5 4.800000000000001 0  5 4.9 0  4.9 5 0  4.8 5 0  4.7 5 0  4.6 5 0  4.5 5 0  4.4 5 0  4.3 5 0  4.2 5 0  4.1 5 0  4 5 0  3.9 5 0  3.8 5 0  3.7 5 0  3.6 5 0  3.5 5 0  3.4 5 0  3.3 5 0  3.2 5 0  3.1 5 0  3 5 0  2.9 5 0  2.8 5 0  2.7 5 0  2.6 5 0  2.5 5 0  2.4 5 0  2.3 5 0  2.2 5 0  2.1 5 0  2 5 0  1.9 5 0  1.8 5 0  1.7 5 0  1.6 5 0  1.5 5 0  1.4 5 0  1.3 5 0  1.2 5 0  1.1 5 0  1 5 0  0.9000000000000004 5 0  0.7999999999999998 5 0  0.7000000000000002 5 0  0.5999999999999996 5 0  0.5 5 0  0.4000000000000004 5 0  0.2999999999999998 5 0  0.2000000000000002 5 0  0.09999999999999964 5 0  0 5 0  -0.09999999999999964 5 0  -0.2000000000000002 5 0  -0.2999999999999998 5 0  -0.4000000000000004 5 0  -0.5 5 0  -0.5999999999999996 5 0  -0.7000000000000002 5 0  -0.7999999999999998 5 0  -0.9000000000000004 5 0  -1 5 0  -1.1 5 0  -1.2 5 0  -1.3 5 0  -1.4 5 0  -1.5 5 0  -1.6 5 0  -1.7 5 0  -1.8 5 0  -1.9 5 0  -2 5 0  -2.1 5 0  -2.2 5 0  -2.3 5 0  -2.4 5 0  -2.5 5 0  -2.6 5 0  -2.7 5 0  -2.8 5 0  -2.9 5 0  -3 5 0  -3.1 5 0  -3.199999999999999 5 0  -3.300000000000001 5 0  -3.4 5 0  -3.5 5 0  -3.6 5 0  -3.699999999999999 5 0  -3.800000000000001 5 0  -3.9 5 0  -4 5 0  -4.1 5 0  -4.199999999999999 5 0  -4.300000000000001 5 0  -4.4 5 0  -4.5 5 0  -4.6 5 0  -4.699999999999999 5 0  -4.800000000000001 5 0  -4.9 5 0  -5 4.9 0  -5 4.8 0  -5 4.7 0  -5 4.6 0  -5 4.5 0  -5 4.4 0  -5 4.3 0  -5 4.2 0  -5 4.1 0  -5 4 0  -5 3.9 0  -5 3.8 0  -5 3.7 0  -5 3.6 0  -5 3.5 0  -5 3.4 0  -5 3.3 0  -5 3.2 0  -5 3.1 0  -5 3 0  -5 2.9 0  -5 2.8 0  -5 2.7 0  -5 2.6 0  -5 2.5 0  -5 2.4 0  -5 2.3 0  -5 2.2 0  -5 2.1 0  -5 2 0  -5 1.9 0  -5 1.8 0  -5 1.7 0  -5 1.6 0  -5 1.5 0  -5 1.4 0  -5 1.3 0  -5 1.2 0  -5 1.1 0  -5 1 0  -5 0.9000000000000004 0  -5 0.7999999999999998 0  -5 0.7000000000000002 0  -5 0.5999999999999996 0  -5 0.5 0  -5 0.4000000000000004 0  -5 0.2999999999999998 0  -5 0.2000000000000002 0  -5 0.09999999999999964 0  -5 0 0  -5 -0.09999999999999964 0  -5 -0.2000000000000002 0  -5 -0.2999999999999998 0  -5 -0.4000000000000004 0  -5 -0.5 0  -5 -0.5999999999999996 0  -5 -0.7000000000000002 0  -5 -0.7999999999999998 0  -5 -0.9000000000000004 0  -5 -1 0  -5 -1.1 0  -5 -1.2 0  -5 -1.3 0  -5 -1.4 0  -5 -1.5 0  -5 -1.6 0  -5 -1.7 0  -5 -1.8 0  -5 -1.9 0  -5 -2 0  -5 -2.1 0  -5 -2.2 0  -5 -2.3 0  -5 -2.4 0  -5 -2.5 0  -5 -2.6 0  -5 -2.7 0  -5 -2.8 0  -5 -2.9 0  -5 -3 0  -5 -3.1 0  -5 -3.199999999999999 0  -5 -3.300000000000001 0  -5 -3.4 0  -5 -3.5 0  -5 -3.6 0  -5 -3.699999999999999 0  -5 -3.800000000000001 0  -5 -3.9 0  -5 -4 0  -5 -4.1 0  -5 -4.199999999999999 0  -5 -4.300000000000001 0  -5 -4.4 0  -5 -4.5 0  -5 -4.6 0  -5 -4.699999999999999 0  -5 -4.800000000000001 0  -5 -4.9 0  1.289507805742006 0.1251992588617216 0  1.268797577800385 0.2454647070814395 0  1.236602430173966 0.3625924835351899 0  1.186559933249281 0.4734588798429337 0  1.12630773223844 0.5798987416224649 0  1.054673784478856 0.6793335399444069 0  0.9695482991160079 0.7774485737771943 0  0.8801172117369701 0.857418907615609 0  0.7835452189998704 0.932601186341839 0  0.6806709335346356 0.9973933817378314 0  0.5651648324781429 1.054343806935947 0  0.4554978575940366 1.098002865758623 0  0.3331623377290592 1.135815750197268 0  0.2125223242871232 1.160805307955407 0  0.09115594865971458 1.17637704599405 0  -0.03402261966417505 1.179887429430187 0  -0.1505187897354887 1.170926858232968 0  -0.2711903748832096 1.151174592260481 0  -0.3943449317970302 1.118927150708193 0  -0.5093241861168387 1.078259370538147 0  -0.62299356788265 1.027904611458084 0  -0.7312298849131582 0.9657691896616062 0  -0.8309206294477467 0.8973184935967605 0  -0.928880923487487 0.8169925403154513 0  -1.012195035147486 0.727127775785912 0  -1.089498531341829 0.6326882352659021 0  -1.156087199151035 0.5293237860354283 0  -1.210620445116169 0.4165781261985242 0  -1.252699606269789 0.302359417443165 0  -1.280629171182605 0.1842691688103483 0  -1.294564414188447 0.06150453809318419 0  -1.293955475949624 -0.05984451511298396 0  -1.282882457850198 -0.1806939236241398 0  -1.251587508586658 -0.304552870063457 0  -1.209197116713935 -0.4176008674997815 0  -1.154494077934234 -0.5303494936708478 0  -1.088351377694289 -0.6301287638364007 0  -1.011869773573302 -0.7281978947168468 0  -0.9250906661165241 -0.8182877063858082 0  -0.8313170707102246 -0.8966038703609862 0  -0.7316926697847915 -0.9667721422521667 0  -0.6233551976500447 -1.029154126384993 0  -0.5098630698396772 -1.079756721662303 0  -0.3941104262335808 -1.118980003058111 0  -0.2741252547669524 -1.149861119441751 0  -0.15443427858288 -1.167407570253612 0  -0.03324516155034685 -1.17641421954847 0  0.09574383095145197 -1.173657085819231 0  0.2128833174046234 -1.160526479982664 0  0.3382401745965931 -1.134817852555404 0  0.4519452255599763 -1.100192659677784 0  0.5697210826857876 -1.052868595240295 0  0.6761433831688117 -1.001450274792177 0  0.7846002705801546 -0.9335713295076929 0  0.8823518091350162 -0.8589879711982605 0  0.9721381644981523 -0.7746695855958319 0  1.053175608389306 -0.6822584153699642 0  1.12356811286058 -0.5841301127291765 0  1.183727878166111 -0.4760414001941323 0  1.233807602249117 -0.3577809422714905 0  1.267570898830796 -0.2453189841134806 0  1.28875919612678 -0.1208642717005901 0  -2.449963823719656 4.920444743796089 0  -2.449958071033956 -4.913021945679244 0  4.912803821386781 2.449749589622072 0  4.920709501652311 -2.451037670478779 0  2.447948664896052 -4.898701571078138 0  2.442334347886562 4.902350613780531 0  -4.912812659241043 -2.449757344837725 0  -4.912819618500064 2.449760947174971 0  -1.749997770745937 4.914342693714989 0  -1.745720172689712 -4.917642277208447 0  4.923456888062624 1.745674984159417 0  4.912390642033068 -1.749684111742159 0  -4.912652295893883 -1.749389727538773 0  -4.913456238330784 1.749114218487584 0  1.747390200347465 4.908440547168292 0  1.748981007160553 -4.897022310861689 0  -1.150021086816616 4.91284475629253 0  -1.130769057307947 -4.920366523826733 0  -4.913015114937513 -1.149337856671149 0  -4.91284956381319 1.149134877694262 0  1.144934744862773 -4.916752797108825 0  1.150023328576957 4.912823121422896 0  4.913184109634019 1.147622527239335 0  4.923547830939852 -1.153230582084826 0  -0.5472894662040593 -4.914361684117951 0  -0.547006469905772 4.922657012861997 0  -4.912232018981153 -0.5494668799267232 0  -4.912260328277799 0.5480131422098534 0  4.911616873366502 -0.5497990449668785 0  4.922729408895964 0.5464457131967621 0  0.5431464041553682 -4.901878681099197 0  0.5517483583256044 4.919635413313652 0  -4.913545833380621 -3.049834022082641 0  4.920006258301792 3.04774726610418 0  4.913071178021 -3.049833751370427 0  -4.914387742312917 3.046912947985728 0  3.056509925825582 -4.919090869063306 0  -3.049938655921388 -4.913155581216156 0  3.053476684783296 4.915197410350054 0  -3.049372710509691 4.91402492280432 0  -4.911516961063962 -0.04998376765344528 0  0.04516021822751227 -4.916351003903887 0  0.0496111605090073 4.923047987131461 0  4.918267131857022 -0.05136044150693471 0  3.546568455686799 -4.920251673830351 0  -3.549935300939995 4.913246483707093 0  -3.5499
[...]
<PointData  Scalars="f_26"> 
<DataArray  type="Float64"  Name="f_26"  format="ascii">0.0000000000000000e+00  0.0000000000000000e+00  0.0000000000000000e+00  0.0000000000000000e+00  1.7749754924265210e+02  0.0000000000000000e+00  0.0000000000000000e+00  0.0000000000000000e+00  0.0000000000000000e+00  0.0000000000000000e+00  0.0000000000000000e+00  0.0000000000000000e+00  0.0000000000000000e+00  0.0000000000000000e+00  0.0000000000000000e+00  0.0000000000000000e+00  0.0000000000000000e+00  0.0000000000000000e+00  0.0000000000000000e+00  0.0000000000000000e+00  0.0000000000000000e+00  0.0000000000000000e+00  0.0000000000000000e+00  0.0000000000000000e+00  0.0000000000000000e+00  0.0000000000000000e+00  0.0000000000000000e+00  0.0000000000000000e+00  0.0000000000000000e+00  0.0000000000000000e+00  0.0000000000000000e+00  0.0000000000000000e+00  0.0000000000000000e+00  0.0000000000000000e+00  0.0000000000000000e+00  0.0000000000000000e+00  0.0000000000000000e+00  0.0000000000000000e+00  0.0000000000000000e+00  0.0000000000000000e+00  0.0000000000000000e+00  0.0000000000000000e+00  0.0000000000000000e+00  0.0000000000000000e+00  0.0000000000000000e+00  0.0000000000000000e+00  0.0000000000000000e+00  0.0000000000000000e+00  0.0000000000000000e+00  0.0000000000000000e+00  0.0000000000000000e+00  0.0000000000000000e+00  0.0000000000000000e+00  0.0000000000000000e+00  0.0000000000000000e+00  0.0000000000000000e+00  0.0000000000000000e+00  0.0000000000000000e+00  0.0000000000000000e+00  0.0000000000000000e+00  0.0000000000000000e+00  0.0000000000000000e+00  0.0000000000000000e+00  0.0000000000000000e+00  0.0000000000000000e+00  0.0000000000000000e+00  0.0000000000000000e+00  0.0000000000000000e+00  0.0000000000000000e+00  0.0000000000000000e+00  0.0000000000000000e+00  0.0000000000000000e+00  0.0000000000000000e+00  0.0000000000000000e+00  0.0000000000000000e+00  0.0000000000000000e+00  0.0000000000000000e+00  0.0000000000000000e+00  0.0000000000000000e+00  0.0000000000000000e+00  0.0000000000000000e+00  0.0000000000000000e+00  0.0000000000000000e+00  0.0000000000000000e+00  0.0000000000000000e+00  0.0000000000000000e+00  0.0000000000000000e+00  0.0000000000000000e+00  0.0000000000000000e+00  0.0000000000000000e+00  0.0000000000000000e+00  0.0000000000000000e+00  0.0000000000000000e+00  0.0000000000000000e+00  0.0000000000000000e+00  0.0000000000000000e+00  0.0000000000000000e+00  0.0000000000000000e+00  0.0000000000000000e+00  0.0000000000000000e+00  0.0000000000000000e+00  0.0000000000000000e+00  0.0000000000000000e+00  0.0000000000000000e+00  0.0000000000000000e+00  0.0000000000000000e+00  0.0000000000000000e+00  0.0000000000000000e+00  0.0000000000000000e+00  0.0000000000000000e+00  0.0000000000000000e+00  0.0000000000000000e+00  0.0000000000000000e+00  0.0000000000000000e+00  0.0000000000000000e+00  0.0000000000000000e+00  0.0000000000000000e+00  0.0000000000000000e+00  0.0000000000000000e+00  0.0000000000000000e+00  0.0000000000000000e+00  0.0000000000000000e+00  0.0000000000000000e+00  0.0000000000000000e+00  0.0000000000000000e+00  0.0000000000000000e+00  0.0000000000000000e+00  0.0000000000000000e+00  0.0000000000000000e+00  0.0000000000000000e+00  0.0000000000000000e+00  0.0000000000000000e+00  0.0000000000000000e+00  0.0000000000000000e+00  0.0000000000000000e+00  0.0000000000000000e+00  0.0000000000000000e+00  0.0000000000000000e+00  0.0000000000000000e+00  0.0000000000000000e+00  0.0000000000000000e+00  0.0000000000000000e+00  0.0000000000000000e+00  0.0000000000000000e+00  0.0000000000000000e+00  0.0000000000000000e+00  0.0000000000000000e+00  0.0000000000000000e+00  0.0000000000000000e+00  0.0000000000000000e+00  0.0000000000000000e+00  0.0000000000000000e+00  0.0000000000000000e+00  0.0000000000000000e+00  0.0000000000000000e+00  0.0000000000000000e+00  0.0000000000000000e+00  0.0000000000000000e+00  0.0000000000000000e+00  0.0000000000000000e+00  0.0000000000000000e+00  0.0000000000000000e+00  0.0000000000000000e+00  0.0000000000000000e+00  0.0000000000000000e+00  0.0000000000000000e+00  0.0000000000000000e+00  0.0000000000000000e+00  0.0000000000000000e+00  0.0000000000000000e+00  0.0000000000000000e+00  0.0000000000000000e+00  0.0000000000000000e+00  0.0000000000000000e+00  0.0000000000000000e+00  0.0000000000000000e+00  0.0000000000000000e+00  0.0000000000000000e+00  0.0000000000000000e+00  0.0000000000000000e+00  0.0000000000000000e+00  0.0000000000000000e+00  0.0000000000000000e+00  0.0000000000000000e+00  0.0000000000000000e+00  0.0000000000000000e+00  0.0000000000000000e+00  0.0000000000000000e+00  0.0000000000000000e+00  0.0000000000000000e+00  0.0000000000000000e+00  0.0000000000000000e+00  0.0000000000000000e+00  0.0000000000000000e+00  0.0000000000000000e+00  0.0000000000000000e+00  0.0000000000000000e+00  0.0000000000000000e+00  0.0000000000000000e+00  0.0000000000000000e+00  0.0000000000000000e+00  0.0000000000000000e+00  0.0000000000000000e+00  0.0000000000000000e+00  0.0000000000000000e+00  0.0000000000000000e+00  0.0000000000000000e+00  0.0000000000000000e+00  0.0000000000000000e+00  0.0000000000000000e+00  0.0000000000000000e+00  0.0000000000000000e+00  0.0000000000000000e+00  0.0000000000000000e+00  0.0000000000000000e+00  0.0000000000000000e+00  0.0000000000000000e+00  0.0000000000000000e+00  0.0000000000000000e+00  0.0000000000000000e+00  0.0000000000000000e+00  0.0000000000000000e+00  0.0000000000000000e+00  0.0000000000000000e+00  0.0000000000000000e+00  0.0000000000000000e+00  0.0000000000000000e+00  0.0000000000000000e+00  0.0000000000000000e+00  0.0000000000000000e+00  0.0000000000000000e+00  0.0000000000000000e+00  0.0000000000000000e+00  0.0000000000000000e+00  0.0000000000000000e+00  0.0000000000000000e+00  0.0000000000000000e+00  0.0000000000000000e+00  0.0000000000000000e+00  0.0000000000000000e+00  0.0000000000000000e+00  0.0000000000000000e+00  0.0000000000000000e+00  0.0000000000000000e+00  0.0000000000000000e+00  0.0000000000000000e+00  0.0000000000000000e+00  0.0000000000000000e+00  0.0000000000000000e+00  0.0000000000000000e+00  0.0000000000000000e+00  0.0000000000000000e+00  0.0000000000000000e+00  0.0000000000000000e+00  0.0000000000000000e+00  0.0000000000000000e+00  0.0000000000000000e+00  0.0000000000000000e+00  0.0000000000000000e+00  0.0000000000000000e+00  0.0000000000000000e+00  0.0000000000000000e+00  0.0000000000000000e+00  0.0000000000000000e+00  0.0000000000000000e+00  0.0000000000000000e+00  0.0000000000000000e+00  0.0000000000000000e+00  0.0000000000000000e+00  0.0000000000000000e+00  0.0000000000000000e+00  0.0000000000000000e+00  0.0000000000000000e+00  0.0000000000000000e+00  0.0000000000000000e+00  0.0000000000000000e+00  0.0000000000000000e+00  0.0000000000000000e+00  0.0000000000000000e+00  0.0000000000000000e+00  0.0000000000000000e+00  0.0000000000000000e+00  0.0000000000000000e+00  0.0000000000000000e+00  0.0000000000000000e+00  0.0000000000000000e+00  0.0000000000000000e+00  0.0000000000000000e+00  0.0000000000000000e+00  0.0000000000000000e+00  0.0000000000000000e+00  0.0000000000000000e+00  0.0000000000000000e+00  0.0000000000000000e+00  0.0000000000000000e+00  0.0000000000000000e+00  0.0000000000000000e+00  0.0000000000000000e+00  0.0000000000000000e+00  0.0000000000000000e+00  0.0000000000000000e+00  0.0000000000000000e+00  0.0000000000000000e+00  0.0000000000000000e+00  0.0000000000000000e+00  0.0000000000000000e+00  0.0000000000000000e+00  0.0000000000000000e+00  0.0000000000000000e+00  0.0000000000000000e+00  0.0000000000000000e+00  0.0000000000000000e+00  0.0000000000000000e+00  0.0000000000000000e+00  0.0000000000000000e+00  0.0000000000000000e+00  0.0000000000000000e+00  0.0000000000000000e+00  0.0000000000000000e+00  0.0000000000000000e+00  0.0000000000000000e+00  0.0000000000000000e+00  0.0000000000000000e+00  0.0000000000000000e+00  0.0000000000000000e+00  0.0000000000000000e+00  0.0000000000000000e+00  0.0000000000000000e+00  0.0000000000000000e+00  0.0000000000000000e+00  0.0000000000000000e+00  0.0000000000000000e+00  0.0000000000000000e+00  0.0000000000000000e+00  0.0000000000000000e+00  0.0000000000000000e+00  0.0000000000000000e+00  0.0000000000000000e+00  0.0000000000000000e+00  0.0000000000000000e+00  0.0000000000000000e+00  0.0000000000000000e+00  0.0000000000000000e+00  0.0000000000000000e+00  0.0000000000000000e+00  0.0000000000000000e+00  0.0000000000000000e+00  0.0000000000000000e+00  0.0000000000000000e+00  0.0000000000000000e+00  0.0000000000000000e+00  0.0000000000000000e+00  0.0000000000000000e+00  0.0000000000000000e+00  0.0000000000000000e+00  0.0000000000000000e+00  0.0000000000000000e+00  0.0000000000000000e+00  0.0000000000000000e+00  0.0000000000000000e+00  0.0000000000000000e+00  0.0000000000000000e+00  0.0000000000000000e+00  0.0000000000000000e+00  0.0000000000000000e+00  0.0000000000000000e+00  0.0000000000000000e+00  0.0000000000000000e+00  0.0000000000000000e+00  0.0000000000000000e+00  0.0000000000000000e+00  0.0000000000000000e+00  0.0000000000000000e+00  0.0000000000000000e+00  0.0000000000000000e+00  0.0000000000000000e+00  0.0000000000000000e+00  0.0000000000000000e+00  0.0000000000000000e+00  0.0000000000000000e+00  0.0000000000000000e+00  0.0000000000000000e+00  0.0000000000000000e+00  0.0000000000000000e+00  0.0000000000000000e+00  0.0000000000000000e+00  0.0000000000000000e+00  0.0000000000000000e+00  0.0000000000000000e+00  0.0000000000000000e+00  0.0000000000000000e+00  0.0000000000000000e+00  0.0000000000000000e+00  0.0000000000000000e+00  0.0000000000000000e+00  0.0000000000000000e+00  0.0000000000000000e+00  0.0000000000000000e+00  0.0000000000000000e+00  0.0000000000000000e+00  0.0000000000000000e+00  1.7710703720102066e+02  1.7599458451852664e+02  1.7422872581643546e+02  1.7199736339857523e+02  1.6935802703196774e+02  1.6644959848185502e+02  1.6313080510997958e+02  1.5999248216240576e+02  1.5688001763706822e+02  1.5400586159193580e+02  1.5127322732223237e+02  1.4910498203811449e+02  1.4721825638866397e+02  1.4591889007309462e+02  1.4514625683791434e+02  1.4492310097897968e+02  1.4531292288986199e+02  1.4632615710268990e+02  1.4789521024648704e+02  1.4984906051496361e+02  1.5224363916193695e+02  1.5498479942963928e+02  1.5785495578556080e+02  1.6103329499872737e+02  1.6413642618264839e+02  1.6711886284192352e+02  1.6994881982371137e+02  1.7240876802289569e+02  1.7429523765297017e+02  1.7564667413167334e+02  1.7637403980454388e+02  1.7639156379794557e+02  1.7575707678420497e+02  1.7449541078527395e+02  1.7244940128654210e+02  1.6990958944872457e+02  1.6715849446945359e+02  1.6412388752456968e+02  1.6090611063908759e+02  1.5776583401335998e+02  1.5480534783891972e+02  1.5215564120997047e+02  1.4966178815742441e+02  1.4768371231877404e+02  1.4615309816451267e+02  1.4519138919490874e+02  1.4479036899912452e+02  1.4498942806863570e+02  1.4572371864516680e+02  1.4709992340768281e+02  1.4885865418149746e+02  1.5116040551812625e+02  1.5367364856475842e+02  1.5674708101939348e+02  1.5989947819898160e+02  1.6314630033996116e+02  1.6633402979876269e+02  1.6934192447579827e+02  1.7209050614045745e+02  1.7444335165643736e+02  1.7608078244682395e+02  1.7716982505792453e+02  3.4935001888685613e+00  3.8192467255870852e+00  4.8809296661715562e+00  4.4366705277971166e+00  4.4824154894081243e+00  4.3237233570708362e+00  4.8361992543445886e+00  4.8325248501788431e+00  4.2202564781702954e+00  4.0624087101093291e+00  5.4079436959148683e+00  6.1820167279325329e+00  6.1079412259894461e+00  6.0495581563010390e+00  4.5388440656056144e+00  5.1040903229552246e+00  4.5089570385533841e+00  4.1247459780203357e+00  6.9917610948698714e+00  7.0026277505192782e+00  4.3255957499294642e+00  4.5280702182704893e+00  7.0455390357449401e+00  6.1983337781271146e+00  4.5282005770388611e+00  4.0880560016466214e+00  7.6741318507335414e+00  7.6713246302592966e+00  7.8001347280828899e+00  6.8222770432301632e+00  5.1981426901970194e+00  4.2562541361248929e+00  3.6628872886816413e+00  3.4232435037577709e+00  3.7156415415326198e+00  3.6298289288975911e+00  2.9874446071065894e+00  3.1956938959675680e+00  3.1380073719532064e+00  3.1579032910131430e+00  7.9341994539204066e+00  4.4489468153084850e+00  4.0916047558796143e+00  7.3986643977594344e+00  2.3349013562029466e+00  2.5134455860185758e+00  2.5133351755923576e+00  2.5287235192655562e+00  2.7239053134056106e+00  2.6766736025617353e+00  2.6773250808455380e+00  2.4777749384261631e+00  1.9299927223711224e+00  2.1029345999737235e+00  1.9003262230735172e+00  1.9644752944999098e+00  1.7485879739105266e+00  1.9809732019897475e+00  1.8637788187158375e+00  1.9379745634459120e+00  1.4095244957465309e+00  1.0988473680119955e+00  1.0096091532461049e+00  1.2229700167966775e+00  1.2031019646661270e+00  1.1957956183973228e+00  1.1813411624675663e+00  1.2501002870672051e+00  7.8913916419908068e+00  4.6324296333061996e+00  4.3150029947473598e+00  6.9640938276040325e+00  4.7332094692253142e+00  6.5713690852512423e+00  7.4149837200742139e+00  7.4468433822371098e+00  6.6360900981399311e+00  3.9073155286854639e+00  5.2886359890965657e+00  4.4973919737850885e+00  4.4406438284301979e+00  6.3885078851099015e+00  7.5184952460026775e+00  6.6819140249385764e+00  6.6887810793095843e+00  4.4179438346206510e+00  5.0558212729198804e+00  4.4211701593247037e+00  4.8200767852042778e+00  4.3349400227999366e+00  5.5866236663988413e+00  5.4982055879847973e+00  3.4721103791028618e+00  4.1159310060896637e+00  5.1873249186795345e+00  5.6385802458419914e+00  4.2986299113593001e+00  3.7244093714473756e+00  3.6627963313127205e+00  4.2146378802605762e+00  4.0024938712117120e+00  4.2614512633158705e+00  4.1108343133248395e+00  3.1223940983403060e+00  6.4807826264520685e-01  6.4483862475543685e-01  6.2760825487777450e-01  6.9047415822775537e-01  6.5662524894461172e-01  6.7491752998868848e-01  6.4210499509677132e-01  5.3764284090491044e-01  7.8919546655386874e+00  5.0066005985685100e+00  5.4888167729742969e+00  7.0662300767686563e+00  3.9812161854555765e+00  5.2619338699371934e+00  5.2632440442197792e+00  4.4713148673668437e+00  5.2146852196758990e+00  4.0085882463548570e+00  4.3021665490972909e+00  5.1527659390202629e+00  3.2791552222240790e+00  3.3778839800236962e+00  3.3375517758589033e+00  3.2982688635636332e+00  3.1397559632799159e+00  3.0757237867278802e+00  2.9053521530865569e+00  3.2585374138416299e+00  2.3283858963256572e+00  1.5752417420942419e+00  2.2320211143187332e+00  1.6675295940153725e+00  2.0533594207064585e+00  1.5747329549557447e+00  2.3432462375188186e+00  1.5876446318020416e+00  2.2073940730650530e+00  1.8539616266454531e+00  2.3629294651384329e+00  1.6016966636242007e+00  2.3411846778457965e+00  1.5670244885172206e+00  2.3250941646487702e+00  1.6076144569261668e+00  3.0735398523146351e-01  2.8074846282723154e-01  2.8111036894006641e-01  3.0186622866161245e-01  7.9199680648217292e+00  1.5808220357100002e+01  1.5738008405457952e+01  2.3644785936169583e+01  2.3518548031424618e+01  3.1410813485967491e+01  3.1225951947111934e+01  3.9089347125333823e+01  3.8821338126507790e+01  4.6658126640138192e+01  4.6292746821472655e+01  5.4098530036967325e+01  5.3623302806445473e+01  6.1391881248842004e+01  6.0793586643763000e+01  6.8518565879757361e+01  6.7778138394331137e+01  7.5457613072093935e+01  7.4577496910668415e+01  8.2178561001469674e+01  8.1152283642747705e+01  8.3108256464576172e+01  8.8696089361758808e+01  8.7487835884978551e+01  9.4971517850552246e+01  9.3580095550964941e+01  1.0096032102869567e+02  9.9391297332367728e+01  1.0667032018940563e+02  1.0491121525749183e+02  1.1206984466053119e+02  1.1012155957925688e+02  1.1389091534916246e+02  1.1713969619558701e+02  1.1500643188266694e+02  1.2189289880241797e+02  1.1955631306651935e+02  1.2630625635810456e+02  1.2375298371230849e+02  1.3034164422019910e+02  1.2759681359433712e+02  1.3400171177290284e+02  1.3106721486277303e+02  1.3681349441512882e+02  1.3727991626677280e+02  1.3416409735070530e+02  1.4017283776380810e+02  1.3687719601280435e+02  1.3089894993336287e+02  1.3346044207598950e+02  1.3921856583702723e+02  1.3567015313600947e+02  1.2998184002646889e+02  1.3204475329557920e+02  1.2644889442674787e+02  1.2835804644332711e+02  1.3374627087503640e+02  1.2992717504287722e+02  1.2461340781161458e+02  1.2605857777214960e+02  1.2082381959484076e+02  1.2214962470736502e+02  1.2718807247723359e+02  1.2317076300658850e+02  1.1820807240284464e+02  1.1912443385452193e+02  1.2389788600248762e+02  1.1975762798601296e+02  1.1505490545796299e+02  1.1559634242165716e+02  1.2011937586465454e+02  1.1587656481638375e+02  1.2022291126679539e+02  1.1096718611447767e+02  1.1590819094001878e+02  1.2008190315780335e+02  1.1570468680749330e+02  1.1971130774466290e+02  1.1528014396174574e+02  1.1912645857215762e+02  1.1464921224146016e+02  1.1834202537559315e+02  1.1083335215520830e+02  1.1382622466571952e+02  1.1737404746766276e+02  1.1282595579262788e+02  1.1623789488936573e+02  1.1166315203030477e+02  1.1494854382527565e+02  1.1035177398432697e+02  1.1352082500390028e+02  1.0890580792645670e+02  1.1196836083188261e+02  1.0733818273976655e+02  1.1030471998989717e+02  1.0572762620866456e+02  1.2358529833421940e+02  1.7748643862386609e+02  1.0566104685098665e+02  1.0854222654290774e+02  1.0388689142353137e+02  1.0669235713347314e+02  1.6433548925823243e+02  1.0202613786276096e+02  1.0476573524725600e+02  1.5475087157017839e+02  1.0008873708084732e+02  1.0277192101136653e+02  1.0740860707561374e+02  1.0536506241899157e+02  1.0071926492627783e+02  1.0327170976750716e+02  1.1810558688712138e+02  9.7317742782333383e+01  9.8615752162929809e+01  1.0113598627446801e+02  1.0574085996876620e+02  1.0357951353051169e+02  9.8962682958679864e+01  1.0138832008411501e+02  1.0594841563006915e+02  1.0374690179043220e+02  9.9170595765792442e+01  1.0152548767764672e+02  1.0604145278853309e+02  1.0382371789602618e+02  9.9285541374635756e+01  1.0159130110736693e+02  1.0607500438616529e+02  1.0385494950760270e+02  9.9345571862374200e+01  1.0162283356408818e+02  1.0607223132390679e+02  1.0386381711799848e+02  9.9379757415048317e+01  1.0164512330149263e+02  1.0607348329929776e+02  1.0388392193193090e+02  1.0825751742949957e+02  1.0610080204289447e+02  1.0167659396939416e+02  1.0392359444796213e+02  1.0830041026027835e+02  1.0615561497819004e+02  1.0172084942478241e+02  1.0398073144388258e+02  1.0837659837497775e+02  1.0622944174016556e+02  1.1058971509905258e+02  1.0846924884432720e+02  1.1279804640196882e+02  1.1070215710345171e+02  1.0630024305294563e+02  1.0854958757812975e+02  1.1292928455123852e+02  1.1078870761356224e+02  1.1515074811181729e+02  1.1301654252172935e+02  1.1736570902671802e+02  1.1523086889155024e+02  1.1957195934791899e+02  1.1742830323781642e+02  1.1300535321570170e+02  1.1518337108779649e+02  1.1960430220694012e+02  1.1733176881829638e+02  1.2175030797186824e+02  1.1943981221438749e+02  1.2386249007180051e+02  1.2150026563405503e+02  1.2593752868007323e+02  1.2350325652832504e+02  1.2795051196025551e+02  1.2543896932727301e+02  1.2988921934457710e+02  1.2729027185066721e+02  1.3174914164459003e+02  1.2904520819970989e+02  1.3353060012875594e+02  1.3069135139507296e+02  1.3518268941405000e+02  1.3220678844638721e+02  1.3667689733874244e+02  1.3356861112936431e+02  1.3803483745708871e+02  1.3476742751894736e+02  1.3922606173187319e+02  1.3027178068993697e+02  1.3130818937324159e+02  1.2680075690533496e+02  1.2767032607298863e+02  1.2316805675469118e+02  1.2387056923267708e+02  1.1938643486277383e+02  1.1992260184685260e+02  1.1546957997742622e+02  1.1584146086045307e+02  1.2023736684955661e+02  1.1143209355802560e+02  1.1699939944534862e+02  1.1598547564366191e+02  1.2031547635182038e+02  1.1588920121887168e+02  1.2014260406014165e+02  1.1553674294280431e+02  1.1970462609498915e+02  1.1491491785932051e+02  1.1898857751180557e+02  1.1401537063910396e+02  1.1002740265145908e+02  1.1798344386311790e+02  1.0895228284882199e+02  1.0505998027961279e+02  1.0381679883264628e+02  1.0002932920373640e