<?xml version="1.0"?>
<VTKFile type="UnstructuredGrid"  version="0.1"  >
<UnstructuredGrid>
<Piece  NumberOfPoints="11902" NumberOfCells="23402">
<Points>
<DataArray  type="Float64"  NumberOfComponents="3"  format="ascii">-5 -5 0  5 -5 0  5 5 0  -5 5 0  1.924968963197645 0.01248306140279396 0  -4.9 -5 0  -4.8 -5 0  -4.7 -5 0  -4.6 -5 0  -4.5 -5 0  -4.4 -5 0  -4.3 -5 0  -4.2 -5 0  -4.1 -5 0  -4 -5 0  -3.9 -5 0  -3.8 -5 0  -3.7 -5 0  -3.6 -5 0  -3.5 -5 0  -3.4 -5 0  -3.3 -5 0  -3.2 -5 0  -3.1 -5 0  -3 -5 0  -2.9 -5 0  -2.8 -5 0  -2.7 -5 0  -2.6 -5 0  -2.5 -5 0  -2.4 -5 0  -2.3 -5 0  -2.2 -5 0  -2.1 -5 0  -2 -5 0  -1.9 -5 0  -1.8 -5 0  -1.7 -5 0  -1.6 -5 0  -1.5 -5 0  -1.4 -5 0  -1.3 -5 0  -1.2 -5 0  -1.1 -5 0  -1 -5 0  -0.9000000000000004 -5 0  -0.7999999999999998 -5 0  -0.7000000000000002 -5 0  -0.5999999999999996 -5 0  -0.5 -5 0  -0.4000000000000004 -5 0  -0.2999999999999998 -5 0  -0.2000000000000002 -5 0  -0.09999999999999964 -5 0  0 -5 0  0.09999999999999964 -5 0  0.2000000000000002 -5 0  0.2999999999999998 -5 0  0.4000000000000004 -5 0  0.5 -5 0  0.5999999999999996 -5 0  0.7000000000000002 -5 0  0.7999999999999998 -5 0  0.9000000000000004 -5 0  1 -5 0  1.1 -5 0  1.2 -5 0  1.3 -5 0  1.4 -5 0  1.5 -5 0  1.6 -5 0  1.7 -5 0  1.8 -5 0  1.9 -5 0  2 -5 0  2.1 -5 0  2.2 -5 0  2.3 -5 0  2.4 -5 0  2.5 -5 0  2.6 -5 0  2.7 -5 0  2.8 -5 0  2.9 -5 0  3 -5 0  3.1 -5 0  3.199999999999999 -5 0  3.300000000000001 -5 0  3.4 -5 0  3.5 -5 0  3.6 -5 0  3.699999999999999 -5 0  3.800000000000001 -5 0  3.9 -5 0  4 -5 0  4.1 -5 0  4.199999999999999 -5 0  4.300000000000001 -5 0  4.4 -5 0  4.5 -5 0  4.6 -5 0  4.699999999999999 -5 0  4.800000000000001 -5 0  4.9 -5 0  5 -4.9 0  5 -4.8 0  5 -4.7 0  5 -4.6 0  5 -4.5 0  5 -4.4 0  5 -4.3 0  5 -4.2 0  5 -4.1 0  5 -4 0  5 -3.9 0  5 -3.8 0  5 -3.7 0  5 -3.6 0  5 -3.5 0  5 -3.4 0  5 -3.3 0  5 -3.2 0  5 -3.1 0  5 -3 0  5 -2.9 0  5 -2.8 0  5 -2.7 0  5 -2.6 0  5 -2.5 0  5 -2.4 0  5 -2.3 0  5 -2.2 0  5 -2.1 0  5 -2 0  5 -1.9 0  5 -1.8 0  5 -1.7 0  5 -1.6 0  5 -1.5 0  5 -1.4 0  5 -1.3 0  5 -1.2 0  5 -1.1 0  5 -1 0  5 -0.9000000000000004 0  5 -0.7999999999999998 0  5 -0.7000000000000002 0  5 -0.5999999999999996 0  5 -0.5 0  5 -0.4000000000000004 0  5 -0.2999999999999998 0  5 -0.2000000000000002 0  5 -0.09999999999999964 0  5 0 0  5 0.09999999999999964 0  5 0.2000000000000002 0  5 0.2999999999999998 0  5 0.4000000000000004 0  5 0.5 0  5 0.5999999999999996 0  5 0.7000000000000002 0  5 0.7999999999999998 0  5 0.9000000000000004 0  5 1 0  5 1.1 0  5 1.2 0  5 1.3 0  5 1.4 0  5 1.5 0  5 1.6 0  5 1.7 0  5 1.8 0  5 1.9 0  5 2 0  5 2.1 0  5 2.2 0  5 2.3 0  5 2.4 0  5 2.5 0  5 2.6 0  5 2.7 0  5 2.8 0  5 2.9 0  5 3 0  5 3.1 0  5 3.199999999999999 0  5 3.300000000000001 0  5 3.4 0  5 3.5 0  5 3.6 0  5 3.699999999999999 0  5 3.800000000000001 0  5 3.9 0  5 4 0  5 4.1 0  5 4.199999999999999 0  5 4.300000000000001 0  5 4.4 0  5 4.5 0  5 4.6 0  5 4.699999999999999 0  5 4.800000000000001 0  5 4.9 0  4.9 5 0  4.8 5 0  4.7 5 0  4.6 5 0  4.5 5 0  4.4 5 0  4.3 5 0  4.2 5 0  4.1 5 0  4 5 0  3.9 5 0  3.8 5 0  3.7 5 0  3.6 5 0  3.5 5 0  3.4 5 0  3.3 5 0  3.2 5 0  3.1 5 0  3 5 0  2.9 5 0  2.8 5 0  2.7 5 0  2.6 5 0  2.5 5 0  2.4 5 0  2.3 5 0  2.2 5 0  2.1 5 0  2 5 0  1.9 5 0  1.8 5 0  1.7 5 0  1.6 5 0  1.5 5 0  1.4 5 0  1.3 5 0  1.2 5 0  1.1 5 0  1 5 0  0.9000000000000004 5 0  0.7999999999999998 5 0  0.7000000000000002 5 0  0.5999999999999996 5 0  0.5 5 0  0.4000000000000004 5 0  0.2999999999999998 5 0  0.2000000000000002 5 0  0.09999999999999964 5 0  0 5 0  -0.09999999999999964 5 0  -0.2000000000000002 5 0  -0.2999999999999998 5 0  -0.4000000000000004 5 0  -0.5 5 0  -0.5999999999999996 5 0  -0.7000000000000002 5 0  -0.7999999999999998 5 0  -0.9000000000000004 5 0  -1 5 0  -1.1 5 0  -1.2 5 0  -1.3 5 0  -1.4 5 0  -1.5 5 0  -1.6 5 0  -1.7 5 0  -1.8 5 0  -1.9 5 0  -2 5 0  -2.1 5 0  -2.2 5 0  -2.3 5 0  -2.4 5 0  -2.5 5 0  -2.6 5 0  -2.7 5 0  -2.8 5 0  -2.9 5 0  -3 5 0  -3.1 5 0  -3.199999999999999 5 0  -3.300000000000001 5 0  -3.4 5 0  -3.5 5 0  -3.6 5 0  -3.699999999999999 5 0  -3.800000000000001 5 0  -3.9 5 0  -4 5 0  -4.1 5 0  -4.199999999999999 5 0  -4.300000000000001 5 0  -4.4 5 0  -4.5 5 0  -4.6 5 0  -4.699999999999999 5 0  -4.800000000000001 5 0  -4.9 5 0  -5 4.9 0  -5 4.8 0  -5 4.7 0  -5 4.6 0  -5 4.5 0  -5 4.4 0  -5 4.3 0  -5 4.2 0  -5 4.1 0  -5 4 0  -5 3.9 0  -5 3.8 0  -5 3.7 0  -5 3.6 0  -5 3.5 0  -5 3.4 0  -5 3.3 0  -5 3.2 0  -5 3.1 0  -5 3 0  -5 2.9 0  -5 2.8 0  -5 2.7 0  -5 2.6 0  -5 2.5 0  -5 2.4 0  -5 2.3 0  -5 2.2 0  -5 2.1 0  -5 2 0  -5 1.9 0  -5 1.8 0  -5 1.7 0  -5 1.6 0  -5 1.5 0  -5 1.4 0  -5 1.3 0  -5 1.2 0  -5 1.1 0  -5 1 0  -5 0.9000000000000004 0  -5 0.7999999999999998 0  -5 0.7000000000000002 0  -5 0.5999999999999996 0  -5 0.5 0  -5 0.4000000000000004 0  -5 0.2999999999999998 0  -5 0.2000000000000002 0  -5 0.09999999999999964 0  -5 0 0  -5 -0.09999999999999964 0  -5 -0.2000000000000002 0  -5 -0.2999999999999998 0  -5 -0.4000000000000004 0  -5 -0.5 0  -5 -0.5999999999999996 0  -5 -0.7000000000000002 0  -5 -0.7999999999999998 0  -5 -0.9000000000000004 0  -5 -1 0  -5 -1.1 0  -5 -1.2 0  -5 -1.3 0  -5 -1.4 0  -5 -1.5 0  -5 -1.6 0  -5 -1.7 0  -5 -1.8 0  -5 -1.9 0  -5 -2 0  -5 -2.1 0  -5 -2.2 0  -5 -2.3 0  -5 -2.4 0  -5 -2.5 0  -5 -2.6 0  -5 -2.7 0  -5 -2.8 0  -5 -2.9 0  -5 -3 0  -5 -3.1 0  -5 -3.199999999999999 0  -5 -3.300000000000001 0  -5 -3.4 0  -5 -3.5 0  -5 -3.6 0  -5 -3.699999999999999 0  -5 -3.800000000000001 0  -5 -3.9 0  -5 -4 0  -5 -4.1 0  -5 -4.199999999999999 0  -5 -4.300000000000001 0  -5 -4.4 0  -5 -4.5 0  -5 -4.6 0  -5 -4.699999999999999 0  -5 -4.800000000000001 0  -5 -4.9 0  2.39591113377673 0.2641780616455002 0  1.957840312803389 0.3653642773195923 0  2.343911970451229 0.7179737004690944 0  1.77904968879138 0.6761507407805449 0  1.844913136714458 0.935990853594079 0  1.543553413264058 1.021034586997162 0  1.323805049154718 1.285245192354616 0  1.175086382330499 1.010619258099799 0  1.156953426994539 1.268918600114805 0  0.9627285111463781 1.438367437731596 0  0.7915801130009614 1.455786114873014 0  0.6596846518645431 1.49092068635489 0  0.470484134114984 1.576025077806337 0  0.3001011184794985 1.609530891369757 0  0.1347010991593484 1.637337274599662 0  -0.02649842293271719 1.632882451230411 0  -0.2343833752275713 1.604484653954915 0  -0.3964569228477829 1.596294801322482 0  -0.5530786439246876 1.551514041921543 0  -0.7152023782000652 1.478386021302821 0  -0.8866324734607094 1.438274094297364 0  -1.062823136239279 1.322381153294272 0  -1.211522799896258 1.203509227431897 0  -1.383516294437936 1.265220859801372 0  -1.247294875631695 0.8543895271527373 0  -1.552531825684648 1.074502482871489 0  -1.955035183917296 0.926367830573173 0  -1.836254065358922 0.6724455954298797 0  -2.161878184115842 0.601508803875041 0  -2.228831701718065 0.311776553026862 0  -2.321113385137753 0.04889286147009875 0  -1.87102695511185 -0.1223831464668142 0  -2.494928950931503 -0.4729695892794836 0  -1.99533853818682 -0.4365945457385157 0  -1.893335672387217 -0.6586237040626299 0  -1.911839156105216 -1.001212575997936 0  -1.520122190658612 -0.8278600879355211 0  -1.558291002330839 -0.9934985235873128 0  -1.380501291254187 -1.211573070564856 0  -1.170599118863407 -1.209403148126261 0  -1.038398868317721 -1.340999747156223 0  -0.8771428700130608 -1.471508044975616 0  -0.7043357501627493 -1.504933780000628 0  -0.5450033568343318 -1.544988963784376 0  -0.3840305771858999 -1.606257684765263 0  -0.2122915729798839 -1.617825580447631 0  -0.04836842386740038 -1.635007640027939 0  0.1439574194344431 -1.632752844469901 0  0.2934432794785328 -1.624029607574718 0  0.4751487363090279 -1.591649842068702 0  0.6408288359497575 -1.52409838413322 0  0.7702034763577099 -1.394974481968116 0  0.9466366379290301 -1.431875504568594 0  1.125698077385419 -1.322266666472581 0  1.311495344146527 -1.264086933677163 0  1.415414946551876 -1.073382516907445 0  1.51011880723516 -0.9290206177094996 0  1.809677980528671 -0.9536768605336784 0  1.910683263183355 -0.7569155035081323 0  1.914597911504591 -0.5370577992808234 0  2.286450571343863 -0.461203059273647 0  2.236424229483563 -0.1705270700992826 0  -2.449898362282272 4.920190318699667 0  -2.449855517790753 -4.912735921442259 0  4.911121556189404 2.448212639166831 0  4.919151115002336 -2.449537045110413 0  2.447783875647143 -4.898307016976236 0  2.442206448777969 4.902067096909724 0  -4.911166402798112 -2.448234088218388 0  -4.911211427633164 2.448235508996508 0  -1.75018764556305 4.914350648488934 0  -1.745877037683728 -4.917620205287436 0  4.920732369368055 1.74386169752518 0  4.909210477549203 -1.747749754498865 0  -4.909609576797064 -1.747454227891909 0  -4.910467921917451 1.747195985973182 0  1.747609816143233 4.908427329159515 0  1.749171578880803 -4.896923015567367 0  -1.150319942447829 4.913219211372433 0  -1.131029944752557 -4.920609805774794 0  -4.908532956264313 -1.147500718923358 0  -4.908367226906156 1.14729108795644 0  1.145203741826941 -4.91700615452952 0  1.150332815158999 4.913163688212884 0  4.908640243184109 1.145754513132565 0  4.919494256036404 -1.151460815379632 0  -0.5474641110972533 -4.914934868218311 0  -0.5471787892926006 4.923243193646035 0  -4.906442774028964 -0.5483459640826007 0  -4.906475106228585 0.5468854948397996 0  4.905594117443177 -0.5486798439503029 0  4.917508562451321 0.5453636687462819 0  0.543420135792969 -4.902493286483693 0  0.5519398409971242 4.92023908396562 0  -4.912698051451134 -3.048776015670245 0  4.919222217189726 3.046726589855452 0  4.912182038371895 -3.048732760476874 0  -4.913573350407841 3.045853332889583 0  3.056250567705653 -4.918789672987054 0  -3.049647766589766 -4.912765122531209 0  3.053204879695161 4.914877201787077 0  -3.049128085915118 4.913714853832068 0  -4.905214182473181 -0.04987332572401788 0  0.04520544688981977 -4.917002738516977 0  0.04963559986425625 4.923711439015973 0  4.91230852684773 -0.05128894944181013 0  3.546235637053087 -4.919928946855642 0  -3.549608115467364 4.912976422053585 0  -3.549571302232149 -4.91299046549057
[...]
<PointData  Scalars="f_26"> 
<DataArray  type="Float64"  Name="f_26"  format="ascii">0.0000000000000000e+00  0.0000000000000000e+00  0.0000000000000000e+00  0.0000000000000000e+00  -1.9557220634730751e+01  0.0000000000000000e+00  0.0000000000000000e+00  0.0000000000000000e+00  0.0000000000000000e+00  0.0000000000000000e+00  0.0000000000000000e+00  0.0000000000000000e+00  0.0000000000000000e+00  0.0000000000000000e+00  0.0000000000000000e+00  0.0000000000000000e+00  0.0000000000000000e+00  0.0000000000000000e+00  0.0000000000000000e+00  0.0000000000000000e+00  0.0000000000000000e+00  0.0000000000000000e+00  0.0000000000000000e+00  0.0000000000000000e+00  0.0000000000000000e+00  0.0000000000000000e+00  0.0000000000000000e+00  0.0000000000000000e+00  0.0000000000000000e+00  0.0000000000000000e+00  0.0000000000000000e+00  0.0000000000000000e+00  0.0000000000000000e+00  0.0000000000000000e+00  0.0000000000000000e+00  0.0000000000000000e+00  0.0000000000000000e+00  0.0000000000000000e+00  0.0000000000000000e+00  0.0000000000000000e+00  0.0000000000000000e+00  0.0000000000000000e+00  0.0000000000000000e+00  0.0000000000000000e+00  0.0000000000000000e+00  0.0000000000000000e+00  0.0000000000000000e+00  0.0000000000000000e+00  0.0000000000000000e+00  0.0000000000000000e+00  0.0000000000000000e+00  0.0000000000000000e+00  0.0000000000000000e+00  0.0000000000000000e+00  0.0000000000000000e+00  0.0000000000000000e+00  0.0000000000000000e+00  0.0000000000000000e+00  0.0000000000000000e+00  0.0000000000000000e+00  0.0000000000000000e+00  0.0000000000000000e+00  0.0000000000000000e+00  0.0000000000000000e+00  0.0000000000000000e+00  0.0000000000000000e+00  0.0000000000000000e+00  0.0000000000000000e+00  0.0000000000000000e+00  0.0000000000000000e+00  0.0000000000000000e+00  0.0000000000000000e+00  0.0000000000000000e+00  0.0000000000000000e+00  0.0000000000000000e+00  0.0000000000000000e+00  0.0000000000000000e+00  0.0000000000000000e+00  0.0000000000000000e+00  0.0000000000000000e+00  0.0000000000000000e+00  0.0000000000000000e+00  0.0000000000000000e+00  0.0000000000000000e+00  0.0000000000000000e+00  0.0000000000000000e+00  0.0000000000000000e+00  0.0000000000000000e+00  0.0000000000000000e+00  0.0000000000000000e+00  0.0000000000000000e+00  0.0000000000000000e+00  0.0000000000000000e+00  0.0000000000000000e+00  0.0000000000000000e+00  0.0000000000000000e+00  0.0000000000000000e+00  0.0000000000000000e+00  0.0000000000000000e+00  0.0000000000000000e+00  0.0000000000000000e+00  0.0000000000000000e+00  0.0000000000000000e+00  0.0000000000000000e+00  0.0000000000000000e+00  0.0000000000000000e+00  0.0000000000000000e+00  0.0000000000000000e+00  0.0000000000000000e+00  0.0000000000000000e+00  0.0000000000000000e+00  0.0000000000000000e+00  0.0000000000000000e+00  0.0000000000000000e+00  0.0000000000000000e+00  0.0000000000000000e+00  0.0000000000000000e+00  0.0000000000000000e+00  0.0000000000000000e+00  0.0000000000000000e+00  0.0000000000000000e+00  0.0000000000000000e+00  0.0000000000000000e+00  0.0000000000000000e+00  0.0000000000000000e+00  0.0000000000000000e+00  0.0000000000000000e+00  0.0000000000000000e+00  0.0000000000000000e+00  0.0000000000000000e+00  0.0000000000000000e+00  0.0000000000000000e+00  0.0000000000000000e+00  0.0000000000000000e+00  0.0000000000000000e+00  0.0000000000000000e+00  0.0000000000000000e+00  0.0000000000000000e+00  0.0000000000000000e+00  0.0000000000000000e+00  0.0000000000000000e+00  0.0000000000000000e+00  0.0000000000000000e+00  0.0000000000000000e+00  0.0000000000000000e+00  0.0000000000000000e+00  0.0000000000000000e+00  0.0000000000000000e+00  0.0000000000000000e+00  0.0000000000000000e+00  0.0000000000000000e+00  0.0000000000000000e+00  0.0000000000000000e+00  0.0000000000000000e+00  0.0000000000000000e+00  0.0000000000000000e+00  0.0000000000000000e+00  0.0000000000000000e+00  0.0000000000000000e+00  0.0000000000000000e+00  0.0000000000000000e+00  0.0000000000000000e+00  0.0000000000000000e+00  0.0000000000000000e+00  0.0000000000000000e+00  0.0000000000000000e+00  0.0000000000000000e+00  0.0000000000000000e+00  0.0000000000000000e+00  0.0000000000000000e+00  0.0000000000000000e+00  0.0000000000000000e+00  0.0000000000000000e+00  0.0000000000000000e+00  0.0000000000000000e+00  0.0000000000000000e+00  0.0000000000000000e+00  0.0000000000000000e+00  0.0000000000000000e+00  0.0000000000000000e+00  0.0000000000000000e+00  0.0000000000000000e+00  0.0000000000000000e+00  0.0000000000000000e+00  0.0000000000000000e+00  0.0000000000000000e+00  0.0000000000000000e+00  0.0000000000000000e+00  0.0000000000000000e+00  0.0000000000000000e+00  0.0000000000000000e+00  0.0000000000000000e+00  0.0000000000000000e+00  0.0000000000000000e+00  0.0000000000000000e+00  0.0000000000000000e+00  0.0000000000000000e+00  0.0000000000000000e+00  0.0000000000000000e+00  0.0000000000000000e+00  0.0000000000000000e+00  0.0000000000000000e+00  0.0000000000000000e+00  0.0000000000000000e+00  0.0000000000000000e+00  0.0000000000000000e+00  0.0000000000000000e+00  0.0000000000000000e+00  0.0000000000000000e+00  0.0000000000000000e+00  0.0000000000000000e+00  0.0000000000000000e+00  0.0000000000000000e+00  0.0000000000000000e+00  0.0000000000000000e+00  0.0000000000000000e+00  0.0000000000000000e+00  0.0000000000000000e+00  0.0000000000000000e+00  0.0000000000000000e+00  0.0000000000000000e+00  0.0000000000000000e+00  0.0000000000000000e+00  0.0000000000000000e+00  0.0000000000000000e+00  0.0000000000000000e+00  0.0000000000000000e+00  0.0000000000000000e+00  0.0000000000000000e+00  0.0000000000000000e+00  0.0000000000000000e+00  0.0000000000000000e+00  0.0000000000000000e+00  0.0000000000000000e+00  0.0000000000000000e+00  0.0000000000000000e+00  0.0000000000000000e+00  0.0000000000000000e+00  0.0000000000000000e+00  0.0000000000000000e+00  0.0000000000000000e+00  0.0000000000000000e+00  0.0000000000000000e+00  0.0000000000000000e+00  0.0000000000000000e+00  0.0000000000000000e+00  0.0000000000000000e+00  0.0000000000000000e+00  0.0000000000000000e+00  0.0000000000000000e+00  0.0000000000000000e+00  0.0000000000000000e+00  0.0000000000000000e+00  0.0000000000000000e+00  0.0000000000000000e+00  0.0000000000000000e+00  0.0000000000000000e+00  0.0000000000000000e+00  0.0000000000000000e+00  0.0000000000000000e+00  0.0000000000000000e+00  0.0000000000000000e+00  0.0000000000000000e+00  0.0000000000000000e+00  0.0000000000000000e+00  0.0000000000000000e+00  0.0000000000000000e+00  0.0000000000000000e+00  0.0000000000000000e+00  0.0000000000000000e+00  0.0000000000000000e+00  0.0000000000000000e+00  0.0000000000000000e+00  0.0000000000000000e+00  0.0000000000000000e+00  0.0000000000000000e+00  0.0000000000000000e+00  0.0000000000000000e+00  0.0000000000000000e+00  0.0000000000000000e+00  0.0000000000000000e+00  0.0000000000000000e+00  0.0000000000000000e+00  0.0000000000000000e+00  0.0000000000000000e+00  0.0000000000000000e+00  0.0000000000000000e+00  0.0000000000000000e+00  0.0000000000000000e+00  0.0000000000000000e+00  0.0000000000000000e+00  0.0000000000000000e+00  0.0000000000000000e+00  0.0000000000000000e+00  0.0000000000000000e+00  0.0000000000000000e+00  0.0000000000000000e+00  0.0000000000000000e+00  0.0000000000000000e+00  0.0000000000000000e+00  0.0000000000000000e+00  0.0000000000000000e+00  0.0000000000000000e+00  0.0000000000000000e+00  0.0000000000000000e+00  0.0000000000000000e+00  0.0000000000000000e+00  0.0000000000000000e+00  0.0000000000000000e+00  0.0000000000000000e+00  0.0000000000000000e+00  0.0000000000000000e+00  0.0000000000000000e+00  0.0000000000000000e+00  0.0000000000000000e+00  0.0000000000000000e+00  0.0000000000000000e+00  0.0000000000000000e+00  0.0000000000000000e+00  0.0000000000000000e+00  0.0000000000000000e+00  0.0000000000000000e+00  0.0000000000000000e+00  0.0000000000000000e+00  0.0000000000000000e+00  0.0000000000000000e+00  0.0000000000000000e+00  0.0000000000000000e+00  0.0000000000000000e+00  0.0000000000000000e+00  0.0000000000000000e+00  0.0000000000000000e+00  0.0000000000000000e+00  0.0000000000000000e+00  0.0000000000000000e+00  0.0000000000000000e+00  0.0000000000000000e+00  0.0000000000000000e+00  0.0000000000000000e+00  0.0000000000000000e+00  0.0000000000000000e+00  0.0000000000000000e+00  0.0000000000000000e+00  0.0000000000000000e+00  0.0000000000000000e+00  0.0000000000000000e+00  0.0000000000000000e+00  0.0000000000000000e+00  0.0000000000000000e+00  0.0000000000000000e+00  0.0000000000000000e+00  0.0000000000000000e+00  0.0000000000000000e+00  0.0000000000000000e+00  0.0000000000000000e+00  0.0000000000000000e+00  0.0000000000000000e+00  0.0000000000000000e+00  0.0000000000000000e+00  0.0000000000000000e+00  0.0000000000000000e+00  0.0000000000000000e+00  0.0000000000000000e+00  0.0000000000000000e+00  0.0000000000000000e+00  0.0000000000000000e+00  0.0000000000000000e+00  0.0000000000000000e+00  0.0000000000000000e+00  0.0000000000000000e+00  0.0000000000000000e+00  0.0000000000000000e+00  0.0000000000000000e+00  0.0000000000000000e+00  0.0000000000000000e+00  0.0000000000000000e+00  0.0000000000000000e+00  0.0000000000000000e+00  0.0000000000000000e+00  0.0000000000000000e+00  0.0000000000000000e+00  0.0000000000000000e+00  0.0000000000000000e+00  0.0000000000000000e+00  0.0000000000000000e+00  0.0000000000000000e+00  0.0000000000000000e+00  0.0000000000000000e+00  0.0000000000000000e+00  0.0000000000000000e+00  0.0000000000000000e+00  0.0000000000000000e+00  0.0000000000000000e+00  0.0000000000000000e+00  0.0000000000000000e+00  0.0000000000000000e+00  0.0000000000000000e+00  0.0000000000000000e+00  0.0000000000000000e+00  0.0000000000000000e+00  0.0000000000000000e+00  -1.4208150066211035e+01  -1.9601686723829800e+01  -1.4158115014574420e+01  -2.2882502176918663e+01  -2.3562158742770396e+01  -2.7202353541299885e+01  -2.8738097895566579e+01  -3.1267681066536188e+01  -3.3593570152199625e+01  -3.5219783845859986e+01  -3.6731452489635380e+01  -3.7931006387084146e+01  -3.9071481709674188e+01  -3.9839686368555469e+01  -4.0263298472134437e+01  -4.0502548549607546e+01  -4.0480255764064303e+01  -3.9895856263227017e+01  -3.9226221408337359e+01  -3.8316230849575931e+01  -3.7048188727346030e+01  -3.5703170720212860e+01  -3.4198783593757518e+01  -3.2569079664436543e+01  -3.3685773336567962e+01  -2.8533730102907093e+01  -2.6432116342536933e+01  -2.6787383277362853e+01  -2.3664729311844965e+01  -2.2843970680172369e+01  -2.1450118146391382e+01  -2.5277833875573204e+01  -1.7471597479965926e+01  -2.3859279070630322e+01  -2.5289170315117040e+01  -2.2799215158227526e+01  -3.0760867038981829e+01  -3.1817853530760253e+01  -3.3641931831922960e+01  -3.6003012806114945e+01  -3.7812517359395315e+01  -3.9084651044416070e+01  -4.0365144866176060e+01  -4.1349675212586085e+01  -4.1894326848469490e+01  -4.2359065416857831e+01  -4.2381265129662829e+01  -4.2050875006844215e+01  -4.1462106020439172e+01  -4.0456948724401329e+01  -3.9336851522784990e+01  -3.7906213862389514e+01  -3.5507458742056393e+01  -3.3460963031212145e+01  -3.0999815998717203e+01  -2.9004438705670882e+01  -2.6036659750551284e+01  -2.0856544876713038e+01  -2.0102693359166821e+01  -1.9440869943568728e+01  -1.4557493460710887e+01  -1.5493998099767918e+01  -6.9171868487514510e-01  -8.2426445342669430e-01  -2.7774999777658171e-01  -2.2882858242251494e-01  -8.5983057314437117e-01  -8.3384045209208735e-01  -3.8019138133598185e-01  -3.2165419383473592e-01  -1.0231523314070674e+00  -1.0611618959655087e+00  -2.0672508847293014e-01  -2.0903664907750605e-01  -3.6205067623948672e-01  -3.0199100978932264e-01  -1.0822683015684760e+00  -1.2306584901677324e+00  -1.2476916900382582e+00  -1.2195327404237142e+00  -3.1527721251515706e-01  -2.7035212787335094e-01  -1.2147615595465291e+00  -1.2395256271385178e+00  -1.7514032191379794e-01  -1.3371287518211311e-01  -1.4345352981154642e+00  -1.2267127045210182e+00  -2.6996562957155540e-01  -2.4510716650112896e-01  -1.0940953423519589e-01  -1.0708227244303158e-01  -1.6103111133254986e+00  -1.2705979074221068e+00  -3.4803727398754986e-01  -2.4876538101340923e-01  -2.4953549720355866e-01  -2.9446429462960405e-01  -4.5693681950833120e-01  -5.7638781762805613e-01  -4.9107968349372572e-01  -5.1344898692384677e-01  -2.4729256004356220e-01  -1.4281237483388105e+00  -1.2557906593944412e+00  -9.0377180529565865e-02  -2.9892447219971940e-01  -3.4818078745709968e-01  -3.9060501569852091e-01  -2.1303313986749203e-01  -2.9120602895785758e-01  -2.1046641283135459e-01  -2.4618199373955321e-01  -3.2752628936673062e-01  -1.6599298864120629e-01  -2.9498869972143843e-01  -2.1321193609489894e-01  -2.2489773937583968e-01  -2.1620952582061490e-01  -1.8151505823031813e-01  -2.1835830550462701e-01  -1.9167630025065191e-01  -1.4286745385592167e-01  -1.2465857948010169e-01  -1.3117890954767414e-01  -1.1848222012156939e-01  -1.0982930510062669e-01  -1.4333621171610916e-01  -1.2271290718374635e-01  -1.3342850734809694e-01  -2.4303220033033326e-01  -1.4882403652806211e+00  -1.3189516941243038e+00  -9.1852559751379681e-02  -1.3729510255133808e+00  -3.4003549111288661e-01  -2.5650770914686444e-01  -2.9424620122003170e-01  -2.9055416170542930e-01  -1.0232677465519029e+00  -1.5205642504503298e+00  -1.3347447670102939e+00  -1.1403876051234627e+00  -1.9888631182735633e-01  -1.2845870807495161e-01  -1.3144769398034933e-01  -1.8202628028643333e-01  -1.1506652467912357e+00  -1.5544811832173973e+00  -1.2331607245485896e+00  -1.0757059649886174e+00  -1.0474537786089455e+00  -3.7645017368331507e-01  -3.1187248190310207e-01  -7.5766443750483281e-01  -9.0408675644885828e-01  -2.3884848742975587e-01  -2.3196996974858403e-01  -2.5588729562500689e-01  -7.3528773803529635e-01  -6.3810321214594923e-01  -3.1173273973932231e-01  -7.1871607644445312e-01  -3.7071085973937734e-01  -2.6677733883195381e-01  -5.3593708353133540e-01  -7.9267902970474965e-02  -6.2254682494640737e-02  -6.2268231330810983e-02  -7.5115705369428187e-02  -6.1599683567151300e-02  -8.4396393393191757e-02  -6.8146901778630656e-02  -5.4788231606841702e-02  -2.5470464939596127e-01  -1.5794438791384731e+00  -1.6647962318094662e+00  -8.7726137098201928e-02  -8.3873310441625604e-01  -2.7091742578208466e-01  -2.4360305520039233e-01  -1.0245935555217847e+00  -3.8052188321646224e-01  -8.2398934832826587e-01  -8.8350897279771212e-01  -3.1712627968191320e-01  -2.3623909046088579e-01  -5.7203024234382771e-01  -5.0723513423231781e-01  -3.2996829325925625e-01  -2.4328141634089290e-01  -4.3841725149992689e-01  -4.2503143056643028e-01  -2.7931120607254206e-01  -1.9235607001466423e-01  -1.4008759761973255e-01  -3.2909204673516385e-01  -2.2428787887649446e-01  -2.4441144920620841e-01  -1.6701653642672609e-01  -2.5997004689643466e-01  -1.8650377654236489e-01  -2.8837560400201567e-01  -2.1879193694605631e-01  -2.0841822266287982e-01  -1.5140708010959511e-01  -2.2402146753583924e-01  -1.5930005985122206e-01  -2.8810870577976799e-01  -1.7845208691051689e-01  -3.7957442118953397e-02  -2.8191379932913208e-02  -2.6681567123743925e-02  -3.2375748905467523e-02  -2.5055401840189995e-01  -5.0939691235714057e-01  -5.1851103234955420e-01  -7.8117518958606680e-01  -7.9601335613328783e-01  -1.0705701742850449e+00  -1.0921600044325257e+00  -1.3822514306779787e+00  -1.4108076042273729e+00  -1.7205430709038800e+00  -1.7564604601769145e+00  -2.0897645950676891e+00  -2.1333182770281662e+00  -2.4939596040896350e+00  -2.5452609680123914e+00  -2.9370324270952497e+00  -2.9956451796273136e+00  -3.4222661305338096e+00  -3.4884390293526786e+00  -3.9519470375052808e+00  -4.0255349119202899e+00  -3.8847275319922865e+00  -4.5315134601158586e+00  -4.6095076509355160e+00  -5.1608764613660023e+00  -5.2427318741880242e+00  -5.8387158419274003e+00  -5.9249475949708375e+00  -6.5689579764249828e+00  -6.6570955474961764e+00  -7.3496190719476138e+00  -7.4385615994576089e+00  -7.2639455655967939e+00  -8.1797171933591954e+00  -8.2680506548139210e+00  -9.0599226442557814e+00  -9.1441235357281414e+00  -9.9863174849978975e+00  -1.0063620737573224e+01  -1.0953532800294298e+01  -1.1024109982135432e+01  -1.1958976912376377e+01  -1.2020955415489682e+01  -1.1893470687248099e+01  -1.2998338772173174e+01  -1.3050416449909633e+01  -1.4067156219235981e+01  -1.4107153542740960e+01  -1.3082252595712211e+01  -1.4129569641489342e+01  -1.5187038241887475e+01  -1.5200092087058398e+01  -1.4144014407354392e+01  -1.5196103461336346e+01  -1.4145151101708633e+01  -1.5173015836785686e+01  -1.6259545735390880e+01  -1.6212224604160081e+01  -1.5126221399065084e+01  -1.6139270308394966e+01  -1.5054630919932816e+01  -1.6038876025428060e+01  -1.7156902517179510e+01  -1.7024964457362319e+01  -1.5909527132016423e+01  -1.6861549205490409e+01  -1.8007280383422405e+01  -1.7807140463401730e+01  -1.6665615815373609e+01  -1.7572143688090524e+01  -1.8740648382368285e+01  -1.8463991105368255e+01  -1.9656271868355358e+01  -1.6436473838084943e+01  -1.9335488422909791e+01  -2.0548161670294586e+01  -2.0180999084763464e+01  -2.1410655071935679e+01  -2.0994983558794221e+01  -2.2238033791744474e+01  -2.1772045361868358e+01  -2.3024942106785328e+01  -2.0537241202363454e+01  -2.2506918311414427e+01  -2.3766115891995273e+01  -2.3194643100154231e+01  -2.4456597260927957e+01  -2.3830616127330082e+01  -2.5091836205898719e+01  -2.4410486246349564e+01  -2.5667621992155059e+01  -2.4930429597687159e+01  -2.6180220978366616e+01  -2.5386951163957907e+01  -2.6626323267242473e+01  -2.3682224561442677e+01  -2.2659598353848555e+01  -3.0801694783116613e+01  -2.5776990902099833e+01  -2.7003180400855026e+01  -2.6098302943729927e+01  -2.7308503627347648e+01  -3.6636826273417405e+01  -2.6348815739994585e+01  -2.7540556578601159e+01  -4.0463704945433228e+01  -2.6527097990352821e+01  -2.7698125638309190e+01  -2.8715317938305940e+01  -2.8849379967420713e+01  -2.7780508861326314e+01  -2.8906415874459189e+01  -2.6355139129919134e+01  -2.5342207466812919e+01  -2.7787622029226736e+01  -2.8886604012257425e+01  -3.0004055162371841e+01  -2.9954787114971857e+01  -2.8790226081744951e+01  -2.9827926175553216e+01  -3.0986605202216243e+01  -3.0827041410158738e+01  -2.9624656472435070e+01  -3.0590323640901467e+01  -3.1782226262481689e+01  -3.1510182020521945e+01  -3.0278374247026150e+01  -3.1162369077142248e+01  -3.2381558495809486e+01  -3.1995287943282555e+01  -3.0741806342205187e+01  -3.1535881480715716e+01  -3.2768972068143711e+01  -3.2270995788330360e+01  -3.1007437226351858e+01  -3.1704342357525718e+01  -3.2942579838599436e+01  -3.2336842043192028e+01  -3.3546392143603320e+01  -3.2900694287794877e+01  -3.1665618065643521e+01  -3.2190247856703671e+01  -3.3391849181089718e+01  -3.2641798624355090e+01  -3.1419326184849073e+01  -3.1832378300016437e+01  -3.3016738485061396e+01  -3.2168732626991911e+01  -3.3311706571693421e+01  -3.2425294422792241e+01  -3.3523795741268906e+01  -3.2599409274376093e+01  -3.1487356232832667e+01  -3.1625393873983946e+01  -3.2688841309407159e+01  -3.1679656657958798e+01  -3.2691745561411572e+01  -3.1648644109901408e+01  -3.2606789889313838e+01  -3.1531356725469241e+01  -3.2433228660677734e+01  -3.1327385792465904e+01  -3.0418967860064132e+01  -3.0187447537586685e+01  -3.1037037416702756e+01  -2.9872539335224335e+01  -3.0661140802690163e+01  -2.9474642450767593e+01  -3.0201489951769510e+01  -2.8996049803193561e+01  -2.9661981433041760e+01  -2.8439481748694494e+01  -2.9043125456677956e+01  -2.7809263959234116e+01  -2.8348741214338492e+01  -2.7108449825200751e+01  -2.7586265342670856e+01  -2.6342671919888073e+01  -2.6764607138468683e+01  -2.5518079839122141e+01  -2.5881910412387857e+01  -2.4639515804539627e+01  -2.4943020758011393e+01  -2.3712528965922267e+01  -2.3963834394926469e+01  -2.2745821762647360e+01  -2.2948643739891118e+01  -2.2484483104116713e+01  -2.1532410461909890e+01  -2.1264528646070804e+01  -2.0329732598433576e+01  -2.0058349427756415e+01  -1.9143808487591770e+01  -1.8871880876507650e+01  -1.7979920573976909e+01  -1.7709852389173896e+01  -1.6842970290501309e+01  -1.706750203142