<?xml version="1.0"?>
<VTKFile type="UnstructuredGrid"  version="0.1"  >
<UnstructuredGrid>
<Piece  NumberOfPoints="11902" NumberOfCells="23402">
<Points>
<DataArray  type="Float64"  NumberOfComponents="3"  format="ascii">-5 -5 0  5 -5 0  5 5 0  -5 5 0  2.050583702992402 0.003627269904884242 0  -4.9 -5 0  -4.8 -5 0  -4.7 -5 0  -4.6 -5 0  -4.5 -5 0  -4.4 -5 0  -4.3 -5 0  -4.2 -5 0  -4.1 -5 0  -4 -5 0  -3.9 -5 0  -3.8 -5 0  -3.7 -5 0  -3.6 -5 0  -3.5 -5 0  -3.4 -5 0  -3.3 -5 0  -3.2 -5 0  -3.1 -5 0  -3 -5 0  -2.9 -5 0  -2.8 -5 0  -2.7 -5 0  -2.6 -5 0  -2.5 -5 0  -2.4 -5 0  -2.3 -5 0  -2.2 -5 0  -2.1 -5 0  -2 -5 0  -1.9 -5 0  -1.8 -5 0  -1.7 -5 0  -1.6 -5 0  -1.5 -5 0  -1.4 -5 0  -1.3 -5 0  -1.2 -5 0  -1.1 -5 0  -1 -5 0  -0.9000000000000004 -5 0  -0.7999999999999998 -5 0  -0.7000000000000002 -5 0  -0.5999999999999996 -5 0  -0.5 -5 0  -0.4000000000000004 -5 0  -0.2999999999999998 -5 0  -0.2000000000000002 -5 0  -0.09999999999999964 -5 0  0 -5 0  0.09999999999999964 -5 0  0.2000000000000002 -5 0  0.2999999999999998 -5 0  0.4000000000000004 -5 0  0.5 -5 0  0.5999999999999996 -5 0  0.7000000000000002 -5 0  0.7999999999999998 -5 0  0.9000000000000004 -5 0  1 -5 0  1.1 -5 0  1.2 -5 0  1.3 -5 0  1.4 -5 0  1.5 -5 0  1.6 -5 0  1.7 -5 0  1.8 -5 0  1.9 -5 0  2 -5 0  2.1 -5 0  2.2 -5 0  2.3 -5 0  2.4 -5 0  2.5 -5 0  2.6 -5 0  2.7 -5 0  2.8 -5 0  2.9 -5 0  3 -5 0  3.1 -5 0  3.199999999999999 -5 0  3.300000000000001 -5 0  3.4 -5 0  3.5 -5 0  3.6 -5 0  3.699999999999999 -5 0  3.800000000000001 -5 0  3.9 -5 0  4 -5 0  4.1 -5 0  4.199999999999999 -5 0  4.300000000000001 -5 0  4.4 -5 0  4.5 -5 0  4.6 -5 0  4.699999999999999 -5 0  4.800000000000001 -5 0  4.9 -5 0  5 -4.9 0  5 -4.8 0  5 -4.7 0  5 -4.6 0  5 -4.5 0  5 -4.4 0  5 -4.3 0  5 -4.2 0  5 -4.1 0  5 -4 0  5 -3.9 0  5 -3.8 0  5 -3.7 0  5 -3.6 0  5 -3.5 0  5 -3.4 0  5 -3.3 0  5 -3.2 0  5 -3.1 0  5 -3 0  5 -2.9 0  5 -2.8 0  5 -2.7 0  5 -2.6 0  5 -2.5 0  5 -2.4 0  5 -2.3 0  5 -2.2 0  5 -2.1 0  5 -2 0  5 -1.9 0  5 -1.8 0  5 -1.7 0  5 -1.6 0  5 -1.5 0  5 -1.4 0  5 -1.3 0  5 -1.2 0  5 -1.1 0  5 -1 0  5 -0.9000000000000004 0  5 -0.7999999999999998 0  5 -0.7000000000000002 0  5 -0.5999999999999996 0  5 -0.5 0  5 -0.4000000000000004 0  5 -0.2999999999999998 0  5 -0.2000000000000002 0  5 -0.09999999999999964 0  5 0 0  5 0.09999999999999964 0  5 0.2000000000000002 0  5 0.2999999999999998 0  5 0.4000000000000004 0  5 0.5 0  5 0.5999999999999996 0  5 0.7000000000000002 0  5 0.7999999999999998 0  5 0.9000000000000004 0  5 1 0  5 1.1 0  5 1.2 0  5 1.3 0  5 1.4 0  5 1.5 0  5 1.6 0  5 1.7 0  5 1.8 0  5 1.9 0  5 2 0  5 2.1 0  5 2.2 0  5 2.3 0  5 2.4 0  5 2.5 0  5 2.6 0  5 2.7 0  5 2.8 0  5 2.9 0  5 3 0  5 3.1 0  5 3.199999999999999 0  5 3.300000000000001 0  5 3.4 0  5 3.5 0  5 3.6 0  5 3.699999999999999 0  5 3.800000000000001 0  5 3.9 0  5 4 0  5 4.1 0  5 4.199999999999999 0  5 4.300000000000001 0  5 4.4 0  5 4.5 0  5 4.6 0  5 4.699999999999999 0  5 4.800000000000001 0  5 4.9 0  4.9 5 0  4.8 5 0  4.7 5 0  4.6 5 0  4.5 5 0  4.4 5 0  4.3 5 0  4.2 5 0  4.1 5 0  4 5 0  3.9 5 0  3.8 5 0  3.7 5 0  3.6 5 0  3.5 5 0  3.4 5 0  3.3 5 0  3.2 5 0  3.1 5 0  3 5 0  2.9 5 0  2.8 5 0  2.7 5 0  2.6 5 0  2.5 5 0  2.4 5 0  2.3 5 0  2.2 5 0  2.1 5 0  2 5 0  1.9 5 0  1.8 5 0  1.7 5 0  1.6 5 0  1.5 5 0  1.4 5 0  1.3 5 0  1.2 5 0  1.1 5 0  1 5 0  0.9000000000000004 5 0  0.7999999999999998 5 0  0.7000000000000002 5 0  0.5999999999999996 5 0  0.5 5 0  0.4000000000000004 5 0  0.2999999999999998 5 0  0.2000000000000002 5 0  0.09999999999999964 5 0  0 5 0  -0.09999999999999964 5 0  -0.2000000000000002 5 0  -0.2999999999999998 5 0  -0.4000000000000004 5 0  -0.5 5 0  -0.5999999999999996 5 0  -0.7000000000000002 5 0  -0.7999999999999998 5 0  -0.9000000000000004 5 0  -1 5 0  -1.1 5 0  -1.2 5 0  -1.3 5 0  -1.4 5 0  -1.5 5 0  -1.6 5 0  -1.7 5 0  -1.8 5 0  -1.9 5 0  -2 5 0  -2.1 5 0  -2.2 5 0  -2.3 5 0  -2.4 5 0  -2.5 5 0  -2.6 5 0  -2.7 5 0  -2.8 5 0  -2.9 5 0  -3 5 0  -3.1 5 0  -3.199999999999999 5 0  -3.300000000000001 5 0  -3.4 5 0  -3.5 5 0  -3.6 5 0  -3.699999999999999 5 0  -3.800000000000001 5 0  -3.9 5 0  -4 5 0  -4.1 5 0  -4.199999999999999 5 0  -4.300000000000001 5 0  -4.4 5 0  -4.5 5 0  -4.6 5 0  -4.699999999999999 5 0  -4.800000000000001 5 0  -4.9 5 0  -5 4.9 0  -5 4.8 0  -5 4.7 0  -5 4.6 0  -5 4.5 0  -5 4.4 0  -5 4.3 0  -5 4.2 0  -5 4.1 0  -5 4 0  -5 3.9 0  -5 3.8 0  -5 3.7 0  -5 3.6 0  -5 3.5 0  -5 3.4 0  -5 3.3 0  -5 3.2 0  -5 3.1 0  -5 3 0  -5 2.9 0  -5 2.8 0  -5 2.7 0  -5 2.6 0  -5 2.5 0  -5 2.4 0  -5 2.3 0  -5 2.2 0  -5 2.1 0  -5 2 0  -5 1.9 0  -5 1.8 0  -5 1.7 0  -5 1.6 0  -5 1.5 0  -5 1.4 0  -5 1.3 0  -5 1.2 0  -5 1.1 0  -5 1 0  -5 0.9000000000000004 0  -5 0.7999999999999998 0  -5 0.7000000000000002 0  -5 0.5999999999999996 0  -5 0.5 0  -5 0.4000000000000004 0  -5 0.2999999999999998 0  -5 0.2000000000000002 0  -5 0.09999999999999964 0  -5 0 0  -5 -0.09999999999999964 0  -5 -0.2000000000000002 0  -5 -0.2999999999999998 0  -5 -0.4000000000000004 0  -5 -0.5 0  -5 -0.5999999999999996 0  -5 -0.7000000000000002 0  -5 -0.7999999999999998 0  -5 -0.9000000000000004 0  -5 -1 0  -5 -1.1 0  -5 -1.2 0  -5 -1.3 0  -5 -1.4 0  -5 -1.5 0  -5 -1.6 0  -5 -1.7 0  -5 -1.8 0  -5 -1.9 0  -5 -2 0  -5 -2.1 0  -5 -2.2 0  -5 -2.3 0  -5 -2.4 0  -5 -2.5 0  -5 -2.6 0  -5 -2.7 0  -5 -2.8 0  -5 -2.9 0  -5 -3 0  -5 -3.1 0  -5 -3.199999999999999 0  -5 -3.300000000000001 0  -5 -3.4 0  -5 -3.5 0  -5 -3.6 0  -5 -3.699999999999999 0  -5 -3.800000000000001 0  -5 -3.9 0  -5 -4 0  -5 -4.1 0  -5 -4.199999999999999 0  -5 -4.300000000000001 0  -5 -4.4 0  -5 -4.5 0  -5 -4.6 0  -5 -4.699999999999999 0  -5 -4.800000000000001 0  -5 -4.9 0  2.207125700070173 0.2337238247476395 0  1.992396090883602 0.3876423400393315 0  2.161974412019788 0.6531601154234159 0  1.802642593871426 0.7317273834969036 0  1.741863014016097 0.9359092598020357 0  1.552840287175135 1.036639064486998 0  1.455367482486939 1.212509835908691 0  1.224959692452553 1.18613761724468 0  1.123622498211191 1.356763122793493 0  0.9563088543144318 1.46107454896867 0  0.7851456339357473 1.487440392691551 0  0.6433073436264629 1.533056076040216 0  0.4612184384515381 1.608238024274457 0  0.2974651569448789 1.633971858787309 0  0.1344275227093863 1.673707337858998 0  -0.02351282029356785 1.664771746773149 0  -0.2301800653144047 1.631288522246357 0  -0.3947066314049045 1.630980938378607 0  -0.5469693944821 1.581720243381817 0  -0.7056735260393101 1.509866655071916 0  -0.8794784855641951 1.476327826817974 0  -1.029469643436799 1.371620947053866 0  -1.181301944074852 1.28673693650864 0  -1.413589653572902 1.269422612546832 0  -1.390703013188483 1.026313335681083 0  -1.644543588928548 1.00491520212975 0  -1.843905830047325 0.8808047573037262 0  -1.871569141460274 0.6885153897473276 0  -2.04361898166652 0.5346957860621037 0  -2.125163891652942 0.3057839846921093 0  -2.160391139169872 0.08839311115312402 0  -1.992363486849938 -0.1283777937185942 0  -2.281954404878657 -0.343764167001066 0  -1.973474156445888 -0.4776407908497369 0  -1.86935756051878 -0.6719468405264761 0  -1.861774329072523 -0.8882285155993673 0  -1.564322118257975 -0.9277638922102919 0  -1.519746673542701 -1.111072581932089 0  -1.364608914483165 -1.234198991630151 0  -1.17869413515415 -1.278457433761903 0  -1.036144300718609 -1.394324446177132 0  -0.8732376472515679 -1.492227526053312 0  -0.7075745707128638 -1.537598870044134 0  -0.5399852463730899 -1.578685187979327 0  -0.3837225944079902 -1.643268897311079 0  -0.2135913760919939 -1.64268084794626 0  -0.04911032619120553 -1.665192641395157 0  0.1405012989451135 -1.66013432555923 0  0.2937079529232457 -1.651657000905445 0  0.4721778666676682 -1.61747281967793 0  0.6291922156458697 -1.56229456640376 0  0.7872989613098372 -1.476485695805304 0  0.9594634709980673 -1.465680094978523 0  1.128544738240996 -1.357938824157517 0  1.290438644291961 -1.293966470498204 0  1.421875771115222 -1.162740837923118 0  1.560807629898479 -1.034577065427122 0  1.750453466773346 -0.9272040919512415 0  1.861699547421377 -0.7811497660545095 0  1.955420077861049 -0.592127052551177 0  2.123019701395003 -0.4255312988677825 0  2.129511179536822 -0.2088097146445919 0  -2.449760892175073 4.920123767397623 0  -2.44972932377942 -4.912687269026317 0  4.911622663173126 2.448637054496874 0  4.919645767557906 -2.449967824966084 0  2.447642811102358 -4.898281190524732 0  2.442020990889146 4.902018928354198 0  -4.911654502504843 -2.448646729056005 0  -4.911693350270216 2.448651801804613 0  -1.749941467125081 4.914069041797361 0  -1.7456518828609 -4.917371421054304 0  4.921557889786714 1.744384144681822 0  4.910216517555107 -1.748313110061577 0  -4.910525157278312 -1.747999514481744 0  -4.911376190973288 1.747740060508249 0  1.747297918453028 4.908133024793323 0  1.748875289265974 -4.896655398123701 0  -1.150070524406434 4.912699847692526 0  -1.130804150252311 -4.92022676450686 0  -4.909877196801959 -1.148022109694078 0  -4.909721992569664 1.147814796745966 0  1.144979043313111 -4.916587542326146 0  1.150075786145243 4.912675869574192 0  4.910014855961064 1.14629957026396 0  4.920755778337094 -1.151967172572758 0  -0.5473377086143507 -4.91432886728915 0  -0.5470545901248088 4.922649714605999 0  -4.908165965429488 -0.5486637694399564 0  -4.90820476315657 0.547201159341667 0  4.907429635913919 -0.5489843686049716 0  4.919079240788511 0.5456867683132154 0  0.5432159055461295 -4.901831371300053 0  0.5518064236370703 4.919623439098123 0  -4.912940991579417 -3.0490437672059 0  4.919448335132966 3.046989167332612 0  4.912459848023761 -3.049036308063476 0  -4.913809243366466 3.046122360717359 0  3.056241948927616 -4.918848122504308 0  -3.049613242167047 -4.912795506875804 0  3.053167113396923 4.914907186029637 0  -3.049092282294488 4.913745771668093 0  -4.907086352484715 -0.04990758400667148 0  0.04517205290445536 -4.916360890996136 0  0.04962107020702059 4.923080317908111 0  4.914105439082656 -0.05129207761133027 0  3.546276937416394 -4.919998525674004 0  -3.549627205174394 4.913024489531879 0  -3.549597910170717 -4.913037943775072 0  4.
[...]
<PointData  Scalars="f_26"> 
<DataArray  type="Float64"  Name="f_26"  format="ascii">0.0000000000000000e+00  0.0000000000000000e+00  0.0000000000000000e+00  0.0000000000000000e+00  -2.5379210454237249e+01  0.0000000000000000e+00  0.0000000000000000e+00  0.0000000000000000e+00  0.0000000000000000e+00  0.0000000000000000e+00  0.0000000000000000e+00  0.0000000000000000e+00  0.0000000000000000e+00  0.0000000000000000e+00  0.0000000000000000e+00  0.0000000000000000e+00  0.0000000000000000e+00  0.0000000000000000e+00  0.0000000000000000e+00  0.0000000000000000e+00  0.0000000000000000e+00  0.0000000000000000e+00  0.0000000000000000e+00  0.0000000000000000e+00  0.0000000000000000e+00  0.0000000000000000e+00  0.0000000000000000e+00  0.0000000000000000e+00  0.0000000000000000e+00  0.0000000000000000e+00  0.0000000000000000e+00  0.0000000000000000e+00  0.0000000000000000e+00  0.0000000000000000e+00  0.0000000000000000e+00  0.0000000000000000e+00  0.0000000000000000e+00  0.0000000000000000e+00  0.0000000000000000e+00  0.0000000000000000e+00  0.0000000000000000e+00  0.0000000000000000e+00  0.0000000000000000e+00  0.0000000000000000e+00  0.0000000000000000e+00  0.0000000000000000e+00  0.0000000000000000e+00  0.0000000000000000e+00  0.0000000000000000e+00  0.0000000000000000e+00  0.0000000000000000e+00  0.0000000000000000e+00  0.0000000000000000e+00  0.0000000000000000e+00  0.0000000000000000e+00  0.0000000000000000e+00  0.0000000000000000e+00  0.0000000000000000e+00  0.0000000000000000e+00  0.0000000000000000e+00  0.0000000000000000e+00  0.0000000000000000e+00  0.0000000000000000e+00  0.0000000000000000e+00  0.0000000000000000e+00  0.0000000000000000e+00  0.0000000000000000e+00  0.0000000000000000e+00  0.0000000000000000e+00  0.0000000000000000e+00  0.0000000000000000e+00  0.0000000000000000e+00  0.0000000000000000e+00  0.0000000000000000e+00  0.0000000000000000e+00  0.0000000000000000e+00  0.0000000000000000e+00  0.0000000000000000e+00  0.0000000000000000e+00  0.0000000000000000e+00  0.0000000000000000e+00  0.0000000000000000e+00  0.0000000000000000e+00  0.0000000000000000e+00  0.0000000000000000e+00  0.0000000000000000e+00  0.0000000000000000e+00  0.0000000000000000e+00  0.0000000000000000e+00  0.0000000000000000e+00  0.0000000000000000e+00  0.0000000000000000e+00  0.0000000000000000e+00  0.0000000000000000e+00  0.0000000000000000e+00  0.0000000000000000e+00  0.0000000000000000e+00  0.0000000000000000e+00  0.0000000000000000e+00  0.0000000000000000e+00  0.0000000000000000e+00  0.0000000000000000e+00  0.0000000000000000e+00  0.0000000000000000e+00  0.0000000000000000e+00  0.0000000000000000e+00  0.0000000000000000e+00  0.0000000000000000e+00  0.0000000000000000e+00  0.0000000000000000e+00  0.0000000000000000e+00  0.0000000000000000e+00  0.0000000000000000e+00  0.0000000000000000e+00  0.0000000000000000e+00  0.0000000000000000e+00  0.0000000000000000e+00  0.0000000000000000e+00  0.0000000000000000e+00  0.0000000000000000e+00  0.0000000000000000e+00  0.0000000000000000e+00  0.0000000000000000e+00  0.0000000000000000e+00  0.0000000000000000e+00  0.0000000000000000e+00  0.0000000000000000e+00  0.0000000000000000e+00  0.0000000000000000e+00  0.0000000000000000e+00  0.0000000000000000e+00  0.0000000000000000e+00  0.0000000000000000e+00  0.0000000000000000e+00  0.0000000000000000e+00  0.0000000000000000e+00  0.0000000000000000e+00  0.0000000000000000e+00  0.0000000000000000e+00  0.0000000000000000e+00  0.0000000000000000e+00  0.0000000000000000e+00  0.0000000000000000e+00  0.0000000000000000e+00  0.0000000000000000e+00  0.0000000000000000e+00  0.0000000000000000e+00  0.0000000000000000e+00  0.0000000000000000e+00  0.0000000000000000e+00  0.0000000000000000e+00  0.0000000000000000e+00  0.0000000000000000e+00  0.0000000000000000e+00  0.0000000000000000e+00  0.0000000000000000e+00  0.0000000000000000e+00  0.0000000000000000e+00  0.0000000000000000e+00  0.0000000000000000e+00  0.0000000000000000e+00  0.0000000000000000e+00  0.0000000000000000e+00  0.0000000000000000e+00  0.0000000000000000e+00  0.0000000000000000e+00  0.0000000000000000e+00  0.0000000000000000e+00  0.0000000000000000e+00  0.0000000000000000e+00  0.0000000000000000e+00  0.0000000000000000e+00  0.0000000000000000e+00  0.0000000000000000e+00  0.0000000000000000e+00  0.0000000000000000e+00  0.0000000000000000e+00  0.0000000000000000e+00  0.0000000000000000e+00  0.0000000000000000e+00  0.0000000000000000e+00  0.0000000000000000e+00  0.0000000000000000e+00  0.0000000000000000e+00  0.0000000000000000e+00  0.0000000000000000e+00  0.0000000000000000e+00  0.0000000000000000e+00  0.0000000000000000e+00  0.0000000000000000e+00  0.0000000000000000e+00  0.0000000000000000e+00  0.0000000000000000e+00  0.0000000000000000e+00  0.0000000000000000e+00  0.0000000000000000e+00  0.0000000000000000e+00  0.0000000000000000e+00  0.0000000000000000e+00  0.0000000000000000e+00  0.0000000000000000e+00  0.0000000000000000e+00  0.0000000000000000e+00  0.0000000000000000e+00  0.0000000000000000e+00  0.0000000000000000e+00  0.0000000000000000e+00  0.0000000000000000e+00  0.0000000000000000e+00  0.0000000000000000e+00  0.0000000000000000e+00  0.0000000000000000e+00  0.0000000000000000e+00  0.0000000000000000e+00  0.0000000000000000e+00  0.0000000000000000e+00  0.0000000000000000e+00  0.0000000000000000e+00  0.0000000000000000e+00  0.0000000000000000e+00  0.0000000000000000e+00  0.0000000000000000e+00  0.0000000000000000e+00  0.0000000000000000e+00  0.0000000000000000e+00  0.0000000000000000e+00  0.0000000000000000e+00  0.0000000000000000e+00  0.0000000000000000e+00  0.0000000000000000e+00  0.0000000000000000e+00  0.0000000000000000e+00  0.0000000000000000e+00  0.0000000000000000e+00  0.0000000000000000e+00  0.0000000000000000e+00  0.0000000000000000e+00  0.0000000000000000e+00  0.0000000000000000e+00  0.0000000000000000e+00  0.0000000000000000e+00  0.0000000000000000e+00  0.0000000000000000e+00  0.0000000000000000e+00  0.0000000000000000e+00  0.0000000000000000e+00  0.0000000000000000e+00  0.0000000000000000e+00  0.0000000000000000e+00  0.0000000000000000e+00  0.0000000000000000e+00  0.0000000000000000e+00  0.0000000000000000e+00  0.0000000000000000e+00  0.0000000000000000e+00  0.0000000000000000e+00  0.0000000000000000e+00  0.0000000000000000e+00  0.0000000000000000e+00  0.0000000000000000e+00  0.0000000000000000e+00  0.0000000000000000e+00  0.0000000000000000e+00  0.0000000000000000e+00  0.0000000000000000e+00  0.0000000000000000e+00  0.0000000000000000e+00  0.0000000000000000e+00  0.0000000000000000e+00  0.0000000000000000e+00  0.0000000000000000e+00  0.0000000000000000e+00  0.0000000000000000e+00  0.0000000000000000e+00  0.0000000000000000e+00  0.0000000000000000e+00  0.0000000000000000e+00  0.0000000000000000e+00  0.0000000000000000e+00  0.0000000000000000e+00  0.0000000000000000e+00  0.0000000000000000e+00  0.0000000000000000e+00  0.0000000000000000e+00  0.0000000000000000e+00  0.0000000000000000e+00  0.0000000000000000e+00  0.0000000000000000e+00  0.0000000000000000e+00  0.0000000000000000e+00  0.0000000000000000e+00  0.0000000000000000e+00  0.0000000000000000e+00  0.0000000000000000e+00  0.0000000000000000e+00  0.0000000000000000e+00  0.0000000000000000e+00  0.0000000000000000e+00  0.0000000000000000e+00  0.0000000000000000e+00  0.0000000000000000e+00  0.0000000000000000e+00  0.0000000000000000e+00  0.0000000000000000e+00  0.0000000000000000e+00  0.0000000000000000e+00  0.0000000000000000e+00  0.0000000000000000e+00  0.0000000000000000e+00  0.0000000000000000e+00  0.0000000000000000e+00  0.0000000000000000e+00  0.0000000000000000e+00  0.0000000000000000e+00  0.0000000000000000e+00  0.0000000000000000e+00  0.0000000000000000e+00  0.0000000000000000e+00  0.0000000000000000e+00  0.0000000000000000e+00  0.0000000000000000e+00  0.0000000000000000e+00  0.0000000000000000e+00  0.0000000000000000e+00  0.0000000000000000e+00  0.0000000000000000e+00  0.0000000000000000e+00  0.0000000000000000e+00  0.0000000000000000e+00  0.0000000000000000e+00  0.0000000000000000e+00  0.0000000000000000e+00  0.0000000000000000e+00  0.0000000000000000e+00  0.0000000000000000e+00  0.0000000000000000e+00  0.0000000000000000e+00  0.0000000000000000e+00  0.0000000000000000e+00  0.0000000000000000e+00  0.0000000000000000e+00  0.0000000000000000e+00  0.0000000000000000e+00  0.0000000000000000e+00  0.0000000000000000e+00  0.0000000000000000e+00  0.0000000000000000e+00  0.0000000000000000e+00  0.0000000000000000e+00  0.0000000000000000e+00  0.0000000000000000e+00  0.0000000000000000e+00  0.0000000000000000e+00  0.0000000000000000e+00  0.0000000000000000e+00  0.0000000000000000e+00  0.0000000000000000e+00  0.0000000000000000e+00  0.0000000000000000e+00  0.0000000000000000e+00  0.0000000000000000e+00  0.0000000000000000e+00  0.0000000000000000e+00  0.0000000000000000e+00  0.0000000000000000e+00  0.0000000000000000e+00  0.0000000000000000e+00  0.0000000000000000e+00  0.0000000000000000e+00  0.0000000000000000e+00  0.0000000000000000e+00  0.0000000000000000e+00  0.0000000000000000e+00  0.0000000000000000e+00  0.0000000000000000e+00  0.0000000000000000e+00  0.0000000000000000e+00  0.0000000000000000e+00  0.0000000000000000e+00  0.0000000000000000e+00  0.0000000000000000e+00  0.0000000000000000e+00  0.0000000000000000e+00  0.0000000000000000e+00  0.0000000000000000e+00  0.0000000000000000e+00  0.0000000000000000e+00  0.0000000000000000e+00  0.0000000000000000e+00  0.0000000000000000e+00  0.0000000000000000e+00  0.0000000000000000e+00  0.0000000000000000e+00  0.0000000000000000e+00  0.0000000000000000e+00  0.0000000000000000e+00  0.0000000000000000e+00  0.0000000000000000e+00  0.0000000000000000e+00  0.0000000000000000e+00  0.0000000000000000e+00  -2.4038153328629434e+01  -2.6854864112662948e+01  -2.4276030082841764e+01  -3.1155983924675649e+01  -3.3986509629651572e+01  -3.8377155610675558e+01  -4.0779329530840762e+01  -4.6071840698493517e+01  -4.9600821581389106e+01  -5.2713072180018088e+01  -5.5663481829280251e+01  -5.7927765817952199e+01  -5.9884244144952532e+01  -6.1218707068864454e+01  -6.1796001748105901e+01  -6.2075244800234181e+01  -6.1774209352120636e+01  -6.0482692264612709e+01  -5.9034031507603949e+01  -5.6898452006471679e+01  -5.3995082540260462e+01  -5.1094798610586572e+01  -4.7302671828145343e+01  -4.3023780239040924e+01  -4.1764754147330841e+01  -3.4965033119663104e+01  -3.1554340096716608e+01  -3.0104460369092958e+01  -2.6831838530029479e+01  -2.5091810166167512e+01  -2.4226347111936015e+01  -2.6078191157982140e+01  -2.2944939669561105e+01  -2.6960517330740107e+01  -2.9883498694182300e+01  -3.0210864635070521e+01  -3.6831604433691098e+01  -3.9515664839202671e+01  -4.2509527154195148e+01  -4.6475380983698948e+01  -4.9766548422875061e+01  -5.2601477012427729e+01  -5.5033341721490771e+01  -5.7221057407268333e+01  -5.8500555462855367e+01  -5.9704562158967768e+01  -6.0016472332677964e+01  -5.9823694673575474e+01  -5.9024001750120327e+01  -5.7598858689150148e+01  -5.5885870328521044e+01  -5.3518014733204687e+01  -5.0305972977015315e+01  -4.7194668938622925e+01  -4.3728939557270557e+01  -4.0613054474823862e+01  -3.6718737300578987e+01  -3.2291669486202395e+01  -2.9898340896525514e+01  -2.7544492943231855e+01  -2.4766819298989809e+01  -2.4402410455146466e+01  -9.3229198854418538e-01  -9.5933730969781827e-01  -2.2492015041612159e-01  -1.1849187570393895e-01  -1.0457446291006052e+00  -1.1322925963551429e+00  -2.2419771228736546e-01  -2.5041491835400059e-01  -1.4325897243894750e+00  -1.3067080922867831e+00  -5.7856654792954737e-02  2.5642853216676854e-02  -8.4116459980188352e-02  -1.0370050238946193e-01  -1.5217291082101447e+00  -1.5626343646013965e+00  -1.7943284555017300e+00  -1.5585172996054246e+00  7.1713048008674410e-02  5.8541316435062767e-02  -1.5839845235636205e+00  -1.7855108709024048e+00  1.1054112653892348e-01  1.6137476513692012e-01  -1.8798036190930945e+00  -1.7943855687102284e+00  2.0171081409016300e-01  1.9587942514494119e-01  3.0945777847765654e-01  2.3578755361479886e-01  -2.1300602301383886e+00  -1.8599581698337855e+00  -2.6899079669417453e-01  -2.5644002051631970e-01  -1.9633624662122404e-01  -2.9225977476881665e-01  -5.3057065747326659e-01  -6.3516034433813429e-01  -6.4605864285454728e-01  -6.6784868578174994e-01  2.4704911708415342e-01  -1.8925230252892078e+00  -1.8468928074358300e+00  3.1377248796640206e-01  -3.3316744575553742e-01  -4.4004732817053610e-01  -4.1010020050799478e-01  -2.4147227803177088e-01  -2.5247676932939372e-01  -1.9162827964522533e-01  -2.7068827181795452e-01  -4.2015867756152359e-01  -1.6105862854186911e-01  -2.9848197708704999e-01  -2.2982682623399575e-01  -2.0585753601342899e-01  -2.6765968045437855e-01  -2.1475618476692079e-01  -2.7505020280569492e-01  -2.2098402776468587e-01  -1.4966150020692243e-01  -1.5180713467914778e-01  -1.2899889843087886e-01  -1.4368821789817224e-01  -1.1049666532085381e-01  -1.3550692288243907e-01  -1.4547197639889478e-01  -1.6569166377342140e-01  2.3580338836763129e-01  -1.9648941985677677e+00  -1.9372233478326260e+00  2.7854845200772732e-01  -1.9934116731263987e+00  -6.4958394131225030e-03  1.3534288860325117e-01  1.4517004794331700e-01  -2.3774279131002673e-02  -1.3183667764037790e+00  -2.2109767710763442e+00  -1.7559016407591710e+00  -1.6236027820619963e+00  2.0333661708755078e-02  2.5684673345290254e-01  1.7563104843023450e-01  1.0659473635536922e-01  -1.6342412601960670e+00  -2.0155669259038245e+00  -1.5488321412682624e+00  -1.4823049700818693e+00  -1.2606070926990969e+00  -1.5366739272602953e-01  -1.7392467994769392e-01  -1.0496212292158267e+00  -1.1284252982097331e+00  -1.3327948986787638e-01  -4.9216871684682813e-02  -1.7239849159216847e-01  -8.3327566557173949e-01  -8.5322267737260560e-01  -2.8056741768793358e-01  -9.5168353771700720e-01  -2.5679405415945789e-01  -2.5002629523696462e-01  -6.3749008346391700e-01  -7.5934854069797816e-02  -6.4280590659903977e-02  -7.6261747971872504e-02  -9.0721330062439820e-02  -6.2891743490546229e-02  -8.1723900467702365e-02  -8.1701926917782566e-02  -6.7548066384318539e-02  2.3847032450542924e-01  -2.0939116701385005e+00  -2.4441833996193183e+00  2.9916941438610106e-01  -1.1435595209235196e+00  -1.8926799462298904e-01  -9.2886382650530466e-02  -1.2135707505270403e+00  -1.9249844607315039e-01  -1.0156358152895157e+00  -1.2122331074535972e+00  -2.1449928978744379e-01  -1.9958048042420315e-01  -6.1782811886818312e-01  -6.5173743546357588e-01  -2.6917624576750959e-01  -2.6228816518882453e-01  -5.0111528185763621e-01  -5.5354504807145344e-01  -2.9104972242043287e-01  -1.8160785089067788e-01  -1.3878687679193871e-01  -3.3916669207433298e-01  -2.2354977526665673e-01  -2.6765858850871926e-01  -1.7728452206456780e-01  -2.3234195725911183e-01  -1.7389856777793458e-01  -3.6056257500495387e-01  -2.6844303711410933e-01  -2.4204399795479228e-01  -1.8169282534050013e-01  -2.5298894496866764e-01  -1.8660957257274230e-01  -3.6597153743389271e-01  -2.2288874173605372e-01  -3.6573871561203654e-02  -3.4672909030016033e-02  -2.7406208381047445e-02  -3.8999756425999899e-02  2.4434396850366066e-01  4.7854635648760746e-01  4.6368615622069875e-01  6.9495874978416550e-01  6.6808441681716857e-01  8.8606645537900297e-01  8.4460654537147850e-01  1.0444570562211322e+00  9.8525831671675956e-01  1.1626144792831663e+00  1.0830258176574692e+00  1.2332189560529025e+00  1.1308275900270355e+00  1.2490575498913778e+00  1.1216752064223221e+00  1.2030096943862780e+00  1.0485343027545251e+00  1.0881658250665818e+00  9.0546551572524547e-01  8.9827735367352091e-01  6.8583826046123786e-01  1.0867155931433583e+00  6.2566054949389505e-01  3.8369921447778371e-01  2.6598907643619885e-01  -5.7824873097433597e-03  -1.8398191179036660e-01  -4.8696668255013081e-01  -7.3152506157950670e-01  -1.0640397914202531e+00  -1.3787380679545094e+00  -1.7397173070011378e+00  -1.0384785816786399e+00  -2.1287544017365496e+00  -2.5160882153301034e+00  -2.9837405919219853e+00  -3.3941459568899504e+00  -3.9427923426306739e+00  -4.3737285147363210e+00  -5.0051449742189682e+00  -5.4536007220336078e+00  -6.1692863994416012e+00  -6.6315141884159470e+00  -5.7110414618201091e+00  -7.4322017689791693e+00  -7.9043231923907147e+00  -8.7900422573163048e+00  -9.2673002121562558e+00  -8.3548369951841668e+00  -9.7228794238354723e+00  -1.0714630379194915e+01  -1.1171707306016989e+01  -1.0164537270792518e+01  -1.1601456008224831e+01  -1.0582483012210323e+01  -1.1998535214874288e+01  -1.3102246148429252e+01  -1.3474668957578201e+01  -1.2354915995920789e+01  -1.3801943539521394e+01  -1.2667589310826070e+01  -1.4080234852401636e+01  -1.5295826078698401e+01  -1.5533121279583572e+01  -1.4306446505675897e+01  -1.5713667848623995e+01  -1.7017219074481336e+01  -1.7145688169834973e+01  -1.5835579727570897e+01  -1.7211489800180129e+01  -1.8593037848949400e+01  -1.8596565311359463e+01  -2.0045623595244948e+01  -1.5897722152504670e+01  -1.9981005077585120e+01  -2.1493103715613731e+01  -2.1354767333093388e+01  -2.2924903945762107e+01  -2.2707671822299826e+01  -2.4330245461075297e+01  -2.4029519697435582e+01  -2.5698684857953687e+01  -2.2417465827703321e+01  -2.5310105805803275e+01  -2.7019555929199100e+01  -2.6539495847515433e+01  -2.8282607011493010e+01  -2.7708131605775506e+01  -2.9478043204193195e+01  -2.8806780173923535e+01  -3.0596512310746512e+01  -2.9826912830056223e+01  -3.1629413244370291e+01  -3.0760537218128889e+01  -3.2568751804857399e+01  -2.8060100016072425e+01  -2.4554190940960513e+01  -3.5467913357473094e+01  -3.1600346104162231e+01  -3.3407527061931461e+01  -3.2340310824326515e+01  -3.4139553093401126e+01  -4.6953039128917943e+01  -3.2974854515727856e+01  -3.4759663552821678e+01  -5.5434879268417141e+01  -3.3499539266398770e+01  -3.5263716607694938e+01  -3.6548846183455453e+01  -3.7026168776291676e+01  -3.5648628439177770e+01  -3.7378642463982587e+01  -3.1286532857354644e+01  -3.1742478664720771e+01  -3.5912500222288742e+01  -3.7604872565508082e+01  -3.9091242647593575e+01  -3.9273621361213166e+01  -3.7704047533104244e+01  -3.9324717545200329e+01  -4.0908702381040442e+01  -4.0905653840053184e+01  -3.9245738692169859e+01  -4.0768992216725970e+01  -4.2436523143447914e+01  -4.2236602555429606e+01  -4.0501754182994404e+01  -4.1903434145300785e+01  -4.3642136095183943e+01  -4.3236204009234775e+01  -4.1442436124346983e+01  -4.2700721997464242e+01  -4.4484390844384521e+01  -4.3872656850308417e+01  -4.2043524126147908e+01  -4.3139263073110627e+01  -4.4948049941280679e+01  -4.4135401504896585e+01  -4.5917104700364511e+01  -4.5022389378729734e+01  -4.3208233498394002e+01  -4.4014810792883949e+01  -4.5790957378134813e+01  -4.4701613160296027e+01  -4.2904022050357391e+01  -4.3511976288340954e+01  -4.5260630473624900e+01  -4.3991964266995502e+01  -4.5684326294678790e+01  -4.4337269276017317e+01  -4.5966143510571257e+01  -4.4542148007676658e+01  -4.2909134383720229e+01  -4.3042272110058377e+01  -4.4601810610032970e+01  -4.3032987966559119e+01  -4.4512502613457812e+01  -4.2878390001317911e+01  -4.4271679817977230e+01  -4.2576743242306556e+01  -4.3878113596456664e+01  -4.2127609541381972e+01  -4.0836836325005166e+01  -4.0339286887456431e+01  -4.1531999322391684e+01  -3.9702328748637981e+01  -4.0792203601485028e+01  -3.8927670702801585e+01  -3.9912057924442593e+01  -3.8020136292756497e+01  -3.8898875492623162e+01  -3.6985408665864881e+01  -3.7755481720220324e+01  -3.5831855218862280e+01  -3.6489678415438057e+01  -3.4566230394019328e+01  -3.5114856338248124e+01  -3.3199183533813937e+01  -3.3646324914618887e+01  -3.1742231028308691e+01  -3.2084585252696968e+01  -3.0205468435321993e+01  -3.0440400558508756e+01  -2.8600191093716717e+01  -2.8739144558932164e+01  -2.6941965263816048e+01  -2.6991130713482832e+01  -2.6802401116900818e+01  -2.5191218254099660e+01  -2.5053482101667889e+01  -2.3493787738892323e+01  -2.3359428375758210e+01  -2.1855494094632729e+01  -2.1726249847162009e+01  -2.0280837762078150e+01  -2.0157724627673979e+01  -1.8773476263358614e+01  -1.8820610671060681e+01  -1.8656860413277858e+01  -3.70536991