<?xml version="1.0"?>
<VTKFile type="UnstructuredGrid"  version="0.1"  >
<UnstructuredGrid>
<Piece  NumberOfPoints="11902" NumberOfCells="23402">
<Points>
<DataArray  type="Float64"  NumberOfComponents="3"  format="ascii">-5 -5 0  5 -5 0  5 5 0  -5 5 0  1.95473485823254 0.01848856953588786 0  -4.9 -5 0  -4.8 -5 0  -4.7 -5 0  -4.6 -5 0  -4.5 -5 0  -4.4 -5 0  -4.3 -5 0  -4.2 -5 0  -4.1 -5 0  -4 -5 0  -3.9 -5 0  -3.8 -5 0  -3.7 -5 0  -3.6 -5 0  -3.5 -5 0  -3.4 -5 0  -3.3 -5 0  -3.2 -5 0  -3.1 -5 0  -3 -5 0  -2.9 -5 0  -2.8 -5 0  -2.7 -5 0  -2.6 -5 0  -2.5 -5 0  -2.4 -5 0  -2.3 -5 0  -2.2 -5 0  -2.1 -5 0  -2 -5 0  -1.9 -5 0  -1.8 -5 0  -1.7 -5 0  -1.6 -5 0  -1.5 -5 0  -1.4 -5 0  -1.3 -5 0  -1.2 -5 0  -1.1 -5 0  -1 -5 0  -0.9000000000000004 -5 0  -0.7999999999999998 -5 0  -0.7000000000000002 -5 0  -0.5999999999999996 -5 0  -0.5 -5 0  -0.4000000000000004 -5 0  -0.2999999999999998 -5 0  -0.2000000000000002 -5 0  -0.09999999999999964 -5 0  0 -5 0  0.09999999999999964 -5 0  0.2000000000000002 -5 0  0.2999999999999998 -5 0  0.4000000000000004 -5 0  0.5 -5 0  0.5999999999999996 -5 0  0.7000000000000002 -5 0  0.7999999999999998 -5 0  0.9000000000000004 -5 0  1 -5 0  1.1 -5 0  1.2 -5 0  1.3 -5 0  1.4 -5 0  1.5 -5 0  1.6 -5 0  1.7 -5 0  1.8 -5 0  1.9 -5 0  2 -5 0  2.1 -5 0  2.2 -5 0  2.3 -5 0  2.4 -5 0  2.5 -5 0  2.6 -5 0  2.7 -5 0  2.8 -5 0  2.9 -5 0  3 -5 0  3.1 -5 0  3.199999999999999 -5 0  3.300000000000001 -5 0  3.4 -5 0  3.5 -5 0  3.6 -5 0  3.699999999999999 -5 0  3.800000000000001 -5 0  3.9 -5 0  4 -5 0  4.1 -5 0  4.199999999999999 -5 0  4.300000000000001 -5 0  4.4 -5 0  4.5 -5 0  4.6 -5 0  4.699999999999999 -5 0  4.800000000000001 -5 0  4.9 -5 0  5 -4.9 0  5 -4.8 0  5 -4.7 0  5 -4.6 0  5 -4.5 0  5 -4.4 0  5 -4.3 0  5 -4.2 0  5 -4.1 0  5 -4 0  5 -3.9 0  5 -3.8 0  5 -3.7 0  5 -3.6 0  5 -3.5 0  5 -3.4 0  5 -3.3 0  5 -3.2 0  5 -3.1 0  5 -3 0  5 -2.9 0  5 -2.8 0  5 -2.7 0  5 -2.6 0  5 -2.5 0  5 -2.4 0  5 -2.3 0  5 -2.2 0  5 -2.1 0  5 -2 0  5 -1.9 0  5 -1.8 0  5 -1.7 0  5 -1.6 0  5 -1.5 0  5 -1.4 0  5 -1.3 0  5 -1.2 0  5 -1.1 0  5 -1 0  5 -0.9000000000000004 0  5 -0.7999999999999998 0  5 -0.7000000000000002 0  5 -0.5999999999999996 0  5 -0.5 0  5 -0.4000000000000004 0  5 -0.2999999999999998 0  5 -0.2000000000000002 0  5 -0.09999999999999964 0  5 0 0  5 0.09999999999999964 0  5 0.2000000000000002 0  5 0.2999999999999998 0  5 0.4000000000000004 0  5 0.5 0  5 0.5999999999999996 0  5 0.7000000000000002 0  5 0.7999999999999998 0  5 0.9000000000000004 0  5 1 0  5 1.1 0  5 1.2 0  5 1.3 0  5 1.4 0  5 1.5 0  5 1.6 0  5 1.7 0  5 1.8 0  5 1.9 0  5 2 0  5 2.1 0  5 2.2 0  5 2.3 0  5 2.4 0  5 2.5 0  5 2.6 0  5 2.7 0  5 2.8 0  5 2.9 0  5 3 0  5 3.1 0  5 3.199999999999999 0  5 3.300000000000001 0  5 3.4 0  5 3.5 0  5 3.6 0  5 3.699999999999999 0  5 3.800000000000001 0  5 3.9 0  5 4 0  5 4.1 0  5 4.199999999999999 0  5 4.300000000000001 0  5 4.4 0  5 4.5 0  5 4.6 0  5 4.699999999999999 0  5 4.800000000000001 0  5 4.9 0  4.9 5 0  4.8 5 0  4.7 5 0  4.6 5 0  4.5 5 0  4.4 5 0  4.3 5 0  4.2 5 0  4.1 5 0  4 5 0  3.9 5 0  3.8 5 0  3.7 5 0  3.6 5 0  3.5 5 0  3.4 5 0  3.3 5 0  3.2 5 0  3.1 5 0  3 5 0  2.9 5 0  2.8 5 0  2.7 5 0  2.6 5 0  2.5 5 0  2.4 5 0  2.3 5 0  2.2 5 0  2.1 5 0  2 5 0  1.9 5 0  1.8 5 0  1.7 5 0  1.6 5 0  1.5 5 0  1.4 5 0  1.3 5 0  1.2 5 0  1.1 5 0  1 5 0  0.9000000000000004 5 0  0.7999999999999998 5 0  0.7000000000000002 5 0  0.5999999999999996 5 0  0.5 5 0  0.4000000000000004 5 0  0.2999999999999998 5 0  0.2000000000000002 5 0  0.09999999999999964 5 0  0 5 0  -0.09999999999999964 5 0  -0.2000000000000002 5 0  -0.2999999999999998 5 0  -0.4000000000000004 5 0  -0.5 5 0  -0.5999999999999996 5 0  -0.7000000000000002 5 0  -0.7999999999999998 5 0  -0.9000000000000004 5 0  -1 5 0  -1.1 5 0  -1.2 5 0  -1.3 5 0  -1.4 5 0  -1.5 5 0  -1.6 5 0  -1.7 5 0  -1.8 5 0  -1.9 5 0  -2 5 0  -2.1 5 0  -2.2 5 0  -2.3 5 0  -2.4 5 0  -2.5 5 0  -2.6 5 0  -2.7 5 0  -2.8 5 0  -2.9 5 0  -3 5 0  -3.1 5 0  -3.199999999999999 5 0  -3.300000000000001 5 0  -3.4 5 0  -3.5 5 0  -3.6 5 0  -3.699999999999999 5 0  -3.800000000000001 5 0  -3.9 5 0  -4 5 0  -4.1 5 0  -4.199999999999999 5 0  -4.300000000000001 5 0  -4.4 5 0  -4.5 5 0  -4.6 5 0  -4.699999999999999 5 0  -4.800000000000001 5 0  -4.9 5 0  -5 4.9 0  -5 4.8 0  -5 4.7 0  -5 4.6 0  -5 4.5 0  -5 4.4 0  -5 4.3 0  -5 4.2 0  -5 4.1 0  -5 4 0  -5 3.9 0  -5 3.8 0  -5 3.7 0  -5 3.6 0  -5 3.5 0  -5 3.4 0  -5 3.3 0  -5 3.2 0  -5 3.1 0  -5 3 0  -5 2.9 0  -5 2.8 0  -5 2.7 0  -5 2.6 0  -5 2.5 0  -5 2.4 0  -5 2.3 0  -5 2.2 0  -5 2.1 0  -5 2 0  -5 1.9 0  -5 1.8 0  -5 1.7 0  -5 1.6 0  -5 1.5 0  -5 1.4 0  -5 1.3 0  -5 1.2 0  -5 1.1 0  -5 1 0  -5 0.9000000000000004 0  -5 0.7999999999999998 0  -5 0.7000000000000002 0  -5 0.5999999999999996 0  -5 0.5 0  -5 0.4000000000000004 0  -5 0.2999999999999998 0  -5 0.2000000000000002 0  -5 0.09999999999999964 0  -5 0 0  -5 -0.09999999999999964 0  -5 -0.2000000000000002 0  -5 -0.2999999999999998 0  -5 -0.4000000000000004 0  -5 -0.5 0  -5 -0.5999999999999996 0  -5 -0.7000000000000002 0  -5 -0.7999999999999998 0  -5 -0.9000000000000004 0  -5 -1 0  -5 -1.1 0  -5 -1.2 0  -5 -1.3 0  -5 -1.4 0  -5 -1.5 0  -5 -1.6 0  -5 -1.7 0  -5 -1.8 0  -5 -1.9 0  -5 -2 0  -5 -2.1 0  -5 -2.2 0  -5 -2.3 0  -5 -2.4 0  -5 -2.5 0  -5 -2.6 0  -5 -2.7 0  -5 -2.8 0  -5 -2.9 0  -5 -3 0  -5 -3.1 0  -5 -3.199999999999999 0  -5 -3.300000000000001 0  -5 -3.4 0  -5 -3.5 0  -5 -3.6 0  -5 -3.699999999999999 0  -5 -3.800000000000001 0  -5 -3.9 0  -5 -4 0  -5 -4.1 0  -5 -4.199999999999999 0  -5 -4.300000000000001 0  -5 -4.4 0  -5 -4.5 0  -5 -4.6 0  -5 -4.699999999999999 0  -5 -4.800000000000001 0  -5 -4.9 0  2.301298307069707 0.2460220750650572 0  1.938877045989198 0.3706026444728808 0  2.257867460900239 0.6670505891050372 0  1.763507881301784 0.6724857679694198 0  1.775779554860866 0.9194042718686157 0  1.527664502514747 1.00156511401894 0  1.414250609323579 1.224936657006594 0  1.182615879665402 1.081366145601968 0  1.129054985894429 1.310695438593603 0  0.9493448328890982 1.437749997217736 0  0.779798897377412 1.448837294579645 0  0.6441654550386915 1.492078557585194 0  0.4611190728609783 1.576155046280807 0  0.2951305743550929 1.604846071704728 0  0.1331997463906148 1.638939817203004 0  -0.0237728222778557 1.632107976848255 0  -0.2301447635478601 1.600634496220013 0  -0.3926540695781345 1.597909673760551 0  -0.5452756306089325 1.550510116597221 0  -0.7027205383733385 1.47409397649709 0  -0.8747130305148403 1.441260802776979 0  -1.033809035019565 1.328627794822665 0  -1.183799546986022 1.229474521173831 0  -1.406190029941293 1.275145457187635 0  -1.295223619328768 0.9214882510983271 0  -1.599632682776406 1.008563478947667 0  -1.876531677938272 0.8889258524432418 0  -1.826203622296026 0.6621666425510329 0  -2.080598543991317 0.5499697771112096 0  -2.152379904538338 0.3014875588538614 0  -2.220594727018821 0.07233245113440975 0  -1.896846991422777 -0.1360303307358302 0  -2.400462360025791 -0.4022948726407531 0  -1.960784512782909 -0.4370332616664458 0  -1.853080279292214 -0.654203331795693 0  -1.903149589107632 -0.9184439841775834 0  -1.509359177787237 -0.8447867019280082 0  -1.532756452235411 -1.057681918531388 0  -1.365466432562815 -1.209464943689299 0  -1.162327529091913 -1.220889364798768 0  -1.027395505858425 -1.353129669147988 0  -0.8678816298395711 -1.468652104408927 0  -0.7000186432224992 -1.50237923160487 0  -0.5378516108971919 -1.544873882068478 0  -0.3809741263463272 -1.611409162914136 0  -0.2114591510516199 -1.615159053912184 0  -0.04783383578152202 -1.635583768713004 0  0.1410502658411184 -1.631238981466147 0  0.2912198280989038 -1.622419794522781 0  0.4688952519855126 -1.589605942905898 0  0.628542149901865 -1.528603731289829 0  0.7735685470556773 -1.417992960286093 0  0.949872208567024 -1.433616510504999 0  1.115267808953972 -1.317661609507761 0  1.289661171095314 -1.264849755460657 0  1.402856029700884 -1.105439578744934 0  1.520974026648138 -0.9660141721716263 0  1.766653665950781 -0.9200440863678726 0  1.866074655070533 -0.7578144336296796 0  1.91436407849635 -0.5513110083276158 0  2.194250372529704 -0.4352023101928051 0  2.164393153312099 -0.1945105442000487 0  -2.449839792521687 4.920161600653738 0  -2.449798693817372 -4.912710504909868 0  4.911380121549518 2.448431570913793 0  4.919404862808442 -2.449758155638408 0  2.44772290953466 -4.898295116579332 0  2.442128099429552 4.902041965939021 0  -4.911417024551138 -2.448446099621982 0  -4.911462932731687 2.448451502994317 0  -1.750077544191466 4.914216304774208 0  -1.745773138375341 -4.917494646411537 0  4.921150647664094 1.744124920786097 0  4.909718154430833 -1.748032831401876 0  -4.910072870661031 -1.747729195962193 0  -4.9109327678464 1.747470620006223 0  1.747471681851743 4.90828354374366 0  1.749035811298971 -4.896789703753179 0  -1.150206922356294 4.912970450902347 0  -1.130926325604936 -4.92041468681674 0  -4.90920556856676 -1.14776054251838 0  -4.909050099672998 1.14755015535899 0  1.145098605387244 -4.916797851048649 0  1.150217287496306 4.912925347037213 0  4.90932695466062 1.146024080238909 0  4.920122623646836 -1.151712128548627 0  -0.5474066714462438 -4.914632813979608 0  -0.5471218513859519 4.922957272198077 0  -4.907298600347291 -0.5485039895722074 0  -4.907337192336538 0.5470385726975041 0  4.906500314442842 -0.5488295867777712 0  4.918285228380197 0.5455213811769252 0  0.5433244776690321 -4.902163714935845 0  0.5518799677342698 4.919941018864423 0  -4.912824296316932 -3.048916187391931 0  4.919340576916358 3.046865362671805 0  4.91232637913677 -3.048891465832039 0  -4.913698511290058 3.045996811095683 0  3.056250858479841 -4.918819353681811 0  -3.049635812588738 -4.912782454330357 0  3.053193449238002 4.914894176109962 0  -3.049117690781592 4.913733378918801 0  -4.906142655740759 -0.04989243420989092 0  0.04518856863436378 -4.916684024018293 0  0.04962971369750732 4.923406141733206 0  4.913193478990966 -0.0512912707250506 0  3.546260619868062 -4.919966361144623 0  -3.549624336137911 4.913003639087443 0  -3.549589049308139 -4.913015449460458
[...]
<PointData  Vectors="f_5534"> 
<DataArray  type="Float64"  Name="f_5534"  NumberOfComponents="3" format="ascii">-1.5231429572444663e-01 -1.7773222633451824e-01 0.0000000000000000e+00  1.6571779699442021e-01 -1.4019146264752114e-01 0.0000000000000000e+00  9.6941134723541364e-02 1.1324144448966976e-01 0.0000000000000000e+00  -1.6001450057757194e-01 1.8270305331049777e-01 0.0000000000000000e+00  1.0812448000214266e+01 -3.2707171207262218e+00 0.0000000000000000e+00  5.8624650676713679e-02 -1.3460915855557773e+00 0.0000000000000000e+00  4.9363188322650180e-02 -2.1851995596167955e+00 0.0000000000000000e+00  5.2244271437621004e-02 -3.6068200986835888e+00 0.0000000000000000e+00  3.9980977964416742e-02 -4.4584908859095966e+00 0.0000000000000000e+00  -9.7654024794308208e-02 -5.7919156700471452e+00 0.0000000000000000e+00  1.9826545487220612e-02 -7.1139772527696277e+00 0.0000000000000000e+00  3.4674653825547526e-02 -8.1106636734278812e+00 0.0000000000000000e+00  -1.6211180526423567e-02 -9.3280660427161592e+00 0.0000000000000000e+00  6.0751782154132981e-02 -1.0278331811626479e+01 0.0000000000000000e+00  6.1380636362978892e-02 -1.1663275616499414e+01 0.0000000000000000e+00  -9.3684691877932592e-03 -1.2588257968789955e+01 0.0000000000000000e+00  -1.6650734706926729e-02 -1.3803028219347915e+01 0.0000000000000000e+00  7.5072931996508540e-03 -1.4985524309332671e+01 0.0000000000000000e+00  5.1290879013897268e-03 -1.6101804465650964e+01 0.0000000000000000e+00  -6.2358632049067759e-03 -1.7236158504972110e+01 0.0000000000000000e+00  4.0617642274717878e-03 -1.8416342743016767e+01 0.0000000000000000e+00  2.4176044774085623e-02 -1.9555196434045573e+01 0.0000000000000000e+00  -3.2843050632653213e-03 -2.0458614914202563e+01 0.0000000000000000e+00  -7.8865284185372329e-03 -2.1704741312125826e+01 0.0000000000000000e+00  -3.1096105159996862e-02 -2.2950113771617787e+01 0.0000000000000000e+00  8.1251995163977658e-02 -2.3826765241001031e+01 0.0000000000000000e+00  3.6285371289190009e-02 -2.5093571843457401e+01 0.0000000000000000e+00  4.3433867355996740e-02 -2.5916127502960510e+01 0.0000000000000000e+00  7.1848857407784059e-02 -2.7130485565412062e+01 0.0000000000000000e+00  -3.3669031888118726e-02 -2.7982242892474563e+01 0.0000000000000000e+00  -1.1305152105911723e-02 -2.9148807125153724e+01 0.0000000000000000e+00  -4.1936767859517311e-03 -3.0236254893030505e+01 0.0000000000000000e+00  5.2730377797402334e-02 -3.1003931726353184e+01 0.0000000000000000e+00  3.8335034010437759e-02 -3.2171068525854572e+01 0.0000000000000000e+00  3.8196209859326598e-02 -3.2862037816810549e+01 0.0000000000000000e+00  -8.5745829805204371e-02 -3.3915312059478545e+01 0.0000000000000000e+00  3.7230381581995493e-02 -3.4904027569781483e+01 0.0000000000000000e+00  5.7939096323239517e-03 -3.5619123059686480e+01 0.0000000000000000e+00  -1.2006320202461386e-03 -3.6421504107492382e+01 0.0000000000000000e+00  -1.3847773257109673e-03 -3.7190748695197037e+01 0.0000000000000000e+00  6.4075052020252654e-03 -3.7924674385866346e+01 0.0000000000000000e+00  -3.6960994509332219e-02 -3.8685294048027792e+01 0.0000000000000000e+00  4.5022076388952087e-02 -3.9259873560995786e+01 0.0000000000000000e+00  2.4272278930818351e-02 -3.9854646108188966e+01 0.0000000000000000e+00  1.8418252438978582e-02 -4.0462176250081313e+01 0.0000000000000000e+00  -1.0294231871670216e-02 -4.0987120470674107e+01 0.0000000000000000e+00  4.3494081911293392e-02 -4.1345041708562412e+01 0.0000000000000000e+00  -3.2060983459165165e-02 -4.1831773727371584e+01 0.0000000000000000e+00  1.7767739611898040e-02 -4.2232468642464895e+01 0.0000000000000000e+00  -3.8171732858728372e-03 -4.2479145101173081e+01 0.0000000000000000e+00  1.3019776075463981e-03 -4.2739753469848232e+01 0.0000000000000000e+00  -9.1860979872972670e-04 -4.2933522003853881e+01 0.0000000000000000e+00  4.2060676334277800e-04 -4.3071733706470866e+01 0.0000000000000000e+00  2.4036961294897455e-04 -4.3152615169571803e+01 0.0000000000000000e+00  1.8536926362533364e-03 -4.3176872210887403e+01 0.0000000000000000e+00  5.5211341265230308e-04 -4.3155572562407137e+01 0.0000000000000000e+00  8.5378104545710248e-03 -4.3056698724024450e+01 0.0000000000000000e+00  -1.1478438335323042e-02 -4.2876888461273651e+01 0.0000000000000000e+00  -5.7852100358041078e-03 -4.2721695592807400e+01 0.0000000000000000e+00  -2.2067489407093851e-02 -4.2405393064650966e+01 0.0000000000000000e+00  7.1959077747010694e-03 -4.2148367169438508e+01 0.0000000000000000e+00  6.1543335525203668e-03 -4.1761369913205243e+01 0.0000000000000000e+00  -4.4986157416653664e-03 -4.1322869009358740e+01 0.0000000000000000e+00  -9.3028608403599583e-04 -4.0864804964450144e+01 0.0000000000000000e+00  5.5402060727642232e-03 -4.0338371104217906e+01 0.0000000000000000e+00  -1.2431905153516715e-02 -3.9768680531662142e+01 0.0000000000000000e+00  -7.7862568522168276e-03 -3.9133619279516559e+01 0.0000000000000000e+00  8.5571737292685270e-03 -3.8560776267442172e+01 0.0000000000000000e+00  -2.0434073009404589e-02 -3.7800236914844199e+01 0.0000000000000000e+00  2.3663750326160152e-02 -3.7055033101568355e+01 0.0000000000000000e+00  -3.0084049455240826e-02 -3.6288149969905554e+01 0.0000000000000000e+00  5.4886299011518884e-03 -3.5435063265025313e+01 0.0000000000000000e+00  1.4841018502256883e-02 -3.4664507021559558e+01 0.0000000000000000e+00  -2.1656948637550480e-02 -3.3754100505716089e+01 0.0000000000000000e+00  1.5293989930531158e-02 -3.2829100279738810e+01 0.0000000000000000e+00  -1.1477973894157681e-02 -3.1893852388978690e+01 0.0000000000000000e+00  4.9693763591439353e-03 -3.0955609333321785e+01 0.0000000000000000e+00  -2.0742577152596163e-02 -2.9990852157175883e+01 0.0000000000000000e+00  -6.7641934845633668e-03 -2.8941395774571962e+01 0.0000000000000000e+00  9.4362763972149974e-03 -2.8067868175816823e+01 0.0000000000000000e+00  1.7585889661979812e-03 -2.6965657709188193e+01 0.0000000000000000e+00  8.4445923681745541e-03 -2.5895293138408274e+01 0.0000000000000000e+00  -3.0249052569869428e-02 -2.4850703392869065e+01 0.0000000000000000e+00  -1.1128617223843193e-02 -2.3673624244257848e+01 0.0000000000000000e+00  1.9568117454659677e-02 -2.2708817400080271e+01 0.0000000000000000e+00  -2.9728506764212074e-02 -2.1529378785872172e+01 0.0000000000000000e+00  1.5168667538458468e-03 -2.0480318913850148e+01 0.0000000000000000e+00  1.1490147087593928e-02 -1.9406743986039594e+01 0.0000000000000000e+00  1.2540899336457330e-02 -1.8220624501184126e+01 0.0000000000000000e+00  -3.5256238986408305e-02 -1.7139230229256039e+01 0.0000000000000000e+00  6.8703151608522570e-03 -1.5937545703132441e+01 0.0000000000000000e+00  7.9232007378273288e-03 -1.4920636169977458e+01 0.0000000000000000e+00  -2.8046851245675103e-02 -1.3696783759811096e+01 0.0000000000000000e+00  -5.7384338762159215e-04 -1.2613015570802748e+01 0.0000000000000000e+00  1.5426699888172638e-02 -1.1444105949143214e+01 0.0000000000000000e+00  -8.7100050754602043e-04 -1.0286168972397405e+01 0.0000000000000000e+00  -1.5202950536390836e-02 -9.1686534239012509e+00 0.0000000000000000e+00  -1.1687928050878281e-02 -7.9777764120628465e+00 0.0000000000000000e+00  2.2616485712507187e-02 -6.9606739723847886e+00 0.0000000000000000e+00  -3.4436311718956142e-02 -5.7273241854018258e+00 0.0000000000000000e+00  8.2613327869598616e-03 -4.6080958708972810e+00 0.0000000000000000e+00  1.8918969112134261e-02 -3.4309765399787588e+00 0.0000000000000000e+00  -2.9569547503079757e-02 -2.2783376033872482e+00 0.0000000000000000e+00  -3.6370954506462903e-02 -1.3188456410644478e+00 0.0000000000000000e+00  1.3725458912981381e+00 3.2970459244534692e-02 0.0000000000000000e+00  2.2023550486224441e+00 8.4117364824503146e-02 0.0000000000000000e+00  3.5445009501192373e+00 6.1553374141519901e-02 0.0000000000000000e+00  4.5301251548517412e+00 -1.8840715828728941e-02 0.0000000000000000e+00  5.7568984031587247e+00 8.8748080219149001e-03 0.0000000000000000e+00  6.8868894746032900e+00 -6.3774211116230661e-03 0.0000000000000000e+00  8.0328219919249211e+00 1.2478987429608592e-03 0.0000000000000000e+00  9.1838632979041197e+00 -1.8887747044896578e-03 0.0000000000000000e+00  1.0326775871717668e+01 5.4334659627675475e-04 0.0000000000000000e+00  1.1495573024189659e+01 -3.5598764745636493e-04 0.0000000000000000e+00  1.2627762451543420e+01 -3.8958937563472038e-05 0.0000000000000000e+00  1.3789517135228856e+01 3.8951983165296101e-03 0.0000000000000000e+00  1.4902335497574793e+01 1.6187088073049928e-03 0.0000000000000000e+00  1.6092371918245810e+01 -7.7648212337333589e-03 0.0000000000000000e+00  1.7209979350264003e+01 3.9298676379920794e-03 0.0000000000000000e+00  1.8392283068434466e+01 3.2913829573447324e-03 0.0000000000000000e+00  1.9500173384447013e+01 -3.3436315061389933e-03 0.0000000000000000e+00  2.0621222357749762e+01 7.7467821854311555e-03 0.0000000000000000e+00  2.1794230758567952e+01 -7.6506223844334418e-03 0.0000000000000000e+00  2.2887862593573352e+01 -5.1485194349097747e-03 0.0000000000000000e+00  2.4034891512293115e+01 1.0567059669107481e-02 0.0000000000000000e+00  2.5158641375500284e+01 -1.1446968862912492e-02 0.0000000000000000e+00  2.6201742240614873e+01 8.2284253911747689e-03 0.0000000000000000e+00  2.7316704304508175e+01 1.8929452003029702e-03 0.0000000000000000e+00  2.8418763519749977e+01 4.9356111672194114e-03 0.0000000000000000e+00  2.9500562244246385e+01 -2.9966376322755773e-03 0.0000000000000000e+00  3.0545362691534738e+01 -2.1275943325830245e-03 0.0000000000000000e+00  3.1563311552816717e+01 -1.5923237174479625e-03 0.0000000000000000e+00  3.2575334789647165e+01 9.2213491250024945e-05 0.0000000000000000e+00  3.3565499259171993e+01 -4.0236566624824046e-04 0.0000000000000000e+00  3.4531652714951917e+01 2.2198003906463988e-04 0.0000000000000000e+00  3.5469904841673490e+01 -2.3865044746195054e-03 0.0000000000000000e+00  3.6369188553867133e+01 -9.7980621519955539e-04 0.0000000000000000e+00  3.7261200976544096e+01 4.5805051163985751e-03 0.0000000000000000e+00  3.8117973435567045e+01 -7.2829335759534300e-03 0.0000000000000000e+00  3.8884133202830441e+01 7.4221233839260343e-03 0.0000000000000000e+00  3.9661330121977784e+01 -7.8211337080257546e-04 0.0000000000000000e+00  4.0379784881070968e+01 8.5270704366436564e-03 0.0000000000000000e+00  4.1045300071623146e+01 1.0923212815653501e-02 0.0000000000000000e+00  4.1711088664573694e+01 -3.2776347117307578e-02 0.0000000000000000e+00  4.2336915132289263e+01 2.4024964572541579e-02 0.0000000000000000e+00  4.2811816843584985e+01 -1.0374996009476131e-02 0.0000000000000000e+00  4.3303345530532319e+01 1.4046773067410358e-03 0.0000000000000000e+00  4.3722462625246166e+01 -3.3178714563497158e-03 0.0000000000000000e+00  4.4062652480933885e+01 7.1668209804561485e-03 0.0000000000000000e+00  4.4360090251512766e+01 -1.2352489909601854e-03 0.0000000000000000e+00  4.4603992718023626e+01 5.7424416454524019e-04 0.0000000000000000e+00  4.4780236180367744e+01 -8.1103191339397670e-04 0.0000000000000000e+00  4.4891132279528037e+01 -2.9140851608919482e-04 0.0000000000000000e+00  4.4934203904074074e+01 6.1611902346075215e-04 0.0000000000000000e+00  4.4915260645485112e+01 7.3999705394437517e-04 0.0000000000000000e+00  4.4834262994996493e+01 -1.6953488955886642e-03 0.0000000000000000e+00  4.4682927799452919e+01 1.8281893822909101e-03 0.0000000000000000e+00  4.4468371728185033e+01 1.9221003634400930e-04 0.0000000000000000e+00  4.4201350163150934e+01 -3.3333930299686400e-03 0.0000000000000000e+00  4.3860069317888936e+01 3.8994124237828622e-03 0.0000000000000000e+00  4.3456706677501217e+01 -1.4844610903239365e-04 0.0000000000000000e+00  4.3006973481358777e+01 -4.5926391214393134e-03 0.0000000000000000e+00  4.2480694666653328e+01 9.7805560340285700e-04 0.0000000000000000e+00  4.1925295388674606e+01 2.4119086622292961e-03 0.0000000000000000e+00  4.1307428496274660e+01 -3.1411076996833037e-03 0.0000000000000000e+00  4.0664359769664429e+01 9.7368235452788689e-05 0.0000000000000000e+00  3.9935303051059563e+01 2.2127461731041857e-03 0.0000000000000000e+00  3.9182822298051967e+01 -2.0302112566803554e-03 0.0000000000000000e+00  3.8403776987748344e+01 7.3453350906391461e-03 0.0000000000000000e+00  3.7538225746367303e+01 -5.4451071574442497e-03 0.0000000000000000e+00  3.6687074934474808e+01 -7.1987725020933972e-03 0.0000000000000000e+00  3.5768751870543205e+01 9.3208735156822316e-03 0.0000000000000000e+00  3.4808393469485416e+01 -2.5359068792017844e-03 0.0000000000000000e+00  3.3851125980422559e+01 -4.8334292997183016e-03 0.0000000000000000e+00  3.2852378871613794e+01 4.0570800524836279e-03 0.0000000000000000e+00  3.1839283117928463e+01 3.6520303886113993e-03 0.0000000000000000e+00  3.0796175159941239e+01 -8.4053339644848957e-04 0.0000000000000000e+00  2.9747247928506606e+01 -3.0365892624462772e-06 0.0000000000000000e+00  2.8677665953425553e+01 2.2234256054766560e-03 0.0000000000000000e+00  2.7587032998008020e+01 -1.3584355717327298e-03 0.0000000000000000e+00  2.6511730953711055e+01 -2.2045413552792261e-03 0.0000000000000000e+00  2.5418884584899640e+01 6.7566722713191200e-03 0.0000000000000000e+00  2.4259140600943688e+01 -9.1878704713812282e-03 0.0000000000000000e+00  2.3128379497233901e+01 -9.5132806159360542e-04 0.0000000000000000e+00  2.1994066802673679e+01 -9.9958653761905432e-04 0.0000000000000000e+00  2.0890054421485836e+01 -3.4810070144179539e-04 0.0000000000000000e+00  1.9743827069243419e+01 9.4152264119131794e-03 0.0000000000000000e+00  1.8550739094152920e+01 -8.2161726725913774e-03 0.0000000000000000e+00  1.7396104833531272e+01 -1.0416060533616283e-03 0.0000000000000000e+00  1.6237604222930372e+01 6.0207891520102882e-04 0.0000000000000000e+00  1.5054206813642288e+01 3.9836148909201822e-03 0.0000000000000000e+00  1.3926991267070624e+01 1.7313690248781843e-03 0.0000000000000000e+00  1.2748092235827338e+01 -2.5353715858689868e-03 0.0000000000000000e+00  1.1599088770990369e+01 1.1189637594877409e-03 0.0000000000000000e+00  1.0438727216277416e+01 3.9461273316030478e-03 0.0000000000000000e+00  9.3013840438635818e+00 -1.4488029722945985e-03 0.0000000000000000e+00  8.1170023653255239e+00 -3.5547747965655021e-03 0.0000000000000000e+00  6.9565861398676674e+00 6.6893547389372332e-03 0.0000000000000000e+00  5.8170422314611603e+00 -1.1553435976351504e-02 0.0000000000000000e+00  4.6853314793287950e+00 -4.8878777955850047e-03 0.0000000000000000e+00  3.5147472229434817e+00 1.5987129004590386e-02 0.0000000000000000e+00  2.3069290064048027e+00 3.1114132587716300e-04 0.0000000000000000e+00  1.2537515675106941e+00 -4.1886904862731215e-02 0.0000000000000000e+00  -6.7390393617359559e-02 1.2946017269076560e+00 0.0000000000000000e+00  1.6885079191863793e-02 2.2481740469974349e+00 0.0000000000000000e+00  -2.8555419627359586e-02 3.4626011202638147e+00 0.0000000000000000e+00  -2.2399724167500742e-02 4.4536262921518217e+00 0.0000000000000000e+00  9.7177576703117524e-02 5.7892819473082673e+00 0.0000000000000000e+00  -2.3989328419471299e-02 7.1409596660575732e+00 0.0000000000000000e+00  -6.9624928233449804e-02 7.9854528568862166e+00 0.0000000000000000e+00  -9.8975999961168695e-02 9.3453065089623149e+00 0.0000000000000000e+00  2.8144605508701827e-02 1.0291294709544383e+01 0.0000000000000000e+00  3.0881431631875813e-02 1.1568814309638338e+01 0.0000000000000000e+00  -2.8627828575372865e-02 1.2727665521346829e+01 0.0000000000000000e+00  2.0608946688562484e-02 1.3837733663318508e+01 0.0000000000000000e+00  5.0792293742459712e-03 1.5090645485843844e+01 0.0000000000000000e+00  -4.1079211180067837e-03 1.6076527178826812e+01 0.0000000000000000e+00  -1.3217522255297025e-02 1.7290801737587643e+01 0.0000000000000000e+00  -5.6818744573030990e-03 1.8383468369569027e+01 0.0000000000000000e+00  1.5689314298492345e-02 1.9553556881079682e+01 0.0000000000000000e+00  -5.1061485249160096e-03 2.0712284206423661e+01 0.0000000000000000e+00  -1.1803420316927681e-02 2.1788903720935032e+01 0.0000000000000000e+00  -2.9012597974816183e-03 2.2958352134128191e+01 0.0000000000000000e+00  -1.1509526953849483e-02 2.3876493144482147e+01 0.0000000000000000e+00  2.5214289058031192e-02 2.5090100522983928e+01 0.0000000000000000e+00  -2.1079374991662656e-02 2.6129224872469255e+01 0.0000000000000000e+00  2.4875808723582929e-02 2.7191699839249519e+01 0.0000000000000000e+00  8.3771123708239054e-03 2.8310195125160920e+01 0.0000000000000000e+00  -5.7909537291932427e-02 2.9132732055119018e+01 0.0000000000000000e+00  -4.8060266457523343e-02 3.0339188048095249e+01 0.0000000000000000e+00  9.8315141948587155e-03 3.1145622553966593e+01 0.0000000000000000e+00  -3.0988223808619580e-02 3.2158966528267200e+01 0.0000000000000000e+00  -1.5446818314655707e-02 3.2964010385930685e+01 0.0000000000000000e+00  7.5973642763574323e-02 3.3998880618563874e+01 0.0000000000000000e+00  -2.6632327047436215e-02 3.5011839345072659e+01 0.0000000000000000e+00  -4.0230453482345510e-02 3.5647328647033390e+01 0.0000000000000000e+00  -4.4059264158672319e-02 3.6618852886929794e+01 0.0000000000000000e+00  5.7814980205387950e-03 3.7222813927307534e+01 0.0000000000000000e+00  1.3661861555120985e-02 3.8053498265785464e+01 0.0000000000000000e+00  -5.6692703384321743e-03 3.8770500663078060e+01 0.0000000000000000e+00  -1.6577244642026591e-03 3.9403447199389738e+01 0.0000000000000000e+00  1.2005308162947753e-03 4.0009461747196355e+01 0.0000000000000000e+00  1.4286668988715153e-03 4.0596020801554694e+01 0.0000000000000000e+00  -1.0467969429980501e-02 4.1118662648656283e+01 0.0000000000000000e+00  6.0365069984853314e-04 4.1494925075573420e+01 0.0000000000000000e+00  -4.7229222398788095e-04 4.1961117554195376e+01 0.0000000000000000e+00  4.5058985312466998e-03 4.2333774072438139e+01 0.0000000000000000e+00  -8.2622538391853451e-03 4.2632234841492433e+01 0.0000000000000000e+00  8.0984578674583706e-03 4.2898002527226261e+01 0.0000000000000000e+00  -2.9332154491722262e-03 4.3076925818162778e+01 0.0000000000000000e+00  -7.1612451012167287e-03 4.3229648315938981e+01 0.0000000000000000e+00  1.6615498018867493e-03 4.3309109147525277e+01 0.0000000000000000e+00  1.7969337828559317e-03 4.3340498163262993e+01 0.0000000000000000e+00  7.4596421906348151e-03 4.3299607370651152e+01 0.0000000000000000e+00  -8.3947161151295795e-03 4.3217517271375414e+01 0.0000000000000000e+00  3.8662909401830721e-03 4.3073151888176476e+01 0.0000000000000000e+00  -6.8635431625614614e-03 4.2863866974103111e+01 0.0000000000000000e+00  9.7171659974538017e-03 4.2605780313666578e+01 0.0000000000000000e+00  -8.5749211642363998e-03 4.2266286507897284e+01 0.0000000000000000e+00  1.8804787274895769e-02 4.1958469623063273e+01 0.0000000000000000e+00  2.1767506006451342e-02 4.1450464026120429e+01 0.0000000000000000e+00  1.2414301571361546e-02 4.1084924135099619e+01 0.0000000000000000e+00  4.4580814566474704e-02 4.0484323082387021e+01 0.0000000000000000e+00  -2.1593950854419064e-02 4.0027121583916596e+01 0.0000000000000000e+00  -7.7211965940513902e-03 3.9343044064853459e+01 0.0000000000000000e+00  8.6875015029215640e-03 3.8653809428119686e+01 0.0000000000000000e+00  -1.9606660488733136e-03 3.7980000399887331e+01 0.0000000000000000e+00  -6.6260379311774802e-04 3.7247287141314700e+01 0.0000000000000000e+00  -2.8554094907591158e-03 3.6454929521344894e+01 0.0000000000000000e+00  3.3444751445639688e-03 3.5654791216568519e+01 0.0000000000000000e+00  -1.6331166837687688e-02 3.4801621755722216e+01 0.0000000000000000e+00  3.0023281238158558e-02 3.3925841103319698e+01 0.0000000000000000e+00  -2.1208873181526110e-02 3.2948611118352254e+01 0.0000000000000000e+00  2.3544551943870531e-02 3.2143957124544713e+01 0.0000000000000000e+00  6.2199579533721685e-03 3.1190859330052508e+01 0.0000000000000000e+00  -2.5698566820640093e-02 3.0163983202058063e+01 0.0000000000000000e+00  1.6955058640376705e-02 2.9148829713555116e+01 0.0000000000000000e+00  -2.1322892164053951e-02 2.8143045765885866e+01 0.0000000000000000e+00  1.0402409218903130e-02 2.7049463214210022e+01 0.0000000000000000e+00  -4.5151655044000198e-03 2.5986662500438783e+01 0.0000000000000000e+00  4.4091933840204690e-02 2.5100599697202565e+01 0.