<?xml version="1.0"?>
<VTKFile type="UnstructuredGrid"  version="0.1"  >
<UnstructuredGrid>
<Piece  NumberOfPoints="11902" NumberOfCells="23402">
<Points>
<DataArray  type="Float64"  NumberOfComponents="3"  format="ascii">-5 -5 0  5 -5 0  5 5 0  -5 5 0  2.026187883676317 -0.00276142063586981 0  -4.9 -5 0  -4.8 -5 0  -4.7 -5 0  -4.6 -5 0  -4.5 -5 0  -4.4 -5 0  -4.3 -5 0  -4.2 -5 0  -4.1 -5 0  -4 -5 0  -3.9 -5 0  -3.8 -5 0  -3.7 -5 0  -3.6 -5 0  -3.5 -5 0  -3.4 -5 0  -3.3 -5 0  -3.2 -5 0  -3.1 -5 0  -3 -5 0  -2.9 -5 0  -2.8 -5 0  -2.7 -5 0  -2.6 -5 0  -2.5 -5 0  -2.4 -5 0  -2.3 -5 0  -2.2 -5 0  -2.1 -5 0  -2 -5 0  -1.9 -5 0  -1.8 -5 0  -1.7 -5 0  -1.6 -5 0  -1.5 -5 0  -1.4 -5 0  -1.3 -5 0  -1.2 -5 0  -1.1 -5 0  -1 -5 0  -0.9000000000000004 -5 0  -0.7999999999999998 -5 0  -0.7000000000000002 -5 0  -0.5999999999999996 -5 0  -0.5 -5 0  -0.4000000000000004 -5 0  -0.2999999999999998 -5 0  -0.2000000000000002 -5 0  -0.09999999999999964 -5 0  0 -5 0  0.09999999999999964 -5 0  0.2000000000000002 -5 0  0.2999999999999998 -5 0  0.4000000000000004 -5 0  0.5 -5 0  0.5999999999999996 -5 0  0.7000000000000002 -5 0  0.7999999999999998 -5 0  0.9000000000000004 -5 0  1 -5 0  1.1 -5 0  1.2 -5 0  1.3 -5 0  1.4 -5 0  1.5 -5 0  1.6 -5 0  1.7 -5 0  1.8 -5 0  1.9 -5 0  2 -5 0  2.1 -5 0  2.2 -5 0  2.3 -5 0  2.4 -5 0  2.5 -5 0  2.6 -5 0  2.7 -5 0  2.8 -5 0  2.9 -5 0  3 -5 0  3.1 -5 0  3.199999999999999 -5 0  3.300000000000001 -5 0  3.4 -5 0  3.5 -5 0  3.6 -5 0  3.699999999999999 -5 0  3.800000000000001 -5 0  3.9 -5 0  4 -5 0  4.1 -5 0  4.199999999999999 -5 0  4.300000000000001 -5 0  4.4 -5 0  4.5 -5 0  4.6 -5 0  4.699999999999999 -5 0  4.800000000000001 -5 0  4.9 -5 0  5 -4.9 0  5 -4.8 0  5 -4.7 0  5 -4.6 0  5 -4.5 0  5 -4.4 0  5 -4.3 0  5 -4.2 0  5 -4.1 0  5 -4 0  5 -3.9 0  5 -3.8 0  5 -3.7 0  5 -3.6 0  5 -3.5 0  5 -3.4 0  5 -3.3 0  5 -3.2 0  5 -3.1 0  5 -3 0  5 -2.9 0  5 -2.8 0  5 -2.7 0  5 -2.6 0  5 -2.5 0  5 -2.4 0  5 -2.3 0  5 -2.2 0  5 -2.1 0  5 -2 0  5 -1.9 0  5 -1.8 0  5 -1.7 0  5 -1.6 0  5 -1.5 0  5 -1.4 0  5 -1.3 0  5 -1.2 0  5 -1.1 0  5 -1 0  5 -0.9000000000000004 0  5 -0.7999999999999998 0  5 -0.7000000000000002 0  5 -0.5999999999999996 0  5 -0.5 0  5 -0.4000000000000004 0  5 -0.2999999999999998 0  5 -0.2000000000000002 0  5 -0.09999999999999964 0  5 0 0  5 0.09999999999999964 0  5 0.2000000000000002 0  5 0.2999999999999998 0  5 0.4000000000000004 0  5 0.5 0  5 0.5999999999999996 0  5 0.7000000000000002 0  5 0.7999999999999998 0  5 0.9000000000000004 0  5 1 0  5 1.1 0  5 1.2 0  5 1.3 0  5 1.4 0  5 1.5 0  5 1.6 0  5 1.7 0  5 1.8 0  5 1.9 0  5 2 0  5 2.1 0  5 2.2 0  5 2.3 0  5 2.4 0  5 2.5 0  5 2.6 0  5 2.7 0  5 2.8 0  5 2.9 0  5 3 0  5 3.1 0  5 3.199999999999999 0  5 3.300000000000001 0  5 3.4 0  5 3.5 0  5 3.6 0  5 3.699999999999999 0  5 3.800000000000001 0  5 3.9 0  5 4 0  5 4.1 0  5 4.199999999999999 0  5 4.300000000000001 0  5 4.4 0  5 4.5 0  5 4.6 0  5 4.699999999999999 0  5 4.800000000000001 0  5 4.9 0  4.9 5 0  4.8 5 0  4.7 5 0  4.6 5 0  4.5 5 0  4.4 5 0  4.3 5 0  4.2 5 0  4.1 5 0  4 5 0  3.9 5 0  3.8 5 0  3.7 5 0  3.6 5 0  3.5 5 0  3.4 5 0  3.3 5 0  3.2 5 0  3.1 5 0  3 5 0  2.9 5 0  2.8 5 0  2.7 5 0  2.6 5 0  2.5 5 0  2.4 5 0  2.3 5 0  2.2 5 0  2.1 5 0  2 5 0  1.9 5 0  1.8 5 0  1.7 5 0  1.6 5 0  1.5 5 0  1.4 5 0  1.3 5 0  1.2 5 0  1.1 5 0  1 5 0  0.9000000000000004 5 0  0.7999999999999998 5 0  0.7000000000000002 5 0  0.5999999999999996 5 0  0.5 5 0  0.4000000000000004 5 0  0.2999999999999998 5 0  0.2000000000000002 5 0  0.09999999999999964 5 0  0 5 0  -0.09999999999999964 5 0  -0.2000000000000002 5 0  -0.2999999999999998 5 0  -0.4000000000000004 5 0  -0.5 5 0  -0.5999999999999996 5 0  -0.7000000000000002 5 0  -0.7999999999999998 5 0  -0.9000000000000004 5 0  -1 5 0  -1.1 5 0  -1.2 5 0  -1.3 5 0  -1.4 5 0  -1.5 5 0  -1.6 5 0  -1.7 5 0  -1.8 5 0  -1.9 5 0  -2 5 0  -2.1 5 0  -2.2 5 0  -2.3 5 0  -2.4 5 0  -2.5 5 0  -2.6 5 0  -2.7 5 0  -2.8 5 0  -2.9 5 0  -3 5 0  -3.1 5 0  -3.199999999999999 5 0  -3.300000000000001 5 0  -3.4 5 0  -3.5 5 0  -3.6 5 0  -3.699999999999999 5 0  -3.800000000000001 5 0  -3.9 5 0  -4 5 0  -4.1 5 0  -4.199999999999999 5 0  -4.300000000000001 5 0  -4.4 5 0  -4.5 5 0  -4.6 5 0  -4.699999999999999 5 0  -4.800000000000001 5 0  -4.9 5 0  -5 4.9 0  -5 4.8 0  -5 4.7 0  -5 4.6 0  -5 4.5 0  -5 4.4 0  -5 4.3 0  -5 4.2 0  -5 4.1 0  -5 4 0  -5 3.9 0  -5 3.8 0  -5 3.7 0  -5 3.6 0  -5 3.5 0  -5 3.4 0  -5 3.3 0  -5 3.2 0  -5 3.1 0  -5 3 0  -5 2.9 0  -5 2.8 0  -5 2.7 0  -5 2.6 0  -5 2.5 0  -5 2.4 0  -5 2.3 0  -5 2.2 0  -5 2.1 0  -5 2 0  -5 1.9 0  -5 1.8 0  -5 1.7 0  -5 1.6 0  -5 1.5 0  -5 1.4 0  -5 1.3 0  -5 1.2 0  -5 1.1 0  -5 1 0  -5 0.9000000000000004 0  -5 0.7999999999999998 0  -5 0.7000000000000002 0  -5 0.5999999999999996 0  -5 0.5 0  -5 0.4000000000000004 0  -5 0.2999999999999998 0  -5 0.2000000000000002 0  -5 0.09999999999999964 0  -5 0 0  -5 -0.09999999999999964 0  -5 -0.2000000000000002 0  -5 -0.2999999999999998 0  -5 -0.4000000000000004 0  -5 -0.5 0  -5 -0.5999999999999996 0  -5 -0.7000000000000002 0  -5 -0.7999999999999998 0  -5 -0.9000000000000004 0  -5 -1 0  -5 -1.1 0  -5 -1.2 0  -5 -1.3 0  -5 -1.4 0  -5 -1.5 0  -5 -1.6 0  -5 -1.7 0  -5 -1.8 0  -5 -1.9 0  -5 -2 0  -5 -2.1 0  -5 -2.2 0  -5 -2.3 0  -5 -2.4 0  -5 -2.5 0  -5 -2.6 0  -5 -2.7 0  -5 -2.8 0  -5 -2.9 0  -5 -3 0  -5 -3.1 0  -5 -3.199999999999999 0  -5 -3.300000000000001 0  -5 -3.4 0  -5 -3.5 0  -5 -3.6 0  -5 -3.699999999999999 0  -5 -3.800000000000001 0  -5 -3.9 0  -5 -4 0  -5 -4.1 0  -5 -4.199999999999999 0  -5 -4.300000000000001 0  -5 -4.4 0  -5 -4.5 0  -5 -4.6 0  -5 -4.699999999999999 0  -5 -4.800000000000001 0  -5 -4.9 0  2.068389388537273 0.2094209969252807 0  1.978608585121208 0.3828663931501721 0  2.001438743484058 0.604868532270987 0  1.791120930385828 0.7370442522746879 0  1.681208410034257 0.9054669167329984 0  1.534802140195774 1.020138489073817 0  1.424231334759108 1.15708130878247 0  1.221518985045155 1.19326827439293 0  1.084409694644785 1.325286816069159 0  0.9370743154505935 1.413647393270596 0  0.7717820274500036 1.44674042305478 0  0.6205589157203861 1.489303202087322 0  0.4433985612600581 1.556395138922111 0  0.2864080099486909 1.580565395379216 0  0.1293490285072155 1.624436045942424 0  -0.01734849960922926 1.615639804531557 0  -0.2222800918992767 1.583555739807966 0  -0.3830817081939966 1.581330739271308 0  -0.5261910791450052 1.529603257502794 0  -0.6858813734033005 1.465959603730514 0  -0.8588498052904634 1.431847081282962 0  -0.9988824618691404 1.34035140172274 0  -1.165499940559879 1.263363037444731 0  -1.355009902484136 1.228741772670548 0  -1.409507458003021 1.049196296705998 0  -1.61718555177762 0.9541522248079088 0  -1.768881868341139 0.8324948864726748 0  -1.842256072798278 0.6712248528570205 0  -1.958689504781463 0.4994572013851959 0  -2.030432045346599 0.2926014492986265 0  -2.052775318487809 0.1025632522671217 0  -2.000348618511161 -0.1145739103399035 0  -2.099003437174904 -0.3208895574866978 0  -1.93357452131452 -0.4749639393564001 0  -1.828520290926795 -0.6590698754133519 0  -1.768901939618952 -0.8256175126328116 0  -1.565108609192795 -0.9378731459969463 0  -1.467329932506688 -1.087468215185114 0  -1.332441520198373 -1.192003625394126 0  -1.159709544009198 -1.257084012870822 0  -1.011094091434694 -1.359562154815523 0  -0.8505207832881777 -1.441133803071243 0  -0.693568300167934 -1.493921454322994 0  -0.5210198754039618 -1.527104123350762 0  -0.3735594988807756 -1.591473445785208 0  -0.2090511528504244 -1.587244497929691 0  -0.04633945507260704 -1.6118049519206 0  0.1365765577162555 -1.606329199257194 0  0.2867324660021312 -1.599125499739315 0  0.4561659533674036 -1.564732633949872 0  0.6052077738554612 -1.513505395382892 0  0.7729040699070057 -1.440106921786405 0  0.9424327596553178 -1.419861209388412 0  1.106364531437657 -1.324769216527286 0  1.258243828754058 -1.256629090214234 0  1.391661515636313 -1.142844339923202 0  1.537135364462506 -1.017037549881246 0  1.697876977187506 -0.8887917988283681 0  1.804298655101221 -0.7534016571721951 0  1.907740994000388 -0.5720556855855822 0  2.01187707833046 -0.3974530321900345 0  2.038303646349877 -0.2082780247490685 0  -2.449764793211991 4.920148942552993 0  -2.449742575169516 -4.91271992558669 0  4.911888875295755 2.448892692795813 0  4.919891917273044 -2.450217341445305 0  2.447664334086293 -4.89832637487778 0  2.442033840722681 4.902045600102658 0  -4.911917709297604 -2.448902868350499 0  -4.911946378575695 2.448906398365008 0  -1.749899745868813 4.914035668752366 0  -1.745619350820324 -4.917350123985378 0  4.921991639311424 1.744685174186875 0  4.910722471483254 -1.748633301418211 0  -4.911013233110617 -1.748322418455249 0  -4.911850555052258 1.748059413151994 0  1.747249835288648 4.90810155155269 0  1.74883594444612 -4.896637145053545 0  -1.150010502786178 4.912591702905508 0  -1.130753440680384 -4.920152794256302 0  -4.910595534260164 -1.148324679412738 0  -4.910435543858402 1.148119898390659 0  1.144928532880737 -4.916507368627806 0  1.150014106096451 4.912574651804998 0  4.910739067463218 1.146606462717586 0  4.921401602704493 -1.152259151891738 0  -0.5473031995191971 -4.914187902052063 0  -0.5470205017098566 4.922503233499269 0  -4.909091203042736 -0.548845312386384 0  -4.909126415978198 0.5473872290041313 0  4.908389662180464 -0.5491669207508394 0  4.91991156394454 0.5458632035959868 0  0.543167322871333 -4.90167489474744 0  0.5517689411391214 4.919472409854093 0  -4.913075726635835 -3.049221864682319 0  4.919571010471169 3.047158594253545 0  4.912599015956162 -3.049218626441097 0  -4.91393601064624 3.046298587233391 0  3.056281562554277 -4.918889001484267 0  -3.049659759201848 -4.912853113917977 0  3.053207735610231 4.914950735341283 0  -3.049128368166405 4.913787257943211 0  -4.908091666030582 -0.04992351381898891 0  0.04516579827199906 -4.916204202608582 0  0.04961636662963698 4.922918379728076 0  4.91505467876797 -0.05130396631170289 0  3.546329987856542 -4.920047380899311 0  -3.549678703645574 4.913063923908283 0  -3.549657804493105 -4.913076183304851
[...]
<PointData  Vectors="f_2686"> 
<DataArray  type="Float64"  Name="f_2686"  NumberOfComponents="3" format="ascii">-1.4695167670424325e-01 -1.7147852823808532e-01 0.0000000000000000e+00  1.6089865877371426e-01 -1.3612371409660032e-01 0.0000000000000000e+00  9.3574071747060256e-02 1.0930043386534306e-01 0.0000000000000000e+00  -1.5490185441501400e-01 1.7687094342181153e-01 0.0000000000000000e+00  3.7321275404922427e+00 -1.4550390480807029e+00 0.0000000000000000e+00  5.6612625716480187e-02 -1.2983694520013511e+00 0.0000000000000000e+00  4.7526415648873388e-02 -2.1079463507922056e+00 0.0000000000000000e+00  5.0532166205840286e-02 -3.4794301870252191e+00 0.0000000000000000e+00  3.8503308302878216e-02 -4.3014127169878922e+00 0.0000000000000000e+00  -9.4317118843189565e-02 -5.5889686305505180e+00 0.0000000000000000e+00  1.9267655441723715e-02 -6.8659809573082944e+00 0.0000000000000000e+00  3.3535304854685054e-02 -7.8293209876286651e+00 0.0000000000000000e+00  -1.5477668976093213e-02 -9.0066584465463979e+00 0.0000000000000000e+00  5.8411514630305805e-02 -9.9263418199141569e+00 0.0000000000000000e+00  5.9848933173493539e-02 -1.1267670820637425e+01 0.0000000000000000e+00  -9.2909908314434894e-03 -1.2164908236178370e+01 0.0000000000000000e+00  -1.6158529487509773e-02 -1.3343788393466983e+01 0.0000000000000000e+00  7.3052619937108718e-03 -1.4492664143280468e+01 0.0000000000000000e+00  4.9968382756273438e-03 -1.5578590927858032e+01 0.0000000000000000e+00  -6.0847203102392545e-03 -1.6683551136410966e+01 0.0000000000000000e+00  3.9739000617592590e-03 -1.7834629406459033e+01 0.0000000000000000e+00  2.3807129619874200e-02 -1.8946934136076397e+01 0.0000000000000000e+00  -3.4989903956689169e-03 -1.9830947711123294e+01 0.0000000000000000e+00  -7.6896074615462259e-03 -2.1051707901380219e+01 0.0000000000000000e+00  -3.0317912955406937e-02 -2.2274060820889570e+01 0.0000000000000000e+00  7.9526269438819172e-02 -2.3135620152579680e+01 0.0000000000000000e+00  3.6029502372106906e-02 -2.4383572870477582e+01 0.0000000000000000e+00  4.2613236673982535e-02 -2.5194953230723453e+01 0.0000000000000000e+00  7.1314180664976870e-02 -2.6395278410876099e+01 0.0000000000000000e+00  -3.3569010816509245e-02 -2.7238769041664138e+01 0.0000000000000000e+00  -1.1326597591745067e-02 -2.8396129586507115e+01 0.0000000000000000e+00  -4.0484097232395631e-03 -2.9477306431594798e+01 0.0000000000000000e+00  5.2522486700313432e-02 -3.0242064656732154e+01 0.0000000000000000e+00  3.8305351579460446e-02 -3.1407130587938411e+01 0.0000000000000000e+00  3.8186316134383246e-02 -3.2098176015528225e+01 0.0000000000000000e+00  -8.6165621699141451e-02 -3.3153389854189975e+01 0.0000000000000000e+00  3.7372281204137853e-02 -3.4146493836782319e+01 0.0000000000000000e+00  5.8932639428141550e-03 -3.4866386879291085e+01 0.0000000000000000e+00  -1.2277693652252295e-03 -3.5675514954564782e+01 0.0000000000000000e+00  -1.4239088091921555e-03 -3.6452770841518046e+01 0.0000000000000000e+00  6.5730274768443170e-03 -3.7195734736960155e+01 0.0000000000000000e+00  -3.7805541117463856e-02 -3.7967392929394961e+01 0.0000000000000000e+00  4.6147221454865141e-02 -3.8551144401259776e+01 0.0000000000000000e+00  2.4708517926183213e-02 -3.9156435063084089e+01 0.0000000000000000e+00  1.8957937190713432e-02 -3.9776550601774950e+01 0.0000000000000000e+00  -1.0699798965919358e-02 -4.0313657003924490e+01 0.0000000000000000e+00  4.4900112536068293e-02 -4.0680355389275306e+01 0.0000000000000000e+00  -3.3151852758162799e-02 -4.1180160026093787e+01 0.0000000000000000e+00  1.8448361546738082e-02 -4.1592878910653894e+01 0.0000000000000000e+00  -3.9519940165673581e-03 -4.1847890598209602e+01 0.0000000000000000e+00  1.3505138317884209e-03 -4.2118241527385010e+01 0.0000000000000000e+00  -9.4766985843171172e-04 -4.2320530284441546e+01 0.0000000000000000e+00  4.4561798134093444e-04 -4.2466303630807438e+01 0.0000000000000000e+00  2.2487352017620167e-04 -4.2553747116749214e+01 0.0000000000000000e+00  1.9777248641731299e-03 -4.2583370547817424e+01 0.0000000000000000e+00  8.1408830757776754e-04 -4.2565897970695872e+01 0.0000000000000000e+00  8.2756429428663143e-03 -4.2470732242420766e+01 0.0000000000000000e+00  -1.1684683051634901e-02 -4.2293333054845789e+01 0.0000000000000000e+00  -5.5477937456738140e-03 -4.2138733181034020e+01 0.0000000000000000e+00  -2.2449297478206662e-02 -4.1822497487148887e+01 0.0000000000000000e+00  7.3118627367780948e-03 -4.1564603848281308e+01 0.0000000000000000e+00  6.3200983017537753e-03 -4.1175657134595404e+01 0.0000000000000000e+00  -4.6151547540999654e-03 -4.0734295127224101e+01 0.0000000000000000e+00  -9.3004365378206405e-04 -4.0273183773577280e+01 0.0000000000000000e+00  5.6134515446768663e-03 -3.9742905064019467e+01 0.0000000000000000e+00  -1.2493115766521816e-02 -3.9168965841466068e+01 0.0000000000000000e+00  -8.0205123949698576e-03 -3.8529727580321058e+01 0.0000000000000000e+00  8.7657148808454287e-03 -3.7953385714691422e+01 0.0000000000000000e+00  -2.0744531988520401e-02 -3.7188079347993479e+01 0.0000000000000000e+00  2.3912602222296953e-02 -3.6438952047803326e+01 0.0000000000000000e+00  -3.0192265955774674e-02 -3.5668639510461944e+01 0.0000000000000000e+00  5.5386554683255519e-03 -3.4813127353733542e+01 0.0000000000000000e+00  1.4910212173132356e-02 -3.4040880950147468e+01 0.0000000000000000e+00  -2.1779952781504137e-02 -3.3129038856438967e+01 0.0000000000000000e+00  1.5379216745938326e-02 -3.2204130179237154e+01 0.0000000000000000e+00  -1.1422352453199553e-02 -3.1270009551534429e+01 0.0000000000000000e+00  4.9815487563802611e-03 -3.0334239171069157e+01 0.0000000000000000e+00  -2.0563884942851135e-02 -2.9373228965159381e+01 0.0000000000000000e+00  -6.6085583274609937e-03 -2.8329405045553752e+01 0.0000000000000000e+00  9.3080671029177643e-03 -2.7461649781473508e+01 0.0000000000000000e+00  1.7035845047181301e-03 -2.6368051765453231e+01 0.0000000000000000e+00  8.3976739698454206e-03 -2.5307814736259193e+01 0.0000000000000000e+00  -2.9894507572877448e-02 -2.4274560852602232e+01 0.0000000000000000e+00  -1.0677592481108632e-02 -2.3111679816174526e+01 0.0000000000000000e+00  1.9046918683295635e-02 -2.2160042466370051e+01 0.0000000000000000e+00  -2.9221971378810038e-02 -2.0998210593192482e+01 0.0000000000000000e+00  1.5323692881872551e-03 -1.9966059472818895e+01 0.0000000000000000e+00  1.1220210265111169e-02 -1.8911364924010915e+01 0.0000000000000000e+00  1.2319027296599901e-02 -1.7747458423559110e+01 0.0000000000000000e+00  -3.4522359170204332e-02 -1.6687524338293791e+01 0.0000000000000000e+00  7.0308982706977774e-03 -1.5510801136515342e+01 0.0000000000000000e+00  7.4336595353870260e-03 -1.4516282970066182e+01 0.0000000000000000e+00  -2.7344026780849445e-02 -1.3320903661458777e+01 0.0000000000000000e+00  -5.6765664595685792e-04 -1.2263009136899923e+01 0.0000000000000000e+00  1.5008482583770208e-02 -1.1123366040580263e+01 0.0000000000000000e+00  -8.3517026068890632e-04 -9.9951939348969443e+00 0.0000000000000000e+00  -1.4836249589944233e-02 -8.9071216948892253e+00 0.0000000000000000e+00  -1.1198398801629773e-02 -7.7483934010235807e+00 0.0000000000000000e+00  2.1796374201410774e-02 -6.7593355541080120e+00 0.0000000000000000e+00  -3.3438657351147878e-02 -5.5608590587447537e+00 0.0000000000000000e+00  8.0120093902572055e-03 -4.4735053276926626e+00 0.0000000000000000e+00  1.8296745531452364e-02 -3.3305168422346565e+00 0.0000000000000000e+00  -2.8705597380160253e-02 -2.2114856193862247e+00 0.0000000000000000e+00  -3.5360598379253226e-02 -1.2800262846430732e+00 0.0000000000000000e+00  1.3321050287470728e+00 3.2032401887369881e-02 0.0000000000000000e+00  2.1375189841927882e+00 8.1565243884345939e-02 0.0000000000000000e+00  3.4396644662892064e+00 5.9740589507928189e-02 0.0000000000000000e+00  4.3958960671919627e+00 -1.8246234582709683e-02 0.0000000000000000e+00  5.5854904503521805e+00 8.6112141317953115e-03 0.0000000000000000e+00  6.6807747450489527e+00 -6.1661919229083449e-03 0.0000000000000000e+00  7.7909382862267096e+00 1.2308466520553328e-03 0.0000000000000000e+00  8.9053708044967657e+00 -1.8020154878811260e-03 0.0000000000000000e+00  1.0011159875458260e+01 5.4584766581663947e-04 0.0000000000000000e+00  1.1141070961915560e+01 -3.2357835437580153e-04 0.0000000000000000e+00  1.2234608856496960e+01 -3.4563028502857254e-05 0.0000000000000000e+00  1.3355559606662311e+01 3.8282969453646725e-03 0.0000000000000000e+00  1.4428132563723178e+01 1.5541567694733604e-03 0.0000000000000000e+00  1.5573717787827098e+01 -7.4118209809976446e-03 0.0000000000000000e+00  1.6648200110279539e+01 3.7716489509738351e-03 0.0000000000000000e+00  1.7783262223863581e+01 3.1971916182026434e-03 0.0000000000000000e+00  1.8845221920084303e+01 -3.1385537961485369e-03 0.0000000000000000e+00  1.9918029936389008e+01 7.3946646906728015e-03 0.0000000000000000e+00  2.1038568805039141e+01 -7.2330522582582579e-03 0.0000000000000000e+00  2.2081444601506583e+01 -4.8795719578242358e-03 0.0000000000000000e+00  2.3173033878009836e+01 1.0039563839346377e-02 0.0000000000000000e+00  2.4240166528855287e+01 -1.0733220973500272e-02 0.0000000000000000e+00  2.5228653873783042e+01 7.7377894617581145e-03 0.0000000000000000e+00  2.6282668860127604e+01 1.8940000342400213e-03 0.0000000000000000e+00  2.7321687743770724e+01 4.6216105213671751e-03 0.0000000000000000e+00  2.8338918409596111e+01 -2.7863247888369933e-03 0.0000000000000000e+00  2.9318787157637022e+01 -1.9722787354249636e-03 0.0000000000000000e+00  3.0270888043230109e+01 -1.4491719052677594e-03 0.0000000000000000e+00  3.1214703323009530e+01 1.2892006491638564e-04 0.0000000000000000e+00  3.2135331556594060e+01 -3.3802498291015163e-04 0.0000000000000000e+00  3.3030809497240128e+01 2.3791040258746914e-04 0.0000000000000000e+00  3.3897711591922636e+01 -2.1454392205361096e-03 0.0000000000000000e+00  3.4725935067769960e+01 -8.5402557746968666e-04 0.0000000000000000e+00  3.5544608051175587e+01 4.1168460500778719e-03 0.0000000000000000e+00  3.6328170487679955e+01 -6.4737330895412448e-03 0.0000000000000000e+00  3.7026464415594134e+01 6.6015461109607803e-03 0.0000000000000000e+00  3.7732312702704675e+01 -5.5944395349057704e-04 0.0000000000000000e+00  3.8382349147181664e+01 7.5154622877956490e-03 0.0000000000000000e+00  3.8981983646286132e+01 9.6428726441545199e-03 0.0000000000000000e+00  3.9579727475316432e+01 -2.8853994941145052e-02 0.0000000000000000e+00  4.0139391891519409e+01 2.1030215687397883e-02 0.0000000000000000e+00  4.0562347270461395e+01 -9.1048530220582541e-03 0.0000000000000000e+00  4.0998212421015218e+01 1.2673893679308245e-03 0.0000000000000000e+00  4.1368141203932268e+01 -2.8757416872027936e-03 0.0000000000000000e+00  4.1666926601162132e+01 6.1368625589303298e-03 0.0000000000000000e+00  4.1926372834226761e+01 -1.0418939873795112e-03 0.0000000000000000e+00  4.2137194636952763e+01 4.6432504828694879e-04 0.0000000000000000e+00  4.2287230333984432e+01 -6.7761716182603731e-04 0.0000000000000000e+00  4.2378866397664410e+01 -2.6950998626200698e-04 0.0000000000000000e+00  4.2410127037167413e+01 5.7227577863612380e-04 0.0000000000000000e+00  4.2385738496711546e+01 6.1592967815903823e-04 0.0000000000000000e+00  4.2306376614520616e+01 -1.5428968045785591e-03 0.0000000000000000e+00  4.2164119050458197e+01 1.6768687879145485e-03 0.0000000000000000e+00  4.1965360479296059e+01 1.6593264109562066e-04 0.0000000000000000e+00  4.1720058849386064e+01 -2.9740014958325235e-03 0.0000000000000000e+00  4.1408071934472872e+01 3.4839524415247918e-03 0.0000000000000000e+00  4.1040155475978956e+01 -9.7771756334257684e-05 0.0000000000000000e+00  4.0630619930689448e+01 -4.1321813144762779e-03 0.0000000000000000e+00  4.0151467991931568e+01 9.4483778672793748e-04 0.0000000000000000e+00  3.9645632005302666e+01 2.1155763018998737e-03 0.0000000000000000e+00  3.9082557824918084e+01 -2.7608234231089922e-03 0.0000000000000000e+00  3.8496082346690756e+01 4.7039272709048596e-05 0.0000000000000000e+00  3.7830333526534098e+01 1.9592975884438054e-03 0.0000000000000000e+00  3.7141978443122618e+01 -1.7914451301889707e-03 0.0000000000000000e+00  3.6428201992757373e+01 6.5572397737732992e-03 0.0000000000000000e+00  3.5633864288371555e+01 -4.8815370962243063e-03 0.0000000000000000e+00  3.4851009086505826e+01 -6.6229369512870164e-03 0.0000000000000000e+00  3.4004596348378577e+01 8.4606359547505280e-03 0.0000000000000000e+00  3.3117342295128815e+01 -2.3426778217956654e-03 0.0000000000000000e+00  3.2230776684618519e+01 -4.4106015612792576e-03 0.0000000000000000e+00  3.1303650564124979e+01 3.6891075751599657e-03 0.0000000000000000e+00  3.0361324365792314e+01 3.3002646452975760e-03 0.0000000000000000e+00  2.9388857863018032e+01 -8.0427134758515614e-04 0.0000000000000000e+00  2.8408595079158776e+01 -4.9761045781465499e-05 0.0000000000000000e+00  2.7406846036378703e+01 2.0114767458700024e-03 0.0000000000000000e+00  2.6383357846429924e+01 -1.3044475573596771e-03 0.0000000000000000e+00  2.5371960780170141e+01 -2.1223160873684028e-03 0.0000000000000000e+00  2.4342071379485574e+01 6.3025989788244117e-03 0.0000000000000000e+00  2.3247101475068888e+01 -8.6643918440461043e-03 0.0000000000000000e+00  2.2177236959027180e+01 -9.4436957844609790e-04 0.0000000000000000e+00  2.1101983352502199e+01 -9.8360337101400619e-04 0.0000000000000000e+00  2.0053734455364832e+01 -3.8308176747660491e-04 0.0000000000000000e+00  1.8963602495576982e+01 8.9217244813050000e-03 0.0000000000000000e+00  1.7827114699852174e+01 -7.8180433520640483e-03 0.0000000000000000e+00  1.6725504565252557e+01 -1.0456290472529242e-03 0.0000000000000000e+00  1.5618649865864871e+01 5.2502012076120557e-04 0.0000000000000000e+00  1.4486514061675347e+01 3.7860509086864724e-03 0.0000000000000000e+00  1.3406810774914792e+01 1.6288622879525711e-03 0.0000000000000000e+00  1.2276377654195441e+01 -2.4513041592242168e-03 0.0000000000000000e+00  1.1173484074648538e+01 1.0422470875788737e-03 0.0000000000000000e+00  1.0058649330693997e+01 3.7791828857361479e-03 0.0000000000000000e+00  8.9650277876228088e+00 -1.4026466908844733e-03 0.0000000000000000e+00  7.8253612168337234e+00 -3.4375313458937027e-03 0.0000000000000000e+00  6.7080115653736287e+00 6.4177453878399241e-03 0.0000000000000000e+00  5.6101401852899722e+00 -1.1142407886423816e-02 0.0000000000000000e+00  4.5193006949885444e+00 -4.7318654625538251e-03 0.0000000000000000e+00  3.3905678934157875e+00 1.5408576444072678e-02 0.0000000000000000e+00  2.2256029102536470e+00 2.9253764660062075e-04 0.0000000000000000e+00  1.2095678059691739e+00 -4.0439099979755713e-02 0.0000000000000000e+00  -6.5073198660549975e-02 1.2490060793863811e+00 0.0000000000000000e+00  1.6276021230785524e-02 2.1691724055941544e+00 0.0000000000000000e+00  -2.7548833078070181e-02 3.3412337610344389e+00 0.0000000000000000e+00  -2.1635262935065902e-02 4.2978688751732941e+00 0.0000000000000000e+00  9.3923486000070666e-02 5.5878047311438470e+00 0.0000000000000000e+00  -2.3370673922170928e-02 6.8936600290106185e+00 0.0000000000000000e+00  -6.7027250035324448e-02 7.7101320562176570e+00 0.0000000000000000e+00  -9.6010108832566943e-02 9.0252134378551041e+00 0.0000000000000000e+00  2.7386075416894213e-02 9.9413931669389477e+00 0.0000000000000000e+00  2.9866662147813503e-02 1.1178935389665337e+01 0.0000000000000000e+00  -2.7728344896698186e-02 1.2302740806069496e+01 0.0000000000000000e+00  1.9952057279943231e-02 1.3380247514871078e+01 0.0000000000000000e+00  4.7019970551052453e-03 1.4597751737202211e+01 0.0000000000000000e+00  -3.7224232877986862e-03 1.5556957968642005e+01 0.0000000000000000e+00  -1.2885270165321669e-02 1.6739978945430519e+01 0.0000000000000000e+00  -5.4748141185697145e-03 1.7805858266146682e+01 0.0000000000000000e+00  1.5315936289391079e-02 1.8948862089955576e+01 0.0000000000000000e+00  -4.9936222872282573e-03 2.0082383339997463e+01 0.0000000000000000e+00  -1.1615991225769494e-02 2.1137306521963268e+01 0.0000000000000000e+00  -3.0159234487378518e-03 2.2285232019228477e+01 0.0000000000000000e+00  -1.1085886990945952e-02 2.3187895120260773e+01 0.0000000000000000e+00  2.4903788705946606e-02 2.4383246585063482e+01 0.0000000000000000e+00  -2.0772477771813402e-02 2.5408355061725537e+01 0.0000000000000000e+00  2.4617169440295988e-02 2.6458789328137048e+01 0.0000000000000000e+00  8.2190749230268891e-03 2.7566623788858053e+01 0.0000000000000000e+00  -5.7426628193236046e-02 2.8382861280219892e+01 0.0000000000000000e+00  -4.7901566844405219e-02 2.9582600751510466e+01 0.0000000000000000e+00  9.9958266537773666e-03 3.0386180922486218e+01 0.0000000000000000e+00  -3.0936689541805541e-02 3.1397427991412385e+01 0.0000000000000000e+00  -1.5447061270698885e-02 3.2202779668153511e+01 0.0000000000000000e+00  7.6216105055005354e-02 3.3239931797645916e+01 0.0000000000000000e+00  -2.6793815646125440e-02 3.4258154281730839e+01 0.0000000000000000e+00  -4.0780696225492651e-02 3.4897827429604028e+01 0.0000000000000000e+00  -4.4460453566842098e-02 3.5878248083505099e+01 0.0000000000000000e+00  5.7995979357460242e-03 3.6488202672700858e+01 0.0000000000000000e+00  1.4035088135258335e-02 3.7329655566388567e+01 0.0000000000000000e+00  -5.8377520928627833e-03 3.8057425370887422e+01 0.0000000000000000e+00  -1.7080680405308325e-03 3.8701141477472682e+01 0.0000000000000000e+00  1.2167299816104068e-03 3.9318547533007745e+01 0.0000000000000000e+00  1.4732379783819172e-03 3.9917492735192852e+01 0.0000000000000000e+00  -1.0733695360150603e-02 4.0452212876782802e+01 0.0000000000000000e+00  5.1708620191048523e-04 4.0837373982219418e+01 0.0000000000000000e+00  -3.2829126750401458e-04 4.1316045668461442e+01 0.0000000000000000e+00  4.5975620696414206e-03 4.1699795130484333e+01 0.0000000000000000e+00  -8.5917206248009269e-03 4.2007513386556298e+01 0.0000000000000000e+00  8.3829066981236100e-03 4.2282518133378026e+01 0.0000000000000000e+00  -3.0018473516225234e-03 4.2468356289434233e+01 0.0000000000000000e+00  -7.4830449003975763e-03 4.2627793993124769e+01 0.0000000000000000e+00  1.8227397312943815e-03 4.2712381016653744e+01 0.0000000000000000e+00  1.7450310360297668e-03 4.2747605404738557e+01 0.0000000000000000e+00  7.7264707715233036e-03 4.2708903264567525e+01 0.0000000000000000e+00  -8.6512267359142719e-03 4.2627456679364641e+01 0.0000000000000000e+00  3.9201344810558935e-03 4.2482664325104565e+01 0.0000000000000000e+00  -7.0482731428158267e-03 4.2271174228628041e+01 0.0000000000000000e+00  9.9866130064265816e-03 4.2009788344806395e+01 0.0000000000000000e+00  -8.6877968787694975e-03 4.1665484036527893e+01 0.0000000000000000e+00  1.9028031828665699e-02 4.1353145988995479e+01 0.0000000000000000e+00  2.2413388564507176e-02 4.0837431560201104e+01 0.0000000000000000e+00  1.2358731910586965e-02 4.0466136532658290e+01 0.0000000000000000e+00  4.5640001921287733e-02 3.9857235649364704e+01 0.0000000000000000e+00  -2.1960604631399143e-02 3.9393588850355265e+01 0.0000000000000000e+00  -7.9745668960603290e-03 3.8700550264570957e+01 0.0000000000000000e+00  8.8694715338373843e-03 3.8002751403465695e+01 0.0000000000000000e+00  -2.0330591436635661e-03 3.7321869174000653e+01 0.0000000000000000e+00  -6.8081489557245784e-04 3.6582145618156957e+01 0.0000000000000000e+00  -2.9181347232979209e-03 3.5783232642140568e+01 0.0000000000000000e+00  3.3978938192884517e-03 3.4977678917649328e+01 0.0000000000000000e+00  -1.6486364839200116e-02 3.4120138799952322e+01 0.0000000000000000e+00  3.0024567364993274e-02 3.3241156212448303e+01 0.0000000000000000e+00  -2.1348233188742263e-02 3.2262651763362456e+01 0.0000000000000000e+00  2.3553883053364189e-02 3.1457761359622207e+01 0.0000000000000000e+00  6.2596962868268430e-03 3.0505752632390838e+01 0.0000000000000000e+00  -2.5623891395602318e-02 2.9482218924359643e+01 0.0000000000000000e+00  1.6882542978984751e-02 2.8471963205070420e+01 0.0000000000000000e+00  -2.1249704783493091e-02 2.7473063052493721e+01 0.0000000000000000e+00  1.0200285517958664e-02 2.6388638372390382e+01 0.0000000000000000e+00  -4.6107746283579965e-03 2.5336719317921965e+01 0.0000000000000000e+00  4.3787368299065481e-02 2.4461101260404721e+01 0.