<?xml version="1.0"?>
<VTKFile type="UnstructuredGrid"  version="0.1"  >
<UnstructuredGrid>
<Piece  NumberOfPoints="11902" NumberOfCells="23402">
<Points>
<DataArray  type="Float64"  NumberOfComponents="3"  format="ascii">-5 -5 0  5 -5 0  5 5 0  -5 5 0  1.994613763736586 0.005983155791064809 0  -4.9 -5 0  -4.8 -5 0  -4.7 -5 0  -4.6 -5 0  -4.5 -5 0  -4.4 -5 0  -4.3 -5 0  -4.2 -5 0  -4.1 -5 0  -4 -5 0  -3.9 -5 0  -3.8 -5 0  -3.7 -5 0  -3.6 -5 0  -3.5 -5 0  -3.4 -5 0  -3.3 -5 0  -3.2 -5 0  -3.1 -5 0  -3 -5 0  -2.9 -5 0  -2.8 -5 0  -2.7 -5 0  -2.6 -5 0  -2.5 -5 0  -2.4 -5 0  -2.3 -5 0  -2.2 -5 0  -2.1 -5 0  -2 -5 0  -1.9 -5 0  -1.8 -5 0  -1.7 -5 0  -1.6 -5 0  -1.5 -5 0  -1.4 -5 0  -1.3 -5 0  -1.2 -5 0  -1.1 -5 0  -1 -5 0  -0.9000000000000004 -5 0  -0.7999999999999998 -5 0  -0.7000000000000002 -5 0  -0.5999999999999996 -5 0  -0.5 -5 0  -0.4000000000000004 -5 0  -0.2999999999999998 -5 0  -0.2000000000000002 -5 0  -0.09999999999999964 -5 0  0 -5 0  0.09999999999999964 -5 0  0.2000000000000002 -5 0  0.2999999999999998 -5 0  0.4000000000000004 -5 0  0.5 -5 0  0.5999999999999996 -5 0  0.7000000000000002 -5 0  0.7999999999999998 -5 0  0.9000000000000004 -5 0  1 -5 0  1.1 -5 0  1.2 -5 0  1.3 -5 0  1.4 -5 0  1.5 -5 0  1.6 -5 0  1.7 -5 0  1.8 -5 0  1.9 -5 0  2 -5 0  2.1 -5 0  2.2 -5 0  2.3 -5 0  2.4 -5 0  2.5 -5 0  2.6 -5 0  2.7 -5 0  2.8 -5 0  2.9 -5 0  3 -5 0  3.1 -5 0  3.199999999999999 -5 0  3.300000000000001 -5 0  3.4 -5 0  3.5 -5 0  3.6 -5 0  3.699999999999999 -5 0  3.800000000000001 -5 0  3.9 -5 0  4 -5 0  4.1 -5 0  4.199999999999999 -5 0  4.300000000000001 -5 0  4.4 -5 0  4.5 -5 0  4.6 -5 0  4.699999999999999 -5 0  4.800000000000001 -5 0  4.9 -5 0  5 -4.9 0  5 -4.8 0  5 -4.7 0  5 -4.6 0  5 -4.5 0  5 -4.4 0  5 -4.3 0  5 -4.2 0  5 -4.1 0  5 -4 0  5 -3.9 0  5 -3.8 0  5 -3.7 0  5 -3.6 0  5 -3.5 0  5 -3.4 0  5 -3.3 0  5 -3.2 0  5 -3.1 0  5 -3 0  5 -2.9 0  5 -2.8 0  5 -2.7 0  5 -2.6 0  5 -2.5 0  5 -2.4 0  5 -2.3 0  5 -2.2 0  5 -2.1 0  5 -2 0  5 -1.9 0  5 -1.8 0  5 -1.7 0  5 -1.6 0  5 -1.5 0  5 -1.4 0  5 -1.3 0  5 -1.2 0  5 -1.1 0  5 -1 0  5 -0.9000000000000004 0  5 -0.7999999999999998 0  5 -0.7000000000000002 0  5 -0.5999999999999996 0  5 -0.5 0  5 -0.4000000000000004 0  5 -0.2999999999999998 0  5 -0.2000000000000002 0  5 -0.09999999999999964 0  5 0 0  5 0.09999999999999964 0  5 0.2000000000000002 0  5 0.2999999999999998 0  5 0.4000000000000004 0  5 0.5 0  5 0.5999999999999996 0  5 0.7000000000000002 0  5 0.7999999999999998 0  5 0.9000000000000004 0  5 1 0  5 1.1 0  5 1.2 0  5 1.3 0  5 1.4 0  5 1.5 0  5 1.6 0  5 1.7 0  5 1.8 0  5 1.9 0  5 2 0  5 2.1 0  5 2.2 0  5 2.3 0  5 2.4 0  5 2.5 0  5 2.6 0  5 2.7 0  5 2.8 0  5 2.9 0  5 3 0  5 3.1 0  5 3.199999999999999 0  5 3.300000000000001 0  5 3.4 0  5 3.5 0  5 3.6 0  5 3.699999999999999 0  5 3.800000000000001 0  5 3.9 0  5 4 0  5 4.1 0  5 4.199999999999999 0  5 4.300000000000001 0  5 4.4 0  5 4.5 0  5 4.6 0  5 4.699999999999999 0  5 4.800000000000001 0  5 4.9 0  4.9 5 0  4.8 5 0  4.7 5 0  4.6 5 0  4.5 5 0  4.4 5 0  4.3 5 0  4.2 5 0  4.1 5 0  4 5 0  3.9 5 0  3.8 5 0  3.7 5 0  3.6 5 0  3.5 5 0  3.4 5 0  3.3 5 0  3.2 5 0  3.1 5 0  3 5 0  2.9 5 0  2.8 5 0  2.7 5 0  2.6 5 0  2.5 5 0  2.4 5 0  2.3 5 0  2.2 5 0  2.1 5 0  2 5 0  1.9 5 0  1.8 5 0  1.7 5 0  1.6 5 0  1.5 5 0  1.4 5 0  1.3 5 0  1.2 5 0  1.1 5 0  1 5 0  0.9000000000000004 5 0  0.7999999999999998 5 0  0.7000000000000002 5 0  0.5999999999999996 5 0  0.5 5 0  0.4000000000000004 5 0  0.2999999999999998 5 0  0.2000000000000002 5 0  0.09999999999999964 5 0  0 5 0  -0.09999999999999964 5 0  -0.2000000000000002 5 0  -0.2999999999999998 5 0  -0.4000000000000004 5 0  -0.5 5 0  -0.5999999999999996 5 0  -0.7000000000000002 5 0  -0.7999999999999998 5 0  -0.9000000000000004 5 0  -1 5 0  -1.1 5 0  -1.2 5 0  -1.3 5 0  -1.4 5 0  -1.5 5 0  -1.6 5 0  -1.7 5 0  -1.8 5 0  -1.9 5 0  -2 5 0  -2.1 5 0  -2.2 5 0  -2.3 5 0  -2.4 5 0  -2.5 5 0  -2.6 5 0  -2.7 5 0  -2.8 5 0  -2.9 5 0  -3 5 0  -3.1 5 0  -3.199999999999999 5 0  -3.300000000000001 5 0  -3.4 5 0  -3.5 5 0  -3.6 5 0  -3.699999999999999 5 0  -3.800000000000001 5 0  -3.9 5 0  -4 5 0  -4.1 5 0  -4.199999999999999 5 0  -4.300000000000001 5 0  -4.4 5 0  -4.5 5 0  -4.6 5 0  -4.699999999999999 5 0  -4.800000000000001 5 0  -4.9 5 0  -5 4.9 0  -5 4.8 0  -5 4.7 0  -5 4.6 0  -5 4.5 0  -5 4.4 0  -5 4.3 0  -5 4.2 0  -5 4.1 0  -5 4 0  -5 3.9 0  -5 3.8 0  -5 3.7 0  -5 3.6 0  -5 3.5 0  -5 3.4 0  -5 3.3 0  -5 3.2 0  -5 3.1 0  -5 3 0  -5 2.9 0  -5 2.8 0  -5 2.7 0  -5 2.6 0  -5 2.5 0  -5 2.4 0  -5 2.3 0  -5 2.2 0  -5 2.1 0  -5 2 0  -5 1.9 0  -5 1.8 0  -5 1.7 0  -5 1.6 0  -5 1.5 0  -5 1.4 0  -5 1.3 0  -5 1.2 0  -5 1.1 0  -5 1 0  -5 0.9000000000000004 0  -5 0.7999999999999998 0  -5 0.7000000000000002 0  -5 0.5999999999999996 0  -5 0.5 0  -5 0.4000000000000004 0  -5 0.2999999999999998 0  -5 0.2000000000000002 0  -5 0.09999999999999964 0  -5 0 0  -5 -0.09999999999999964 0  -5 -0.2000000000000002 0  -5 -0.2999999999999998 0  -5 -0.4000000000000004 0  -5 -0.5 0  -5 -0.5999999999999996 0  -5 -0.7000000000000002 0  -5 -0.7999999999999998 0  -5 -0.9000000000000004 0  -5 -1 0  -5 -1.1 0  -5 -1.2 0  -5 -1.3 0  -5 -1.4 0  -5 -1.5 0  -5 -1.6 0  -5 -1.7 0  -5 -1.8 0  -5 -1.9 0  -5 -2 0  -5 -2.1 0  -5 -2.2 0  -5 -2.3 0  -5 -2.4 0  -5 -2.5 0  -5 -2.6 0  -5 -2.7 0  -5 -2.8 0  -5 -2.9 0  -5 -3 0  -5 -3.1 0  -5 -3.199999999999999 0  -5 -3.300000000000001 0  -5 -3.4 0  -5 -3.5 0  -5 -3.6 0  -5 -3.699999999999999 0  -5 -3.800000000000001 0  -5 -3.9 0  -5 -4 0  -5 -4.1 0  -5 -4.199999999999999 0  -5 -4.300000000000001 0  -5 -4.4 0  -5 -4.5 0  -5 -4.6 0  -5 -4.699999999999999 0  -5 -4.800000000000001 0  -5 -4.9 0  2.133231798843825 0.2241742420355432 0  1.940102401048995 0.3763573312556508 0  2.098599694745798 0.6223374890436892 0  1.761109361177157 0.6935315251394972 0  1.695194344436136 0.8934788321600924 0  1.512363907438875 0.9908300076323397 0  1.441042672267856 1.159452814997392 0  1.195309054160628 1.132994717339937 0  1.089733132616102 1.312430803594518 0  0.9364469247938365 1.40944951034623 0  0.7688038604092092 1.427642059266418 0  0.6217741073275411 1.476243702778064 0  0.4455341571286789 1.552245960921874 0  0.285854557365829 1.574001221339605 0  0.1292059999919825 1.620016762874418 0  -0.01937049857963393 1.609643944128638 0  -0.2220005134775416 1.576098414908662 0  -0.3840441842418634 1.577373523713185 0  -0.5274186125108533 1.524479881496493 0  -0.685138557825945 1.450130369499372 0  -0.8592888127936109 1.424891848116294 0  -0.9969811713798261 1.317442905233368 0  -1.15902105215056 1.233647382050281 0  -1.384315592579374 1.229460970568248 0  -1.354280325919978 0.9876172159232922 0  -1.620798267150437 0.9505625146117973 0  -1.796482757156486 0.8388671234654472 0  -1.820625444012297 0.655395479746844 0  -1.981810831543392 0.5032686887231927 0  -2.058323339058892 0.2921744569626056 0  -2.089762918668584 0.09385246738094723 0  -1.943301563537103 -0.1275794979077002 0  -2.212354961050344 -0.3372221536835416 0  -1.923956765397282 -0.4475811673517325 0  -1.813844850121455 -0.6435859831104387 0  -1.819283436027943 -0.8403378106196966 0  -1.524450051646334 -0.8851768688918142 0  -1.47801387874524 -1.073818587943111 0  -1.336501049136059 -1.184347469375539 0  -1.146478771656979 -1.2212934370171 0  -1.00839213175918 -1.3437694773836 0  -0.8497361263647186 -1.435978798792449 0  -0.6916245931020655 -1.481042723911717 0  -0.5210163320096726 -1.517491846223868 0  -0.3737523175178721 -1.590179217091465 0  -0.2088748595864158 -1.581725878587131 0  -0.04557216251968382 -1.609060631607974 0  0.1367051112765469 -1.601452028953398 0  0.2866720625734569 -1.594579377582607 0  0.45618595386587 -1.55995461678617 0  0.606899838342507 -1.506122021604027 0  0.7684129046606779 -1.414533049920489 0  0.9430799286085469 -1.412385732525453 0  1.097881487283142 -1.301947280079357 0  1.25985511673453 -1.245373912255524 0  1.38089855062686 -1.116366034126167 0  1.520132969500365 -0.9864658301189464 0  1.705943488974675 -0.8821118452685081 0  1.808658235880423 -0.7441088880515516 0  1.900519920315808 -0.5604597962860394 0  2.054272800496082 -0.4027069218160391 0  2.061362409288386 -0.2074400966552967 0  -2.449787499608041 4.920144230915619 0  -2.449758966934235 -4.91270687051538 0  4.91170876932111 2.448732189864881 0  4.919725499282339 -2.450060959739306 0  2.447683942718528 -4.898309582587466 0  2.442062815114789 4.902033254307548 0  -4.911739016075573 -2.44874203832346 0  -4.911774772075476 2.448747035601148 0  -1.749959039949049 4.914082092885141 0  -1.745671323774237 -4.917385133603087 0  4.92169215725632 1.744489579729315 0  4.910374118286706 -1.748424732438972 0  -4.910675544580241 -1.748112358453747 0  -4.91152293529059 1.747851625924311 0  1.747324562182933 4.908147299634065 0  1.748903949646975 -4.896677254802905 0  -1.150077723436622 4.912702540226693 0  -1.130814451394562 -4.920224154029863 0  -4.910093130231065 -1.148123739451226 0  -4.909937245609568 1.147916919288519 0  1.144985809315611 -4.916593275742999 0  1.150083648138726 4.912675378822182 0  4.910233186308295 1.14640241676406 0  4.920951578030901 -1.152065836340466 0  -0.547341218062436 -4.914320724269301 0  -0.5470555955447312 4.922640353117185 0  -4.908440254295056 -0.5487235172624502 0  -4.908478472359557 0.547261635207183 0  4.9077166845721 -0.549044041447783 0  4.919327346534208 0.5457447899300324 0  0.5432194469930732 -4.901822964494139 0  0.551807128190591 4.919613761452947 0  -4.912986153454922 -3.049114413248236 0  4.919489469156715 3.047056662319236 0  4.912506709224441 -3.049108484384659 0  -4.913851760065096 3.046193026924743 0  3.056270763009363 -4.918863152162893 0  -3.049648595025073 -4.912823539662806 0  3.053200023121371 4.914926431854304 0  -3.049121716708584 4.913763690326673 0  -4.907383435010144 -0.04991321160178186 0  0.04517113737836312 -4.916350174086294 0  0.04962074267321752 4.923066401092021 0  4.914387441729732 -0.05129581023506193 0  3.546306573662821 -4.920019477181221 0  -3.54965781814188 4.913040763178508 0  -3.549631931115127 -4.913052865869161 0  4
[...]
<PointData  Vectors="f_3386"> 
<DataArray  type="Float64"  Name="f_3386"  NumberOfComponents="3" format="ascii">-1.4593243748045220e-01 -1.7028681532555617e-01 0.0000000000000000e+00  1.5923197947958689e-01 -1.3470995054890544e-01 0.0000000000000000e+00  9.2832404785635675e-02 1.0843644545123748e-01 0.0000000000000000e+00  -1.5366082321354568e-01 1.7545086502619422e-01 0.0000000000000000e+00  9.2232455280636003e+00 -2.1295892099451721e+00 0.0000000000000000e+00  5.6197935964911960e-02 -1.2894701960654582e+00 0.0000000000000000e+00  4.7232741121463744e-02 -2.0934090269251215e+00 0.0000000000000000e+00  5.0126361163878703e-02 -3.4553353776413132e+00 0.0000000000000000e+00  3.8262460587481478e-02 -4.2714332361297762e+00 0.0000000000000000e+00  -9.3606758495298550e-02 -5.5494771453431841e+00 0.0000000000000000e+00  1.9076379589364149e-02 -6.8167893227061160e+00 0.0000000000000000e+00  3.3256131901034429e-02 -7.7725073774545086e+00 0.0000000000000000e+00  -1.5434400883434920e-02 -8.9401569957838252e+00 0.0000000000000000e+00  5.8057473203749724e-02 -9.8519480713323091e+00 0.0000000000000000e+00  5.9144477661628128e-02 -1.1181225585678835e+01 0.0000000000000000e+00  -9.1158386752106350e-03 -1.2069768535169764e+01 0.0000000000000000e+00  -1.5992477012627498e-02 -1.3236868059232425e+01 0.0000000000000000e+00  7.2192018970941296e-03 -1.4373593015375080e+01 0.0000000000000000e+00  4.9344933333305800e-03 -1.5447336036188011e+01 0.0000000000000000e+00  -6.0081482835408441e-03 -1.6539167501172404e+01 0.0000000000000000e+00  3.9124846005296910e-03 -1.7675813358827487e+01 0.0000000000000000e+00  2.3404509404068928e-02 -1.8773369242054677e+01 0.0000000000000000e+00  -3.3242646244022486e-03 -1.9644874500280984e+01 0.0000000000000000e+00  -7.5912982062330903e-03 -2.0847625213202644e+01 0.0000000000000000e+00  -2.9938898900064913e-02 -2.2050763391232184e+01 0.0000000000000000e+00  7.8369351281311950e-02 -2.2898210035758968e+01 0.0000000000000000e+00  3.5266874908507398e-02 -2.4124292521355045e+01 0.0000000000000000e+00  4.1944476691422768e-02 -2.4920891367023025e+01 0.0000000000000000e+00  6.9797323779559536e-02 -2.6098184440569195e+01 0.0000000000000000e+00  -3.2779404397698809e-02 -2.6924646442930307e+01 0.0000000000000000e+00  -1.1048837406255679e-02 -2.8057668208016171e+01 0.0000000000000000e+00  -4.0265140899452719e-03 -2.9114948459584618e+01 0.0000000000000000e+00  5.1347998210001994e-02 -2.9862080377805476e+01 0.0000000000000000e+00  3.7344971113571671e-02 -3.0999111907727354e+01 0.0000000000000000e+00  3.7266920312622194e-02 -3.1672905042195801e+01 0.0000000000000000e+00  -8.3836455470960955e-02 -3.2700852985662316e+01 0.0000000000000000e+00  3.6356362487722976e-02 -3.3667083998584047e+01 0.0000000000000000e+00  5.7036906713857820e-03 -3.4366728383462238e+01 0.0000000000000000e+00  -1.1888493673084199e-03 -3.5152442734195098e+01 0.0000000000000000e+00  -1.3712037847792360e-03 -3.5906473464768105e+01 0.0000000000000000e+00  6.3372622350680767e-03 -3.6626558690816594e+01 0.0000000000000000e+00  -3.6504720545220158e-02 -3.7373648352875691e+01 0.0000000000000000e+00  4.4524109737539619e-02 -3.7938423821791872e+01 0.0000000000000000e+00  2.3898849345227072e-02 -3.8523522470206949e+01 0.0000000000000000e+00  1.8235401108833132e-02 -3.9122161836739998e+01 0.0000000000000000e+00  -1.0263144202494655e-02 -3.9640059445946044e+01 0.0000000000000000e+00  4.3166116633444898e-02 -3.9993426135071054e+01 0.0000000000000000e+00  -3.1831570416734491e-02 -4.0474499693667518e+01 0.0000000000000000e+00  1.7675448440195914e-02 -4.0871189973375174e+01 0.0000000000000000e+00  -3.7904715430846312e-03 -4.1115861184582243e+01 0.0000000000000000e+00  1.2941623512218226e-03 -4.1374843249484343e+01 0.0000000000000000e+00  -9.1020570193380056e-04 -4.1568053162059208e+01 0.0000000000000000e+00  4.2375251452827026e-04 -4.1706622345605965e+01 0.0000000000000000e+00  2.2710360767652172e-04 -4.1788805301424198e+01 0.0000000000000000e+00  1.8712524075037687e-03 -4.1815192167654537e+01 0.0000000000000000e+00  6.7684521420633477e-04 -4.1796382208143818e+01 0.0000000000000000e+00  8.1954375980780401e-03 -4.1701896394408280e+01 0.0000000000000000e+00  -1.1315372222886724e-02 -4.1527867147977297e+01 0.0000000000000000e+00  -5.5054438519611202e-03 -4.1376887200253051e+01 0.0000000000000000e+00  -2.1742788801634522e-02 -4.1068619750050296e+01 0.0000000000000000e+00  7.0784825097911785e-03 -4.0817635969451430e+01 0.0000000000000000e+00  6.1023528019472119e-03 -4.0439383950563382e+01 0.0000000000000000e+00  -4.4579723580851329e-03 -4.0010428826044219e+01 0.0000000000000000e+00  -9.0740929691599578e-04 -3.9562326993241243e+01 0.0000000000000000e+00  5.4442989202958319e-03 -3.9047114685068713e+01 0.0000000000000000e+00  -1.2152009336387916e-02 -3.8489489949710425e+01 0.0000000000000000e+00  -7.7421234097290520e-03 -3.7868183412851735e+01 0.0000000000000000e+00  8.4767276849025096e-03 -3.7307873055905652e+01 0.0000000000000000e+00  -2.0110762554383526e-02 -3.6563821426927760e+01 0.0000000000000000e+00  2.3226835670918579e-02 -3.5835105489341800e+01 0.0000000000000000e+00  -2.9407129869288940e-02 -3.5085498100919189e+01 0.0000000000000000e+00  5.3660831772599548e-03 -3.4252341765469794e+01 0.0000000000000000e+00  1.4529764073041910e-02 -3.3499996467707177e+01 0.0000000000000000e+00  -2.1194562692003056e-02 -3.2611316876305573e+01 0.0000000000000000e+00  1.4970283879681421e-02 -3.1709151158301406e+01 0.0000000000000000e+00  -1.1167930138394861e-02 -3.0797495507011138e+01 0.0000000000000000e+00  4.8584127340458218e-03 -2.9883584717333441e+01 0.0000000000000000e+00  -2.0137424048228467e-02 -2.8944438341569814e+01 0.0000000000000000e+00  -6.5192151101214875e-03 -2.7923588115300074e+01 0.0000000000000000e+00  9.1444078976756250e-03 -2.7074415811820600e+01 0.0000000000000000e+00  1.6945429144254746e-03 -2.6003567656974987e+01 0.0000000000000000e+00  8.2180855077399161e-03 -2.4964548329348961e+01 0.0000000000000000e+00  -2.9328658320949035e-02 -2.3951295686094493e+01 0.0000000000000000e+00  -1.0609156161954592e-02 -2.2810157614956601e+01 0.0000000000000000e+00  1.8810824641359584e-02 -2.1875620841008761e+01 0.0000000000000000e+00  -2.8731983530836825e-02 -2.0733966927330624e+01 0.0000000000000000e+00  1.4896157431025854e-03 -1.9719089624019965e+01 0.0000000000000000e+00  1.1067959767009397e-02 -1.8681331066985475e+01 0.0000000000000000e+00  1.2125820674761768e-02 -1.7535459613103136e+01 0.0000000000000000e+00  -3.4024002060111184e-02 -1.6491375751816324e+01 0.0000000000000000e+00  6.8103584083312194e-03 -1.5331639343902701e+01 0.0000000000000000e+00  7.4546887745168683e-03 -1.4350917448853304e+01 0.0000000000000000e+00  -2.6995106979384020e-02 -1.3171449846917035e+01 0.0000000000000000e+00  -5.5733437727434722e-04 -1.2127244638590764e+01 0.0000000000000000e+00  1.4831295202390904e-02 -1.1001755098144203e+01 0.0000000000000000e+00  -8.2964501058451303e-04 -9.8872111049620024e+00 0.0000000000000000e+00  -1.4653688949655599e-02 -8.8119210862882671e+00 0.0000000000000000e+00  -1.1135407885636524e-02 -7.6664280222036290e+00 0.0000000000000000e+00  2.1628055214734567e-02 -6.6883891759464458e+00 0.0000000000000000e+00  -3.3082272001142485e-02 -5.5029059998803254e+00 0.0000000000000000e+00  7.9314171489335127e-03 -4.4271801770304329e+00 0.0000000000000000e+00  1.8131071978776246e-02 -3.2961592356876186e+00 0.0000000000000000e+00  -2.8409324712001163e-02 -2.1887442318470107e+00 0.0000000000000000e+00  -3.4976970113095383e-02 -1.2669109597723738e+00 0.0000000000000000e+00  1.3184771043987262e+00 3.1696558281104681e-02 0.0000000000000000e+00  2.1156432941792236e+00 8.0753819125041260e-02 0.0000000000000000e+00  3.4046616693056104e+00 5.9138010431298182e-02 0.0000000000000000e+00  4.3513059296910974e+00 -1.8076925035879928e-02 0.0000000000000000e+00  5.5292221559292507e+00 8.5266333558401720e-03 0.0000000000000000e+00  6.6139786806775520e+00 -6.1108078106078779e-03 0.0000000000000000e+00  7.7137474182746866e+00 1.2125750517041351e-03 0.0000000000000000e+00  8.8180713083469868e+00 -1.7939266210900270e-03 0.0000000000000000e+00  9.9142028920957177e+00 5.3418010681694015e-04 0.0000000000000000e+00  1.1034683681913837e+01 -3.2578143630979101e-04 0.0000000000000000e+00  1.2119568411770588e+01 -3.5871307694523604e-05 0.0000000000000000e+00  1.3232193738152803e+01 3.7777466170541936e-03 0.0000000000000000e+00  1.4297359817370104e+01 1.5457693541240745e-03 0.0000000000000000e+00  1.5435705944197363e+01 -7.3847714060501484e-03 0.0000000000000000e+00  1.6504062105654718e+01 3.7499736368040099e-03 0.0000000000000000e+00  1.7633437445982974e+01 3.1740299560225329e-03 0.0000000000000000e+00  1.8690864708492086e+01 -3.1489201844395764e-03 0.0000000000000000e+00  1.9759941621022463e+01 7.3756285484831612e-03 0.0000000000000000e+00  2.0877540035356372e+01 -7.2342190246733962e-03 0.0000000000000000e+00  2.1918579084549570e+01 -4.8882759873388965e-03 0.0000000000000000e+00  2.3009308606984458e+01 1.0041938899516750e-02 0.0000000000000000e+00  2.4076713026870909e+01 -1.0781336316902052e-02 0.0000000000000000e+00  2.5066455738682610e+01 7.7593526732591626e-03 0.0000000000000000e+00  2.6123055042098979e+01 1.8610834311674502e-03 0.0000000000000000e+00  2.7165941107551173e+01 4.6540864968396675e-03 0.0000000000000000e+00  2.8188280093690423e+01 -2.8030191327314711e-03 0.0000000000000000e+00  2.9174333583164440e+01 -1.9896794641724278e-03 0.0000000000000000e+00  3.0133730738397880e+01 -1.4747899869475135e-03 0.0000000000000000e+00  3.1086132467909799e+01 1.1436785648495704e-04 0.0000000000000000e+00  3.2016523654862134e+01 -3.5515238161849984e-04 0.0000000000000000e+00  3.2922903179264146e+01 2.2897310379729990e-04 0.0000000000000000e+00  3.3801732035891106e+01 -2.1981421772018311e-03 0.0000000000000000e+00  3.4642708540228206e+01 -8.9280420551500917e-04 0.0000000000000000e+00  3.5475423826729809e+01 4.2205132605493733e-03 0.0000000000000000e+00  3.6273844344759773e+01 -6.6650912246208798e-03 0.0000000000000000e+00  3.6986616139222313e+01 6.7853255300742848e-03 0.0000000000000000e+00  3.7708427937215951e+01 -6.3325137697803216e-04 0.0000000000000000e+00  3.8374426598415326e+01 7.7629921350667840e-03 0.0000000000000000e+00  3.8990060104171000e+01 9.9935005461484101e-03 0.0000000000000000e+00  3.9605011970757900e+01 -2.9909523098270288e-02 0.0000000000000000e+00  4.0181889910367779e+01 2.1854346731249377e-02 0.0000000000000000e+00  4.0618914006600704e+01 -9.4538414787500077e-03 0.0000000000000000e+00  4.1070285861541997e+01 1.2995637934076557e-03 0.0000000000000000e+00  4.1454388545968392e+01 -3.0101478549369471e-03 0.0000000000000000e+00  4.1765495244579505e+01 6.4395273625013939e-03 0.0000000000000000e+00  4.2036704653890233e+01 -1.1062016798028035e-03 0.0000000000000000e+00  4.2258206091867216e+01 4.9851703649417918e-04 0.0000000000000000e+00  4.2417239587648091e+01 -7.2252390192405734e-04 0.0000000000000000e+00  4.2516067172515285e+01 -2.7147612032738769e-04 0.0000000000000000e+00  4.2552530212358896e+01 5.6850478264329691e-04 0.0000000000000000e+00  4.2531740734675182e+01 6.6135204169464712e-04 0.0000000000000000e+00  4.2453974223930821e+01 -1.5688986863352497e-03 0.0000000000000000e+00  4.2311365263447556e+01 1.6968420499288727e-03 0.0000000000000000e+00  4.2110444664897486e+01 1.7894943123054473e-04 0.0000000000000000e+00  4.1861283869785140e+01 -3.0571362215361360e-03 0.0000000000000000e+00  4.1543481997370172e+01 3.5798356981952854e-03 0.0000000000000000e+00  4.1168157122334435e+01 -1.0930259236860640e-04 0.0000000000000000e+00  4.0749937205737709e+01 -4.2390892961563188e-03 0.0000000000000000e+00  4.0260462821606851e+01 9.4617859926030890e-04 0.0000000000000000e+00  3.9743724645458329e+01 2.1926808487815874e-03 0.0000000000000000e+00  3.9168616160032158e+01 -2.8536994474902930e-03 0.0000000000000000e+00  3.8569795389220680e+01 6.4564938850790636e-05 0.0000000000000000e+00  3.7890420410480175e+01 2.0237196593980147e-03 0.0000000000000000e+00  3.7188532689186950e+01 -1.8477827239624159e-03 0.0000000000000000e+00  3.6461298026660010e+01 6.7403703890166712e-03 0.0000000000000000e+00  3.5652653055167285e+01 -5.0122920867855395e-03 0.0000000000000000e+00  3.4856553968894254e+01 -6.7304508319554089e-03 0.0000000000000000e+00  3.3996746504869236e+01 8.6425913903251435e-03 0.0000000000000000e+00  3.3096493886057232e+01 -2.3766152605244791e-03 0.0000000000000000e+00  3.2198046091113874e+01 -4.4881207802410783e-03 0.0000000000000000e+00  3.1259606799728559e+01 3.7676579223720353e-03 0.0000000000000000e+00  3.0306797384926018e+01 3.3709581748713807e-03 0.0000000000000000e+00  2.9324669698131149e+01 -8.0426596599755351e-04 0.0000000000000000e+00  2.8335878018701329e+01 -3.1463358241859490e-05 0.0000000000000000e+00  2.7326563257956938e+01 2.0511967164976307e-03 0.0000000000000000e+00  2.6296433950783783e+01 -1.3042905641578763e-03 0.0000000000000000e+00  2.5279636825291167e+01 -2.1162077296653413e-03 0.0000000000000000e+00  2.4245315236436181e+01 6.3434098529347614e-03 0.0000000000000000e+00  2.3146705757392400e+01 -8.6973175459116557e-03 0.0000000000000000e+00  2.2074440872318601e+01 -9.2655857154251694e-04 0.0000000000000000e+00  2.0997817314491055e+01 -9.7056843361127318e-04 0.0000000000000000e+00  1.9949134620384548e+01 -3.6562128545390563e-04 0.0000000000000000e+00  1.8859490860134045e+01 8.9224261242546558e-03 0.0000000000000000e+00  1.7724429819980880e+01 -7.8128327195835425e-03 0.0000000000000000e+00  1.6625098806782123e+01 -1.0217834949528229e-03 0.0000000000000000e+00  1.5521333564950993e+01 5.4268176382596324e-04 0.0000000000000000e+00  1.4393121517088380e+01 3.7841158096354986e-03 0.0000000000000000e+00  1.3317833563028620e+01 1.6298874528733243e-03 0.0000000000000000e+00  1.2192655260939446e+01 -2.4322634319411704e-03 0.0000000000000000e+00  1.1095462548086733e+01 1.0475922325264937e-03 0.0000000000000000e+00  9.9869181039684722e+00 3.7607481115299463e-03 0.0000000000000000e+00  8.8999263011443173e+00 -1.3937870407278344e-03 0.0000000000000000e+00  7.7675885901452562e+00 -3.4095009424821568e-03 0.0000000000000000e+00  6.6577989003946909e+00 6.3810336607826416e-03 0.0000000000000000e+00  5.5676650900044748e+00 -1.1061188505657377e-02 0.0000000000000000e+00  4.4847730396729339e+00 -4.6902141514291520e-03 0.0000000000000000e+00  3.3644780052792327e+00 1.5294256636227833e-02 0.0000000000000000e+00  2.2083859413498752e+00 2.9170744637223550e-04 0.0000000000000000e+00  1.2001969486708681e+00 -4.0117422139113144e-02 0.0000000000000000e+00  -6.4545893962244236e-02 1.2393136695049924e+00 0.0000000000000000e+00  1.6153757734140559e-02 2.1522612568487403e+00 0.0000000000000000e+00  -2.7334919411181959e-02 3.3150411470092052e+00 0.0000000000000000e+00  -2.1458037611656166e-02 4.2639970975447836e+00 0.0000000000000000e+00  9.3122141992786137e-02 5.5432870167767492e+00 0.0000000000000000e+00  -2.3093628647268872e-02 6.8380947854099068e+00 0.0000000000000000e+00  -6.6546822384445578e-02 7.6473839369155465e+00 0.0000000000000000e+00  -9.5026285177329375e-02 8.9506679466654617e+00 0.0000000000000000e+00  2.7069664158271597e-02 9.8580322976350274e+00 0.0000000000000000e+00  2.9587540183530651e-02 1.1083437596857602e+01 0.0000000000000000e+00  -2.7451455418483758e-02 1.2195654320240582e+01 0.0000000000000000e+00  1.9763470575565410e-02 1.3261520343892471e+01 0.0000000000000000e+00  4.7451882079170707e-03 1.4465207336984697e+01 0.0000000000000000e+00  -3.7890968659860967e-03 1.5412951575709739e+01 0.0000000000000000e+00  -1.2724945774755768e-02 1.6581083348369273e+01 0.0000000000000000e+00  -5.4297141774178066e-03 1.7632859388069257e+01 0.0000000000000000e+00  1.5107744449228022e-02 1.8759948585195467e+01 0.0000000000000000e+00  -4.9173120619811070e-03 1.9876908299367859e+01 0.0000000000000000e+00  -1.1409676837501903e-02 2.0915584528638071e+01 0.0000000000000000e+00  -2.8886196740415117e-03 2.2044844206731963e+01 0.0000000000000000e+00  -1.0999495101479387e-02 2.2932144266546100e+01 0.0000000000000000e+00  2.4434311004911769e-02 2.4106123685217177e+01 0.0000000000000000e+00  -2.0399648586255686e-02 2.5112113162394770e+01 0.0000000000000000e+00  2.4134797819851523e-02 2.6141888210603515e+01 0.0000000000000000e+00  8.0930082791232962e-03 2.7226995360710141e+01 0.0000000000000000e+00  -5.6241231839692159e-02 2.8025780977189282e+01 0.0000000000000000e+00  -4.6768849601964466e-02 2.9198705939686537e+01 0.0000000000000000e+00  9.6735313269336216e-03 2.9983561082967690e+01 0.0000000000000000e+00  -3.0202179230801117e-02 3.0970576581505142e+01 0.0000000000000000e+00  -1.5066720797244889e-02 3.1755778597673689e+01 0.0000000000000000e+00  7.4229633919766502e-02 3.2766142344941230e+01 0.0000000000000000e+00  -2.6050980792967658e-02 3.3756789044400264e+01 0.0000000000000000e+00  -3.9568994682302031e-02 3.4378734720033187e+01 0.0000000000000000e+00  -4.3179476388118920e-02 3.5330997524686460e+01 0.0000000000000000e+00  5.6314125041016915e-03 3.5923167466271302e+01 0.0000000000000000e+00  1.3549249319295019e-02 3.6739175610729660e+01 0.0000000000000000e+00  -5.6319063604726265e-03 3.7444369767376671e+01 0.0000000000000000e+00  -1.6469193804468554e-03 3.8067631552838847e+01 0.0000000000000000e+00  1.1779363236140929e-03 3.8665041687043690e+01 0.0000000000000000e+00  1.4215700496517686e-03 3.9244138195357444e+01 0.0000000000000000e+00  -1.0374499547201575e-02 3.9760801332711779e+01 0.0000000000000000e+00  5.3680622607520665e-04 4.0132919392437039e+01 0.0000000000000000e+00  -3.6424508056183478e-04 4.0594987865354135e+01 0.0000000000000000e+00  4.4466706436224624e-03 4.0965161990602439e+01 0.0000000000000000e+00  -8.2699896245451050e-03 4.1261976955901375e+01 0.0000000000000000e+00  8.0556792910405489e-03 4.1527102472985810e+01 0.0000000000000000e+00  -2.8764410476330659e-03 4.1706215586030510e+01 0.0000000000000000e+00  -7.1953181135250574e-03 4.1859859566996263e+01 0.0000000000000000e+00  1.7484182297209606e-03 4.1941303015944634e+01 0.0000000000000000e+00  1.6836558365689101e-03 4.1975196098481810e+01 0.0000000000000000e+00  7.4184458377045143e-03 4.1937850670497653e+01 0.0000000000000000e+00  -8.3101314077584712e-03 4.1859312415993330e+01 0.0000000000000000e+00  3.7606445965837911e-03 4.1719690216109875e+01 0.0000000000000000e+00  -6.7660300582913016e-03 4.1515779114607831e+01 0.0000000000000000e+00  9.5999583683645789e-03 4.1263710692353939e+01 0.0000000000000000e+00  -8.3706045610139872e-03 4.0931504314677902e+01 0.0000000000000000e+00  1.8370843140787282e-02 4.0630071568239067e+01 0.0000000000000000e+00  2.1564791496527205e-02 4.0132121814988288e+01 0.0000000000000000e+00  1.2006116377300029e-02 3.9773535016670593e+01 0.0000000000000000e+00  4.4026199250997516e-02 3.9184872349996688e+01 0.0000000000000000e+00  -2.1242275895563628e-02 3.8736498010628075e+01 0.0000000000000000e+00  -7.6806569246165284e-03 3.8065824472603481e+01 0.0000000000000000e+00  8.5793416828172844e-03 3.7390135312431930e+01 0.0000000000000000e+00  -1.9498818188338385e-03 3.6730160412581107e+01 0.0000000000000000e+00  -6.5773635740848098e-04 3.6012680498503286e+01 0.0000000000000000e+00  -2.8203665695167878e-03 3.5237173586883223e+01 0.0000000000000000e+00  3.2919351186023646e-03 3.4454561576581717e+01 0.0000000000000000e+00  -1.6024697327036267e-02 3.3620662375222061e+01 0.0000000000000000e+00  2.9288383121314966e-02 3.2765234868778776e+01 0.0000000000000000e+00  -2.0741666382048038e-02 3.1811779198554611e+01 0.0000000000000000e+00  2.2951047632262935e-02 3.1027034513846534e+01 0.0000000000000000e+00  6.0843595360506224e-03 3.0098064803669971e+01 0.0000000000000000e+00  -2.5045996368303416e-02 2.9098186838821743e+01 0.0000000000000000e+00  1.6511062630778121e-02 2.8110473107238246e+01 0.0000000000000000e+00  -2.0776363151501737e-02 2.7132808067916624e+01 0.0000000000000000e+00  1.0049541578529173e-02 2.6070569504506324e+01 0.0000000000000000e+00  -4.4526446689711254e-03 2.5039141500866666e+01 0.0000000000000000e+00  4.2859763597179842e-02 2.4179894736684446e+01 0.