<?xml version="1.0"?>
<VTKFile type="UnstructuredGrid"  version="0.1"  >
<UnstructuredGrid>
<Piece  NumberOfPoints="11902" NumberOfCells="23402">
<Points>
<DataArray  type="Float64"  NumberOfComponents="3"  format="ascii">-5 -5 0  5 -5 0  5 5 0  -5 5 0  1.896267911608317 0.01096667549582838 0  -4.9 -5 0  -4.8 -5 0  -4.7 -5 0  -4.6 -5 0  -4.5 -5 0  -4.4 -5 0  -4.3 -5 0  -4.2 -5 0  -4.1 -5 0  -4 -5 0  -3.9 -5 0  -3.8 -5 0  -3.7 -5 0  -3.6 -5 0  -3.5 -5 0  -3.4 -5 0  -3.3 -5 0  -3.2 -5 0  -3.1 -5 0  -3 -5 0  -2.9 -5 0  -2.8 -5 0  -2.7 -5 0  -2.6 -5 0  -2.5 -5 0  -2.4 -5 0  -2.3 -5 0  -2.2 -5 0  -2.1 -5 0  -2 -5 0  -1.9 -5 0  -1.8 -5 0  -1.7 -5 0  -1.6 -5 0  -1.5 -5 0  -1.4 -5 0  -1.3 -5 0  -1.2 -5 0  -1.1 -5 0  -1 -5 0  -0.9000000000000004 -5 0  -0.7999999999999998 -5 0  -0.7000000000000002 -5 0  -0.5999999999999996 -5 0  -0.5 -5 0  -0.4000000000000004 -5 0  -0.2999999999999998 -5 0  -0.2000000000000002 -5 0  -0.09999999999999964 -5 0  0 -5 0  0.09999999999999964 -5 0  0.2000000000000002 -5 0  0.2999999999999998 -5 0  0.4000000000000004 -5 0  0.5 -5 0  0.5999999999999996 -5 0  0.7000000000000002 -5 0  0.7999999999999998 -5 0  0.9000000000000004 -5 0  1 -5 0  1.1 -5 0  1.2 -5 0  1.3 -5 0  1.4 -5 0  1.5 -5 0  1.6 -5 0  1.7 -5 0  1.8 -5 0  1.9 -5 0  2 -5 0  2.1 -5 0  2.2 -5 0  2.3 -5 0  2.4 -5 0  2.5 -5 0  2.6 -5 0  2.7 -5 0  2.8 -5 0  2.9 -5 0  3 -5 0  3.1 -5 0  3.199999999999999 -5 0  3.300000000000001 -5 0  3.4 -5 0  3.5 -5 0  3.6 -5 0  3.699999999999999 -5 0  3.800000000000001 -5 0  3.9 -5 0  4 -5 0  4.1 -5 0  4.199999999999999 -5 0  4.300000000000001 -5 0  4.4 -5 0  4.5 -5 0  4.6 -5 0  4.699999999999999 -5 0  4.800000000000001 -5 0  4.9 -5 0  5 -4.9 0  5 -4.8 0  5 -4.7 0  5 -4.6 0  5 -4.5 0  5 -4.4 0  5 -4.3 0  5 -4.2 0  5 -4.1 0  5 -4 0  5 -3.9 0  5 -3.8 0  5 -3.7 0  5 -3.6 0  5 -3.5 0  5 -3.4 0  5 -3.3 0  5 -3.2 0  5 -3.1 0  5 -3 0  5 -2.9 0  5 -2.8 0  5 -2.7 0  5 -2.6 0  5 -2.5 0  5 -2.4 0  5 -2.3 0  5 -2.2 0  5 -2.1 0  5 -2 0  5 -1.9 0  5 -1.8 0  5 -1.7 0  5 -1.6 0  5 -1.5 0  5 -1.4 0  5 -1.3 0  5 -1.2 0  5 -1.1 0  5 -1 0  5 -0.9000000000000004 0  5 -0.7999999999999998 0  5 -0.7000000000000002 0  5 -0.5999999999999996 0  5 -0.5 0  5 -0.4000000000000004 0  5 -0.2999999999999998 0  5 -0.2000000000000002 0  5 -0.09999999999999964 0  5 0 0  5 0.09999999999999964 0  5 0.2000000000000002 0  5 0.2999999999999998 0  5 0.4000000000000004 0  5 0.5 0  5 0.5999999999999996 0  5 0.7000000000000002 0  5 0.7999999999999998 0  5 0.9000000000000004 0  5 1 0  5 1.1 0  5 1.2 0  5 1.3 0  5 1.4 0  5 1.5 0  5 1.6 0  5 1.7 0  5 1.8 0  5 1.9 0  5 2 0  5 2.1 0  5 2.2 0  5 2.3 0  5 2.4 0  5 2.5 0  5 2.6 0  5 2.7 0  5 2.8 0  5 2.9 0  5 3 0  5 3.1 0  5 3.199999999999999 0  5 3.300000000000001 0  5 3.4 0  5 3.5 0  5 3.6 0  5 3.699999999999999 0  5 3.800000000000001 0  5 3.9 0  5 4 0  5 4.1 0  5 4.199999999999999 0  5 4.300000000000001 0  5 4.4 0  5 4.5 0  5 4.6 0  5 4.699999999999999 0  5 4.800000000000001 0  5 4.9 0  4.9 5 0  4.8 5 0  4.7 5 0  4.6 5 0  4.5 5 0  4.4 5 0  4.3 5 0  4.2 5 0  4.1 5 0  4 5 0  3.9 5 0  3.8 5 0  3.7 5 0  3.6 5 0  3.5 5 0  3.4 5 0  3.3 5 0  3.2 5 0  3.1 5 0  3 5 0  2.9 5 0  2.8 5 0  2.7 5 0  2.6 5 0  2.5 5 0  2.4 5 0  2.3 5 0  2.2 5 0  2.1 5 0  2 5 0  1.9 5 0  1.8 5 0  1.7 5 0  1.6 5 0  1.5 5 0  1.4 5 0  1.3 5 0  1.2 5 0  1.1 5 0  1 5 0  0.9000000000000004 5 0  0.7999999999999998 5 0  0.7000000000000002 5 0  0.5999999999999996 5 0  0.5 5 0  0.4000000000000004 5 0  0.2999999999999998 5 0  0.2000000000000002 5 0  0.09999999999999964 5 0  0 5 0  -0.09999999999999964 5 0  -0.2000000000000002 5 0  -0.2999999999999998 5 0  -0.4000000000000004 5 0  -0.5 5 0  -0.5999999999999996 5 0  -0.7000000000000002 5 0  -0.7999999999999998 5 0  -0.9000000000000004 5 0  -1 5 0  -1.1 5 0  -1.2 5 0  -1.3 5 0  -1.4 5 0  -1.5 5 0  -1.6 5 0  -1.7 5 0  -1.8 5 0  -1.9 5 0  -2 5 0  -2.1 5 0  -2.2 5 0  -2.3 5 0  -2.4 5 0  -2.5 5 0  -2.6 5 0  -2.7 5 0  -2.8 5 0  -2.9 5 0  -3 5 0  -3.1 5 0  -3.199999999999999 5 0  -3.300000000000001 5 0  -3.4 5 0  -3.5 5 0  -3.6 5 0  -3.699999999999999 5 0  -3.800000000000001 5 0  -3.9 5 0  -4 5 0  -4.1 5 0  -4.199999999999999 5 0  -4.300000000000001 5 0  -4.4 5 0  -4.5 5 0  -4.6 5 0  -4.699999999999999 5 0  -4.800000000000001 5 0  -4.9 5 0  -5 4.9 0  -5 4.8 0  -5 4.7 0  -5 4.6 0  -5 4.5 0  -5 4.4 0  -5 4.3 0  -5 4.2 0  -5 4.1 0  -5 4 0  -5 3.9 0  -5 3.8 0  -5 3.7 0  -5 3.6 0  -5 3.5 0  -5 3.4 0  -5 3.3 0  -5 3.2 0  -5 3.1 0  -5 3 0  -5 2.9 0  -5 2.8 0  -5 2.7 0  -5 2.6 0  -5 2.5 0  -5 2.4 0  -5 2.3 0  -5 2.2 0  -5 2.1 0  -5 2 0  -5 1.9 0  -5 1.8 0  -5 1.7 0  -5 1.6 0  -5 1.5 0  -5 1.4 0  -5 1.3 0  -5 1.2 0  -5 1.1 0  -5 1 0  -5 0.9000000000000004 0  -5 0.7999999999999998 0  -5 0.7000000000000002 0  -5 0.5999999999999996 0  -5 0.5 0  -5 0.4000000000000004 0  -5 0.2999999999999998 0  -5 0.2000000000000002 0  -5 0.09999999999999964 0  -5 0 0  -5 -0.09999999999999964 0  -5 -0.2000000000000002 0  -5 -0.2999999999999998 0  -5 -0.4000000000000004 0  -5 -0.5 0  -5 -0.5999999999999996 0  -5 -0.7000000000000002 0  -5 -0.7999999999999998 0  -5 -0.9000000000000004 0  -5 -1 0  -5 -1.1 0  -5 -1.2 0  -5 -1.3 0  -5 -1.4 0  -5 -1.5 0  -5 -1.6 0  -5 -1.7 0  -5 -1.8 0  -5 -1.9 0  -5 -2 0  -5 -2.1 0  -5 -2.2 0  -5 -2.3 0  -5 -2.4 0  -5 -2.5 0  -5 -2.6 0  -5 -2.7 0  -5 -2.8 0  -5 -2.9 0  -5 -3 0  -5 -3.1 0  -5 -3.199999999999999 0  -5 -3.300000000000001 0  -5 -3.4 0  -5 -3.5 0  -5 -3.6 0  -5 -3.699999999999999 0  -5 -3.800000000000001 0  -5 -3.9 0  -5 -4 0  -5 -4.1 0  -5 -4.199999999999999 0  -5 -4.300000000000001 0  -5 -4.4 0  -5 -4.5 0  -5 -4.6 0  -5 -4.699999999999999 0  -5 -4.800000000000001 0  -5 -4.9 0  2.384493269554052 0.2727227535842705 0  1.938818652410603 0.3607576104827863 0  2.338431305885678 0.7179209279456669 0  1.76358950142542 0.6572936998179862 0  1.833981474840885 0.9196141573692115 0  1.528623122013869 0.9961688543312927 0  1.317715718772877 1.262247602178652 0  1.158562048917167 0.9947673308446843 0  1.139261527038118 1.253212096199595 0  0.949479959274099 1.412473431347981 0  0.7828331637616692 1.421337370905164 0  0.6501074896316191 1.455305765141238 0  0.463476754566346 1.543851635424804 0  0.2947324268280402 1.576055217602515 0  0.1327116513082551 1.604440131509272 0  -0.02498947536144088 1.59990285977034 0  -0.2300341555726771 1.571732255692259 0  -0.3913780372834193 1.563801337542285 0  -0.5440404325423692 1.51850090484798 0  -0.7042416928281493 1.443027558476481 0  -0.8743078745619143 1.407682540187419 0  -1.045517634551001 1.294042872457223 0  -1.195284482200552 1.182021077008147 0  -1.352182559167019 1.251598214037052 0  -1.237310984834134 0.8353615657586039 0  -1.550934850030523 1.050361476295719 0  -1.943652392293851 0.9132799249127176 0  -1.813484488982863 0.6564170610667922 0  -2.150659118254444 0.58857925816312 0  -2.208991088935166 0.3080668452000914 0  -2.311686262602234 0.06376853422035354 0  -1.844865673885347 -0.1178844075151644 0  -2.491760278046986 -0.4853696644718099 0  -1.982861063399365 -0.4222975299729289 0  -1.871453005576555 -0.6466589017834528 0  -1.905954954150497 -0.9835521029340158 0  -1.516425381082376 -0.810771481195427 0  -1.538465068939255 -0.9745653619289624 0  -1.36870214512226 -1.18419231524937 0  -1.154032564654057 -1.170820843926927 0  -1.02078725426356 -1.309116776760956 0  -0.8648351753535737 -1.441773810031414 0  -0.6951237784727062 -1.469227989965284 0  -0.5359670946776589 -1.508022314680474 0  -0.378259233424592 -1.572542779056205 0  -0.2090902689025163 -1.582566808879541 0  -0.04599124469531589 -1.600813690321025 0  0.1422905758859839 -1.597933504745921 0  0.2894691838074068 -1.589825856406982 0  0.4659120918770578 -1.559662913909506 0  0.6291068851154918 -1.494229242140016 0  0.7580321465702285 -1.349914656367946 0  0.9391846128668473 -1.399904785324492 0  1.111036989002572 -1.290807185175787 0  1.29840878598189 -1.239864420762376 0  1.39068718516535 -1.041632562808864 0  1.487110042845472 -0.8849334776638205 0  1.806884566429464 -0.933405593156147 0  1.892211655762237 -0.7386991719617506 0  1.888051568624279 -0.5140230308515434 0  2.279809925012652 -0.4520035464404639 0  2.225191499744544 -0.1783852970718187 0  -2.449926392774597 4.920204424336251 0  -2.449886433785643 -4.912750002947125 0  4.911093346049158 2.448203984537608 0  4.919123716409288 -2.449528220731946 0  2.447822483537022 -4.898322635931269 0  2.442247157876125 4.902075789608858 0  -4.911141471865586 -2.448229039206242 0  -4.911183476059685 2.448228741406294 0  -1.750224508460159 4.914386109166402 0  -1.745915256877031 -4.917656634388998 0  4.920684606024833 1.743847127577465 0  4.909153612535597 -1.747733249379488 0  -4.909560223305909 -1.747441475765451 0  -4.910415117325654 1.747182692047527 0  1.747658686126411 4.90846510047592 0  1.749223474092892 -4.896965864669905 0  -1.150352429858198 4.913277615541721 0  -1.131063319012569 -4.920655083011542 0  -4.908459538735668 -1.147485434053033 0  -4.908289778910258 1.147277041219469 0  1.145235378396993 -4.917060175974358 0  1.150366561836104 4.913217457971644 0  4.908560878914471 1.145737043109153 0  4.919422712293998 -1.151445157570599 0  -0.5474815733183954 -4.915004985268928 0  -0.5471937556112372 4.923305264549782 0  -4.906348530213915 -0.5483350362837939 0  -4.906378411331795 0.5468775484828714 0  4.905491482092448 -0.5486696744945595 0  4.917419911900108 0.5453530527241249 0  0.5434475104137039 -4.902570221118802 0  0.5519557370865967 4.920303721752645 0  -4.91268681740497 -3.048776869994409 0  4.919209855478077 3.046724594653172 0  4.912167383971706 -3.048729540221762 0  -4.913560175417174 3.045852426811715 0  3.056265971893952 -4.918788447032608 0  -3.049669818094531 -4.912773851146373 0  3.053223739882888 4.9148799522824 0  -3.049145113510337 4.913716710837984 0  -4.905111394818586 -0.04987051797081483 0  0.04520926059960918 -4.917076100058877 0  0.04963711221159905 4.923775947888622 0  4.9122079167518 -0.05128883086658914 0  3.546245002525463 -4.919929699218066 0  -3.549619054914215 4.912976297066842 0  -3.549584801602711 -4.912990789598
[...]
<PointData  Vectors="f_7666"> 
<DataArray  type="Float64"  Name="f_7666"  NumberOfComponents="3" format="ascii">-1.5208599071209683e-01 -1.7746483014953568e-01 0.0000000000000000e+00  1.6603005478139218e-01 -1.4045206565916524e-01 0.0000000000000000e+00  9.6236296748510322e-02 1.1242077665956070e-01 0.0000000000000000e+00  -1.5908382463787812e-01 1.8163789231143498e-01 0.0000000000000000e+00  9.7053253489042852e+00 -7.6577569312012521e+00 0.0000000000000000e+00  5.8521446546491752e-02 -1.3441313539138040e+00 0.0000000000000000e+00  4.9314735478706330e-02 -2.1819499277271652e+00 0.0000000000000000e+00  5.2129298361594592e-02 -3.6014204265952974e+00 0.0000000000000000e+00  3.9941957593632629e-02 -4.4517036847566223e+00 0.0000000000000000e+00  -9.7480185909408310e-02 -5.7827906553448543e+00 0.0000000000000000e+00  1.9758174188905152e-02 -7.1024082237690935e+00 0.0000000000000000e+00  3.4601840932631252e-02 -8.0970966449133552e+00 0.0000000000000000e+00  -1.6224774701525523e-02 -9.3118410062582786e+00 0.0000000000000000e+00  6.0703072021300798e-02 -1.0259869238663246e+01 0.0000000000000000e+00  6.1137593174572236e-02 -1.1641218309910091e+01 0.0000000000000000e+00  -9.2896422433517457e-03 -1.2563456918670893e+01 0.0000000000000000e+00  -1.6591534310003785e-02 -1.3774438790509681e+01 0.0000000000000000e+00  7.4845833630052842e-03 -1.4952890378366252e+01 0.0000000000000000e+00  5.1121214377858855e-03 -1.6064953275870540e+01 0.0000000000000000e+00  -6.1957280642539470e-03 -1.7194624751248242e+01 0.0000000000000000e+00  4.0241172780083063e-03 -1.8369529710468132e+01 0.0000000000000000e+00  2.4075918873413694e-02 -1.9502720388193527e+01 0.0000000000000000e+00  -3.2356861473291933e-03 -2.0401368138498704e+01 0.0000000000000000e+00  -7.8050014539515974e-03 -2.1640380705477327e+01 0.0000000000000000e+00  -3.0904275367982400e-02 -2.2878044684115004e+01 0.0000000000000000e+00  8.0653777543355620e-02 -2.3748784687932023e+01 0.0000000000000000e+00  3.6136498746451730e-02 -2.5006511501808248e+01 0.0000000000000000e+00  4.2939064001151890e-02 -2.5822875944206036e+01 0.0000000000000000e+00  7.1305757774093162e-02 -2.7026954880549567e+01 0.0000000000000000e+00  -3.3380258752743835e-02 -2.7871700344585538e+01 0.0000000000000000e+00  -1.1118835813399843e-02 -2.9027382666033500e+01 0.0000000000000000e+00  -4.0936779091164778e-03 -3.0104217615816005e+01 0.0000000000000000e+00  5.1911846260362826e-02 -3.0863831474673514e+01 0.0000000000000000e+00  3.8133865418331872e-02 -3.2018438026802521e+01 0.0000000000000000e+00  3.7574554072813127e-02 -3.2701459474126985e+01 0.0000000000000000e+00  -8.4576204884375089e-02 -3.3742560754476074e+01 0.0000000000000000e+00  3.6864216610376213e-02 -3.4718836307135113e+01 0.0000000000000000e+00  5.6806319074672708e-03 -3.5424551690142543e+01 0.0000000000000000e+00  -1.1646896340424457e-03 -3.6216135875439342e+01 0.0000000000000000e+00  -1.3503401623941368e-03 -3.6974675260780252e+01 0.0000000000000000e+00  6.2638775024073659e-03 -3.7698197461647403e+01 0.0000000000000000e+00  -3.6148717398531378e-02 -3.8447814760719474e+01 0.0000000000000000e+00  4.3969483699525448e-02 -3.9013925832859300e+01 0.0000000000000000e+00  2.3836224315532450e-02 -3.9600122118023179e+01 0.0000000000000000e+00  1.8135949538388280e-02 -4.0198380746479820e+01 0.0000000000000000e+00  -9.9774533975027554e-03 -4.0715317098441545e+01 0.0000000000000000e+00  4.2514382639333423e-02 -4.1067820258454695e+01 0.0000000000000000e+00  -3.1489184968611805e-02 -4.1547666427316273e+01 0.0000000000000000e+00  1.7511313420596173e-02 -4.1942864887227067e+01 0.0000000000000000e+00  -3.7636178731235235e-03 -4.2186597043507000e+01 0.0000000000000000e+00  1.2888578678770966e-03 -4.2444363444565788e+01 0.0000000000000000e+00  -9.0393591658631371e-04 -4.2636632710823967e+01 0.0000000000000000e+00  4.1166009396539943e-04 -4.2774563671329446e+01 0.0000000000000000e+00  2.1737931620692121e-04 -4.2856431388679539e+01 0.0000000000000000e+00  1.8482777883123737e-03 -4.2882813409143907e+01 0.0000000000000000e+00  6.3752521709068311e-04 -4.2864334711069908e+01 0.0000000000000000e+00  8.0603719930660289e-03 -4.2770754587256157e+01 0.0000000000000000e+00  -1.1056386112820154e-02 -4.2597971534601534e+01 0.0000000000000000e+00  -5.5822714889207552e-03 -4.2448111396112424e+01 0.0000000000000000e+00  -2.1312453890743207e-02 -4.2141476609781094e+01 0.0000000000000000e+00  7.0170603742274176e-03 -4.1891760323271377e+01 0.0000000000000000e+00  5.9196300140622778e-03 -4.1515200719314272e+01 0.0000000000000000e+00  -4.3394140087009451e-03 -4.1087957290507084e+01 0.0000000000000000e+00  -9.1816568807400281e-04 -4.0640843160050657e+01 0.0000000000000000e+00  5.4049560076289520e-03 -4.0126532459937586e+01 0.0000000000000000e+00  -1.2195284423241715e-02 -3.9569446761618735e+01 0.0000000000000000e+00  -7.4941165754486630e-03 -3.8947351252657242e+01 0.0000000000000000e+00  8.2948191523039751e-03 -3.8385620503369850e+01 0.0000000000000000e+00  -1.9873049223791236e-02 -3.7639596021721310e+01 0.0000000000000000e+00  2.3141532996597228e-02 -3.6907637962230531e+01 0.0000000000000000e+00  -2.9599197832374739e-02 -3.6153764208968347e+01 0.0000000000000000e+00  5.4114467184846358e-03 -3.5313657800459964e+01 0.0000000000000000e+00  1.4570641904612115e-02 -3.4554420637059579e+01 0.0000000000000000e+00  -2.1254782396110700e-02 -3.3656996220999986e+01 0.0000000000000000e+00  1.5035072194121316e-02 -3.2743855529162602e+01 0.0000000000000000e+00  -1.1347614338098356e-02 -3.1819898554144107e+01 0.0000000000000000e+00  4.8981400637649790e-03 -3.0892040547808179e+01 0.0000000000000000e+00  -2.0622705767717662e-02 -2.9937190526690959e+01 0.0000000000000000e+00  -6.6572057266865879e-03 -2.8897338689707635e+01 0.0000000000000000e+00  9.3080859704403780e-03 -2.8031315909799805e+01 0.0000000000000000e+00  1.7574331014134823e-03 -2.6937869651478486e+01 0.0000000000000000e+00  8.3823295393330426e-03 -2.5874916390316457e+01 0.0000000000000000e+00  -3.0082748182423440e-02 -2.4836859699697250e+01 0.0000000000000000e+00  -1.1167500440330802e-02 -2.3666136566432829e+01 0.0000000000000000e+00  1.9521669385515347e-02 -2.2705908878723889e+01 0.0000000000000000e+00  -2.9599393727307844e-02 -2.1531507530857112e+01 0.0000000000000000e+00  1.4804418694499594e-03 -2.0486095870240664e+01 0.0000000000000000e+00  1.1467057260848391e-02 -1.9415615824523783e+01 0.0000000000000000e+00  1.2508994997970899e-02 -1.8232286664142290e+01 0.0000000000000000e+00  -3.5217291173881032e-02 -1.7152918398649827e+01 0.0000000000000000e+00  6.7559162505032933e-03 -1.5952920199642845e+01 0.0000000000000000e+00  8.0127173822055961e-03 -1.4936943311187411e+01 0.0000000000000000e+00  -2.8050214849599294e-02 -1.3713662875034542e+01 0.0000000000000000e+00  -5.7704507649362403e-04 -1.2630033050891596e+01 0.0000000000000000e+00  1.5440110854611683e-02 -1.1460760680354728e+01 0.0000000000000000e+00  -8.7897900485915757e-04 -1.0302162557997619e+01 0.0000000000000000e+00  -1.5204050619859603e-02 -9.1837282035391450e+00 0.0000000000000000e+00  -1.1766774059362595e-02 -7.9915775608994268e+00 0.0000000000000000e+00  2.2719464321492872e-02 -6.9731636133404615e+00 0.0000000000000000e+00  -3.4498889444417473e-02 -5.7379077256312812e+00 0.0000000000000000e+00  8.2798222594345668e-03 -4.6168474606446566e+00 0.0000000000000000e+00  1.8982561663471842e-02 -3.4375793059507758e+00 0.0000000000000000e+00  -2.9625230125991150e-02 -2.2827739306232471e+00 0.0000000000000000e+00  -3.6420873077252926e-02 -1.3214656688234512e+00 0.0000000000000000e+00  1.3752869294787151e+00 3.3023018610462057e-02 0.0000000000000000e+00  2.2067255940452024e+00 8.4313883494441952e-02 0.0000000000000000e+00  3.5517148470951008e+00 6.1673992468650858e-02 0.0000000000000000e+00  4.5394195135989799e+00 -1.8894845708115192e-02 0.0000000000000000e+00  5.7690130208234986e+00 8.8905580052174079e-03 0.0000000000000000e+00  6.9017592808422394e+00 -6.4014957500151872e-03 0.0000000000000000e+00  8.0506866320835346e+00 1.2398885163422161e-03 0.0000000000000000e+00  9.2049703562516889e+00 -1.9079521605488360e-03 0.0000000000000000e+00  1.0351364499577812e+01 5.3494704692211292e-04 0.0000000000000000e+00  1.1524035861336897e+01 -3.7112180161335434e-04 0.0000000000000000e+00  1.2660298791405328e+01 -4.0965458477187637e-05 0.0000000000000000e+00  1.3826602737256044e+01 3.8759928512511576e-03 0.0000000000000000e+00  1.4944145662834117e+01 1.6257086899772238e-03 0.0000000000000000e+00  1.6139677873860311e+01 -7.8366769422956433e-03 0.0000000000000000e+00  1.7262849413699417e+01 3.9555248393099030e-03 0.0000000000000000e+00  1.8451506687577663e+01 3.2796559252166848e-03 0.0000000000000000e+00  1.9565829004523980e+01 -3.3959232244509491e-03 0.0000000000000000e+00  2.0693866907325493e+01 7.8020838607370923e-03 0.0000000000000000e+00  2.1874706402444300e+01 -7.7553455554340523e-03 0.0000000000000000e+00  2.2976054264140807e+01 -5.1899790106182649e-03 0.0000000000000000e+00  2.4131703490418797e+01 1.0643065323441626e-02 0.0000000000000000e+00  2.5264400912449407e+01 -1.1617544111055646e-02 0.0000000000000000e+00  2.6316206537859539e+01 8.3481255467241552e-03 0.0000000000000000e+00  2.7440988586391352e+01 1.8575600807472811e-03 0.0000000000000000e+00  2.8553331661728684e+01 4.9880159765882644e-03 0.0000000000000000e+00  2.9645622967669890e+01 -3.0741860373869026e-03 0.0000000000000000e+00  3.0700892727105625e+01 -2.1756516736985000e-03 0.0000000000000000e+00  3.1729282394256522e+01 -1.6345244979356849e-03 0.0000000000000000e+00  3.2751947413345981e+01 6.6692462346655960e-05 0.0000000000000000e+00  3.3752730841398915e+01 -4.2930010629337262e-04 0.0000000000000000e+00  3.4729385141528148e+01 2.0181343334199408e-04 0.0000000000000000e+00  3.5677838387655015e+01 -2.4439655816002877e-03 0.0000000000000000e+00  3.6586830704979853e+01 -9.9039588651214151e-04 0.0000000000000000e+00  3.7488404695032159e+01 4.6618442248485817e-03 0.0000000000000000e+00  3.8354130410968772e+01 -7.4644909586995102e-03 0.0000000000000000e+00  3.9127991392628552e+01 7.6370617021300422e-03 0.0000000000000000e+00  3.9912482101103031e+01 -8.4335802420412991e-04 0.0000000000000000e+00  4.0637274167041184e+01 8.7601647723505021e-03 0.0000000000000000e+00  4.1308257523715739e+01 1.0999437742772827e-02 0.0000000000000000e+00  4.1978185414029639e+01 -3.3228710893698360e-02 0.0000000000000000e+00  4.2607421780351721e+01 2.4334103716889828e-02 0.0000000000000000e+00  4.3083436472063035e+01 -1.0509699106085381e-02 0.0000000000000000e+00  4.3575171671176633e+01 1.4099405812881378e-03 0.0000000000000000e+00  4.3992895588908375e+01 -3.3176113243632080e-03 0.0000000000000000e+00  4.4330427753793565e+01 7.2659680528946065e-03 0.0000000000000000e+00  4.4623486064877667e+01 -1.2175152829608643e-03 0.0000000000000000e+00  4.4861631109878410e+01 5.7868357311570927e-04 0.0000000000000000e+00  4.5030552087624557e+01 -8.0134094388230467e-04 0.0000000000000000e+00  4.5132935227680647e+01 -3.3539874019570577e-04 0.0000000000000000e+00  4.5166262519034682e+01 7.4326126341381403e-04 0.0000000000000000e+00  4.5135960849594298e+01 6.8430594799212064e-04 0.0000000000000000e+00  4.5043015014460067e+01 -1.8371367571233506e-03 0.0000000000000000e+00  4.4878167774336056e+01 2.0086132520068462e-03 0.0000000000000000e+00  4.4649181578518920e+01 1.4584136104990985e-04 0.0000000000000000e+00  4.4367584779114019e+01 -3.5166278700310793e-03 0.0000000000000000e+00  4.4010468418106569e+01 4.1240675623202107e-03 0.0000000000000000e+00  4.3590702365674495e+01 -2.0816745306868911e-04 0.0000000000000000e+00  4.3124699866315225e+01 -4.7621413526643076e-03 0.0000000000000000e+00  4.2581360604275851e+01 1.0188213896342871e-03 0.0000000000000000e+00  4.2009686529414182e+01 2.5166222638486721e-03 0.0000000000000000e+00  4.1375331629341325e+01 -3.2834432305344267e-03 0.0000000000000000e+00  4.0716506394025821e+01 1.1399516119168323e-04 0.0000000000000000e+00  3.9971104170074582e+01 2.2911441656895373e-03 0.0000000000000000e+00  3.9203259648181785e+01 -2.1148772776220536e-03 0.0000000000000000e+00  3.8409668762983905e+01 7.5647321725097819e-03 0.0000000000000000e+00  3.7529247683488997e+01 -5.6149873200169436e-03 0.0000000000000000e+00  3.6664896661697163e+01 -7.3107589643025515e-03 0.0000000000000000e+00  3.5733699430334518e+01 9.5241976863919674e-03 0.0000000000000000e+00  3.4761301003227459e+01 -2.5715546561924300e-03 0.0000000000000000e+00  3.3793442632238516e+01 -4.9255983777089151e-03 0.0000000000000000e+00  3.2784954512856565e+01 4.1409791271127512e-03 0.0000000000000000e+00  3.1763065205427040e+01 3.7362024182313052e-03 0.0000000000000000e+00  3.0712132912839966e+01 -8.3485193735210897e-04 0.0000000000000000e+00  2.9656612302209489e+01 1.8808354520801462e-05 0.0000000000000000e+00  2.8581429753852195e+01 2.2739121461127368e-03 0.0000000000000000e+00  2.7486084075904213e+01 -1.3450188354232186e-03 0.0000000000000000e+00  2.6407271553259385e+01 -2.1906745865194251e-03 0.0000000000000000e+00  2.5311802452458778e+01 6.8124978430600383e-03 0.0000000000000000e+00  2.4150203563487867e+01 -9.2079032600182378e-03 0.0000000000000000e+00  2.3018679924486218e+01 -9.3184905560394842e-04 0.0000000000000000e+00  2.1884518371548381e+01 -9.7937004349983440e-04 0.0000000000000000e+00  2.0781414740139777e+01 -3.2160497947054066e-04 0.0000000000000000e+00  1.9636912758563362e+01 9.4224266632452862e-03 0.0000000000000000e+00  1.8446380417983825e+01 -8.2004985500339772e-03 0.0000000000000000e+00  1.7294972661852931e+01 -1.0156276526852152e-03 0.0000000000000000e+00  1.6140368985996183e+01 6.2460253423576037e-04 0.0000000000000000e+00  1.4961574247615923e+01 3.9794940185512934e-03 0.0000000000000000e+00  1.3839284891955653e+01 1.7403477106956943e-03 0.0000000000000000e+00  1.2666034592650567e+01 -2.5137140339760822e-03 0.0000000000000000e+00  1.1522995321372733e+01 1.1283424600172340e-03 0.0000000000000000e+00  1.0369074828127150e+01 3.9311075384134567e-03 0.0000000000000000e+00  9.2384052070746652e+00 -1.4347229327931197e-03 0.0000000000000000e+00  8.0612965076911802e+00 -3.5250337873203173e-03 0.0000000000000000e+00  6.9083025784664622e+00 6.6566991960328821e-03 0.0000000000000000e+00  5.7762933380305910e+00 -1.1471622648569395e-02 0.0000000000000000e+00  4.6522682637200692e+00 -4.8462586945958400e-03 0.0000000000000000e+00  3.4898011985568340e+00 1.5879933505740566e-02 0.0000000000000000e+00  2.2904850458394206e+00 3.1256746919642258e-04 0.0000000000000000e+00  1.2448102943217749e+00 -4.1579098553128267e-02 0.0000000000000000e+00  -6.6889993785668400e-02 1.2853570998764361e+00 0.0000000000000000e+00  1.6770668704167088e-02 2.2320468447642798e+00 0.0000000000000000e+00  -2.8352411483754936e-02 3.4376428315127407e+00 0.0000000000000000e+00  -2.2233299423696829e-02 4.4213838497665039e+00 0.0000000000000000e+00  9.6428629202495855e-02 5.7470012003540463e+00 0.0000000000000000e+00  -2.3740628377919414e-02 7.0883085356184239e+00 0.0000000000000000e+00  -6.9169389103490991e-02 7.9261092881274342e+00 0.0000000000000000e+00  -9.8089287046192797e-02 9.2750069445546437e+00 0.0000000000000000e+00  2.7863263255745216e-02 1.0212904404073285e+01 0.0000000000000000e+00  3.0622255032280190e-02 1.1479348851142479e+01 0.0000000000000000e+00  -2.8385637031432303e-02 1.2627723884409523e+01 0.0000000000000000e+00  2.0439041023664558e-02 1.3727346201761547e+01 0.0000000000000000e+00  5.0775797387375221e-03 1.4967940080466652e+01 0.0000000000000000e+00  -4.1394155114115186e-03 1.5943705978692854e+01 0.0000000000000000e+00  -1.3093035192769180e-02 1.7144979996589857e+01 0.0000000000000000e+00  -5.6428393741517662e-03 1.8225454583922762e+01 0.0000000000000000e+00  1.5491776754510234e-02 1.9381882880849044e+01 0.0000000000000000e+00  -5.0530738555829647e-03 2.0526527882136673e+01 0.0000000000000000e+00  -1.1613107904352285e-02 2.1589434119164505e+01 0.0000000000000000e+00  -2.9017323996079953e-03 2.2743163900128252e+01 0.0000000000000000e+00  -1.1330708720793562e-02 2.3648664263798938e+01 0.0000000000000000e+00  2.4742366593414878e-02 2.4844750653092692e+01 0.0000000000000000e+00  -2.0734507340623005e-02 2.5868362597525824e+01 0.0000000000000000e+00  2.4438745536326696e-02 2.6914108119433148e+01 0.0000000000000000e+00  8.1828300804870358e-03 2.8014457823984497e+01 0.0000000000000000e+00  -5.6713799459817776e-02 2.8823026942542480e+01 0.0000000000000000e+00  -4.7371253575206516e-02 3.0008430530033369e+01 0.0000000000000000e+00  9.6451755755738462e-03 3.0800301430640761e+01 0.0000000000000000e+00  -3.0365656576446076e-02 3.1795067916087106e+01 0.0000000000000000e+00  -1.5113633686208876e-02 3.2584541288394810e+01 0.0000000000000000e+00  7.4433148234758884e-02 3.3599083104661737e+01 0.0000000000000000e+00  -2.6176545217674135e-02 3.4590934165340336e+01 0.0000000000000000e+00  -3.9038416345484363e-02 3.5213241769964441e+01 0.0000000000000000e+00  -4.3253269130664088e-02 3.6163597791593205e+01 0.0000000000000000e+00  5.7939571722250404e-03 3.6754792248217804e+01 0.0000000000000000e+00  1.3223876129248267e-02 3.7566737595111192e+01 0.0000000000000000e+00  -5.4847433956334655e-03 3.8267265561522287e+01 0.0000000000000000e+00  -1.6087983722813091e-03 3.8885492758664341e+01 0.0000000000000000e+00  1.1826850646826422e-03 3.9477257935630135e+01 0.0000000000000000e+00  1.3724037605178782e-03 4.0049718127953199e+01 0.0000000000000000e+00  -1.0226216920092551e-02 4.0559686351279488e+01 0.0000000000000000e+00  7.1421270787338392e-04 4.0927175977571466e+01 0.0000000000000000e+00  -5.5364774060416881e-04 4.1381976665565396e+01 0.0000000000000000e+00  4.4180361459714556e-03 4.1745389049816801e+01 0.0000000000000000e+00  -8.0283450834265965e-03 4.2036732396860806e+01 0.0000000000000000e+00  7.8122444316984915e-03 4.2296239279090990e+01 0.0000000000000000e+00  -2.7801912976118930e-03 4.2471106692935024e+01 0.0000000000000000e+00  -6.9543947868862645e-03 4.2620601287278042e+01 0.0000000000000000e+00  1.6291433862765114e-03 4.2698744761328314e+01 0.0000000000000000e+00  1.7212967906078003e-03 4.2730171081334525e+01 0.0000000000000000e+00  7.1816861116810599e-03 4.2691360802480901e+01 0.0000000000000000e+00  -8.0822196285850259e-03 4.2612306185179889e+01 0.0000000000000000e+00  3.6822895027531694e-03 4.2472759521671378e+01 0.0000000000000000e+00  -6.5782480651224075e-03 4.2270110294881796e+01 0.0000000000000000e+00  9.3431196175067042e-03 4.2019945146255395e+01 0.0000000000000000e+00  -8.2998632385964284e-03 4.1690411085133647e+01 0.0000000000000000e+00  1.8266075779679394e-02 4.1391484971317595e+01 0.0000000000000000e+00  2.0946384396972283e-02 4.0897799913102574e+01 0.0000000000000000e+00  1.2233184388800984e-02 4.0542558009508362e+01 0.0000000000000000e+00  4.3072795411852667e-02 3.9957862812861279e+01 0.0000000000000000e+00  -2.0974449393288460e-02 3.9512806195455013e+01 0.0000000000000000e+00  -7.4100103882334054e-03 3.8846427703883087e+01 0.0000000000000000e+00  8.3982810331004777e-03 3.8174776185476532e+01 0.0000000000000000e+00  -1.8848676772751198e-03 3.7517346768326718e+01 0.0000000000000000e+00  -6.3929465199753105e-04 3.6802159083043740e+01 0.0000000000000000e+00  -2.7636203144953161e-03 3.6028288477589555e+01 0.0000000000000000e+00  3.2374369027085622e-03 3.5246231535905999e+01 0.0000000000000000e+00  -1.5900172197486271e-02 3.4411726113037325e+01 0.0000000000000000e+00  2.9425276311299015e-02 3.3554538133058053e+01 0.0000000000000000e+00  -2.0768493856869380e-02 3.2596817786575571e+01 0.0000000000000000e+00  2.3131450572034178e-02 3.1808000394507726e+01 0.0000000000000000e+00  6.0628260816775479e-03 3.0873227115375737e+01 0.0000000000000000e+00  -2.5176028858239861e-02 2.9865092874176231e+01 0.0000000000000000e+00  1.6618857576923149e-02 2.8867750945971405e+01 0.0000000000000000e+00  -2.0906974251683589e-02 2.7878696633561255e+01 0.0000000000000000e+00  1.0284624088592306e-02 2.6802659413713840e+01 0.0000000000000000e+00  -4.4488897817652152e-03 2.5755974566066108e+01 0.0000000000000000e+00  4.3503722624247496e-02 2.4882762982523424e+01 0.0