<?xml version="1.0"?>
<VTKFile type="UnstructuredGrid"  version="0.1"  >
<UnstructuredGrid>
<Piece  NumberOfPoints="11902" NumberOfCells="23402">
<Points>
<DataArray  type="Float64"  NumberOfComponents="3"  format="ascii">-5 -5 0  5 -5 0  5 5 0  -5 5 0  1.295251079039469 -0.001294458416183096 0  -4.9 -5 0  -4.8 -5 0  -4.7 -5 0  -4.6 -5 0  -4.5 -5 0  -4.4 -5 0  -4.3 -5 0  -4.2 -5 0  -4.1 -5 0  -4 -5 0  -3.9 -5 0  -3.8 -5 0  -3.7 -5 0  -3.6 -5 0  -3.5 -5 0  -3.4 -5 0  -3.3 -5 0  -3.2 -5 0  -3.1 -5 0  -3 -5 0  -2.9 -5 0  -2.8 -5 0  -2.7 -5 0  -2.6 -5 0  -2.5 -5 0  -2.4 -5 0  -2.3 -5 0  -2.2 -5 0  -2.1 -5 0  -2 -5 0  -1.9 -5 0  -1.8 -5 0  -1.7 -5 0  -1.6 -5 0  -1.5 -5 0  -1.4 -5 0  -1.3 -5 0  -1.2 -5 0  -1.1 -5 0  -1 -5 0  -0.9000000000000004 -5 0  -0.7999999999999998 -5 0  -0.7000000000000002 -5 0  -0.5999999999999996 -5 0  -0.5 -5 0  -0.4000000000000004 -5 0  -0.2999999999999998 -5 0  -0.2000000000000002 -5 0  -0.09999999999999964 -5 0  0 -5 0  0.09999999999999964 -5 0  0.2000000000000002 -5 0  0.2999999999999998 -5 0  0.4000000000000004 -5 0  0.5 -5 0  0.5999999999999996 -5 0  0.7000000000000002 -5 0  0.7999999999999998 -5 0  0.9000000000000004 -5 0  1 -5 0  1.1 -5 0  1.2 -5 0  1.3 -5 0  1.4 -5 0  1.5 -5 0  1.6 -5 0  1.7 -5 0  1.8 -5 0  1.9 -5 0  2 -5 0  2.1 -5 0  2.2 -5 0  2.3 -5 0  2.4 -5 0  2.5 -5 0  2.6 -5 0  2.7 -5 0  2.8 -5 0  2.9 -5 0  3 -5 0  3.1 -5 0  3.199999999999999 -5 0  3.300000000000001 -5 0  3.4 -5 0  3.5 -5 0  3.6 -5 0  3.699999999999999 -5 0  3.800000000000001 -5 0  3.9 -5 0  4 -5 0  4.1 -5 0  4.199999999999999 -5 0  4.300000000000001 -5 0  4.4 -5 0  4.5 -5 0  4.6 -5 0  4.699999999999999 -5 0  4.800000000000001 -5 0  4.9 -5 0  5 -4.9 0  5 -4.8 0  5 -4.7 0  5 -4.6 0  5 -4.5 0  5 -4.4 0  5 -4.3 0  5 -4.2 0  5 -4.1 0  5 -4 0  5 -3.9 0  5 -3.8 0  5 -3.7 0  5 -3.6 0  5 -3.5 0  5 -3.4 0  5 -3.3 0  5 -3.2 0  5 -3.1 0  5 -3 0  5 -2.9 0  5 -2.8 0  5 -2.7 0  5 -2.6 0  5 -2.5 0  5 -2.4 0  5 -2.3 0  5 -2.2 0  5 -2.1 0  5 -2 0  5 -1.9 0  5 -1.8 0  5 -1.7 0  5 -1.6 0  5 -1.5 0  5 -1.4 0  5 -1.3 0  5 -1.2 0  5 -1.1 0  5 -1 0  5 -0.9000000000000004 0  5 -0.7999999999999998 0  5 -0.7000000000000002 0  5 -0.5999999999999996 0  5 -0.5 0  5 -0.4000000000000004 0  5 -0.2999999999999998 0  5 -0.2000000000000002 0  5 -0.09999999999999964 0  5 0 0  5 0.09999999999999964 0  5 0.2000000000000002 0  5 0.2999999999999998 0  5 0.4000000000000004 0  5 0.5 0  5 0.5999999999999996 0  5 0.7000000000000002 0  5 0.7999999999999998 0  5 0.9000000000000004 0  5 1 0  5 1.1 0  5 1.2 0  5 1.3 0  5 1.4 0  5 1.5 0  5 1.6 0  5 1.7 0  5 1.8 0  5 1.9 0  5 2 0  5 2.1 0  5 2.2 0  5 2.3 0  5 2.4 0  5 2.5 0  5 2.6 0  5 2.7 0  5 2.8 0  5 2.9 0  5 3 0  5 3.1 0  5 3.199999999999999 0  5 3.300000000000001 0  5 3.4 0  5 3.5 0  5 3.6 0  5 3.699999999999999 0  5 3.800000000000001 0  5 3.9 0  5 4 0  5 4.1 0  5 4.199999999999999 0  5 4.300000000000001 0  5 4.4 0  5 4.5 0  5 4.6 0  5 4.699999999999999 0  5 4.800000000000001 0  5 4.9 0  4.9 5 0  4.8 5 0  4.7 5 0  4.6 5 0  4.5 5 0  4.4 5 0  4.3 5 0  4.2 5 0  4.1 5 0  4 5 0  3.9 5 0  3.8 5 0  3.7 5 0  3.6 5 0  3.5 5 0  3.4 5 0  3.3 5 0  3.2 5 0  3.1 5 0  3 5 0  2.9 5 0  2.8 5 0  2.7 5 0  2.6 5 0  2.5 5 0  2.4 5 0  2.3 5 0  2.2 5 0  2.1 5 0  2 5 0  1.9 5 0  1.8 5 0  1.7 5 0  1.6 5 0  1.5 5 0  1.4 5 0  1.3 5 0  1.2 5 0  1.1 5 0  1 5 0  0.9000000000000004 5 0  0.7999999999999998 5 0  0.7000000000000002 5 0  0.5999999999999996 5 0  0.5 5 0  0.4000000000000004 5 0  0.2999999999999998 5 0  0.2000000000000002 5 0  0.09999999999999964 5 0  0 5 0  -0.09999999999999964 5 0  -0.2000000000000002 5 0  -0.2999999999999998 5 0  -0.4000000000000004 5 0  -0.5 5 0  -0.5999999999999996 5 0  -0.7000000000000002 5 0  -0.7999999999999998 5 0  -0.9000000000000004 5 0  -1 5 0  -1.1 5 0  -1.2 5 0  -1.3 5 0  -1.4 5 0  -1.5 5 0  -1.6 5 0  -1.7 5 0  -1.8 5 0  -1.9 5 0  -2 5 0  -2.1 5 0  -2.2 5 0  -2.3 5 0  -2.4 5 0  -2.5 5 0  -2.6 5 0  -2.7 5 0  -2.8 5 0  -2.9 5 0  -3 5 0  -3.1 5 0  -3.199999999999999 5 0  -3.300000000000001 5 0  -3.4 5 0  -3.5 5 0  -3.6 5 0  -3.699999999999999 5 0  -3.800000000000001 5 0  -3.9 5 0  -4 5 0  -4.1 5 0  -4.199999999999999 5 0  -4.300000000000001 5 0  -4.4 5 0  -4.5 5 0  -4.6 5 0  -4.699999999999999 5 0  -4.800000000000001 5 0  -4.9 5 0  -5 4.9 0  -5 4.8 0  -5 4.7 0  -5 4.6 0  -5 4.5 0  -5 4.4 0  -5 4.3 0  -5 4.2 0  -5 4.1 0  -5 4 0  -5 3.9 0  -5 3.8 0  -5 3.7 0  -5 3.6 0  -5 3.5 0  -5 3.4 0  -5 3.3 0  -5 3.2 0  -5 3.1 0  -5 3 0  -5 2.9 0  -5 2.8 0  -5 2.7 0  -5 2.6 0  -5 2.5 0  -5 2.4 0  -5 2.3 0  -5 2.2 0  -5 2.1 0  -5 2 0  -5 1.9 0  -5 1.8 0  -5 1.7 0  -5 1.6 0  -5 1.5 0  -5 1.4 0  -5 1.3 0  -5 1.2 0  -5 1.1 0  -5 1 0  -5 0.9000000000000004 0  -5 0.7999999999999998 0  -5 0.7000000000000002 0  -5 0.5999999999999996 0  -5 0.5 0  -5 0.4000000000000004 0  -5 0.2999999999999998 0  -5 0.2000000000000002 0  -5 0.09999999999999964 0  -5 0 0  -5 -0.09999999999999964 0  -5 -0.2000000000000002 0  -5 -0.2999999999999998 0  -5 -0.4000000000000004 0  -5 -0.5 0  -5 -0.5999999999999996 0  -5 -0.7000000000000002 0  -5 -0.7999999999999998 0  -5 -0.9000000000000004 0  -5 -1 0  -5 -1.1 0  -5 -1.2 0  -5 -1.3 0  -5 -1.4 0  -5 -1.5 0  -5 -1.6 0  -5 -1.7 0  -5 -1.8 0  -5 -1.9 0  -5 -2 0  -5 -2.1 0  -5 -2.2 0  -5 -2.3 0  -5 -2.4 0  -5 -2.5 0  -5 -2.6 0  -5 -2.7 0  -5 -2.8 0  -5 -2.9 0  -5 -3 0  -5 -3.1 0  -5 -3.199999999999999 0  -5 -3.300000000000001 0  -5 -3.4 0  -5 -3.5 0  -5 -3.6 0  -5 -3.699999999999999 0  -5 -3.800000000000001 0  -5 -3.9 0  -5 -4 0  -5 -4.1 0  -5 -4.199999999999999 0  -5 -4.300000000000001 0  -5 -4.4 0  -5 -4.5 0  -5 -4.6 0  -5 -4.699999999999999 0  -5 -4.800000000000001 0  -5 -4.9 0  1.289507805742006 0.1251992588617216 0  1.268797577800385 0.2454647070814395 0  1.236602430173966 0.3625924835351899 0  1.186559933249281 0.4734588798429337 0  1.12630773223844 0.5798987416224649 0  1.054673784478856 0.6793335399444069 0  0.9695482991160079 0.7774485737771943 0  0.8801172117369701 0.857418907615609 0  0.7835452189998704 0.932601186341839 0  0.6806709335346356 0.9973933817378314 0  0.5651648324781429 1.054343806935947 0  0.4554978575940366 1.098002865758623 0  0.3331623377290592 1.135815750197268 0  0.2125223242871232 1.160805307955407 0  0.09115594865971458 1.17637704599405 0  -0.03402261966417505 1.179887429430187 0  -0.1505187897354887 1.170926858232968 0  -0.2711903748832096 1.151174592260481 0  -0.3943449317970302 1.118927150708193 0  -0.5093241861168387 1.078259370538147 0  -0.62299356788265 1.027904611458084 0  -0.7312298849131582 0.9657691896616062 0  -0.8309206294477467 0.8973184935967605 0  -0.928880923487487 0.8169925403154513 0  -1.012195035147486 0.727127775785912 0  -1.089498531341829 0.6326882352659021 0  -1.156087199151035 0.5293237860354283 0  -1.210620445116169 0.4165781261985242 0  -1.252699606269789 0.302359417443165 0  -1.280629171182605 0.1842691688103483 0  -1.294564414188447 0.06150453809318419 0  -1.293955475949624 -0.05984451511298396 0  -1.282882457850198 -0.1806939236241398 0  -1.251587508586658 -0.304552870063457 0  -1.209197116713935 -0.4176008674997815 0  -1.154494077934234 -0.5303494936708478 0  -1.088351377694289 -0.6301287638364007 0  -1.011869773573302 -0.7281978947168468 0  -0.9250906661165241 -0.8182877063858082 0  -0.8313170707102246 -0.8966038703609862 0  -0.7316926697847915 -0.9667721422521667 0  -0.6233551976500447 -1.029154126384993 0  -0.5098630698396772 -1.079756721662303 0  -0.3941104262335808 -1.118980003058111 0  -0.2741252547669524 -1.149861119441751 0  -0.15443427858288 -1.167407570253612 0  -0.03324516155034685 -1.17641421954847 0  0.09574383095145197 -1.173657085819231 0  0.2128833174046234 -1.160526479982664 0  0.3382401745965931 -1.134817852555404 0  0.4519452255599763 -1.100192659677784 0  0.5697210826857876 -1.052868595240295 0  0.6761433831688117 -1.001450274792177 0  0.7846002705801546 -0.9335713295076929 0  0.8823518091350162 -0.8589879711982605 0  0.9721381644981523 -0.7746695855958319 0  1.053175608389306 -0.6822584153699642 0  1.12356811286058 -0.5841301127291765 0  1.183727878166111 -0.4760414001941323 0  1.233807602249117 -0.3577809422714905 0  1.267570898830796 -0.2453189841134806 0  1.28875919612678 -0.1208642717005901 0  -2.449963823719656 4.920444743796089 0  -2.449958071033956 -4.913021945679244 0  4.912803821386781 2.449749589622072 0  4.920709501652311 -2.451037670478779 0  2.447948664896052 -4.898701571078138 0  2.442334347886562 4.902350613780531 0  -4.912812659241043 -2.449757344837725 0  -4.912819618500064 2.449760947174971 0  -1.749997770745937 4.914342693714989 0  -1.745720172689712 -4.917642277208447 0  4.923456888062624 1.745674984159417 0  4.912390642033068 -1.749684111742159 0  -4.912652295893883 -1.749389727538773 0  -4.913456238330784 1.749114218487584 0  1.747390200347465 4.908440547168292 0  1.748981007160553 -4.897022310861689 0  -1.150021086816616 4.91284475629253 0  -1.130769057307947 -4.920366523826733 0  -4.913015114937513 -1.149337856671149 0  -4.91284956381319 1.149134877694262 0  1.144934744862773 -4.916752797108825 0  1.150023328576957 4.912823121422896 0  4.913184109634019 1.147622527239335 0  4.923547830939852 -1.153230582084826 0  -0.5472894662040593 -4.914361684117951 0  -0.547006469905772 4.922657012861997 0  -4.912232018981153 -0.5494668799267232 0  -4.912260328277799 0.5480131422098534 0  4.911616873366502 -0.5497990449668785 0  4.922729408895964 0.5464457131967621 0  0.5431464041553682 -4.901878681099197 0  0.5517483583256044 4.919635413313652 0  -4.913545833380621 -3.049834022082641 0  4.920006258301792 3.04774726610418 0  4.913071178021 -3.049833751370427 0  -4.914387742312917 3.046912947985728 0  3.056509925825582 -4.919090869063306 0  -3.049938655921388 -4.913155581216156 0  3.053476684783296 4.915197410350054 0  -3.049372710509691 4.91402492280432 0  -4.911516961063962 -0.04998376765344528 0  0.04516021822751227 -4.916351003903887 0  0.0496111605090073 4.923047987131461 0  4.918267131857022 -0.05136044150693471 0  3.546568455686799 -4.920251673830351 0  -3.549935300939995 4.913246483707093 0  -3.5499
[...]
<PointData  Vectors="f_1676"> 
<DataArray  type="Float64"  Name="f_1676"  NumberOfComponents="3" format="ascii">-1.3426968794056174e-01 -1.5667225294439432e-01 0.0000000000000000e+00  1.4711365574137497e-01 -1.2446851954968058e-01 0.0000000000000000e+00  8.5250167969000687e-02 9.9550825237644025e-02 0.0000000000000000e+00  -1.4109190145906442e-01 1.6109605714078917e-01 0.0000000000000000e+00  3.8825737313922337e+00 2.4200068229641749e+00 0.0000000000000000e+00  5.1794043632090628e-02 -1.1852777613000844e+00 0.0000000000000000e+00  4.3194389607893666e-02 -1.9246571376014412e+00 0.0000000000000000e+00  4.6313077617514652e-02 -3.1762327375546184e+00 0.0000000000000000e+00  3.5034928264224517e-02 -3.9266430187332895e+00 0.0000000000000000e+00  -8.6086917285238512e-02 -5.1022980584465403e+00 0.0000000000000000e+00  1.7820680053550555e-02 -6.2674355731169884e+00 0.0000000000000000e+00  3.0548583611089052e-02 -7.1464498438026096e+00 0.0000000000000000e+00  -1.3808387276508280e-02 -8.2199394857780685e+00 0.0000000000000000e+00  5.2446359905020064e-02 -9.0589360635521121e+00 0.0000000000000000e+00  5.5210808364835308e-02 -1.0281159984334616e+01 0.0000000000000000e+00  -8.7765743965092236e-03 -1.1099981731445531e+01 0.0000000000000000e+00  -1.4584604430303027e-02 -1.2174039071866808e+01 0.0000000000000000e+00  6.6207904711150286e-03 -1.3220490752079671e+01 0.0000000000000000e+00  4.5167434097002296e-03 -1.4209316156762183e+01 0.0000000000000000e+00  -5.4926417426997476e-03 -1.5215201566838177e+01 0.0000000000000000e+00  3.4579891981923287e-03 -1.6262454891009071e+01 0.0000000000000000e+00  2.2085461295155862e-02 -1.7273069461619023e+01 0.0000000000000000e+00  -3.7012749386236814e-03 -1.8077711724467360e+01 0.0000000000000000e+00  -6.6447373849563675e-03 -1.9186872894750056e+01 0.0000000000000000e+00  -2.7244598461294432e-02 -2.0296915671475688e+01 0.0000000000000000e+00  7.1084400463266445e-02 -2.1078080283060775e+01 0.0000000000000000e+00  3.3594624912066384e-02 -2.2210991398328606e+01 0.0000000000000000e+00  3.7487680041052303e-02 -2.2946507648833865e+01 0.0000000000000000e+00  6.4892619637512181e-02 -2.4033016208890011e+01 0.0000000000000000e+00  -3.0576639660477536e-02 -2.4798144556977185e+01 0.0000000000000000e+00  -1.0130861054552213e-02 -2.5844847724988398e+01 0.0000000000000000e+00  -3.4992247257101183e-03 -2.6822377608338453e+01 0.0000000000000000e+00  4.6682786878645105e-02 -2.7513113735027527e+01 0.0000000000000000e+00  3.5061359217921396e-02 -2.8565786999500855e+01 0.0000000000000000e+00  3.3970096769808722e-02 -2.9189052101759799e+01 0.0000000000000000e+00  -7.7357823896240838e-02 -3.0141219856976612e+01 0.0000000000000000e+00  3.3685098725821171e-02 -3.1035698348397720e+01 0.0000000000000000e+00  5.2230541381208268e-03 -3.1683716603599670e+01 0.0000000000000000e+00  -1.1078722107005208e-03 -3.2411782972833201e+01 0.0000000000000000e+00  -1.2828905413327808e-03 -3.3110644946453277e+01 0.0000000000000000e+00  5.8459652149592785e-03 -3.3778317682882772e+01 0.0000000000000000e+00  -3.3795221864938454e-02 -3.4471271817742242e+01 0.0000000000000000e+00  4.1190693605375653e-02 -3.4995196223954387e+01 0.0000000000000000e+00  2.2100148504317262e-02 -3.5538280931837129e+01 0.0000000000000000e+00  1.6964376532984771e-02 -3.6094064386074706e+01 0.0000000000000000e+00  -9.5422496803928853e-03 -3.6575155624090982e+01 0.0000000000000000e+00  4.0082473107745847e-02 -3.6903601109199080e+01 0.0000000000000000e+00  -2.9598662640823638e-02 -3.7351062302070169e+01 0.0000000000000000e+00  1.6466277136659321e-02 -3.7720369119431304e+01 0.0000000000000000e+00  -3.5282507670537757e-03 -3.7948542278969875e+01 0.0000000000000000e+00  1.2097685116830383e-03 -3.8190399705248375e+01 0.0000000000000000e+00  -8.4513271992082094e-04 -3.8371371711392470e+01 0.0000000000000000e+00  3.9833703874654966e-04 -3.8501834289342298e+01 0.0000000000000000e+00  1.9944588822450393e-04 -3.8580184788819345e+01 0.0000000000000000e+00  1.7672653055077711e-03 -3.8606880326003989e+01 0.0000000000000000e+00  7.3192424858033775e-04 -3.8591496314886015e+01 0.0000000000000000e+00  7.3544262434201008e-03 -3.8506807617107867e+01 0.0000000000000000e+00  -1.0403438210903478e-02 -3.8348657779303828e+01 0.0000000000000000e+00  -4.9458605286517516e-03 -3.8210740403400401e+01 0.0000000000000000e+00  -2.0006316455154872e-02 -3.7928444547944295e+01 0.0000000000000000e+00  6.5354646338621524e-03 -3.7698051583527715e+01 0.0000000000000000e+00  5.6177847434181341e-03 -3.7350505671671613e+01 0.0000000000000000e+00  -4.1059804731735598e-03 -3.6955941344936370e+01 0.0000000000000000e+00  -8.2652134171542720e-04 -3.6543399377699579e+01 0.0000000000000000e+00  5.0218779650939632e-03 -3.6068748704853419e+01 0.0000000000000000e+00  -1.1189644941979998e-02 -3.5554824819981626e+01 0.0000000000000000e+00  -7.0848486577442119e-03 -3.4981778705049507e+01 0.0000000000000000e+00  7.8049910186800114e-03 -3.4464777933642715e+01 0.0000000000000000e+00  -1.8474554521255272e-02 -3.3777976684002596e+01 0.0000000000000000e+00  2.1399018818024741e-02 -3.3105217151776323e+01 0.0000000000000000e+00  -2.7085158916879189e-02 -3.2413212348689157e+01 0.0000000000000000e+00  5.1073205561130795e-03 -3.1643113253872478e+01 0.0000000000000000e+00  1.3324354896861193e-02 -3.0947824668122568e+01 0.0000000000000000e+00  -1.9464647505424301e-02 -3.0126766681673594e+01 0.0000000000000000e+00  1.3826741661420280e-02 -2.9292773782542568e+01 0.0000000000000000e+00  -1.0204632772776770e-02 -2.8450171654364972e+01 0.0000000000000000e+00  4.5300582333892220e-03 -2.7605315211832522e+01 0.0000000000000000e+00  -1.8712171353229688e-02 -2.6737254606882392e+01 0.0000000000000000e+00  -5.4750944344514685e-03 -2.5792616107429179e+01 0.0000000000000000e+00  8.1326561632854080e-03 -2.5007464362054961e+01 0.0000000000000000e+00  1.4953310993737054e-03 -2.4017720953662995e+01 0.0000000000000000e+00  7.7396254243961007e-03 -2.3057178135304852e+01 0.0000000000000000e+00  -2.7132022776316926e-02 -2.2120907559424250e+01 0.0000000000000000e+00  -9.2687589061509878e-03 -2.1064650026772444e+01 0.0000000000000000e+00  1.6825914436620945e-02 -2.0200710067611041e+01 0.0000000000000000e+00  -2.6215974295333414e-02 -1.9146484775374137e+01 0.0000000000000000e+00  1.3790356472031737e-03 -1.8207859434598763e+01 0.0000000000000000e+00  1.0018873169151512e-02 -1.7249150051584852e+01 0.0000000000000000e+00  1.1273806344370417e-02 -1.6190484387591010e+01 0.0000000000000000e+00  -3.1480823068480684e-02 -1.5225992274239307e+01 0.0000000000000000e+00  6.7997240225482073e-03 -1.4153440669963063e+01 0.0000000000000000e+00  6.3140691962554479e-03 -1.3247366077156558e+01 0.0000000000000000e+00  -2.4744560864999380e-02 -1.2159049504717073e+01 0.0000000000000000e+00  -5.4820915652947571e-04 -1.1194111820661265e+01 0.0000000000000000e+00  1.3561587421079109e-02 -1.0155195036728305e+01 0.0000000000000000e+00  -7.4226063037373358e-04 -9.1262327195063726e+00 0.0000000000000000e+00  -1.3676018599511085e-02 -8.1332680986559875e+00 0.0000000000000000e+00  -9.9673604789910549e-03 -7.0754683367934632e+00 0.0000000000000000e+00  1.9622713761102334e-02 -6.1723896209783078e+00 0.0000000000000000e+00  -3.0429364493642988e-02 -5.0788033238572901e+00 0.0000000000000000e+00  7.2913197482580034e-03 -4.0856122701139004e+00 0.0000000000000000e+00  1.6571788692904054e-02 -3.0420083264240980e+00 0.0000000000000000e+00  -2.6230826172162266e-02 -2.0200376215825888e+00 0.0000000000000000e+00  -3.2404526888969533e-02 -1.1690892440213274e+00 0.0000000000000000e+00  1.2166929521564991e+00 2.9377671092953962e-02 0.0000000000000000e+00  1.9526037311463253e+00 7.4316777202502363e-02 0.0000000000000000e+00  3.1416772315388144e+00 5.4713617932920802e-02 0.0000000000000000e+00  4.0156092309305498e+00 -1.6657311184672272e-02 0.0000000000000000e+00  5.1024288319440405e+00 7.9020510028656940e-03 0.0000000000000000e+00  6.1032911050631418e+00 -5.5873876689968415e-03 0.0000000000000000e+00  7.1179657879937919e+00 1.1734069637129023e-03 0.0000000000000000e+00  8.1367620961691376e+00 -1.5894057427474739e-03 0.0000000000000000e+00  9.1479384658252858e+00 5.3123418017159282e-04 0.0000000000000000e+00  1.0181406440722888e+01 -2.3405427279880121e-04 0.0000000000000000e+00  1.1181947002095841e+01 -3.7410675653671909e-05 0.0000000000000000e+00  1.2207871843409428e+01 3.6488032754650982e-03 0.0000000000000000e+00  1.3189919881270118e+01 1.4085775698174340e-03 0.0000000000000000e+00  1.4239164361173730e+01 -6.6640438718661805e-03 0.0000000000000000e+00  1.5223708046334165e+01 3.4052748283669772e-03 0.0000000000000000e+00  1.6264352492843027e+01 3.0683762430082080e-03 0.0000000000000000e+00  1.7238300709861381e+01 -2.7925891435873480e-03 0.0000000000000000e+00  1.8222695049665546e+01 6.7512320941032150e-03 0.0000000000000000e+00  1.9251400834455193e+01 -6.4478991391048648e-03 0.0000000000000000e+00  2.0209502377873566e+01 -4.5378840449055149e-03 0.0000000000000000e+00  2.1212951014266064e+01 9.2600577790721023e-03 0.0000000000000000e+00  2.2194499582129659e+01 -9.6396640685335495e-03 0.0000000000000000e+00  2.3104328163908413e+01 6.9064646218718181e-03 0.0000000000000000e+00  2.4075128899131748e+01 1.8859807547659860e-03 0.0000000000000000e+00  2.5032228451658533e+01 4.2629830995259323e-03 0.0000000000000000e+00  2.5970039314897054e+01 -2.4168669531031721e-03 0.0000000000000000e+00  2.6874053396936862e+01 -1.7460123982528848e-03 0.0000000000000000e+00  2.7753245066257019e+01 -1.2818016060992831e-03 0.0000000000000000e+00  2.8625387591649151e+01 1.7901259239321512e-04 0.0000000000000000e+00  2.9476670552479721e+01 -2.6354264265150392e-04 0.0000000000000000e+00  3.0305226990886730e+01 2.6540332706318659e-04 0.0000000000000000e+00  3.1107979498057027e+01 -1.9110033521854721e-03 0.0000000000000000e+00  3.1875524190409099e+01 -8.0907363244660626e-04 0.0000000000000000e+00  3.2634523718575963e+01 3.7195653217380895e-03 0.0000000000000000e+00  3.3361383077389164e+01 -5.7404323546093100e-03 0.0000000000000000e+00  3.4009484222541232e+01 5.7628744412856307e-03 0.0000000000000000e+00  3.4665087749089956e+01 -3.6233047442120974e-04 0.0000000000000000e+00  3.5268718349024788e+01 6.5962973365754221e-03 0.0000000000000000e+00  3.5825070756690586e+01 8.8495194710050042e-03 0.0000000000000000e+00  3.6380606337414804e+01 -2.6087578614578843e-02 0.0000000000000000e+00  3.6899913629128562e+01 1.8922989071849354e-02 0.0000000000000000e+00  3.7292991073349448e+01 -8.2273830457351461e-03 0.0000000000000000e+00  3.7697343848342975e+01 1.1665197005797736e-03 0.0000000000000000e+00  3.8040373415988647e+01 -2.6135728427293891e-03 0.0000000000000000e+00  3.8317127420275156e+01 5.3822154053589141e-03 0.0000000000000000e+00  3.8556875961204618e+01 -9.2701601042067421e-04 0.0000000000000000e+00  3.8750730089837759e+01 3.6830980956126149e-04 0.0000000000000000e+00  3.8887647442275600e+01 -5.9446304921345595e-04 0.0000000000000000e+00  3.8969849839508022e+01 -2.4700345080571332e-04 0.0000000000000000e+00  3.8995651048318848e+01 5.0602720904715788e-04 0.0000000000000000e+00  3.8969102147120211e+01 5.6136412061004947e-04 0.0000000000000000e+00  3.8891222181825093e+01 -1.4155892879679460e-03 0.0000000000000000e+00  3.8754464709331799e+01 1.5597708645581686e-03 0.0000000000000000e+00  3.8564779966850338e+01 1.7903631674683808e-04 0.0000000000000000e+00  3.8331867562978523e+01 -2.6858994676658482e-03 0.0000000000000000e+00  3.8036778856204585e+01 3.1863044993018000e-03 0.0000000000000000e+00  3.7689506734369424e+01 -1.4115065300322579e-05 0.0000000000000000e+00  3.7303945587623225e+01 -3.7848547592979009e-03 0.0000000000000000e+00  3.6853432858741513e+01 1.0216970455369254e-03 0.0000000000000000e+00  3.6378468216930870e+01 1.8834042924168407e-03 0.0000000000000000e+00  3.5850588926871680e+01 -2.3969032193122512e-03 0.0000000000000000e+00  3.5301842109098011e+01 -2.6393605628681973e-06 0.0000000000000000e+00  3.4679873368618139e+01 1.7425724661016074e-03 0.0000000000000000e+00  3.4037315238857076e+01 -1.5306333523509782e-03 0.0000000000000000e+00  3.3372294841855947e+01 5.7812674547039868e-03 0.0000000000000000e+00  3.2633428414749972e+01 -4.3948820362202882e-03 0.0000000000000000e+00  3.1905957296726907e+01 -6.0824124552167815e-03 0.0000000000000000e+00  3.1120607819625683e+01 7.6517681735386416e-03 0.0000000000000000e+00  3.0297974862696083e+01 -2.1673601735292445e-03 0.0000000000000000e+00  2.9476839890161504e+01 -3.9121190531264238e-03 0.0000000000000000e+00  2.8619147488462126e+01 3.3815651467102950e-03 0.0000000000000000e+00  2.7748688325493017e+01 2.8993536850727489e-03 0.0000000000000000e+00  2.6851332004403329e+01 -7.5653876635461915e-04 0.0000000000000000e+00  2.5947468715640724e+01 -8.7734397403712352e-05 0.0000000000000000e+00  2.5024830681513532e+01 1.7418136115891498e-03 0.0000000000000000e+00  2.4083382521938237e+01 -1.2574388209843409e-03 0.0000000000000000e+00  2.3153543499761135e+01 -2.0155962615985472e-03 0.0000000000000000e+00  2.2207858597811018e+01 5.5683059503315487e-03 0.0000000000000000e+00  2.1203337336500233e+01 -7.9234690622219765e-03 0.0000000000000000e+00  2.0222488159349329e+01 -8.7589684923775231e-04 0.0000000000000000e+00  1.9237321097328792e+01 -9.2403524021248480e-04 0.0000000000000000e+00  1.8277702232149416e+01 -4.4178759250098330e-04 0.0000000000000000e+00  1.7280532964012572e+01 8.0173656065650849e-03 0.0000000000000000e+00  1.6241532710924794e+01 -7.1406690092768003e-03 0.0000000000000000e+00  1.5234994261687467e+01 -9.9360846826103606e-04 0.0000000000000000e+00  1.4224230628171048e+01 4.1329160339662204e-04 0.0000000000000000e+00  1.3190882928411755e+01 3.4518172645126872e-03 0.0000000000000000e+00  1.2205869594556352e+01 1.3981201314175876e-03 0.0000000000000000e+00  1.1175107411877978e+01 -2.2592715989680975e-03 0.0000000000000000e+00  1.0169857952721474e+01 8.8442744662891963e-04 0.0000000000000000e+00  9.1540790062668389e+00 3.4037152739971391e-03 0.0000000000000000e+00  8.1579655462674356e+00 -1.3413867548789427e-03 0.0000000000000000e+00  7.1203133569344281e+00 -3.1621778354480969e-03 0.0000000000000000e+00  6.1032169512098919e+00 5.7675279923999519e-03 0.0000000000000000e+00  5.1040059459161906e+00 -1.0187075000742134e-02 0.0000000000000000e+00  4.1113678779787133e+00 -4.3521371101946258e-03 0.0000000000000000e+00  3.0844071955020538e+00 1.3977071017282293e-02 0.0000000000000000e+00  2.0245597902848398e+00 2.2772400324067517e-04 0.0000000000000000e+00  1.1001872311879950e+00 -3.6881118807877186e-02 0.0000000000000000e+00  -5.9280798872997156e-02 1.1360074254496710e+00 0.0000000000000000e+00  1.4750893983625338e-02 1.9730687049550715e+00 0.0000000000000000e+00  -2.5048551295189549e-02 3.0392797166606629e+00 0.0000000000000000e+00  -1.9729831908637138e-02 3.9092235435577893e+00 0.0000000000000000e+00  8.5611108687320428e-02 5.0825522071361453e+00 0.0000000000000000e+00  -2.1545812391782659e-02 6.2692615411273129e+00 0.0000000000000000e+00  -6.0346620044270126e-02 7.0116429818036297e+00 0.0000000000000000e+00  -8.7626798243549159e-02 8.2060721116421398e+00 0.0000000000000000e+00  2.5096450523699361e-02 9.0393178428908652e+00 0.0000000000000000e+00  2.6864757671430990e-02 1.0162765129135510e+01 0.0000000000000000e+00  -2.5048332672119204e-02 1.1183457861863090e+01 0.0000000000000000e+00  1.8127408331287276e-02 1.2161071141568900e+01 0.0000000000000000e+00  3.7772625448177738e-03 1.3265152050439752e+01 0.0000000000000000e+00  -2.8414927058544800e-03 1.4134972488205904e+01 0.0000000000000000e+00  -1.1926455683936786e-02 1.5208062477334563e+01 0.0000000000000000e+00  -4.8342229784821772e-03 1.6173851066098532e+01 0.0000000000000000e+00  1.3704758485554053e-02 1.7208577531783792e+01 0.0000000000000000e+00  -4.4561953214222946e-03 1.8234356311715747e+01 0.0000000000000000e+00  -1.0300435361020058e-02 1.9188345578167976e+01 0.0000000000000000e+00  -3.2549806212930285e-03 2.0225230986876461e+01 0.0000000000000000e+00  -9.2816247018049896e-03 2.1041325225691093e+01 0.0000000000000000e+00  2.1986055826284028e-02 2.2120984355150334e+01 0.0000000000000000e+00  -1.8429267007748416e-02 2.3045978994250568e+01 0.0000000000000000e+00  2.2060145860756129e-02 2.3992604933510091e+01 0.0000000000000000e+00  7.1645766626166705e-03 2.4990867439297567e+01 0.0000000000000000e+00  -5.0786692923818856e-02 2.5725393014998026e+01 0.0000000000000000e+00  -4.3600739136728475e-02 2.6805353853553950e+01 0.0000000000000000e+00  9.1745019190060829e-03 2.7527657300705339e+01 0.0000000000000000e+00  -2.7621037158209349e-02 2.8436911994726753e+01 0.0000000000000000e+00  -1.3752387333635692e-02 2.9159630275960389e+01 0.0000000000000000e+00  6.8247470024415155e-02 3.0090336731062209e+01 0.0000000000000000e+00  -2.4033809977196362e-02 3.1002560196089380e+01 0.0000000000000000e+00  -3.6118999916329143e-02 3.1575707653073508e+01 0.0000000000000000e+00  -3.9864809255172017e-02 3.2453382949270299e+01 0.0000000000000000e+00  5.3178167373123973e-03 3.2999342030787489e+01 0.0000000000000000e+00  1.2458927133064070e-02 3.3751555850511998e+01 0.0000000000000000e+00  -5.1563176280494767e-03 3.4401661205596845e+01 0.0000000000000000e+00  -1.5134124327588077e-03 3.4976457866131497e+01 0.0000000000000000e+00  1.1002316724197199e-03 3.5527476952969529e+01 0.0000000000000000e+00  1.2864150108633343e-03 3.6061664846154493e+01 0.0000000000000000e+00  -9.5236193533973518e-03 3.6538405968964476e+01 0.0000000000000000e+00  4.8842322006985078e-04 3.6881787664685774e+01 0.0000000000000000e+00  -3.2734633011445363e-04 3.7308203419512438e+01 0.0000000000000000e+00  4.1024769777032758e-03 3.7649914569562632e+01 0.0000000000000000e+00  -7.6410129369199990e-03 3.7923981573476780e+01 0.0000000000000000e+00  7.4356482525910683e-03 3.8168888754823108e+01 0.0000000000000000e+00  -2.6472687680697236e-03 3.8334440079008587e+01 0.0000000000000000e+00  -6.6504362914302341e-03 3.8476533251685744e+01 0.0000000000000000e+00  1.6266975258000249e-03 3.8552081194616115e+01 0.0000000000000000e+00  1.5389699385761784e-03 3.8583775907721396e+01 0.0000000000000000e+00  6.8426259736557677e-03 3.8549807531299273e+01 0.0000000000000000e+00  -7.6587251096361135e-03 3.8477774363452617e+01 0.0000000000000000e+00  3.4556356100289270e-03 3.8349479925194210e+01 0.0000000000000000e+00  -6.2294238628351059e-03 3.8161879105409419e+01 0.0000000000000000e+00  8.8437926523037055e-03 3.7929887853110294e+01 0.0000000000000000e+00  -7.6993710838642558e-03 3.7624008033903834e+01 0.0000000000000000e+00  1.6890071716213852e-02 3.7346442859572129e+01 0.0000000000000000e+00  1.9863538162220196e-02 3.6887760872985240e+01 0.0000000000000000e+00  1.1037395319669687e-02 3.6557461310491433e+01 0.0000000000000000e+00  4.0500155355039189e-02 3.6015192841101083e+01 0.0000000000000000e+00  -1.9554123774033004e-02 3.5602014090634107e+01 0.0000000000000000e+00  -7.0581991522625787e-03 3.4984136857131439e+01 0.0000000000000000e+00  7.8588069166885231e-03 3.4361677528289555e+01 0.0000000000000000e+00  -1.8225138829073323e-03 3.3753612022991739e+01 0.0000000000000000e+00  -6.1443245562366818e-04 3.3092623197298991e+01 0.0000000000000000e+00  -2.6020535656345453e-03 3.2378284452134849e+01 0.0000000000000000e+00  2.9688401005553383e-03 3.1657402132709471e+01 0.0000000000000000e+00  -1.4704966929265264e-02 3.0889464071536892e+01 0.0000000000000000e+00  2.6886430673081881e-02 3.0101901956069177e+01 0.0000000000000000e+00  -1.9215698300333050e-02 2.9223378715460626e+01 0.0000000000000000e+00  2.1181136016139749e-02 2.8500683793113041e+01 0.0000000000000000e+00  5.5258096902212417e-03 2.7645646753365572e+01 0.0000000000000000e+00  -2.2861981309753709e-02 2.6725638916235461e+01 0.0000000000000000e+00  1.4968423217798866e-02 2.5816676826031976e+01 0.0000000000000000e+00  -1.9019608359444974e-02 2.4916960544775300e+01 0.0000000000000000e+00  9.1714403498432181e-03 2.3940058615330845e+01 0.0000000000000000e+00  -4.5569991420913196e-03 2.2990944592302359e+01 0.0000000000000000e+00  4.0269122636327981e-02 2.2200578535292248e+01 0.