<?xml version="1.0"?>
<VTKFile type="UnstructuredGrid"  version="0.1"  >
<UnstructuredGrid>
<Piece  NumberOfPoints="11902" NumberOfCells="23402">
<Points>
<DataArray  type="Float64"  NumberOfComponents="3"  format="ascii">-5 -5 0  5 -5 0  5 5 0  -5 5 0  1.896661037899121 0.005901529594560967 0  -4.9 -5 0  -4.8 -5 0  -4.7 -5 0  -4.6 -5 0  -4.5 -5 0  -4.4 -5 0  -4.3 -5 0  -4.2 -5 0  -4.1 -5 0  -4 -5 0  -3.9 -5 0  -3.8 -5 0  -3.7 -5 0  -3.6 -5 0  -3.5 -5 0  -3.4 -5 0  -3.3 -5 0  -3.2 -5 0  -3.1 -5 0  -3 -5 0  -2.9 -5 0  -2.8 -5 0  -2.7 -5 0  -2.6 -5 0  -2.5 -5 0  -2.4 -5 0  -2.3 -5 0  -2.2 -5 0  -2.1 -5 0  -2 -5 0  -1.9 -5 0  -1.8 -5 0  -1.7 -5 0  -1.6 -5 0  -1.5 -5 0  -1.4 -5 0  -1.3 -5 0  -1.2 -5 0  -1.1 -5 0  -1 -5 0  -0.9000000000000004 -5 0  -0.7999999999999998 -5 0  -0.7000000000000002 -5 0  -0.5999999999999996 -5 0  -0.5 -5 0  -0.4000000000000004 -5 0  -0.2999999999999998 -5 0  -0.2000000000000002 -5 0  -0.09999999999999964 -5 0  0 -5 0  0.09999999999999964 -5 0  0.2000000000000002 -5 0  0.2999999999999998 -5 0  0.4000000000000004 -5 0  0.5 -5 0  0.5999999999999996 -5 0  0.7000000000000002 -5 0  0.7999999999999998 -5 0  0.9000000000000004 -5 0  1 -5 0  1.1 -5 0  1.2 -5 0  1.3 -5 0  1.4 -5 0  1.5 -5 0  1.6 -5 0  1.7 -5 0  1.8 -5 0  1.9 -5 0  2 -5 0  2.1 -5 0  2.2 -5 0  2.3 -5 0  2.4 -5 0  2.5 -5 0  2.6 -5 0  2.7 -5 0  2.8 -5 0  2.9 -5 0  3 -5 0  3.1 -5 0  3.199999999999999 -5 0  3.300000000000001 -5 0  3.4 -5 0  3.5 -5 0  3.6 -5 0  3.699999999999999 -5 0  3.800000000000001 -5 0  3.9 -5 0  4 -5 0  4.1 -5 0  4.199999999999999 -5 0  4.300000000000001 -5 0  4.4 -5 0  4.5 -5 0  4.6 -5 0  4.699999999999999 -5 0  4.800000000000001 -5 0  4.9 -5 0  5 -4.9 0  5 -4.8 0  5 -4.7 0  5 -4.6 0  5 -4.5 0  5 -4.4 0  5 -4.3 0  5 -4.2 0  5 -4.1 0  5 -4 0  5 -3.9 0  5 -3.8 0  5 -3.7 0  5 -3.6 0  5 -3.5 0  5 -3.4 0  5 -3.3 0  5 -3.2 0  5 -3.1 0  5 -3 0  5 -2.9 0  5 -2.8 0  5 -2.7 0  5 -2.6 0  5 -2.5 0  5 -2.4 0  5 -2.3 0  5 -2.2 0  5 -2.1 0  5 -2 0  5 -1.9 0  5 -1.8 0  5 -1.7 0  5 -1.6 0  5 -1.5 0  5 -1.4 0  5 -1.3 0  5 -1.2 0  5 -1.1 0  5 -1 0  5 -0.9000000000000004 0  5 -0.7999999999999998 0  5 -0.7000000000000002 0  5 -0.5999999999999996 0  5 -0.5 0  5 -0.4000000000000004 0  5 -0.2999999999999998 0  5 -0.2000000000000002 0  5 -0.09999999999999964 0  5 0 0  5 0.09999999999999964 0  5 0.2000000000000002 0  5 0.2999999999999998 0  5 0.4000000000000004 0  5 0.5 0  5 0.5999999999999996 0  5 0.7000000000000002 0  5 0.7999999999999998 0  5 0.9000000000000004 0  5 1 0  5 1.1 0  5 1.2 0  5 1.3 0  5 1.4 0  5 1.5 0  5 1.6 0  5 1.7 0  5 1.8 0  5 1.9 0  5 2 0  5 2.1 0  5 2.2 0  5 2.3 0  5 2.4 0  5 2.5 0  5 2.6 0  5 2.7 0  5 2.8 0  5 2.9 0  5 3 0  5 3.1 0  5 3.199999999999999 0  5 3.300000000000001 0  5 3.4 0  5 3.5 0  5 3.6 0  5 3.699999999999999 0  5 3.800000000000001 0  5 3.9 0  5 4 0  5 4.1 0  5 4.199999999999999 0  5 4.300000000000001 0  5 4.4 0  5 4.5 0  5 4.6 0  5 4.699999999999999 0  5 4.800000000000001 0  5 4.9 0  4.9 5 0  4.8 5 0  4.7 5 0  4.6 5 0  4.5 5 0  4.4 5 0  4.3 5 0  4.2 5 0  4.1 5 0  4 5 0  3.9 5 0  3.8 5 0  3.7 5 0  3.6 5 0  3.5 5 0  3.4 5 0  3.3 5 0  3.2 5 0  3.1 5 0  3 5 0  2.9 5 0  2.8 5 0  2.7 5 0  2.6 5 0  2.5 5 0  2.4 5 0  2.3 5 0  2.2 5 0  2.1 5 0  2 5 0  1.9 5 0  1.8 5 0  1.7 5 0  1.6 5 0  1.5 5 0  1.4 5 0  1.3 5 0  1.2 5 0  1.1 5 0  1 5 0  0.9000000000000004 5 0  0.7999999999999998 5 0  0.7000000000000002 5 0  0.5999999999999996 5 0  0.5 5 0  0.4000000000000004 5 0  0.2999999999999998 5 0  0.2000000000000002 5 0  0.09999999999999964 5 0  0 5 0  -0.09999999999999964 5 0  -0.2000000000000002 5 0  -0.2999999999999998 5 0  -0.4000000000000004 5 0  -0.5 5 0  -0.5999999999999996 5 0  -0.7000000000000002 5 0  -0.7999999999999998 5 0  -0.9000000000000004 5 0  -1 5 0  -1.1 5 0  -1.2 5 0  -1.3 5 0  -1.4 5 0  -1.5 5 0  -1.6 5 0  -1.7 5 0  -1.8 5 0  -1.9 5 0  -2 5 0  -2.1 5 0  -2.2 5 0  -2.3 5 0  -2.4 5 0  -2.5 5 0  -2.6 5 0  -2.7 5 0  -2.8 5 0  -2.9 5 0  -3 5 0  -3.1 5 0  -3.199999999999999 5 0  -3.300000000000001 5 0  -3.4 5 0  -3.5 5 0  -3.6 5 0  -3.699999999999999 5 0  -3.800000000000001 5 0  -3.9 5 0  -4 5 0  -4.1 5 0  -4.199999999999999 5 0  -4.300000000000001 5 0  -4.4 5 0  -4.5 5 0  -4.6 5 0  -4.699999999999999 5 0  -4.800000000000001 5 0  -4.9 5 0  -5 4.9 0  -5 4.8 0  -5 4.7 0  -5 4.6 0  -5 4.5 0  -5 4.4 0  -5 4.3 0  -5 4.2 0  -5 4.1 0  -5 4 0  -5 3.9 0  -5 3.8 0  -5 3.7 0  -5 3.6 0  -5 3.5 0  -5 3.4 0  -5 3.3 0  -5 3.2 0  -5 3.1 0  -5 3 0  -5 2.9 0  -5 2.8 0  -5 2.7 0  -5 2.6 0  -5 2.5 0  -5 2.4 0  -5 2.3 0  -5 2.2 0  -5 2.1 0  -5 2 0  -5 1.9 0  -5 1.8 0  -5 1.7 0  -5 1.6 0  -5 1.5 0  -5 1.4 0  -5 1.3 0  -5 1.2 0  -5 1.1 0  -5 1 0  -5 0.9000000000000004 0  -5 0.7999999999999998 0  -5 0.7000000000000002 0  -5 0.5999999999999996 0  -5 0.5 0  -5 0.4000000000000004 0  -5 0.2999999999999998 0  -5 0.2000000000000002 0  -5 0.09999999999999964 0  -5 0 0  -5 -0.09999999999999964 0  -5 -0.2000000000000002 0  -5 -0.2999999999999998 0  -5 -0.4000000000000004 0  -5 -0.5 0  -5 -0.5999999999999996 0  -5 -0.7000000000000002 0  -5 -0.7999999999999998 0  -5 -0.9000000000000004 0  -5 -1 0  -5 -1.1 0  -5 -1.2 0  -5 -1.3 0  -5 -1.4 0  -5 -1.5 0  -5 -1.6 0  -5 -1.7 0  -5 -1.8 0  -5 -1.9 0  -5 -2 0  -5 -2.1 0  -5 -2.2 0  -5 -2.3 0  -5 -2.4 0  -5 -2.5 0  -5 -2.6 0  -5 -2.7 0  -5 -2.8 0  -5 -2.9 0  -5 -3 0  -5 -3.1 0  -5 -3.199999999999999 0  -5 -3.300000000000001 0  -5 -3.4 0  -5 -3.5 0  -5 -3.6 0  -5 -3.699999999999999 0  -5 -3.800000000000001 0  -5 -3.9 0  -5 -4 0  -5 -4.1 0  -5 -4.199999999999999 0  -5 -4.300000000000001 0  -5 -4.4 0  -5 -4.5 0  -5 -4.6 0  -5 -4.699999999999999 0  -5 -4.800000000000001 0  -5 -4.9 0  2.434076085452952 0.2863884024241969 0  1.958252504453492 0.360042784551676 0  2.386966273308701 0.75484942882024 0  1.779847824807212 0.6709753304249607 0  1.88453443255119 0.9379664001083452 0  1.54267610187529 1.023184027386862 0  1.306404261814968 1.303534746126484 0  1.156032677455905 0.9424498150952606 0  1.157462498570673 1.245199869960826 0  0.9618103456090186 1.417617668331065 0  0.7925686322636909 1.434867227671873 0  0.6612561762536524 1.465874938129659 0  0.4711222417928349 1.554765963638969 0  0.2993449243478035 1.588654234756668 0  0.1341595839972694 1.615906505524621 0  -0.02626466974632844 1.611522095561643 0  -0.2318060769387352 1.583433010842429 0  -0.3949401766228951 1.57371662762309 0  -0.5500104399752295 1.528341508764647 0  -0.7129145371235662 1.452888999189889 0  -0.8834427372536682 1.414397235073809 0  -1.061274313595029 1.298550962318092 0  -1.209794634159864 1.174244172057069 0  -1.347633324080076 1.243466900266089 0  -1.223104870516161 0.8013911892681218 0  -1.542725264591116 1.094533249608702 0  -1.996881687201233 0.932589461795379 0  -1.823252929977958 0.6659015307458618 0  -2.193698852531559 0.622393949137009 0  -2.252748586982086 0.3152657285044158 0  -2.362600867804722 0.04619005464028605 0  -1.841586072046764 -0.1107370064245117 0  -2.534672694090447 -0.5171509331926936 0  -2.007277430352566 -0.4278687062222367 0  -1.899670015446222 -0.6539689181070201 0  -1.912978787755326 -1.034510181084125 0  -1.531470373108051 -0.8073527209424134 0  -1.54921357049255 -0.9465959165379092 0  -1.374876883314199 -1.188500505584838 0  -1.159497721192417 -1.173320835266298 0  -1.03066024182218 -1.308910931174 0  -0.8723651037356812 -1.447483791380889 0  -0.6997395611047595 -1.47873321241694 0  -0.5412423269488036 -1.516308272207201 0  -0.3814380220831173 -1.578379845925091 0  -0.2101256203699776 -1.591357621528816 0  -0.04623323396240452 -1.608870747053848 0  0.1448574862286043 -1.606970250106741 0  0.2925193320745645 -1.599357308624253 0  0.4723165480839942 -1.56826728685515 0  0.6390705128315975 -1.502344628476798 0  0.7542010734087808 -1.346030250101212 0  0.9311138667077995 -1.40579876277189 0  1.120989531339017 -1.304943085610678 0  1.313251469176953 -1.24245129538266 0  1.403527754629664 -1.027681363454638 0  1.491546175426984 -0.8815707467449647 0  1.818119434475738 -0.9632253812444378 0  1.921212030921013 -0.7416324749795311 0  1.899245407850188 -0.5193606009559593 0  2.32304042988993 -0.4745170485247101 0  2.268800486199746 -0.1585202430162261 0  -2.449937491839622 4.920202830943394 0  -2.449903486902848 -4.912754603542436 0  4.910961235111324 2.448098327914439 0  4.919006120960606 -2.449427911951169 0  2.44784003626492 -4.898323051014968 0  2.442258593856294 4.902072696562174 0  -4.911020943932963 -2.448133194908506 0  -4.911057758443343 2.448128996570595 0  -1.750254270565593 4.914421440476129 0  -1.745950816879601 -4.91770119679752 0  4.920482647059956 1.743729545897595 0  4.908925037079736 -1.747608470217559 0  -4.909346190631677 -1.747323130465145 0  -4.91019512481676 1.747064876292711 0  1.747694825096507 4.908501648112768 0  1.749269867212523 -4.897015503050496 0  -1.150384838183749 4.913352625749097 0  -1.131099199366423 -4.920729192128759 0  -4.908158088913121 -1.147377093619537 0  -4.907979449510808 1.147171762944422 0  1.145272511283291 -4.917139943056889 0  1.150401171930802 4.913289551618819 0  4.908243063538511 1.145624119523566 0  4.919145327192563 -1.151335042325325 0  -0.5475016464114176 -4.915119125466433 0  -0.5472099399644218 4.923395695141171 0  -4.905972888227077 -0.5482696421640526 0  -4.905997677969827 0.5468185542292613 0  4.905095028636931 -0.5486018276658426 0  4.917072414597757 0.5452921301932029 0  0.5434807297224467 -4.902696635614231 0  0.5519750990293469 4.920397680514162 0  -4.912623974877195 -3.048710425601361 0  4.919146238847943 3.046652530914918 0  4.912098827915343 -3.048655326314242 0  -4.913494538493589 3.045781280901364 0  3.056261665460008 -4.918773529079316 0  -3.049668584427653 -4.912760110342661 0  3.053215300084775 4.914862500418021 0  -3.049138974636259 4.913699949797537 0  -4.90470605005852 -0.04986045223215316 0  0.04521512953593017 -4.917197192258743 0  0.04964034270250655 4.923873613234502 0  4.911819480428752 -0.05128174708476115 0  3.546230472758461 -4.919910543438456 0  -3.549603102196555 4.912958151699052 0  -3.549571919419557 -4.91297640883663
[...]
<PointData  Vectors="f_8740"> 
<DataArray  type="Float64"  Name="f_8740"  NumberOfComponents="3" format="ascii">-1.5728618772754527e-01 -1.8353281399747834e-01 0.0000000000000000e+00  1.7171691187821372e-01 -1.4526184129865949e-01 0.0000000000000000e+00  9.9284395241725804e-02 1.1598432367314974e-01 0.0000000000000000e+00  -1.6466243067949579e-01 1.8800685332178407e-01 0.0000000000000000e+00  7.8000637759886917e+00 -8.8076777580409740e+00 0.0000000000000000e+00  6.0514057653236565e-02 -1.3901590818649163e+00 0.0000000000000000e+00  5.1020556901143321e-02 -2.2566293982893741e+00 0.0000000000000000e+00  5.3892578197353908e-02 -3.7247022520712108e+00 0.0000000000000000e+00  4.1321680685224849e-02 -4.6040516922746839e+00 0.0000000000000000e+00  -1.0080841198623063e-01 -5.9805753292198522e+00 0.0000000000000000e+00  2.0410268244089005e-02 -7.3452397965427094e+00 0.0000000000000000e+00  3.5782701107981839e-02 -8.3738290188133337e+00 0.0000000000000000e+00  -1.6808386066455926e-02 -9.6299428953337145e+00 0.0000000000000000e+00  6.2838545216898620e-02 -1.0610183559377607e+01 0.0000000000000000e+00  6.3152633487211951e-02 -1.2038433511852773e+01 0.0000000000000000e+00  -9.5714332967704076e-03 -1.2991814038299079e+01 0.0000000000000000e+00  -1.7157129579612230e-02 -1.4243722496845168e+01 0.0000000000000000e+00  7.7398240470997071e-03 -1.5461906731360971e+01 0.0000000000000000e+00  5.2868186361061161e-03 -1.6611359488047487e+01 0.0000000000000000e+00  -6.4013049668431056e-03 -1.7778911403534355e+01 0.0000000000000000e+00  4.1618236700298157e-03 -1.8993127325140239e+01 0.0000000000000000e+00  2.4862561810570838e-02 -2.0164146585337139e+01 0.0000000000000000e+00  -3.3082283252330643e-03 -2.1092646860082858e+01 0.0000000000000000e+00  -8.0693787610833633e-03 -2.2372774118689662e+01 0.0000000000000000e+00  -3.1939743122753404e-02 -2.3651388659586157e+01 0.0000000000000000e+00  8.3351469641644499e-02 -2.4550877019565746e+01 0.0000000000000000e+00  3.7310156770693090e-02 -2.5849942373263953e+01 0.0000000000000000e+00  4.4359351529075899e-02 -2.6693123644486562e+01 0.0000000000000000e+00  7.3637420549977073e-02 -2.7936555161888990e+01 0.0000000000000000e+00  -3.4464906290021982e-02 -2.8808930240262860e+01 0.0000000000000000e+00  -1.1460611180049396e-02 -3.0002235804820970e+01 0.0000000000000000e+00  -4.2159970869931939e-03 -3.1114077097388652e+01 0.0000000000000000e+00  5.3549874193140258e-02 -3.1898305409044557e+01 0.0000000000000000e+00  3.9404690563567768e-02 -3.3090311529954398e+01 0.0000000000000000e+00  3.8751731556967324e-02 -3.3795408075641546e+01 0.0000000000000000e+00  -8.7279853221308462e-02 -3.4870191110936368e+01 0.0000000000000000e+00  3.8081457512966516e-02 -3.5877963255205430e+01 0.0000000000000000e+00  5.8573287501023381e-03 -3.6606426024176521e+01 0.0000000000000000e+00  -1.1948243580699638e-03 -3.7423533541630242e+01 0.0000000000000000e+00  -1.3906443367100829e-03 -3.8206542416607924e+01 0.0000000000000000e+00  6.4568361910506220e-03 -3.8953459488244988e+01 0.0000000000000000e+00  -3.7245469737166935e-02 -3.9727398453505884e+01 0.0000000000000000e+00  4.5290293762067439e-02 -4.0311906252267896e+01 0.0000000000000000e+00  2.4583936125367106e-02 -4.0917304728580170e+01 0.0000000000000000e+00  1.8737694828947583e-02 -4.1535151431029334e+01 0.0000000000000000e+00  -1.0262226357370596e-02 -4.2069155591154534e+01 0.0000000000000000e+00  4.3829794759578579e-02 -4.2433347342831169e+01 0.0000000000000000e+00  -3.2523149478695237e-02 -4.2929393058807783e+01 0.0000000000000000e+00  1.8114812358745024e-02 -4.3338108560064256e+01 0.0000000000000000e+00  -3.8933478466330351e-03 -4.3590410892701030e+01 0.0000000000000000e+00  1.3348891903000194e-03 -4.3857403984224085e+01 0.0000000000000000e+00  -9.3466475776397676e-04 -4.4056861493700175e+01 0.0000000000000000e+00  4.2496602536489783e-04 -4.4200320799972552e+01 0.0000000000000000e+00  2.1626013693727640e-04 -4.4285996365100303e+01 0.0000000000000000e+00  1.9230345541829045e-03 -4.4314421872762260e+01 0.0000000000000000e+00  7.0520013847065336e-04 -4.4296445488128590e+01 0.0000000000000000e+00  8.1850078875456873e-03 -4.4201368915673953e+01 0.0000000000000000e+00  -1.1341777411125940e-02 -4.4024602576914432e+01 0.0000000000000000e+00  -5.7083357312714073e-03 -4.3870926442315103e+01 0.0000000000000000e+00  -2.1883952579202542e-02 -4.3555976132418138e+01 0.0000000000000000e+00  7.2308298510669567e-03 -4.3299220610061333e+01 0.0000000000000000e+00  6.0708905806494996e-03 -4.2911809878822972e+01 0.0000000000000000e+00  -4.4554603764235898e-03 -4.2472004550769775e+01 0.0000000000000000e+00  -9.4856513166620567e-04 -4.2011444335009976e+01 0.0000000000000000e+00  5.5671937521181254e-03 -4.1481488413048574e+01 0.0000000000000000e+00  -1.2579929480323817e-02 -4.0907271521837941e+01 0.0000000000000000e+00  -7.6959205540381376e-03 -4.0265723349816888e+01 0.0000000000000000e+00  8.5349320337382625e-03 -3.9686242418162259e+01 0.0000000000000000e+00  -2.0455077244098833e-02 -3.8916567544101902e+01 0.0000000000000000e+00  2.3848662102894724e-02 -3.8161173656076834e+01 0.0000000000000000e+00  -3.0550081047620515e-02 -3.7382988812557336e+01 0.0000000000000000e+00  5.5848401757180935e-03 -3.6515469376128401e+01 0.0000000000000000e+00  1.5036403529870290e-02 -3.5731366562956488e+01 0.0000000000000000e+00  -2.1930431179923222e-02 -3.4804474979249896e+01 0.0000000000000000e+00  1.5513951221049437e-02 -3.3861133395708293e+01 0.0000000000000000e+00  -1.1727040532027352e-02 -3.2906487099818030e+01 0.0000000000000000e+00  5.0553770688899031e-03 -3.1947651303921990e+01 0.0000000000000000e+00  -2.1329137199822712e-02 -3.0960803463586913e+01 0.0000000000000000e+00  -6.8843222259640201e-03 -2.9885977676344083e+01 0.0000000000000000e+00  9.6175087719815276e-03 -2.8990748752475106e+01 0.0000000000000000e+00  1.8138554177570647e-03 -2.7860363334703084e+01 0.0000000000000000e+00  8.6599276685358911e-03 -2.6761370651175309e+01 0.0000000000000000e+00  -3.1107219152865549e-02 -2.5688023511265936e+01 0.0000000000000000e+00  -1.1582390273694856e-02 -2.4477510122858479e+01 0.0000000000000000e+00  2.0211789229977500e-02 -2.3484543704507338e+01 0.0000000000000000e+00  -3.0626972271828395e-02 -2.2270028847061042e+01 0.0000000000000000e+00  1.5253035986503550e-03 -2.1188919849112292e+01 0.0000000000000000e+00  1.1867745477579846e-02 -2.0081794389083576e+01 0.0000000000000000e+00  1.2931787962343094e-02 -1.8857933187340027e+01 0.0000000000000000e+00  -3.6424879696012047e-02 -1.7741569445804867e+01 0.0000000000000000e+00  6.9472265217120962e-03 -1.6500521824889525e+01 0.0000000000000000e+00  8.3271330493729680e-03 -1.5449711429308715e+01 0.0000000000000000e+00  -2.9028080176178906e-02 -1.4184394526820983e+01 0.0000000000000000e+00  -5.9671256833791688e-04 -1.3063623761370172e+01 0.0000000000000000e+00  1.5980295289305089e-02 -1.1854183833358510e+01 0.0000000000000000e+00  -9.1257984867960397e-04 -1.0655803485156760e+01 0.0000000000000000e+00  -1.5713259928105478e-02 -9.4989936068816903e+00 0.0000000000000000e+00  -1.2199227043482783e-02 -8.2659480410019235e+00 0.0000000000000000e+00  2.3529607334374571e-02 -7.2125956854575985e+00 0.0000000000000000e+00  -3.5693216574251153e-02 -5.9348776342995100e+00 0.0000000000000000e+00  8.5664839112528316e-03 -4.7753581727105541e+00 0.0000000000000000e+00  1.9649521477058538e-02 -3.5555813638455041e+00 0.0000000000000000e+00  -3.0640872918268874e-02 -2.3611272933512168e+00 0.0000000000000000e+00  -3.7659947660809268e-02 -1.3668410765173686e+00 0.0000000000000000e+00  1.4225077382822624e+00 3.4144588866072120e-02 0.0000000000000000e+00  2.2824643305639647e+00 8.7227916840592626e-02 0.0000000000000000e+00  3.6736676884726065e+00 6.3777144533592484e-02 0.0000000000000000e+00  4.6952378979958915e+00 -1.9546218409071277e-02 0.0000000000000000e+00  5.9670469531425461e+00 9.1913224214550115e-03 0.0000000000000000e+00  7.1386726804809300e+00 -6.6271436233062628e-03 0.0000000000000000e+00  8.3270269354079787e+00 1.2760701973931470e-03 0.0000000000000000e+00  9.5209136880086778e+00 -1.9811224772254576e-03 0.0000000000000000e+00  1.0706627244583014e+01 5.4870720655517265e-04 0.0000000000000000e+00  1.1919514186998452e+01 -3.9271376904245731e-04 0.0000000000000000e+00  1.3094725325955588e+01 -4.2230835792506033e-05 0.0000000000000000e+00  1.4300993112790659e+01 3.9900118457462386e-03 0.0000000000000000e+00  1.5456804320495127e+01 1.6820503674320228e-03 0.0000000000000000e+00  1.6693257114596513e+01 -8.1232627976109192e-03 0.0000000000000000e+00  1.7854837156890820e+01 4.0971244772390883e-03 0.0000000000000000e+00  1.9084091109819230e+01 3.3720933380167895e-03 0.0000000000000000e+00  2.0236446165147459e+01 -3.5250486733503779e-03 0.0000000000000000e+00  2.1402936042199673e+01 8.0719912014851607e-03 0.0000000000000000e+00  2.2623968177772852e+01 -8.0488484374502279e-03 0.0000000000000000e+00  2.3762710042863656e+01 -5.3598705309311750e-03 0.0000000000000000e+00  2.4957520154617434e+01 1.0998548267653450e-02 0.0000000000000000e+00  2.6128509610931296e+01 -1.2046717890794242e-02 0.0000000000000000e+00  2.7215771220639137e+01 8.6621517945022590e-03 0.0000000000000000e+00  2.8378360845092942e+01 1.8985663513283277e-03 0.0000000000000000e+00  2.9528039875643334e+01 5.1552345908856736e-03 0.0000000000000000e+00  3.0656834108281789e+01 -3.2030855791520259e-03 0.0000000000000000e+00  3.1747217586524709e+01 -2.2605609174154843e-03 0.0000000000000000e+00  3.2809638786415768e+01 -1.6978536249032431e-03 0.0000000000000000e+00  3.3865977556813320e+01 5.9522168252638537e-05 0.0000000000000000e+00  3.4899535697537189e+01 -4.5083817886059849e-04 0.0000000000000000e+00  3.5907985933573002e+01 2.0086005541116592e-04 0.0000000000000000e+00  3.6887094440749941e+01 -2.5334432927757717e-03 0.0000000000000000e+00  3.7825242078913739e+01 -1.0166295620249303e-03 0.0000000000000000e+00  3.8755532454750544e+01 4.8257319937637013e-03 0.0000000000000000e+00  3.9648596508557773e+01 -7.7426517320241294e-03 0.0000000000000000e+00  4.0446678438234301e+01 7.9396500223545101e-03 0.0000000000000000e+00  4.1255439391655848e+01 -8.9105081088875263e-04 0.0000000000000000e+00  4.2002474435359161e+01 9.0949576171363584e-03 0.0000000000000000e+00  4.2693894464462993e+01 1.1336235292619947e-02 0.0000000000000000e+00  4.3383766185564944e+01 -3.4322990460583618e-02 0.0000000000000000e+00  4.4031644179307747e+01 2.5138012793733070e-02 0.0000000000000000e+00  4.4521330443615810e+01 -1.0852656394347817e-02 0.0000000000000000e+00  4.5027008438159982e+01 1.4524496099655446e-03 0.0000000000000000e+00  4.5456221446821580e+01 -3.4143993085464200e-03 0.0000000000000000e+00  4.5802716291910635e+01 7.5154312984533752e-03 0.0000000000000000e+00  4.6103143930469351e+01 -1.2507942265039713e-03 0.0000000000000000e+00  4.6346875783833305e+01 6.0082063921431316e-04 0.0000000000000000e+00  4.6519145833608995e+01 -8.2441828432653827e-04 0.0000000000000000e+00  4.6622798089480632e+01 -3.5509652228945729e-04 0.0000000000000000e+00  4.6655221344618354e+01 7.9312485279578167e-04 0.0000000000000000e+00  4.6621930733118923e+01 6.9181422529933335e-04 0.0000000000000000e+00  4.6524119981973243e+01 -1.9216602166338560e-03 0.0000000000000000e+00  4.6352062221026856e+01 2.1029750315478407e-03 0.0000000000000000e+00  4.6113861773111466e+01 1.3741775502713058e-04 0.0000000000000000e+00  4.5821489086147267e+01 -3.6639172110887854e-03 0.0000000000000000e+00  4.5451137738773632e+01 4.2929964713126481e-03 0.0000000000000000e+00  4.5016177758719451e+01 -2.3386176192714299e-04 0.0000000000000000e+00  4.4533576115565964e+01 -4.9431763441263356e-03 0.0000000000000000e+00  4.3971160042625201e+01 1.0415098277058088e-03 0.0000000000000000e+00  4.3379634968581037e+01 2.6176778259708465e-03 0.0000000000000000e+00  4.2723430544360987e+01 -3.4266632146400361e-03 0.0000000000000000e+00  4.2042016440207306e+01 1.2314719282017318e-04 0.0000000000000000e+00  4.1271183692183371e+01 2.3809928550380423e-03 0.0000000000000000e+00  4.0477302970035943e+01 -2.2103610315253285e-03 0.0000000000000000e+00  3.9656865014467947e+01 7.8670960098485079e-03 0.0000000000000000e+00  3.8746714728777228e+01 -5.8336005421836508e-03 0.0000000000000000e+00  3.7853293716321573e+01 -7.5667132546071852e-03 0.0000000000000000e+00  3.6890843282187632e+01 9.8755353187757623e-03 0.0000000000000000e+00  3.5885945160807943e+01 -2.6599926158865765e-03 0.0000000000000000e+00  3.4885853412809091e+01 -5.1161461650357900e-03 0.0000000000000000e+00  3.3843865036223093e+01 4.2887208405700148e-03 0.0000000000000000e+00  3.2788051479514529e+01 3.8838366525294592e-03 0.0000000000000000e+00  3.1702317612303254e+01 -8.6002949693012780e-04 0.0000000000000000e+00  3.0611970732519545e+01 2.5542296922908275e-05 0.0000000000000000e+00  2.9501383844062861e+01 2.3664015381603693e-03 0.0000000000000000e+00  2.8370003263090876e+01 -1.3806316711780673e-03 0.0000000000000000e+00  2.7255834538760993e+01 -2.2542416581746486e-03 0.0000000000000000e+00  2.6124505947015660e+01 7.0648873232581431e-03 0.0000000000000000e+00  2.4924941728331060e+01 -9.5129624235004966e-03 0.0000000000000000e+00  2.3756550516543044e+01 -9.5844277902617267e-04 0.0000000000000000e+00  2.2585533609334728e+01 -1.0052562301509666e-03 0.0000000000000000e+00  2.1446638191899474e+01 -3.1892765258533510e-04 0.0000000000000000e+00  2.0265063696009275e+01 9.7459810750518232e-03 0.0000000000000000e+00  1.9036046301161704e+01 -8.4666916403358210e-03 0.0000000000000000e+00  1.7847499272424663e+01 -1.0409684751048931e-03 0.0000000000000000e+00  1.6655720838113890e+01 6.5569363946619793e-04 0.0000000000000000e+00  1.5439038703955374e+01 4.1098230710456532e-03 0.0000000000000000e+00  1.4280732888360713e+01 1.8078480542594445e-03 0.0000000000000000e+00  1.3069872678977042e+01 -2.5902830257084125e-03 0.0000000000000000e+00  1.1890239950767459e+01 1.1734876287911172e-03 0.0000000000000000e+00  1.0699422653136972e+01 4.0619408144568075e-03 0.0000000000000000e+00  9.5326356990696048e+00 -1.4735114223570899e-03 0.0000000000000000e+00  8.3179501269071281e+00 -3.6330199950993613e-03 0.0000000000000000e+00  7.1281833062757496e+00 6.8776985492019511e-03 0.0000000000000000e+00  5.9601027964435049e+00 -1.1831869941525018e-02 0.0000000000000000e+00  4.8002833142424040e+00 -4.9948016321121986e-03 0.0000000000000000e+00  3.6008150635500185e+00 1.6390055650565647e-02 0.0000000000000000e+00  2.3633410951178835e+00 3.2676670109680229e-04 0.0000000000000000e+00  1.2844153921284438e+00 -4.2891796342780307e-02 0.0000000000000000e+00  -6.9006734508399642e-02 1.3262543418860206e+00 0.0000000000000000e+00  1.7310271270836623e-02 2.3030383167887658e+00 0.0000000000000000e+00  -2.9255551279219624e-02 3.5469467398919527e+00 0.0000000000000000e+00  -2.2935334291895822e-02 4.5619606879896759e+00 0.0000000000000000e+00  9.9471696037358448e-02 5.9296556002098013e+00 0.0000000000000000e+00  -2.4457248103701132e-02 7.3135893583373157e+00 0.0000000000000000e+00  -7.1430846969921163e-02 8.1779431311401112e+00 0.0000000000000000e+00  -1.0115256451300948e-01 9.5696665047120781e+00 0.0000000000000000e+00  2.8718833581718624e-02 1.0537160458830723e+01 0.0000000000000000e+00  3.1614360229669659e-02 1.1843715891901407e+01 0.0000000000000000e+00  -2.9297667428723837e-02 1.3028341662032739e+01 0.0000000000000000e+00  2.1087299379444341e-02 1.4162683939174048e+01 0.0000000000000000e+00  5.2839140944239676e-03 1.5442393429098367e+01 0.0000000000000000e+00  -4.3268163734304678e-03 1.6448850006890385e+01 0.0000000000000000e+00  -1.3489225960285275e-02 1.7687784799002582e+01 0.0000000000000000e+00  -5.8352436711025697e-03 1.8802131057307641e+01 0.0000000000000000e+00  1.5984938761523071e-02 1.9994776752228429e+01 0.0000000000000000e+00  -5.2187188627527258e-03 2.1175198227080944e+01 0.0000000000000000e+00  -1.1983078823854991e-02 2.2271263298185772e+01 0.0000000000000000e+00  -2.9655152471078205e-03 2.3460931055295298e+01 0.0000000000000000e+00  -1.1728862942968477e-02 2.4394548639161837e+01 0.0000000000000000e+00  2.5517956006867269e-02 2.5627706058280410e+01 0.0000000000000000e+00  -2.1388595784825999e-02 2.6683036217309297e+01 0.0000000000000000e+00  2.5186671439160545e-02 2.7761131537374212e+01 0.0000000000000000e+00  8.4371050598752318e-03 2.8895458628449166e+01 0.0000000000000000e+00  -5.8469505359803262e-02 2.9728968020575948e+01 0.0000000000000000e+00  -4.8832080098979977e-02 3.0950866753086547e+01 0.0000000000000000e+00  9.9314256603910273e-03 3.1767149053084413e+01 0.0000000000000000e+00  -3.1293878470179080e-02 3.2792548201316883e+01 0.0000000000000000e+00  -1.5576568395470378e-02 3.3606319852907603e+01 0.0000000000000000e+00  7.6715062908448761e-02 3.4652107158390905e+01 0.0000000000000000e+00  -2.7008893512945727e-02 3.5674494797208972e+01 0.0000000000000000e+00  -4.0180299872263250e-02 3.6316045138385512e+01 0.0000000000000000e+00  -4.4628956308331302e-02 3.7295742141641568e+01 0.0000000000000000e+00  6.0136791363250277e-03 3.7905421320108459e+01 0.0000000000000000e+00  1.3605761562888676e-02 3.8742657484609552e+01 0.0000000000000000e+00  -5.6473801617101310e-03 3.9465137129690966e+01 0.0000000000000000e+00  -1.6609025291515439e-03 4.0102908704443905e+01 0.0000000000000000e+00  1.2220056995015062e-03 4.0713542032146634e+01 0.0000000000000000e+00  1.4051358737963762e-03 4.1304423247349149e+01 0.0000000000000000e+00  -1.0578383323489905e-02 4.1831041808515550e+01 0.0000000000000000e+00  7.9260110481623998e-04 4.2210843387336055e+01 0.0000000000000000e+00  -5.8964542990495308e-04 4.2681017060629600e+01 0.0000000000000000e+00  4.5737872974818848e-03 4.3057047726839016e+01 0.0000000000000000e+00  -8.3201686239677605e-03 4.3358914698441211e+01 0.0000000000000000e+00  8.0190769262302244e-03 4.3628333147382087e+01 0.0000000000000000e+00  -2.7894939373909237e-03 4.3810377919310632e+01 0.0000000000000000e+00  -7.2180353785731627e-03 4.3966652666437760e+01 0.0000000000000000e+00  1.7502099108666941e-03 4.4049545305089978e+01 0.0000000000000000e+00  1.6941169164305348e-03 4.4084372189664137e+01 0.0000000000000000e+00  7.3565256337815785e-03 4.4047109027878022e+01 0.0000000000000000e+00  -8.2560163929850730e-03 4.3967998132948971e+01 0.0000000000000000e+00  3.6885602643930452e-03 4.3826986805865495e+01 0.0000000000000000e+00  -6.6784482454974861e-03 4.3620988491765850e+01 0.0000000000000000e+00  9.5262531415619290e-03 4.3366078841420254e+01 0.0000000000000000e+00  -8.4363173689458431e-03 4.3029503416025605e+01 0.0000000000000000e+00  1.8632575587775261e-02 4.2723905263405356e+01 0.0000000000000000e+00  2.1437183653066197e-02 4.2218557213501555e+01 0.0000000000000000e+00  1.2532190392594884e-02 4.1854674142526022e+01 0.0000000000000000e+00  4.4138687826979432e-02 4.1255230366152787e+01 0.0000000000000000e+00  -2.1537484887510054e-02 4.0798671719627997e+01 0.0000000000000000e+00  -7.5860223821845180e-03 4.0114771775929022e+01 0.0000000000000000e+00  8.6173489430584858e-03 3.9425131664328013e+01 0.0000000000000000e+00  -1.9266891300766273e-03 3.8749683036231382e+01 0.0000000000000000e+00  -6.5728086144818231e-04 3.8014629369560410e+01 0.0000000000000000e+00  -2.8358475577164905e-03 3.7218949387618217e+01 0.0000000000000000e+00  3.3235480910879583e-03 3.6414542270204549e+01 0.0000000000000000e+00  -1.6350837522941739e-02 3.5555853884190128e+01 0.0000000000000000e+00  3.0305901562467728e-02 3.4673528566871049e+01 0.0000000000000000e+00  -2.1358741764597872e-02 3.3687285761817982e+01 0.0000000000000000e+00  2.3814153497817230e-02 3.2874794895187421e+01 0.0000000000000000e+00  6.2407413333911178e-03 3.1911694163647912e+01 0.0000000000000000e+00  -2.5951337396208224e-02 3.0872630935365926e+01 0.0000000000000000e+00  1.7135327557865322e-02 2.9844405337770244e+01 0.0000000000000000e+00  -2.1550394308930333e-02 2.8824388692970714e+01 0.0000000000000000e+00  1.0629462073753006e-02 2.7714372032308379e+01 0.0000000000000000e+00  -4.5548180754884033e-03 2.6634332722334509e+01 0.0000000000000000e+00  4.4845391672922043e-02 2.5733067830041588e+01 0.0