<?xml version="1.0"?>
<VTKFile type="UnstructuredGrid"  version="0.1"  >
<UnstructuredGrid>
<Piece  NumberOfPoints="11902" NumberOfCells="23402">
<Points>
<DataArray  type="Float64"  NumberOfComponents="3"  format="ascii">-5 -5 0  5 -5 0  5 5 0  -5 5 0  2.050583702992402 0.003627269904884242 0  -4.9 -5 0  -4.8 -5 0  -4.7 -5 0  -4.6 -5 0  -4.5 -5 0  -4.4 -5 0  -4.3 -5 0  -4.2 -5 0  -4.1 -5 0  -4 -5 0  -3.9 -5 0  -3.8 -5 0  -3.7 -5 0  -3.6 -5 0  -3.5 -5 0  -3.4 -5 0  -3.3 -5 0  -3.2 -5 0  -3.1 -5 0  -3 -5 0  -2.9 -5 0  -2.8 -5 0  -2.7 -5 0  -2.6 -5 0  -2.5 -5 0  -2.4 -5 0  -2.3 -5 0  -2.2 -5 0  -2.1 -5 0  -2 -5 0  -1.9 -5 0  -1.8 -5 0  -1.7 -5 0  -1.6 -5 0  -1.5 -5 0  -1.4 -5 0  -1.3 -5 0  -1.2 -5 0  -1.1 -5 0  -1 -5 0  -0.9000000000000004 -5 0  -0.7999999999999998 -5 0  -0.7000000000000002 -5 0  -0.5999999999999996 -5 0  -0.5 -5 0  -0.4000000000000004 -5 0  -0.2999999999999998 -5 0  -0.2000000000000002 -5 0  -0.09999999999999964 -5 0  0 -5 0  0.09999999999999964 -5 0  0.2000000000000002 -5 0  0.2999999999999998 -5 0  0.4000000000000004 -5 0  0.5 -5 0  0.5999999999999996 -5 0  0.7000000000000002 -5 0  0.7999999999999998 -5 0  0.9000000000000004 -5 0  1 -5 0  1.1 -5 0  1.2 -5 0  1.3 -5 0  1.4 -5 0  1.5 -5 0  1.6 -5 0  1.7 -5 0  1.8 -5 0  1.9 -5 0  2 -5 0  2.1 -5 0  2.2 -5 0  2.3 -5 0  2.4 -5 0  2.5 -5 0  2.6 -5 0  2.7 -5 0  2.8 -5 0  2.9 -5 0  3 -5 0  3.1 -5 0  3.199999999999999 -5 0  3.300000000000001 -5 0  3.4 -5 0  3.5 -5 0  3.6 -5 0  3.699999999999999 -5 0  3.800000000000001 -5 0  3.9 -5 0  4 -5 0  4.1 -5 0  4.199999999999999 -5 0  4.300000000000001 -5 0  4.4 -5 0  4.5 -5 0  4.6 -5 0  4.699999999999999 -5 0  4.800000000000001 -5 0  4.9 -5 0  5 -4.9 0  5 -4.8 0  5 -4.7 0  5 -4.6 0  5 -4.5 0  5 -4.4 0  5 -4.3 0  5 -4.2 0  5 -4.1 0  5 -4 0  5 -3.9 0  5 -3.8 0  5 -3.7 0  5 -3.6 0  5 -3.5 0  5 -3.4 0  5 -3.3 0  5 -3.2 0  5 -3.1 0  5 -3 0  5 -2.9 0  5 -2.8 0  5 -2.7 0  5 -2.6 0  5 -2.5 0  5 -2.4 0  5 -2.3 0  5 -2.2 0  5 -2.1 0  5 -2 0  5 -1.9 0  5 -1.8 0  5 -1.7 0  5 -1.6 0  5 -1.5 0  5 -1.4 0  5 -1.3 0  5 -1.2 0  5 -1.1 0  5 -1 0  5 -0.9000000000000004 0  5 -0.7999999999999998 0  5 -0.7000000000000002 0  5 -0.5999999999999996 0  5 -0.5 0  5 -0.4000000000000004 0  5 -0.2999999999999998 0  5 -0.2000000000000002 0  5 -0.09999999999999964 0  5 0 0  5 0.09999999999999964 0  5 0.2000000000000002 0  5 0.2999999999999998 0  5 0.4000000000000004 0  5 0.5 0  5 0.5999999999999996 0  5 0.7000000000000002 0  5 0.7999999999999998 0  5 0.9000000000000004 0  5 1 0  5 1.1 0  5 1.2 0  5 1.3 0  5 1.4 0  5 1.5 0  5 1.6 0  5 1.7 0  5 1.8 0  5 1.9 0  5 2 0  5 2.1 0  5 2.2 0  5 2.3 0  5 2.4 0  5 2.5 0  5 2.6 0  5 2.7 0  5 2.8 0  5 2.9 0  5 3 0  5 3.1 0  5 3.199999999999999 0  5 3.300000000000001 0  5 3.4 0  5 3.5 0  5 3.6 0  5 3.699999999999999 0  5 3.800000000000001 0  5 3.9 0  5 4 0  5 4.1 0  5 4.199999999999999 0  5 4.300000000000001 0  5 4.4 0  5 4.5 0  5 4.6 0  5 4.699999999999999 0  5 4.800000000000001 0  5 4.9 0  4.9 5 0  4.8 5 0  4.7 5 0  4.6 5 0  4.5 5 0  4.4 5 0  4.3 5 0  4.2 5 0  4.1 5 0  4 5 0  3.9 5 0  3.8 5 0  3.7 5 0  3.6 5 0  3.5 5 0  3.4 5 0  3.3 5 0  3.2 5 0  3.1 5 0  3 5 0  2.9 5 0  2.8 5 0  2.7 5 0  2.6 5 0  2.5 5 0  2.4 5 0  2.3 5 0  2.2 5 0  2.1 5 0  2 5 0  1.9 5 0  1.8 5 0  1.7 5 0  1.6 5 0  1.5 5 0  1.4 5 0  1.3 5 0  1.2 5 0  1.1 5 0  1 5 0  0.9000000000000004 5 0  0.7999999999999998 5 0  0.7000000000000002 5 0  0.5999999999999996 5 0  0.5 5 0  0.4000000000000004 5 0  0.2999999999999998 5 0  0.2000000000000002 5 0  0.09999999999999964 5 0  0 5 0  -0.09999999999999964 5 0  -0.2000000000000002 5 0  -0.2999999999999998 5 0  -0.4000000000000004 5 0  -0.5 5 0  -0.5999999999999996 5 0  -0.7000000000000002 5 0  -0.7999999999999998 5 0  -0.9000000000000004 5 0  -1 5 0  -1.1 5 0  -1.2 5 0  -1.3 5 0  -1.4 5 0  -1.5 5 0  -1.6 5 0  -1.7 5 0  -1.8 5 0  -1.9 5 0  -2 5 0  -2.1 5 0  -2.2 5 0  -2.3 5 0  -2.4 5 0  -2.5 5 0  -2.6 5 0  -2.7 5 0  -2.8 5 0  -2.9 5 0  -3 5 0  -3.1 5 0  -3.199999999999999 5 0  -3.300000000000001 5 0  -3.4 5 0  -3.5 5 0  -3.6 5 0  -3.699999999999999 5 0  -3.800000000000001 5 0  -3.9 5 0  -4 5 0  -4.1 5 0  -4.199999999999999 5 0  -4.300000000000001 5 0  -4.4 5 0  -4.5 5 0  -4.6 5 0  -4.699999999999999 5 0  -4.800000000000001 5 0  -4.9 5 0  -5 4.9 0  -5 4.8 0  -5 4.7 0  -5 4.6 0  -5 4.5 0  -5 4.4 0  -5 4.3 0  -5 4.2 0  -5 4.1 0  -5 4 0  -5 3.9 0  -5 3.8 0  -5 3.7 0  -5 3.6 0  -5 3.5 0  -5 3.4 0  -5 3.3 0  -5 3.2 0  -5 3.1 0  -5 3 0  -5 2.9 0  -5 2.8 0  -5 2.7 0  -5 2.6 0  -5 2.5 0  -5 2.4 0  -5 2.3 0  -5 2.2 0  -5 2.1 0  -5 2 0  -5 1.9 0  -5 1.8 0  -5 1.7 0  -5 1.6 0  -5 1.5 0  -5 1.4 0  -5 1.3 0  -5 1.2 0  -5 1.1 0  -5 1 0  -5 0.9000000000000004 0  -5 0.7999999999999998 0  -5 0.7000000000000002 0  -5 0.5999999999999996 0  -5 0.5 0  -5 0.4000000000000004 0  -5 0.2999999999999998 0  -5 0.2000000000000002 0  -5 0.09999999999999964 0  -5 0 0  -5 -0.09999999999999964 0  -5 -0.2000000000000002 0  -5 -0.2999999999999998 0  -5 -0.4000000000000004 0  -5 -0.5 0  -5 -0.5999999999999996 0  -5 -0.7000000000000002 0  -5 -0.7999999999999998 0  -5 -0.9000000000000004 0  -5 -1 0  -5 -1.1 0  -5 -1.2 0  -5 -1.3 0  -5 -1.4 0  -5 -1.5 0  -5 -1.6 0  -5 -1.7 0  -5 -1.8 0  -5 -1.9 0  -5 -2 0  -5 -2.1 0  -5 -2.2 0  -5 -2.3 0  -5 -2.4 0  -5 -2.5 0  -5 -2.6 0  -5 -2.7 0  -5 -2.8 0  -5 -2.9 0  -5 -3 0  -5 -3.1 0  -5 -3.199999999999999 0  -5 -3.300000000000001 0  -5 -3.4 0  -5 -3.5 0  -5 -3.6 0  -5 -3.699999999999999 0  -5 -3.800000000000001 0  -5 -3.9 0  -5 -4 0  -5 -4.1 0  -5 -4.199999999999999 0  -5 -4.300000000000001 0  -5 -4.4 0  -5 -4.5 0  -5 -4.6 0  -5 -4.699999999999999 0  -5 -4.800000000000001 0  -5 -4.9 0  2.207125700070173 0.2337238247476395 0  1.992396090883602 0.3876423400393315 0  2.161974412019788 0.6531601154234159 0  1.802642593871426 0.7317273834969036 0  1.741863014016097 0.9359092598020357 0  1.552840287175135 1.036639064486998 0  1.455367482486939 1.212509835908691 0  1.224959692452553 1.18613761724468 0  1.123622498211191 1.356763122793493 0  0.9563088543144318 1.46107454896867 0  0.7851456339357473 1.487440392691551 0  0.6433073436264629 1.533056076040216 0  0.4612184384515381 1.608238024274457 0  0.2974651569448789 1.633971858787309 0  0.1344275227093863 1.673707337858998 0  -0.02351282029356785 1.664771746773149 0  -0.2301800653144047 1.631288522246357 0  -0.3947066314049045 1.630980938378607 0  -0.5469693944821 1.581720243381817 0  -0.7056735260393101 1.509866655071916 0  -0.8794784855641951 1.476327826817974 0  -1.029469643436799 1.371620947053866 0  -1.181301944074852 1.28673693650864 0  -1.413589653572902 1.269422612546832 0  -1.390703013188483 1.026313335681083 0  -1.644543588928548 1.00491520212975 0  -1.843905830047325 0.8808047573037262 0  -1.871569141460274 0.6885153897473276 0  -2.04361898166652 0.5346957860621037 0  -2.125163891652942 0.3057839846921093 0  -2.160391139169872 0.08839311115312402 0  -1.992363486849938 -0.1283777937185942 0  -2.281954404878657 -0.343764167001066 0  -1.973474156445888 -0.4776407908497369 0  -1.86935756051878 -0.6719468405264761 0  -1.861774329072523 -0.8882285155993673 0  -1.564322118257975 -0.9277638922102919 0  -1.519746673542701 -1.111072581932089 0  -1.364608914483165 -1.234198991630151 0  -1.17869413515415 -1.278457433761903 0  -1.036144300718609 -1.394324446177132 0  -0.8732376472515679 -1.492227526053312 0  -0.7075745707128638 -1.537598870044134 0  -0.5399852463730899 -1.578685187979327 0  -0.3837225944079902 -1.643268897311079 0  -0.2135913760919939 -1.64268084794626 0  -0.04911032619120553 -1.665192641395157 0  0.1405012989451135 -1.66013432555923 0  0.2937079529232457 -1.651657000905445 0  0.4721778666676682 -1.61747281967793 0  0.6291922156458697 -1.56229456640376 0  0.7872989613098372 -1.476485695805304 0  0.9594634709980673 -1.465680094978523 0  1.128544738240996 -1.357938824157517 0  1.290438644291961 -1.293966470498204 0  1.421875771115222 -1.162740837923118 0  1.560807629898479 -1.034577065427122 0  1.750453466773346 -0.9272040919512415 0  1.861699547421377 -0.7811497660545095 0  1.955420077861049 -0.592127052551177 0  2.123019701395003 -0.4255312988677825 0  2.129511179536822 -0.2088097146445919 0  -2.449760892175073 4.920123767397623 0  -2.44972932377942 -4.912687269026317 0  4.911622663173126 2.448637054496874 0  4.919645767557906 -2.449967824966084 0  2.447642811102358 -4.898281190524732 0  2.442020990889146 4.902018928354198 0  -4.911654502504843 -2.448646729056005 0  -4.911693350270216 2.448651801804613 0  -1.749941467125081 4.914069041797361 0  -1.7456518828609 -4.917371421054304 0  4.921557889786714 1.744384144681822 0  4.910216517555107 -1.748313110061577 0  -4.910525157278312 -1.747999514481744 0  -4.911376190973288 1.747740060508249 0  1.747297918453028 4.908133024793323 0  1.748875289265974 -4.896655398123701 0  -1.150070524406434 4.912699847692526 0  -1.130804150252311 -4.92022676450686 0  -4.909877196801959 -1.148022109694078 0  -4.909721992569664 1.147814796745966 0  1.144979043313111 -4.916587542326146 0  1.150075786145243 4.912675869574192 0  4.910014855961064 1.14629957026396 0  4.920755778337094 -1.151967172572758 0  -0.5473377086143507 -4.91432886728915 0  -0.5470545901248088 4.922649714605999 0  -4.908165965429488 -0.5486637694399564 0  -4.90820476315657 0.547201159341667 0  4.907429635913919 -0.5489843686049716 0  4.919079240788511 0.5456867683132154 0  0.5432159055461295 -4.901831371300053 0  0.5518064236370703 4.919623439098123 0  -4.912940991579417 -3.0490437672059 0  4.919448335132966 3.046989167332612 0  4.912459848023761 -3.049036308063476 0  -4.913809243366466 3.046122360717359 0  3.056241948927616 -4.918848122504308 0  -3.049613242167047 -4.912795506875804 0  3.053167113396923 4.914907186029637 0  -3.049092282294488 4.913745771668093 0  -4.907086352484715 -0.04990758400667148 0  0.04517205290445536 -4.916360890996136 0  0.04962107020702059 4.923080317908111 0  4.914105439082656 -0.05129207761133027 0  3.546276937416394 -4.919998525674004 0  -3.549627205174394 4.913024489531879 0  -3.549597910170717 -4.913037943775072 0  4.
[...]
<PointData  Vectors="f_3744"> 
<DataArray  type="Float64"  Name="f_3744"  NumberOfComponents="3" format="ascii">-1.5636096075102790e-01 -1.8245724676151653e-01 0.0000000000000000e+00  1.7054784213875532e-01 -1.4428240218074259e-01 0.0000000000000000e+00  9.9487607665723718e-02 1.1621443051314341e-01 0.0000000000000000e+00  -1.6464385163692874e-01 1.8799287230144979e-01 0.0000000000000000e+00  6.7359407539335265e+00 -2.1950522233270164e+00 0.0000000000000000e+00  6.0205436131384772e-02 -1.3817928113373066e+00 0.0000000000000000e+00  5.0643674744527543e-02 -2.2432495147964806e+00 0.0000000000000000e+00  5.3691400685562191e-02 -3.7027817648622285e+00 0.0000000000000000e+00  4.1018145912435626e-02 -4.5773366867477776e+00 0.0000000000000000e+00  -1.0031791794077435e-01 -5.9469235581006181e+00 0.0000000000000000e+00  2.0410865348763269e-02 -7.3051950268748493e+00 0.0000000000000000e+00  3.5653776466144274e-02 -8.3295271351609017e+00 0.0000000000000000e+00  -1.6585974540072403e-02 -9.5811911942950676e+00 0.0000000000000000e+00  6.2356358666888420e-02 -1.0558548277771031e+01 0.0000000000000000e+00  6.3314395550004177e-02 -1.1983722881936433e+01 0.0000000000000000e+00  -9.7313000210890559e-03 -1.2936241825076042e+01 0.0000000000000000e+00  -1.7170480433097733e-02 -1.4187709824399416e+01 0.0000000000000000e+00  7.7480205555685924e-03 -1.5406738847546334e+01 0.0000000000000000e+00  5.2985297922148924e-03 -1.6558369085124625e+01 0.0000000000000000e+00  -6.4525100911077184e-03 -1.7729540305244658e+01 0.0000000000000000e+00  4.2285100713776013e-03 -1.8948977253567318e+01 0.0000000000000000e+00  2.5044923205089907e-02 -2.0126839989735448e+01 0.0000000000000000e+00  -3.4983249232903705e-03 -2.1061985432322736e+01 0.0000000000000000e+00  -8.1972581615509816e-03 -2.2352976658011745e+01 0.0000000000000000e+00  -3.2178238824067555e-02 -2.3644655280478069e+01 0.0000000000000000e+00  8.4311004275167536e-02 -2.4554783007450339e+01 0.0000000000000000e+00  3.7723627514017088e-02 -2.5871520375891009e+01 0.0000000000000000e+00  4.5247705209043032e-02 -2.6727270488958780e+01 0.0000000000000000e+00  7.4945680215825206e-02 -2.7992467673004747e+01 0.0000000000000000e+00  -3.5210999286755605e-02 -2.8880513711015293e+01 0.0000000000000000e+00  -1.1891299815710627e-02 -3.0098618453497714e+01 0.0000000000000000e+00  -4.3564057940355828e-03 -3.1235548189339688e+01 0.0000000000000000e+00  5.5351890176935724e-02 -3.2039240329286947e+01 0.0000000000000000e+00  4.0080711013881984e-02 -3.3262470346172577e+01 0.0000000000000000e+00  4.0173830944064959e-02 -3.3987652064515743e+01 0.0000000000000000e+00  -9.0296428824991684e-02 -3.5094059776061137e+01 0.0000000000000000e+00  3.9137252556840398e-02 -3.6134588096503208e+01 0.0000000000000000e+00  6.1566466493677358e-03 -3.6888220593213987e+01 0.0000000000000000e+00  -1.2780374376578354e-03 -3.7734733688924400e+01 0.0000000000000000e+00  -1.4807122986844907e-03 -3.8547337202783233e+01 0.0000000000000000e+00  6.8450909121484365e-03 -3.9323544917198923e+01 0.0000000000000000e+00  -3.9388490119710809e-02 -4.0129096192806450e+01 0.0000000000000000e+00  4.8054815429214623e-02 -4.0738188305562069e+01 0.0000000000000000e+00  2.5774878870570377e-02 -4.1369275165970272e+01 0.0000000000000000e+00  1.9671469854788324e-02 -4.2015164995928487e+01 0.0000000000000000e+00  -1.1092179607822735e-02 -4.2574085406219275e+01 0.0000000000000000e+00  4.6606174960160118e-02 -4.2955448786419673e+01 0.0000000000000000e+00  -3.4359593043872212e-02 -4.3474684277939836e+01 0.0000000000000000e+00  1.9076801215288746e-02 -4.3902881877283193e+01 0.0000000000000000e+00  -4.0915484918721146e-03 -4.4166966151087337e+01 0.0000000000000000e+00  1.3957647976876040e-03 -4.4446468938926451e+01 0.0000000000000000e+00  -9.8333919317603784e-04 -4.4654920540211819e+01 0.0000000000000000e+00  4.5704572520082945e-04 -4.4804320870400325e+01 0.0000000000000000e+00  2.4743605598059941e-04 -4.4892769622114038e+01 0.0000000000000000e+00  2.0168950629185483e-03 -4.4920913434157441e+01 0.0000000000000000e+00  7.1336578633048281e-04 -4.4900246996564412e+01 0.0000000000000000e+00  8.8958843961024388e-03 -4.4797664212838846e+01 0.0000000000000000e+00  -1.2239394650854484e-02 -4.4609106512154447e+01 0.0000000000000000e+00  -5.9673180775633257e-03 -4.4445641010961928e+01 0.0000000000000000e+00  -2.3510362427780613e-02 -4.4112069758704649e+01 0.0000000000000000e+00  7.6489292120115546e-03 -4.3840586468509215e+01 0.0000000000000000e+00  6.5928836659730925e-03 -4.3431592640505329e+01 0.0000000000000000e+00  -4.8145424559513407e-03 -4.2967926968228326e+01 0.0000000000000000e+00  -9.7695602416660856e-04 -4.2483733836743433e+01 0.0000000000000000e+00  5.8749152159768775e-03 -4.1927208850997204e+01 0.0000000000000000e+00  -1.3111135661763772e-02 -4.1325042471408253e+01 0.0000000000000000e+00  -8.3649817296419914e-03 -4.0654414169866286e+01 0.0000000000000000e+00  9.1472905674449146e-03 -4.0049795551913952e+01 0.0000000000000000e+00  -2.1716798732353066e-02 -3.9247085477041686e+01 0.0000000000000000e+00  2.5040740783207741e-02 -3.8461307317524700e+01 0.0000000000000000e+00  -3.1670667577273777e-02 -3.7653161264630810e+01 0.0000000000000000e+00  5.7727062171842583e-03 -3.6755491682580022e+01 0.0000000000000000e+00  1.5656833308734998e-02 -3.5945043032939779e+01 0.0000000000000000e+00  -2.2851441569152822e-02 -3.4987906073608400e+01 0.0000000000000000e+00  1.6116489385973699e-02 -3.4016796448308106e+01 0.0000000000000000e+00  -1.2024218541910527e-02 -3.3035693812053161e+01 0.0000000000000000e+00  5.2222213297873762e-03 -3.2052492375466052e+01 0.0000000000000000e+00  -2.1623352919980261e-02 -3.1042407497409084e+01 0.0000000000000000e+00  -7.0806343830996221e-03 -2.9944998640017545e+01 0.0000000000000000e+00  9.8762628140230107e-03 -2.9032226593429314e+01 0.0000000000000000e+00  1.8085706741400903e-03 -2.7881451092927282e+01 0.0000000000000000e+00  8.8115267012516957e-03 -2.6765282577777278e+01 0.0000000000000000e+00  -3.1489541593130652e-02 -2.5676946337943722e+01 0.0000000000000000e+00  -1.1437984173128581e-02 -2.4451914937382824e+01 0.0000000000000000e+00  2.0255469247837360e-02 -2.3448716279683921e+01 0.0000000000000000e+00  -3.0891391394220293e-02 -2.2223226241912101e+01 0.0000000000000000e+00  1.6075401631167881e-03 -2.1134346045437180e+01 0.0000000000000000e+00  1.1895670728959164e-02 -2.0020971750143925e+01 0.0000000000000000e+00  1.2995053556534266e-02 -1.8791838987260871e+01 0.0000000000000000e+00  -3.6473842894908085e-02 -1.7672042984034245e+01 0.0000000000000000e+00  7.2497570126955667e-03 -1.6428641665315343e+01 0.0000000000000000e+00  8.0546441015534320e-03 -1.5377177661980543e+01 0.0000000000000000e+00  -2.8966686536173028e-02 -1.4112598939173418e+01 0.0000000000000000e+00  -5.9196842132931053e-04 -1.2993427099445412e+01 0.0000000000000000e+00  1.5914613371534700e-02 -1.1787113435518400e+01 0.0000000000000000e+00  -8.9167458344503519e-04 -1.0592666792248224e+01 0.0000000000000000e+00  -1.5680552836301351e-02 -9.4404343286390251e+00 0.0000000000000000e+00  -1.1966499446506936e-02 -8.2130884833928981e+00 0.0000000000000000e+00  2.3209589428870147e-02 -7.1652260033365627e+00 0.0000000000000000e+00  -3.5459575947278346e-02 -5.8950330279146312e+00 0.0000000000000000e+00  8.5004643638602884e-03 -4.7426361785983966e+00 0.0000000000000000e+00  1.9443335369814515e-02 -3.5309628850376482e+00 0.0000000000000000e+00  -3.0431289976352045e-02 -2.3446307948231726e+00 0.0000000000000000e+00  -3.7452385885628589e-02 -1.3571567774122242e+00 0.0000000000000000e+00  1.4123872955998298e+00 3.3934495358305790e-02 0.0000000000000000e+00  2.2662879564417628e+00 8.6533989377952522e-02 0.0000000000000000e+00  3.6471407993257516e+00 6.3323779948435341e-02 0.0000000000000000e+00  4.6610976832769593e+00 -1.9363272324152931e-02 0.0000000000000000e+00  5.9228059992769522e+00 9.1276637279237988e-03 0.0000000000000000e+00  7.0846687693254182e+00 -6.5523226655208721e-03 0.0000000000000000e+00  8.2625432933263703e+00 1.2916861994463572e-03 0.0000000000000000e+00  9.4452238671301814e+00 -1.9295622022972780e-03 0.0000000000000000e+00  1.0619043769368668e+01 5.6764240163837678e-04 0.0000000000000000e+00  1.1818853273733545e+01 -3.5784661216201519e-04 0.0000000000000000e+00  1.2980442677477534e+01 -3.7222040606322175e-05 0.0000000000000000e+00  1.4171631617878843e+01 4.0231112273870799e-03 0.0000000000000000e+00  1.5311890706404945e+01 1.6571387823675701e-03 0.0000000000000000e+00  1.6530370979934034e+01 -7.9216609837205465e-03 0.0000000000000000e+00  1.7673811458722387e+01 4.0212379545639144e-03 0.0000000000000000e+00  1.8882399031202709e+01 3.3766413713401597e-03 0.0000000000000000e+00  2.0013880477066490e+01 -3.3809591437714902e-03 0.0000000000000000e+00  2.1157687332222778e+01 7.8961798950547540e-03 0.0000000000000000e+00  2.2353261772237591e+01 -7.7651964707059319e-03 0.0000000000000000e+00  2.3466777509490104e+01 -5.2185072258784512e-03 0.0000000000000000e+00  2.4633289270817453e+01 1.0735237012333429e-02 0.0000000000000000e+00  2.5774711592053585e+01 -1.1559582988135303e-02 0.0000000000000000e+00  2.6832954918605683e+01 8.3269479217903362e-03 0.0000000000000000e+00  2.7962526995414319e+01 1.9707062539037999e-03 0.0000000000000000e+00  2.9077377086425745e+01 4.9735275163223696e-03 0.0000000000000000e+00  3.0170107494006690e+01 -3.0133491717259076e-03 0.0000000000000000e+00  3.1223932951610912e+01 -2.1345366508314250e-03 0.0000000000000000e+00  3.2249142966330609e+01 -1.5812721328897976e-03 0.0000000000000000e+00  3.3266777202055259e+01 1.1635593726670166e-04 0.0000000000000000e+00  3.4260804515214438e+01 -3.8365893262436645e-04 0.0000000000000000e+00  3.5229102600976930e+01 2.4087610418982975e-04 0.0000000000000000e+00  3.6167887748750090e+01 -2.3553237523817822e-03 0.0000000000000000e+00  3.7066170166353494e+01 -9.4976514169374602e-04 0.0000000000000000e+00  3.7955597155434411e+01 4.5227146533895471e-03 0.0000000000000000e+00  3.8808360507051241e+01 -7.1498466892061545e-03 0.0000000000000000e+00  3.9569632060076280e+01 7.2913062036865988e-03 0.0000000000000000e+00  4.0340514234728900e+01 -6.9725005162285145e-04 0.0000000000000000e+00  4.1051834933223859e+01 8.3368244878221209e-03 0.0000000000000000e+00  4.1709430826301364e+01 1.0689661825052906e-02 0.0000000000000000e+00  4.2366204995383008e+01 -3.2025826007762749e-02 0.0000000000000000e+00  4.2982459528539763e+01 2.3416949700442891e-02 0.0000000000000000e+00  4.3449247320691988e+01 -1.0123448915290153e-02 0.0000000000000000e+00  4.3931466213337927e+01 1.3894510321319606e-03 0.0000000000000000e+00  4.4341848689066353e+01 -3.2207896771942225e-03 0.0000000000000000e+00  4.4674286613294449e+01 6.9144435582446694e-03 0.0000000000000000e+00  4.4964158619566597e+01 -1.1857523941847864e-03 0.0000000000000000e+00  4.5201013717235270e+01 5.4036601248440253e-04 0.0000000000000000e+00  4.5371187324175295e+01 -7.7528425354454560e-04 0.0000000000000000e+00  4.5477095561899198e+01 -2.8970904086209894e-04 0.0000000000000000e+00  4.5516416359452940e+01 6.0987207265839408e-04 0.0000000000000000e+00  4.5494649470926042e+01 7.0817701491270870e-04 0.0000000000000000e+00  4.5412048152812147e+01 -1.6771462686518762e-03 0.0000000000000000e+00  4.5260238288784201e+01 1.8116159858779638e-03 0.0000000000000000e+00  4.5046199407831928e+01 1.8810418450827045e-04 0.0000000000000000e+00  4.4780643467692862e+01 -3.2728683520274844e-03 0.0000000000000000e+00  4.4441817684975511e+01 3.8277625195745537e-03 0.0000000000000000e+00  4.4041604943152414e+01 -1.2660857882497361e-04 0.0000000000000000e+00  4.3595563472609030e+01 -4.5321025368586900e-03 0.0000000000000000e+00  4.3073488166976560e+01 9.9354397596978648e-04 0.0000000000000000e+00  4.2522284116273262e+01 2.3508193474747465e-03 0.0000000000000000e+00  4.1908760382322470e+01 -3.0684744647105603e-03 0.0000000000000000e+00  4.1269842448332625e+01 7.3974965116454304e-05 0.0000000000000000e+00  4.0544902912381040e+01 2.1667514042537687e-03 0.0000000000000000e+00  3.9795899681250646e+01 -1.9883055362284415e-03 0.0000000000000000e+00  3.9019717308077773e+01 7.2307584094913318e-03 0.0000000000000000e+00  3.8156528602563100e+01 -5.3705624299165743e-03 0.0000000000000000e+00  3.7306651791681666e+01 -7.1922715040859389e-03 0.0000000000000000e+00  3.6388613921645593e+01 9.2493252973710246e-03 0.0000000000000000e+00  3.5427316840430912e+01 -2.5399988090176340e-03 0.0000000000000000e+00  3.4467817014325121e+01 -4.8161383919149252e-03 0.0000000000000000e+00  3.3465454818463066e+01 4.0261954814756716e-03 0.0000000000000000e+00  3.2447547743280744e+01 3.6191114864568084e-03 0.0000000000000000e+00  3.1398157744796208e+01 -8.5973077714179217e-04 0.0000000000000000e+00  3.0341503995377497e+01 -2.8614204960664439e-05 0.0000000000000000e+00  2.9262725399924328e+01 2.2055893547099012e-03 0.0000000000000000e+00  2.8161476520665580e+01 -1.3889309193588788e-03 0.0000000000000000e+00  2.7074340183893320e+01 -2.2526494652097633e-03 0.0000000000000000e+00  2.5968232444504569e+01 6.8128879450844899e-03 0.0000000000000000e+00  2.4793174046611327e+01 -9.3061212259798517e-03 0.0000000000000000e+00  2.3646110816049756e+01 -9.9088195571912525e-04 0.0000000000000000e+00  2.2494209258032043e+01 -1.0367384915446784e-03 0.0000000000000000e+00  2.1372002583244374e+01 -3.7850146043011905e-04 0.0000000000000000e+00  2.0205760920808679e+01 9.5699899181444070e-03 0.0000000000000000e+00  1.8990740978949471e+01 -8.3641316514807985e-03 0.0000000000000000e+00  1.7813789751326279e+01 -1.0895211373797339e-03 0.0000000000000000e+00  1.6631919303695586e+01 5.8910258615148758e-04 0.0000000000000000e+00  1.5423713021272935e+01 4.0519243809014867e-03 0.0000000000000000e+00  1.4272035058349795e+01 1.7582013923239032e-03 0.0000000000000000e+00  1.3066767960814524e+01 -2.6023425946509189e-03 0.0000000000000000e+00  1.1891347717250481e+01 1.1313441012222776e-03 0.0000000000000000e+00  1.0703647540827628e+01 4.0350624420125289e-03 0.0000000000000000e+00  9.5389296618382353e+00 -1.4834084929959248e-03 0.0000000000000000e+00  8.3255072086471493e+00 -3.6492259101315451e-03 0.0000000000000000e+00  7.1361619426281901e+00 6.8496233422910748e-03 0.0000000000000000e+00  5.9678168342316429e+00 -1.1847776446455197e-02 0.0000000000000000e+00  4.8071716331191903e+00 -5.0204172261601359e-03 0.0000000000000000e+00  3.6063837150518987e+00 1.6399607516635190e-02 0.0000000000000000e+00  2.3671931336510714e+00 3.1856168659998810e-04 0.0000000000000000e+00  1.2865247288540522e+00 -4.2987393574907620e-02 0.0000000000000000e+00  -6.9175928839304443e-02 1.3284656628349683e+00 0.0000000000000000e+00  1.7323487462780989e-02 2.3070759457919978e+00 0.0000000000000000e+00  -2.9302531189926123e-02 3.5534968999244687e+00 0.0000000000000000e+00  -2.2993501118189725e-02 4.5707769274518784e+00 0.0000000000000000e+00  9.9797315243637830e-02 5.9421597539699205e+00 0.0000000000000000e+00  -2.4719323586672740e-02 7.3304036518010669e+00 0.0000000000000000e+00  -7.1430989853588908e-02 8.1980613879861952e+00 0.0000000000000000e+00  -1.0184167015595695e-01 9.5955927085532409e+00 0.0000000000000000e+00  2.8998476281291194e-02 1.0568473895586955e+01 0.0000000000000000e+00  3.1770261820407160e-02 1.1882730150847065e+01 0.0000000000000000e+00  -2.9460712445155635e-02 1.3075590704961241e+01 0.0000000000000000e+00  2.1188807809691994e-02 1.4218991099475231e+01 0.0000000000000000e+00  5.1592098546804034e-03 1.5510434985642750e+01 0.0000000000000000e+00  -4.1382909096538151e-03 1.6527378517934402e+01 0.0000000000000000e+00  -1.3615994906030743e-02 1.7780859206137901e+01 0.0000000000000000e+00  -5.8418845841545245e-03 1.8909778864780030e+01 0.0000000000000000e+00  1.6239904542627526e-02 2.0119823070833235e+01 0.0000000000000000e+00  -5.2885039158673776e-03 2.1319179102495095e+01 0.0000000000000000e+00  -1.2296461254047323e-02 2.2434738941751661e+01 0.0000000000000000e+00  -3.0240614089050810e-03 2.3647996220020328e+01 0.0000000000000000e+00  -1.1920021084097631e-02 2.4601317750830329e+01 0.0000000000000000e+00  2.6333885462771874e-02 2.5862994456378161e+01 0.0000000000000000e+00  -2.1962811513549986e-02 2.6944450718559899e+01 0.0000000000000000e+00  2.5955780963413028e-02 2.8051917250425095e+01 0.0000000000000000e+00  8.7430064883337235e-03 2.9219101827243012e+01 0.0000000000000000e+00  -6.0648990804306413e-02 3.0078654648149808e+01 0.0000000000000000e+00  -5.0248481755099245e-02 3.1341018945055005e+01 0.0000000000000000e+00  1.0397933978677540e-02 3.2186102617283247e+01 0.0000000000000000e+00  -3.2534260436999932e-02 3.3248953839119309e+01 0.0000000000000000e+00  -1.6249768731721168e-02 3.4094936932412381e+01 0.0000000000000000e+00  7.9988934864933511e-02 3.5183719573914580e+01 0.0000000000000000e+00  -2.8077247398341682e-02 3.6251902988734081e+01 0.0000000000000000e+00  -4.2745501945904395e-02 3.6922625860873076e+01 0.0000000000000000e+00  -4.6555114413819015e-02 3.7949974913476382e+01 0.0000000000000000e+00  6.0692477417968339e-03 3.8589014306163484e+01 0.0000000000000000e+00  1.4632134879843363e-02 3.9469927962719829e+01 0.0000000000000000e+00  -6.0870135300611214e-03 4.0231473544374495e+01 0.0000000000000000e+00  -1.7828959732324591e-03 4.0904777023878296e+01 0.0000000000000000e+00  1.2720048831455330e-03 4.1550319160932816e+01 0.0000000000000000e+00  1.5318282993838463e-03 4.2176257998430565e+01 0.0000000000000000e+00  -1.1211783338299652e-02 4.2734892995924788e+01 0.0000000000000000e+00  5.8209210285056626e-04 4.3137324416591305e+01 0.0000000000000000e+00  -3.9118477936168840e-04 4.3637119856728141e+01 0.0000000000000000e+00  4.8105403108300755e-03 4.4037619325452148e+01 0.0000000000000000e+00  -8.9475671206803008e-03 4.4358794393523361e+01 0.0000000000000000e+00  8.7181318383196260e-03 4.4645726253596806e+01 0.0000000000000000e+00  -3.1119005288548322e-03 4.4839583142476265e+01 0.0000000000000000e+00  -7.7863602922255545e-03 4.5005865221408776e+01 0.0000000000000000e+00  1.8900555556705563e-03 4.5093985618552935e+01 0.0000000000000000e+00  1.8260337680585954e-03 4.5130617037916458e+01 0.0000000000000000e+00  8.0311036675906142e-03 4.5090102089340235e+01 0.0000000000000000e+00  -8.9978463076971129e-03 4.5004990615201564e+01 0.0000000000000000e+00  4.0735351386764485e-03 4.4853727296029113e+01 0.0000000000000000e+00  -7.3252583769589930e-03 4.4632878360344961e+01 0.0000000000000000e+00  1.0389593956416402e-02 4.4359908257217050e+01 0.0000000000000000e+00  -9.0630500043909525e-03 4.4000258752703594e+01 0.0000000000000000e+00  1.9874958594062093e-02 4.3673957031518320e+01 0.0000000000000000e+00  2.3340425442717246e-02 4.3135096596016261e+01 0.0000000000000000e+00  1.2970865959785291e-02 4.2747110788841361e+01 0.0000000000000000e+00  4.7611940202167177e-02 4.2110426167153925e+01 0.0000000000000000e+00  -2.2959557868637376e-02 4.1625559802901897e+01 0.0000000000000000e+00  -8.2953685594847580e-03 4.0900570559210628e+01 0.0000000000000000e+00  9.2647938347107505e-03 4.0170376625745938e+01 0.0000000000000000e+00  -2.1082102786685046e-03 3.9457439928204778e+01 0.0000000000000000e+00  -7.0920217132310688e-04 3.8682627152347685e+01 0.0000000000000000e+00  -3.0443156305587108e-03 3.7845442277593527e+01 0.0000000000000000e+00  3.5607922436037983e-03 3.7000888167691720e+01 0.0000000000000000e+00  -1.7276999813769674e-02 3.6101334056790087e+01 0.0000000000000000e+00  3.1546792236274560e-02 3.5178809753566668e+01 0.0000000000000000e+00  -2.2351796291833127e-02 3.4151212192939902e+01 0.0000000000000000e+00  2.4713392974341795e-02 3.3305567345646942e+01 0.0000000000000000e+00  6.5805433085253688e-03 3.2304805591781125e+01 0.0000000000000000e+00  -2.6979787156746687e-02 3.1228125448011838e+01 0.0000000000000000e+00  1.7793140557744898e-02 3.0164862845644532e+01 0.0000000000000000e+00  -2.2365333183536139e-02 2.9112877179217218e+01 0.0000000000000000e+00  1.0795556755969835e-02 2.7970140038849959e+01 0.0000000000000000e+00  -4.7334996225835311e-03 2.6861050907030460e+01 0.0000000000000000e+00  4.5963998905367488e-02 2.5937309822816854e+01 0.