<?xml version="1.0"?>
<VTKFile type="UnstructuredGrid"  version="0.1"  >
<UnstructuredGrid>
<Piece  NumberOfPoints="11902" NumberOfCells="23402">
<Points>
<DataArray  type="Float64"  NumberOfComponents="3"  format="ascii">-5 -5 0  5 -5 0  5 5 0  -5 5 0  1.978428244985365 0.01379494259711613 0  -4.9 -5 0  -4.8 -5 0  -4.7 -5 0  -4.6 -5 0  -4.5 -5 0  -4.4 -5 0  -4.3 -5 0  -4.2 -5 0  -4.1 -5 0  -4 -5 0  -3.9 -5 0  -3.8 -5 0  -3.7 -5 0  -3.6 -5 0  -3.5 -5 0  -3.4 -5 0  -3.3 -5 0  -3.2 -5 0  -3.1 -5 0  -3 -5 0  -2.9 -5 0  -2.8 -5 0  -2.7 -5 0  -2.6 -5 0  -2.5 -5 0  -2.4 -5 0  -2.3 -5 0  -2.2 -5 0  -2.1 -5 0  -2 -5 0  -1.9 -5 0  -1.8 -5 0  -1.7 -5 0  -1.6 -5 0  -1.5 -5 0  -1.4 -5 0  -1.3 -5 0  -1.2 -5 0  -1.1 -5 0  -1 -5 0  -0.9000000000000004 -5 0  -0.7999999999999998 -5 0  -0.7000000000000002 -5 0  -0.5999999999999996 -5 0  -0.5 -5 0  -0.4000000000000004 -5 0  -0.2999999999999998 -5 0  -0.2000000000000002 -5 0  -0.09999999999999964 -5 0  0 -5 0  0.09999999999999964 -5 0  0.2000000000000002 -5 0  0.2999999999999998 -5 0  0.4000000000000004 -5 0  0.5 -5 0  0.5999999999999996 -5 0  0.7000000000000002 -5 0  0.7999999999999998 -5 0  0.9000000000000004 -5 0  1 -5 0  1.1 -5 0  1.2 -5 0  1.3 -5 0  1.4 -5 0  1.5 -5 0  1.6 -5 0  1.7 -5 0  1.8 -5 0  1.9 -5 0  2 -5 0  2.1 -5 0  2.2 -5 0  2.3 -5 0  2.4 -5 0  2.5 -5 0  2.6 -5 0  2.7 -5 0  2.8 -5 0  2.9 -5 0  3 -5 0  3.1 -5 0  3.199999999999999 -5 0  3.300000000000001 -5 0  3.4 -5 0  3.5 -5 0  3.6 -5 0  3.699999999999999 -5 0  3.800000000000001 -5 0  3.9 -5 0  4 -5 0  4.1 -5 0  4.199999999999999 -5 0  4.300000000000001 -5 0  4.4 -5 0  4.5 -5 0  4.6 -5 0  4.699999999999999 -5 0  4.800000000000001 -5 0  4.9 -5 0  5 -4.9 0  5 -4.8 0  5 -4.7 0  5 -4.6 0  5 -4.5 0  5 -4.4 0  5 -4.3 0  5 -4.2 0  5 -4.1 0  5 -4 0  5 -3.9 0  5 -3.8 0  5 -3.7 0  5 -3.6 0  5 -3.5 0  5 -3.4 0  5 -3.3 0  5 -3.2 0  5 -3.1 0  5 -3 0  5 -2.9 0  5 -2.8 0  5 -2.7 0  5 -2.6 0  5 -2.5 0  5 -2.4 0  5 -2.3 0  5 -2.2 0  5 -2.1 0  5 -2 0  5 -1.9 0  5 -1.8 0  5 -1.7 0  5 -1.6 0  5 -1.5 0  5 -1.4 0  5 -1.3 0  5 -1.2 0  5 -1.1 0  5 -1 0  5 -0.9000000000000004 0  5 -0.7999999999999998 0  5 -0.7000000000000002 0  5 -0.5999999999999996 0  5 -0.5 0  5 -0.4000000000000004 0  5 -0.2999999999999998 0  5 -0.2000000000000002 0  5 -0.09999999999999964 0  5 0 0  5 0.09999999999999964 0  5 0.2000000000000002 0  5 0.2999999999999998 0  5 0.4000000000000004 0  5 0.5 0  5 0.5999999999999996 0  5 0.7000000000000002 0  5 0.7999999999999998 0  5 0.9000000000000004 0  5 1 0  5 1.1 0  5 1.2 0  5 1.3 0  5 1.4 0  5 1.5 0  5 1.6 0  5 1.7 0  5 1.8 0  5 1.9 0  5 2 0  5 2.1 0  5 2.2 0  5 2.3 0  5 2.4 0  5 2.5 0  5 2.6 0  5 2.7 0  5 2.8 0  5 2.9 0  5 3 0  5 3.1 0  5 3.199999999999999 0  5 3.300000000000001 0  5 3.4 0  5 3.5 0  5 3.6 0  5 3.699999999999999 0  5 3.800000000000001 0  5 3.9 0  5 4 0  5 4.1 0  5 4.199999999999999 0  5 4.300000000000001 0  5 4.4 0  5 4.5 0  5 4.6 0  5 4.699999999999999 0  5 4.800000000000001 0  5 4.9 0  4.9 5 0  4.8 5 0  4.7 5 0  4.6 5 0  4.5 5 0  4.4 5 0  4.3 5 0  4.2 5 0  4.1 5 0  4 5 0  3.9 5 0  3.8 5 0  3.7 5 0  3.6 5 0  3.5 5 0  3.4 5 0  3.3 5 0  3.2 5 0  3.1 5 0  3 5 0  2.9 5 0  2.8 5 0  2.7 5 0  2.6 5 0  2.5 5 0  2.4 5 0  2.3 5 0  2.2 5 0  2.1 5 0  2 5 0  1.9 5 0  1.8 5 0  1.7 5 0  1.6 5 0  1.5 5 0  1.4 5 0  1.3 5 0  1.2 5 0  1.1 5 0  1 5 0  0.9000000000000004 5 0  0.7999999999999998 5 0  0.7000000000000002 5 0  0.5999999999999996 5 0  0.5 5 0  0.4000000000000004 5 0  0.2999999999999998 5 0  0.2000000000000002 5 0  0.09999999999999964 5 0  0 5 0  -0.09999999999999964 5 0  -0.2000000000000002 5 0  -0.2999999999999998 5 0  -0.4000000000000004 5 0  -0.5 5 0  -0.5999999999999996 5 0  -0.7000000000000002 5 0  -0.7999999999999998 5 0  -0.9000000000000004 5 0  -1 5 0  -1.1 5 0  -1.2 5 0  -1.3 5 0  -1.4 5 0  -1.5 5 0  -1.6 5 0  -1.7 5 0  -1.8 5 0  -1.9 5 0  -2 5 0  -2.1 5 0  -2.2 5 0  -2.3 5 0  -2.4 5 0  -2.5 5 0  -2.6 5 0  -2.7 5 0  -2.8 5 0  -2.9 5 0  -3 5 0  -3.1 5 0  -3.199999999999999 5 0  -3.300000000000001 5 0  -3.4 5 0  -3.5 5 0  -3.6 5 0  -3.699999999999999 5 0  -3.800000000000001 5 0  -3.9 5 0  -4 5 0  -4.1 5 0  -4.199999999999999 5 0  -4.300000000000001 5 0  -4.4 5 0  -4.5 5 0  -4.6 5 0  -4.699999999999999 5 0  -4.800000000000001 5 0  -4.9 5 0  -5 4.9 0  -5 4.8 0  -5 4.7 0  -5 4.6 0  -5 4.5 0  -5 4.4 0  -5 4.3 0  -5 4.2 0  -5 4.1 0  -5 4 0  -5 3.9 0  -5 3.8 0  -5 3.7 0  -5 3.6 0  -5 3.5 0  -5 3.4 0  -5 3.3 0  -5 3.2 0  -5 3.1 0  -5 3 0  -5 2.9 0  -5 2.8 0  -5 2.7 0  -5 2.6 0  -5 2.5 0  -5 2.4 0  -5 2.3 0  -5 2.2 0  -5 2.1 0  -5 2 0  -5 1.9 0  -5 1.8 0  -5 1.7 0  -5 1.6 0  -5 1.5 0  -5 1.4 0  -5 1.3 0  -5 1.2 0  -5 1.1 0  -5 1 0  -5 0.9000000000000004 0  -5 0.7999999999999998 0  -5 0.7000000000000002 0  -5 0.5999999999999996 0  -5 0.5 0  -5 0.4000000000000004 0  -5 0.2999999999999998 0  -5 0.2000000000000002 0  -5 0.09999999999999964 0  -5 0 0  -5 -0.09999999999999964 0  -5 -0.2000000000000002 0  -5 -0.2999999999999998 0  -5 -0.4000000000000004 0  -5 -0.5 0  -5 -0.5999999999999996 0  -5 -0.7000000000000002 0  -5 -0.7999999999999998 0  -5 -0.9000000000000004 0  -5 -1 0  -5 -1.1 0  -5 -1.2 0  -5 -1.3 0  -5 -1.4 0  -5 -1.5 0  -5 -1.6 0  -5 -1.7 0  -5 -1.8 0  -5 -1.9 0  -5 -2 0  -5 -2.1 0  -5 -2.2 0  -5 -2.3 0  -5 -2.4 0  -5 -2.5 0  -5 -2.6 0  -5 -2.7 0  -5 -2.8 0  -5 -2.9 0  -5 -3 0  -5 -3.1 0  -5 -3.199999999999999 0  -5 -3.300000000000001 0  -5 -3.4 0  -5 -3.5 0  -5 -3.6 0  -5 -3.699999999999999 0  -5 -3.800000000000001 0  -5 -3.9 0  -5 -4 0  -5 -4.1 0  -5 -4.199999999999999 0  -5 -4.300000000000001 0  -5 -4.4 0  -5 -4.5 0  -5 -4.6 0  -5 -4.699999999999999 0  -5 -4.800000000000001 0  -5 -4.9 0  2.202950403106598 0.235394314636416 0  1.931093456586907 0.3740842951234889 0  2.170829849903655 0.6379402130300228 0  1.756391078867298 0.6779881867171635 0  1.725169338324308 0.9025173020539013 0  1.514378188909252 0.9902124934488279 0  1.448979875023234 1.179518676572935 0  1.189436914173991 1.110893709954883 0  1.104045865091742 1.316756030334607 0  0.9410604699170636 1.420892829090778 0  0.7721173877570757 1.434177987713374 0  0.6294933182969775 1.482783239133127 0  0.4514107490154531 1.56320132417394 0  0.2893168909233216 1.586496369322377 0  0.1307817971508486 1.629195635335446 0  -0.02108106382594966 1.619737910349258 0  -0.2247837108378605 1.586233814419583 0  -0.3877281760147859 1.587125258845727 0  -0.5343241963930969 1.536047177890881 0  -0.6909701983440605 1.45812815332308 0  -0.8648048719947646 1.432922460249486 0  -1.008535795836112 1.321015760741656 0  -1.165137850299397 1.232223831199651 0  -1.40256539064239 1.24017087701243 0  -1.33315287471461 0.9607402716105569 0  -1.62637964133127 0.9692632635885456 0  -1.827392482082083 0.8549443450218082 0  -1.817309867642715 0.6549131569115227 0  -2.017211672302232 0.5178701997211864 0  -2.093157260943615 0.2950325926895828 0  -2.138964808999152 0.08573303472281399 0  -1.917976928060827 -0.1360654553876527 0  -2.296475538472699 -0.3572981319952939 0  -1.935022389347854 -0.4388991691407726 0  -1.823843224846649 -0.6467637576015414 0  -1.86271891402471 -0.8670835945473443 0  -1.513448539244764 -0.8641794152341877 0  -1.499624111645832 -1.073351497493588 0  -1.347911791564997 -1.194642680195536 0  -1.150711538305483 -1.21831236142973 0  -1.014560940943953 -1.347912207397689 0  -0.856668606265042 -1.449682261822632 0  -0.6946809898996847 -1.488257171391329 0  -0.5271670432371217 -1.528368119308554 0  -0.3765652073213172 -1.600545276083866 0  -0.2098644168927238 -1.595216035609581 0  -0.04620854273783052 -1.620755571347465 0  0.1380882070979189 -1.613905999282266 0  0.2885329536550673 -1.606178263233156 0  0.4608794201206263 -1.572183960774497 0  0.6147407514630089 -1.516079413689192 0  0.7705260429822011 -1.415913939282079 0  0.9468134892200856 -1.421776288594044 0  1.10316971691554 -1.305928293522349 0  1.270382047790028 -1.25303645280642 0  1.387398730537815 -1.112953614769369 0  1.520309197256227 -0.9792906880420951 0  1.726797611325473 -0.8938166998771684 0  1.827610608482712 -0.748923888806355 0  1.905846920525628 -0.5580204039763255 0  2.106448826601421 -0.4144917793054574 0  2.098949377048686 -0.2049835510375396 0  -2.44980122931313 4.920143583596341 0  -2.449768243789407 -4.912701512880127 0  4.911583627330153 2.448617397673281 0  4.919606441091577 -2.449947027812576 0  2.447692715096267 -4.898298503199268 0  2.442079344274378 4.902029403965943 0  -4.911616059975587 -2.448628161587467 0  -4.911655638331117 2.448633363294817 0  -1.74999725084094 4.914119518416198 0  -1.745703984299291 -4.917414751566881 0  4.921486194463509 1.74435116499033 0  4.910129036238332 -1.748276522565246 0  -4.910445507424209 -1.747965516083587 0  -4.911297863761163 1.74770585373986 0  1.747371811041569 4.908184889777141 0  1.748946090913342 -4.896707801144078 0  -1.150121512478178 4.91278562314887 0  -1.130852632019275 -4.920281690218124 0  -4.909753658125557 -1.147984554334337 0  -4.909598325067641 1.147776567790968 0  1.14502352300938 -4.916656713936435 0  1.150128780565187 4.912752481068424 0  4.909888023193225 1.146259191282887 0  4.920639595834112 -1.151930928262777 0  -0.5473644570428684 -4.914420138030281 0  -0.5470785783272708 4.922741933060824 0  -4.908002668078364 -0.5486393247255346 0  -4.908041375368578 0.5471760903098959 0  4.90725557452767 -0.5489607655854151 0  4.918930097255981 0.5456610351496309 0  0.543254569384384 -4.901932217089255 0  0.5518321598279075 4.919718620270847 0  -4.912924082951982 -3.049037489499649 0  4.919432501411613 3.046982913145976 0  4.912439864221704 -3.049026791210492 0  -4.913792871281583 3.046116739011392 0  3.056260644720528 -4.918845377798815 0  -3.049639134437427 -4.912803941198931 0  3.053192959757267 4.914910867767012 0  -3.049115701194167 4.913748753141634 0  -4.906907598159586 -0.04990530367944827 0  0.04517622953519704 -4.916457857881983 0  0.04962369472405845 4.92317607636781 0  4.91393306551927 -0.05129232168360626 0  3.546287683512151 -4.919998761857317 0  -3.549641864783036 4.913024927185268 0  -3.549612537042684 -4.913037221736252
[...]
<PointData  Vectors="f_4102"> 
<DataArray  type="Float64"  Name="f_4102"  NumberOfComponents="3" format="ascii">-1.4815877042337081e-01 -1.7288380932769418e-01 0.0000000000000000e+00  1.6135965500788518e-01 -1.3650773113940748e-01 0.0000000000000000e+00  9.4257352987495796e-02 1.1010304260224377e-01 0.0000000000000000e+00  -1.5606026229731063e-01 1.7818926954858721e-01 0.0000000000000000e+00  1.1103687104214984e+01 -1.9437526309664537e+00 0.0000000000000000e+00  5.7041921957030416e-02 -1.3092336387899655e+00 0.0000000000000000e+00  4.7979712558258669e-02 -2.1254382420908242e+00 0.0000000000000000e+00  5.0858521349905490e-02 -3.5081774690756857e+00 0.0000000000000000e+00  3.8864631355637072e-02 -4.3366586485771625e+00 0.0000000000000000e+00  -9.5010512032135966e-02 -5.6339420422570141e+00 0.0000000000000000e+00  1.9331266525095238e-02 -6.9202339440411844e+00 0.0000000000000000e+00  3.3744067024820926e-02 -7.8901119858195798e+00 0.0000000000000000e+00  -1.5713076360361067e-02 -9.0749052200986053e+00 0.0000000000000000e+00  5.9001060956254403e-02 -9.9999083012777881e+00 0.0000000000000000e+00  5.9886115900390599e-02 -1.1348225991248391e+01 0.0000000000000000e+00  -9.1899899192928024e-03 -1.2249143618496802e+01 0.0000000000000000e+00  -1.6215047566373625e-02 -1.3432378731113721e+01 0.0000000000000000e+00  7.3142078616159250e-03 -1.4584498004170889e+01 0.0000000000000000e+00  4.9981139189522773e-03 -1.5672445848669899e+01 0.0000000000000000e+00  -6.0839462585508298e-03 -1.6778367922000374e+01 0.0000000000000000e+00  3.9607799844978715e-03 -1.7929326377080223e+01 0.0000000000000000e+00  2.3637090989175328e-02 -1.9040344488539635e+01 0.0000000000000000e+00  -3.2876380838985815e-03 -1.9922116104734702e+01 0.0000000000000000e+00  -7.6920896723446834e-03 -2.1138715613465635e+01 0.0000000000000000e+00  -3.0323743615582526e-02 -2.2355142519764897e+01 0.0000000000000000e+00  7.9305145435037444e-02 -2.3211697029002110e+01 0.0000000000000000e+00  3.5539769614438686e-02 -2.4450216295176912e+01 0.0000000000000000e+00  4.2432127651894691e-02 -2.5254644962734400e+01 0.0000000000000000e+00  7.0368447407798004e-02 -2.6442946540191663e+01 0.0000000000000000e+00  -3.3011009999634466e-02 -2.7276716604646097e+01 0.0000000000000000e+00  -1.1117924915505699e-02 -2.8419299419063261e+01 0.0000000000000000e+00  -4.0932187147601322e-03 -2.9484941440802782e+01 0.0000000000000000e+00  5.1749260109823551e-02 -3.0237633032511511e+01 0.0000000000000000e+00  3.7580051610800663e-02 -3.1382538172169230e+01 0.0000000000000000e+00  3.7523401339303014e-02 -3.2060701681987439e+01 0.0000000000000000e+00  -8.4286721859509986e-02 -3.3094856889581401e+01 0.0000000000000000e+00  3.6554530816460915e-02 -3.4066338350563036e+01 0.0000000000000000e+00  5.7184210230146245e-03 -3.4769397316149977e+01 0.0000000000000000e+00  -1.1905955098802418e-03 -3.5558619819709314e+01 0.0000000000000000e+00  -1.3712558188731854e-03 -3.6315652433455803e+01 0.0000000000000000e+00  6.3407232933285294e-03 -3.7038268636884069e+01 0.0000000000000000e+00  -3.6549507276697958e-02 -3.7787583191394184e+01 0.0000000000000000e+00  4.4558043179482851e-02 -3.8353843534136942e+01 0.0000000000000000e+00  2.3952849078378892e-02 -3.8940218290924676e+01 0.0000000000000000e+00  1.8222419276457850e-02 -3.9539733800631033e+01 0.0000000000000000e+00  -1.0238022892773353e-02 -4.0058075443271449e+01 0.0000000000000000e+00  4.3118564399651053e-02 -4.0411622833994429e+01 0.0000000000000000e+00  -3.1776217659712100e-02 -4.0892642218957711e+01 0.0000000000000000e+00  1.7623289214209657e-02 -4.1288970272650943e+01 0.0000000000000000e+00  -3.7820459386088030e-03 -4.1533168338250661e+01 0.0000000000000000e+00  1.2903793477425046e-03 -4.1791406532532747e+01 0.0000000000000000e+00  -9.0914655909480940e-04 -4.1983718882159479e+01 0.0000000000000000e+00  4.2040372409961346e-04 -4.2121242872689237e+01 0.0000000000000000e+00  2.3342168297285878e-04 -4.2202229365584422e+01 0.0000000000000000e+00  1.8516938464765130e-03 -4.2227326532496484e+01 0.0000000000000000e+00  6.1082938988081450e-04 -4.2207305560683338e+01 0.0000000000000000e+00  8.3339720637644159e-03 -4.2111058488541730e+01 0.0000000000000000e+00  -1.1352387288848024e-02 -4.1935024631441074e+01 0.0000000000000000e+00  -5.6085105014896837e-03 -4.1782718112077845e+01 0.0000000000000000e+00  -2.1815138078723290e-02 -4.1472086482825198e+01 0.0000000000000000e+00  7.1012683496650096e-03 -4.1219435114074400e+01 0.0000000000000000e+00  6.1086213223587732e-03 -4.0838859756857488e+01 0.0000000000000000e+00  -4.4632298731309659e-03 -4.0407460798318262e+01 0.0000000000000000e+00  -9.1356098993840447e-04 -3.9956858590534644e+01 0.0000000000000000e+00  5.4654050707164982e-03 -3.9438881505923348e+01 0.0000000000000000e+00  -1.2222050672526220e-02 -3.8878312246149989e+01 0.0000000000000000e+00  -7.7443853222144603e-03 -3.8253640193340992e+01 0.0000000000000000e+00  8.4883793221920915e-03 -3.7690256503234018e+01 0.0000000000000000e+00  -2.0182092509786000e-02 -3.6942169769304734e+01 0.0000000000000000e+00  2.3329820603237652e-02 -3.6209369799499754e+01 0.0000000000000000e+00  -2.9580814841308846e-02 -3.5455439931862564e+01 0.0000000000000000e+00  5.3892194349373871e-03 -3.4617216473717114e+01 0.0000000000000000e+00  1.4613441898991397e-02 -3.3860192872479459e+01 0.0000000000000000e+00  -2.1311858009900028e-02 -3.2965870096803336e+01 0.0000000000000000e+00  1.5051390902183574e-02 -3.2057667123202435e+01 0.0000000000000000e+00  -1.1255867499954829e-02 -3.1139690255156360e+01 0.0000000000000000e+00  4.8876159457435994e-03 -3.0219160572344670e+01 0.0000000000000000e+00  -2.0307991532309926e-02 -2.9272954776530174e+01 0.0000000000000000e+00  -6.6056954946313619e-03 -2.8244116175583844e+01 0.0000000000000000e+00  9.2392093946931878e-03 -2.7388051616645399e+01 0.0000000000000000e+00  1.7180923841074085e-03 -2.6308220657765453e+01 0.0000000000000000e+00  8.2808366651628915e-03 -2.5260107035208321e+01 0.0000000000000000e+00  -2.9599997353575134e-02 -2.4237657238194423e+01 0.0000000000000000e+00  -1.0786776116846575e-02 -2.3085878815310885e+01 0.0000000000000000e+00  1.9059004273660845e-02 -2.2142270128121364e+01 0.0000000000000000e+00  -2.9038585985510273e-02 -2.0989178765640755e+01 0.0000000000000000e+00  1.4963921726260784e-03 -1.9963880302719332e+01 0.0000000000000000e+00  1.1203613016771159e-02 -1.8915095600675432e+01 0.0000000000000000e+00  1.2253972411286396e-02 -1.7756744960246074e+01 0.0000000000000000e+00  -3.4410337469899605e-02 -1.6701014073752241e+01 0.0000000000000000e+00  6.8118838678647379e-03 -1.5528104715687407e+01 0.0000000000000000e+00  7.6213736950136949e-03 -1.4535941448454993e+01 0.0000000000000000e+00  -2.7332007194879354e-02 -1.3342346496421078e+01 0.0000000000000000e+00  -5.6178981964933282e-04 -1.2285502079464296e+01 0.0000000000000000e+00  1.5024020857955563e-02 -1.1146062103155401e+01 0.0000000000000000e+00  -8.4338551482684900e-04 -1.0017526128766297e+01 0.0000000000000000e+00  -1.4830422745302064e-02 -8.9285734554790537e+00 0.0000000000000000e+00  -1.1322555496582048e-02 -7.7683465074616365e+00 0.0000000000000000e+00  2.1958805223023990e-02 -6.7775901424116585e+00 0.0000000000000000e+00  -3.3524931220058438e-02 -5.5764787470731099e+00 0.0000000000000000e+00  8.0399171711945296e-03 -4.4865282140814218e+00 0.0000000000000000e+00  1.8392058678579144e-02 -3.3404024348579431e+00 0.0000000000000000e+00  -2.8790114879408954e-02 -2.2181555672686462e+00 0.0000000000000000e+00  -3.5432352555976897e-02 -1.2839650404697633e+00 0.0000000000000000e+00  1.3362347149521907e+00 3.2114309485696255e-02 0.0000000000000000e+00  2.1441218635734538e+00 8.1860795201384978e-02 0.0000000000000000e+00  3.4506124598783274e+00 5.9932870989218796e-02 0.0000000000000000e+00  4.4100855171441742e+00 -1.8329789800642975e-02 0.0000000000000000e+00  5.6041102518767527e+00 8.6417047812548716e-03 0.0000000000000000e+00  6.7038098700251458e+00 -6.1990213450566958e-03 0.0000000000000000e+00  7.8188636709156949e+00 1.2238292309071977e-03 0.0000000000000000e+00  8.9386972427307239e+00 -1.8259314638587746e-03 0.0000000000000000e+00  1.0050406864289528e+01 5.3673189066241441e-04 0.0000000000000000e+00  1.1187031647418467e+01 -3.3576299401315724e-04 0.0000000000000000e+00  1.2287782149777385e+01 -3.7028865480719229e-05 0.0000000000000000e+00  1.3416953188201175e+01 3.8160466708905142e-03 0.0000000000000000e+00  1.4498237617885835e+01 1.5708583446020824e-03 0.0000000000000000e+00  1.5654150706979264e+01 -7.5145913137611006e-03 0.0000000000000000e+00  1.6739328077766299e+01 3.8109777933625954e-03 0.0000000000000000e+00  1.7886878366090382e+01 3.2154976420460269e-03 0.0000000000000000e+00  1.8961729797083645e+01 -3.2173718065373730e-03 0.0000000000000000e+00  2.0048856068826030e+01 7.5051096261297750e-03 0.0000000000000000e+00  2.1185815055763367e+01 -7.3784550959297372e-03 0.0000000000000000e+00  2.2245344592003985e+01 -4.9821795602824522e-03 0.0000000000000000e+00  2.3355997475029604e+01 1.0229822201256553e-02 0.0000000000000000e+00  2.4443478409143548e+01 -1.1018483406380158e-02 0.0000000000000000e+00  2.5452358873941240e+01 7.9247661532325028e-03 0.0000000000000000e+00  2.6530042895380717e+01 1.8718233140721375e-03 0.0000000000000000e+00  2.7594459140343979e+01 4.7585261407918607e-03 0.0000000000000000e+00  2.8638600046757485e+01 -2.8697288586692358e-03 0.0000000000000000e+00  2.9646354246020874e+01 -2.0386115038333583e-03 0.0000000000000000e+00  3.0627549019551097e+01 -1.5180110821864602e-03 0.0000000000000000e+00  3.1602320002281459e+01 1.0659795461542930e-04 0.0000000000000000e+00  3.2555317033601128e+01 -3.7249946722066747e-04 0.0000000000000000e+00  3.3484487196745285e+01 2.2709063516319054e-04 0.0000000000000000e+00  3.4386162765279003e+01 -2.2702050733363422e-03 0.0000000000000000e+00  3.5249748000071065e+01 -9.2999182470284195e-04 0.0000000000000000e+00  3.6105652314778304e+01 4.3616443630367747e-03 0.0000000000000000e+00  3.6927098571807115e+01 -6.9051996034289239e-03 0.0000000000000000e+00  3.7661122991242777e+01 7.0278285812712098e-03 0.0000000000000000e+00  3.8405200019557235e+01 -6.9337187557899638e-04 0.0000000000000000e+00  3.9092473779743457e+01 8.0606444399754125e-03 0.0000000000000000e+00  3.9728520663346728e+01 1.0384253231688345e-02 0.0000000000000000e+00  4.0364561208694901e+01 -3.1089455959397026e-02 0.0000000000000000e+00  4.0961896607503142e+01 2.2753887037392319e-02 0.0000000000000000e+00  4.1415016682158296e+01 -9.8356890979998200e-03 0.0000000000000000e+00  4.1883632353038472e+01 1.3425477469511981e-03 0.0000000000000000e+00  4.2283015690924948e+01 -3.1450158871363402e-03 0.0000000000000000e+00  4.2607032130019270e+01 6.7449636743864040e-03 0.0000000000000000e+00  4.2890154820134654e+01 -1.1655362668381648e-03 0.0000000000000000e+00  4.3122094607934471e+01 5.3064145650226382e-04 0.0000000000000000e+00  4.3289505355823991e+01 -7.6322426032852920e-04 0.0000000000000000e+00  4.3394611362017756e+01 -2.7617089120817378e-04 0.0000000000000000e+00  4.3435105284617663e+01 5.7506048657301307e-04 0.0000000000000000e+00  4.3416441053121083e+01 7.0185448562956837e-04 0.0000000000000000e+00  4.3338630407392635e+01 -1.6092936317211883e-03 0.0000000000000000e+00  4.3193730952843055e+01 1.7347862591092834e-03 0.0000000000000000e+00  4.2988458712576012e+01 1.8980983931115317e-04 0.0000000000000000e+00  4.2733098958767329e+01 -3.1589635156570638e-03 0.0000000000000000e+00  4.2406770607185081e+01 3.6966965277190965e-03 0.0000000000000000e+00  4.2020989903535600e+01 -1.2018558852811745e-04 0.0000000000000000e+00  4.1590791763880176e+01 -4.3751846704107216e-03 0.0000000000000000e+00  4.1087144373330517e+01 9.5675150778607181e-04 0.0000000000000000e+00  4.0555380572735494e+01 2.2780285029169929e-03 0.0000000000000000e+00  3.9963543300485966e+01 -2.9632135318865354e-03 0.0000000000000000e+00  3.9347336599654497e+01 7.7648109688577204e-05 0.0000000000000000e+00  3.8648384398454176e+01 2.0981440649679942e-03 0.0000000000000000e+00  3.7926525549253370e+01 -1.9172799379907487e-03 0.0000000000000000e+00  3.7178833151015326e+01 6.9755928170745505e-03 0.0000000000000000e+00  3.6347732178201817e+01 -5.1807487236775300e-03 0.0000000000000000e+00  3.5529934044000868e+01 -6.9138180141097086e-03 0.0000000000000000e+00  3.4647113615176274e+01 8.9074117240378840e-03 0.0000000000000000e+00  3.3723278563308014e+01 -2.4389260218897575e-03 0.0000000000000000e+00  3.2801827792030707e+01 -4.6203049023864021e-03 0.0000000000000000e+00  3.1839891757681894e+01 3.8812712346492167e-03 0.0000000000000000e+00  3.0863691726182438e+01 3.4783483848750646e-03 0.0000000000000000e+00  2.9858009085252533e+01 -8.1860324367080911e-04 0.0000000000000000e+00  2.8846096173037321e+01 -2.0332253881587226e-05 0.0000000000000000e+00  2.7813726929011530e+01 2.1159711045880725e-03 0.0000000000000000e+00  2.6760573954511415e+01 -1.3262345316634801e-03 0.0000000000000000e+00  2.5721627100873700e+01 -2.1498490326066965e-03 0.0000000000000000e+00  2.4665271260086264e+01 6.4951898651938655e-03 0.0000000000000000e+00  2.3543768075271100e+01 -8.8814124967595293e-03 0.0000000000000000e+00  2.2449723166488344e+01 -9.3435163522204330e-04 0.0000000000000000e+00  2.1351737825039081e+01 -9.8100859509250892e-04 0.0000000000000000e+00  2.0282674716349067e+01 -3.5938027780293828e-04 0.0000000000000000e+00  1.9172301744926685e+01 9.1006916025660901e-03 0.0000000000000000e+00  1.8016092403298270e+01 -7.9607102926069501e-03 0.0000000000000000e+00  1.6896712664973556e+01 -1.0274014889250884e-03 0.0000000000000000e+00  1.5773202212356134e+01 5.6505194294536882e-04 0.0000000000000000e+00  1.4625176555966021e+01 3.8566938960352616e-03 0.0000000000000000e+00  1.3531328477712963e+01 1.6656495349609316e-03 0.0000000000000000e+00  1.2387029622530145e+01 -2.4685469123811956e-03 0.0000000000000000e+00  1.1271468416753963e+01 1.0732993178762999e-03 0.0000000000000000e+00  1.0144620117760441e+01 3.8259879094994049e-03 0.0000000000000000e+00  9.0399009125516141e+00 -1.4138137612563207e-03 0.0000000000000000e+00  7.8892945589219616e+00 -3.4601648183158920e-03 0.0000000000000000e+00  6.7617815614731924e+00 6.4891799637754599e-03 0.0000000000000000e+00  5.6543897093769697e+00 -1.1233182639676651e-02 0.0000000000000000e+00  4.5544796447418738e+00 -4.7585539525365587e-03 0.0000000000000000e+00  3.4166817291016902e+00 1.5535193669947786e-02 0.0000000000000000e+00  2.2426079788117828e+00 2.9836450416660242e-04 0.0000000000000000e+00  1.2187929137074096e+00 -4.0731202946740326e-02 0.0000000000000000e+00  -6.5530973636824225e-02 1.2585093501916886e+00 0.0000000000000000e+00  1.6407867506712318e-02 2.1855527402982284e+00 0.0000000000000000e+00  -2.7758562369683892e-02 3.3662417451221196e+00 0.0000000000000000e+00  -2.1783852374999066e-02 4.3297713700033240e+00 0.0000000000000000e+00  9.4521243893097032e-02 5.6285503835455497e+00 0.0000000000000000e+00  -2.3393127562754155e-02 6.9429847600419974e+00 0.0000000000000000e+00  -6.7618723383911949e-02 7.7643881784682831e+00 0.0000000000000000e+00  -9.6367377547996527e-02 9.0871081802692864e+00 0.0000000000000000e+00  2.7429982090804293e-02 1.0007666416304856e+01 0.0000000000000000e+00  3.0030865667622877e-02 1.1250841357440473e+01 0.0000000000000000e+00  -2.7851242808782373e-02 1.2378884126217658e+01 0.0000000000000000e+00  2.0052529518678929e-02 1.3459681496431219e+01 0.0000000000000000e+00  4.8729217801655820e-03 1.4679910766387659e+01 0.0000000000000000e+00  -3.9123623724576497e-03 1.5640392587435549e+01 0.0000000000000000e+00  -1.2886852977225631e-02 1.6823832508844518e+01 0.0000000000000000e+00  -5.5167105971360804e-03 1.7889080478658173e+01 0.0000000000000000e+00  1.5300769802885165e-02 1.9030232496560345e+01 0.0000000000000000e+00  -4.9775528197886412e-03 2.0160744890240828e+01 0.0000000000000000e+00  -1.1534875609664741e-02 2.1211620916908629e+01 0.0000000000000000e+00  -2.8724341217732374e-03 2.2353677665243136e+01 0.0000000000000000e+00  -1.1185322649684184e-02 2.3250683675302302e+01 0.0000000000000000e+00  2.4682650983608365e-02 2.4437000338925014e+01 0.0000000000000000e+00  -2.0615855703234442e-02 2.5453193776578150e+01 0.0000000000000000e+00  2.4363559712571200e-02 2.6492900961504088e+01 0.0000000000000000e+00  8.1908901071873399e-03 2.7588007582641907e+01 0.0000000000000000e+00  -5.6761295054596747e-02 2.8393818363653075e+01 0.0000000000000000e+00  -4.7121429816858365e-02 2.9576476776921591e+01 0.0000000000000000e+00  9.7007963669529605e-03 3.0367493057841287e+01 0.0000000000000000e+00  -3.0428561570305261e-02 3.1361917201585843e+01 0.0000000000000000e+00  -1.5175208601601433e-02 3.2152600873206566e+01 0.0000000000000000e+00  7.4702028746490887e-02 3.3169606598786487e+01 0.0000000000000000e+00  -2.6200937779014385e-02 3.4166145156006507e+01 0.0000000000000000e+00  -3.9736419850092582e-02 3.4791604858599520e+01 0.0000000000000000e+00  -4.3402607321636200e-02 3.5748741737927425e+01 0.0000000000000000e+00  5.6693576488745130e-03 3.6343870071943641e+01 0.0000000000000000e+00  1.3566677647260451e-02 3.7163453484761185e+01 0.0000000000000000e+00  -5.6379451514988214e-03 3.7871471873354501e+01 0.0000000000000000e+00  -1.6494525958442128e-03 3.8497016456876842e+01 0.0000000000000000e+00  1.1828150490466567e-03 3.9096443663966454e+01 0.0000000000000000e+00  1.4207935594774195e-03 3.9677282040493445e+01 0.0000000000000000e+00  -1.0404760216987713e-02 4.0195365704123965e+01 0.0000000000000000e+00  5.6922269569160977e-04 4.0568545114142495e+01 0.0000000000000000e+00  -3.9648825826694805e-04 4.1031719895973467e+01 0.0000000000000000e+00  4.4637834545932569e-03 4.1402681006231674e+01 0.0000000000000000e+00  -8.2781133772570330e-03 4.1700179317941348e+01 0.0000000000000000e+00  8.0457332085807510e-03 4.1965910186982633e+01 0.0000000000000000e+00  -2.8590925621035531e-03 4.2145468593886811e+01 0.0000000000000000e+00  -7.1993964648937652e-03 4.2299559374964382e+01 0.0000000000000000e+00  1.7540619424122798e-03 4.2381346784519415e+01 0.0000000000000000e+00  1.6769424197266593e-03 4.2415551053479120e+01 0.0000000000000000e+00  7.4033182877435893e-03 4.2378472524091713e+01 0.0000000000000000e+00  -8.2928777255746339e-03 4.2300106191945915e+01 0.0000000000000000e+00  3.7403834078538665e-03 4.2160617291491818e+01 0.0000000000000000e+00  -6.7434736061737334e-03 4.1956769801469122e+01 0.0000000000000000e+00  9.5808352780474247e-03 4.1704677175772296e+01 0.0000000000000000e+00  -8.3635428817578628e-03 4.1372248211613240e+01 0.0000000000000000e+00  1.8383672787908541e-02 4.1070540512680367e+01 0.0000000000000000e+00  2.1544225153205969e-02 4.0571939169014605e+01 0.0000000000000000e+00  1.2064379795748566e-02 4.0212815662295583e+01 0.0000000000000000e+00  4.4053186939671800e-02 3.9622878906549673e+01 0.0000000000000000e+00  -2.1295165233649740e-02 3.9173431813597020e+01 0.0000000000000000e+00  -7.6738782745238180e-03 3.8500892017106374e+01 0.0000000000000000e+00  8.5964551616208602e-03 3.7823080443385507e+01 0.0000000000000000e+00  -1.9441775149798533e-03 3.7160627799266365e+01 0.0000000000000000e+00  -6.5878624205475294e-04 3.6440192076742342e+01 0.0000000000000000e+00  -2.8248857528920110e-03 3.5661144978355892e+01 0.0000000000000000e+00  3.3020413248251931e-03 3.4874590319706073e+01 0.0000000000000000e+00  -1.6103085170309211e-02 3.4036061751240780e+01 0.0000000000000000e+00  2.9495893149861702e-02 3.3175505655833739e+01 0.0000000000000000e+00  -2.0843941680698714e-02 3.2215705598017244e+01 0.0000000000000000e+00  2.3100953622515047e-02 3.1425487431175345e+01 0.0000000000000000e+00  6.1184950815779864e-03 3.0489627996625416e+01 0.0000000000000000e+00  -2.5251232999414629e-02 2.9481748628764898e+01 0.0000000000000000e+00  1.6651763893042928e-02 2.8485698805764464e+01 0.0000000000000000e+00  -2.0948077385360402e-02 2.7499239684439953e+01 0.0000000000000000e+00  1.0174443250158585e-02 2.6426990676315214e+01 0.0000000000000000e+00  -4.4533668074191813e-03 2.5385325780482066e+01 0.0000000000000000e+00  4.3232005647010970e-02 2.4517190360106042e+01 0.