<?xml version="1.0"?>
<VTKFile type="UnstructuredGrid"  version="0.1"  >
<UnstructuredGrid>
<Piece  NumberOfPoints="11902" NumberOfCells="23402">
<Points>
<DataArray  type="Float64"  NumberOfComponents="3"  format="ascii">-5 -5 0  5 -5 0  5 5 0  -5 5 0  1.924968963197645 0.01248306140279396 0  -4.9 -5 0  -4.8 -5 0  -4.7 -5 0  -4.6 -5 0  -4.5 -5 0  -4.4 -5 0  -4.3 -5 0  -4.2 -5 0  -4.1 -5 0  -4 -5 0  -3.9 -5 0  -3.8 -5 0  -3.7 -5 0  -3.6 -5 0  -3.5 -5 0  -3.4 -5 0  -3.3 -5 0  -3.2 -5 0  -3.1 -5 0  -3 -5 0  -2.9 -5 0  -2.8 -5 0  -2.7 -5 0  -2.6 -5 0  -2.5 -5 0  -2.4 -5 0  -2.3 -5 0  -2.2 -5 0  -2.1 -5 0  -2 -5 0  -1.9 -5 0  -1.8 -5 0  -1.7 -5 0  -1.6 -5 0  -1.5 -5 0  -1.4 -5 0  -1.3 -5 0  -1.2 -5 0  -1.1 -5 0  -1 -5 0  -0.9000000000000004 -5 0  -0.7999999999999998 -5 0  -0.7000000000000002 -5 0  -0.5999999999999996 -5 0  -0.5 -5 0  -0.4000000000000004 -5 0  -0.2999999999999998 -5 0  -0.2000000000000002 -5 0  -0.09999999999999964 -5 0  0 -5 0  0.09999999999999964 -5 0  0.2000000000000002 -5 0  0.2999999999999998 -5 0  0.4000000000000004 -5 0  0.5 -5 0  0.5999999999999996 -5 0  0.7000000000000002 -5 0  0.7999999999999998 -5 0  0.9000000000000004 -5 0  1 -5 0  1.1 -5 0  1.2 -5 0  1.3 -5 0  1.4 -5 0  1.5 -5 0  1.6 -5 0  1.7 -5 0  1.8 -5 0  1.9 -5 0  2 -5 0  2.1 -5 0  2.2 -5 0  2.3 -5 0  2.4 -5 0  2.5 -5 0  2.6 -5 0  2.7 -5 0  2.8 -5 0  2.9 -5 0  3 -5 0  3.1 -5 0  3.199999999999999 -5 0  3.300000000000001 -5 0  3.4 -5 0  3.5 -5 0  3.6 -5 0  3.699999999999999 -5 0  3.800000000000001 -5 0  3.9 -5 0  4 -5 0  4.1 -5 0  4.199999999999999 -5 0  4.300000000000001 -5 0  4.4 -5 0  4.5 -5 0  4.6 -5 0  4.699999999999999 -5 0  4.800000000000001 -5 0  4.9 -5 0  5 -4.9 0  5 -4.8 0  5 -4.7 0  5 -4.6 0  5 -4.5 0  5 -4.4 0  5 -4.3 0  5 -4.2 0  5 -4.1 0  5 -4 0  5 -3.9 0  5 -3.8 0  5 -3.7 0  5 -3.6 0  5 -3.5 0  5 -3.4 0  5 -3.3 0  5 -3.2 0  5 -3.1 0  5 -3 0  5 -2.9 0  5 -2.8 0  5 -2.7 0  5 -2.6 0  5 -2.5 0  5 -2.4 0  5 -2.3 0  5 -2.2 0  5 -2.1 0  5 -2 0  5 -1.9 0  5 -1.8 0  5 -1.7 0  5 -1.6 0  5 -1.5 0  5 -1.4 0  5 -1.3 0  5 -1.2 0  5 -1.1 0  5 -1 0  5 -0.9000000000000004 0  5 -0.7999999999999998 0  5 -0.7000000000000002 0  5 -0.5999999999999996 0  5 -0.5 0  5 -0.4000000000000004 0  5 -0.2999999999999998 0  5 -0.2000000000000002 0  5 -0.09999999999999964 0  5 0 0  5 0.09999999999999964 0  5 0.2000000000000002 0  5 0.2999999999999998 0  5 0.4000000000000004 0  5 0.5 0  5 0.5999999999999996 0  5 0.7000000000000002 0  5 0.7999999999999998 0  5 0.9000000000000004 0  5 1 0  5 1.1 0  5 1.2 0  5 1.3 0  5 1.4 0  5 1.5 0  5 1.6 0  5 1.7 0  5 1.8 0  5 1.9 0  5 2 0  5 2.1 0  5 2.2 0  5 2.3 0  5 2.4 0  5 2.5 0  5 2.6 0  5 2.7 0  5 2.8 0  5 2.9 0  5 3 0  5 3.1 0  5 3.199999999999999 0  5 3.300000000000001 0  5 3.4 0  5 3.5 0  5 3.6 0  5 3.699999999999999 0  5 3.800000000000001 0  5 3.9 0  5 4 0  5 4.1 0  5 4.199999999999999 0  5 4.300000000000001 0  5 4.4 0  5 4.5 0  5 4.6 0  5 4.699999999999999 0  5 4.800000000000001 0  5 4.9 0  4.9 5 0  4.8 5 0  4.7 5 0  4.6 5 0  4.5 5 0  4.4 5 0  4.3 5 0  4.2 5 0  4.1 5 0  4 5 0  3.9 5 0  3.8 5 0  3.7 5 0  3.6 5 0  3.5 5 0  3.4 5 0  3.3 5 0  3.2 5 0  3.1 5 0  3 5 0  2.9 5 0  2.8 5 0  2.7 5 0  2.6 5 0  2.5 5 0  2.4 5 0  2.3 5 0  2.2 5 0  2.1 5 0  2 5 0  1.9 5 0  1.8 5 0  1.7 5 0  1.6 5 0  1.5 5 0  1.4 5 0  1.3 5 0  1.2 5 0  1.1 5 0  1 5 0  0.9000000000000004 5 0  0.7999999999999998 5 0  0.7000000000000002 5 0  0.5999999999999996 5 0  0.5 5 0  0.4000000000000004 5 0  0.2999999999999998 5 0  0.2000000000000002 5 0  0.09999999999999964 5 0  0 5 0  -0.09999999999999964 5 0  -0.2000000000000002 5 0  -0.2999999999999998 5 0  -0.4000000000000004 5 0  -0.5 5 0  -0.5999999999999996 5 0  -0.7000000000000002 5 0  -0.7999999999999998 5 0  -0.9000000000000004 5 0  -1 5 0  -1.1 5 0  -1.2 5 0  -1.3 5 0  -1.4 5 0  -1.5 5 0  -1.6 5 0  -1.7 5 0  -1.8 5 0  -1.9 5 0  -2 5 0  -2.1 5 0  -2.2 5 0  -2.3 5 0  -2.4 5 0  -2.5 5 0  -2.6 5 0  -2.7 5 0  -2.8 5 0  -2.9 5 0  -3 5 0  -3.1 5 0  -3.199999999999999 5 0  -3.300000000000001 5 0  -3.4 5 0  -3.5 5 0  -3.6 5 0  -3.699999999999999 5 0  -3.800000000000001 5 0  -3.9 5 0  -4 5 0  -4.1 5 0  -4.199999999999999 5 0  -4.300000000000001 5 0  -4.4 5 0  -4.5 5 0  -4.6 5 0  -4.699999999999999 5 0  -4.800000000000001 5 0  -4.9 5 0  -5 4.9 0  -5 4.8 0  -5 4.7 0  -5 4.6 0  -5 4.5 0  -5 4.4 0  -5 4.3 0  -5 4.2 0  -5 4.1 0  -5 4 0  -5 3.9 0  -5 3.8 0  -5 3.7 0  -5 3.6 0  -5 3.5 0  -5 3.4 0  -5 3.3 0  -5 3.2 0  -5 3.1 0  -5 3 0  -5 2.9 0  -5 2.8 0  -5 2.7 0  -5 2.6 0  -5 2.5 0  -5 2.4 0  -5 2.3 0  -5 2.2 0  -5 2.1 0  -5 2 0  -5 1.9 0  -5 1.8 0  -5 1.7 0  -5 1.6 0  -5 1.5 0  -5 1.4 0  -5 1.3 0  -5 1.2 0  -5 1.1 0  -5 1 0  -5 0.9000000000000004 0  -5 0.7999999999999998 0  -5 0.7000000000000002 0  -5 0.5999999999999996 0  -5 0.5 0  -5 0.4000000000000004 0  -5 0.2999999999999998 0  -5 0.2000000000000002 0  -5 0.09999999999999964 0  -5 0 0  -5 -0.09999999999999964 0  -5 -0.2000000000000002 0  -5 -0.2999999999999998 0  -5 -0.4000000000000004 0  -5 -0.5 0  -5 -0.5999999999999996 0  -5 -0.7000000000000002 0  -5 -0.7999999999999998 0  -5 -0.9000000000000004 0  -5 -1 0  -5 -1.1 0  -5 -1.2 0  -5 -1.3 0  -5 -1.4 0  -5 -1.5 0  -5 -1.6 0  -5 -1.7 0  -5 -1.8 0  -5 -1.9 0  -5 -2 0  -5 -2.1 0  -5 -2.2 0  -5 -2.3 0  -5 -2.4 0  -5 -2.5 0  -5 -2.6 0  -5 -2.7 0  -5 -2.8 0  -5 -2.9 0  -5 -3 0  -5 -3.1 0  -5 -3.199999999999999 0  -5 -3.300000000000001 0  -5 -3.4 0  -5 -3.5 0  -5 -3.6 0  -5 -3.699999999999999 0  -5 -3.800000000000001 0  -5 -3.9 0  -5 -4 0  -5 -4.1 0  -5 -4.199999999999999 0  -5 -4.300000000000001 0  -5 -4.4 0  -5 -4.5 0  -5 -4.6 0  -5 -4.699999999999999 0  -5 -4.800000000000001 0  -5 -4.9 0  2.39591113377673 0.2641780616455002 0  1.957840312803389 0.3653642773195923 0  2.343911970451229 0.7179737004690944 0  1.77904968879138 0.6761507407805449 0  1.844913136714458 0.935990853594079 0  1.543553413264058 1.021034586997162 0  1.323805049154718 1.285245192354616 0  1.175086382330499 1.010619258099799 0  1.156953426994539 1.268918600114805 0  0.9627285111463781 1.438367437731596 0  0.7915801130009614 1.455786114873014 0  0.6596846518645431 1.49092068635489 0  0.470484134114984 1.576025077806337 0  0.3001011184794985 1.609530891369757 0  0.1347010991593484 1.637337274599662 0  -0.02649842293271719 1.632882451230411 0  -0.2343833752275713 1.604484653954915 0  -0.3964569228477829 1.596294801322482 0  -0.5530786439246876 1.551514041921543 0  -0.7152023782000652 1.478386021302821 0  -0.8866324734607094 1.438274094297364 0  -1.062823136239279 1.322381153294272 0  -1.211522799896258 1.203509227431897 0  -1.383516294437936 1.265220859801372 0  -1.247294875631695 0.8543895271527373 0  -1.552531825684648 1.074502482871489 0  -1.955035183917296 0.926367830573173 0  -1.836254065358922 0.6724455954298797 0  -2.161878184115842 0.601508803875041 0  -2.228831701718065 0.311776553026862 0  -2.321113385137753 0.04889286147009875 0  -1.87102695511185 -0.1223831464668142 0  -2.494928950931503 -0.4729695892794836 0  -1.99533853818682 -0.4365945457385157 0  -1.893335672387217 -0.6586237040626299 0  -1.911839156105216 -1.001212575997936 0  -1.520122190658612 -0.8278600879355211 0  -1.558291002330839 -0.9934985235873128 0  -1.380501291254187 -1.211573070564856 0  -1.170599118863407 -1.209403148126261 0  -1.038398868317721 -1.340999747156223 0  -0.8771428700130608 -1.471508044975616 0  -0.7043357501627493 -1.504933780000628 0  -0.5450033568343318 -1.544988963784376 0  -0.3840305771858999 -1.606257684765263 0  -0.2122915729798839 -1.617825580447631 0  -0.04836842386740038 -1.635007640027939 0  0.1439574194344431 -1.632752844469901 0  0.2934432794785328 -1.624029607574718 0  0.4751487363090279 -1.591649842068702 0  0.6408288359497575 -1.52409838413322 0  0.7702034763577099 -1.394974481968116 0  0.9466366379290301 -1.431875504568594 0  1.125698077385419 -1.322266666472581 0  1.311495344146527 -1.264086933677163 0  1.415414946551876 -1.073382516907445 0  1.51011880723516 -0.9290206177094996 0  1.809677980528671 -0.9536768605336784 0  1.910683263183355 -0.7569155035081323 0  1.914597911504591 -0.5370577992808234 0  2.286450571343863 -0.461203059273647 0  2.236424229483563 -0.1705270700992826 0  -2.449898362282272 4.920190318699667 0  -2.449855517790753 -4.912735921442259 0  4.911121556189404 2.448212639166831 0  4.919151115002336 -2.449537045110413 0  2.447783875647143 -4.898307016976236 0  2.442206448777969 4.902067096909724 0  -4.911166402798112 -2.448234088218388 0  -4.911211427633164 2.448235508996508 0  -1.75018764556305 4.914350648488934 0  -1.745877037683728 -4.917620205287436 0  4.920732369368055 1.74386169752518 0  4.909210477549203 -1.747749754498865 0  -4.909609576797064 -1.747454227891909 0  -4.910467921917451 1.747195985973182 0  1.747609816143233 4.908427329159515 0  1.749171578880803 -4.896923015567367 0  -1.150319942447829 4.913219211372433 0  -1.131029944752557 -4.920609805774794 0  -4.908532956264313 -1.147500718923358 0  -4.908367226906156 1.14729108795644 0  1.145203741826941 -4.91700615452952 0  1.150332815158999 4.913163688212884 0  4.908640243184109 1.145754513132565 0  4.919494256036404 -1.151460815379632 0  -0.5474641110972533 -4.914934868218311 0  -0.5471787892926006 4.923243193646035 0  -4.906442774028964 -0.5483459640826007 0  -4.906475106228585 0.5468854948397996 0  4.905594117443177 -0.5486798439503029 0  4.917508562451321 0.5453636687462819 0  0.543420135792969 -4.902493286483693 0  0.5519398409971242 4.92023908396562 0  -4.912698051451134 -3.048776015670245 0  4.919222217189726 3.046726589855452 0  4.912182038371895 -3.048732760476874 0  -4.913573350407841 3.045853332889583 0  3.056250567705653 -4.918789672987054 0  -3.049647766589766 -4.912765122531209 0  3.053204879695161 4.914877201787077 0  -3.049128085915118 4.913714853832068 0  -4.905214182473181 -0.04987332572401788 0  0.04520544688981977 -4.917002738516977 0  0.04963559986425625 4.923711439015973 0  4.91230852684773 -0.05128894944181013 0  3.546235637053087 -4.919928946855642 0  -3.549608115467364 4.912976422053585 0  -3.549571302232149 -4.91299046549057
[...]
<PointData  Vectors="f_7308"> 
<DataArray  type="Float64"  Name="f_7308"  NumberOfComponents="3" format="ascii">-1.5734809570657710e-01 -1.8360578082398554e-01 0.0000000000000000e+00  1.7136341350077192e-01 -1.4496430734256138e-01 0.0000000000000000e+00  9.9564306937871799e-02 1.1630953349440687e-01 0.0000000000000000e+00  -1.6457128974754154e-01 1.8790415860826559e-01 0.0000000000000000e+00  8.8038883266943646e+00 -7.0928247552011880e+00 0.0000000000000000e+00  6.0545434534907516e-02 -1.3907034222437111e+00 0.0000000000000000e+00  5.1031473217811027e-02 -2.2575459235874273e+00 0.0000000000000000e+00  5.3932124095872502e-02 -3.7262505213684780e+00 0.0000000000000000e+00  4.1329018255145671e-02 -4.6060295781387639e+00 0.0000000000000000e+00  -1.0086593458821316e-01 -5.9833149960569365e+00 0.0000000000000000e+00  2.0436570855551665e-02 -7.3488271155112850e+00 0.0000000000000000e+00  3.5810459790079401e-02 -8.3781386827093129e+00 0.0000000000000000e+00  -1.6800334101761988e-02 -9.6352760470889862e+00 0.0000000000000000e+00  6.2857432583694778e-02 -1.0616394987368142e+01 0.0000000000000000e+00  6.3250686281570184e-02 -1.2046137641333932e+01 0.0000000000000000e+00  -9.6059142811641355e-03 -1.3000684134007964e+01 0.0000000000000000e+00  -1.7185033534155226e-02 -1.4254247028230372e+01 0.0000000000000000e+00  7.7494742344957571e-03 -1.5474235746926144e+01 0.0000000000000000e+00  5.2940996027026239e-03 -1.6625607696808100e+01 0.0000000000000000e+00  -6.4215982288119587e-03 -1.7795316132492168e+01 0.0000000000000000e+00  4.1836013679310792e-03 -1.9011985855737247e+01 0.0000000000000000e+00  2.4895859248284392e-02 -2.0185687956037910e+01 0.0000000000000000e+00  -3.3232108750856229e-03 -2.1116426013183592e+01 0.0000000000000000e+00  -8.1135671610782951e-03 -2.2399913055526422e+01 0.0000000000000000e+00  -3.2039886922103120e-02 -2.3682163134401733e+01 0.0000000000000000e+00  8.3656713647355829e-02 -2.4584468789413670e+01 0.0000000000000000e+00  3.7345127302592700e-02 -2.5887787617563099e+01 0.0000000000000000e+00  4.4627609367113595e-02 -2.6733857493963022e+01 0.0000000000000000e+00  7.3860339850758003e-02 -2.7982117961222105e+01 0.0000000000000000e+00  -3.4583498749663356e-02 -2.8857674369734177e+01 0.0000000000000000e+00  -1.1548607792143810e-02 -3.0055971505354901e+01 0.0000000000000000e+00  -4.2813379833404061e-03 -3.1172597831544866e+01 0.0000000000000000e+00  5.3958943242906537e-02 -3.1960450135841956e+01 0.0000000000000000e+00  3.9446877027340267e-02 -3.3157939747669751e+01 0.0000000000000000e+00  3.9055572880203747e-02 -3.3866498535189720e+01 0.0000000000000000e+00  -8.7780179199292069e-02 -3.4946421451315665e+01 0.0000000000000000e+00  3.8210866199745556e-02 -3.5959401757901546e+01 0.0000000000000000e+00  5.9041193446893450e-03 -3.6691694786498630e+01 0.0000000000000000e+00  -1.2129610494770419e-03 -3.7513112491939786e+01 0.0000000000000000e+00  -1.4057886540115581e-03 -3.8300285964757904e+01 0.0000000000000000e+00  6.5133522080377459e-03 -3.9051106396258334e+01 0.0000000000000000e+00  -3.7585081174425918e-02 -3.9828983272109738e+01 0.0000000000000000e+00  4.5732182721347034e-02 -4.0416440262588317e+01 0.0000000000000000e+00  2.4755616847307316e-02 -4.1024570992582142e+01 0.0000000000000000e+00  1.8792753870317834e-02 -4.1645245764020565e+01 0.0000000000000000e+00  -1.0395780099766619e-02 -4.2181439376255838e+01 0.0000000000000000e+00  4.4173438165148293e-02 -4.2546997370615024e+01 0.0000000000000000e+00  -3.2647299887968363e-02 -4.3044288099663781e+01 0.0000000000000000e+00  1.8119955321103727e-02 -4.3453627941450101e+01 0.0000000000000000e+00  -3.8957098415882676e-03 -4.3705773568257129e+01 0.0000000000000000e+00  1.3312766461460283e-03 -4.3972191272467398e+01 0.0000000000000000e+00  -9.3714973594363304e-04 -4.4170468514381966e+01 0.0000000000000000e+00  4.2580956390530036e-04 -4.4312155559373032e+01 0.0000000000000000e+00  2.3695398182792938e-04 -4.4395447368151473e+01 0.0000000000000000e+00  1.8960595471463359e-03 -4.4421022320386591e+01 0.0000000000000000e+00  5.8248339737299623e-04 -4.4400117119606108e+01 0.0000000000000000e+00  8.5819287503096659e-03 -4.4300464399300800e+01 0.0000000000000000e+00  -1.1584560845289582e-02 -4.4118319923319120e+01 0.0000000000000000e+00  -5.8983761979733785e-03 -4.3960896458845916e+01 0.0000000000000000e+00  -2.2306973418247271e-02 -4.3639508811635991e+01 0.0000000000000000e+00  7.3172004193166112e-03 -4.3378166421535930e+01 0.0000000000000000e+00  6.1944062828424998e-03 -4.2984460010704446e+01 0.0000000000000000e+00  -4.5356464080546516e-03 -4.2538144822459209e+01 0.0000000000000000e+00  -9.5312079708607706e-04 -4.2071472123424414e+01 0.0000000000000000e+00  5.6337300661317658e-03 -4.1534977159326431e+01 0.0000000000000000e+00  -1.2698074905112900e-02 -4.0954158998230071e+01 0.0000000000000000e+00  -7.8326199024928989e-03 -4.0306045420808857e+01 0.0000000000000000e+00  8.6501548489442224e-03 -3.9721096277496358e+01 0.0000000000000000e+00  -2.0735325229561528e-02 -3.8944439788705260e+01 0.0000000000000000e+00  2.4094342777337699e-02 -3.8182903752384057e+01 0.0000000000000000e+00  -3.0759298770650437e-02 -3.7398820045290321e+01 0.0000000000000000e+00  5.6249476209572465e-03 -3.6525686169640352e+01 0.0000000000000000e+00  1.5147285694339322e-02 -3.5736796988035579e+01 0.0000000000000000e+00  -2.2111332400074162e-02 -3.4804532471946665e+01 0.0000000000000000e+00  1.5623617849205075e-02 -3.3856530862278539e+01 0.0000000000000000e+00  -1.1776348307201624e-02 -3.2897585745148845e+01 0.0000000000000000e+00  5.0828012074678750e-03 -3.1934978280726781e+01 0.0000000000000000e+00  -2.1351270172435394e-02 -3.0944685115686511e+01 0.0000000000000000e+00  -6.9389874934311715e-03 -2.9866770417933736e+01 0.0000000000000000e+00  9.6756865666032428e-03 -2.8969212645619024e+01 0.0000000000000000e+00  1.8102316522569221e-03 -2.7836258690304671e+01 0.0000000000000000e+00  8.6756886442341148e-03 -2.6735348296110416e+01 0.0000000000000000e+00  -3.1138969081124141e-02 -2.5660464559756331e+01 0.0000000000000000e+00  -1.1554676987692969e-02 -2.4448753430266073e+01 0.0000000000000000e+00  2.0216008301682260e-02 -2.3455083384380806e+01 0.0000000000000000e+00  -3.0648252270989367e-02 -2.2239944281499945e+01 0.0000000000000000e+00  1.5427270000213380e-03 -2.1158705742562578e+01 0.0000000000000000e+00  1.1864045488049174e-02 -2.0051724283772714e+01 0.0000000000000000e+00  1.2927968548809550e-02 -1.8828305140630754e+01 0.0000000000000000e+00  -3.6389517964474850e-02 -1.7712565237837254e+01 0.0000000000000000e+00  6.9836805881252238e-03 -1.6472469164303913e+01 0.0000000000000000e+00  8.2836005442235450e-03 -1.5422668330360448e+01 0.0000000000000000e+00  -2.8988036530222371e-02 -1.4158784808065191e+01 0.0000000000000000e+00  -5.9298580215302562e-04 -1.3039453721899477e+01 0.0000000000000000e+00  1.5953373938729538e-02 -1.1831774613125157e+01 0.0000000000000000e+00  -9.0718399279928234e-04 -1.0635257600162848e+01 0.0000000000000000e+00  -1.5692540091370669e-02 -9.4803560196539074e+00 0.0000000000000000e+00  -1.2149502028551074e-02 -8.2494606274705493e+00 0.0000000000000000e+00  2.3455288679595954e-02 -7.1980329922967954e+00 0.0000000000000000e+00  -3.5620047432756624e-02 -5.9227764538330758e+00 0.0000000000000000e+00  8.5475700803661209e-03 -4.7655306465600376e+00 0.0000000000000000e+00  1.9596684510893539e-02 -3.5482338968423979e+00 0.0000000000000000e+00  -3.0578313864070249e-02 -2.3562288429714608e+00 0.0000000000000000e+00  -3.7590557014970903e-02 -1.3639815750687809e+00 0.0000000000000000e+00  1.4195267265301437e+00 3.4079227369034751e-02 0.0000000000000000e+00  2.2776964226534679e+00 8.7032487538314635e-02 0.0000000000000000e+00  3.6659212271045600e+00 6.3645912002603347e-02 0.0000000000000000e+00  4.6853164297193688e+00 -1.9498034629929262e-02 0.0000000000000000e+00  5.9543209653213616e+00 9.1739729499873395e-03 0.0000000000000000e+00  7.1233070602330857e+00 -6.6076643086185388e-03 0.0000000000000000e+00  8.3089100022590845e+00 1.2788255483480249e-03 0.0000000000000000e+00  9.4999474797259023e+00 -1.9693751316896429e-03 0.0000000000000000e+00  1.0682737343340332e+01 5.5221514609718242e-04 0.0000000000000000e+00  1.1892519679075438e+01 -3.8391406418836237e-04 0.0000000000000000e+00  1.3064611371521247e+01 -4.1290953021039830e-05 0.0000000000000000e+00  1.4267549585219637e+01 3.9957044327968124e-03 0.0000000000000000e+00  1.5420045223890989e+01 1.6775374994796746e-03 0.0000000000000000e+00  1.6652800607221383e+01 -8.0803573905157081e-03 0.0000000000000000e+00  1.7810780351642308e+01 4.0803148239898744e-03 0.0000000000000000e+00  1.9036078003366587e+01 3.3778644215109004e-03 0.0000000000000000e+00  2.0184572444791780e+01 -3.4978972657105155e-03 0.0000000000000000e+00  2.1347010437321149e+01 8.0405808884229275e-03 0.0000000000000000e+00  2.2563653531752600e+01 -7.9907888782143038e-03 0.0000000000000000e+00  2.3698206517892057e+01 -5.3401448252439355e-03 0.0000000000000000e+00  2.4888481973644232e+01 1.0960257839852848e-02 0.0000000000000000e+00  2.6054910765145443e+01 -1.1959784970463547e-02 0.0000000000000000e+00  2.7137862811096269e+01 8.5984327872071324e-03 0.0000000000000000e+00  2.8295732228336647e+01 1.9152807208258028e-03 0.0000000000000000e+00  2.9440606306164259e+01 5.1310725176135080e-03 0.0000000000000000e+00  3.0564645747148980e+01 -3.1610750012283813e-03 0.0000000000000000e+00  3.1650423036490338e+01 -2.2364973161381431e-03 0.0000000000000000e+00  3.2708396974576026e+01 -1.6780195488482203e-03 0.0000000000000000e+00  3.3760341838766941e+01 7.2052706787733816e-05 0.0000000000000000e+00  3.4789656552760974e+01 -4.3814183707085216e-04 0.0000000000000000e+00  3.5794054748997631e+01 2.1115091960993509e-04 0.0000000000000000e+00  3.6769381558762653e+01 -2.5089477571630324e-03 0.0000000000000000e+00  3.7704085360767976e+01 -1.0157661111689367e-03 0.0000000000000000e+00  3.8631135480539861e+01 4.7934916053268377e-03 0.0000000000000000e+00  3.9521339256964360e+01 -7.6655335461865651e-03 0.0000000000000000e+00  4.0317130718417502e+01 7.8427764639300204e-03 0.0000000000000000e+00  4.1123939382678572e+01 -8.6460990272595704e-04 0.0000000000000000e+00  4.1869464347855249e+01 8.9957996047468364e-03 0.0000000000000000e+00  4.2559767732344419e+01 1.1328448373611104e-02 0.0000000000000000e+00  4.3249267788858759e+01 -3.4180838126799645e-02 0.0000000000000000e+00  4.3897090636953457e+01 2.5047584305133316e-02 0.0000000000000000e+00  4.4387516507455899e+01 -1.0812868837430753e-02 0.0000000000000000e+00  4.4894457576396547e+01 1.4534938591587499e-03 0.0000000000000000e+00  4.5325549042074698e+01 -3.4233020537334097e-03 0.0000000000000000e+00  4.5674338060704194e+01 7.4857767169465694e-03 0.0000000000000000e+00  4.5977796050381194e+01 -1.2625475278865413e-03 0.0000000000000000e+00  4.6225085984490875e+01 6.0057057452588675e-04 0.0000000000000000e+00  4.6401490208451023e+01 -8.3096015031153356e-04 0.0000000000000000e+00  4.6509672744964298e+01 -3.3285418323115062e-04 0.0000000000000000e+00  4.6547039485980122e+01 7.3148557571662740e-04 0.0000000000000000e+00  4.6519316777700546e+01 7.2248709300050135e-04 0.0000000000000000e+00  4.6427198620992222e+01 -1.8542800765700301e-03 0.0000000000000000e+00  4.6261430023561203e+01 2.0181882370613343e-03 0.0000000000000000e+00  4.6029824783869891e+01 1.6167123076290740e-04 0.0000000000000000e+00  4.5744011232920279e+01 -3.5784530399275926e-03 0.0000000000000000e+00  4.5380700273975819e+01 4.1901463858662093e-03 0.0000000000000000e+00  4.4952960431554629e+01 -2.0372805021733851e-04 0.0000000000000000e+00  4.4477463705170905e+01 -4.8655997333851096e-03 0.0000000000000000e+00  4.3922446048946021e+01 1.0267418995501055e-03 0.0000000000000000e+00  4.3337935203262248e+01 2.5713612731810237e-03 0.0000000000000000e+00  4.2688808730744121e+01 -3.3590045930989259e-03 0.0000000000000000e+00  4.2014146501069071e+01 1.1660503220337693e-04 0.0000000000000000e+00  4.1250310157643369e+01 2.3446983510153735e-03 0.0000000000000000e+00  4.0462987949654732e+01 -2.1664565546439447e-03 0.0000000000000000e+00  3.9648762942588043e+01 7.7628375812601310e-03 0.0000000000000000e+00  3.8744979699158179e+01 -5.7541840943754396e-03 0.0000000000000000e+00  3.7857214433422570e+01 -7.5125803363967573e-03 0.0000000000000000e+00  3.6900292170427420e+01 9.7807630251463672e-03 0.0000000000000000e+00  3.5900568700002019e+01 -2.6431825358954959e-03 0.0000000000000000e+00  3.4905030376806110e+01 -5.0687383911429589e-03 0.0000000000000000e+00  3.3867242195957218e+01 4.2513926519900718e-03 0.0000000000000000e+00  3.2815249525000787e+01 3.8432957901937130e-03 0.0000000000000000e+00  3.1732934842573247e+01 -8.6217885758161955e-04 0.0000000000000000e+00  3.0645479788659529e+01 1.7133649161533136e-05 0.0000000000000000e+00  2.9537374305606519e+01 2.3413664454012160e-03 0.0000000000000000e+00  2.8408119474416011e+01 -1.3880469143312054e-03 0.0000000000000000e+00  2.7295556396636950e+01 -2.2587237734782487e-03 0.0000000000000000e+00  2.6165470967535072e+01 7.0324560305430692e-03 0.0000000000000000e+00  2.4966848664670696e+01 -9.5012336156470537e-03 0.0000000000000000e+00  2.3798929966725506e+01 -9.6586479638574585e-04 0.0000000000000000e+00  2.2627998034313499e+01 -1.0145393110177329e-03 0.0000000000000000e+00  2.1488870431369580e+01 -3.3201571531282098e-04 0.0000000000000000e+00  2.0306732031525062e+01 9.7362001257279875e-03 0.0000000000000000e+00  1.9076813139166958e+01 -8.4715671050592193e-03 0.0000000000000000e+00  1.7887077041593059e+01 -1.0522284822478169e-03 0.0000000000000000e+00  1.6693828731294463e+01 6.4368313279924798e-04 0.0000000000000000e+00  1.5475386452340461e+01 4.1109958681364326e-03 0.0000000000000000e+00  1.4315180408283748e+01 1.8006185940935688e-03 0.0000000000000000e+00  1.3102131229387128e+01 -2.5996103418836018e-03 0.0000000000000000e+00  1.1920175839091257e+01 1.1672317234835601e-03 0.0000000000000000e+00  1.0726841075376241e+01 4.0661965933388887e-03 0.0000000000000000e+00  9.5574399040814750e+00 -1.4812094718467891e-03 0.0000000000000000e+00  8.3399028703358962e+00 -3.6459705981632348e-03 0.0000000000000000e+00  7.1472202170134933e+00 6.8880812869355039e-03 0.0000000000000000e+00  5.9761738622889347e+00 -1.1865685637060197e-02 0.0000000000000000e+00  4.8133261642135015e+00 -5.0127889208515415e-03 0.0000000000000000e+00  3.6106573282158960e+00 1.6430724272103573e-02 0.0000000000000000e+00  2.3698293966160002e+00 3.2482238098594126e-04 0.0000000000000000e+00  1.2879397539147743e+00 -4.3015397913078630e-02 0.0000000000000000e+00  -6.9206254465241021e-02 1.3298976185818532e+00 0.0000000000000000e+00  1.7353410626928242e-02 2.3094019245222550e+00 0.0000000000000000e+00  -2.9335122746817596e-02 3.5568018486517841e+00 0.0000000000000000e+00  -2.3001562004939323e-02 4.5746923670790736e+00 0.0000000000000000e+00  9.9770181732913410e-02 5.9463590336739509e+00 0.0000000000000000e+00  -2.4563328324527626e-02 7.3343858478431008e+00 0.0000000000000000e+00  -7.1595475742457629e-02 8.2013931123714112e+00 0.0000000000000000e+00  -1.0151090320382064e-01 9.5974406277934357e+00 0.0000000000000000e+00  2.8835357680552891e-02 1.0568165361717195e+01 0.0000000000000000e+00  3.1710422830607508e-02 1.1879097015641046e+01 0.0000000000000000e+00  -2.9387676676993046e-02 1.3067882600407078e+01 0.0000000000000000e+00  2.1152070139009781e-02 1.4206360893567373e+01 0.0000000000000000e+00  5.2776175000333863e-03 1.5490951185798332e+01 0.0000000000000000e+00  -4.3026948621138830e-03 1.6501425714275765e+01 0.0000000000000000e+00  -1.3541911539259458e-02 1.7745528935797928e+01 0.0000000000000000e+00  -5.8454540238190369e-03 1.8864705794906762e+01 0.0000000000000000e+00  1.6059530282515347e-02 2.0062747278668162e+01 0.0000000000000000e+00  -5.2353484419303377e-03 2.1248720697084497e+01 0.0000000000000000e+00  -1.2057008265765830e-02 2.2350183086654166e+01 0.0000000000000000e+00  -2.9608770978551383e-03 2.3546030160656208e+01 0.0000000000000000e+00  -1.1794525741787796e-02 2.4484607026301905e+01 0.0000000000000000e+00  2.5699069018947772e-02 2.5724601832657211e+01 0.0000000000000000e+00  -2.1516075523681844e-02 2.6785949024497466e+01 0.0000000000000000e+00  2.5354682743939295e-02 2.7870504954701275e+01 0.0000000000000000e+00  8.5232392953667659e-03 2.9011790795651425e+01 0.0000000000000000e+00  -5.8942268185234889e-02 2.9850640892672118e+01 0.0000000000000000e+00  -4.9063227986635510e-02 3.1080509954393769e+01 0.0000000000000000e+00  9.9912409399647156e-03 3.1902240259150322e+01 0.0000000000000000e+00  -3.1526364810527216e-02 3.2934523094453120e+01 0.0000000000000000e+00  -1.5704470799942555e-02 3.3754017619611879e+01 0.0000000000000000e+00  7.7266872534705294e-02 3.4807155145801154e+01 0.0000000000000000e+00  -2.7139163413835425e-02 3.5837103562589462e+01 0.0000000000000000e+00  -4.0648992498330067e-02 3.6483249248932303e+01 0.0000000000000000e+00  -4.4855345508510343e-02 3.7470269317032731e+01 0.0000000000000000e+00  5.9738767712474794e-03 3.8084162606448075e+01 0.0000000000000000e+00  1.3760389870639782e-02 3.8927549310663721e+01 0.0000000000000000e+00  -5.7080830225158937e-03 3.9655259356148989e+01 0.0000000000000000e+00  -1.6740594689137972e-03 4.0297509782730046e+01 0.0000000000000000e+00  1.2257537069081980e-03 4.0912282118517098e+01 0.0000000000000000e+00  1.4283329776074978e-03 4.1507045066686366e+01 0.0000000000000000e+00  -1.0614536668181610e-02 4.2036901057327313e+01 0.0000000000000000e+00  7.1094276495963524e-04 4.2418625290620056e+01 0.0000000000000000e+00  -5.5801445749347779e-04 4.2891122927937388e+01 0.0000000000000000e+00  4.5856913435427518e-03 4.3268679728026555e+01 0.0000000000000000e+00  -8.3446102181345821e-03 4.3571275780818510e+01 0.0000000000000000e+00  8.1368417756700930e-03 4.3840750630433938e+01 0.0000000000000000e+00  -2.9100355265196717e-03 4.4022266105603329e+01 0.0000000000000000e+00  -7.2276307377236813e-03 4.4177344859361099e+01 0.0000000000000000e+00  1.6851393342902225e-03 4.4258246778087042e+01 0.0000000000000000e+00  1.8008236864566448e-03 4.4290563719175957e+01 0.0000000000000000e+00  7.4816735610756351e-03 4.4249825191681261e+01 0.0000000000000000e+00  -8.4218920444235588e-03 4.4167307572166813e+01 0.0000000000000000e+00  3.8501406429585308e-03 4.4021853487008372e+01 0.0000000000000000e+00  -6.8627503619410153e-03 4.3810794702295723e+01 0.0000000000000000e+00  9.7388066364369804e-03 4.3550346008948559e+01 0.0000000000000000e+00  -8.6415194395901770e-03 4.3207429370164789e+01 0.0000000000000000e+00  1.8998310657529698e-02 4.2896410164897169e+01 0.0000000000000000e+00  2.1834002895731640e-02 4.2382893275183044e+01 0.0000000000000000e+00  1.2678390283117458e-02 4.2013396411339407e+01 0.0000000000000000e+00  4.4851444989042359e-02 4.1405521394911680e+01 0.0000000000000000e+00  -2.1815618096719031e-02 4.0942806770585769e+01 0.0000000000000000e+00  -7.7222706772108541e-03 4.0250159650840281e+01 0.0000000000000000e+00  8.7418281209386862e-03 3.9552107631175716e+01 0.0000000000000000e+00  -1.9634213067943685e-03 3.8869041398721386e+01 0.0000000000000000e+00  -6.6563995235454276e-04 3.8126047264284232e+01 0.0000000000000000e+00  -2.8751131690553096e-03 3.7322212405028239e+01 0.0000000000000000e+00  3.3710121196322477e-03 3.6510025037248674e+01 0.0000000000000000e+00  -1.6524002585768287e-02 3.5643524651684409e+01 0.0000000000000000e+00  3.0532144354581632e-02 3.4753593629552483e+01 0.0000000000000000e+00  -2.1544324408582203e-02 3.3759650838209296e+01 0.0000000000000000e+00  2.3976759297156005e-02 3.2941017429620729e+01 0.0000000000000000e+00  6.3072089919355744e-03 3.1970998479026285e+01 0.0000000000000000e+00  -2.6137476854305348e-02 3.0925113100236810e+01 0.0000000000000000e+00  1.7252719091782661e-02 2.9890582868118418e+01 0.0000000000000000e+00  -2.1695507182054961e-02 2.8864886098505913e+01 0.0000000000000000e+00  1.0653717784133298e-02 2.7749105700178102e+01 0.0000000000000000e+00  -4.5825436944444981e-03 2.6664017962618075e+01 0.0000000000000000e+00  4.5022513186057878e-02 2.5758885053825576e+01 0.0