<?xml version="1.0"?>
<VTKFile type="UnstructuredGrid"  version="0.1"  >
<UnstructuredGrid>
<Piece  NumberOfPoints="11902" NumberOfCells="23402">
<Points>
<DataArray  type="Float64"  NumberOfComponents="3"  format="ascii">-5 -5 0  5 -5 0  5 5 0  -5 5 0  1.908576150240798 0.009353162943941451 0  -4.9 -5 0  -4.8 -5 0  -4.7 -5 0  -4.6 -5 0  -4.5 -5 0  -4.4 -5 0  -4.3 -5 0  -4.2 -5 0  -4.1 -5 0  -4 -5 0  -3.9 -5 0  -3.8 -5 0  -3.7 -5 0  -3.6 -5 0  -3.5 -5 0  -3.4 -5 0  -3.3 -5 0  -3.2 -5 0  -3.1 -5 0  -3 -5 0  -2.9 -5 0  -2.8 -5 0  -2.7 -5 0  -2.6 -5 0  -2.5 -5 0  -2.4 -5 0  -2.3 -5 0  -2.2 -5 0  -2.1 -5 0  -2 -5 0  -1.9 -5 0  -1.8 -5 0  -1.7 -5 0  -1.6 -5 0  -1.5 -5 0  -1.4 -5 0  -1.3 -5 0  -1.2 -5 0  -1.1 -5 0  -1 -5 0  -0.9000000000000004 -5 0  -0.7999999999999998 -5 0  -0.7000000000000002 -5 0  -0.5999999999999996 -5 0  -0.5 -5 0  -0.4000000000000004 -5 0  -0.2999999999999998 -5 0  -0.2000000000000002 -5 0  -0.09999999999999964 -5 0  0 -5 0  0.09999999999999964 -5 0  0.2000000000000002 -5 0  0.2999999999999998 -5 0  0.4000000000000004 -5 0  0.5 -5 0  0.5999999999999996 -5 0  0.7000000000000002 -5 0  0.7999999999999998 -5 0  0.9000000000000004 -5 0  1 -5 0  1.1 -5 0  1.2 -5 0  1.3 -5 0  1.4 -5 0  1.5 -5 0  1.6 -5 0  1.7 -5 0  1.8 -5 0  1.9 -5 0  2 -5 0  2.1 -5 0  2.2 -5 0  2.3 -5 0  2.4 -5 0  2.5 -5 0  2.6 -5 0  2.7 -5 0  2.8 -5 0  2.9 -5 0  3 -5 0  3.1 -5 0  3.199999999999999 -5 0  3.300000000000001 -5 0  3.4 -5 0  3.5 -5 0  3.6 -5 0  3.699999999999999 -5 0  3.800000000000001 -5 0  3.9 -5 0  4 -5 0  4.1 -5 0  4.199999999999999 -5 0  4.300000000000001 -5 0  4.4 -5 0  4.5 -5 0  4.6 -5 0  4.699999999999999 -5 0  4.800000000000001 -5 0  4.9 -5 0  5 -4.9 0  5 -4.8 0  5 -4.7 0  5 -4.6 0  5 -4.5 0  5 -4.4 0  5 -4.3 0  5 -4.2 0  5 -4.1 0  5 -4 0  5 -3.9 0  5 -3.8 0  5 -3.7 0  5 -3.6 0  5 -3.5 0  5 -3.4 0  5 -3.3 0  5 -3.2 0  5 -3.1 0  5 -3 0  5 -2.9 0  5 -2.8 0  5 -2.7 0  5 -2.6 0  5 -2.5 0  5 -2.4 0  5 -2.3 0  5 -2.2 0  5 -2.1 0  5 -2 0  5 -1.9 0  5 -1.8 0  5 -1.7 0  5 -1.6 0  5 -1.5 0  5 -1.4 0  5 -1.3 0  5 -1.2 0  5 -1.1 0  5 -1 0  5 -0.9000000000000004 0  5 -0.7999999999999998 0  5 -0.7000000000000002 0  5 -0.5999999999999996 0  5 -0.5 0  5 -0.4000000000000004 0  5 -0.2999999999999998 0  5 -0.2000000000000002 0  5 -0.09999999999999964 0  5 0 0  5 0.09999999999999964 0  5 0.2000000000000002 0  5 0.2999999999999998 0  5 0.4000000000000004 0  5 0.5 0  5 0.5999999999999996 0  5 0.7000000000000002 0  5 0.7999999999999998 0  5 0.9000000000000004 0  5 1 0  5 1.1 0  5 1.2 0  5 1.3 0  5 1.4 0  5 1.5 0  5 1.6 0  5 1.7 0  5 1.8 0  5 1.9 0  5 2 0  5 2.1 0  5 2.2 0  5 2.3 0  5 2.4 0  5 2.5 0  5 2.6 0  5 2.7 0  5 2.8 0  5 2.9 0  5 3 0  5 3.1 0  5 3.199999999999999 0  5 3.300000000000001 0  5 3.4 0  5 3.5 0  5 3.6 0  5 3.699999999999999 0  5 3.800000000000001 0  5 3.9 0  5 4 0  5 4.1 0  5 4.199999999999999 0  5 4.300000000000001 0  5 4.4 0  5 4.5 0  5 4.6 0  5 4.699999999999999 0  5 4.800000000000001 0  5 4.9 0  4.9 5 0  4.8 5 0  4.7 5 0  4.6 5 0  4.5 5 0  4.4 5 0  4.3 5 0  4.2 5 0  4.1 5 0  4 5 0  3.9 5 0  3.8 5 0  3.7 5 0  3.6 5 0  3.5 5 0  3.4 5 0  3.3 5 0  3.2 5 0  3.1 5 0  3 5 0  2.9 5 0  2.8 5 0  2.7 5 0  2.6 5 0  2.5 5 0  2.4 5 0  2.3 5 0  2.2 5 0  2.1 5 0  2 5 0  1.9 5 0  1.8 5 0  1.7 5 0  1.6 5 0  1.5 5 0  1.4 5 0  1.3 5 0  1.2 5 0  1.1 5 0  1 5 0  0.9000000000000004 5 0  0.7999999999999998 5 0  0.7000000000000002 5 0  0.5999999999999996 5 0  0.5 5 0  0.4000000000000004 5 0  0.2999999999999998 5 0  0.2000000000000002 5 0  0.09999999999999964 5 0  0 5 0  -0.09999999999999964 5 0  -0.2000000000000002 5 0  -0.2999999999999998 5 0  -0.4000000000000004 5 0  -0.5 5 0  -0.5999999999999996 5 0  -0.7000000000000002 5 0  -0.7999999999999998 5 0  -0.9000000000000004 5 0  -1 5 0  -1.1 5 0  -1.2 5 0  -1.3 5 0  -1.4 5 0  -1.5 5 0  -1.6 5 0  -1.7 5 0  -1.8 5 0  -1.9 5 0  -2 5 0  -2.1 5 0  -2.2 5 0  -2.3 5 0  -2.4 5 0  -2.5 5 0  -2.6 5 0  -2.7 5 0  -2.8 5 0  -2.9 5 0  -3 5 0  -3.1 5 0  -3.199999999999999 5 0  -3.300000000000001 5 0  -3.4 5 0  -3.5 5 0  -3.6 5 0  -3.699999999999999 5 0  -3.800000000000001 5 0  -3.9 5 0  -4 5 0  -4.1 5 0  -4.199999999999999 5 0  -4.300000000000001 5 0  -4.4 5 0  -4.5 5 0  -4.6 5 0  -4.699999999999999 5 0  -4.800000000000001 5 0  -4.9 5 0  -5 4.9 0  -5 4.8 0  -5 4.7 0  -5 4.6 0  -5 4.5 0  -5 4.4 0  -5 4.3 0  -5 4.2 0  -5 4.1 0  -5 4 0  -5 3.9 0  -5 3.8 0  -5 3.7 0  -5 3.6 0  -5 3.5 0  -5 3.4 0  -5 3.3 0  -5 3.2 0  -5 3.1 0  -5 3 0  -5 2.9 0  -5 2.8 0  -5 2.7 0  -5 2.6 0  -5 2.5 0  -5 2.4 0  -5 2.3 0  -5 2.2 0  -5 2.1 0  -5 2 0  -5 1.9 0  -5 1.8 0  -5 1.7 0  -5 1.6 0  -5 1.5 0  -5 1.4 0  -5 1.3 0  -5 1.2 0  -5 1.1 0  -5 1 0  -5 0.9000000000000004 0  -5 0.7999999999999998 0  -5 0.7000000000000002 0  -5 0.5999999999999996 0  -5 0.5 0  -5 0.4000000000000004 0  -5 0.2999999999999998 0  -5 0.2000000000000002 0  -5 0.09999999999999964 0  -5 0 0  -5 -0.09999999999999964 0  -5 -0.2000000000000002 0  -5 -0.2999999999999998 0  -5 -0.4000000000000004 0  -5 -0.5 0  -5 -0.5999999999999996 0  -5 -0.7000000000000002 0  -5 -0.7999999999999998 0  -5 -0.9000000000000004 0  -5 -1 0  -5 -1.1 0  -5 -1.2 0  -5 -1.3 0  -5 -1.4 0  -5 -1.5 0  -5 -1.6 0  -5 -1.7 0  -5 -1.8 0  -5 -1.9 0  -5 -2 0  -5 -2.1 0  -5 -2.2 0  -5 -2.3 0  -5 -2.4 0  -5 -2.5 0  -5 -2.6 0  -5 -2.7 0  -5 -2.8 0  -5 -2.9 0  -5 -3 0  -5 -3.1 0  -5 -3.199999999999999 0  -5 -3.300000000000001 0  -5 -3.4 0  -5 -3.5 0  -5 -3.6 0  -5 -3.699999999999999 0  -5 -3.800000000000001 0  -5 -3.9 0  -5 -4 0  -5 -4.1 0  -5 -4.199999999999999 0  -5 -4.300000000000001 0  -5 -4.4 0  -5 -4.5 0  -5 -4.6 0  -5 -4.699999999999999 0  -5 -4.800000000000001 0  -5 -4.9 0  2.414175668582291 0.2746398024946912 0  1.956714132055016 0.3624088348545786 0  2.364312577688528 0.73522433513986 0  1.778312408401878 0.6721443572114862 0  1.862940383659987 0.9356767308713103 0  1.54239789915149 1.020450454942529 0  1.310167989829355 1.289369765825996 0  1.162261756151634 0.9762566961885222 0  1.157630552489634 1.255968346181268 0  0.9619955513353593 1.426563833745182 0  0.7918944721243989 1.443956631720172 0  0.6601467071324246 1.477049656028506 0  0.4704310701966369 1.563917292872633 0  0.2994647896967476 1.59766151800079 0  0.134338083486076 1.625080355969897 0  -0.02640839374264893 1.62078344516922 0  -0.2331940300205901 1.59269169550956 0  -0.3955528088835042 1.583681301144066 0  -0.5513058339756053 1.538734845204885 0  -0.7138557727540419 1.464581151773939 0  -0.8848163865881824 1.425339456243737 0  -1.06218557514164 1.309412330932678 0  -1.211185265569665 1.187214683318668 0  -1.364023150724634 1.255296126404283 0  -1.233341417360381 0.8240035404808522 0  -1.545589160283079 1.083922777492771 0  -1.9759792360444 0.9293166688358737 0  -1.829083905006113 0.6687167623455351 0  -2.178069180726923 0.6119740389693142 0  -2.24083899012662 0.3134354393805782 0  -2.342258041215261 0.04746191301414003 0  -1.855035863739883 -0.116359715254792 0  -2.514714147194404 -0.4960745260851648 0  -2.000413369739084 -0.4311896133119373 0  -1.895978890715433 -0.6554594925610603 0  -1.911645507828832 -1.017697824646181 0  -1.529017385783874 -0.8195982602131346 0  -1.553560718985389 -0.9690664316399302 0  -1.377327928664479 -1.199501426101649 0  -1.164759325911464 -1.190426050804526 0  -1.034051181252251 -1.323867997350167 0  -0.8743181833834385 -1.458551617432289 0  -0.7016809821578802 -1.490586387285244 0  -0.5428337834349202 -1.529331700095387 0  -0.3825054160011833 -1.590917281694263 0  -0.2111359590571052 -1.603226649359366 0  -0.04730563797300867 -1.620510135689607 0  0.1442289821273153 -1.618416426065918 0  0.2926936953603389 -1.610195495771001 0  0.4732424044850804 -1.578582242852402 0  0.6394240134272386 -1.510999569783145 0  0.7625818468413944 -1.36917793397764 0  0.9401199565249809 -1.417938695768355 0  1.122596447503583 -1.3117674725431 0  1.311788462694656 -1.252412807132445 0  1.408708410077769 -1.049612696249232 0  1.498829897765871 -0.9027672450433275 0  1.814533988653579 -0.9565189258056396 0  1.91463791856281 -0.7483305654076886 0  1.904961803840842 -0.5263545554035045 0  2.304345034513458 -0.4666769046538268 0  2.251085615225062 -0.1651772405508457 0  -2.449920017590041 4.92019830113453 0  -2.449881526423217 -4.912746977883742 0  4.911042598363382 2.448155949952159 0  4.919078294802942 -2.449482174664594 0  2.447814214457322 -4.898316274165182 0  2.44223618599831 4.902072171773185 0  -4.911094102832783 -2.448183190714518 0  -4.911134574100677 2.44818145586449 0  -1.750223940172862 4.914389538073076 0  -1.745916439136839 -4.91766387513655 0  4.920607985656257 1.743794971276851 0  4.909066311657868 -1.747678202408009 0  -4.909477288961372 -1.747386992238262 0  -4.910330226156783 1.747128549642518 0  1.747656264288359 4.908469159028167 0  1.749223983669036 -4.896972115191286 0  -1.150355358453897 4.913291438442537 0  -1.131066803552428 -4.9206732602382 0  -4.908343202383213 -1.147436564353697 0  -4.908170210423463 1.147229216595899 0  1.145240323911071 -4.917076736933365 0  1.1503695046204 4.91323251052106 0  4.908440800517379 1.145687734537613 0  4.919317396363066 -1.151397031033334 0  -0.547483986580127 -4.915032488429733 0  -0.5471960456645389 4.923325407987167 0  -4.906203522585383 -0.5483059368841109 0  -4.906231543604557 0.546850714181865 0  4.905340786781275 -0.5486405685810412 0  4.917288157912343 0.5453263665627864 0  0.5434525256648214 -4.902600522081533 0  0.5519583880995318 4.920324956330662 0  -4.912661583348288 -3.048743491889508 0  4.919185183816503 3.046690540673338 0  4.912140467692277 -3.048694163336224 0  -4.913534261006841 3.045817292815423 0  3.056257036719202 -4.91878183907639 0  -3.049659694205757 -4.912763852735999 0  3.053212124850775 4.914871219505917 0  -3.049134816089229 4.913708195314153 0  -4.904954800829646 -0.04986635876303895 0  0.0452107307674998 -4.917105505679863 0  0.04963758469554183 4.92379890365678 0  4.912060483290813 -0.0512860576577512 0  3.546233681493896 -4.919920059473607 0  -3.549606497500391 4.912967772804777 0  -3.549572639151465 -4.912983971739881 0  4.91
[...]
<PointData  Vectors="f_8024"> 
<DataArray  type="Float64"  Name="f_8024"  NumberOfComponents="3" format="ascii">-1.5705283542744070e-01 -1.8326086225925356e-01 0.0000000000000000e+00  1.7128428488810410e-01 -1.4489658366437413e-01 0.0000000000000000e+00  9.9204326229926559e-02 1.1588974981216651e-01 0.0000000000000000e+00  -1.6431128775872325e-01 1.8760651329206221e-01 0.0000000000000000e+00  8.4690649376445108e+00 -8.1533582553472286e+00 0.0000000000000000e+00  6.0428223777574744e-02 -1.3880925586678752e+00 0.0000000000000000e+00  5.0939684878932953e-02 -2.2532920685479847e+00 0.0000000000000000e+00  5.3822141499854523e-02 -3.7192095594134744e+00 0.0000000000000000e+00  4.1255543116382729e-02 -4.5972942146714910e+00 0.0000000000000000e+00  -1.0066748578489540e-01 -5.9718829088394534e+00 0.0000000000000000e+00  2.0389758433656226e-02 -7.3346726136051377e+00 0.0000000000000000e+00  3.5736176144045999e-02 -8.3618904237928859e+00 0.0000000000000000e+00  -1.6775024758814636e-02 -9.6163975273044162e+00 0.0000000000000000e+00  6.2739439054513832e-02 -1.0595425416753875e+01 0.0000000000000000e+00  6.3097337155916214e-02 -1.2022009685781397e+01 0.0000000000000000e+00  -9.5735785516816805e-03 -1.2974367863213418e+01 0.0000000000000000e+00  -1.7141446512444244e-02 -1.4224989442998472e+01 0.0000000000000000e+00  7.7315753948008241e-03 -1.5442018590093312e+01 0.0000000000000000e+00  5.2815028261581267e-03 -1.6590489409035815e+01 0.0000000000000000e+00  -6.4002348424661518e-03 -1.7757147578488535e+01 0.0000000000000000e+00  4.1650033791050464e-03 -1.8970538874344765e+01 0.0000000000000000e+00  2.4840000327853603e-02 -2.0140916230529509e+01 0.0000000000000000e+00  -3.3130262614828807e-03 -2.1068972713647643e+01 0.0000000000000000e+00  -8.0756152560437708e-03 -2.2348617884233988e+01 0.0000000000000000e+00  -3.1933572800346470e-02 -2.3626893807736529e+01 0.0000000000000000e+00  8.3356315825742947e-02 -2.4526268939646368e+01 0.0000000000000000e+00  3.7272234955609301e-02 -2.5825277410548598e+01 0.0000000000000000e+00  4.4409785809168094e-02 -2.6668485581165520e+01 0.0000000000000000e+00  7.3629689717302674e-02 -2.7912230385668881e+01 0.0000000000000000e+00  -3.4469179423709126e-02 -2.8784746241800235e+01 0.0000000000000000e+00  -1.1483802071575420e-02 -2.9978543220087584e+01 0.0000000000000000e+00  -4.2382717836488689e-03 -3.1090918761575704e+01 0.0000000000000000e+00  5.3655367146734217e-02 -3.1875646379238535e+01 0.0000000000000000e+00  3.9368063839622103e-02 -3.3068415400533432e+01 0.0000000000000000e+00  3.8832726103670577e-02 -3.3774068660093775e+01 0.0000000000000000e+00  -8.7383043281075726e-02 -3.4849649974415335e+01 0.0000000000000000e+00  3.8086209937482629e-02 -3.5858357508458461e+01 0.0000000000000000e+00  5.8704508934975027e-03 -3.6587533380083912e+01 0.0000000000000000e+00  -1.2015347359148553e-03 -3.7405452352188377e+01 0.0000000000000000e+00  -1.3956756423679280e-03 -3.8189258620305253e+01 0.0000000000000000e+00  6.4735598430400963e-03 -3.8936907490181348e+01 0.0000000000000000e+00  -3.7349242371836087e-02 -3.9711556601843370e+01 0.0000000000000000e+00  4.5429750603583362e-02 -4.0296589024731126e+01 0.0000000000000000e+00  2.4628269283835401e-02 -4.0902380950070452e+01 0.0000000000000000e+00  1.8735809436137344e-02 -4.1520644399410678e+01 0.0000000000000000e+00  -1.0309447440285432e-02 -4.2054884024588006e+01 0.0000000000000000e+00  4.3925439750022534e-02 -4.2419175816690732e+01 0.0000000000000000e+00  -3.2531919174835215e-02 -4.2915060952390213e+01 0.0000000000000000e+00  1.8088888380097774e-02 -4.3323447459808705e+01 0.0000000000000000e+00  -3.8884442985172405e-03 -4.3575284433454613e+01 0.0000000000000000e+00  1.3310751164919592e-03 -4.3841585363397805e+01 0.0000000000000000e+00  -9.3439328564627112e-04 -4.4040162034582821e+01 0.0000000000000000e+00  4.2469684899903559e-04 -4.4182540882724531e+01 0.0000000000000000e+00  2.2591861737345499e-04 -4.4266930418375821e+01 0.0000000000000000e+00  1.9069457557164325e-03 -4.4293934220959414e+01 0.0000000000000000e+00  6.4469122916777566e-04 -4.4274572179119041e+01 0.0000000000000000e+00  8.3630959232569597e-03 -4.4177438666941420e+01 0.0000000000000000e+00  -1.1439292924112870e-02 -4.3998360566146637e+01 0.0000000000000000e+00  -5.7918241658667284e-03 -4.3843125556434245e+01 0.0000000000000000e+00  -2.2049974338710643e-02 -4.3525581329957419e+01 0.0000000000000000e+00  7.2600075972725350e-03 -4.3267035004377163e+01 0.0000000000000000e+00  6.1196876971279625e-03 -4.2877227040727583e+01 0.0000000000000000e+00  -4.4860332931719767e-03 -4.2435013651203214e+01 0.0000000000000000e+00  -9.4912902425316810e-04 -4.1972275049585207e+01 0.0000000000000000e+00  5.5896790500668102e-03 -4.1440057310700631e+01 0.0000000000000000e+00  -1.2615719251418403e-02 -4.0863628510322144e+01 0.0000000000000000e+00  -7.7465014627430551e-03 -4.0220001148077316e+01 0.0000000000000000e+00  8.5738942598941846e-03 -3.9638869107829841e+01 0.0000000000000000e+00  -2.0553868478881444e-02 -3.8867144621145052e+01 0.0000000000000000e+00  2.3925625076175575e-02 -3.8110082910355018e+01 0.0000000000000000e+00  -3.0598650735732275e-02 -3.7330389315216458e+01 0.0000000000000000e+00  5.5963141910047188e-03 -3.6461646035839749e+01 0.0000000000000000e+00  1.5062205143207693e-02 -3.5676579440643827e+01 0.0000000000000000e+00  -2.1979220656348632e-02 -3.4748690599251091e+01 0.0000000000000000e+00  1.5540040069676979e-02 -3.3804714660266342e+01 0.0000000000000000e+00  -1.1730566249257760e-02 -3.2849626181600655e+01 0.0000000000000000e+00  5.0598900496770126e-03 -3.1890604735205947e+01 0.0000000000000000e+00  -2.1304696402639656e-02 -3.0903771928817676e+01 0.0000000000000000e+00  -6.8969112286032790e-03 -2.9829269748071056e+01 0.0000000000000000e+00  9.6278421178111473e-03 -2.8934426091601832e+01 0.0000000000000000e+00  1.8091260447461153e-03 -2.7804700057756961e+01 0.0000000000000000e+00  8.6535309216416376e-03 -2.6706615642302701e+01 0.0000000000000000e+00  -3.1071183788342189e-02 -2.5634311561135039e+01 0.0000000000000000e+00  -1.1549260714584796e-02 -2.4425212840661871e+01 0.0000000000000000e+00  2.0179488834031471e-02 -2.3433536613146416e+01 0.0000000000000000e+00  -3.0585842007397942e-02 -2.2220709086935539e+01 0.0000000000000000e+00  1.5309568025103817e-03 -2.1141290078365813e+01 0.0000000000000000e+00  1.1846242319656081e-02 -2.0036022868368878e+01 0.0000000000000000e+00  1.2909500275685831e-02 -1.8814341569362089e+01 0.0000000000000000e+00  -3.6350054864257977e-02 -1.7700063894857482e+01 0.0000000000000000e+00  6.9543147096290843e-03 -1.6461443697885748e+01 0.0000000000000000e+00  8.2922357888638998e-03 -1.5412782259041354e+01 0.0000000000000000e+00  -2.8962354880942863e-02 -1.4150153478982329e+01 0.0000000000000000e+00  -5.9405950290982357e-04 -1.3031832249717505e+01 0.0000000000000000e+00  1.5941829073980496e-02 -1.1825131376179185e+01 0.0000000000000000e+00  -9.0847237729631150e-04 -1.0629515016225666e+01 0.0000000000000000e+00  -1.5679500209565510e-02 -9.4754186954191244e+00 0.0000000000000000e+00  -1.2155854091271368e-02 -8.2453151475941127e+00 0.0000000000000000e+00  2.3456979294287281e-02 -7.1945141914996658e+00 0.0000000000000000e+00  -3.5602594842575455e-02 -5.9199513280165332e+00 0.0000000000000000e+00  8.5441415705370585e-03 -4.7633075416082837e+00 0.0000000000000000e+00  1.9593524129652342e-02 -3.5465973217230475e+00 0.0000000000000000e+00  -3.0563879921290438e-02 -2.3551535341381449e+00 0.0000000000000000e+00  -3.7569161387311943e-02 -1.3633712709156729e+00 0.0000000000000000e+00  1.4188946410861780e+00 3.4061359413994595e-02 0.0000000000000000e+00  2.2766757041071726e+00 8.6999630162702221e-02 0.0000000000000000e+00  3.6643161720059805e+00 6.3617184113278533e-02 0.0000000000000000e+00  4.6832804358451128e+00 -1.9493237132925112e-02 0.0000000000000000e+00  5.9517994665528446e+00 9.1691491993487074e-03 0.0000000000000000e+00  7.1203711367424969e+00 -6.6074652492652533e-03 0.0000000000000000e+00  8.3055964893739578e+00 1.2756449205777235e-03 0.0000000000000000e+00  9.4963037876771050e+00 -1.9722480128009068e-03 0.0000000000000000e+00  1.0678820294345181e+01 5.4965356889095549e-04 0.0000000000000000e+00  1.1888388402090627e+01 -3.8759777628426245e-04 0.0000000000000000e+00  1.3060337530469267e+01 -4.1772176704941755e-05 0.0000000000000000e+00  1.4263203566107181e+01 3.9872878837713928e-03 0.0000000000000000e+00  1.5415703370071304e+01 1.6773165383556026e-03 0.0000000000000000e+00  1.6648550697868728e+01 -8.0901647231248798e-03 0.0000000000000000e+00  1.7806692163099861e+01 4.0826945246178123e-03 0.0000000000000000e+00  1.9032248384608181e+01 3.3705674277758908e-03 0.0000000000000000e+00  2.0181073975137899e+01 -3.5067360528488510e-03 0.0000000000000000e+00  2.1343933040999275e+01 8.0450751851101863e-03 0.0000000000000000e+00  2.2561105760360302e+01 -8.0086495090542845e-03 0.0000000000000000e+00  2.3696214301259911e+01 -5.3432603810329091e-03 0.0000000000000000e+00  2.4887157488846810e+01 1.0964754434746394e-02 0.0000000000000000e+00  2.6054313359868882e+01 -1.1987375139413005e-02 0.0000000000000000e+00  2.7137989946680243e+01 8.6184029745715561e-03 0.0000000000000000e+00  2.8296703825649882e+01 1.9042498277029700e-03 0.0000000000000000e+00  2.9442492816159504e+01 5.1364334456218182e-03 0.0000000000000000e+00  3.0567459860162714e+01 -3.1780805678038333e-03 0.0000000000000000e+00  3.1654147574537049e+01 -2.2458865989338954e-03 0.0000000000000000e+00  3.2712993540059408e+01 -1.6860820858882563e-03 0.0000000000000000e+00  3.3765794191682907e+01 6.5382480075827214e-05 0.0000000000000000e+00  3.4795917797585183e+01 -4.4425996780184731e-04 0.0000000000000000e+00  3.5801056706795123e+01 2.0537443338056139e-04 0.0000000000000000e+00  3.6777017589963009e+01 -2.5183311149836653e-03 0.0000000000000000e+00  3.7712225455560095e+01 -1.0148709549453545e-03 0.0000000000000000e+00  3.8639668952752906e+01 4.8027254760456949e-03 0.0000000000000000e+00  3.9530099122542055e+01 -7.6942163162627680e-03 0.0000000000000000e+00  4.0325930584310989e+01 7.8811523021616418e-03 0.0000000000000000e+00  4.1132554145233392e+01 -8.7625960431659091e-04 0.0000000000000000e+00  4.1877717197070339e+01 9.0333638162037686e-03 0.0000000000000000e+00  4.2567495761580730e+01 1.1310003059040537e-02 0.0000000000000000e+00  4.3256016455606364e+01 -3.4192008029003018e-02 0.0000000000000000e+00  4.3902711901316493e+01 2.5044738734035954e-02 0.0000000000000000e+00  4.4391795957579838e+01 -1.0813228840210382e-02 0.0000000000000000e+00  4.4897011634616391e+01 1.4500859842128051e-03 0.0000000000000000e+00  4.5326112969256528e+01 -3.4098310802470493e-03 0.0000000000000000e+00  4.5672784473600075e+01 7.4831254433594665e-03 0.0000000000000000e+00  4.5973717552241482e+01 -1.2515327427127414e-03 0.0000000000000000e+00  4.6218222198027568e+01 5.9802835981092749e-04 0.0000000000000000e+00  4.6391581475556350e+01 -8.2424258537086516e-04 0.0000000000000000e+00  4.6496571293357434e+01 -3.4636884256514423e-04 0.0000000000000000e+00  4.6530595470362869e+01 7.6918065659480853e-04 0.0000000000000000e+00  4.6499225839569867e+01 7.0121261301736028e-04 0.0000000000000000e+00  4.6403488697281908e+01 -1.8939365404262208e-03 0.0000000000000000e+00  4.6233837483209570e+01 2.0693821913162313e-03 0.0000000000000000e+00  4.5998261004374164e+01 1.4644293684235935e-04 0.0000000000000000e+00  4.5708600448936451e+01 -3.6249295083917821e-03 0.0000000000000000e+00  4.5341270847027737e+01 4.2475455012072139e-03 0.0000000000000000e+00  4.4909512356317634e+01 -2.2068787064119600e-04 0.0000000000000000e+00  4.4430173622357714e+01 -4.9049843232290549e-03 0.0000000000000000e+00  4.3871270435567958e+01 1.0385005145972261e-03 0.0000000000000000e+00  4.3283189756826673e+01 2.5945941240272676e-03 0.0000000000000000e+00  4.2630583727108252e+01 -3.3917817642802289e-03 0.0000000000000000e+00  4.1952726848540181e+01 1.1965918210858613e-04 0.0000000000000000e+00  4.1185720391033186e+01 2.3616071203986103e-03 0.0000000000000000e+00  4.0395567538067958e+01 -2.1864237757205024e-03 0.0000000000000000e+00  3.9578815062541949e+01 7.8069066827284438e-03 0.0000000000000000e+00  3.8672599218643263e+01 -5.7904118999376562e-03 0.0000000000000000e+00  3.7782847610065225e+01 -7.5307728376357791e-03 0.0000000000000000e+00  3.6824175464192621e+01 9.8176128373415068e-03 0.0000000000000000e+00  3.5823020949415493e+01 -2.6486928747227710e-03 0.0000000000000000e+00  3.4826454356382655e+01 -5.0846797772858996e-03 0.0000000000000000e+00  3.3787959455681730e+01 4.2658116813730660e-03 0.0000000000000000e+00  3.2735552915850697e+01 3.8578714989582581e-03 0.0000000000000000e+00  3.1653150546532054e+01 -8.5962917868659199e-04 0.0000000000000000e+00  3.0565955715115404e+01 2.1796076129110197e-05 0.0000000000000000e+00  2.9458421152719566e+01 2.3498575445638293e-03 0.0000000000000000e+00  2.8330017892511286e+01 -1.3822471756264529e-03 0.0000000000000000e+00  2.7218598340886448e+01 -2.2523373313409483e-03 0.0000000000000000e+00  2.6089927721582459e+01 7.0342012467883323e-03 0.0000000000000000e+00  2.4893049331340560e+01 -9.4894351994777287e-03 0.0000000000000000e+00  2.3727105102016740e+01 -9.5961639660680300e-04 0.0000000000000000e+00  2.2558392397080119e+01 -1.0076241971230535e-03 0.0000000000000000e+00  2.1421621203129483e+01 -3.2498510104275236e-04 0.0000000000000000e+00  2.0242128819807334e+01 9.7204602845050638e-03 0.0000000000000000e+00  1.9015155299262574e+01 -8.4520010637289845e-03 0.0000000000000000e+00  1.7828459689244674e+01 -1.0440453735764581e-03 0.0000000000000000e+00  1.6638427686190035e+01 6.4834671255426793e-04 0.0000000000000000e+00  1.5423424870909093e+01 4.1020554856138576e-03 0.0000000000000000e+00  1.4266627974504111e+01 1.7999322407705827e-03 0.0000000000000000e+00  1.3057264749299375e+01 -2.5893724051957809e-03 0.0000000000000000e+00  1.1879013029232590e+01 1.1676152042993727e-03 0.0000000000000000e+00  1.0689519039610470e+01 4.0550428001504095e-03 0.0000000000000000e+00  9.5239682840874540e+00 -1.4746013317128328e-03 0.0000000000000000e+00  8.3105172295063490e+00 -3.6316328033367466e-03 0.0000000000000000e+00  7.1219082007230696e+00 6.8673829372125151e-03 0.0000000000000000e+00  5.9549205658014683e+00 -1.1822956928779573e-02 0.0000000000000000e+00  4.7961512581430501e+00 -4.9929330854795321e-03 0.0000000000000000e+00  3.5977401953084174e+00 1.6373787918547430e-02 0.0000000000000000e+00  2.3613348208948368e+00 3.2482307907531733e-04 0.0000000000000000e+00  1.2833229758207396e+00 -4.2858803529106489e-02 0.0000000000000000e+00  -6.8953324592719398e-02 1.3251277071889300e+00 0.0000000000000000e+00  1.7293054682676799e-02 2.3010999540405446e+00 0.0000000000000000e+00  -2.9230241994750689e-02 3.5439866219590126e+00 0.0000000000000000e+00  -2.2917655893612988e-02 4.5581764732000059e+00 0.0000000000000000e+00  9.9399724486108718e-02 5.9248053041390891e+00 0.0000000000000000e+00  -2.4456273237733719e-02 7.3076846967725189e+00 0.0000000000000000e+00  -7.1350617652310253e-02 8.1714263911222051e+00 0.0000000000000000e+00  -1.0110485820556299e-01 9.5621767462273493e+00 0.0000000000000000e+00  2.8712841086029121e-02 1.0529104758532634e+01 0.0000000000000000e+00  3.1588970432333427e-02 1.1834884491367367e+01 0.0000000000000000e+00  -2.9275283294841321e-02 1.3018898099843184e+01 0.0000000000000000e+00  2.1071874306650619e-02 1.4152715956552926e+01 0.0000000000000000e+00  5.2661181795864934e-03 1.5431928827587994e+01 0.0000000000000000e+00  -4.3022874593899273e-03 1.6438078101228239e+01 0.0000000000000000e+00  -1.3486352301446699e-02 1.7676740116075084e+01 0.0000000000000000e+00  -5.8262329500318420e-03 1.8790919642551948e+01 0.0000000000000000e+00  1.5983519638157150e-02 1.9983487547929030e+01 0.0000000000000000e+00  -5.2146991788037094e-03 2.1163931451265597e+01 0.0000000000000000e+00  -1.1990448830443336e-02 2.2260130826376997e+01 0.0000000000000000e+00  -2.9615519793288838e-03 2.3450093494509897e+01 0.0000000000000000e+00  -1.1727739816362395e-02 2.4384006291725388e+01 0.0000000000000000e+00  2.5543491618002165e-02 2.5617691010692532e+01 0.0000000000000000e+00  -2.1399381161283659e-02 2.6673555424151630e+01 0.0000000000000000e+00  2.5209329479808203e-02 2.7752351086189037e+01 0.0000000000000000e+00  8.4558043372400405e-03 2.8887507601898072e+01 0.0000000000000000e+00  -5.8556820208224065e-02 2.9721739981570206e+01 0.0000000000000000e+00  -4.8845105403119975e-02 3.0944794055512620e+01 0.0000000000000000e+00  9.9428822146667636e-03 3.1761921273838752e+01 0.0000000000000000e+00  -3.1336062998826159e-02 3.2788424203588335e+01 0.0000000000000000e+00  -1.5603142881831237e-02 3.3603207746742576e+01 0.0000000000000000e+00  7.6818810776940707e-02 3.4650329652696286e+01 0.0000000000000000e+00  -2.7021527270417001e-02 3.5674228443168595e+01 0.0000000000000000e+00  -4.0313966910585371e-02 3.6316685421264303e+01 0.0000000000000000e+00  -4.4657595903649490e-02 3.7297940313251139e+01 0.0000000000000000e+00  5.9895230133449710e-03 3.7908463736640776e+01 0.0000000000000000e+00  1.3653335425116729e-02 3.8747057090721697e+01 0.0000000000000000e+00  -5.6661405193850862e-03 3.9470710959495335e+01 0.0000000000000000e+00  -1.6646276203584481e-03 4.0109495126587461e+01 0.0000000000000000e+00  1.2219942538586465e-03 4.0721065548168013e+01 0.0000000000000000e+00  1.4128624172295942e-03 4.1312838367513507e+01 0.0000000000000000e+00  -1.0582347985957858e-02 4.1840191921831902e+01 0.0000000000000000e+00  7.5793302570539194e-04 4.2220369254037315e+01 0.0000000000000000e+00  -5.7307881209792057e-04 4.2691021919651043e+01 0.0000000000000000e+00  4.5736377660668074e-03 4.3067334887682271e+01 0.0000000000000000e+00  -8.3248651266784098e-03 4.3369246200881371e+01 0.0000000000000000e+00  8.0592291890785317e-03 4.3638499748174816e+01 0.0000000000000000e+00  -2.8333380838137107e-03 4.3820230599938256e+01 0.0000000000000000e+00  -7.2184378658710514e-03 4.3975968170336209e+01 0.0000000000000000e+00  1.7263568097519103e-03 4.4058090538853364e+01 0.0000000000000000e+00  1.7314508549628946e-03 4.4091988468477453e+01 0.0000000000000000e+00  7.4000106985270203e-03 4.4053492091789330e+01 0.0000000000000000e+00  -8.3135140507912368e-03 4.3973200686927491e+01 0.0000000000000000e+00  3.7464468181631762e-03 4.3830675833175718e+01 0.0000000000000000e+00  -6.7437361532291145e-03 4.3622979305134500e+01 0.0000000000000000e+00  9.6003593996792681e-03 4.3366233492684827e+01 0.0000000000000000e+00  -8.5059954790993111e-03 4.3027595547815153e+01 0.0000000000000000e+00  1.8752627460910814e-02 4.2720250847205229e+01 0.0000000000000000e+00  2.1572530144610094e-02 4.2212314837046669e+01 0.0000000000000000e+00  1.2570598809138590e-02 4.1846666703339714e+01 0.0000000000000000e+00  4.4372937060593344e-02 4.1244653252577592e+01 0.0000000000000000e+00  -2.1621654116032764e-02 4.0786238810115769e+01 0.0000000000000000e+00  -7.6332181601304911e-03 4.0099752357851507e+01 0.0000000000000000e+00  8.6572428436170398e-03 3.9407670895271245e+01 0.0000000000000000e+00  -1.9395418202253129e-03 3.8730098339289469e+01 0.0000000000000000e+00  -6.5989951462140639e-04 3.7992881138147908e+01 0.0000000000000000e+00  -2.8481973599756528e-03 3.7195049352556758e+01 0.0000000000000000e+00  3.3384264450669501e-03 3.6388669912299996e+01 0.0000000000000000e+00  -1.6397906429487265e-02 3.5528093426162009e+01 0.0000000000000000e+00  3.0350432843579175e-02 3.4644016187799018e+01 0.0000000000000000e+00  -2.1402422018737422e-02 3.3656170211697763e+01 0.0000000000000000e+00  2.3842574466252809e-02 3.2842449333291043e+01 0.0000000000000000e+00  6.2585863963974392e-03 3.1878054596683057e+01 0.0000000000000000e+00  -2.5985386851973657e-02 3.0837884451039663e+01 0.0000000000000000e+00  1.7154826526814916e-02 2.9808764330909248e+01 0.0000000000000000e+00  -2.1574572332906557e-02 2.8788118719991520e+01 0.0000000000000000e+00  1.0619839098170835e-02 2.7677608677003832e+01 0.0000000000000000e+00  -4.5605165398151246e-03 2.6597339256145467e+01 0.0000000000000000e+00  4.4842975505517080e-02 2.5696038816677373e+01 0.0