<?xml version="1.0"?>
<VTKFile type="UnstructuredGrid"  version="0.1"  >
<UnstructuredGrid>
<Piece  NumberOfPoints="11902" NumberOfCells="23402">
<Points>
<DataArray  type="Float64"  NumberOfComponents="3"  format="ascii">-5 -5 0  5 -5 0  5 5 0  -5 5 0  2.021254625411053 0.0108884130076458 0  -4.9 -5 0  -4.8 -5 0  -4.7 -5 0  -4.6 -5 0  -4.5 -5 0  -4.4 -5 0  -4.3 -5 0  -4.2 -5 0  -4.1 -5 0  -4 -5 0  -3.9 -5 0  -3.8 -5 0  -3.7 -5 0  -3.6 -5 0  -3.5 -5 0  -3.4 -5 0  -3.3 -5 0  -3.2 -5 0  -3.1 -5 0  -3 -5 0  -2.9 -5 0  -2.8 -5 0  -2.7 -5 0  -2.6 -5 0  -2.5 -5 0  -2.4 -5 0  -2.3 -5 0  -2.2 -5 0  -2.1 -5 0  -2 -5 0  -1.9 -5 0  -1.8 -5 0  -1.7 -5 0  -1.6 -5 0  -1.5 -5 0  -1.4 -5 0  -1.3 -5 0  -1.2 -5 0  -1.1 -5 0  -1 -5 0  -0.9000000000000004 -5 0  -0.7999999999999998 -5 0  -0.7000000000000002 -5 0  -0.5999999999999996 -5 0  -0.5 -5 0  -0.4000000000000004 -5 0  -0.2999999999999998 -5 0  -0.2000000000000002 -5 0  -0.09999999999999964 -5 0  0 -5 0  0.09999999999999964 -5 0  0.2000000000000002 -5 0  0.2999999999999998 -5 0  0.4000000000000004 -5 0  0.5 -5 0  0.5999999999999996 -5 0  0.7000000000000002 -5 0  0.7999999999999998 -5 0  0.9000000000000004 -5 0  1 -5 0  1.1 -5 0  1.2 -5 0  1.3 -5 0  1.4 -5 0  1.5 -5 0  1.6 -5 0  1.7 -5 0  1.8 -5 0  1.9 -5 0  2 -5 0  2.1 -5 0  2.2 -5 0  2.3 -5 0  2.4 -5 0  2.5 -5 0  2.6 -5 0  2.7 -5 0  2.8 -5 0  2.9 -5 0  3 -5 0  3.1 -5 0  3.199999999999999 -5 0  3.300000000000001 -5 0  3.4 -5 0  3.5 -5 0  3.6 -5 0  3.699999999999999 -5 0  3.800000000000001 -5 0  3.9 -5 0  4 -5 0  4.1 -5 0  4.199999999999999 -5 0  4.300000000000001 -5 0  4.4 -5 0  4.5 -5 0  4.6 -5 0  4.699999999999999 -5 0  4.800000000000001 -5 0  4.9 -5 0  5 -4.9 0  5 -4.8 0  5 -4.7 0  5 -4.6 0  5 -4.5 0  5 -4.4 0  5 -4.3 0  5 -4.2 0  5 -4.1 0  5 -4 0  5 -3.9 0  5 -3.8 0  5 -3.7 0  5 -3.6 0  5 -3.5 0  5 -3.4 0  5 -3.3 0  5 -3.2 0  5 -3.1 0  5 -3 0  5 -2.9 0  5 -2.8 0  5 -2.7 0  5 -2.6 0  5 -2.5 0  5 -2.4 0  5 -2.3 0  5 -2.2 0  5 -2.1 0  5 -2 0  5 -1.9 0  5 -1.8 0  5 -1.7 0  5 -1.6 0  5 -1.5 0  5 -1.4 0  5 -1.3 0  5 -1.2 0  5 -1.1 0  5 -1 0  5 -0.9000000000000004 0  5 -0.7999999999999998 0  5 -0.7000000000000002 0  5 -0.5999999999999996 0  5 -0.5 0  5 -0.4000000000000004 0  5 -0.2999999999999998 0  5 -0.2000000000000002 0  5 -0.09999999999999964 0  5 0 0  5 0.09999999999999964 0  5 0.2000000000000002 0  5 0.2999999999999998 0  5 0.4000000000000004 0  5 0.5 0  5 0.5999999999999996 0  5 0.7000000000000002 0  5 0.7999999999999998 0  5 0.9000000000000004 0  5 1 0  5 1.1 0  5 1.2 0  5 1.3 0  5 1.4 0  5 1.5 0  5 1.6 0  5 1.7 0  5 1.8 0  5 1.9 0  5 2 0  5 2.1 0  5 2.2 0  5 2.3 0  5 2.4 0  5 2.5 0  5 2.6 0  5 2.7 0  5 2.8 0  5 2.9 0  5 3 0  5 3.1 0  5 3.199999999999999 0  5 3.300000000000001 0  5 3.4 0  5 3.5 0  5 3.6 0  5 3.699999999999999 0  5 3.800000000000001 0  5 3.9 0  5 4 0  5 4.1 0  5 4.199999999999999 0  5 4.300000000000001 0  5 4.4 0  5 4.5 0  5 4.6 0  5 4.699999999999999 0  5 4.800000000000001 0  5 4.9 0  4.9 5 0  4.8 5 0  4.7 5 0  4.6 5 0  4.5 5 0  4.4 5 0  4.3 5 0  4.2 5 0  4.1 5 0  4 5 0  3.9 5 0  3.8 5 0  3.7 5 0  3.6 5 0  3.5 5 0  3.4 5 0  3.3 5 0  3.2 5 0  3.1 5 0  3 5 0  2.9 5 0  2.8 5 0  2.7 5 0  2.6 5 0  2.5 5 0  2.4 5 0  2.3 5 0  2.2 5 0  2.1 5 0  2 5 0  1.9 5 0  1.8 5 0  1.7 5 0  1.6 5 0  1.5 5 0  1.4 5 0  1.3 5 0  1.2 5 0  1.1 5 0  1 5 0  0.9000000000000004 5 0  0.7999999999999998 5 0  0.7000000000000002 5 0  0.5999999999999996 5 0  0.5 5 0  0.4000000000000004 5 0  0.2999999999999998 5 0  0.2000000000000002 5 0  0.09999999999999964 5 0  0 5 0  -0.09999999999999964 5 0  -0.2000000000000002 5 0  -0.2999999999999998 5 0  -0.4000000000000004 5 0  -0.5 5 0  -0.5999999999999996 5 0  -0.7000000000000002 5 0  -0.7999999999999998 5 0  -0.9000000000000004 5 0  -1 5 0  -1.1 5 0  -1.2 5 0  -1.3 5 0  -1.4 5 0  -1.5 5 0  -1.6 5 0  -1.7 5 0  -1.8 5 0  -1.9 5 0  -2 5 0  -2.1 5 0  -2.2 5 0  -2.3 5 0  -2.4 5 0  -2.5 5 0  -2.6 5 0  -2.7 5 0  -2.8 5 0  -2.9 5 0  -3 5 0  -3.1 5 0  -3.199999999999999 5 0  -3.300000000000001 5 0  -3.4 5 0  -3.5 5 0  -3.6 5 0  -3.699999999999999 5 0  -3.800000000000001 5 0  -3.9 5 0  -4 5 0  -4.1 5 0  -4.199999999999999 5 0  -4.300000000000001 5 0  -4.4 5 0  -4.5 5 0  -4.6 5 0  -4.699999999999999 5 0  -4.800000000000001 5 0  -4.9 5 0  -5 4.9 0  -5 4.8 0  -5 4.7 0  -5 4.6 0  -5 4.5 0  -5 4.4 0  -5 4.3 0  -5 4.2 0  -5 4.1 0  -5 4 0  -5 3.9 0  -5 3.8 0  -5 3.7 0  -5 3.6 0  -5 3.5 0  -5 3.4 0  -5 3.3 0  -5 3.2 0  -5 3.1 0  -5 3 0  -5 2.9 0  -5 2.8 0  -5 2.7 0  -5 2.6 0  -5 2.5 0  -5 2.4 0  -5 2.3 0  -5 2.2 0  -5 2.1 0  -5 2 0  -5 1.9 0  -5 1.8 0  -5 1.7 0  -5 1.6 0  -5 1.5 0  -5 1.4 0  -5 1.3 0  -5 1.2 0  -5 1.1 0  -5 1 0  -5 0.9000000000000004 0  -5 0.7999999999999998 0  -5 0.7000000000000002 0  -5 0.5999999999999996 0  -5 0.5 0  -5 0.4000000000000004 0  -5 0.2999999999999998 0  -5 0.2000000000000002 0  -5 0.09999999999999964 0  -5 0 0  -5 -0.09999999999999964 0  -5 -0.2000000000000002 0  -5 -0.2999999999999998 0  -5 -0.4000000000000004 0  -5 -0.5 0  -5 -0.5999999999999996 0  -5 -0.7000000000000002 0  -5 -0.7999999999999998 0  -5 -0.9000000000000004 0  -5 -1 0  -5 -1.1 0  -5 -1.2 0  -5 -1.3 0  -5 -1.4 0  -5 -1.5 0  -5 -1.6 0  -5 -1.7 0  -5 -1.8 0  -5 -1.9 0  -5 -2 0  -5 -2.1 0  -5 -2.2 0  -5 -2.3 0  -5 -2.4 0  -5 -2.5 0  -5 -2.6 0  -5 -2.7 0  -5 -2.8 0  -5 -2.9 0  -5 -3 0  -5 -3.1 0  -5 -3.199999999999999 0  -5 -3.300000000000001 0  -5 -3.4 0  -5 -3.5 0  -5 -3.6 0  -5 -3.699999999999999 0  -5 -3.800000000000001 0  -5 -3.9 0  -5 -4 0  -5 -4.1 0  -5 -4.199999999999999 0  -5 -4.300000000000001 0  -5 -4.4 0  -5 -4.5 0  -5 -4.6 0  -5 -4.699999999999999 0  -5 -4.800000000000001 0  -5 -4.9 0  2.260378387831084 0.2421176007748155 0  1.971771018012513 0.3819835029392053 0  2.218279221235412 0.6612541909051169 0  1.790105523325903 0.7098453026806634 0  1.763799032241969 0.9358026222391337 0  1.547919946985363 1.028981948930668 0  1.448989962000575 1.228510147843267 0  1.210527055186598 1.151795393447362 0  1.134946090546771 1.346678276560684 0  0.9586123105313067 1.462762846215141 0  0.7861999070419621 1.484614503576876 0  0.6482646433794169 1.529460652666178 0  0.464888585402004 1.608730543467958 0  0.2990705692272695 1.636157806316542 0  0.1349926803109201 1.673247982241763 0  -0.02447996692259917 1.665222969850349 0  -0.2318878482845338 1.632079063456027 0  -0.396471367809642 1.631172053260538 0  -0.550940747958433 1.58261645361971 0  -0.7088742465740935 1.508333245609191 0  -0.8826725766865395 1.474291405771198 0  -1.037720996311259 1.364401703729217 0  -1.185409636976213 1.271935514699631 0  -1.428701646961238 1.274644530656434 0  -1.349786259868703 0.9892151812497344 0  -1.631653196141784 1.018311693054958 0  -1.86569332238364 0.8921308462241105 0  -1.860717370043929 0.6832580713949797 0  -2.067279822957484 0.5463567314529507 0  -2.148222349012541 0.3058657356033095 0  -2.195268890328694 0.07554726858082532 0  -1.955036376907857 -0.1355702723233955 0  -2.347323249608936 -0.3586417138722103 0  -1.972913479140014 -0.4642156479310606 0  -1.870062838541744 -0.6674435746358648 0  -1.888935728017217 -0.9107118691622543 0  -1.54529282197975 -0.8989449219327877 0  -1.534951747709744 -1.098134983413307 0  -1.370341873147521 -1.235041989490487 0  -1.177736354588754 -1.26698902819134 0  -1.039576213275512 -1.388862858208584 0  -0.8764143536881248 -1.49501957559638 0  -0.708197351974771 -1.536448749081119 0  -0.5434759744934565 -1.578973672017941 0  -0.385239539658041 -1.643850345719867 0  -0.2139195593385978 -1.645806056142296 0  -0.04941535960682626 -1.666995040872367 0  0.141625602302983 -1.662506301327955 0  0.294494315053179 -1.65357583169893 0  0.4748641401626797 -1.619408645129016 0  0.6343335419866932 -1.561116894701905 0  0.7861516761554775 -1.46774247722323 0  0.9592260393508595 -1.465168675869237 0  1.129525183554804 -1.35332462664259 0  1.295897713888307 -1.291955662757221 0  1.423253428865146 -1.150341519711491 0  1.553994569147195 -1.021070088940183 0  1.761856914331139 -0.9324102142009055 0  1.872174192634488 -0.7792228250693111 0  1.950869378208759 -0.5854090312989811 0  2.161694940111086 -0.4336215442663057 0  2.153429707366685 -0.2007684573882107 0  -2.449782264052833 4.920130234634133 0  -2.449746393147508 -4.912688421206592 0  4.91151011768337 2.448535900748514 0  4.919536741866796 -2.449866379529333 0  2.447661423727583 -4.898277468846934 0  2.442048732956031 4.902021056056729 0  -4.911543932712344 -2.448546761458118 0  -4.911586356327057 2.448552083196343 0  -1.749986714334971 4.914116240216751 0  -1.745691292863413 -4.917409763079144 0  4.921371235870583 1.744260182188132 0  4.909991654685961 -1.748179899589754 0  -4.910316904074011 -1.747868666288948 0  -4.911172509501867 1.74761001937007 0  1.747354778387097 4.908180769324434 0  1.748926823600566 -4.896696203525654 0  -1.150119052981115 4.912794467205142 0  -1.130846970507044 -4.920292185500198 0  -4.90956913430615 -1.147897230987479 0  -4.909414417711986 1.147688676328628 0  1.145021092832826 -4.916660196889643 0  1.150125961632072 4.912763299298191 0  4.909701043300406 1.146170080807259 0  4.920469804047009 -1.151845886261437 0  -0.5473628788770133 -4.914438230908291 0  -0.547079322316765 4.922761218278935 0  -4.90776857643989 -0.5485880260411423 0  -4.907807751745364 0.5471240247666579 0  4.907008114184238 -0.5489100298912268 0  4.918717478911186 0.5456102692206514 0  0.5432545707009556 -4.901951288779022 0  0.55183342874243 4.91973849622193 0  -4.912885724034018 -3.04897757971675 0  4.919397585697636 3.046925576524325 0  4.912398947447222 -3.048964521353546 0  -4.913756931740536 3.046056963194759 0  3.056237611416658 -4.91883317519823 0  -3.04961154210224 -4.912782152985177 0  3.053167523420338 4.914896258625844 0  -3.049093161684541 4.913735361938309 0  -4.906654164342766 -0.04990052268590574 0  0.04517774433153899 -4.91647828210814 0  0.04962426417539408 4.923199565152919 0  4.913690853375978 -0.05128997236454098 0  3.546263251965934 -4.919981206883829 0  -3.549617531420924 4.913012001381681 0  -3.549585143988348 -4.913025237192663 0  4.91
[...]
<PointData  Vectors="f_4460"> 
<DataArray  type="Float64"  Name="f_4460"  NumberOfComponents="3" format="ascii">-1.5682554846137886e-01 -1.8299814194679836e-01 0.0000000000000000e+00  1.7069369485899810e-01 -1.4440354850935791e-01 0.0000000000000000e+00  9.9752432157548157e-02 1.1652533345633928e-01 0.0000000000000000e+00  -1.6509468779045802e-01 1.8850599982607752e-01 0.0000000000000000e+00  8.4410852363129880e+00 -2.3018005789234297e+00 0.0000000000000000e+00  6.0371521162923762e-02 -1.3859648183977524e+00 0.0000000000000000e+00  5.0816017970648483e-02 -2.2499699518106522e+00 0.0000000000000000e+00  5.3819081240473320e-02 -3.7138257715055398e+00 0.0000000000000000e+00  4.1155944541185971e-02 -4.5908821837554088e+00 0.0000000000000000e+00  -1.0058588761434031e-01 -5.9642222504828819e+00 0.0000000000000000e+00  2.0438050636484208e-02 -7.3260765466432920e+00 0.0000000000000000e+00  3.5735004351451605e-02 -8.3529423487760024e+00 0.0000000000000000e+00  -1.6672558702390265e-02 -9.6074999346407690e+00 0.0000000000000000e+00  6.2575798998443191e-02 -1.0586935655644531e+01 0.0000000000000000e+00  6.3340626341589920e-02 -1.2014844397949739e+01 0.0000000000000000e+00  -9.6971200743770983e-03 -1.2968836457357119e+01 0.0000000000000000e+00  -1.7191567205246436e-02 -1.4222047993310106e+01 0.0000000000000000e+00  7.7524536147410795e-03 -1.5442405208416035e+01 0.0000000000000000e+00  5.2996398971010376e-03 -1.6594900835669737e+01 0.0000000000000000e+00  -6.4514407230854554e-03 -1.7766544804674581e+01 0.0000000000000000e+00  4.2216824617673379e-03 -1.8986052421178155e+01 0.0000000000000000e+00  2.4992585579314389e-02 -2.0163527158429819e+01 0.0000000000000000e+00  -3.4279544365632877e-03 -2.1097936907000353e+01 0.0000000000000000e+00  -8.1916377865822818e-03 -2.2387483316992157e+01 0.0000000000000000e+00  -3.2176335707982992e-02 -2.3677056600033769e+01 0.0000000000000000e+00  8.4212187003768466e-02 -2.4585365762191962e+01 0.0000000000000000e+00  3.7565128345074840e-02 -2.5898682723801020e+01 0.0000000000000000e+00  4.5154466346581226e-02 -2.6751889304074790e+01 0.0000000000000000e+00  7.4605181037897039e-02 -2.8012615266477106e+01 0.0000000000000000e+00  -3.5009480378981057e-02 -2.8897106708618033e+01 0.0000000000000000e+00  -1.1806647951753428e-02 -3.0109694168133213e+01 0.0000000000000000e+00  -4.3659723774481553e-03 -3.1240820962879187e+01 0.0000000000000000e+00  5.5031672966211073e-02 -3.2039976840623375e+01 0.0000000000000000e+00  3.9827858664604275e-02 -3.3255644637210551e+01 0.0000000000000000e+00  3.9903172537159345e-02 -3.3975957708667913e+01 0.0000000000000000e+00  -8.9571141912996768e-02 -3.5074427779326093e+01 0.0000000000000000e+00  3.8832182153122584e-02 -3.6106741237403966e+01 0.0000000000000000e+00  6.0863695840980342e-03 -3.6853960052257740e+01 0.0000000000000000e+00  -1.2629158661759004e-03 -3.7692876702041382e+01 0.0000000000000000e+00  -1.4601474496082685e-03 -3.8497740145728265e+01 0.0000000000000000e+00  6.7518179903336729e-03 -3.9266146014036174e+01 0.0000000000000000e+00  -3.8888912450333671e-02 -4.0063107397736800e+01 0.0000000000000000e+00  4.7418648665556312e-02 -4.0665459634503229e+01 0.0000000000000000e+00  2.5478127143940259e-02 -4.1289250144723127e+01 0.0000000000000000e+00  1.9381533644545642e-02 -4.1927141765833298e+01 0.0000000000000000e+00  -1.0905775490744772e-02 -4.2478751648155161e+01 0.0000000000000000e+00  4.5894382769069444e-02 -4.2854982995589104e+01 0.0000000000000000e+00  -3.3810608120383639e-02 -4.3366863587023545e+01 0.0000000000000000e+00  1.8746008721451671e-02 -4.3788609593838800e+01 0.0000000000000000e+00  -4.0239079002527527e-03 -4.4048415229580137e+01 0.0000000000000000e+00  1.3716429367046340e-03 -4.4323098437183752e+01 0.0000000000000000e+00  -9.6817913450881739e-04 -4.4527546068378655e+01 0.0000000000000000e+00  4.4667149339859172e-04 -4.4673598017385402e+01 0.0000000000000000e+00  2.5146857443384595e-04 -4.4759377691303982e+01 0.0000000000000000e+00  1.9652499048431267e-03 -4.4785592315851019e+01 0.0000000000000000e+00  6.2507768246514368e-04 -4.4763778518035544e+01 0.0000000000000000e+00  8.9349751364432694e-03 -4.4660550554923333e+01 0.0000000000000000e+00  -1.2111167306637829e-02 -4.4472269737609544e+01 0.0000000000000000e+00  -6.0060115579165857e-03 -4.4309532903923575e+01 0.0000000000000000e+00  -2.3265632766851629e-02 -4.3977850925023468e+01 0.0000000000000000e+00  7.5682996309650577e-03 -4.3708208354141071e+01 0.0000000000000000e+00  6.5082048413496012e-03 -4.3302204778474518e+01 0.0000000000000000e+00  -4.7533625179271254e-03 -4.2842148801318189e+01 0.0000000000000000e+00  -9.7058908111202975e-04 -4.2361778646215484e+01 0.0000000000000000e+00  5.8182024939500074e-03 -4.1809767339756831e+01 0.0000000000000000e+00  -1.3011410346941702e-02 -4.1212533320437913e+01 0.0000000000000000e+00  -8.2475288382191595e-03 -4.0547273563399671e+01 0.0000000000000000e+00  9.0315064222605199e-03 -3.9947441876813109e+01 0.0000000000000000e+00  -2.1495482699430905e-02 -3.9151133658161989e+01 0.0000000000000000e+00  2.4814825831473184e-02 -3.8371440829082253e+01 0.0000000000000000e+00  -3.1437810592657787e-02 -3.7569408748824195e+01 0.0000000000000000e+00  5.7271683972668838e-03 -3.6678164945273402e+01 0.0000000000000000e+00  1.5533733389927713e-02 -3.5873399949591963e+01 0.0000000000000000e+00  -2.2669927727273394e-02 -3.4922844651723636e+01 0.0000000000000000e+00  1.5990542768898421e-02 -3.3958001924515401e+01 0.0000000000000000e+00  -1.1958936631008004e-02 -3.2982970758447863e+01 0.0000000000000000e+00  5.1855300273076247e-03 -3.2005507957537304e+01 0.0000000000000000e+00  -2.1531304214255833e-02 -3.1001010091490613e+01 0.0000000000000000e+00  -7.0650566988285420e-03 -2.9909249888236847e+01 0.0000000000000000e+00  9.8386467591561576e-03 -2.9000909351755542e+01 0.0000000000000000e+00  1.8106343017032329e-03 -2.7855379346853674e+01 0.0000000000000000e+00  8.7685150651326347e-03 -2.6743833282541502e+01 0.0000000000000000e+00  -3.1377431062660915e-02 -2.5659636149465729e+01 0.0000000000000000e+00  -1.1471888395384889e-02 -2.4438857326556384e+01 0.0000000000000000e+00  2.0249488004656410e-02 -2.3438760440381795e+01 0.0000000000000000e+00  -3.0816428703009460e-02 -2.2216685418838058e+01 0.0000000000000000e+00  1.5927286243913954e-03 -2.1130483353120045e+01 0.0000000000000000e+00  1.1885299007938112e-02 -2.0019451301908216e+01 0.0000000000000000e+00  1.2969275011334611e-02 -1.8792546301962332e+01 0.0000000000000000e+00  -3.6428202048699648e-02 -1.7674464052388888e+01 0.0000000000000000e+00  7.1689495028999638e-03 -1.6432648432881347e+01 0.0000000000000000e+00  8.1203170776273821e-03 -1.5382205772261381e+01 0.0000000000000000e+00  -2.8957801367624117e-02 -1.4118475189379588e+01 0.0000000000000000e+00  -5.9031688791220960e-04 -1.2999852343972895e+01 0.0000000000000000e+00  1.5917637929127742e-02 -1.1793788730863804e+01 0.0000000000000000e+00  -8.9483905400926855e-04 -1.0599381351872411e+01 0.0000000000000000e+00  -1.5676168986860247e-02 -9.4469912166973895e+00 0.0000000000000000e+00  -1.2011077291660201e-02 -8.2192708432483599e+00 0.0000000000000000e+00  2.3266542165685852e-02 -7.1709332846439304e+00 0.0000000000000000e+00  -3.5486436727096830e-02 -5.8999513412841535e+00 0.0000000000000000e+00  8.5095219405425995e-03 -4.7467619810279649e+00 0.0000000000000000e+00  1.9476067431928118e-02 -3.5341042936014517e+00 0.0000000000000000e+00  -3.0458067293094155e-02 -2.3467558041414445e+00 0.0000000000000000e+00  -3.7473319323005232e-02 -1.3584163910961842e+00 0.0000000000000000e+00  1.4137094586975947e+00 3.3959622200056133e-02 0.0000000000000000e+00  2.2683998901345759e+00 8.6631092753607988e-02 0.0000000000000000e+00  3.6506595176777794e+00 6.3385382980402680e-02 0.0000000000000000e+00  4.6656664419370326e+00 -1.9391559771391054e-02 0.0000000000000000e+00  5.9288300595598296e+00 9.1373580686272445e-03 0.0000000000000000e+00  7.0921566494300077e+00 -6.5638042109887312e-03 0.0000000000000000e+00  8.2716683678716088e+00 1.2885662109704294e-03 0.0000000000000000e+00  9.4561743420248892e+00 -1.9385504437830537e-03 0.0000000000000000e+00  1.0632013036500354e+01 5.6389020626493541e-04 0.0000000000000000e+00  1.1834131436311234e+01 -3.6289288916329699e-04 0.0000000000000000e+00  1.2998219834502539e+01 -3.8186954464492051e-05 0.0000000000000000e+00  1.4192276699804930e+01 4.0169525519984789e-03 0.0000000000000000e+00  1.5335593191039457e+01 1.6629252892183116e-03 0.0000000000000000e+00  1.6557718881801918e+01 -7.9598133548294640e-03 0.0000000000000000e+00  1.7704951532432279e+01 4.0354828719803473e-03 0.0000000000000000e+00  1.8917986250363388e+01 3.3816406435796479e-03 0.0000000000000000e+00  2.0054077422510325e+01 -3.4107751885058251e-03 0.0000000000000000e+00  2.1203022056337467e+01 7.9360843779293557e-03 0.0000000000000000e+00  2.2404506975977736e+01 -7.8201206472723224e-03 0.0000000000000000e+00  2.3524030884090838e+01 -5.2556721073156601e-03 0.0000000000000000e+00  2.4697438922136453e+01 1.0803903729932427e-02 0.0000000000000000e+00  2.5846239277892167e+01 -1.1666641233503645e-02 0.0000000000000000e+00  2.6911890441756793e+01 8.3973054677820239e-03 0.0000000000000000e+00  2.8050079393933991e+01 1.9603247128448004e-03 0.0000000000000000e+00  2.9174197526222912e+01 5.0238081654727798e-03 0.0000000000000000e+00  3.0276762571322738e+01 -3.0457794925654921e-03 0.0000000000000000e+00  3.1340792602672394e+01 -2.1597682922746600e-03 0.0000000000000000e+00  3.2376660838883623e+01 -1.6073881630588171e-03 0.0000000000000000e+00  3.3405649618743702e+01 1.0728700892144287e-04 0.0000000000000000e+00  3.4411563688350753e+01 -3.9697781291110905e-04 0.0000000000000000e+00  3.5392247908624206e+01 2.3626058498834541e-04 0.0000000000000000e+00  3.6343826477754760e+01 -2.4021920507715073e-03 0.0000000000000000e+00  3.7255128822945387e+01 -9.7767057295961675e-04 0.0000000000000000e+00  3.8158277121646037e+01 4.6152714808443563e-03 0.0000000000000000e+00  3.9025011811490799e+01 -7.3134177520955525e-03 0.0000000000000000e+00  3.9799469453715133e+01 7.4547564993756258e-03 0.0000000000000000e+00  4.0584464338687731e+01 -7.4961840742656229e-04 0.0000000000000000e+00  4.1309544018154654e+01 8.5450816452434242e-03 0.0000000000000000e+00  4.1980607586177506e+01 1.0967257641812564e-02 0.0000000000000000e+00  4.2651536695866291e+01 -3.2866051644010047e-02 0.0000000000000000e+00  4.3281734913898113e+01 2.4067238151995587e-02 0.0000000000000000e+00  4.3759679241588380e+01 -1.0397785632099674e-02 0.0000000000000000e+00  4.4254025233373191e+01 1.4176379556126249e-03 0.0000000000000000e+00  4.4675317342629221e+01 -3.3211350326569351e-03 0.0000000000000000e+00  4.5017105932071082e+01 7.1456916756454953e-03 0.0000000000000000e+00  4.5315762229383786e+01 -1.2320143960992094e-03 0.0000000000000000e+00  4.5560469344304998e+01 5.6649838446221599e-04 0.0000000000000000e+00  4.5737121995429632e+01 -8.0736100294432093e-04 0.0000000000000000e+00  4.5848077616980795e+01 -2.9156336145851454e-04 0.0000000000000000e+00  4.5890892129170197e+01 6.1111936543783313e-04 0.0000000000000000e+00  4.5871344282196965e+01 7.4064723132888941e-04 0.0000000000000000e+00  4.5789435223548580e+01 -1.7006603931642471e-03 0.0000000000000000e+00  4.5636794239567976e+01 1.8320162290712762e-03 0.0000000000000000e+00  4.5420519472597810e+01 1.9676421997109157e-04 0.0000000000000000e+00  4.5151434252070175e+01 -3.3405947289663509e-03 0.0000000000000000e+00  4.4807527898025590e+01 3.9054335832448897e-03 0.0000000000000000e+00  4.4400961911413560e+01 -1.3608003436970078e-04 0.0000000000000000e+00  4.3947546891971882e+01 -4.6204119220717588e-03 0.0000000000000000e+00  4.3416717316518650e+01 9.9513294253912371e-04 0.0000000000000000e+00  4.2856236191985175e+01 2.4113730598245529e-03 0.0000000000000000e+00  4.2232409906919379e+01 -3.1447116554667144e-03 0.0000000000000000e+00  4.1582826649758289e+01 8.6326224968086016e-05 0.0000000000000000e+00  4.0845964191658808e+01 2.2181243729925610e-03 0.0000000000000000e+00  4.0084924185158037e+01 -2.0357590874907705e-03 0.0000000000000000e+00  3.9296538272677601e+01 7.3873446960511383e-03 0.0000000000000000e+00  3.8420103602485732e+01 -5.4810893110358626e-03 0.0000000000000000e+00  3.7557625439838560e+01 -7.2975654043050614e-03 0.0000000000000000e+00  3.6626437184628713e+01 9.4140795561597299e-03 0.0000000000000000e+00  3.5651915673991333e+01 -2.5746009188853019e-03 0.0000000000000000e+00  3.4679787388295402e+01 -4.8944951469631348e-03 0.0000000000000000e+00  3.3664804145451583e+01 4.0970517509907826e-03 0.0000000000000000e+00  3.2634589558461215e+01 3.6865830016491389e-03 0.0000000000000000e+00  3.1573109664862550e+01 -8.6413114989963684e-04 0.0000000000000000e+00  3.0504918588527961e+01 -1.6985716346831270e-05 0.0000000000000000e+00  2.9414954765779502e+01 2.2457308958520688e-03 0.0000000000000000e+00  2.8302843421608340e+01 -1.3954937187750393e-03 0.0000000000000000e+00  2.7205602450728392e+01 -2.2616504623068552e-03 0.0000000000000000e+00  2.6089763248343221e+01 6.8864771980276908e-03 0.0000000000000000e+00  2.4904925430675188e+01 -9.3858291882572761e-03 0.0000000000000000e+00  2.3748930296577154e+01 -9.8692858794939943e-04 0.0000000000000000e+00  2.2588612592080548e+01 -1.0350299656950908e-03 0.0000000000000000e+00  2.1458681088586239e+01 -3.6872130901077955e-04 0.0000000000000000e+00  2.0284908082526744e+01 9.6379291513026474e-03 0.0000000000000000e+00  1.9062531456624100e+01 -8.4168689352547843e-03 0.0000000000000000e+00  1.7878934610450745e+01 -1.0825261532570745e-03 0.0000000000000000e+00  1.6690818968919782e+01 6.0442342442588732e-04 0.0000000000000000e+00  1.5476638929287970e+01 4.0785893341686082e-03 0.0000000000000000e+00  1.4319629114171372e+01 1.7725583767165991e-03 0.0000000000000000e+00  1.3109121294121373e+01 -2.6087282679038079e-03 0.0000000000000000e+00  1.1928900697309347e+01 1.1432104099051406e-03 0.0000000000000000e+00  1.0736636087548801e+01 4.0530398960545028e-03 0.0000000000000000e+00  9.5676911397597841e+00 -1.4875002564234913e-03 0.0000000000000000e+00  8.3500917768582035e+00 -3.6578783457790979e-03 0.0000000000000000e+00  7.1568571039699478e+00 6.8768056169848006e-03 0.0000000000000000e+00  5.9848608674803829e+00 -1.1882638367689574e-02 0.0000000000000000e+00  4.8207304490456870e+00 -5.0309087687128613e-03 0.0000000000000000e+00  3.6164538909971591e+00 1.6448291299486082e-02 0.0000000000000000e+00  2.3737532112857478e+00 3.2073221199683616e-04 0.0000000000000000e+00  1.2900837133858900e+00 -4.3100707416508149e-02 0.0000000000000000e+00  -6.9353651165053487e-02 1.3321321806840420e+00 0.0000000000000000e+00  1.7374123658289442e-02 2.3133981795100693e+00 0.0000000000000000e+00  -2.9383480469013134e-02 3.5631537421450399e+00 0.0000000000000000e+00  -2.3051472172165625e-02 4.5831003294166663e+00 0.0000000000000000e+00  1.0003131132467236e-01 5.9579147711573377e+00 0.0000000000000000e+00  -2.4732527845541662e-02 7.3494900037678725e+00 0.0000000000000000e+00  -7.1654807960980157e-02 8.2190747139509099e+00 0.0000000000000000e+00  -1.0198898617579318e-01 9.6195893374269215e+00 0.0000000000000000e+00  2.9019724401177036e-02 1.0594209938589527e+01 0.0000000000000000e+00  3.1832436366704395e-02 1.1910699689973811e+01 0.0000000000000000e+00  -2.9509376607328001e-02 1.3105269665804220e+01 0.0000000000000000e+00  2.1228651239988017e-02 1.4250016194978532e+01 0.0000000000000000e+00  5.2168905056320042e-03 1.5542607536202002e+01 0.0000000000000000e+00  -4.2036602966066938e-03 1.6560134324866073e+01 0.0000000000000000e+00  -1.3621642314769353e-02 1.7813909630801291e+01 0.0000000000000000e+00  -5.8571043724432673e-03 1.8942713059916560e+01 0.0000000000000000e+00  1.6232288771981521e-02 2.0152183085773281e+01 0.0000000000000000e+00  -5.2832325181249177e-03 2.1350528334090910e+01 0.0000000000000000e+00  -1.2263067020463363e-02 2.2464670822658448e+01 0.0000000000000000e+00  -2.9837768785483318e-03 2.3675811687605925e+01 0.0000000000000000e+00  -1.1942337464889053e-02 2.4627100741978680e+01 0.0000000000000000e+00  2.6238304008537869e-02 2.5885477472474324e+01 0.0000000000000000e+00  -2.1897463925869658e-02 2.6963652336883840e+01 0.0000000000000000e+00  2.5855206845617148e-02 2.8067119978686119e+01 0.0000000000000000e+00  8.7238045001897854e-03 2.9229548260320030e+01 0.0000000000000000e+00  -6.0367100618938942e-02 3.0085166218438403e+01 0.0000000000000000e+00  -4.9972181251143076e-02 3.1341083511811917e+01 0.0000000000000000e+00  1.0290144719702590e-02 3.2181393593957253e+01 0.0000000000000000e+00  -3.2333191102196415e-02 3.3237852322596233e+01 0.0000000000000000e+00  -1.6141108405333466e-02 3.4078199094983219e+01 0.0000000000000000e+00  7.9399363788206237e-02 3.5159231893964240e+01 0.0000000000000000e+00  -2.7851624118204011e-02 3.6218989178234686e+01 0.0000000000000000e+00  -4.2312730135832595e-02 3.6884194448696647e+01 0.0000000000000000e+00  -4.6147669451383176e-02 3.7902435217018684e+01 0.0000000000000000e+00  6.0275889158560572e-03 3.8535691941261192e+01 0.0000000000000000e+00  1.4438195021276735e-02 3.9407983395289484e+01 0.0000000000000000e+00  -6.0032858124289146e-03 4.0161707269125394e+01 0.0000000000000000e+00  -1.7585417498249666e-03 4.0827790871093107e+01 0.0000000000000000e+00  1.2593895452205461e-03 4.1466161573961884e+01 0.0000000000000000e+00  1.5091288674245395e-03 4.2084837516491419e+01 0.0000000000000000e+00  -1.1076389274738906e-02 4.2636773599511280e+01 0.0000000000000000e+00  6.0732460981583185e-04 4.3034379130577072e+01 0.0000000000000000e+00  -4.2460274192680959e-04 4.3527878496603030e+01 0.0000000000000000e+00  4.7573569977047651e-03 4.3923146447748273e+01 0.0000000000000000e+00  -8.8162493415867692e-03 4.4240129987073864e+01 0.0000000000000000e+00  8.5787381100487971e-03 4.4523224279163003e+01 0.0000000000000000e+00  -3.0541612441385901e-03 4.4714458931631626e+01 0.0000000000000000e+00  -7.6664393927261812e-03 4.4878478353002230e+01 0.0000000000000000e+00  1.8579409367175648e-03 4.4965357816435393e+01 0.0000000000000000e+00  1.8017829554196787e-03 4.5001471812065020e+01 0.0000000000000000e+00  7.8966323478122206e-03 4.4961505719376795e+01 0.0000000000000000e+00  -8.8502887482423027e-03 4.4877551708925282e+01 0.0000000000000000e+00  4.0017798213971868e-03 4.4728332412478608e+01 0.0000000000000000e+00  -7.2003899336159742e-03 4.4510486518981686e+01 0.0000000000000000e+00  1.0222651521562426e-02 4.4241189287425385e+01 0.0000000000000000e+00  -8.9345412696952703e-03 4.3886251915818782e+01 0.0000000000000000e+00  1.9619516910722549e-02 4.3564175998288903e+01 0.0000000000000000e+00  2.2980082146222304e-02 4.3032133150316710e+01 0.0000000000000000e+00  1.2862632471468584e-02 4.2649010809589171e+01 0.0000000000000000e+00  4.6957506499887808e-02 4.2019867625810384e+01 0.0000000000000000e+00  -2.2689686516134424e-02 4.1540657542071919e+01 0.0000000000000000e+00  -8.1676796073782386e-03 4.0823828893566457e+01 0.0000000000000000e+00  9.1501784614232660e-03 4.0101593083905790e+01 0.0000000000000000e+00  -2.0720185098291287e-03 3.9395958377461312e+01 0.0000000000000000e+00  -7.0022000323197002e-04 3.8628783830914060e+01 0.0000000000000000e+00  -3.0059803965907391e-03 3.7799454466921432e+01 0.0000000000000000e+00  3.5196031300134046e-03 3.6962391037467128e+01 0.0000000000000000e+00  -1.7119493293834637e-02 3.6070315429521806e+01 0.0000000000000000e+00  3.1337452372761566e-02 3.5155021240420652e+01 0.0000000000000000e+00  -2.2157255861109490e-02 3.4134698457059471e+01 0.0000000000000000e+00  2.4540612438663525e-02 3.3294761360342733e+01 0.0000000000000000e+00  6.5225733943005734e-03 3.2300283602300837e+01 0.0000000000000000e+00  -2.6827383595469743e-02 3.1229666819174607e+01 0.0000000000000000e+00  1.7696531886943121e-02 3.0171876818607885e+01 0.0000000000000000e+00  -2.2243484397416899e-02 2.9124653176638851e+01 0.0000000000000000e+00  1.0785787916636974e-02 2.7986568802751130e+01 0.0000000000000000e+00  -4.6830757934221987e-03 2.6881358221256225e+01 0.0000000000000000e+00  4.5773864530658188e-02 2.5960429699178135e+01 0.