<?xml version="1.0"?>
<VTKFile type="UnstructuredGrid"  version="0.1"  >
<UnstructuredGrid>
<Piece  NumberOfPoints="11902" NumberOfCells="23402">
<Points>
<DataArray  type="Float64"  NumberOfComponents="3"  format="ascii">-5 -5 0  5 -5 0  5 5 0  -5 5 0  1.967060271857188 -0.0002734531143379823 0  -4.9 -5 0  -4.8 -5 0  -4.7 -5 0  -4.6 -5 0  -4.5 -5 0  -4.4 -5 0  -4.3 -5 0  -4.2 -5 0  -4.1 -5 0  -4 -5 0  -3.9 -5 0  -3.8 -5 0  -3.7 -5 0  -3.6 -5 0  -3.5 -5 0  -3.4 -5 0  -3.3 -5 0  -3.2 -5 0  -3.1 -5 0  -3 -5 0  -2.9 -5 0  -2.8 -5 0  -2.7 -5 0  -2.6 -5 0  -2.5 -5 0  -2.4 -5 0  -2.3 -5 0  -2.2 -5 0  -2.1 -5 0  -2 -5 0  -1.9 -5 0  -1.8 -5 0  -1.7 -5 0  -1.6 -5 0  -1.5 -5 0  -1.4 -5 0  -1.3 -5 0  -1.2 -5 0  -1.1 -5 0  -1 -5 0  -0.9000000000000004 -5 0  -0.7999999999999998 -5 0  -0.7000000000000002 -5 0  -0.5999999999999996 -5 0  -0.5 -5 0  -0.4000000000000004 -5 0  -0.2999999999999998 -5 0  -0.2000000000000002 -5 0  -0.09999999999999964 -5 0  0 -5 0  0.09999999999999964 -5 0  0.2000000000000002 -5 0  0.2999999999999998 -5 0  0.4000000000000004 -5 0  0.5 -5 0  0.5999999999999996 -5 0  0.7000000000000002 -5 0  0.7999999999999998 -5 0  0.9000000000000004 -5 0  1 -5 0  1.1 -5 0  1.2 -5 0  1.3 -5 0  1.4 -5 0  1.5 -5 0  1.6 -5 0  1.7 -5 0  1.8 -5 0  1.9 -5 0  2 -5 0  2.1 -5 0  2.2 -5 0  2.3 -5 0  2.4 -5 0  2.5 -5 0  2.6 -5 0  2.7 -5 0  2.8 -5 0  2.9 -5 0  3 -5 0  3.1 -5 0  3.199999999999999 -5 0  3.300000000000001 -5 0  3.4 -5 0  3.5 -5 0  3.6 -5 0  3.699999999999999 -5 0  3.800000000000001 -5 0  3.9 -5 0  4 -5 0  4.1 -5 0  4.199999999999999 -5 0  4.300000000000001 -5 0  4.4 -5 0  4.5 -5 0  4.6 -5 0  4.699999999999999 -5 0  4.800000000000001 -5 0  4.9 -5 0  5 -4.9 0  5 -4.8 0  5 -4.7 0  5 -4.6 0  5 -4.5 0  5 -4.4 0  5 -4.3 0  5 -4.2 0  5 -4.1 0  5 -4 0  5 -3.9 0  5 -3.8 0  5 -3.7 0  5 -3.6 0  5 -3.5 0  5 -3.4 0  5 -3.3 0  5 -3.2 0  5 -3.1 0  5 -3 0  5 -2.9 0  5 -2.8 0  5 -2.7 0  5 -2.6 0  5 -2.5 0  5 -2.4 0  5 -2.3 0  5 -2.2 0  5 -2.1 0  5 -2 0  5 -1.9 0  5 -1.8 0  5 -1.7 0  5 -1.6 0  5 -1.5 0  5 -1.4 0  5 -1.3 0  5 -1.2 0  5 -1.1 0  5 -1 0  5 -0.9000000000000004 0  5 -0.7999999999999998 0  5 -0.7000000000000002 0  5 -0.5999999999999996 0  5 -0.5 0  5 -0.4000000000000004 0  5 -0.2999999999999998 0  5 -0.2000000000000002 0  5 -0.09999999999999964 0  5 0 0  5 0.09999999999999964 0  5 0.2000000000000002 0  5 0.2999999999999998 0  5 0.4000000000000004 0  5 0.5 0  5 0.5999999999999996 0  5 0.7000000000000002 0  5 0.7999999999999998 0  5 0.9000000000000004 0  5 1 0  5 1.1 0  5 1.2 0  5 1.3 0  5 1.4 0  5 1.5 0  5 1.6 0  5 1.7 0  5 1.8 0  5 1.9 0  5 2 0  5 2.1 0  5 2.2 0  5 2.3 0  5 2.4 0  5 2.5 0  5 2.6 0  5 2.7 0  5 2.8 0  5 2.9 0  5 3 0  5 3.1 0  5 3.199999999999999 0  5 3.300000000000001 0  5 3.4 0  5 3.5 0  5 3.6 0  5 3.699999999999999 0  5 3.800000000000001 0  5 3.9 0  5 4 0  5 4.1 0  5 4.199999999999999 0  5 4.300000000000001 0  5 4.4 0  5 4.5 0  5 4.6 0  5 4.699999999999999 0  5 4.800000000000001 0  5 4.9 0  4.9 5 0  4.8 5 0  4.7 5 0  4.6 5 0  4.5 5 0  4.4 5 0  4.3 5 0  4.2 5 0  4.1 5 0  4 5 0  3.9 5 0  3.8 5 0  3.7 5 0  3.6 5 0  3.5 5 0  3.4 5 0  3.3 5 0  3.2 5 0  3.1 5 0  3 5 0  2.9 5 0  2.8 5 0  2.7 5 0  2.6 5 0  2.5 5 0  2.4 5 0  2.3 5 0  2.2 5 0  2.1 5 0  2 5 0  1.9 5 0  1.8 5 0  1.7 5 0  1.6 5 0  1.5 5 0  1.4 5 0  1.3 5 0  1.2 5 0  1.1 5 0  1 5 0  0.9000000000000004 5 0  0.7999999999999998 5 0  0.7000000000000002 5 0  0.5999999999999996 5 0  0.5 5 0  0.4000000000000004 5 0  0.2999999999999998 5 0  0.2000000000000002 5 0  0.09999999999999964 5 0  0 5 0  -0.09999999999999964 5 0  -0.2000000000000002 5 0  -0.2999999999999998 5 0  -0.4000000000000004 5 0  -0.5 5 0  -0.5999999999999996 5 0  -0.7000000000000002 5 0  -0.7999999999999998 5 0  -0.9000000000000004 5 0  -1 5 0  -1.1 5 0  -1.2 5 0  -1.3 5 0  -1.4 5 0  -1.5 5 0  -1.6 5 0  -1.7 5 0  -1.8 5 0  -1.9 5 0  -2 5 0  -2.1 5 0  -2.2 5 0  -2.3 5 0  -2.4 5 0  -2.5 5 0  -2.6 5 0  -2.7 5 0  -2.8 5 0  -2.9 5 0  -3 5 0  -3.1 5 0  -3.199999999999999 5 0  -3.300000000000001 5 0  -3.4 5 0  -3.5 5 0  -3.6 5 0  -3.699999999999999 5 0  -3.800000000000001 5 0  -3.9 5 0  -4 5 0  -4.1 5 0  -4.199999999999999 5 0  -4.300000000000001 5 0  -4.4 5 0  -4.5 5 0  -4.6 5 0  -4.699999999999999 5 0  -4.800000000000001 5 0  -4.9 5 0  -5 4.9 0  -5 4.8 0  -5 4.7 0  -5 4.6 0  -5 4.5 0  -5 4.4 0  -5 4.3 0  -5 4.2 0  -5 4.1 0  -5 4 0  -5 3.9 0  -5 3.8 0  -5 3.7 0  -5 3.6 0  -5 3.5 0  -5 3.4 0  -5 3.3 0  -5 3.2 0  -5 3.1 0  -5 3 0  -5 2.9 0  -5 2.8 0  -5 2.7 0  -5 2.6 0  -5 2.5 0  -5 2.4 0  -5 2.3 0  -5 2.2 0  -5 2.1 0  -5 2 0  -5 1.9 0  -5 1.8 0  -5 1.7 0  -5 1.6 0  -5 1.5 0  -5 1.4 0  -5 1.3 0  -5 1.2 0  -5 1.1 0  -5 1 0  -5 0.9000000000000004 0  -5 0.7999999999999998 0  -5 0.7000000000000002 0  -5 0.5999999999999996 0  -5 0.5 0  -5 0.4000000000000004 0  -5 0.2999999999999998 0  -5 0.2000000000000002 0  -5 0.09999999999999964 0  -5 0 0  -5 -0.09999999999999964 0  -5 -0.2000000000000002 0  -5 -0.2999999999999998 0  -5 -0.4000000000000004 0  -5 -0.5 0  -5 -0.5999999999999996 0  -5 -0.7000000000000002 0  -5 -0.7999999999999998 0  -5 -0.9000000000000004 0  -5 -1 0  -5 -1.1 0  -5 -1.2 0  -5 -1.3 0  -5 -1.4 0  -5 -1.5 0  -5 -1.6 0  -5 -1.7 0  -5 -1.8 0  -5 -1.9 0  -5 -2 0  -5 -2.1 0  -5 -2.2 0  -5 -2.3 0  -5 -2.4 0  -5 -2.5 0  -5 -2.6 0  -5 -2.7 0  -5 -2.8 0  -5 -2.9 0  -5 -3 0  -5 -3.1 0  -5 -3.199999999999999 0  -5 -3.300000000000001 0  -5 -3.4 0  -5 -3.5 0  -5 -3.6 0  -5 -3.699999999999999 0  -5 -3.800000000000001 0  -5 -3.9 0  -5 -4 0  -5 -4.1 0  -5 -4.199999999999999 0  -5 -4.300000000000001 0  -5 -4.4 0  -5 -4.5 0  -5 -4.6 0  -5 -4.699999999999999 0  -5 -4.800000000000001 0  -5 -4.9 0  1.957371577055832 0.1911507261894474 0  1.927766154241751 0.380343212990254 0  1.878989130104632 0.565407768886853 0  1.811081694371123 0.7455783677111265 0  1.725221817157416 0.9174826581116822 0  1.621872215931368 1.080663695882684 0  1.503039571344995 1.232422591619581 0  1.369084418768902 1.372187595889528 0  1.221755534934459 1.498566197447983 0  1.062344758745122 1.609819883209646 0  0.8930962702645624 1.704710932497498 0  0.7149209566207455 1.783149440389728 0  0.5298468023108769 1.843763472781875 0  0.3399669486414379 1.8860438438474 0  0.1461410245905219 1.909785469670448 0  -0.04810407652748432 1.914475121175563 0  -0.2431186451253263 1.900130085780846 0  -0.4350256902644102 1.866870542881229 0  -0.6225257390257268 1.81544096979192 0  -0.8043905079287774 1.746011897437469 0  -0.97862539673337 1.659053065700391 0  -1.142952884690244 1.555818645543287 0  -1.29655410831545 1.436947662407007 0  -1.437317183788196 1.303747740558745 0  -1.563378088650679 1.157689440517416 0  -1.674756376142076 0.9998148384186432 0  -1.769310460174821 0.8320418909253706 0  -1.846069824601517 0.6562610025166332 0  -1.904784896081385 0.4734175307927279 0  -1.943937437201259 0.2857343531821295 0  -1.963626124850066 0.09557877110653401 0  -1.963736042629776 -0.0957793252751592 0  -1.944264652661416 -0.2861197011514256 0  -1.904195160837386 -0.4734082672760257 0  -1.846235153314637 -0.6561829504431336 0  -1.769521061839344 -0.8324514601277295 0  -1.674805672967297 -1.00007822850578 0  -1.563591326458188 -1.15788108947463 0  -1.437294807979178 -1.303953090485646 0  -1.296683537546487 -1.437242639763648 0  -1.143273501573062 -1.556131175197593 0  -0.9782053321768087 -1.659125791537913 0  -0.8045038021621091 -1.74621630180461 0  -0.6223888148227223 -1.815895007941793 0  -0.434977983619495 -1.867515670513258 0  -0.2427238239877784 -1.900613445714687 0  -0.04828231954922273 -1.91475519137817 0  0.1459666595881885 -1.910071885676404 0  0.3395792478927929 -1.886422873500454 0  0.5297673900484168 -1.844029943816927 0  0.7146302201358519 -1.783564951976214 0  0.8931962287877373 -1.705180051657679 0  1.062777487085475 -1.610179084278973 0  1.221922799087731 -1.498903023184337 0  1.369168388918858 -1.372612679872466 0  1.502820107392546 -1.232850555609678 0  1.622108871882088 -1.080600383648469 0  1.72528635017823 -0.9174653081316411 0  1.810911301078871 -0.7455023533489925 0  1.878807253176317 -0.5658180865673355 0  1.927795517456507 -0.3804555357419853 0  1.957239595758652 -0.1911845726887522 0  -2.449753105031153 4.920403402506309 0  -2.449742064629242 -4.913011061367834 0  4.912856056412179 2.449633273123957 0  4.920761541473131 -2.450922587536511 0  2.447657184057398 -4.898667762481013 0  2.442014877779149 4.902387278110347 0  -4.912863437433323 -2.449634340532497 0  -4.912875428612996 2.449637480913309 0  -1.749740789991384 4.914250071829159 0  -1.745466478284111 -4.917567177521206 0  4.923577095093842 1.74559524639399 0  4.912529423163303 -1.749607367002469 0  -4.912783540438931 -1.749300963316297 0  -4.913589061494489 1.749027761142303 0  1.747032911086653 4.908352992671403 0  1.748625692744117 -4.896918928616806 0  -1.149804168497129 4.912670483418165 0  -1.130543657058584 -4.920320825063611 0  -4.913242866630601 -1.14929598098567 0  -4.913078642295237 1.149093334446825 0  1.1447406992446 -4.91662213301793 0  1.149793738549497 4.912699611032767 0  4.913422781854853 1.147586499011764 0  4.923757655142141 -1.153188047740732 0  -0.5471688019949928 -4.91420811643614 0  -0.5469103125319886 4.922488359488761 0  -4.912553567600144 -0.5494572047132662 0  -4.912582668209829 0.5480037601511489 0  4.91194994215008 -0.5497923386207173 0  4.923020748251948 0.546437009243959 0  0.5429783579237596 -4.901714565460998 0  0.5516445935103356 4.919463740826913 0  -4.913560966735843 -3.049711044368135 0  4.920024671393898 3.047632858547523 0  4.913091699979896 -3.049716190524715 0  -4.914407455751257 3.046787924324791 0  3.056377993181266 -4.919116948219687 0  -3.04976347595132 -4.913108847514466 0  3.053312137005307 4.915193278518448 0  -3.049226191543872 4.91402699043477 0  -4.911875370585522 -0.04998305713426184 0  0.04514784948781408 -4.916181654257282 0  0.04960146251962515 4.922885061695173 0  4.918609062324186 -0.05136053870163561 0  3.546464265054564 -4.920227184008785 0  -3.549818284800548 4.913238145765796 0  -3.549807200709407 -4.913244428871519 0  
[...]
<PointData  Vectors="f_547"> 
<DataArray  type="Float64"  Name="f_547"  NumberOfComponents="3" format="ascii">-0.0000000000000000e+00 -0.0000000000000000e+00 0.0000000000000000e+00  -0.0000000000000000e+00 -0.0000000000000000e+00 0.0000000000000000e+00  -0.0000000000000000e+00 -0.0000000000000000e+00 0.0000000000000000e+00  -0.0000000000000000e+00 -0.0000000000000000e+00 0.0000000000000000e+00  -9.3969740828525356e+05 -1.2756886564535996e+03 0.0000000000000000e+00  -0.0000000000000000e+00 -0.0000000000000000e+00 0.0000000000000000e+00  -0.0000000000000000e+00 -0.0000000000000000e+00 0.0000000000000000e+00  -0.0000000000000000e+00 -0.0000000000000000e+00 0.0000000000000000e+00  -0.0000000000000000e+00 -0.0000000000000000e+00 0.0000000000000000e+00  -0.0000000000000000e+00 -0.0000000000000000e+00 0.0000000000000000e+00  -0.0000000000000000e+00 -0.0000000000000000e+00 0.0000000000000000e+00  -0.0000000000000000e+00 -0.0000000000000000e+00 0.0000000000000000e+00  -0.0000000000000000e+00 -0.0000000000000000e+00 0.0000000000000000e+00  -0.0000000000000000e+00 -0.0000000000000000e+00 0.0000000000000000e+00  -0.0000000000000000e+00 -0.0000000000000000e+00 0.0000000000000000e+00  -0.0000000000000000e+00 -0.0000000000000000e+00 0.0000000000000000e+00  -0.0000000000000000e+00 -0.0000000000000000e+00 0.0000000000000000e+00  -0.0000000000000000e+00 -0.0000000000000000e+00 0.0000000000000000e+00  -0.0000000000000000e+00 -0.0000000000000000e+00 0.0000000000000000e+00  -0.0000000000000000e+00 -0.0000000000000000e+00 0.0000000000000000e+00  -0.0000000000000000e+00 -0.0000000000000000e+00 0.0000000000000000e+00  -0.0000000000000000e+00 -0.0000000000000000e+00 0.0000000000000000e+00  -0.0000000000000000e+00 -0.0000000000000000e+00 0.0000000000000000e+00  -0.0000000000000000e+00 -0.0000000000000000e+00 0.0000000000000000e+00  -0.0000000000000000e+00 -0.0000000000000000e+00 0.0000000000000000e+00  -0.0000000000000000e+00 -0.0000000000000000e+00 0.0000000000000000e+00  -0.0000000000000000e+00 -0.0000000000000000e+00 0.0000000000000000e+00  -0.0000000000000000e+00 -0.0000000000000000e+00 0.0000000000000000e+00  -0.0000000000000000e+00 -0.0000000000000000e+00 0.0000000000000000e+00  -0.0000000000000000e+00 -0.0000000000000000e+00 0.0000000000000000e+00  -0.0000000000000000e+00 -0.0000000000000000e+00 0.0000000000000000e+00  -0.0000000000000000e+00 -0.0000000000000000e+00 0.0000000000000000e+00  -0.0000000000000000e+00 -0.0000000000000000e+00 0.0000000000000000e+00  -0.0000000000000000e+00 -0.0000000000000000e+00 0.0000000000000000e+00  -0.0000000000000000e+00 -0.0000000000000000e+00 0.0000000000000000e+00  -0.0000000000000000e+00 -0.0000000000000000e+00 0.0000000000000000e+00  -0.0000000000000000e+00 -0.0000000000000000e+00 0.0000000000000000e+00  -0.0000000000000000e+00 -0.0000000000000000e+00 0.0000000000000000e+00  -0.0000000000000000e+00 -0.0000000000000000e+00 0.0000000000000000e+00  -0.0000000000000000e+00 -0.0000000000000000e+00 0.0000000000000000e+00  -0.0000000000000000e+00 -0.0000000000000000e+00 0.0000000000000000e+00  -0.0000000000000000e+00 -0.0000000000000000e+00 0.0000000000000000e+00  -0.0000000000000000e+00 -0.0000000000000000e+00 0.0000000000000000e+00  -0.0000000000000000e+00 -0.0000000000000000e+00 0.0000000000000000e+00  -0.0000000000000000e+00 -0.0000000000000000e+00 0.0000000000000000e+00  -0.0000000000000000e+00 -0.0000000000000000e+00 0.0000000000000000e+00  -0.0000000000000000e+00 -0.0000000000000000e+00 0.0000000000000000e+00  -0.0000000000000000e+00 -0.0000000000000000e+00 0.0000000000000000e+00  -0.0000000000000000e+00 -0.0000000000000000e+00 0.0000000000000000e+00  -0.0000000000000000e+00 -0.0000000000000000e+00 0.0000000000000000e+00  -0.0000000000000000e+00 -0.0000000000000000e+00 0.0000000000000000e+00  -0.0000000000000000e+00 -0.0000000000000000e+00 0.0000000000000000e+00  -0.0000000000000000e+00 -0.0000000000000000e+00 0.0000000000000000e+00  -0.0000000000000000e+00 -0.0000000000000000e+00 0.0000000000000000e+00  -0.0000000000000000e+00 -0.0000000000000000e+00 0.0000000000000000e+00  -0.0000000000000000e+00 -0.0000000000000000e+00 0.0000000000000000e+00  -0.0000000000000000e+00 -0.0000000000000000e+00 0.0000000000000000e+00  -0.0000000000000000e+00 -0.0000000000000000e+00 0.0000000000000000e+00  -0.0000000000000000e+00 -0.0000000000000000e+00 0.0000000000000000e+00  -0.0000000000000000e+00 -0.0000000000000000e+00 0.0000000000000000e+00  -0.0000000000000000e+00 -0.0000000000000000e+00 0.0000000000000000e+00  -0.0000000000000000e+00 -0.0000000000000000e+00 0.0000000000000000e+00  -0.0000000000000000e+00 -0.0000000000000000e+00 0.0000000000000000e+00  -0.0000000000000000e+00 -0.0000000000000000e+00 0.0000000000000000e+00  -0.0000000000000000e+00 -0.0000000000000000e+00 0.0000000000000000e+00  -0.0000000000000000e+00 -0.0000000000000000e+00 0.0000000000000000e+00  -0.0000000000000000e+00 -0.0000000000000000e+00 0.0000000000000000e+00  -0.0000000000000000e+00 -0.0000000000000000e+00 0.0000000000000000e+00  -0.0000000000000000e+00 -0.0000000000000000e+00 0.0000000000000000e+00  -0.0000000000000000e+00 -0.0000000000000000e+00 0.0000000000000000e+00  -0.0000000000000000e+00 -0.0000000000000000e+00 0.0000000000000000e+00  -0.0000000000000000e+00 -0.0000000000000000e+00 0.0000000000000000e+00  -0.0000000000000000e+00 -0.0000000000000000e+00 0.0000000000000000e+00  -0.0000000000000000e+00 -0.0000000000000000e+00 0.0000000000000000e+00  -0.0000000000000000e+00 -0.0000000000000000e+00 0.0000000000000000e+00  -0.0000000000000000e+00 -0.0000000000000000e+00 0.0000000000000000e+00  -0.0000000000000000e+00 -0.0000000000000000e+00 0.0000000000000000e+00  -0.0000000000000000e+00 -0.0000000000000000e+00 0.0000000000000000e+00  -0.0000000000000000e+00 -0.0000000000000000e+00 0.0000000000000000e+00  -0.0000000000000000e+00 -0.0000000000000000e+00 0.0000000000000000e+00  -0.0000000000000000e+00 -0.0000000000000000e+00 0.0000000000000000e+00  -0.0000000000000000e+00 -0.0000000000000000e+00 0.0000000000000000e+00  -0.0000000000000000e+00 -0.0000000000000000e+00 0.0000000000000000e+00  -0.0000000000000000e+00 -0.0000000000000000e+00 0.0000000000000000e+00  -0.0000000000000000e+00 -0.0000000000000000e+00 0.0000000000000000e+00  -0.0000000000000000e+00 -0.0000000000000000e+00 0.0000000000000000e+00  -0.0000000000000000e+00 -0.0000000000000000e+00 0.0000000000000000e+00  -0.0000000000000000e+00 -0.0000000000000000e+00 0.0000000000000000e+00  -0.0000000000000000e+00 -0.0000000000000000e+00 0.0000000000000000e+00  -0.0000000000000000e+00 -0.0000000000000000e+00 0.0000000000000000e+00  -0.0000000000000000e+00 -0.0000000000000000e+00 0.0000000000000000e+00  -0.0000000000000000e+00 -0.0000000000000000e+00 0.0000000000000000e+00  -0.0000000000000000e+00 -0.0000000000000000e+00 0.0000000000000000e+00  -0.0000000000000000e+00 -0.0000000000000000e+00 0.0000000000000000e+00  -0.0000000000000000e+00 -0.0000000000000000e+00 0.0000000000000000e+00  -0.0000000000000000e+00 -0.0000000000000000e+00 0.0000000000000000e+00  -0.0000000000000000e+00 -0.0000000000000000e+00 0.0000000000000000e+00  -0.0000000000000000e+00 -0.0000000000000000e+00 0.0000000000000000e+00  -0.0000000000000000e+00 -0.0000000000000000e+00 0.0000000000000000e+00  -0.0000000000000000e+00 -0.0000000000000000e+00 0.0000000000000000e+00  -0.0000000000000000e+00 -0.0000000000000000e+00 0.0000000000000000e+00  -0.0000000000000000e+00 -0.0000000000000000e+00 0.0000000000000000e+00  -0.0000000000000000e+00 -0.0000000000000000e+00 0.0000000000000000e+00  -0.0000000000000000e+00 -0.0000000000000000e+00 0.0000000000000000e+00  -0.0000000000000000e+00 -0.0000000000000000e+00 0.0000000000000000e+00  -0.0000000000000000e+00 -0.0000000000000000e+00 0.0000000000000000e+00  -0.0000000000000000e+00 -0.0000000000000000e+00 0.0000000000000000e+00  -0.0000000000000000e+00 -0.0000000000000000e+00 0.0000000000000000e+00  -0.0000000000000000e+00 -0.0000000000000000e+00 0.0000000000000000e+00  -0.0000000000000000e+00 -0.0000000000000000e+00 0.0000000000000000e+00  -0.0000000000000000e+00 -0.0000000000000000e+00 0.0000000000000000e+00  -0.0000000000000000e+00 -0.0000000000000000e+00 0.0000000000000000e+00  -0.0000000000000000e+00 -0.0000000000000000e+00 0.0000000000000000e+00  -0.0000000000000000e+00 -0.0000000000000000e+00 0.0000000000000000e+00  -0.0000000000000000e+00 -0.0000000000000000e+00 0.0000000000000000e+00  -0.0000000000000000e+00 -0.0000000000000000e+00 0.0000000000000000e+00  -0.0000000000000000e+00 -0.0000000000000000e+00 0.0000000000000000e+00  -0.0000000000000000e+00 -0.0000000000000000e+00 0.0000000000000000e+00  -0.0000000000000000e+00 -0.0000000000000000e+00 0.0000000000000000e+00  -0.0000000000000000e+00 -0.0000000000000000e+00 0.0000000000000000e+00  -0.0000000000000000e+00 -0.0000000000000000e+00 0.0000000000000000e+00  -0.0000000000000000e+00 -0.0000000000000000e+00 0.0000000000000000e+00  -0.0000000000000000e+00 -0.0000000000000000e+00 0.0000000000000000e+00  -0.0000000000000000e+00 -0.0000000000000000e+00 0.0000000000000000e+00  -0.0000000000000000e+00 -0.0000000000000000e+00 0.0000000000000000e+00  -0.0000000000000000e+00 -0.0000000000000000e+00 0.0000000000000000e+00  -0.0000000000000000e+00 -0.0000000000000000e+00 0.0000000000000000e+00  -0.0000000000000000e+00 -0.0000000000000000e+00 0.0000000000000000e+00  -0.0000000000000000e+00 -0.0000000000000000e+00 0.0000000000000000e+00  -0.0000000000000000e+00 -0.0000000000000000e+00 0.0000000000000000e+00  -0.0000000000000000e+00 -0.0000000000000000e+00 0.0000000000000000e+00  -0.0000000000000000e+00 -0.0000000000000000e+00 0.0000000000000000e+00  -0.0000000000000000e+00 -0.0000000000000000e+00 0.0000000000000000e+00  -0.0000000000000000e+00 -0.0000000000000000e+00 0.0000000000000000e+00  -0.0000000000000000e+00 -0.0000000000000000e+00 0.0000000000000000e+00  -0.0000000000000000e+00 -0.0000000000000000e+00 0.0000000000000000e+00  -0.0000000000000000e+00 -0.0000000000000000e+00 0.0000000000000000e+00  -0.0000000000000000e+00 -0.0000000000000000e+00 0.0000000000000000e+00  -0.0000000000000000e+00 -0.0000000000000000e+00 0.0000000000000000e+00  -0.0000000000000000e+00 -0.0000000000000000e+00 0.0000000000000000e+00  -0.0000000000000000e+00 -0.0000000000000000e+00 0.0000000000000000e+00  -0.0000000000000000e+00 -0.0000000000000000e+00 0.0000000000000000e+00  -0.0000000000000000e+00 -0.0000000000000000e+00 0.0000000000000000e+00  -0.0000000000000000e+00 -0.0000000000000000e+00 0.0000000000000000e+00  -0.0000000000000000e+00 -0.0000000000000000e+00 0.0000000000000000e+00  -0.0000000000000000e+00 -0.0000000000000000e+00 0.0000000000000000e+00  -0.0000000000000000e+00 -0.0000000000000000e+00 0.0000000000000000e+00  -0.0000000000000000e+00 -0.0000000000000000e+00 0.0000000000000000e+00  -0.0000000000000000e+00 -0.0000000000000000e+00 0.0000000000000000e+00  -0.0000000000000000e+00 -0.0000000000000000e+00 0.0000000000000000e+00  -0.0000000000000000e+00 -0.0000000000000000e+00 0.0000000000000000e+00  -0.0000000000000000e+00 -0.0000000000000000e+00 0.0000000000000000e+00  -0.0000000000000000e+00 -0.0000000000000000e+00 0.0000000000000000e+00  -0.0000000000000000e+00 -0.0000000000000000e+00 0.0000000000000000e+00  -0.0000000000000000e+00 -0.0000000000000000e+00 0.0000000000000000e+00  -0.0000000000000000e+00 -0.0000000000000000e+00 0.0000000000000000e+00  -0.0000000000000000e+00 -0.0000000000000000e+00 0.0000000000000000e+00  -0.0000000000000000e+00 -0.0000000000000000e+00 0.0000000000000000e+00  -0.0000000000000000e+00 -0.0000000000000000e+00 0.0000000000000000e+00  -0.0000000000000000e+00 -0.0000000000000000e+00 0.0000000000000000e+00  -0.0000000000000000e+00 -0.0000000000000000e+00 0.0000000000000000e+00  -0.0000000000000000e+00 -0.0000000000000000e+00 0.0000000000000000e+00  -0.0000000000000000e+00 -0.0000000000000000e+00 0.0000000000000000e+00  -0.0000000000000000e+00 -0.0000000000000000e+00 0.0000000000000000e+00  -0.0000000000000000e+00 -0.0000000000000000e+00 0.0000000000000000e+00  -0.0000000000000000e+00 -0.0000000000000000e+00 0.0000000000000000e+00  -0.0000000000000000e+00 -0.0000000000000000e+00 0.0000000000000000e+00  -0.0000000000000000e+00 -0.0000000000000000e+00 0.0000000000000000e+00  -0.0000000000000000e+00 -0.0000000000000000e+00 0.0000000000000000e+00  -0.0000000000000000e+00 -0.0000000000000000e+00 0.0000000000000000e+00  -0.0000000000000000e+00 -0.0000000000000000e+00 0.0000000000000000e+00  -0.0000000000000000e+00 -0.0000000000000000e+00 0.0000000000000000e+00  -0.0000000000000000e+00 -0.0000000000000000e+00 0.0000000000000000e+00  -0.0000000000000000e+00 -0.0000000000000000e+00 0.0000000000000000e+00  -0.0000000000000000e+00 -0.0000000000000000e+00 0.0000000000000000e+00  -0.0000000000000000e+00 -0.0000000000000000e+00 0.0000000000000000e+00  -0.0000000000000000e+00 -0.0000000000000000e+00 0.0000000000000000e+00  -0.0000000000000000e+00 -0.0000000000000000e+00 0.0000000000000000e+00  -0.0000000000000000e+00 -0.0000000000000000e+00 0.0000000000000000e+00  -0.0000000000000000e+00 -0.0000000000000000e+00 0.0000000000000000e+00  -0.0000000000000000e+00 -0.0000000000000000e+00 0.0000000000000000e+00  -0.0000000000000000e+00 -0.0000000000000000e+00 0.0000000000000000e+00  -0.0000000000000000e+00 -0.0000000000000000e+00 0.0000000000000000e+00  -0.0000000000000000e+00 -0.0000000000000000e+00 0.0000000000000000e+00  -0.0000000000000000e+00 -0.0000000000000000e+00 0.0000000000000000e+00  -0.0000000000000000e+00 -0.0000000000000000e+00 0.0000000000000000e+00  -0.0000000000000000e+00 -0.0000000000000000e+00 0.0000000000000000e+00  -0.0000000000000000e+00 -0.0000000000000000e+00 0.0000000000000000e+00  -0.0000000000000000e+00 -0.0000000000000000e+00 0.0000000000000000e+00  -0.0000000000000000e+00 -0.0000000000000000e+00 0.0000000000000000e+00  -0.0000000000000000e+00 -0.0000000000000000e+00 0.0000000000000000e+00  -0.0000000000000000e+00 -0.0000000000000000e+00 0.0000000000000000e+00  -0.0000000000000000e+00 -0.0000000000000000e+00 0.0000000000000000e+00  -0.0000000000000000e+00 -0.0000000000000000e+00 0.0000000000000000e+00  -0.0000000000000000e+00 -0.0000000000000000e+00 0.0000000000000000e+00  -0.0000000000000000e+00 -0.0000000000000000e+00 0.0000000000000000e+00  -0.0000000000000000e+00 -0.0000000000000000e+00 0.0000000000000000e+00  -0.0000000000000000e+00 -0.0000000000000000e+00 0.0000000000000000e+00  -0.0000000000000000e+00 -0.0000000000000000e+00 0.0000000000000000e+00  -0.0000000000000000e+00 -0.0000000000000000e+00 0.0000000000000000e+00  -0.0000000000000000e+00 -0.0000000000000000e+00 0.0000000000000000e+00  -0.0000000000000000e+00 -0.0000000000000000e+00 0.0000000000000000e+00  -0.0000000000000000e+00 -0.0000000000000000e+00 0.0000000000000000e+00  -0.0000000000000000e+00 -0.0000000000000000e+00 0.0000000000000000e+00  -0.0000000000000000e+00 -0.0000000000000000e+00 0.0000000000000000e+00  -0.0000000000000000e+00 -0.0000000000000000e+00 0.0000000000000000e+00  -0.0000000000000000e+00 -0.0000000000000000e+00 0.0000000000000000e+00  -0.0000000000000000e+00 -0.0000000000000000e+00 0.0000000000000000e+00  -0.0000000000000000e+00 -0.0000000000000000e+00 0.0000000000000000e+00  -0.0000000000000000e+00 -0.0000000000000000e+00 0.0000000000000000e+00  -0.0000000000000000e+00 -0.0000000000000000e+00 0.0000000000000000e+00  -0.0000000000000000e+00 -0.0000000000000000e+00 0.0000000000000000e+00  -0.0000000000000000e+00 -0.0000000000000000e+00 0.0000000000000000e+00  -0.0000000000000000e+00 -0.0000000000000000e+00 0.0000000000000000e+00  -0.0000000000000000e+00 -0.0000000000000000e+00 0.0000000000000000e+00  -0.0000000000000000e+00 -0.0000000000000000e+00 0.0000000000000000e+00  -0.0000000000000000e+00 -0.0000000000000000e+00 0.0000000000000000e+00  -0.0000000000000000e+00 -0.0000000000000000e+00 0.0000000000000000e+00  -0.0000000000000000e+00 -0.0000000000000000e+00 0.0000000000000000e+00  -0.0000000000000000e+00 -0.0000000000000000e+00 0.0000000000000000e+00  -0.0000000000000000e+00 -0.0000000000000000e+00 0.0000000000000000e+00  -0.0000000000000000e+00 -0.0000000000000000e+00 0.0000000000000000e+00  -0.0000000000000000e+00 -0.0000000000000000e+00 0.0000000000000000e+00  -0.0000000000000000e+00 -0.0000000000000000e+00 0.0000000000000000e+00  -0.0000000000000000e+00 -0.0000000000000000e+00 0.0000000000000000e+00  -0.0000000000000000e+00 -0.0000000000000000e+00 0.0000000000000000e+00  -0.0000000000000000e+00 -0.0000000000000000e+00 0.0000000000000000e+00  -0.0000000000000000e+00 -0.0000000000000000e+00 0.0000000000000000e+00  -0.0000000000000000e+00 -0.0000000000000000e+00 0.0000000000000000e+00  -0.0000000000000000e+00 -0.0000000000000000e+00 0.0000000000000000e+00  -0.0000000000000000e+00 -0.0000000000000000e+00 0.0000000000000000e+00  -0.0000000000000000e+00 -0.0000000000000000e+00 0.0000000000000000e+00  -0.0000000000000000e+00 -0.0000000000000000e+00 0.0000000000000000e+00  -0.0000000000000000e+00 -0.0000000000000000e+00 0.0000000000000000e+00  -0.0000000000000000e+00 -0.0000000000000000e+00 0.0000000000000000e+00  -0.0000000000000000e+00 -0.0000000000000000e+00 0.0000000000000000e+00  -0.0000000000000000e+00 -0.0000000000000000e+00 0.0000000000000000e+00  -0.0000000000000000e+00 -0.0000000000000000e+00 0.0000000000000000e+00  -0.0000000000000000e+00 -0.0000000000000000e+00 0.0000000000000000e+00  -0.0000000000000000e+00 -0.0000000000000000e+00 0.0000000000000000e+00  -0.0000000000000000e+00 -0.0000000000000000e+00 0.0000000000000000e+00  -0.0000000000000000e+00 -0.0000000000000000e+00 0.0000000000000000e+00  -0.0000000000000000e+00 -0.0000000000000000e+00 0.0000000000000000e+00  -0.0000000000000000e+00 -0.0000000000000000e+00 0.0000000000000000e+00  -0.0000000000000000e+00 -0.0000000000000000e+00 0.0000000000000000e+00  -0.0000000000000000e+00 -0.0000000000000000e+00 0.0000000000000000e+00  -0.0000000000000000e+00 -0.0000000000000000e+00 0.0000000000000000e+00  -0.0000000000000000e+00 -0.0000000000000000e+00 0.0000000000000000e+00  -0.0000000000000000e+00 -0.0000000000000000e+00 0.0000000000000000e+00  -0.0000000000000000e+00 -0.0000000000000000e+00 0.0000000000000000e+00  -0.0000000000000000e+00 -0.0000000000000000e+00 0.0000000000000000e+00  -0.0000000000000000e+00 -0.0000000000000000e+00 0.0000000000000000e+00  -0.0000000000000000e+00 -0.0000000000000000e+00 0.0000000000000000e+00  -0.0000000000000000e+00 -0.0000000000000000e+00 0.0000000000000000e+00  -0.0000000000000000e+00 -0.0000000000000000e+00 0.0000000000000000e+00  -0.0000000000000000e+00 -0.0000000000000000e+00 0.0000000000000000e+00  -0.0000000000000000e+00 -0.0000000000000000e+00 0.0000000000000000e+00  -0.0000000000000000e+00 -0.0000000000000000e+00 0.0000000000000000e+00  -0.0000000000000000e+00 -0.0000000000000000e+00 0.0000000000000000e+00  -0.0000000000000000e+00 -0.0000000000000000e+00 0.0000000000000000e+00  -0.0000000000000000e+00 -0.0000000000000000e+00 0.0000000000000000e+00  -0.0000000000000000e+00 -0.0000000000000000e+00 0.0000000000000000e+00  -0.0000000000000000e+00 -0.0000000000000000e+00 0.0000000000000000e+00  -0.0000000000000000e+00 -0.0000000000000000e+00 0.0000000000000000e+00  -0.0000000000000000e+00 -0.0000000000000000e+00 0.0000000000000000e+00  -0.0000000000000000e+00 -0.0000000000000000e+00 0.0000000000000000e+00  -0.0000000000000000e+00 -0.0000000000000000e+00 0.0000000000000000e+00  -0.0000000000000000e+00 -0.0000000000000000e+00 0.0000000000000000e+00  -0.0000000000000000e+00 -0.0000000000000000e+00 0.0000000000000000e+00  -0.0000000000000000e+00 -0.0000000000000000e+00 0.0000000000000000e+00  -0.0000000000000000e+00 -0.0000000000000000e+00 0.0000000000000000e+00  -0.0000000000000000e+00 -0.0000000000000000e+00 0.0000000000000000e+00  -0.0000000000000000e+00 -0.0000000000000000e+00 0.0000000000000000e+00  -0.0000000000000000e+00 -0.0000000000000000e+00 0.0000000000000000e+00  -0.0000000000000000e+00 -0.0000000000000000e+00 0.0000000000000000e+00  -0.0000000000000000e+00 -0.0000000000000000e+00 0.0000000000000000e+00  -0.000000000000000