<?xml version="1.0"?>
<VTKFile type="UnstructuredGrid"  version="0.1"  >
<UnstructuredGrid>
<Piece  NumberOfPoints="11902" NumberOfCells="23402">
<Points>
<DataArray  type="Float64"  NumberOfComponents="3"  format="ascii">-5 -5 0  5 -5 0  5 5 0  -5 5 0  1.94189983730463 0.01743299750025602 0  -4.9 -5 0  -4.8 -5 0  -4.7 -5 0  -4.6 -5 0  -4.5 -5 0  -4.4 -5 0  -4.3 -5 0  -4.2 -5 0  -4.1 -5 0  -4 -5 0  -3.9 -5 0  -3.8 -5 0  -3.7 -5 0  -3.6 -5 0  -3.5 -5 0  -3.4 -5 0  -3.3 -5 0  -3.2 -5 0  -3.1 -5 0  -3 -5 0  -2.9 -5 0  -2.8 -5 0  -2.7 -5 0  -2.6 -5 0  -2.5 -5 0  -2.4 -5 0  -2.3 -5 0  -2.2 -5 0  -2.1 -5 0  -2 -5 0  -1.9 -5 0  -1.8 -5 0  -1.7 -5 0  -1.6 -5 0  -1.5 -5 0  -1.4 -5 0  -1.3 -5 0  -1.2 -5 0  -1.1 -5 0  -1 -5 0  -0.9000000000000004 -5 0  -0.7999999999999998 -5 0  -0.7000000000000002 -5 0  -0.5999999999999996 -5 0  -0.5 -5 0  -0.4000000000000004 -5 0  -0.2999999999999998 -5 0  -0.2000000000000002 -5 0  -0.09999999999999964 -5 0  0 -5 0  0.09999999999999964 -5 0  0.2000000000000002 -5 0  0.2999999999999998 -5 0  0.4000000000000004 -5 0  0.5 -5 0  0.5999999999999996 -5 0  0.7000000000000002 -5 0  0.7999999999999998 -5 0  0.9000000000000004 -5 0  1 -5 0  1.1 -5 0  1.2 -5 0  1.3 -5 0  1.4 -5 0  1.5 -5 0  1.6 -5 0  1.7 -5 0  1.8 -5 0  1.9 -5 0  2 -5 0  2.1 -5 0  2.2 -5 0  2.3 -5 0  2.4 -5 0  2.5 -5 0  2.6 -5 0  2.7 -5 0  2.8 -5 0  2.9 -5 0  3 -5 0  3.1 -5 0  3.199999999999999 -5 0  3.300000000000001 -5 0  3.4 -5 0  3.5 -5 0  3.6 -5 0  3.699999999999999 -5 0  3.800000000000001 -5 0  3.9 -5 0  4 -5 0  4.1 -5 0  4.199999999999999 -5 0  4.300000000000001 -5 0  4.4 -5 0  4.5 -5 0  4.6 -5 0  4.699999999999999 -5 0  4.800000000000001 -5 0  4.9 -5 0  5 -4.9 0  5 -4.8 0  5 -4.7 0  5 -4.6 0  5 -4.5 0  5 -4.4 0  5 -4.3 0  5 -4.2 0  5 -4.1 0  5 -4 0  5 -3.9 0  5 -3.8 0  5 -3.7 0  5 -3.6 0  5 -3.5 0  5 -3.4 0  5 -3.3 0  5 -3.2 0  5 -3.1 0  5 -3 0  5 -2.9 0  5 -2.8 0  5 -2.7 0  5 -2.6 0  5 -2.5 0  5 -2.4 0  5 -2.3 0  5 -2.2 0  5 -2.1 0  5 -2 0  5 -1.9 0  5 -1.8 0  5 -1.7 0  5 -1.6 0  5 -1.5 0  5 -1.4 0  5 -1.3 0  5 -1.2 0  5 -1.1 0  5 -1 0  5 -0.9000000000000004 0  5 -0.7999999999999998 0  5 -0.7000000000000002 0  5 -0.5999999999999996 0  5 -0.5 0  5 -0.4000000000000004 0  5 -0.2999999999999998 0  5 -0.2000000000000002 0  5 -0.09999999999999964 0  5 0 0  5 0.09999999999999964 0  5 0.2000000000000002 0  5 0.2999999999999998 0  5 0.4000000000000004 0  5 0.5 0  5 0.5999999999999996 0  5 0.7000000000000002 0  5 0.7999999999999998 0  5 0.9000000000000004 0  5 1 0  5 1.1 0  5 1.2 0  5 1.3 0  5 1.4 0  5 1.5 0  5 1.6 0  5 1.7 0  5 1.8 0  5 1.9 0  5 2 0  5 2.1 0  5 2.2 0  5 2.3 0  5 2.4 0  5 2.5 0  5 2.6 0  5 2.7 0  5 2.8 0  5 2.9 0  5 3 0  5 3.1 0  5 3.199999999999999 0  5 3.300000000000001 0  5 3.4 0  5 3.5 0  5 3.6 0  5 3.699999999999999 0  5 3.800000000000001 0  5 3.9 0  5 4 0  5 4.1 0  5 4.199999999999999 0  5 4.300000000000001 0  5 4.4 0  5 4.5 0  5 4.6 0  5 4.699999999999999 0  5 4.800000000000001 0  5 4.9 0  4.9 5 0  4.8 5 0  4.7 5 0  4.6 5 0  4.5 5 0  4.4 5 0  4.3 5 0  4.2 5 0  4.1 5 0  4 5 0  3.9 5 0  3.8 5 0  3.7 5 0  3.6 5 0  3.5 5 0  3.4 5 0  3.3 5 0  3.2 5 0  3.1 5 0  3 5 0  2.9 5 0  2.8 5 0  2.7 5 0  2.6 5 0  2.5 5 0  2.4 5 0  2.3 5 0  2.2 5 0  2.1 5 0  2 5 0  1.9 5 0  1.8 5 0  1.7 5 0  1.6 5 0  1.5 5 0  1.4 5 0  1.3 5 0  1.2 5 0  1.1 5 0  1 5 0  0.9000000000000004 5 0  0.7999999999999998 5 0  0.7000000000000002 5 0  0.5999999999999996 5 0  0.5 5 0  0.4000000000000004 5 0  0.2999999999999998 5 0  0.2000000000000002 5 0  0.09999999999999964 5 0  0 5 0  -0.09999999999999964 5 0  -0.2000000000000002 5 0  -0.2999999999999998 5 0  -0.4000000000000004 5 0  -0.5 5 0  -0.5999999999999996 5 0  -0.7000000000000002 5 0  -0.7999999999999998 5 0  -0.9000000000000004 5 0  -1 5 0  -1.1 5 0  -1.2 5 0  -1.3 5 0  -1.4 5 0  -1.5 5 0  -1.6 5 0  -1.7 5 0  -1.8 5 0  -1.9 5 0  -2 5 0  -2.1 5 0  -2.2 5 0  -2.3 5 0  -2.4 5 0  -2.5 5 0  -2.6 5 0  -2.7 5 0  -2.8 5 0  -2.9 5 0  -3 5 0  -3.1 5 0  -3.199999999999999 5 0  -3.300000000000001 5 0  -3.4 5 0  -3.5 5 0  -3.6 5 0  -3.699999999999999 5 0  -3.800000000000001 5 0  -3.9 5 0  -4 5 0  -4.1 5 0  -4.199999999999999 5 0  -4.300000000000001 5 0  -4.4 5 0  -4.5 5 0  -4.6 5 0  -4.699999999999999 5 0  -4.800000000000001 5 0  -4.9 5 0  -5 4.9 0  -5 4.8 0  -5 4.7 0  -5 4.6 0  -5 4.5 0  -5 4.4 0  -5 4.3 0  -5 4.2 0  -5 4.1 0  -5 4 0  -5 3.9 0  -5 3.8 0  -5 3.7 0  -5 3.6 0  -5 3.5 0  -5 3.4 0  -5 3.3 0  -5 3.2 0  -5 3.1 0  -5 3 0  -5 2.9 0  -5 2.8 0  -5 2.7 0  -5 2.6 0  -5 2.5 0  -5 2.4 0  -5 2.3 0  -5 2.2 0  -5 2.1 0  -5 2 0  -5 1.9 0  -5 1.8 0  -5 1.7 0  -5 1.6 0  -5 1.5 0  -5 1.4 0  -5 1.3 0  -5 1.2 0  -5 1.1 0  -5 1 0  -5 0.9000000000000004 0  -5 0.7999999999999998 0  -5 0.7000000000000002 0  -5 0.5999999999999996 0  -5 0.5 0  -5 0.4000000000000004 0  -5 0.2999999999999998 0  -5 0.2000000000000002 0  -5 0.09999999999999964 0  -5 0 0  -5 -0.09999999999999964 0  -5 -0.2000000000000002 0  -5 -0.2999999999999998 0  -5 -0.4000000000000004 0  -5 -0.5 0  -5 -0.5999999999999996 0  -5 -0.7000000000000002 0  -5 -0.7999999999999998 0  -5 -0.9000000000000004 0  -5 -1 0  -5 -1.1 0  -5 -1.2 0  -5 -1.3 0  -5 -1.4 0  -5 -1.5 0  -5 -1.6 0  -5 -1.7 0  -5 -1.8 0  -5 -1.9 0  -5 -2 0  -5 -2.1 0  -5 -2.2 0  -5 -2.3 0  -5 -2.4 0  -5 -2.5 0  -5 -2.6 0  -5 -2.7 0  -5 -2.8 0  -5 -2.9 0  -5 -3 0  -5 -3.1 0  -5 -3.199999999999999 0  -5 -3.300000000000001 0  -5 -3.4 0  -5 -3.5 0  -5 -3.6 0  -5 -3.699999999999999 0  -5 -3.800000000000001 0  -5 -3.9 0  -5 -4 0  -5 -4.1 0  -5 -4.199999999999999 0  -5 -4.300000000000001 0  -5 -4.4 0  -5 -4.5 0  -5 -4.6 0  -5 -4.699999999999999 0  -5 -4.800000000000001 0  -5 -4.9 0  2.333856478824439 0.2509808977719077 0  1.943467784220042 0.3683933742052116 0  2.286264833522782 0.6813753205741033 0  1.76718834342595 0.6712728467017808 0  1.795081410862511 0.9228519542768591 0  1.531522984753209 1.0044298112517 0  1.377280303592309 1.246360344037138 0  1.181462187629659 1.068902119452699 0  1.137062818347429 1.295276588227633 0  0.9523469782491288 1.437689986014918 0  0.782925514576842 1.449552475928763 0  0.6488437182295054 1.489899323524258 0  0.4637571570156671 1.574283725514207 0  0.2964762965939708 1.604870981282902 0  0.1336524197471144 1.636079206690297 0  -0.0246371436033001 1.630253598742358 0  -0.2315660602620589 1.60011630617131 0  -0.3934372471623301 1.595290475654596 0  -0.5474104437900356 1.549104140747252 0  -0.7062210845150673 1.473966898206647 0  -0.8776407627906482 1.438379333232123 0  -1.042613859025221 1.324759087960771 0  -1.191770414221805 1.220215923109886 0  -1.398705979610131 1.275416784306941 0  -1.276223506415892 0.8977281234230627 0  -1.582695487312898 1.025979030825893 0  -1.898830042649562 0.9013380401860485 0  -1.827742325003428 0.6639709630391157 0  -2.106535958234357 0.5646972478379151 0  -2.175755820988677 0.3041772959430361 0  -2.253323769236684 0.06615513933202563 0  -1.885534685337491 -0.1321776833051435 0  -2.43405272465616 -0.4254767651430709 0  -1.970713777783552 -0.4357069776123946 0  -1.864462896022671 -0.6550232328964682 0  -1.907929508228225 -0.9419087804521754 0  -1.508299410571069 -0.8352438665814397 0  -1.542007639193848 -1.037354037457094 0  -1.370825262689291 -1.209494619013275 0  -1.164777428269594 -1.215646329104638 0  -1.030005520587004 -1.34840716348608 0  -0.870409771548291 -1.469132848203428 0  -0.7009415032572969 -1.501910857434031 0  -0.5399865923970544 -1.543911556393254 0  -0.3816373468665599 -1.608547107061345 0  -0.211586647598732 -1.615334527253668 0  -0.0480240696110534 -1.634332966351026 0  0.1419315034027138 -1.630780685703223 0  0.2916589725662037 -1.62190396087348 0  0.4705602751285697 -1.589524244698242 0  0.6321301356375068 -1.526349107764317 0  0.7726172208884707 -1.409755114036334 0  0.9491173852015019 -1.431986241305597 0  1.117988426970347 -1.317437425265289 0  1.296277204161611 -1.264483667746588 0  1.405939652011874 -1.095007829455124 0  1.51638639227882 -0.952027797620126 0  1.782633531080465 -0.9294249855517389 0  1.880326170519524 -0.7575508519960937 0  1.913068939455653 -0.5446749277888395 0  2.226954153082293 -0.442680334480014 0  2.188066627131491 -0.187934678602409 0  -2.449863003898609 4.920174137709563 0  -2.449819570672389 -4.912720318274804 0  4.911293995773985 2.448356494692589 0  4.919317025494129 -2.44968051994009 0  2.447745127674565 -4.898299639102044 0  2.442160234908553 4.902054033101996 0  -4.911331708195706 -2.448372502768919 0  -4.911378095650439 2.4483768850991 0  -1.750119763708196 4.914267550960786 0  -1.745810823763097 -4.917539912193626 0  4.921008393015 1.744032316886009 0  4.909540829361175 -1.747932768825171 0  -4.909913345337389 -1.747632606973793 0  -4.91077349739798 1.74737400743171 0  1.747525058278965 4.908339695132088 0  1.749085089207445 -4.896837059130212 0  -1.150250133232174 4.913063984881556 0  -1.13096389670397 -4.920484451965945 0  -4.908971961451395 -1.147668555192061 0  -4.908813511066037 1.147457867355149 0  1.145136862177569 -4.916871997593624 0  1.150260971106096 4.913015783041231 0  4.909089808098956 1.145927291856267 0  4.919901772693979 -1.151623222986977 0  -0.5474273850451673 -4.914741039072092 0  -0.5471438370806526 4.923064294219537 0  -4.906999569406317 -0.5484478996671466 0  -4.907036269423704 0.5469834183205562 0  4.906180913086803 -0.5487773132071557 0  4.918013722239629 0.5454633123722313 0  0.5433596552795597 -4.902281279661008 0  0.551902181252274 4.920053122213587 0  -4.912781737511811 -3.048868078279857 0  4.919301918342867 3.046818955699748 0  4.912276779430884 -3.048836140718687 0  -4.913656891952966 3.045948168925876 0  3.05625106128792 -4.918809213711259 0  -3.049640852396554 -4.912777369246441 0  3.053200229122726 4.914890537427715 0  -3.049123253547829 4.913728438853284 0  -4.905817670332996 -0.04988604655578111 0  0.04519499045232706 -4.916798126543995 0  0.04963138489571794 4.923520471224554 0  4.912881986619436 -0.05129219183943692 0  3.54625215096692 -4.919953622800991 0  -3.549620257334969 4.912995269498768 0  -3.549583580239629 -4.913007339606292 0  4.91
[...]
<PointData  Scalars="f_23"> 
<DataArray  type="Float64"  Name="f_23"  format="ascii">0.0000000000000000e+00  0.0000000000000000e+00  0.0000000000000000e+00  0.0000000000000000e+00  2.1629271928538662e+02  0.0000000000000000e+00  0.0000000000000000e+00  0.0000000000000000e+00  0.0000000000000000e+00  0.0000000000000000e+00  0.0000000000000000e+00  0.0000000000000000e+00  0.0000000000000000e+00  0.0000000000000000e+00  0.0000000000000000e+00  0.0000000000000000e+00  0.0000000000000000e+00  0.0000000000000000e+00  0.0000000000000000e+00  0.0000000000000000e+00  0.0000000000000000e+00  0.0000000000000000e+00  0.0000000000000000e+00  0.0000000000000000e+00  0.0000000000000000e+00  0.0000000000000000e+00  0.0000000000000000e+00  0.0000000000000000e+00  0.0000000000000000e+00  0.0000000000000000e+00  0.0000000000000000e+00  0.0000000000000000e+00  0.0000000000000000e+00  0.0000000000000000e+00  0.0000000000000000e+00  0.0000000000000000e+00  0.0000000000000000e+00  0.0000000000000000e+00  0.0000000000000000e+00  0.0000000000000000e+00  0.0000000000000000e+00  0.0000000000000000e+00  0.0000000000000000e+00  0.0000000000000000e+00  0.0000000000000000e+00  0.0000000000000000e+00  0.0000000000000000e+00  0.0000000000000000e+00  0.0000000000000000e+00  0.0000000000000000e+00  0.0000000000000000e+00  0.0000000000000000e+00  0.0000000000000000e+00  0.0000000000000000e+00  0.0000000000000000e+00  0.0000000000000000e+00  0.0000000000000000e+00  0.0000000000000000e+00  0.0000000000000000e+00  0.0000000000000000e+00  0.0000000000000000e+00  0.0000000000000000e+00  0.0000000000000000e+00  0.0000000000000000e+00  0.0000000000000000e+00  0.0000000000000000e+00  0.0000000000000000e+00  0.0000000000000000e+00  0.0000000000000000e+00  0.0000000000000000e+00  0.0000000000000000e+00  0.0000000000000000e+00  0.0000000000000000e+00  0.0000000000000000e+00  0.0000000000000000e+00  0.0000000000000000e+00  0.0000000000000000e+00  0.0000000000000000e+00  0.0000000000000000e+00  0.0000000000000000e+00  0.0000000000000000e+00  0.0000000000000000e+00  0.0000000000000000e+00  0.0000000000000000e+00  0.0000000000000000e+00  0.0000000000000000e+00  0.0000000000000000e+00  0.0000000000000000e+00  0.0000000000000000e+00  0.0000000000000000e+00  0.0000000000000000e+00  0.0000000000000000e+00  0.0000000000000000e+00  0.0000000000000000e+00  0.0000000000000000e+00  0.0000000000000000e+00  0.0000000000000000e+00  0.0000000000000000e+00  0.0000000000000000e+00  0.0000000000000000e+00  0.0000000000000000e+00  0.0000000000000000e+00  0.0000000000000000e+00  0.0000000000000000e+00  0.0000000000000000e+00  0.0000000000000000e+00  0.0000000000000000e+00  0.0000000000000000e+00  0.0000000000000000e+00  0.0000000000000000e+00  0.0000000000000000e+00  0.0000000000000000e+00  0.0000000000000000e+00  0.0000000000000000e+00  0.0000000000000000e+00  0.0000000000000000e+00  0.0000000000000000e+00  0.0000000000000000e+00  0.0000000000000000e+00  0.0000000000000000e+00  0.0000000000000000e+00  0.0000000000000000e+00  0.0000000000000000e+00  0.0000000000000000e+00  0.0000000000000000e+00  0.0000000000000000e+00  0.0000000000000000e+00  0.0000000000000000e+00  0.0000000000000000e+00  0.0000000000000000e+00  0.0000000000000000e+00  0.0000000000000000e+00  0.0000000000000000e+00  0.0000000000000000e+00  0.0000000000000000e+00  0.0000000000000000e+00  0.0000000000000000e+00  0.0000000000000000e+00  0.0000000000000000e+00  0.0000000000000000e+00  0.0000000000000000e+00  0.0000000000000000e+00  0.0000000000000000e+00  0.0000000000000000e+00  0.0000000000000000e+00  0.0000000000000000e+00  0.0000000000000000e+00  0.0000000000000000e+00  0.0000000000000000e+00  0.0000000000000000e+00  0.0000000000000000e+00  0.0000000000000000e+00  0.0000000000000000e+00  0.0000000000000000e+00  0.0000000000000000e+00  0.0000000000000000e+00  0.0000000000000000e+00  0.0000000000000000e+00  0.0000000000000000e+00  0.0000000000000000e+00  0.0000000000000000e+00  0.0000000000000000e+00  0.0000000000000000e+00  0.0000000000000000e+00  0.0000000000000000e+00  0.0000000000000000e+00  0.0000000000000000e+00  0.0000000000000000e+00  0.0000000000000000e+00  0.0000000000000000e+00  0.0000000000000000e+00  0.0000000000000000e+00  0.0000000000000000e+00  0.0000000000000000e+00  0.0000000000000000e+00  0.0000000000000000e+00  0.0000000000000000e+00  0.0000000000000000e+00  0.0000000000000000e+00  0.0000000000000000e+00  0.0000000000000000e+00  0.0000000000000000e+00  0.0000000000000000e+00  0.0000000000000000e+00  0.0000000000000000e+00  0.0000000000000000e+00  0.0000000000000000e+00  0.0000000000000000e+00  0.0000000000000000e+00  0.0000000000000000e+00  0.0000000000000000e+00  0.0000000000000000e+00  0.0000000000000000e+00  0.0000000000000000e+00  0.0000000000000000e+00  0.0000000000000000e+00  0.0000000000000000e+00  0.0000000000000000e+00  0.0000000000000000e+00  0.0000000000000000e+00  0.0000000000000000e+00  0.0000000000000000e+00  0.0000000000000000e+00  0.0000000000000000e+00  0.0000000000000000e+00  0.0000000000000000e+00  0.0000000000000000e+00  0.0000000000000000e+00  0.0000000000000000e+00  0.0000000000000000e+00  0.0000000000000000e+00  0.0000000000000000e+00  0.0000000000000000e+00  0.0000000000000000e+00  0.0000000000000000e+00  0.0000000000000000e+00  0.0000000000000000e+00  0.0000000000000000e+00  0.0000000000000000e+00  0.0000000000000000e+00  0.0000000000000000e+00  0.0000000000000000e+00  0.0000000000000000e+00  0.0000000000000000e+00  0.0000000000000000e+00  0.0000000000000000e+00  0.0000000000000000e+00  0.0000000000000000e+00  0.0000000000000000e+00  0.0000000000000000e+00  0.0000000000000000e+00  0.0000000000000000e+00  0.0000000000000000e+00  0.0000000000000000e+00  0.0000000000000000e+00  0.0000000000000000e+00  0.0000000000000000e+00  0.0000000000000000e+00  0.0000000000000000e+00  0.0000000000000000e+00  0.0000000000000000e+00  0.0000000000000000e+00  0.0000000000000000e+00  0.0000000000000000e+00  0.0000000000000000e+00  0.0000000000000000e+00  0.0000000000000000e+00  0.0000000000000000e+00  0.0000000000000000e+00  0.0000000000000000e+00  0.0000000000000000e+00  0.0000000000000000e+00  0.0000000000000000e+00  0.0000000000000000e+00  0.0000000000000000e+00  0.0000000000000000e+00  0.0000000000000000e+00  0.0000000000000000e+00  0.0000000000000000e+00  0.0000000000000000e+00  0.0000000000000000e+00  0.0000000000000000e+00  0.0000000000000000e+00  0.0000000000000000e+00  0.0000000000000000e+00  0.0000000000000000e+00  0.0000000000000000e+00  0.0000000000000000e+00  0.0000000000000000e+00  0.0000000000000000e+00  0.0000000000000000e+00  0.0000000000000000e+00  0.0000000000000000e+00  0.0000000000000000e+00  0.0000000000000000e+00  0.0000000000000000e+00  0.0000000000000000e+00  0.0000000000000000e+00  0.0000000000000000e+00  0.0000000000000000e+00  0.0000000000000000e+00  0.0000000000000000e+00  0.0000000000000000e+00  0.0000000000000000e+00  0.0000000000000000e+00  0.0000000000000000e+00  0.0000000000000000e+00  0.0000000000000000e+00  0.0000000000000000e+00  0.0000000000000000e+00  0.0000000000000000e+00  0.0000000000000000e+00  0.0000000000000000e+00  0.0000000000000000e+00  0.0000000000000000e+00  0.0000000000000000e+00  0.0000000000000000e+00  0.0000000000000000e+00  0.0000000000000000e+00  0.0000000000000000e+00  0.0000000000000000e+00  0.0000000000000000e+00  0.0000000000000000e+00  0.0000000000000000e+00  0.0000000000000000e+00  0.0000000000000000e+00  0.0000000000000000e+00  0.0000000000000000e+00  0.0000000000000000e+00  0.0000000000000000e+00  0.0000000000000000e+00  0.0000000000000000e+00  0.0000000000000000e+00  0.0000000000000000e+00  0.0000000000000000e+00  0.0000000000000000e+00  0.0000000000000000e+00  0.0000000000000000e+00  0.0000000000000000e+00  0.0000000000000000e+00  0.0000000000000000e+00  0.0000000000000000e+00  0.0000000000000000e+00  0.0000000000000000e+00  0.0000000000000000e+00  0.0000000000000000e+00  0.0000000000000000e+00  0.0000000000000000e+00  0.0000000000000000e+00  0.0000000000000000e+00  0.0000000000000000e+00  0.0000000000000000e+00  0.0000000000000000e+00  0.0000000000000000e+00  0.0000000000000000e+00  0.0000000000000000e+00  0.0000000000000000e+00  0.0000000000000000e+00  0.0000000000000000e+00  0.0000000000000000e+00  0.0000000000000000e+00  0.0000000000000000e+00  0.0000000000000000e+00  0.0000000000000000e+00  0.0000000000000000e+00  0.0000000000000000e+00  0.0000000000000000e+00  0.0000000000000000e+00  0.0000000000000000e+00  0.0000000000000000e+00  0.0000000000000000e+00  0.0000000000000000e+00  0.0000000000000000e+00  0.0000000000000000e+00  0.0000000000000000e+00  0.0000000000000000e+00  0.0000000000000000e+00  0.0000000000000000e+00  0.0000000000000000e+00  0.0000000000000000e+00  0.0000000000000000e+00  0.0000000000000000e+00  0.0000000000000000e+00  0.0000000000000000e+00  0.0000000000000000e+00  0.0000000000000000e+00  0.0000000000000000e+00  0.0000000000000000e+00  0.0000000000000000e+00  0.0000000000000000e+00  0.0000000000000000e+00  0.0000000000000000e+00  0.0000000000000000e+00  0.0000000000000000e+00  0.0000000000000000e+00  0.0000000000000000e+00  0.0000000000000000e+00  0.0000000000000000e+00  0.0000000000000000e+00  0.0000000000000000e+00  0.0000000000000000e+00  0.0000000000000000e+00  0.0000000000000000e+00  0.0000000000000000e+00  0.0000000000000000e+00  0.0000000000000000e+00  0.0000000000000000e+00  0.0000000000000000e+00  0.0000000000000000e+00  0.0000000000000000e+00  0.0000000000000000e+00  0.0000000000000000e+00  0.0000000000000000e+00  0.0000000000000000e+00  0.0000000000000000e+00  0.0000000000000000e+00  0.0000000000000000e+00  0.0000000000000000e+00  0.0000000000000000e+00  0.0000000000000000e+00  0.0000000000000000e+00  2.1383924568424800e+02  2.1758383261834717e+02  2.1209149444670192e+02  2.1884465345042176e+02  2.1727013064266256e+02  2.1689422742424193e+02  2.1114442127598602e+02  2.1570571556240944e+02  2.0809966861022397e+02  2.0737578760155412e+02  2.0792544553918250e+02  2.0702651598251816e+02  2.0538489350643766e+02  2.0527479980120950e+02  2.0523949064476835e+02  2.0608832976046710e+02  2.0669053525441865e+02  2.0560434065010296e+02  2.0566864058468121e+02  2.0677898366067677e+02  2.0696732156818874e+02  2.0846407451263110e+02  2.1094452541285546e+02  2.0581271175823508e+02  2.2147059914539636e+02  2.1581184019000324e+02  2.1943334409144290e+02  2.1881893369677243e+02  2.1882291167393601e+02  2.1914537908154301e+02  2.1793680568462079e+02  2.1820101781322737e+02  2.1289378458369825e+02  2.1823857921503844e+02  2.1560129847896238e+02  2.0869944251608345e+02  2.1851693291317687e+02  2.1399403582428369e+02  2.1195487029590788e+02  2.1132632855744808e+02  2.0723662608737226e+02  2.0653736521023652e+02  2.0666831965178619e+02  2.0592465774514889e+02  2.0495994950752089e+02  2.0524640253198561e+02  2.0523956885609195e+02  2.0539578377816053e+02  2.0498772066030619e+02  2.0480931575351909e+02  2.0541151428253272e+02  2.0857569046998142e+02  2.0807073537563974e+02  2.0941025581526964e+02  2.0880372996535633e+02  2.1042491784547792e+02  2.1250533504105138e+02  2.1131549383446000e+02  2.1248962067012476e+02  2.1423693879938159e+02  2.1281798591081795e+02  2.1364353569665749e+02  2.3009464985605552e+00  2.5121083422404706e+00  2.6091496670292380e+00  2.3557469112992346e+00  2.9194642298103304e+00  2.8326877137982915e+00  2.6043258462088694e+00  2.5996788480161266e+00  3.0364001095140445e+00  2.9219702766198101e+00  2.8843090666625724e+00  3.2802113013975394e+00  3.2831360055412095e+00  3.2475899366761958e+00  3.2529927112866117e+00  3.6399728166706411e+00  3.4641557289937541e+00  3.1712057164525294e+00  3.7580719184862241e+00  3.7597581965337845e+00  3.3028327926190966e+00  3.4682504972476953e+00  3.7567535426751975e+00  3.2923117572257050e+00  3.6303534948155645e+00  3.2810993884933519e+00  4.1292072530041857e+00  4.1248957695977122e+00  4.1569482333492234e+00  3.6417645637161118e+00  4.1573315413887499e+00  3.4104313752714286e+00  1.9768132255914017e+00  1.8338219820611215e+00  1.9768561402601115e+00  1.9578022627666234e+00  1.8025882499541603e+00  1.9564977379007094e+00  1.9083170384611667e+00  1.9323438117802088e+00  4.2711130464168372e+00  3.6116253193797663e+00  3.3271710663369358e+00  3.9485655401599686e+00  1.3399066260048647e+00  1.4607438585975949e+00  1.4595527654600648e+00  1.3574308620224302e+00  1.4724925687334178e+00  1.4264414919891024e+00  1.4468434766635605e+00  1.4310100363460563e+00  1.0295293775300631e+00  1.1830947691984193e+00  1.0544214192392012e+00  1.0630141987918353e+00  9.8316163976819515e-01  1.0645405978122042e+00  1.0418170957442161e+00  1.0486127916106913e+00  7.6414904553945484e-01  6.0408089191263803e-01  5.5492236033904352e-01  6.5772851322195169e-01  6.4223059847526354e-01  6.4746844254162017e-01  6.3973291026195545e-01  6.8257430437817024e-01  4.2466588808455228e+00  3.7524104073204811e+00  3.4998853127014460e+00  3.7179895855383074e+00  3.7287311285282976e+00  3.5312113794161046e+00  3.9838420140112363e+00  4.0048388769597079e+00  3.5623951556236997e+00  2.8891807758690051e+00  4.1542486685432332e+00  3.5244733584680081e+00  3.2956418644559311e+00  3.4065205218185421e+00  3.9989569596065278e+00  3.5662811783065127e+00  3.5522922814106583e+00  3.2910374189542089e+00  3.9772803397977494e+00  3.2908617369315736e+00  3.3392813352615116e+00  3.0015001513905428e+00  3.0047231071416642e+00  2.9531129952266113e+00  2.3926035972561257e+00  2.8235043509992086e+00  2.7686615676510269e+00  2.9914121406228453e+00  2.2856349127234359e+00  2.3609658084497505e+00  2.3115793740936588e+00  2.2702081414259387e+00  2.5391825424269840e+00  2.2973499301545712e+00  2.1995141924839019e+00  1.9555832629271412e+00  3.5100982775473993e-01  3.4586751875843247e-01  3.3762422784821616e-01  3.7570150272940467e-01  3.5083893229926677e-01  3.6704438364187830e-01  3.4784858004783897e-01  2.9034816633844918e-01  4.2482233735680301e+00  4.0365959615477021e+00  4.4358639593818801e+00  3.7694303568215202e+00  2.6903318938465239e+00  2.8104128056227951e+00  2.7928477868424304e+00  3.0197781152819649e+00  2.8062747982713780e+00  2.6793143632330856e+00  2.8912585057295166e+00  2.7694345980122952e+00  1.7460718371704091e+00  2.0209963555086330e+00  1.9981829473735879e+00  1.7813172241278279e+00  1.6831310025120101e+00  1.8184768330560492e+00  1.7298498241344615e+00  1.7590323347478494e+00  1.2417526619792183e+00  8.4063215069616382e-01  1.2746967304352157e+00  9.2563768549466685e-01  1.1552438459766581e+00  8.6221849743555012e-01  1.2673978923975986e+00  8.5941435349552631e-01  1.2611840767961844e+00  1.0297518721884307e+00  1.2691977861836143e+00  8.6107406211504811e-01  1.2662228781328733e+00  8.4829896708669172e-01  1.3193620828016352e+00  8.8677058958511301e-01  1.6655185573604478e-01  1.5113709490247887e-01  1.5023442273019061e-01  1.6362971851182295e-01  4.2634775890896384e+00  8.5232800217080449e+00  8.4848053541635942e+00  1.2778216541387286e+01  1.2708620295766327e+01  1.7028933906363864e+01  1.6926249078400609e+01  2.1277285746308305e+01  2.1127109636279854e+01  2.5521626794455074e+01  2.5314891674347571e+01  2.9762544487846437e+01  2.9490507304285352e+01  3.3999653441231516e+01  3.3653241168217889e+01  3.8232909035238514e+01  3.7797850397440335e+01  4.2458934416442546e+01  4.1934120716776093e+01  4.6669839906115456e+01  4.6047247890875298e+01  4.7237138557279913e+01  5.0882988923267163e+01  5.0135592757993543e+01  5.5082459092311780e+01  5.4204332790260338e+01  5.9247173638260556e+01  5.8235652770171079e+01  6.3387231329369641e+01  6.2226916587135477e+01  6.7485497674880619e+01  6.6169867815297110e+01  6.8732315409743038e+01  7.1529963452032490e+01  7.0053672660388386e+01  7.5532677332233263e+01  7.3873405269163285e+01  7.9476373513873781e+01  7.7612314993722322e+01  8.3326170797557509e+01  8.1268005748305441e+01  8.7079549261080913e+01  8.4818157676533176e+01  8.9295004710780461e+01  9.0722152895092719e+01  8.8253500017013195e+01  9.4241001073212729e+01  9.1554981266988847e+01  8.5710420593785074e+01  8.8826456942271975e+01  9.4719846202946201e+01  9.1816405029471682e+01  8.6112238907239885e+01  8.8913034635230161e+01  8.3410132949163497e+01  8.6017439337922298e+01  9.1550435807912194e+01  8.8473408235185630e+01  8.3126473159878699e+01  8.5412715178064616e+01  8.0245993857062786e+01  8.2371065391134707e+01  8.7546398725628791e+01  8.4345462169516153e+01  7.9350577358004685e+01  8.1172946298937902e+01  8.6163179087351907e+01  8.2841697183668671e+01  7.8029468374085724e+01  7.9555534029680217e+01  8.4352056575391714e+01  8.0926856009106984e+01  8.5700091109253336e+01  7.4915519014827041e+01  8.2139767135371187e+01  8.6881692957529410e+01  8.3191222820828258e+01  8.7894639514456529e+01  8.4078931474074693e+01  8.8736613095281115e+01  8.4801303528474463e+01  8.9405862119809626e+01  8.0320233810754218e+01  8.5357046117709473e+01  8.9902126165368060e+01  8.5745873356190955e+01  9.0225380254084399e+01  8.5968376370275067e+01  9.0376490368684870e+01  8.6025312032515345e+01  9.0357101399517504e+01  8.5918658774290478e+01  9.0169240197562573e+01  8.5650489981918540e+01  8.9815961713130051e+01  8.1750775024689887e+01  9.2737363919320543e+01  2.0521106505508322e+02  8.5223406902997937e+01  8.9300761068265842e+01  8.4641858279358857e+01  8.8627665299814311e+01  2.0128566261065163e+02  8.3909466384542156e+01  8.7801340352960622e+01  1.9995003362901554e+02  8.3030829665063521e+01  8.6826882477336014e+01  9.1739563285286422e+01  9.0661657283000693e+01  8.5709681789510839e+01  8.9439945666391807e+01  9.4881370724474976e+01  7.9280077668874810e+01  8.4456109689187372e+01  8.8081412711260697e+01  9.3194760902968085e+01  9.1723283670970133e+01  8.6591589965423736e+01  9.0121300134421972e+01  9.5374950315678191e+01  9.3653547593501784e+01  8.8395689184091779e+01  9.1809942846912662e+01  9.7180872442013339e+01  9.5212338337234272e+01  8.9851797346737214e+01  9.3130443764650664e+01  9.8604272256485132e+01  9.6388437125078568e+01  9.0945589159849163e+01  9.4070679433132483e+01  9.9604331653389835e+01  9.7153522770397529e+01  9.1663896309547596e+01  9.4617442585979688e+01  1.0018517238773187e+02  9.7514692656222095e+01  1.0315701449749879e+02  1.0034640548022489e+02  9.4767700052751437e+01  9.7463666069015616e+01  1.0310293840700021e+02  1.0008007119077620e+02  9.4518195072889384e+01  9.6999645366430457e+01  1.0260757091008229e+02  9.9388198187708838e+01  1.0503606573078997e+02  1.0167420638230436e+02  1.0735583154325978e+02  1.0384835945176172e+02  9.8276581747444780e+01  1.0031226409124510e+02  1.0590133747666685e+02  1.0222454087107172e+02  1.0782360869801174e+02  1.0400451100874490e+02  1.0960586690213141e+02  1.0564332751364772e+02  1.1123891808555197e+02  1.0713244396624066e+02  1.0168582460211306e+02  1.0304051061217085e+02  1.0846403943575933e+02  1.0424080774749744e+02  1.0962806210360257e+02  1.0527502915060045e+02  1.1062084951939931e+02  1.0613833787413120e+02  1.1144446430948209e+02  1.0682511674615296e+02  1.1207454839143257e+02  1.0733350287747294e+02  1.1250551121696893e+02  1.0765298395204323e+02  1.1274723157575173e+02  1.0778364218955282e+02  1.1281880670575771e+02  1.0772681446423064e+02  1.1266919731992988e+02  1.0747358671577052e+02  1.1228222658423569e+02  1.0701655031618644e+02  1.1171464837936044e+02  1.0636705776012592e+02  1.1094984669997700e+02  1.0187597859031625e+02  1.0115404855414825e+02  9.6863723204679815e+01  9.6076625932100015e+01  9.1981105905934839e+01  9.1138306155896984e+01  8.7229725952654448e+01  8.6338740346505276e+01  8.2609817876991869e+01  8.1678233233531969e+01  8.5282702875482840e+01  7.8122254452977160e+01  1.0095997284996331e+02  8.0587959939961337e+01  8.4063663088352953e+01  7.9343006379721274e+01  8.2684714131164540e+01  7.7943794627942211e+01  8.1148820595011898e+01  7.6393218229518581e+01  7.9459726436836391e+01  7.4697745672586493e+01  7.1796801689725086e+01  7.7622366549462953e+01  7.0099261121603988e+01  6.7356496803067429e+01  6.5659636581528972e+01  6.3068128317558461e