<?xml version="1.0"?>
<VTKFile type="UnstructuredGrid"  version="0.1"  >
<UnstructuredGrid>
<Piece  NumberOfPoints="11902" NumberOfCells="23402">
<Points>
<DataArray  type="Float64"  NumberOfComponents="3"  format="ascii">-5 -5 0  5 -5 0  5 5 0  -5 5 0  1.965207999288287 0.01706922902354522 0  -4.9 -5 0  -4.8 -5 0  -4.7 -5 0  -4.6 -5 0  -4.5 -5 0  -4.4 -5 0  -4.3 -5 0  -4.2 -5 0  -4.1 -5 0  -4 -5 0  -3.9 -5 0  -3.8 -5 0  -3.7 -5 0  -3.6 -5 0  -3.5 -5 0  -3.4 -5 0  -3.3 -5 0  -3.2 -5 0  -3.1 -5 0  -3 -5 0  -2.9 -5 0  -2.8 -5 0  -2.7 -5 0  -2.6 -5 0  -2.5 -5 0  -2.4 -5 0  -2.3 -5 0  -2.2 -5 0  -2.1 -5 0  -2 -5 0  -1.9 -5 0  -1.8 -5 0  -1.7 -5 0  -1.6 -5 0  -1.5 -5 0  -1.4 -5 0  -1.3 -5 0  -1.2 -5 0  -1.1 -5 0  -1 -5 0  -0.9000000000000004 -5 0  -0.7999999999999998 -5 0  -0.7000000000000002 -5 0  -0.5999999999999996 -5 0  -0.5 -5 0  -0.4000000000000004 -5 0  -0.2999999999999998 -5 0  -0.2000000000000002 -5 0  -0.09999999999999964 -5 0  0 -5 0  0.09999999999999964 -5 0  0.2000000000000002 -5 0  0.2999999999999998 -5 0  0.4000000000000004 -5 0  0.5 -5 0  0.5999999999999996 -5 0  0.7000000000000002 -5 0  0.7999999999999998 -5 0  0.9000000000000004 -5 0  1 -5 0  1.1 -5 0  1.2 -5 0  1.3 -5 0  1.4 -5 0  1.5 -5 0  1.6 -5 0  1.7 -5 0  1.8 -5 0  1.9 -5 0  2 -5 0  2.1 -5 0  2.2 -5 0  2.3 -5 0  2.4 -5 0  2.5 -5 0  2.6 -5 0  2.7 -5 0  2.8 -5 0  2.9 -5 0  3 -5 0  3.1 -5 0  3.199999999999999 -5 0  3.300000000000001 -5 0  3.4 -5 0  3.5 -5 0  3.6 -5 0  3.699999999999999 -5 0  3.800000000000001 -5 0  3.9 -5 0  4 -5 0  4.1 -5 0  4.199999999999999 -5 0  4.300000000000001 -5 0  4.4 -5 0  4.5 -5 0  4.6 -5 0  4.699999999999999 -5 0  4.800000000000001 -5 0  4.9 -5 0  5 -4.9 0  5 -4.8 0  5 -4.7 0  5 -4.6 0  5 -4.5 0  5 -4.4 0  5 -4.3 0  5 -4.2 0  5 -4.1 0  5 -4 0  5 -3.9 0  5 -3.8 0  5 -3.7 0  5 -3.6 0  5 -3.5 0  5 -3.4 0  5 -3.3 0  5 -3.2 0  5 -3.1 0  5 -3 0  5 -2.9 0  5 -2.8 0  5 -2.7 0  5 -2.6 0  5 -2.5 0  5 -2.4 0  5 -2.3 0  5 -2.2 0  5 -2.1 0  5 -2 0  5 -1.9 0  5 -1.8 0  5 -1.7 0  5 -1.6 0  5 -1.5 0  5 -1.4 0  5 -1.3 0  5 -1.2 0  5 -1.1 0  5 -1 0  5 -0.9000000000000004 0  5 -0.7999999999999998 0  5 -0.7000000000000002 0  5 -0.5999999999999996 0  5 -0.5 0  5 -0.4000000000000004 0  5 -0.2999999999999998 0  5 -0.2000000000000002 0  5 -0.09999999999999964 0  5 0 0  5 0.09999999999999964 0  5 0.2000000000000002 0  5 0.2999999999999998 0  5 0.4000000000000004 0  5 0.5 0  5 0.5999999999999996 0  5 0.7000000000000002 0  5 0.7999999999999998 0  5 0.9000000000000004 0  5 1 0  5 1.1 0  5 1.2 0  5 1.3 0  5 1.4 0  5 1.5 0  5 1.6 0  5 1.7 0  5 1.8 0  5 1.9 0  5 2 0  5 2.1 0  5 2.2 0  5 2.3 0  5 2.4 0  5 2.5 0  5 2.6 0  5 2.7 0  5 2.8 0  5 2.9 0  5 3 0  5 3.1 0  5 3.199999999999999 0  5 3.300000000000001 0  5 3.4 0  5 3.5 0  5 3.6 0  5 3.699999999999999 0  5 3.800000000000001 0  5 3.9 0  5 4 0  5 4.1 0  5 4.199999999999999 0  5 4.300000000000001 0  5 4.4 0  5 4.5 0  5 4.6 0  5 4.699999999999999 0  5 4.800000000000001 0  5 4.9 0  4.9 5 0  4.8 5 0  4.7 5 0  4.6 5 0  4.5 5 0  4.4 5 0  4.3 5 0  4.2 5 0  4.1 5 0  4 5 0  3.9 5 0  3.8 5 0  3.7 5 0  3.6 5 0  3.5 5 0  3.4 5 0  3.3 5 0  3.2 5 0  3.1 5 0  3 5 0  2.9 5 0  2.8 5 0  2.7 5 0  2.6 5 0  2.5 5 0  2.4 5 0  2.3 5 0  2.2 5 0  2.1 5 0  2 5 0  1.9 5 0  1.8 5 0  1.7 5 0  1.6 5 0  1.5 5 0  1.4 5 0  1.3 5 0  1.2 5 0  1.1 5 0  1 5 0  0.9000000000000004 5 0  0.7999999999999998 5 0  0.7000000000000002 5 0  0.5999999999999996 5 0  0.5 5 0  0.4000000000000004 5 0  0.2999999999999998 5 0  0.2000000000000002 5 0  0.09999999999999964 5 0  0 5 0  -0.09999999999999964 5 0  -0.2000000000000002 5 0  -0.2999999999999998 5 0  -0.4000000000000004 5 0  -0.5 5 0  -0.5999999999999996 5 0  -0.7000000000000002 5 0  -0.7999999999999998 5 0  -0.9000000000000004 5 0  -1 5 0  -1.1 5 0  -1.2 5 0  -1.3 5 0  -1.4 5 0  -1.5 5 0  -1.6 5 0  -1.7 5 0  -1.8 5 0  -1.9 5 0  -2 5 0  -2.1 5 0  -2.2 5 0  -2.3 5 0  -2.4 5 0  -2.5 5 0  -2.6 5 0  -2.7 5 0  -2.8 5 0  -2.9 5 0  -3 5 0  -3.1 5 0  -3.199999999999999 5 0  -3.300000000000001 5 0  -3.4 5 0  -3.5 5 0  -3.6 5 0  -3.699999999999999 5 0  -3.800000000000001 5 0  -3.9 5 0  -4 5 0  -4.1 5 0  -4.199999999999999 5 0  -4.300000000000001 5 0  -4.4 5 0  -4.5 5 0  -4.6 5 0  -4.699999999999999 5 0  -4.800000000000001 5 0  -4.9 5 0  -5 4.9 0  -5 4.8 0  -5 4.7 0  -5 4.6 0  -5 4.5 0  -5 4.4 0  -5 4.3 0  -5 4.2 0  -5 4.1 0  -5 4 0  -5 3.9 0  -5 3.8 0  -5 3.7 0  -5 3.6 0  -5 3.5 0  -5 3.4 0  -5 3.3 0  -5 3.2 0  -5 3.1 0  -5 3 0  -5 2.9 0  -5 2.8 0  -5 2.7 0  -5 2.6 0  -5 2.5 0  -5 2.4 0  -5 2.3 0  -5 2.2 0  -5 2.1 0  -5 2 0  -5 1.9 0  -5 1.8 0  -5 1.7 0  -5 1.6 0  -5 1.5 0  -5 1.4 0  -5 1.3 0  -5 1.2 0  -5 1.1 0  -5 1 0  -5 0.9000000000000004 0  -5 0.7999999999999998 0  -5 0.7000000000000002 0  -5 0.5999999999999996 0  -5 0.5 0  -5 0.4000000000000004 0  -5 0.2999999999999998 0  -5 0.2000000000000002 0  -5 0.09999999999999964 0  -5 0 0  -5 -0.09999999999999964 0  -5 -0.2000000000000002 0  -5 -0.2999999999999998 0  -5 -0.4000000000000004 0  -5 -0.5 0  -5 -0.5999999999999996 0  -5 -0.7000000000000002 0  -5 -0.7999999999999998 0  -5 -0.9000000000000004 0  -5 -1 0  -5 -1.1 0  -5 -1.2 0  -5 -1.3 0  -5 -1.4 0  -5 -1.5 0  -5 -1.6 0  -5 -1.7 0  -5 -1.8 0  -5 -1.9 0  -5 -2 0  -5 -2.1 0  -5 -2.2 0  -5 -2.3 0  -5 -2.4 0  -5 -2.5 0  -5 -2.6 0  -5 -2.7 0  -5 -2.8 0  -5 -2.9 0  -5 -3 0  -5 -3.1 0  -5 -3.199999999999999 0  -5 -3.300000000000001 0  -5 -3.4 0  -5 -3.5 0  -5 -3.6 0  -5 -3.699999999999999 0  -5 -3.800000000000001 0  -5 -3.9 0  -5 -4 0  -5 -4.1 0  -5 -4.199999999999999 0  -5 -4.300000000000001 0  -5 -4.4 0  -5 -4.5 0  -5 -4.6 0  -5 -4.699999999999999 0  -5 -4.800000000000001 0  -5 -4.9 0  2.330121094554334 0.2477393382783467 0  1.95471870748291 0.3723155438750745 0  2.281987900156818 0.679299128139901 0  1.776933172771146 0.6841755734219817 0  1.796542754135093 0.9321967385720956 0  1.54045973682791 1.017534604072625 0  1.395024201777231 1.252077842785185 0  1.186594266778558 1.088990615755901 0  1.144771997578371 1.312726027959392 0  0.9579697699917955 1.452726400530406 0  0.7866047748426527 1.468376567802326 0  0.6527993241331915 1.509528193204313 0  0.467048319072679 1.592576984087911 0  0.2991387514071162 1.62333762477964 0  0.1347158412052653 1.654984924610027 0  -0.02532400484330949 1.648894420952807 0  -0.2333100607095174 1.618112648164802 0  -0.3960428311898718 1.613862824254572 0  -0.5518856871357263 1.567497582625099 0  -0.711014869743519 1.493191519613216 0  -0.8831417541257073 1.456080581749542 0  -1.048371286439809 1.342757417766919 0  -1.195482832477453 1.238688685353249 0  -1.413864803947859 1.283146861762507 0  -1.287447892242411 0.9213520034687868 0  -1.591552590365948 1.035328066240035 0  -1.898774457103902 0.9072291798691359 0  -1.842495140296155 0.6737841081147939 0  -2.106511455088204 0.566855041297513 0  -2.180544048580841 0.3062122064458959 0  -2.250274016978195 0.06286717781908438 0  -1.905841578017648 -0.1346164857459698 0  -2.426186216583516 -0.4097508607437493 0  -1.976725808397227 -0.4459007095069634 0  -1.874088833004402 -0.6615277009467161 0  -1.909545393541204 -0.9445619221606618 0  -1.519950431554768 -0.8543905969388971 0  -1.549067523115798 -1.05524537645198 0  -1.375557740671781 -1.224161615761065 0  -1.17338694265428 -1.238195955339071 0  -1.038321473614595 -1.366901793076646 0  -0.8762072283844732 -1.484971968979504 0  -0.7056908840603282 -1.52112542232187 0  -0.5444206179409847 -1.563711798184399 0  -0.3845255978029095 -1.6269181414582 0  -0.2131476726850097 -1.633961278832953 0  -0.04915310399780826 -1.652655968730788 0  0.1426623781721131 -1.649298361898958 0  0.2936758593382083 -1.640158789571791 0  0.4749110244119399 -1.606937019671476 0  0.6372675486937369 -1.544042487053229 0  0.7793815082409857 -1.435682019159411 0  0.9536379937798567 -1.449390464580562 0  1.126045846684487 -1.335716904801938 0  1.301375085030535 -1.278480802626919 0  1.418161865025645 -1.115806222586592 0  1.532152833870688 -0.9793946327240922 0  1.782294908071368 -0.9379099202096607 0  1.886998346033393 -0.768386464167264 0  1.930629492364753 -0.5605841600604978 0  2.221961148729899 -0.444876180239582 0  2.189425132407631 -0.1873693741155806 0  -2.449839817786581 4.920160994198396 0  -2.44979737098173 -4.912709862137541 0  4.911328898714804 2.448380231329216 0  4.919354106496272 -2.449706209330052 0  2.447718476315194 -4.898289884316161 0  2.442126827234315 4.902043901025969 0  -4.911366432339731 -2.448395118971699 0  -4.911412704109342 2.44839983825814 0  -1.750086241947638 4.914231310203298 0  -1.745779938322313 -4.917507984440797 0  4.921068614138417 1.744065191245094 0  4.909617445037299 -1.747968902614157 0  -4.909980707457452 -1.747665972989571 0  -4.910840716831888 1.747407604462608 0  1.747481296309868 4.908300569285066 0  1.74904367952508 -4.896801297756049 0  -1.150218871522569 4.913002692228253 0  -1.130935410401725 -4.92044121529779 0  -4.909072256572213 -1.14770214279917 0  -4.90891500342059 1.147491736810206 0  1.145109193107662 -4.916822871369665 0  1.150228974802491 4.912958094360928 0  4.909192344677761 1.145964028358789 0  4.919998360935542 -1.151655866173014 0  -0.5474121242637168 -4.914673691931956 0  -0.5471287722355787 4.922997366002879 0  -4.907128888158295 -0.548468925778215 0  -4.907166374544077 0.547004220493214 0  4.906320709316332 -0.548796511557094 0  4.918131993606226 0.5454863245772582 0  0.5433350063784845 -4.902207836849266 0  0.551886718825604 4.919983218056714 0  -4.912798197614974 -3.048880436440668 0  4.919316892603359 3.046831068345548 0  4.912297069495229 -3.048852609836672 0  -4.913673078424446 3.045960503311744 0  3.056242786512819 -4.918812335747368 0  -3.049627688190415 -4.912773720458468 0  3.053186548976436 4.914888452796511 0  -3.049111173184464 4.913727307955155 0  -4.905958401051285 -0.04988842024921558 0  0.04519114700710603 -4.916727385261882 0  0.04963015368498048 4.923450118025003 0  4.913018355306276 -0.05129085895961831 0  3.546249384728222 -4.919956398960839 0  -3.549614247787768 4.91299653286235 0  -3.54957777540099 -4.913009021773828 0  4
[...]
<PointData  Scalars="f_23"> 
<DataArray  type="Float64"  Name="f_23"  format="ascii">0.0000000000000000e+00  0.0000000000000000e+00  0.0000000000000000e+00  0.0000000000000000e+00  2.1930855550223416e+02  0.0000000000000000e+00  0.0000000000000000e+00  0.0000000000000000e+00  0.0000000000000000e+00  0.0000000000000000e+00  0.0000000000000000e+00  0.0000000000000000e+00  0.0000000000000000e+00  0.0000000000000000e+00  0.0000000000000000e+00  0.0000000000000000e+00  0.0000000000000000e+00  0.0000000000000000e+00  0.0000000000000000e+00  0.0000000000000000e+00  0.0000000000000000e+00  0.0000000000000000e+00  0.0000000000000000e+00  0.0000000000000000e+00  0.0000000000000000e+00  0.0000000000000000e+00  0.0000000000000000e+00  0.0000000000000000e+00  0.0000000000000000e+00  0.0000000000000000e+00  0.0000000000000000e+00  0.0000000000000000e+00  0.0000000000000000e+00  0.0000000000000000e+00  0.0000000000000000e+00  0.0000000000000000e+00  0.0000000000000000e+00  0.0000000000000000e+00  0.0000000000000000e+00  0.0000000000000000e+00  0.0000000000000000e+00  0.0000000000000000e+00  0.0000000000000000e+00  0.0000000000000000e+00  0.0000000000000000e+00  0.0000000000000000e+00  0.0000000000000000e+00  0.0000000000000000e+00  0.0000000000000000e+00  0.0000000000000000e+00  0.0000000000000000e+00  0.0000000000000000e+00  0.0000000000000000e+00  0.0000000000000000e+00  0.0000000000000000e+00  0.0000000000000000e+00  0.0000000000000000e+00  0.0000000000000000e+00  0.0000000000000000e+00  0.0000000000000000e+00  0.0000000000000000e+00  0.0000000000000000e+00  0.0000000000000000e+00  0.0000000000000000e+00  0.0000000000000000e+00  0.0000000000000000e+00  0.0000000000000000e+00  0.0000000000000000e+00  0.0000000000000000e+00  0.0000000000000000e+00  0.0000000000000000e+00  0.0000000000000000e+00  0.0000000000000000e+00  0.0000000000000000e+00  0.0000000000000000e+00  0.0000000000000000e+00  0.0000000000000000e+00  0.0000000000000000e+00  0.0000000000000000e+00  0.0000000000000000e+00  0.0000000000000000e+00  0.0000000000000000e+00  0.0000000000000000e+00  0.0000000000000000e+00  0.0000000000000000e+00  0.0000000000000000e+00  0.0000000000000000e+00  0.0000000000000000e+00  0.0000000000000000e+00  0.0000000000000000e+00  0.0000000000000000e+00  0.0000000000000000e+00  0.0000000000000000e+00  0.0000000000000000e+00  0.0000000000000000e+00  0.0000000000000000e+00  0.0000000000000000e+00  0.0000000000000000e+00  0.0000000000000000e+00  0.0000000000000000e+00  0.0000000000000000e+00  0.0000000000000000e+00  0.0000000000000000e+00  0.0000000000000000e+00  0.0000000000000000e+00  0.0000000000000000e+00  0.0000000000000000e+00  0.0000000000000000e+00  0.0000000000000000e+00  0.0000000000000000e+00  0.0000000000000000e+00  0.0000000000000000e+00  0.0000000000000000e+00  0.0000000000000000e+00  0.0000000000000000e+00  0.0000000000000000e+00  0.0000000000000000e+00  0.0000000000000000e+00  0.0000000000000000e+00  0.0000000000000000e+00  0.0000000000000000e+00  0.0000000000000000e+00  0.0000000000000000e+00  0.0000000000000000e+00  0.0000000000000000e+00  0.0000000000000000e+00  0.0000000000000000e+00  0.0000000000000000e+00  0.0000000000000000e+00  0.0000000000000000e+00  0.0000000000000000e+00  0.0000000000000000e+00  0.0000000000000000e+00  0.0000000000000000e+00  0.0000000000000000e+00  0.0000000000000000e+00  0.0000000000000000e+00  0.0000000000000000e+00  0.0000000000000000e+00  0.0000000000000000e+00  0.0000000000000000e+00  0.0000000000000000e+00  0.0000000000000000e+00  0.0000000000000000e+00  0.0000000000000000e+00  0.0000000000000000e+00  0.0000000000000000e+00  0.0000000000000000e+00  0.0000000000000000e+00  0.0000000000000000e+00  0.0000000000000000e+00  0.0000000000000000e+00  0.0000000000000000e+00  0.0000000000000000e+00  0.0000000000000000e+00  0.0000000000000000e+00  0.0000000000000000e+00  0.0000000000000000e+00  0.0000000000000000e+00  0.0000000000000000e+00  0.0000000000000000e+00  0.0000000000000000e+00  0.0000000000000000e+00  0.0000000000000000e+00  0.0000000000000000e+00  0.0000000000000000e+00  0.0000000000000000e+00  0.0000000000000000e+00  0.0000000000000000e+00  0.0000000000000000e+00  0.0000000000000000e+00  0.0000000000000000e+00  0.0000000000000000e+00  0.0000000000000000e+00  0.0000000000000000e+00  0.0000000000000000e+00  0.0000000000000000e+00  0.0000000000000000e+00  0.0000000000000000e+00  0.0000000000000000e+00  0.0000000000000000e+00  0.0000000000000000e+00  0.0000000000000000e+00  0.0000000000000000e+00  0.0000000000000000e+00  0.0000000000000000e+00  0.0000000000000000e+00  0.0000000000000000e+00  0.0000000000000000e+00  0.0000000000000000e+00  0.0000000000000000e+00  0.0000000000000000e+00  0.0000000000000000e+00  0.0000000000000000e+00  0.0000000000000000e+00  0.0000000000000000e+00  0.0000000000000000e+00  0.0000000000000000e+00  0.0000000000000000e+00  0.0000000000000000e+00  0.0000000000000000e+00  0.0000000000000000e+00  0.0000000000000000e+00  0.0000000000000000e+00  0.0000000000000000e+00  0.0000000000000000e+00  0.0000000000000000e+00  0.0000000000000000e+00  0.0000000000000000e+00  0.0000000000000000e+00  0.0000000000000000e+00  0.0000000000000000e+00  0.0000000000000000e+00  0.0000000000000000e+00  0.0000000000000000e+00  0.0000000000000000e+00  0.0000000000000000e+00  0.0000000000000000e+00  0.0000000000000000e+00  0.0000000000000000e+00  0.0000000000000000e+00  0.0000000000000000e+00  0.0000000000000000e+00  0.0000000000000000e+00  0.0000000000000000e+00  0.0000000000000000e+00  0.0000000000000000e+00  0.0000000000000000e+00  0.0000000000000000e+00  0.0000000000000000e+00  0.0000000000000000e+00  0.0000000000000000e+00  0.0000000000000000e+00  0.0000000000000000e+00  0.0000000000000000e+00  0.0000000000000000e+00  0.0000000000000000e+00  0.0000000000000000e+00  0.0000000000000000e+00  0.0000000000000000e+00  0.0000000000000000e+00  0.0000000000000000e+00  0.0000000000000000e+00  0.0000000000000000e+00  0.0000000000000000e+00  0.0000000000000000e+00  0.0000000000000000e+00  0.0000000000000000e+00  0.0000000000000000e+00  0.0000000000000000e+00  0.0000000000000000e+00  0.0000000000000000e+00  0.0000000000000000e+00  0.0000000000000000e+00  0.0000000000000000e+00  0.0000000000000000e+00  0.0000000000000000e+00  0.0000000000000000e+00  0.0000000000000000e+00  0.0000000000000000e+00  0.0000000000000000e+00  0.0000000000000000e+00  0.0000000000000000e+00  0.0000000000000000e+00  0.0000000000000000e+00  0.0000000000000000e+00  0.0000000000000000e+00  0.0000000000000000e+00  0.0000000000000000e+00  0.0000000000000000e+00  0.0000000000000000e+00  0.0000000000000000e+00  0.0000000000000000e+00  0.0000000000000000e+00  0.0000000000000000e+00  0.0000000000000000e+00  0.0000000000000000e+00  0.0000000000000000e+00  0.0000000000000000e+00  0.0000000000000000e+00  0.0000000000000000e+00  0.0000000000000000e+00  0.0000000000000000e+00  0.0000000000000000e+00  0.0000000000000000e+00  0.0000000000000000e+00  0.0000000000000000e+00  0.0000000000000000e+00  0.0000000000000000e+00  0.0000000000000000e+00  0.0000000000000000e+00  0.0000000000000000e+00  0.0000000000000000e+00  0.0000000000000000e+00  0.0000000000000000e+00  0.0000000000000000e+00  0.0000000000000000e+00  0.0000000000000000e+00  0.0000000000000000e+00  0.0000000000000000e+00  0.0000000000000000e+00  0.0000000000000000e+00  0.0000000000000000e+00  0.0000000000000000e+00  0.0000000000000000e+00  0.0000000000000000e+00  0.0000000000000000e+00  0.0000000000000000e+00  0.0000000000000000e+00  0.0000000000000000e+00  0.0000000000000000e+00  0.0000000000000000e+00  0.0000000000000000e+00  0.0000000000000000e+00  0.0000000000000000e+00  0.0000000000000000e+00  0.0000000000000000e+00  0.0000000000000000e+00  0.0000000000000000e+00  0.0000000000000000e+00  0.0000000000000000e+00  0.0000000000000000e+00  0.0000000000000000e+00  0.0000000000000000e+00  0.0000000000000000e+00  0.0000000000000000e+00  0.0000000000000000e+00  0.0000000000000000e+00  0.0000000000000000e+00  0.0000000000000000e+00  0.0000000000000000e+00  0.0000000000000000e+00  0.0000000000000000e+00  0.0000000000000000e+00  0.0000000000000000e+00  0.0000000000000000e+00  0.0000000000000000e+00  0.0000000000000000e+00  0.0000000000000000e+00  0.0000000000000000e+00  0.0000000000000000e+00  0.0000000000000000e+00  0.0000000000000000e+00  0.0000000000000000e+00  0.0000000000000000e+00  0.0000000000000000e+00  0.0000000000000000e+00  0.0000000000000000e+00  0.0000000000000000e+00  0.0000000000000000e+00  0.0000000000000000e+00  0.0000000000000000e+00  0.0000000000000000e+00  0.0000000000000000e+00  0.0000000000000000e+00  0.0000000000000000e+00  0.0000000000000000e+00  0.0000000000000000e+00  0.0000000000000000e+00  0.0000000000000000e+00  0.0000000000000000e+00  0.0000000000000000e+00  0.0000000000000000e+00  0.0000000000000000e+00  0.0000000000000000e+00  0.0000000000000000e+00  0.0000000000000000e+00  0.0000000000000000e+00  0.0000000000000000e+00  0.0000000000000000e+00  0.0000000000000000e+00  0.0000000000000000e+00  0.0000000000000000e+00  0.0000000000000000e+00  0.0000000000000000e+00  0.0000000000000000e+00  0.0000000000000000e+00  0.0000000000000000e+00  0.0000000000000000e+00  0.0000000000000000e+00  0.0000000000000000e+00  0.0000000000000000e+00  0.0000000000000000e+00  0.0000000000000000e+00  0.0000000000000000e+00  0.0000000000000000e+00  0.0000000000000000e+00  0.0000000000000000e+00  0.0000000000000000e+00  0.0000000000000000e+00  0.0000000000000000e+00  0.0000000000000000e+00  0.0000000000000000e+00  0.0000000000000000e+00  0.0000000000000000e+00  0.0000000000000000e+00  0.0000000000000000e+00  0.0000000000000000e+00  0.0000000000000000e+00  0.0000000000000000e+00  0.0000000000000000e+00  2.1725224301866868e+02  2.2051924645372867e+02  2.1525112599344152e+02  2.2141208252282954e+02  2.1960759455479445e+02  2.1892592313060402e+02  2.1193636345796051e+02  2.2075888902378762e+02  2.1199370715533243e+02  2.1119883397834249e+02  2.1139991257252836e+02  2.1029080184676749e+02  2.0860238192971059e+02  2.0847495644041669e+02  2.0841413713081286e+02  2.0930141607697860e+02  2.0995628241326907e+02  2.0880535409355608e+02  2.0884987980604279e+02  2.0996593936002853e+02  2.1023105118423948e+02  2.1183637628457382e+02  2.1429863922438383e+02  2.0984617337581750e+02  2.2266944443263213e+02  2.1908065502840063e+02  2.2237862729586200e+02  2.2181704945854401e+02  2.2184948496069285e+02  2.2214484017260358e+02  2.2098289022702167e+02  2.2124182860536948e+02  2.1698233279756747e+02  2.2137133357337694e+02  2.1897462497263649e+02  2.1286096314851429e+02  2.2106191336917104e+02  2.1704355040327511e+02  2.1510813533541446e+02  2.1430093552356061e+02  2.1046965187918801e+02  2.0976380753492998e+02  2.0973415404040989e+02  2.0895990006669132e+02  2.0799018670604679e+02  2.0829783651436213e+02  2.0829908688660421e+02  2.0848333277823446e+02  2.0808465268436740e+02  2.0795886001558605e+02  2.0852094688491312e+02  2.1154887361842944e+02  2.1120688319686420e+02  2.1261709446173140e+02  2.1225270021967327e+02  2.1380730300889130e+02  2.1562625291380584e+02  2.1496996065320982e+02  2.1600005202963840e+02  2.1751064323391108e+02  2.1649348719922185e+02  2.1712787736857558e+02  2.3435686190022573e+00  2.5551009950711285e+00  2.6513508920873190e+00  2.3871471652009006e+00  2.9664122748841355e+00  2.8874149408431218e+00  2.6436547471265426e+00  2.6407886212096590e+00  3.0951812416574231e+00  2.9739137057636365e+00  2.9271569268443836e+00  3.3211756773961771e+00  3.3303294223007094e+00  3.2959113593934415e+00  3.3184349678342024e+00  3.7017449775580107e+00  3.5338902551918765e+00  3.2289975227533332e+00  3.8097212767088724e+00  3.8126155608267864e+00  3.3614668984003706e+00  3.5398632302058792e+00  3.8078647222400592e+00  3.3314199221843737e+00  3.6979725470099782e+00  3.3489908202244667e+00  4.1840719909153350e+00  4.1802825930247955e+00  4.2051410530025759e+00  3.6872010427699551e+00  4.2335703536654101e+00  3.4820010039977114e+00  2.0076461122164244e+00  1.8650324116639114e+00  2.0044404904547592e+00  1.9900029955989487e+00  1.8304641283304359e+00  1.9892413095256039e+00  1.9442121042100537e+00  1.9670060641004390e+00  4.3273636019926132e+00  3.6789625778324897e+00  3.3969752745912309e+00  3.9950267224192362e+00  1.3602349206237250e+00  1.4864914983233910e+00  1.4835921747214420e+00  1.3812004157095934e+00  1.4958977273593188e+00  1.4469108173552072e+00  1.4712003416012664e+00  1.4574374198655491e+00  1.0445388967758484e+00  1.2024459749141601e+00  1.0702308953009223e+00  1.0800870065766961e+00  1.0003128864894051e+00  1.0834675094705180e+00  1.0608502849796997e+00  1.0664936741379103e+00  7.7552095852472658e-01  6.1455703695050989e-01  5.6395328072048900e-01  6.6953574761373780e-01  6.5169097482612492e-01  6.5793699549572560e-01  6.5073253464005854e-01  6.9495052538380742e-01  4.3029025256591256e+00  3.8225597470960877e+00  3.5729068285176866e+00  3.7628130227831451e+00  3.8048279022123213e+00  3.5808247947631715e+00  4.0384409857779886e+00  4.0588274908912396e+00  3.6138912874110001e+00  2.9393172828660745e+00  4.2410055623686196e+00  3.5882520396181672e+00  3.3627358610633142e+00  3.4549931757619778e+00  4.0456734135188510e+00  3.6126480137902579e+00  3.5954371647543089e+00  3.3560181334811845e+00  4.0511189871654683e+00  3.3502868847899374e+00  3.4026068793081854e+00  3.0540827063051670e+00  3.0488897648022175e+00  2.9982817826979935e+00  2.4399320889283267e+00  2.8702763573528141e+00  2.8114582954934280e+00  3.0298602289634986e+00  2.3168423872073149e+00  2.4009192671982329e+00  2.3557563681120937e+00  2.3068817416652867e+00  2.5855299742866573e+00  2.3326544901786104e+00  2.2360950666524788e+00  1.9863697864531638e+00  3.5670133544637078e-01  3.5099955133860833e-01  3.4370948642059340e-01  3.8220002190835262e-01  3.5603027373848856e-01  3.7300635373110469e-01  3.5385080528885354e-01  2.9559549205894742e-01  4.3042225345889502e+00  4.1114063946195083e+00  4.5291188840633048e+00  3.8133412039989278e+00  2.7408229455317863e+00  2.8549118708424790e+00  2.8294211816534811e+00  3.0718676930359328e+00  2.8481047132324702e+00  2.7230379020277709e+00  2.9480066958831643e+00  2.8125290323638041e+00  1.7707390239577501e+00  2.0545793820904410e+00  2.0338161463621125e+00  1.8093352142719654e+00  1.7121421759270228e+00  1.8464177610421064e+00  1.7621757584945932e+00  1.7882674667586058e+00  1.2597255287805826e+00  8.5295904822984492e-01  1.2956152279729021e+00  9.4072796564406169e-01  1.1726384639971057e+00  8.7508931419897829e-01  1.2876578716814340e+00  8.7326940048783896e-01  1.2833035106970847e+00  1.0476580979930326e+00  1.2916098363763377e+00  8.7646692085077593e-01  1.2876900928206101e+00  8.6283178144227768e-01  1.3435880858068199e+00  9.0290169592177549e-01  1.6925555018757507e-01  1.5386602047029499e-01  1.5246148697526249e-01  1.6645741748234244e-01  4.3196269721361098e+00  8.6354866876778811e+00  8.5966582218454235e+00  1.2946406944587643e+01  1.2876201661399401e+01  1.7253052397900511e+01  1.7149529568914279e+01  2.1557307555257584e+01  2.1405935278405622e+01  2.5857523286903451e+01  2.5649175228683912e+01  3.0154315043631346e+01  2.9880196779602215e+01  3.4447326397921529e+01  3.4098305683845240e+01  3.8736545225943743e+01  3.8298245107447734e+01  4.3018623249795397e+01  4.2489973878102482e+01  4.7285614227060236e+01  4.6658566330968441e+01  4.7857018504011450e+01  5.1555219688292226e+01  5.0802467907662518e+01  5.5811399413650605e+01  5.4927011570015289e+01  6.0032914681702700e+01  5.9014265574819248e+01  6.4230169586166042e+01  6.3061708394256378e+01  6.8385956045472909e+01  6.7061107933129037e+01  6.9641189417982815e+01  7.2488310093767282e+01  7.1001680720480692e+01  7.6549612758352723e+01  7.4878568215778785e+01  8.0552545520189256e+01  7.8675023847214405e+01  8.4462027964100685e+01  8.2388745617522432e+01  8.8275700934758277e+01  8.5997293788016364e+01  9.0506749469905614e+01  9.1979172063366178e+01  8.9491436542115807e+01  9.5559458639049367e+01  9.2851991315330309e+01  8.6927051526391466e+01  9.0100043744941587e+01  9.6076213701839208e+01  9.3147174983629228e+01  8.7361314678654097e+01  9.0216671074051916e+01  8.4633509134877698e+01  8.7292540256962155e+01  9.2908204388799376e+01  8.9799752422134247e+01  8.4371571807243726e+01  8.6706225041323691e+01  8.1459786675067846e+01  8.3630435788737728e+01  8.8887602144094274e+01  8.5649523291710906e+01  8.0574605260706477e+01  8.2438694316198053e+01  8.7510892652080898e+01  8.4147979994495373e+01  7.9255844001321620e+01  8.0819382538519577e+01  8.5697522202477288e+01  8.2226702306639083e+01  8.7083205464486639e+01  7.6101576553161294e+01  8.3473961083304317e+01  8.8300720633534027e+01  8.4557929590622678e+01  8.9347633951256597e+01  8.5476120044274978e+01  9.0221406131703745e+01  8.6226741981685024e+01  9.0920048431902870e+01  8.1661205527384638e+01  8.6808287863544194e+01  9.1443066957208075e+01  8.7220261714492764e+01  9.1790199025314507e+01  8.7463051869538830e+01  9.1962080916436889e+01  8.7537210028839482e+01  9.1960137649510017e+01  8.7444533376860619e+01  9.1786192259132363e+01  8.7186921697321111e+01  9.1443121602272015e+01  8.3189571017372785e+01  9.4281123888302190e+01  2.0689346264592385e+02  8.6766822321262026e+01  9.0934267166149610e+01  8.6188581520827483e+01  9.0263534637879857e+01  2.0345391939940660e+02  8.5455722024030038e+01  8.9435506709993518e+01  2.0235020475171399e+02  8.4572787683556299e+01  8.8455232535637663e+01  9.3464840814470435e+01  9.2379290772241490e+01  8.7328093420157998e+01  9.1145529377529499e+01  9.6562312451762054e+01  8.0738569151616232e+01  8.6060504908560631e+01  8.9770610511238743e+01  9.4989972514449150e+01  9.3499349732071551e+01  8.8260144672369734e+01  9.1873739719232432e+01  9.7239764349571104e+01  9.5491326603165518e+01  9.0120202465839782e+01  9.3616206746099394e+01  9.9105168045564866e+01  9.7101085415298982e+01  9.1622336518598146e+01  9.4979296132424750e+01  1.0057609429072468e+02  9.8315631144028870e+01  9.2750615790844691e+01  9.5949275454710232e+01  1.0160913075965429e+02  9.9104678275953276e+01  9.3490465699392459e+01  9.6511608403216499e+01  1.0220734168217085e+02  9.9474564288766857e+01  1.0524806897687353e+02  1.0236952123908259e+02  9.6662544031272787e+01  9.9416359614918392e+01  1.0518621773444991e+02  1.0208732520215061e+02  9.6398597509344086e+01  9.8929360757354445e+01  1.0466551285854233e+02  1.0136325488348851e+02  1.0714021891357736e+02  1.0369010467073045e+02  1.0950113370825265e+02  1.0590010101059585e+02  1.0020423758024407e+02  1.0227098765223418e+02  1.0798343817306994e+02  1.0420903321447547e+02  1.0993014869559650e+02  1.0600912125376797e+02  1.1173055165815184e+02  1.0766211150765164e+02  1.1337514713414464e+02  1.0915924156248352e+02  1.0360148543395839e+02  1.0496122753980488e+02  1.1049255840880524e+02  1.0616082860798952e+02  1.1165193575310909e+02  1.0718851201161046e+02  1.1263383531181221e+02  1.0803957811250493e+02  1.1344062186070043e+02  1.0870859542996556e+02  1.1404784481306343e+02  1.0919401334460296e+02  1.1445024779722139e+02  1.0948553422484092e+02  1.1465839374500746e+02  1.0958369305989734e+02  1.1469222295868084e+02  1.0949032476828627e+02  1.1450029176010793e+02  1.0919687569952603e+02  1.1406685205697292e+02  1.0869635204495069e+02  1.1345018133249259e+02  1.0800082702849271e+02  1.1263401987493980e+02  1.0345685083601933e+02  1.0269173378061832e+02  9.8351203248690453e+01  9.7523555238598760e+01  9.3380346481312600e+01  9.2499459840119513e+01  8.8545521583050856e+01  8.7618711811871236e+01  8.3846587695706774e+01  8.2881260865316619e+01  8.6525479258817512e+01  7.9284077456134611e+01  1.0276761949544020e+02  8.1755954694516191e+01  8.5268140776266165e+01  8.0474925622010645e+01  8.3850034433654827e+01  7.9038767080367847e+01  8.2274337976862554e+01  7.7450551992236612e+01  8.0544978548151192e+01  7.5716939100965064e+01  7.2788977487256403e+01  7.8667051641416933e+01  7.1055189797046253e+01  6.8286318307722397e+01  6.6554895201696539e+01  6.3938198922453395e