<?xml version="1.0"?>
<VTKFile type="UnstructuredGrid"  version="0.1"  >
<UnstructuredGrid>
<Piece  NumberOfPoints="11902" NumberOfCells="23402">
<Points>
<DataArray  type="Float64"  NumberOfComponents="3"  format="ascii">-5 -5 0  5 -5 0  5 5 0  -5 5 0  1.303339564361806 -0.00126843041230682 0  -4.9 -5 0  -4.8 -5 0  -4.7 -5 0  -4.6 -5 0  -4.5 -5 0  -4.4 -5 0  -4.3 -5 0  -4.2 -5 0  -4.1 -5 0  -4 -5 0  -3.9 -5 0  -3.8 -5 0  -3.7 -5 0  -3.6 -5 0  -3.5 -5 0  -3.4 -5 0  -3.3 -5 0  -3.2 -5 0  -3.1 -5 0  -3 -5 0  -2.9 -5 0  -2.8 -5 0  -2.7 -5 0  -2.6 -5 0  -2.5 -5 0  -2.4 -5 0  -2.3 -5 0  -2.2 -5 0  -2.1 -5 0  -2 -5 0  -1.9 -5 0  -1.8 -5 0  -1.7 -5 0  -1.6 -5 0  -1.5 -5 0  -1.4 -5 0  -1.3 -5 0  -1.2 -5 0  -1.1 -5 0  -1 -5 0  -0.9000000000000004 -5 0  -0.7999999999999998 -5 0  -0.7000000000000002 -5 0  -0.5999999999999996 -5 0  -0.5 -5 0  -0.4000000000000004 -5 0  -0.2999999999999998 -5 0  -0.2000000000000002 -5 0  -0.09999999999999964 -5 0  0 -5 0  0.09999999999999964 -5 0  0.2000000000000002 -5 0  0.2999999999999998 -5 0  0.4000000000000004 -5 0  0.5 -5 0  0.5999999999999996 -5 0  0.7000000000000002 -5 0  0.7999999999999998 -5 0  0.9000000000000004 -5 0  1 -5 0  1.1 -5 0  1.2 -5 0  1.3 -5 0  1.4 -5 0  1.5 -5 0  1.6 -5 0  1.7 -5 0  1.8 -5 0  1.9 -5 0  2 -5 0  2.1 -5 0  2.2 -5 0  2.3 -5 0  2.4 -5 0  2.5 -5 0  2.6 -5 0  2.7 -5 0  2.8 -5 0  2.9 -5 0  3 -5 0  3.1 -5 0  3.199999999999999 -5 0  3.300000000000001 -5 0  3.4 -5 0  3.5 -5 0  3.6 -5 0  3.699999999999999 -5 0  3.800000000000001 -5 0  3.9 -5 0  4 -5 0  4.1 -5 0  4.199999999999999 -5 0  4.300000000000001 -5 0  4.4 -5 0  4.5 -5 0  4.6 -5 0  4.699999999999999 -5 0  4.800000000000001 -5 0  4.9 -5 0  5 -4.9 0  5 -4.8 0  5 -4.7 0  5 -4.6 0  5 -4.5 0  5 -4.4 0  5 -4.3 0  5 -4.2 0  5 -4.1 0  5 -4 0  5 -3.9 0  5 -3.8 0  5 -3.7 0  5 -3.6 0  5 -3.5 0  5 -3.4 0  5 -3.3 0  5 -3.2 0  5 -3.1 0  5 -3 0  5 -2.9 0  5 -2.8 0  5 -2.7 0  5 -2.6 0  5 -2.5 0  5 -2.4 0  5 -2.3 0  5 -2.2 0  5 -2.1 0  5 -2 0  5 -1.9 0  5 -1.8 0  5 -1.7 0  5 -1.6 0  5 -1.5 0  5 -1.4 0  5 -1.3 0  5 -1.2 0  5 -1.1 0  5 -1 0  5 -0.9000000000000004 0  5 -0.7999999999999998 0  5 -0.7000000000000002 0  5 -0.5999999999999996 0  5 -0.5 0  5 -0.4000000000000004 0  5 -0.2999999999999998 0  5 -0.2000000000000002 0  5 -0.09999999999999964 0  5 0 0  5 0.09999999999999964 0  5 0.2000000000000002 0  5 0.2999999999999998 0  5 0.4000000000000004 0  5 0.5 0  5 0.5999999999999996 0  5 0.7000000000000002 0  5 0.7999999999999998 0  5 0.9000000000000004 0  5 1 0  5 1.1 0  5 1.2 0  5 1.3 0  5 1.4 0  5 1.5 0  5 1.6 0  5 1.7 0  5 1.8 0  5 1.9 0  5 2 0  5 2.1 0  5 2.2 0  5 2.3 0  5 2.4 0  5 2.5 0  5 2.6 0  5 2.7 0  5 2.8 0  5 2.9 0  5 3 0  5 3.1 0  5 3.199999999999999 0  5 3.300000000000001 0  5 3.4 0  5 3.5 0  5 3.6 0  5 3.699999999999999 0  5 3.800000000000001 0  5 3.9 0  5 4 0  5 4.1 0  5 4.199999999999999 0  5 4.300000000000001 0  5 4.4 0  5 4.5 0  5 4.6 0  5 4.699999999999999 0  5 4.800000000000001 0  5 4.9 0  4.9 5 0  4.8 5 0  4.7 5 0  4.6 5 0  4.5 5 0  4.4 5 0  4.3 5 0  4.2 5 0  4.1 5 0  4 5 0  3.9 5 0  3.8 5 0  3.7 5 0  3.6 5 0  3.5 5 0  3.4 5 0  3.3 5 0  3.2 5 0  3.1 5 0  3 5 0  2.9 5 0  2.8 5 0  2.7 5 0  2.6 5 0  2.5 5 0  2.4 5 0  2.3 5 0  2.2 5 0  2.1 5 0  2 5 0  1.9 5 0  1.8 5 0  1.7 5 0  1.6 5 0  1.5 5 0  1.4 5 0  1.3 5 0  1.2 5 0  1.1 5 0  1 5 0  0.9000000000000004 5 0  0.7999999999999998 5 0  0.7000000000000002 5 0  0.5999999999999996 5 0  0.5 5 0  0.4000000000000004 5 0  0.2999999999999998 5 0  0.2000000000000002 5 0  0.09999999999999964 5 0  0 5 0  -0.09999999999999964 5 0  -0.2000000000000002 5 0  -0.2999999999999998 5 0  -0.4000000000000004 5 0  -0.5 5 0  -0.5999999999999996 5 0  -0.7000000000000002 5 0  -0.7999999999999998 5 0  -0.9000000000000004 5 0  -1 5 0  -1.1 5 0  -1.2 5 0  -1.3 5 0  -1.4 5 0  -1.5 5 0  -1.6 5 0  -1.7 5 0  -1.8 5 0  -1.9 5 0  -2 5 0  -2.1 5 0  -2.2 5 0  -2.3 5 0  -2.4 5 0  -2.5 5 0  -2.6 5 0  -2.7 5 0  -2.8 5 0  -2.9 5 0  -3 5 0  -3.1 5 0  -3.199999999999999 5 0  -3.300000000000001 5 0  -3.4 5 0  -3.5 5 0  -3.6 5 0  -3.699999999999999 5 0  -3.800000000000001 5 0  -3.9 5 0  -4 5 0  -4.1 5 0  -4.199999999999999 5 0  -4.300000000000001 5 0  -4.4 5 0  -4.5 5 0  -4.6 5 0  -4.699999999999999 5 0  -4.800000000000001 5 0  -4.9 5 0  -5 4.9 0  -5 4.8 0  -5 4.7 0  -5 4.6 0  -5 4.5 0  -5 4.4 0  -5 4.3 0  -5 4.2 0  -5 4.1 0  -5 4 0  -5 3.9 0  -5 3.8 0  -5 3.7 0  -5 3.6 0  -5 3.5 0  -5 3.4 0  -5 3.3 0  -5 3.2 0  -5 3.1 0  -5 3 0  -5 2.9 0  -5 2.8 0  -5 2.7 0  -5 2.6 0  -5 2.5 0  -5 2.4 0  -5 2.3 0  -5 2.2 0  -5 2.1 0  -5 2 0  -5 1.9 0  -5 1.8 0  -5 1.7 0  -5 1.6 0  -5 1.5 0  -5 1.4 0  -5 1.3 0  -5 1.2 0  -5 1.1 0  -5 1 0  -5 0.9000000000000004 0  -5 0.7999999999999998 0  -5 0.7000000000000002 0  -5 0.5999999999999996 0  -5 0.5 0  -5 0.4000000000000004 0  -5 0.2999999999999998 0  -5 0.2000000000000002 0  -5 0.09999999999999964 0  -5 0 0  -5 -0.09999999999999964 0  -5 -0.2000000000000002 0  -5 -0.2999999999999998 0  -5 -0.4000000000000004 0  -5 -0.5 0  -5 -0.5999999999999996 0  -5 -0.7000000000000002 0  -5 -0.7999999999999998 0  -5 -0.9000000000000004 0  -5 -1 0  -5 -1.1 0  -5 -1.2 0  -5 -1.3 0  -5 -1.4 0  -5 -1.5 0  -5 -1.6 0  -5 -1.7 0  -5 -1.8 0  -5 -1.9 0  -5 -2 0  -5 -2.1 0  -5 -2.2 0  -5 -2.3 0  -5 -2.4 0  -5 -2.5 0  -5 -2.6 0  -5 -2.7 0  -5 -2.8 0  -5 -2.9 0  -5 -3 0  -5 -3.1 0  -5 -3.199999999999999 0  -5 -3.300000000000001 0  -5 -3.4 0  -5 -3.5 0  -5 -3.6 0  -5 -3.699999999999999 0  -5 -3.800000000000001 0  -5 -3.9 0  -5 -4 0  -5 -4.1 0  -5 -4.199999999999999 0  -5 -4.300000000000001 0  -5 -4.4 0  -5 -4.5 0  -5 -4.6 0  -5 -4.699999999999999 0  -5 -4.800000000000001 0  -5 -4.9 0  1.29790927722924 0.1260848706644601 0  1.276688091124384 0.2467943636946324 0  1.244597637175577 0.3646642614467936 0  1.192837730328638 0.4755724517741783 0  1.131574194561631 0.5821599347963609 0  1.05880818167277 0.6813210882139654 0  0.9729949500884517 0.7792029265775354 0  0.8824297334000525 0.8584539731089453 0  0.7852106509324011 0.9335610452588856 0  0.6818392255611898 0.9980184851644455 0  0.5659327296915999 1.054325893801914 0  0.4559849756858539 1.097631460819701 0  0.333218774456183 1.135430403658238 0  0.2125167127630411 1.160332742811416 0  0.09108632170036356 1.17612922243997 0  -0.03379905783788175 1.179577975312168 0  -0.1507591595708991 1.170433589490776 0  -0.2713895360150755 1.150899041828053 0  -0.3944608155695131 1.11867443224969 0  -0.5097757686523068 1.078054467206601 0  -0.6239414968491911 1.028163079064279 0  -0.7325582539986152 0.9662728445148185 0  -0.833034298261374 0.8982152627388916 0  -0.9319527875237363 0.8187963852157849 0  -1.015506451944749 0.7288231410509288 0  -1.094302652519271 0.6346900830482471 0  -1.16204121633232 0.5315119234822222 0  -1.217223065913066 0.4187060490864673 0  -1.260356741910797 0.3040778267083646 0  -1.288946584543192 0.1852367508592174 0  -1.303026031510593 0.06197745633218367 0  -1.302026640450935 -0.06026514519385578 0  -1.291510859406615 -0.1818631297793946 0  -1.258838484579551 -0.3059636188314875 0  -1.215495947992723 -0.4194537434603492 0  -1.160233769318631 -0.5322999458675916 0  -1.092534836929353 -0.6319866492149236 0  -1.015379933954116 -0.7300089519754689 0  -0.9279059067356759 -0.8197246863985399 0  -0.8332716570613777 -0.8974950933710293 0  -0.733039817067391 -0.9674739738863872 0  -0.6242261798197752 -1.029588827167105 0  -0.5104911285012519 -1.079783901827655 0  -0.3943917624345853 -1.118630969464051 0  -0.2743880749675061 -1.149486965424624 0  -0.1545266645670974 -1.166705084799085 0  -0.03328775663065341 -1.17574187848203 0  0.09588356678027911 -1.173040595157332 0  0.2129879974763077 -1.160071818987752 0  0.3385171309376255 -1.134504981280426 0  0.4523454801525924 -1.100009637029657 0  0.5705387502954751 -1.052851759270955 0  0.6774986610453425 -1.002098586063665 0  0.7866260085136006 -0.9345081127093726 0  0.8849578169458793 -0.8605567990717041 0  0.9753826330349427 -0.7765439210004859 0  1.05733214611664 -0.6842923652447134 0  1.128861555189266 -0.5861920082504767 0  1.189752756252816 -0.4782144818454369 0  1.240763826866124 -0.3595659858581975 0  1.275419200842061 -0.246593976232721 0  1.296868409042771 -0.1216199273882783 0  -2.449953607888292 4.92043522420213 0  -2.449947347464176 -4.913012905116265 0  4.912781801907997 2.449726144501473 0  4.920689950205191 -2.451015171060009 0  2.447934430296077 -4.898689961086351 0  2.442319039633908 4.902342362427417 0  -4.912791112961672 -2.449733828808494 0  -4.912798677030115 2.449737405621454 0  -1.749988817692568 4.91433069327802 0  -1.745711272369549 -4.91763117592683 0  4.923422860250526 1.745649296871372 0  4.912351971962061 -1.749656995543056 0  -4.912614161911407 -1.749361965287617 0  -4.913418919725168 1.749086806045973 0  1.747377828292775 4.908427690268939 0  1.748968556031952 -4.897007728921026 0  -1.150015249742182 4.912831371413897 0  -1.130762985209824 -4.920357399378782 0  -4.912960010614692 -1.149312508334435 0  -4.912794586351542 1.149109505562931 0  1.144929624631271 -4.916740811264037 0  1.15001724583483 4.912811026175135 0  4.913128599632096 1.147597238464038 0  4.923499138017033 -1.153206242359461 0  -0.5472867229819472 -4.914350302255235 0  -0.5470043155174186 4.922646054695595 0  -4.912161387700641 -0.5494516900017783 0  -4.912189860727151 0.5479978827005598 0  4.911544402560305 -0.5497836584306618 0  4.922666121717882 0.5464315150852105 0  0.5431427008525926 -4.901865795119789 0  0.551746178789109 4.919624027877212 0  -4.913534126428677 -3.049816286049065 0  4.919995500778005 3.047730285654554 0  4.913059540344674 -3.049816062283796 0  -4.914376567384472 3.046895097776585 0  3.056500989950203 -4.919085801614135 0  -3.04992746512958 -4.913146324735181 0  3.053465966009831 4.915190491310726 0  -3.04936300792506 4.914018363427782 0  -4.911440202646768 -0.04998228605469758 0  0.04516004602825532 -4.916339823223026 0  0.04961103540481089 4.923037602433152 0  4.918195294837432 -0.05135906626294115 0  3.546560038309642 -4.920245734165008 0  -3.549926111094426 4.913241394187905 0  -3
[...]
<PointData  Scalars="f_23"> 
<DataArray  type="Float64"  Name="f_23"  format="ascii">0.0000000000000000e+00  0.0000000000000000e+00  0.0000000000000000e+00  0.0000000000000000e+00  2.2752936060420436e+02  0.0000000000000000e+00  0.0000000000000000e+00  0.0000000000000000e+00  0.0000000000000000e+00  0.0000000000000000e+00  0.0000000000000000e+00  0.0000000000000000e+00  0.0000000000000000e+00  0.0000000000000000e+00  0.0000000000000000e+00  0.0000000000000000e+00  0.0000000000000000e+00  0.0000000000000000e+00  0.0000000000000000e+00  0.0000000000000000e+00  0.0000000000000000e+00  0.0000000000000000e+00  0.0000000000000000e+00  0.0000000000000000e+00  0.0000000000000000e+00  0.0000000000000000e+00  0.0000000000000000e+00  0.0000000000000000e+00  0.0000000000000000e+00  0.0000000000000000e+00  0.0000000000000000e+00  0.0000000000000000e+00  0.0000000000000000e+00  0.0000000000000000e+00  0.0000000000000000e+00  0.0000000000000000e+00  0.0000000000000000e+00  0.0000000000000000e+00  0.0000000000000000e+00  0.0000000000000000e+00  0.0000000000000000e+00  0.0000000000000000e+00  0.0000000000000000e+00  0.0000000000000000e+00  0.0000000000000000e+00  0.0000000000000000e+00  0.0000000000000000e+00  0.0000000000000000e+00  0.0000000000000000e+00  0.0000000000000000e+00  0.0000000000000000e+00  0.0000000000000000e+00  0.0000000000000000e+00  0.0000000000000000e+00  0.0000000000000000e+00  0.0000000000000000e+00  0.0000000000000000e+00  0.0000000000000000e+00  0.0000000000000000e+00  0.0000000000000000e+00  0.0000000000000000e+00  0.0000000000000000e+00  0.0000000000000000e+00  0.0000000000000000e+00  0.0000000000000000e+00  0.0000000000000000e+00  0.0000000000000000e+00  0.0000000000000000e+00  0.0000000000000000e+00  0.0000000000000000e+00  0.0000000000000000e+00  0.0000000000000000e+00  0.0000000000000000e+00  0.0000000000000000e+00  0.0000000000000000e+00  0.0000000000000000e+00  0.0000000000000000e+00  0.0000000000000000e+00  0.0000000000000000e+00  0.0000000000000000e+00  0.0000000000000000e+00  0.0000000000000000e+00  0.0000000000000000e+00  0.0000000000000000e+00  0.0000000000000000e+00  0.0000000000000000e+00  0.0000000000000000e+00  0.0000000000000000e+00  0.0000000000000000e+00  0.0000000000000000e+00  0.0000000000000000e+00  0.0000000000000000e+00  0.0000000000000000e+00  0.0000000000000000e+00  0.0000000000000000e+00  0.0000000000000000e+00  0.0000000000000000e+00  0.0000000000000000e+00  0.0000000000000000e+00  0.0000000000000000e+00  0.0000000000000000e+00  0.0000000000000000e+00  0.0000000000000000e+00  0.0000000000000000e+00  0.0000000000000000e+00  0.0000000000000000e+00  0.0000000000000000e+00  0.0000000000000000e+00  0.0000000000000000e+00  0.0000000000000000e+00  0.0000000000000000e+00  0.0000000000000000e+00  0.0000000000000000e+00  0.0000000000000000e+00  0.0000000000000000e+00  0.0000000000000000e+00  0.0000000000000000e+00  0.0000000000000000e+00  0.0000000000000000e+00  0.0000000000000000e+00  0.0000000000000000e+00  0.0000000000000000e+00  0.0000000000000000e+00  0.0000000000000000e+00  0.0000000000000000e+00  0.0000000000000000e+00  0.0000000000000000e+00  0.0000000000000000e+00  0.0000000000000000e+00  0.0000000000000000e+00  0.0000000000000000e+00  0.0000000000000000e+00  0.0000000000000000e+00  0.0000000000000000e+00  0.0000000000000000e+00  0.0000000000000000e+00  0.0000000000000000e+00  0.0000000000000000e+00  0.0000000000000000e+00  0.0000000000000000e+00  0.0000000000000000e+00  0.0000000000000000e+00  0.0000000000000000e+00  0.0000000000000000e+00  0.0000000000000000e+00  0.0000000000000000e+00  0.0000000000000000e+00  0.0000000000000000e+00  0.0000000000000000e+00  0.0000000000000000e+00  0.0000000000000000e+00  0.0000000000000000e+00  0.0000000000000000e+00  0.0000000000000000e+00  0.0000000000000000e+00  0.0000000000000000e+00  0.0000000000000000e+00  0.0000000000000000e+00  0.0000000000000000e+00  0.0000000000000000e+00  0.0000000000000000e+00  0.0000000000000000e+00  0.0000000000000000e+00  0.0000000000000000e+00  0.0000000000000000e+00  0.0000000000000000e+00  0.0000000000000000e+00  0.0000000000000000e+00  0.0000000000000000e+00  0.0000000000000000e+00  0.0000000000000000e+00  0.0000000000000000e+00  0.0000000000000000e+00  0.0000000000000000e+00  0.0000000000000000e+00  0.0000000000000000e+00  0.0000000000000000e+00  0.0000000000000000e+00  0.0000000000000000e+00  0.0000000000000000e+00  0.0000000000000000e+00  0.0000000000000000e+00  0.0000000000000000e+00  0.0000000000000000e+00  0.0000000000000000e+00  0.0000000000000000e+00  0.0000000000000000e+00  0.0000000000000000e+00  0.0000000000000000e+00  0.0000000000000000e+00  0.0000000000000000e+00  0.0000000000000000e+00  0.0000000000000000e+00  0.0000000000000000e+00  0.0000000000000000e+00  0.0000000000000000e+00  0.0000000000000000e+00  0.0000000000000000e+00  0.0000000000000000e+00  0.0000000000000000e+00  0.0000000000000000e+00  0.0000000000000000e+00  0.0000000000000000e+00  0.0000000000000000e+00  0.0000000000000000e+00  0.0000000000000000e+00  0.0000000000000000e+00  0.0000000000000000e+00  0.0000000000000000e+00  0.0000000000000000e+00  0.0000000000000000e+00  0.0000000000000000e+00  0.0000000000000000e+00  0.0000000000000000e+00  0.0000000000000000e+00  0.0000000000000000e+00  0.0000000000000000e+00  0.0000000000000000e+00  0.0000000000000000e+00  0.0000000000000000e+00  0.0000000000000000e+00  0.0000000000000000e+00  0.0000000000000000e+00  0.0000000000000000e+00  0.0000000000000000e+00  0.0000000000000000e+00  0.0000000000000000e+00  0.0000000000000000e+00  0.0000000000000000e+00  0.0000000000000000e+00  0.0000000000000000e+00  0.0000000000000000e+00  0.0000000000000000e+00  0.0000000000000000e+00  0.0000000000000000e+00  0.0000000000000000e+00  0.0000000000000000e+00  0.0000000000000000e+00  0.0000000000000000e+00  0.0000000000000000e+00  0.0000000000000000e+00  0.0000000000000000e+00  0.0000000000000000e+00  0.0000000000000000e+00  0.0000000000000000e+00  0.0000000000000000e+00  0.0000000000000000e+00  0.0000000000000000e+00  0.0000000000000000e+00  0.0000000000000000e+00  0.0000000000000000e+00  0.0000000000000000e+00  0.0000000000000000e+00  0.0000000000000000e+00  0.0000000000000000e+00  0.0000000000000000e+00  0.0000000000000000e+00  0.0000000000000000e+00  0.0000000000000000e+00  0.0000000000000000e+00  0.0000000000000000e+00  0.0000000000000000e+00  0.0000000000000000e+00  0.0000000000000000e+00  0.0000000000000000e+00  0.0000000000000000e+00  0.0000000000000000e+00  0.0000000000000000e+00  0.0000000000000000e+00  0.0000000000000000e+00  0.0000000000000000e+00  0.0000000000000000e+00  0.0000000000000000e+00  0.0000000000000000e+00  0.0000000000000000e+00  0.0000000000000000e+00  0.0000000000000000e+00  0.0000000000000000e+00  0.0000000000000000e+00  0.0000000000000000e+00  0.0000000000000000e+00  0.0000000000000000e+00  0.0000000000000000e+00  0.0000000000000000e+00  0.0000000000000000e+00  0.0000000000000000e+00  0.0000000000000000e+00  0.0000000000000000e+00  0.0000000000000000e+00  0.0000000000000000e+00  0.0000000000000000e+00  0.0000000000000000e+00  0.0000000000000000e+00  0.0000000000000000e+00  0.0000000000000000e+00  0.0000000000000000e+00  0.0000000000000000e+00  0.0000000000000000e+00  0.0000000000000000e+00  0.0000000000000000e+00  0.0000000000000000e+00  0.0000000000000000e+00  0.0000000000000000e+00  0.0000000000000000e+00  0.0000000000000000e+00  0.0000000000000000e+00  0.0000000000000000e+00  0.0000000000000000e+00  0.0000000000000000e+00  0.0000000000000000e+00  0.0000000000000000e+00  0.0000000000000000e+00  0.0000000000000000e+00  0.0000000000000000e+00  0.0000000000000000e+00  0.0000000000000000e+00  0.0000000000000000e+00  0.0000000000000000e+00  0.0000000000000000e+00  0.0000000000000000e+00  0.0000000000000000e+00  0.0000000000000000e+00  0.0000000000000000e+00  0.0000000000000000e+00  0.0000000000000000e+00  0.0000000000000000e+00  0.0000000000000000e+00  0.0000000000000000e+00  0.0000000000000000e+00  0.0000000000000000e+00  0.0000000000000000e+00  0.0000000000000000e+00  0.0000000000000000e+00  0.0000000000000000e+00  0.0000000000000000e+00  0.0000000000000000e+00  0.0000000000000000e+00  0.0000000000000000e+00  0.0000000000000000e+00  0.0000000000000000e+00  0.0000000000000000e+00  0.0000000000000000e+00  0.0000000000000000e+00  0.0000000000000000e+00  0.0000000000000000e+00  0.0000000000000000e+00  0.0000000000000000e+00  0.0000000000000000e+00  0.0000000000000000e+00  0.0000000000000000e+00  0.0000000000000000e+00  0.0000000000000000e+00  0.0000000000000000e+00  0.0000000000000000e+00  0.0000000000000000e+00  0.0000000000000000e+00  0.0000000000000000e+00  0.0000000000000000e+00  0.0000000000000000e+00  0.0000000000000000e+00  0.0000000000000000e+00  0.0000000000000000e+00  0.0000000000000000e+00  0.0000000000000000e+00  0.0000000000000000e+00  0.0000000000000000e+00  0.0000000000000000e+00  0.0000000000000000e+00  0.0000000000000000e+00  0.0000000000000000e+00  0.0000000000000000e+00  0.0000000000000000e+00  0.0000000000000000e+00  0.0000000000000000e+00  0.0000000000000000e+00  0.0000000000000000e+00  0.0000000000000000e+00  0.0000000000000000e+00  0.0000000000000000e+00  0.0000000000000000e+00  0.0000000000000000e+00  0.0000000000000000e+00  0.0000000000000000e+00  0.0000000000000000e+00  0.0000000000000000e+00  0.0000000000000000e+00  0.0000000000000000e+00  0.0000000000000000e+00  0.0000000000000000e+00  0.0000000000000000e+00  0.0000000000000000e+00  0.0000000000000000e+00  0.0000000000000000e+00  0.0000000000000000e+00  0.0000000000000000e+00  0.0000000000000000e+00  0.0000000000000000e+00  0.0000000000000000e+00  0.0000000000000000e+00  0.0000000000000000e+00  0.0000000000000000e+00  2.2754306977188318e+02  2.2773941721644906e+02  2.2791719911672203e+02  2.2815862427222478e+02  2.2840014864071702e+02  2.2862472786600375e+02  2.2897153734084023e+02  2.2937307183584159e+02  2.2965035185353219e+02  2.2987066638153311e+02  2.3015057948977474e+02  2.3036929049049940e+02  2.3051814013050839e+02  2.3068077005251800e+02  2.3080227328036574e+02  2.3091759158159223e+02  2.3086568510233428e+02  2.3060543750251674e+02  2.3037266267751895e+02  2.3014204560618128e+02  2.2985709592105869e+02  2.2956566152883133e+02  2.2923756603542813e+02  2.2889004682624625e+02  2.2865918106596359e+02  2.2833562523429228e+02  2.2798648346182765e+02  2.2775505706253716e+02  2.2760166141229496e+02  2.2747666179708727e+02  2.2739898503236017e+02  2.2739137872934168e+02  2.2734828447016272e+02  2.2747847235848187e+02  2.2779177372933907e+02  2.2808066098413838e+02  2.2842341102533138e+02  2.2871148383917566e+02  2.2907102473881559e+02  2.2946044978207027e+02  2.2979152372295010e+02  2.2998949578513256e+02  2.3029153042965933e+02  2.3050244246208393e+02  2.3064933135978146e+02  2.3077224580914745e+02  2.3080628162720447e+02  2.3082142304117926e+02  2.3076006623126645e+02  2.3064360455418674e+02  2.3049889616402064e+02  2.3029691649693032e+02  2.3003975127581234e+02  2.2971441364080067e+02  2.2942382220203118e+02  2.2912459522451334e+02  2.2880666687891841e+02  2.2843625966812857e+02  2.2807687146716330e+02  2.2783998570312349e+02  2.2766398299292078e+02  2.2755698643822905e+02  2.1126178758719747e+00  2.3073873321037413e+00  2.3275809207464855e+00  2.1160596544317638e+00  2.6922483073158676e+00  2.5967091979810029e+00  2.3272274590493924e+00  2.3267917435142480e+00  2.8031529467006906e+00  2.6990937142679345e+00  2.5283487843150856e+00  2.8912464873325745e+00  2.8824472914101564e+00  2.8561928829346170e+00  2.9978332284210065e+00  3.3720129124635929e+00  3.2158714441524583e+00  2.9449935875361319e+00  3.2428544676854729e+00  3.2490257961973543e+00  3.0742029174610628e+00  3.2150574827362530e+00  3.2377863030728524e+00  2.8488088669543146e+00  3.3877928120978344e+00  3.0583270111585836e+00  3.5130057224132885e+00  3.5122536289880006e+00  3.5382013212364942e+00  3.0940496474962216e+00  3.8826614353843940e+00  3.1768807596293902e+00  1.7857719586748215e+00  1.6539381887811266e+00  1.7958327375354544e+00  1.7706412516488812e+00  1.6595309725337024e+00  1.7906274719193320e+00  1.7437730227096151e+00  1.7698295157592547e+00  3.6163634460233842e+00  3.3768231187546363e+00  3.1045787173162465e+00  3.3410934493066491e+00  1.2314189968910805e+00  1.3364075793600052e+00  1.3353815231270916e+00  1.2313578933233740e+00  1.3382495669195460e+00  1.3038218562567248e+00  1.3161666597395145e+00  1.3060751758967903e+00  9.4415087217229532e-01  1.0809744401160741e+00  9.6940802882297583e-01  9.6920555036713985e-01  8.9977551141437784e-01  9.6881025621594830e-01  9.5047241631758272e-01  9.5673861227296642e-01  7.0259740857515407e-01  5.5267331955549293e-01  5.0756069372680190e-01  5.9974238844429217e-01  5.9017430273102123e-01  5.9154170261964401e-01  5.8477103241837713e-01  6.2302733694867662e-01  3.6002916382992236e+00  3.5067962183556749e+00  3.2652555849898564e+00  3.1474520923506430e+00  3.4689635865972290e+00  3.0737007331169530e+00  3.4146211324872864e+00  3.4285300950044664e+00  3.1052792463621826e+00  2.6829314911185245e+00  3.8619516399102509e+00  3.2873549029178073e+00  3.0455703220794383e+00  2.9606691938893568e+00  3.4300460342721726e+00  3.0479264107822810e+00  3.1005443404715751e+00  3.0466744312767529e+00  3.7053352885270305e+00  3.0483938584480668e+00  3.0747579072440443e+00  2.7643302936902825e+00  2.6596075495362927e+00  2.6186489095802106e+00  2.1990070530833119e+00  2.6101390592809444e+00  2.4468274910565491e+00  2.6603760366845615e+00  2.0649967953141535e+00  2.1640233763286605e+00  2.1139422455127983e+00  2.0436257882224864e+00  2.3263565236720343e+00  2.0651379090646405e+00  1.9741193444165399e+00  1.8013809874934581e+00  3.2095750596668532e-01  3.1811908934661498e-01  3.0811931893071404e-01  3.4365337411598346e-01  3.2249682698626164e-01  3.3568726304560575e-01  3.1820565107777898e-01  2.6509865783311981e-01  3.6002494061738131e+00  3.7737767267035518e+00  4.1363780719053942e+00  3.1938083977830183e+00  2.4733399388609385e+00  2.4961941290034586e+00  2.4971912471627307e+00  2.7782337969608162e+00  2.4963307582707053e+00  2.4734631511243399e+00  2.6521321845994423e+00  2.4678377758487700e+00  1.5904252394060936e+00  1.8488414059327098e+00  1.8270939677664599e+00  1.6135254307191915e+00  1.5222123131048779e+00  1.6718870668368793e+00  1.5789610175325564e+00  1.5950650977023997e+00  1.1368718822679980e+00  7.7180356544085671e-01  1.1654828773621591e+00  8.4676751635525582e-01  1.0629805978551441e+00  7.9294102318704718e-01  1.1538878267847061e+00  7.8447850495022453e-01  1.1533132945016564e+00  9.4203016744495760e-01  1.1533910464726049e+00  7.8453204097534535e-01  1.1536207456566185e+00  7.7478373853722804e-01  1.2034262585512443e+00  8.0868907107387500e-01  1.5236140701295131e-01  1.3796166236649576e-01  1.3819677528584551e-01  1.4973635485877368e-01  3.6109110963668827e+00  7.2172873674025535e+00  7.1905061796118739e+00  1.0818826610996792e+01  1.0770533423977351e+01  1.4415708552583652e+01  1.4345557424651208e+01  1.8008951473399645e+01  1.7906328030007487e+01  2.1597019058191055e+01  2.1455809736769631e+01  2.5179985000312804e+01  2.4994590432619386e+01  2.8757769056603326e+01  2.8521956361151258e+01  3.2329795871171513e+01  3.2033994800520212e+01  3.5894500263701474e+01  3.5539210005461676e+01  3.9445002167742494e+01  3.9026187196993710e+01  3.9825746096521904e+01  4.2998312624706912e+01  4.2495302550146071e+01  4.6542289209076685e+01  4.5952038111176201e+01  5.0059891503392492e+01  4.9383307321299561e+01  5.3564088746471803e+01  5.2790009431895228e+01  5.7043144965603346e+01  5.6167561420321078e+01  5.7858599175488358e+01  6.0491933094473119e+01  5.9511383938643206e+01  6.3923363844875269e+01  6.2819554933005634e+01  6.7326540763066120e+01  6.6082917711218826e+01  7.0679548645622859e+01  6.9302112273721065e+01  7.3983439166373302e+01  7.2462505506710940e+01  7.5431019852010934e+01  7.7230909909623279e+01  7.5560048457137569e+01  8.0414760314426019e+01  7.8581471094547823e+01  7.3780735971938284e+01  7.6659732463956288e+01  8.1525466610691311e+01  7.9464267480834906e+01  7.4700937182317446e+01  7.7347529459912636e+01  7.2704896191693607e+01  7.5185733269655955e+01  7.9884720337598182e+01  7.7561773253187113e+01  7.2978483773022191e+01  7.5200860266110524e+01  7.0735874655949061e+01  7.2808913750382203e+01  7.7312090533332039e+01  7.4768444324487746e+01  7.0392039978854484e+01  7.2204912316862405e+01  7.6607858089117272e+01  7.3896779982855321e+01  6.9626739834821876e+01  7.1176265513241958e+01  7.5461640732972157e+01  7.2598999418583375e+01  7.6893769807264931e+01  6.7038711653591875e+01  7.3889762801684313e+01  7.8187468727990193e+01  7.5043710585466783e+01  7.9337692456972817e+01  7.6056387926156006e+01  8.0339728669634681e+01  7.6923905459877375e+01  8.1188958225480107e+01  7.2794726993407394e+01  7.7642407236610836e+01  8.1881881970871760e+01  7.8208974394096160e+01  8.2415450604662837e+01  7.8621445466541502e+01  8.2787288904667889e+01  7.8877912579871946e+01  8.2995974760102385e+01  7.8977681302177885e+01  8.3040604437861134e+01  7.8920388210152822e+01  8.2921476170389482e+01  7.5020924539333805e+01  8.3779677714137748e+01  1.9315436047926957e+02  7.8706320565516094e+01  8.2639646983383557e+01  7.8337805700860400e+01  8.2196992788826094e+01  1.9659836411751013e+02  7.7816660337705983e+01  8.1596377239844458e+01  1.9243330558814603e+02  7.7145964474550638e+01  8.0841445105078975e+01  8.5447145335674023e+01  8.4598820797955213e+01  7.9936501924046595e+01  8.3596452200301258e+01  8.7074580891050999e+01  7.3517372680833219e+01  7.8887132923945799e+01  8.2446471226105331e+01  8.7302980601422206e+01  8.6042188925089206e+01  8.1154301325540771e+01  8.4637457310901738e+01  8.9667121580034120e+01  8.8139934179501552e+01  8.3096278256533765e+01  8.6475664313936122e+01  9.1653056089384279e+01  8.9856083977783982e+01  8.4683157422763358e+01  8.7930560814145636e+01  9.3236956235351784e+01  9.1165208017330883e+01  8.5888652867226938e+01  8.8977805132964392e+01  9.4363358113955968e+01  9.2028019458125101e+01  8.6689716337928019e+01  8.9595658107493065e+01  9.5027316652632862e+01  9.2443868690985695e+01  9.7963594009735971e+01  9.5221988996682285e+01  8.9775673467579821e+01  9.2400984906185556e+01  9.7916953978560016e+01  9.4938158039277994e+01  8.9513408051711579e+01  9.1899569442554068e+01  9.7374754639937592e+01  9.4181269693712267e+01  9.9697582714885414e+01  9.6346336131735697e+01  1.0189389153491885e+02  9.8383055778278774e+01  9.2964846296902053e+01  9.4851437186540963e+01  1.0027968310874842e+02  9.6597651452200566e+01  1.0202469798222154e+02  9.8193076741302079e+01  1.0360713027408141e+02  9.9627703897134751e+01  1.0501650044567540e+02  1.0089224950703615e+02  9.5672326750892026e+01  9.6803909817232579e+01  1.0197841766475113e+02  9.7763786320391461e+01  1.0287643485410888e+02  9.8540835077927483e+01  1.0358308995429432e+02  9.9131134917064898e+01  1.0410070855595060e+02  9.9530339382958232e+01  1.0440761250235096e+02  9.9738089535409998e+01  1.0450061903381295e+02  9.9746744059820301e+01  1.0439170454096929e+02  9.9558891643765307e+01  1.0410135799152131e+02  9.9178910057264588e+01  1.0358528592102097e+02  9.8602424410978330e+01  1.0283499946872335e+02  9.7826924627148856e+01  1.0190669519024094e+02  9.6867602926036412e+01  1.0079187313610468e+02  9.2972834205026516e+01  9.1988203084053509e+01  8.8272094452219662e+01  8.7265987432567456e+01  8.3721605195049378e+01  8.2699696012350074e+01  7.9318591447180580e+01  7.8284495918766538e+01  7.5059015693749643e+01  7.4016353081037693e+01  7.7104567863322487e+01  7.0939315379323830e+01  9.4272195017293072e+01  7.2834413892008939e+01  7.5783465059189922e+01  7.1518934424065151e+01  7.4326534491969369e+01  7.0072589487956577e+01  7.2738949282242402e+01  6.8499999465720308e+01  7.1026264623229778e+01  6.6808757538944590e+01  6.4407802949152583e+01  6.9194786279574572e+01  6.2737749243393282e+01  6.0457232095159185e+01  5.8807455358284841e+01  5.6642981093456378e