<?xml version="1.0"?>
<VTKFile type="UnstructuredGrid"  version="0.1"  >
<UnstructuredGrid>
<Piece  NumberOfPoints="11902" NumberOfCells="23402">
<Points>
<DataArray  type="Float64"  NumberOfComponents="3"  format="ascii">-5 -5 0  5 -5 0  5 5 0  -5 5 0  1.896661037899121 0.005901529594560967 0  -4.9 -5 0  -4.8 -5 0  -4.7 -5 0  -4.6 -5 0  -4.5 -5 0  -4.4 -5 0  -4.3 -5 0  -4.2 -5 0  -4.1 -5 0  -4 -5 0  -3.9 -5 0  -3.8 -5 0  -3.7 -5 0  -3.6 -5 0  -3.5 -5 0  -3.4 -5 0  -3.3 -5 0  -3.2 -5 0  -3.1 -5 0  -3 -5 0  -2.9 -5 0  -2.8 -5 0  -2.7 -5 0  -2.6 -5 0  -2.5 -5 0  -2.4 -5 0  -2.3 -5 0  -2.2 -5 0  -2.1 -5 0  -2 -5 0  -1.9 -5 0  -1.8 -5 0  -1.7 -5 0  -1.6 -5 0  -1.5 -5 0  -1.4 -5 0  -1.3 -5 0  -1.2 -5 0  -1.1 -5 0  -1 -5 0  -0.9000000000000004 -5 0  -0.7999999999999998 -5 0  -0.7000000000000002 -5 0  -0.5999999999999996 -5 0  -0.5 -5 0  -0.4000000000000004 -5 0  -0.2999999999999998 -5 0  -0.2000000000000002 -5 0  -0.09999999999999964 -5 0  0 -5 0  0.09999999999999964 -5 0  0.2000000000000002 -5 0  0.2999999999999998 -5 0  0.4000000000000004 -5 0  0.5 -5 0  0.5999999999999996 -5 0  0.7000000000000002 -5 0  0.7999999999999998 -5 0  0.9000000000000004 -5 0  1 -5 0  1.1 -5 0  1.2 -5 0  1.3 -5 0  1.4 -5 0  1.5 -5 0  1.6 -5 0  1.7 -5 0  1.8 -5 0  1.9 -5 0  2 -5 0  2.1 -5 0  2.2 -5 0  2.3 -5 0  2.4 -5 0  2.5 -5 0  2.6 -5 0  2.7 -5 0  2.8 -5 0  2.9 -5 0  3 -5 0  3.1 -5 0  3.199999999999999 -5 0  3.300000000000001 -5 0  3.4 -5 0  3.5 -5 0  3.6 -5 0  3.699999999999999 -5 0  3.800000000000001 -5 0  3.9 -5 0  4 -5 0  4.1 -5 0  4.199999999999999 -5 0  4.300000000000001 -5 0  4.4 -5 0  4.5 -5 0  4.6 -5 0  4.699999999999999 -5 0  4.800000000000001 -5 0  4.9 -5 0  5 -4.9 0  5 -4.8 0  5 -4.7 0  5 -4.6 0  5 -4.5 0  5 -4.4 0  5 -4.3 0  5 -4.2 0  5 -4.1 0  5 -4 0  5 -3.9 0  5 -3.8 0  5 -3.7 0  5 -3.6 0  5 -3.5 0  5 -3.4 0  5 -3.3 0  5 -3.2 0  5 -3.1 0  5 -3 0  5 -2.9 0  5 -2.8 0  5 -2.7 0  5 -2.6 0  5 -2.5 0  5 -2.4 0  5 -2.3 0  5 -2.2 0  5 -2.1 0  5 -2 0  5 -1.9 0  5 -1.8 0  5 -1.7 0  5 -1.6 0  5 -1.5 0  5 -1.4 0  5 -1.3 0  5 -1.2 0  5 -1.1 0  5 -1 0  5 -0.9000000000000004 0  5 -0.7999999999999998 0  5 -0.7000000000000002 0  5 -0.5999999999999996 0  5 -0.5 0  5 -0.4000000000000004 0  5 -0.2999999999999998 0  5 -0.2000000000000002 0  5 -0.09999999999999964 0  5 0 0  5 0.09999999999999964 0  5 0.2000000000000002 0  5 0.2999999999999998 0  5 0.4000000000000004 0  5 0.5 0  5 0.5999999999999996 0  5 0.7000000000000002 0  5 0.7999999999999998 0  5 0.9000000000000004 0  5 1 0  5 1.1 0  5 1.2 0  5 1.3 0  5 1.4 0  5 1.5 0  5 1.6 0  5 1.7 0  5 1.8 0  5 1.9 0  5 2 0  5 2.1 0  5 2.2 0  5 2.3 0  5 2.4 0  5 2.5 0  5 2.6 0  5 2.7 0  5 2.8 0  5 2.9 0  5 3 0  5 3.1 0  5 3.199999999999999 0  5 3.300000000000001 0  5 3.4 0  5 3.5 0  5 3.6 0  5 3.699999999999999 0  5 3.800000000000001 0  5 3.9 0  5 4 0  5 4.1 0  5 4.199999999999999 0  5 4.300000000000001 0  5 4.4 0  5 4.5 0  5 4.6 0  5 4.699999999999999 0  5 4.800000000000001 0  5 4.9 0  4.9 5 0  4.8 5 0  4.7 5 0  4.6 5 0  4.5 5 0  4.4 5 0  4.3 5 0  4.2 5 0  4.1 5 0  4 5 0  3.9 5 0  3.8 5 0  3.7 5 0  3.6 5 0  3.5 5 0  3.4 5 0  3.3 5 0  3.2 5 0  3.1 5 0  3 5 0  2.9 5 0  2.8 5 0  2.7 5 0  2.6 5 0  2.5 5 0  2.4 5 0  2.3 5 0  2.2 5 0  2.1 5 0  2 5 0  1.9 5 0  1.8 5 0  1.7 5 0  1.6 5 0  1.5 5 0  1.4 5 0  1.3 5 0  1.2 5 0  1.1 5 0  1 5 0  0.9000000000000004 5 0  0.7999999999999998 5 0  0.7000000000000002 5 0  0.5999999999999996 5 0  0.5 5 0  0.4000000000000004 5 0  0.2999999999999998 5 0  0.2000000000000002 5 0  0.09999999999999964 5 0  0 5 0  -0.09999999999999964 5 0  -0.2000000000000002 5 0  -0.2999999999999998 5 0  -0.4000000000000004 5 0  -0.5 5 0  -0.5999999999999996 5 0  -0.7000000000000002 5 0  -0.7999999999999998 5 0  -0.9000000000000004 5 0  -1 5 0  -1.1 5 0  -1.2 5 0  -1.3 5 0  -1.4 5 0  -1.5 5 0  -1.6 5 0  -1.7 5 0  -1.8 5 0  -1.9 5 0  -2 5 0  -2.1 5 0  -2.2 5 0  -2.3 5 0  -2.4 5 0  -2.5 5 0  -2.6 5 0  -2.7 5 0  -2.8 5 0  -2.9 5 0  -3 5 0  -3.1 5 0  -3.199999999999999 5 0  -3.300000000000001 5 0  -3.4 5 0  -3.5 5 0  -3.6 5 0  -3.699999999999999 5 0  -3.800000000000001 5 0  -3.9 5 0  -4 5 0  -4.1 5 0  -4.199999999999999 5 0  -4.300000000000001 5 0  -4.4 5 0  -4.5 5 0  -4.6 5 0  -4.699999999999999 5 0  -4.800000000000001 5 0  -4.9 5 0  -5 4.9 0  -5 4.8 0  -5 4.7 0  -5 4.6 0  -5 4.5 0  -5 4.4 0  -5 4.3 0  -5 4.2 0  -5 4.1 0  -5 4 0  -5 3.9 0  -5 3.8 0  -5 3.7 0  -5 3.6 0  -5 3.5 0  -5 3.4 0  -5 3.3 0  -5 3.2 0  -5 3.1 0  -5 3 0  -5 2.9 0  -5 2.8 0  -5 2.7 0  -5 2.6 0  -5 2.5 0  -5 2.4 0  -5 2.3 0  -5 2.2 0  -5 2.1 0  -5 2 0  -5 1.9 0  -5 1.8 0  -5 1.7 0  -5 1.6 0  -5 1.5 0  -5 1.4 0  -5 1.3 0  -5 1.2 0  -5 1.1 0  -5 1 0  -5 0.9000000000000004 0  -5 0.7999999999999998 0  -5 0.7000000000000002 0  -5 0.5999999999999996 0  -5 0.5 0  -5 0.4000000000000004 0  -5 0.2999999999999998 0  -5 0.2000000000000002 0  -5 0.09999999999999964 0  -5 0 0  -5 -0.09999999999999964 0  -5 -0.2000000000000002 0  -5 -0.2999999999999998 0  -5 -0.4000000000000004 0  -5 -0.5 0  -5 -0.5999999999999996 0  -5 -0.7000000000000002 0  -5 -0.7999999999999998 0  -5 -0.9000000000000004 0  -5 -1 0  -5 -1.1 0  -5 -1.2 0  -5 -1.3 0  -5 -1.4 0  -5 -1.5 0  -5 -1.6 0  -5 -1.7 0  -5 -1.8 0  -5 -1.9 0  -5 -2 0  -5 -2.1 0  -5 -2.2 0  -5 -2.3 0  -5 -2.4 0  -5 -2.5 0  -5 -2.6 0  -5 -2.7 0  -5 -2.8 0  -5 -2.9 0  -5 -3 0  -5 -3.1 0  -5 -3.199999999999999 0  -5 -3.300000000000001 0  -5 -3.4 0  -5 -3.5 0  -5 -3.6 0  -5 -3.699999999999999 0  -5 -3.800000000000001 0  -5 -3.9 0  -5 -4 0  -5 -4.1 0  -5 -4.199999999999999 0  -5 -4.300000000000001 0  -5 -4.4 0  -5 -4.5 0  -5 -4.6 0  -5 -4.699999999999999 0  -5 -4.800000000000001 0  -5 -4.9 0  2.434076085452952 0.2863884024241969 0  1.958252504453492 0.360042784551676 0  2.386966273308701 0.75484942882024 0  1.779847824807212 0.6709753304249607 0  1.88453443255119 0.9379664001083452 0  1.54267610187529 1.023184027386862 0  1.306404261814968 1.303534746126484 0  1.156032677455905 0.9424498150952606 0  1.157462498570673 1.245199869960826 0  0.9618103456090186 1.417617668331065 0  0.7925686322636909 1.434867227671873 0  0.6612561762536524 1.465874938129659 0  0.4711222417928349 1.554765963638969 0  0.2993449243478035 1.588654234756668 0  0.1341595839972694 1.615906505524621 0  -0.02626466974632844 1.611522095561643 0  -0.2318060769387352 1.583433010842429 0  -0.3949401766228951 1.57371662762309 0  -0.5500104399752295 1.528341508764647 0  -0.7129145371235662 1.452888999189889 0  -0.8834427372536682 1.414397235073809 0  -1.061274313595029 1.298550962318092 0  -1.209794634159864 1.174244172057069 0  -1.347633324080076 1.243466900266089 0  -1.223104870516161 0.8013911892681218 0  -1.542725264591116 1.094533249608702 0  -1.996881687201233 0.932589461795379 0  -1.823252929977958 0.6659015307458618 0  -2.193698852531559 0.622393949137009 0  -2.252748586982086 0.3152657285044158 0  -2.362600867804722 0.04619005464028605 0  -1.841586072046764 -0.1107370064245117 0  -2.534672694090447 -0.5171509331926936 0  -2.007277430352566 -0.4278687062222367 0  -1.899670015446222 -0.6539689181070201 0  -1.912978787755326 -1.034510181084125 0  -1.531470373108051 -0.8073527209424134 0  -1.54921357049255 -0.9465959165379092 0  -1.374876883314199 -1.188500505584838 0  -1.159497721192417 -1.173320835266298 0  -1.03066024182218 -1.308910931174 0  -0.8723651037356812 -1.447483791380889 0  -0.6997395611047595 -1.47873321241694 0  -0.5412423269488036 -1.516308272207201 0  -0.3814380220831173 -1.578379845925091 0  -0.2101256203699776 -1.591357621528816 0  -0.04623323396240452 -1.608870747053848 0  0.1448574862286043 -1.606970250106741 0  0.2925193320745645 -1.599357308624253 0  0.4723165480839942 -1.56826728685515 0  0.6390705128315975 -1.502344628476798 0  0.7542010734087808 -1.346030250101212 0  0.9311138667077995 -1.40579876277189 0  1.120989531339017 -1.304943085610678 0  1.313251469176953 -1.24245129538266 0  1.403527754629664 -1.027681363454638 0  1.491546175426984 -0.8815707467449647 0  1.818119434475738 -0.9632253812444378 0  1.921212030921013 -0.7416324749795311 0  1.899245407850188 -0.5193606009559593 0  2.32304042988993 -0.4745170485247101 0  2.268800486199746 -0.1585202430162261 0  -2.449937491839622 4.920202830943394 0  -2.449903486902848 -4.912754603542436 0  4.910961235111324 2.448098327914439 0  4.919006120960606 -2.449427911951169 0  2.44784003626492 -4.898323051014968 0  2.442258593856294 4.902072696562174 0  -4.911020943932963 -2.448133194908506 0  -4.911057758443343 2.448128996570595 0  -1.750254270565593 4.914421440476129 0  -1.745950816879601 -4.91770119679752 0  4.920482647059956 1.743729545897595 0  4.908925037079736 -1.747608470217559 0  -4.909346190631677 -1.747323130465145 0  -4.91019512481676 1.747064876292711 0  1.747694825096507 4.908501648112768 0  1.749269867212523 -4.897015503050496 0  -1.150384838183749 4.913352625749097 0  -1.131099199366423 -4.920729192128759 0  -4.908158088913121 -1.147377093619537 0  -4.907979449510808 1.147171762944422 0  1.145272511283291 -4.917139943056889 0  1.150401171930802 4.913289551618819 0  4.908243063538511 1.145624119523566 0  4.919145327192563 -1.151335042325325 0  -0.5475016464114176 -4.915119125466433 0  -0.5472099399644218 4.923395695141171 0  -4.905972888227077 -0.5482696421640526 0  -4.905997677969827 0.5468185542292613 0  4.905095028636931 -0.5486018276658426 0  4.917072414597757 0.5452921301932029 0  0.5434807297224467 -4.902696635614231 0  0.5519750990293469 4.920397680514162 0  -4.912623974877195 -3.048710425601361 0  4.919146238847943 3.046652530914918 0  4.912098827915343 -3.048655326314242 0  -4.913494538493589 3.045781280901364 0  3.056261665460008 -4.918773529079316 0  -3.049668584427653 -4.912760110342661 0  3.053215300084775 4.914862500418021 0  -3.049138974636259 4.913699949797537 0  -4.90470605005852 -0.04986045223215316 0  0.04521512953593017 -4.917197192258743 0  0.04964034270250655 4.923873613234502 0  4.911819480428752 -0.05128174708476115 0  3.546230472758461 -4.919910543438456 0  -3.549603102196555 4.912958151699052 0  -3.549571919419557 -4.91297640883663
[...]
<PointData  Scalars="f_23"> 
<DataArray  type="Float64"  Name="f_23"  format="ascii">0.0000000000000000e+00  0.0000000000000000e+00  0.0000000000000000e+00  0.0000000000000000e+00  2.3191139400035638e+02  0.0000000000000000e+00  0.0000000000000000e+00  0.0000000000000000e+00  0.0000000000000000e+00  0.0000000000000000e+00  0.0000000000000000e+00  0.0000000000000000e+00  0.0000000000000000e+00  0.0000000000000000e+00  0.0000000000000000e+00  0.0000000000000000e+00  0.0000000000000000e+00  0.0000000000000000e+00  0.0000000000000000e+00  0.0000000000000000e+00  0.0000000000000000e+00  0.0000000000000000e+00  0.0000000000000000e+00  0.0000000000000000e+00  0.0000000000000000e+00  0.0000000000000000e+00  0.0000000000000000e+00  0.0000000000000000e+00  0.0000000000000000e+00  0.0000000000000000e+00  0.0000000000000000e+00  0.0000000000000000e+00  0.0000000000000000e+00  0.0000000000000000e+00  0.0000000000000000e+00  0.0000000000000000e+00  0.0000000000000000e+00  0.0000000000000000e+00  0.0000000000000000e+00  0.0000000000000000e+00  0.0000000000000000e+00  0.0000000000000000e+00  0.0000000000000000e+00  0.0000000000000000e+00  0.0000000000000000e+00  0.0000000000000000e+00  0.0000000000000000e+00  0.0000000000000000e+00  0.0000000000000000e+00  0.0000000000000000e+00  0.0000000000000000e+00  0.0000000000000000e+00  0.0000000000000000e+00  0.0000000000000000e+00  0.0000000000000000e+00  0.0000000000000000e+00  0.0000000000000000e+00  0.0000000000000000e+00  0.0000000000000000e+00  0.0000000000000000e+00  0.0000000000000000e+00  0.0000000000000000e+00  0.0000000000000000e+00  0.0000000000000000e+00  0.0000000000000000e+00  0.0000000000000000e+00  0.0000000000000000e+00  0.0000000000000000e+00  0.0000000000000000e+00  0.0000000000000000e+00  0.0000000000000000e+00  0.0000000000000000e+00  0.0000000000000000e+00  0.0000000000000000e+00  0.0000000000000000e+00  0.0000000000000000e+00  0.0000000000000000e+00  0.0000000000000000e+00  0.0000000000000000e+00  0.0000000000000000e+00  0.0000000000000000e+00  0.0000000000000000e+00  0.0000000000000000e+00  0.0000000000000000e+00  0.0000000000000000e+00  0.0000000000000000e+00  0.0000000000000000e+00  0.0000000000000000e+00  0.0000000000000000e+00  0.0000000000000000e+00  0.0000000000000000e+00  0.0000000000000000e+00  0.0000000000000000e+00  0.0000000000000000e+00  0.0000000000000000e+00  0.0000000000000000e+00  0.0000000000000000e+00  0.0000000000000000e+00  0.0000000000000000e+00  0.0000000000000000e+00  0.0000000000000000e+00  0.0000000000000000e+00  0.0000000000000000e+00  0.0000000000000000e+00  0.0000000000000000e+00  0.0000000000000000e+00  0.0000000000000000e+00  0.0000000000000000e+00  0.0000000000000000e+00  0.0000000000000000e+00  0.0000000000000000e+00  0.0000000000000000e+00  0.0000000000000000e+00  0.0000000000000000e+00  0.0000000000000000e+00  0.0000000000000000e+00  0.0000000000000000e+00  0.0000000000000000e+00  0.0000000000000000e+00  0.0000000000000000e+00  0.0000000000000000e+00  0.0000000000000000e+00  0.0000000000000000e+00  0.0000000000000000e+00  0.0000000000000000e+00  0.0000000000000000e+00  0.0000000000000000e+00  0.0000000000000000e+00  0.0000000000000000e+00  0.0000000000000000e+00  0.0000000000000000e+00  0.0000000000000000e+00  0.0000000000000000e+00  0.0000000000000000e+00  0.0000000000000000e+00  0.0000000000000000e+00  0.0000000000000000e+00  0.0000000000000000e+00  0.0000000000000000e+00  0.0000000000000000e+00  0.0000000000000000e+00  0.0000000000000000e+00  0.0000000000000000e+00  0.0000000000000000e+00  0.0000000000000000e+00  0.0000000000000000e+00  0.0000000000000000e+00  0.0000000000000000e+00  0.0000000000000000e+00  0.0000000000000000e+00  0.0000000000000000e+00  0.0000000000000000e+00  0.0000000000000000e+00  0.0000000000000000e+00  0.0000000000000000e+00  0.0000000000000000e+00  0.0000000000000000e+00  0.0000000000000000e+00  0.0000000000000000e+00  0.0000000000000000e+00  0.0000000000000000e+00  0.0000000000000000e+00  0.0000000000000000e+00  0.0000000000000000e+00  0.0000000000000000e+00  0.0000000000000000e+00  0.0000000000000000e+00  0.0000000000000000e+00  0.0000000000000000e+00  0.0000000000000000e+00  0.0000000000000000e+00  0.0000000000000000e+00  0.0000000000000000e+00  0.0000000000000000e+00  0.0000000000000000e+00  0.0000000000000000e+00  0.0000000000000000e+00  0.0000000000000000e+00  0.0000000000000000e+00  0.0000000000000000e+00  0.0000000000000000e+00  0.0000000000000000e+00  0.0000000000000000e+00  0.0000000000000000e+00  0.0000000000000000e+00  0.0000000000000000e+00  0.0000000000000000e+00  0.0000000000000000e+00  0.0000000000000000e+00  0.0000000000000000e+00  0.0000000000000000e+00  0.0000000000000000e+00  0.0000000000000000e+00  0.0000000000000000e+00  0.0000000000000000e+00  0.0000000000000000e+00  0.0000000000000000e+00  0.0000000000000000e+00  0.0000000000000000e+00  0.0000000000000000e+00  0.0000000000000000e+00  0.0000000000000000e+00  0.0000000000000000e+00  0.0000000000000000e+00  0.0000000000000000e+00  0.0000000000000000e+00  0.0000000000000000e+00  0.0000000000000000e+00  0.0000000000000000e+00  0.0000000000000000e+00  0.0000000000000000e+00  0.0000000000000000e+00  0.0000000000000000e+00  0.0000000000000000e+00  0.0000000000000000e+00  0.0000000000000000e+00  0.0000000000000000e+00  0.0000000000000000e+00  0.0000000000000000e+00  0.0000000000000000e+00  0.0000000000000000e+00  0.0000000000000000e+00  0.0000000000000000e+00  0.0000000000000000e+00  0.0000000000000000e+00  0.0000000000000000e+00  0.0000000000000000e+00  0.0000000000000000e+00  0.0000000000000000e+00  0.0000000000000000e+00  0.0000000000000000e+00  0.0000000000000000e+00  0.0000000000000000e+00  0.0000000000000000e+00  0.0000000000000000e+00  0.0000000000000000e+00  0.0000000000000000e+00  0.0000000000000000e+00  0.0000000000000000e+00  0.0000000000000000e+00  0.0000000000000000e+00  0.0000000000000000e+00  0.0000000000000000e+00  0.0000000000000000e+00  0.0000000000000000e+00  0.0000000000000000e+00  0.0000000000000000e+00  0.0000000000000000e+00  0.0000000000000000e+00  0.0000000000000000e+00  0.0000000000000000e+00  0.0000000000000000e+00  0.0000000000000000e+00  0.0000000000000000e+00  0.0000000000000000e+00  0.0000000000000000e+00  0.0000000000000000e+00  0.0000000000000000e+00  0.0000000000000000e+00  0.0000000000000000e+00  0.0000000000000000e+00  0.0000000000000000e+00  0.0000000000000000e+00  0.0000000000000000e+00  0.0000000000000000e+00  0.0000000000000000e+00  0.0000000000000000e+00  0.0000000000000000e+00  0.0000000000000000e+00  0.0000000000000000e+00  0.0000000000000000e+00  0.0000000000000000e+00  0.0000000000000000e+00  0.0000000000000000e+00  0.0000000000000000e+00  0.0000000000000000e+00  0.0000000000000000e+00  0.0000000000000000e+00  0.0000000000000000e+00  0.0000000000000000e+00  0.0000000000000000e+00  0.0000000000000000e+00  0.0000000000000000e+00  0.0000000000000000e+00  0.0000000000000000e+00  0.0000000000000000e+00  0.0000000000000000e+00  0.0000000000000000e+00  0.0000000000000000e+00  0.0000000000000000e+00  0.0000000000000000e+00  0.0000000000000000e+00  0.0000000000000000e+00  0.0000000000000000e+00  0.0000000000000000e+00  0.0000000000000000e+00  0.0000000000000000e+00  0.0000000000000000e+00  0.0000000000000000e+00  0.0000000000000000e+00  0.0000000000000000e+00  0.0000000000000000e+00  0.0000000000000000e+00  0.0000000000000000e+00  0.0000000000000000e+00  0.0000000000000000e+00  0.0000000000000000e+00  0.0000000000000000e+00  0.0000000000000000e+00  0.0000000000000000e+00  0.0000000000000000e+00  0.0000000000000000e+00  0.0000000000000000e+00  0.0000000000000000e+00  0.0000000000000000e+00  0.0000000000000000e+00  0.0000000000000000e+00  0.0000000000000000e+00  0.0000000000000000e+00  0.0000000000000000e+00  0.0000000000000000e+00  0.0000000000000000e+00  0.0000000000000000e+00  0.0000000000000000e+00  0.0000000000000000e+00  0.0000000000000000e+00  0.0000000000000000e+00  0.0000000000000000e+00  0.0000000000000000e+00  0.0000000000000000e+00  0.0000000000000000e+00  0.0000000000000000e+00  0.0000000000000000e+00  0.0000000000000000e+00  0.0000000000000000e+00  0.0000000000000000e+00  0.0000000000000000e+00  0.0000000000000000e+00  0.0000000000000000e+00  0.0000000000000000e+00  0.0000000000000000e+00  0.0000000000000000e+00  0.0000000000000000e+00  0.0000000000000000e+00  0.0000000000000000e+00  0.0000000000000000e+00  0.0000000000000000e+00  0.0000000000000000e+00  0.0000000000000000e+00  0.0000000000000000e+00  0.0000000000000000e+00  0.0000000000000000e+00  0.0000000000000000e+00  0.0000000000000000e+00  0.0000000000000000e+00  0.0000000000000000e+00  0.0000000000000000e+00  0.0000000000000000e+00  0.0000000000000000e+00  0.0000000000000000e+00  0.0000000000000000e+00  0.0000000000000000e+00  0.0000000000000000e+00  0.0000000000000000e+00  0.0000000000000000e+00  0.0000000000000000e+00  0.0000000000000000e+00  0.0000000000000000e+00  0.0000000000000000e+00  0.0000000000000000e+00  0.0000000000000000e+00  0.0000000000000000e+00  0.0000000000000000e+00  0.0000000000000000e+00  0.0000000000000000e+00  0.0000000000000000e+00  0.0000000000000000e+00  0.0000000000000000e+00  0.0000000000000000e+00  0.0000000000000000e+00  0.0000000000000000e+00  0.0000000000000000e+00  0.0000000000000000e+00  0.0000000000000000e+00  0.0000000000000000e+00  0.0000000000000000e+00  0.0000000000000000e+00  0.0000000000000000e+00  0.0000000000000000e+00  0.0000000000000000e+00  0.0000000000000000e+00  0.0000000000000000e+00  0.0000000000000000e+00  0.0000000000000000e+00  0.0000000000000000e+00  0.0000000000000000e+00  0.0000000000000000e+00  0.0000000000000000e+00  0.0000000000000000e+00  0.0000000000000000e+00  0.0000000000000000e+00  2.2951177610241513e+02  2.3307191998393085e+02  2.2958581649165001e+02  2.3555753748716168e+02  2.3616235158722859e+02  2.3488967400018257e+02  2.3565641384572393e+02  2.2516930890773423e+02  2.1186389266341806e+02  2.1132785359493778e+02  2.1222545668585127e+02  2.1199831245731571e+02  2.1032824605274371e+02  2.1025652090045722e+02  2.1047496036354573e+02  2.1149961959213786e+02  2.1197846090924148e+02  2.1080973437672853e+02  2.1078640180882084e+02  2.1169072137140640e+02  2.1161832205905958e+02  2.1249574935704231e+02  2.1450019163930335e+02  2.0651730737335436e+02  2.3475657625287732e+02  2.3838574561612629e+02  2.4393464695158661e+02  2.3917660099814327e+02  2.4025644122499656e+02  2.4013494110980511e+02  2.3822314524134507e+02  2.3607897022991543e+02  2.2995628300083405e+02  2.3646918530890616e+02  2.3304815587079995e+02  2.2533351830386562e+02  2.3283600991857423e+02  2.2763338567276512e+02  2.2165422498909436e+02  2.2037351979633382e+02  2.1469482625314114e+02  2.1304144842619547e+02  2.1316704482571618e+02  2.1238537146688972e+02  2.1130119446418541e+02  2.1127970235770508e+02  2.1134820331028428e+02  2.1141409984065714e+02  2.1087066626236415e+02  2.1056108721708290e+02  2.1147661993216843e+02  2.1444190420689102e+02  2.1572069533418809e+02  2.1727817744663560e+02  2.1674530982127848e+02  2.1929642415625628e+02  2.2511320843028770e+02  2.2155500942803036e+02  2.2524233620966481e+02  2.2898831093482158e+02  2.2800863302748030e+02  2.2941671920060264e+02  2.3423907671626996e+00  2.5694495240581361e+00  2.6774161434784092e+00  2.4364456326595767e+00  2.9939889351090621e+00  2.8773229201728969e+00  2.6887067926096231e+00  2.6788598303064890e+00  3.0807540665064672e+00  2.9803214853111308e+00  2.9741476675809428e+00  3.4042870219368666e+00  3.4042473122854680e+00  3.3638234736941688e+00  3.2947327477184238e+00  3.7214577736170678e+00  3.5041500014928166e+00  3.2281475330845537e+00  3.9119753564659270e+00  3.9118914101262598e+00  3.3670028879163452e+00  3.5047578099064087e+00  3.8909553514546817e+00  3.4258023938048918e+00  3.6890121756403493e+00  3.3120577486986189e+00  4.3111975568853200e+00  4.3061505692049469e+00  4.3323034781234897e+00  3.7863945158832735e+00  4.2287051161613096e+00  3.4406371849791895e+00  2.0350692545768565e+00  1.8757999852742755e+00  2.0396020040125231e+00  2.0104891498044202e+00  1.8519040891229772e+00  2.0043309341726534e+00  1.9415786397720396e+00  1.9715238196483691e+00  4.4638154925610776e+00  3.6693189454233135e+00  3.3556525310066547e+00  4.1141263218767241e+00  1.3776057109873663e+00  1.4920688541752081e+00  1.4965218927935355e+00  1.3860042916026716e+00  1.5134089586959529e+00  1.4695463540240761e+00  1.4827229421261394e+00  1.4572465751823693e+00  1.0597579258231129e+00  1.2136090357386946e+00  1.0843559563126774e+00  1.0915916385425666e+00  1.0047689857364994e+00  1.0858626655082735e+00  1.0613669796435172e+00  1.0734170451958127e+00  7.8594538177689577e-01  6.1756982336978916e-01  5.6929005761151275e-01  6.7048709179514143e-01  6.6073632170052010e-01  6.6450282171677044e-01  6.5439587565865764e-01  6.9549774499298012e-01  4.4371979532383126e+00  3.8117753837897532e+00  3.5309094655881208e+00  3.8707457462422870e+00  3.7677197248885772e+00  3.6687592696417277e+00  4.1529109479779009e+00  4.1759053647204238e+00  3.6985543004409474e+00  2.9497258435320934e+00  4.1934759953927800e+00  3.5882394514515257e+00  3.3344859859191622e+00  3.5205460806744648e+00  4.1650250368757691e+00  3.7015739221503816e+00  3.6921853674031540e+00  3.3340077426251846e+00  4.0428004525824717e+00  3.3525102368100321e+00  3.3933745329326781e+00  3.0649497543077286e+00  3.1094676107662540e+00  3.0517279711159899e+00  2.4264291114651133e+00  2.8908507362273399e+00  2.8486280580948153e+00  3.0998070186717976e+00  2.3610147806473134e+00  2.4168588876002208e+00  2.3498672058405230e+00  2.3349994427134377e+00  2.5878975013863674e+00  2.3681366206173600e+00  2.2531395894963584e+00  2.0075837572208628e+00  3.6016095335109327e-01  3.5573069493654147e-01  3.4408278521759283e-01  3.8415163700573224e-01  3.6089073299438906e-01  3.7657687523514854e-01  3.5571390598160046e-01  2.9585852092897225e-01  4.4390213137026713e+00  4.1027042782911307e+00  4.4738918323505068e+00  3.9285559155858749e+00  2.7361818544966892e+00  2.8875513296510209e+00  2.8911607507507449e+00  3.0868476450680919e+00  2.9005310719595925e+00  2.7455587956798828e+00  2.9340196265696967e+00  2.8577312937949837e+00  1.8003424083356483e+00  2.0712754643282030e+00  2.0398164867022386e+00  1.8324749355773238e+00  1.7202422219705789e+00  1.8687931252426908e+00  1.7606955013241139e+00  1.8047061176281771e+00  1.2787281351753566e+00  8.6505678578533207e-01  1.3072873962528482e+00  9.4952794269607188e-01  1.1878473913761667e+00  8.8674715445638019e-01  1.3019854457985387e+00  8.8223921544433226e-01  1.2886561804248158e+00  1.0526148968827087e+00  1.2951996151391991e+00  8.7800892126131103e-01  1.2968448755868736e+00  8.6801523828746818e-01  1.3439268668319284e+00  9.0357768992876908e-01  1.7087609123256692e-01  1.5401344715531545e-01  1.5451797535445200e-01  1.6730809974889382e-01  4.4555534356187945e+00  8.9073022464940816e+00  8.8656077203306367e+00  1.3353727904720513e+01  1.3278303150502316e+01  1.7795440536350732e+01  1.7683922389940037e+01  2.2234338389137896e+01  2.2071301473765274e+01  2.6668557139694229e+01  2.6444164829528940e+01  3.1098576053709365e+01  3.0803304889741142e+01  3.5523728004381056e+01  3.5147776038194181e+01  3.9943776684791018e+01  3.9471708971452550e+01  4.4354626258298069e+01  4.3785029956539290e+01  4.8747776563965935e+01  4.8071763024702946e+01  4.9363921093583542e+01  5.3140527003594691e+01  5.2329454631291732e+01  5.7515595888581167e+01  5.6562936489254490e+01  6.1850302907727283e+01  6.0752821000174890e+01  6.6153911106040340e+01  6.4895317200430497e+01  7.0407537795747601e+01  6.8980963647670265e+01  7.1762208835199800e+01  7.4597225137357370e+01  7.2997090728458033e+01  7.8734403401644926e+01  7.6937776937120930e+01  8.2799923067170027e+01  8.0784084226184305e+01  8.6755610373104346e+01  8.4532774501619372e+01  9.0597792808693796e+01  8.8159536474664719e+01  9.2994519343756437e+01  9.4310474392200888e+01  9.1653834983313800e+01  9.7879311445357615e+01  9.4995359728602537e+01  8.8928620764598321e+01  9.2077154137533810e+01  9.8181259901410684e+01  9.5082827773931271e+01  8.9182617176978340e+01  9.1994624045422469e+01  8.6309526176056409e+01  8.8924010238015626e+01  9.4626852356110604e+01  9.1372900055378267e+01  8.5867549232269539e+01  8.8145424217648156e+01  8.2830451085647709e+01  8.4946529527181866e+01  9.0258387973769217e+01  8.6900827281018564e+01  8.1777772202831031e+01  8.3580875411061299e+01  8.8687873096314732e+01  8.5220881952727851e+01  8.0298470021421878e+01  8.1797693428069806e+01  8.6693664451205294e+01  8.3134243973111836e+01  8.7996072994604461e+01  7.7053455097869332e+01  8.4305131060620681e+01  8.9124752287388958e+01  8.5308045694985807e+01  9.0078469326657753e+01  8.6141505106787463e+01  9.0855791303421611e+01  8.6804742618285772e+01  9.1455919394499418e+01  8.2267833267577942e+01  8.7297326354760898e+01  9.1879598275544552e+01  8.7619832971802751e+01  9.2127743575078611e+01  8.7773718934347045e+01  9.2202176451660051e+01  8.7760581962377515e+01  9.2105459168601186e+01  8.7583226683517722e+01  9.1840489038692539e+01  8.7244502424663537e+01  9.1411159333289035e+01  8.3398383215636926e+01  9.4978664636376905e+01  2.1596980164007286e+02  8.6747748284142816e+01  9.0821734176183654e+01  8.6098101929117291e+01  9.0076940726377273e+01  2.0926590539353975e+02  8.5299795287863503e+01  8.9182057023201494e+01  2.0577874991918631e+02  8.4357950281966296e+01  8.8142696590663718e+01  9.3101359082254191e+01  9.1957579590161288e+01  8.6964653418415551e+01  9.0675037694814591e+01  9.6715950739669310e+01  8.0610276246329278e+01  8.5654592534083008e+01  8.9260952139613323e+01  9.4402107424975753e+01  9.2876975309765939e+01  8.7720942957963970e+01  9.1227565312571841e+01  9.6496127237925251e+01  9.4731185140106319e+01  8.9460566187779719e+01  9.2850799234173920e+01  9.8224874610946387e+01  9.6225358916698326e+01  9.0862175669547980e+01  9.4119283862999183e+01  9.9586379593114884e+01  9.7353968499567017e+01  9.1916299503974471e+01  9.5025814387324431e+01  1.0054596358757574e+02  9.8093525426967034e+01  9.2613814210230515e+01  9.5560869214396448e+01  1.0111178675229067e+02  9.8454233841055981e+01  1.0407347136288311e+02  1.0128604883014776e+02  9.5723507613873579e+01  9.8429152932675223e+01  1.0404817976498661e+02  1.0106112334688531e+02  9.5510668065174428e+01  9.8016623334629017e+01  1.0361144617803016e+02  1.0043693360648258e+02  1.0607138841364764e+02  1.0276305931724974e+02  1.0843251303178700e+02  1.0498667645007282e+02  9.9414947357049527e+01  1.0150668533815907e+02  1.0709936882655960e+02  1.0348433369150727e+02  1.0909225961300868e+02  1.0533940478603238e+02  1.1095645706566995e+02  1.0706324505941937e+02  1.1268296172578496e+02  1.0864724890750378e+02  1.0316379867582164e+02  1.0461336316212032e+02  1.1008330140931031e+02  1.0591640306223695e+02  1.1136068813615486e+02  1.0706052395894186e+02  1.1247491145143910e+02  1.0803992328265740e+02  1.1342705879310448e+02  1.0884785791304439e+02  1.1419121965031587e+02  1.0948118611262551e+02  1.1476016524329897e+02  1.0992778683632248e+02  1.1514211768602425e+02  1.1018620584328838e+02  1.1535476727316666e+02  1.1025612270312425e+02  1.1534461358878993e+02  1.1012666549899183e+02  1.1509267881090561e+02  1.0978848798975322e+02  1.1465497153726234e+02  1.0925126689292982e+02  1.1401200949800437e+02  1.0459473859242806e+02  1.0396892169312854e+02  9.9516662402008293e+01  9.8810724194080422e+01  9.4557515770626139e+01  9.3782184010838392e+01  8.9720686974307583e+01  8.8884743916629574e+01  8.5008109575590694e+01  8.4120393284538537e+01  8.7875030905858765e+01  8.0422306513889126e+01  1.0278302730669505e+02  8.3065465821719840e+01  8.6692834463065793e+01  8.1846829753725103e+01  8.5340667177115293e+01  8.0464351158831960e+01  8.3821001339305724e+01  7.8920554248526983e+01  8.2137263390251121e+01  7.7221772227374345e+01  7.4179783233244848e+01  8.0294241047816357e+01  7.2471546706930766e+01  6.9596590328353201e+01  6.7882701350787883e+01  6.5167504119532524e