<?xml version="1.0"?>
<VTKFile type="UnstructuredGrid"  version="0.1"  >
<UnstructuredGrid>
<Piece  NumberOfPoints="11902" NumberOfCells="23402">
<Points>
<DataArray  type="Float64"  NumberOfComponents="3"  format="ascii">-5 -5 0  5 -5 0  5 5 0  -5 5 0  1.908576150240798 0.009353162943941451 0  -4.9 -5 0  -4.8 -5 0  -4.7 -5 0  -4.6 -5 0  -4.5 -5 0  -4.4 -5 0  -4.3 -5 0  -4.2 -5 0  -4.1 -5 0  -4 -5 0  -3.9 -5 0  -3.8 -5 0  -3.7 -5 0  -3.6 -5 0  -3.5 -5 0  -3.4 -5 0  -3.3 -5 0  -3.2 -5 0  -3.1 -5 0  -3 -5 0  -2.9 -5 0  -2.8 -5 0  -2.7 -5 0  -2.6 -5 0  -2.5 -5 0  -2.4 -5 0  -2.3 -5 0  -2.2 -5 0  -2.1 -5 0  -2 -5 0  -1.9 -5 0  -1.8 -5 0  -1.7 -5 0  -1.6 -5 0  -1.5 -5 0  -1.4 -5 0  -1.3 -5 0  -1.2 -5 0  -1.1 -5 0  -1 -5 0  -0.9000000000000004 -5 0  -0.7999999999999998 -5 0  -0.7000000000000002 -5 0  -0.5999999999999996 -5 0  -0.5 -5 0  -0.4000000000000004 -5 0  -0.2999999999999998 -5 0  -0.2000000000000002 -5 0  -0.09999999999999964 -5 0  0 -5 0  0.09999999999999964 -5 0  0.2000000000000002 -5 0  0.2999999999999998 -5 0  0.4000000000000004 -5 0  0.5 -5 0  0.5999999999999996 -5 0  0.7000000000000002 -5 0  0.7999999999999998 -5 0  0.9000000000000004 -5 0  1 -5 0  1.1 -5 0  1.2 -5 0  1.3 -5 0  1.4 -5 0  1.5 -5 0  1.6 -5 0  1.7 -5 0  1.8 -5 0  1.9 -5 0  2 -5 0  2.1 -5 0  2.2 -5 0  2.3 -5 0  2.4 -5 0  2.5 -5 0  2.6 -5 0  2.7 -5 0  2.8 -5 0  2.9 -5 0  3 -5 0  3.1 -5 0  3.199999999999999 -5 0  3.300000000000001 -5 0  3.4 -5 0  3.5 -5 0  3.6 -5 0  3.699999999999999 -5 0  3.800000000000001 -5 0  3.9 -5 0  4 -5 0  4.1 -5 0  4.199999999999999 -5 0  4.300000000000001 -5 0  4.4 -5 0  4.5 -5 0  4.6 -5 0  4.699999999999999 -5 0  4.800000000000001 -5 0  4.9 -5 0  5 -4.9 0  5 -4.8 0  5 -4.7 0  5 -4.6 0  5 -4.5 0  5 -4.4 0  5 -4.3 0  5 -4.2 0  5 -4.1 0  5 -4 0  5 -3.9 0  5 -3.8 0  5 -3.7 0  5 -3.6 0  5 -3.5 0  5 -3.4 0  5 -3.3 0  5 -3.2 0  5 -3.1 0  5 -3 0  5 -2.9 0  5 -2.8 0  5 -2.7 0  5 -2.6 0  5 -2.5 0  5 -2.4 0  5 -2.3 0  5 -2.2 0  5 -2.1 0  5 -2 0  5 -1.9 0  5 -1.8 0  5 -1.7 0  5 -1.6 0  5 -1.5 0  5 -1.4 0  5 -1.3 0  5 -1.2 0  5 -1.1 0  5 -1 0  5 -0.9000000000000004 0  5 -0.7999999999999998 0  5 -0.7000000000000002 0  5 -0.5999999999999996 0  5 -0.5 0  5 -0.4000000000000004 0  5 -0.2999999999999998 0  5 -0.2000000000000002 0  5 -0.09999999999999964 0  5 0 0  5 0.09999999999999964 0  5 0.2000000000000002 0  5 0.2999999999999998 0  5 0.4000000000000004 0  5 0.5 0  5 0.5999999999999996 0  5 0.7000000000000002 0  5 0.7999999999999998 0  5 0.9000000000000004 0  5 1 0  5 1.1 0  5 1.2 0  5 1.3 0  5 1.4 0  5 1.5 0  5 1.6 0  5 1.7 0  5 1.8 0  5 1.9 0  5 2 0  5 2.1 0  5 2.2 0  5 2.3 0  5 2.4 0  5 2.5 0  5 2.6 0  5 2.7 0  5 2.8 0  5 2.9 0  5 3 0  5 3.1 0  5 3.199999999999999 0  5 3.300000000000001 0  5 3.4 0  5 3.5 0  5 3.6 0  5 3.699999999999999 0  5 3.800000000000001 0  5 3.9 0  5 4 0  5 4.1 0  5 4.199999999999999 0  5 4.300000000000001 0  5 4.4 0  5 4.5 0  5 4.6 0  5 4.699999999999999 0  5 4.800000000000001 0  5 4.9 0  4.9 5 0  4.8 5 0  4.7 5 0  4.6 5 0  4.5 5 0  4.4 5 0  4.3 5 0  4.2 5 0  4.1 5 0  4 5 0  3.9 5 0  3.8 5 0  3.7 5 0  3.6 5 0  3.5 5 0  3.4 5 0  3.3 5 0  3.2 5 0  3.1 5 0  3 5 0  2.9 5 0  2.8 5 0  2.7 5 0  2.6 5 0  2.5 5 0  2.4 5 0  2.3 5 0  2.2 5 0  2.1 5 0  2 5 0  1.9 5 0  1.8 5 0  1.7 5 0  1.6 5 0  1.5 5 0  1.4 5 0  1.3 5 0  1.2 5 0  1.1 5 0  1 5 0  0.9000000000000004 5 0  0.7999999999999998 5 0  0.7000000000000002 5 0  0.5999999999999996 5 0  0.5 5 0  0.4000000000000004 5 0  0.2999999999999998 5 0  0.2000000000000002 5 0  0.09999999999999964 5 0  0 5 0  -0.09999999999999964 5 0  -0.2000000000000002 5 0  -0.2999999999999998 5 0  -0.4000000000000004 5 0  -0.5 5 0  -0.5999999999999996 5 0  -0.7000000000000002 5 0  -0.7999999999999998 5 0  -0.9000000000000004 5 0  -1 5 0  -1.1 5 0  -1.2 5 0  -1.3 5 0  -1.4 5 0  -1.5 5 0  -1.6 5 0  -1.7 5 0  -1.8 5 0  -1.9 5 0  -2 5 0  -2.1 5 0  -2.2 5 0  -2.3 5 0  -2.4 5 0  -2.5 5 0  -2.6 5 0  -2.7 5 0  -2.8 5 0  -2.9 5 0  -3 5 0  -3.1 5 0  -3.199999999999999 5 0  -3.300000000000001 5 0  -3.4 5 0  -3.5 5 0  -3.6 5 0  -3.699999999999999 5 0  -3.800000000000001 5 0  -3.9 5 0  -4 5 0  -4.1 5 0  -4.199999999999999 5 0  -4.300000000000001 5 0  -4.4 5 0  -4.5 5 0  -4.6 5 0  -4.699999999999999 5 0  -4.800000000000001 5 0  -4.9 5 0  -5 4.9 0  -5 4.8 0  -5 4.7 0  -5 4.6 0  -5 4.5 0  -5 4.4 0  -5 4.3 0  -5 4.2 0  -5 4.1 0  -5 4 0  -5 3.9 0  -5 3.8 0  -5 3.7 0  -5 3.6 0  -5 3.5 0  -5 3.4 0  -5 3.3 0  -5 3.2 0  -5 3.1 0  -5 3 0  -5 2.9 0  -5 2.8 0  -5 2.7 0  -5 2.6 0  -5 2.5 0  -5 2.4 0  -5 2.3 0  -5 2.2 0  -5 2.1 0  -5 2 0  -5 1.9 0  -5 1.8 0  -5 1.7 0  -5 1.6 0  -5 1.5 0  -5 1.4 0  -5 1.3 0  -5 1.2 0  -5 1.1 0  -5 1 0  -5 0.9000000000000004 0  -5 0.7999999999999998 0  -5 0.7000000000000002 0  -5 0.5999999999999996 0  -5 0.5 0  -5 0.4000000000000004 0  -5 0.2999999999999998 0  -5 0.2000000000000002 0  -5 0.09999999999999964 0  -5 0 0  -5 -0.09999999999999964 0  -5 -0.2000000000000002 0  -5 -0.2999999999999998 0  -5 -0.4000000000000004 0  -5 -0.5 0  -5 -0.5999999999999996 0  -5 -0.7000000000000002 0  -5 -0.7999999999999998 0  -5 -0.9000000000000004 0  -5 -1 0  -5 -1.1 0  -5 -1.2 0  -5 -1.3 0  -5 -1.4 0  -5 -1.5 0  -5 -1.6 0  -5 -1.7 0  -5 -1.8 0  -5 -1.9 0  -5 -2 0  -5 -2.1 0  -5 -2.2 0  -5 -2.3 0  -5 -2.4 0  -5 -2.5 0  -5 -2.6 0  -5 -2.7 0  -5 -2.8 0  -5 -2.9 0  -5 -3 0  -5 -3.1 0  -5 -3.199999999999999 0  -5 -3.300000000000001 0  -5 -3.4 0  -5 -3.5 0  -5 -3.6 0  -5 -3.699999999999999 0  -5 -3.800000000000001 0  -5 -3.9 0  -5 -4 0  -5 -4.1 0  -5 -4.199999999999999 0  -5 -4.300000000000001 0  -5 -4.4 0  -5 -4.5 0  -5 -4.6 0  -5 -4.699999999999999 0  -5 -4.800000000000001 0  -5 -4.9 0  2.414175668582291 0.2746398024946912 0  1.956714132055016 0.3624088348545786 0  2.364312577688528 0.73522433513986 0  1.778312408401878 0.6721443572114862 0  1.862940383659987 0.9356767308713103 0  1.54239789915149 1.020450454942529 0  1.310167989829355 1.289369765825996 0  1.162261756151634 0.9762566961885222 0  1.157630552489634 1.255968346181268 0  0.9619955513353593 1.426563833745182 0  0.7918944721243989 1.443956631720172 0  0.6601467071324246 1.477049656028506 0  0.4704310701966369 1.563917292872633 0  0.2994647896967476 1.59766151800079 0  0.134338083486076 1.625080355969897 0  -0.02640839374264893 1.62078344516922 0  -0.2331940300205901 1.59269169550956 0  -0.3955528088835042 1.583681301144066 0  -0.5513058339756053 1.538734845204885 0  -0.7138557727540419 1.464581151773939 0  -0.8848163865881824 1.425339456243737 0  -1.06218557514164 1.309412330932678 0  -1.211185265569665 1.187214683318668 0  -1.364023150724634 1.255296126404283 0  -1.233341417360381 0.8240035404808522 0  -1.545589160283079 1.083922777492771 0  -1.9759792360444 0.9293166688358737 0  -1.829083905006113 0.6687167623455351 0  -2.178069180726923 0.6119740389693142 0  -2.24083899012662 0.3134354393805782 0  -2.342258041215261 0.04746191301414003 0  -1.855035863739883 -0.116359715254792 0  -2.514714147194404 -0.4960745260851648 0  -2.000413369739084 -0.4311896133119373 0  -1.895978890715433 -0.6554594925610603 0  -1.911645507828832 -1.017697824646181 0  -1.529017385783874 -0.8195982602131346 0  -1.553560718985389 -0.9690664316399302 0  -1.377327928664479 -1.199501426101649 0  -1.164759325911464 -1.190426050804526 0  -1.034051181252251 -1.323867997350167 0  -0.8743181833834385 -1.458551617432289 0  -0.7016809821578802 -1.490586387285244 0  -0.5428337834349202 -1.529331700095387 0  -0.3825054160011833 -1.590917281694263 0  -0.2111359590571052 -1.603226649359366 0  -0.04730563797300867 -1.620510135689607 0  0.1442289821273153 -1.618416426065918 0  0.2926936953603389 -1.610195495771001 0  0.4732424044850804 -1.578582242852402 0  0.6394240134272386 -1.510999569783145 0  0.7625818468413944 -1.36917793397764 0  0.9401199565249809 -1.417938695768355 0  1.122596447503583 -1.3117674725431 0  1.311788462694656 -1.252412807132445 0  1.408708410077769 -1.049612696249232 0  1.498829897765871 -0.9027672450433275 0  1.814533988653579 -0.9565189258056396 0  1.91463791856281 -0.7483305654076886 0  1.904961803840842 -0.5263545554035045 0  2.304345034513458 -0.4666769046538268 0  2.251085615225062 -0.1651772405508457 0  -2.449920017590041 4.92019830113453 0  -2.449881526423217 -4.912746977883742 0  4.911042598363382 2.448155949952159 0  4.919078294802942 -2.449482174664594 0  2.447814214457322 -4.898316274165182 0  2.44223618599831 4.902072171773185 0  -4.911094102832783 -2.448183190714518 0  -4.911134574100677 2.44818145586449 0  -1.750223940172862 4.914389538073076 0  -1.745916439136839 -4.91766387513655 0  4.920607985656257 1.743794971276851 0  4.909066311657868 -1.747678202408009 0  -4.909477288961372 -1.747386992238262 0  -4.910330226156783 1.747128549642518 0  1.747656264288359 4.908469159028167 0  1.749223983669036 -4.896972115191286 0  -1.150355358453897 4.913291438442537 0  -1.131066803552428 -4.9206732602382 0  -4.908343202383213 -1.147436564353697 0  -4.908170210423463 1.147229216595899 0  1.145240323911071 -4.917076736933365 0  1.1503695046204 4.91323251052106 0  4.908440800517379 1.145687734537613 0  4.919317396363066 -1.151397031033334 0  -0.547483986580127 -4.915032488429733 0  -0.5471960456645389 4.923325407987167 0  -4.906203522585383 -0.5483059368841109 0  -4.906231543604557 0.546850714181865 0  4.905340786781275 -0.5486405685810412 0  4.917288157912343 0.5453263665627864 0  0.5434525256648214 -4.902600522081533 0  0.5519583880995318 4.920324956330662 0  -4.912661583348288 -3.048743491889508 0  4.919185183816503 3.046690540673338 0  4.912140467692277 -3.048694163336224 0  -4.913534261006841 3.045817292815423 0  3.056257036719202 -4.91878183907639 0  -3.049659694205757 -4.912763852735999 0  3.053212124850775 4.914871219505917 0  -3.049134816089229 4.913708195314153 0  -4.904954800829646 -0.04986635876303895 0  0.0452107307674998 -4.917105505679863 0  0.04963758469554183 4.92379890365678 0  4.912060483290813 -0.0512860576577512 0  3.546233681493896 -4.919920059473607 0  -3.549606497500391 4.912967772804777 0  -3.549572639151465 -4.912983971739881 0  4.91
[...]
<PointData  Scalars="f_23"> 
<DataArray  type="Float64"  Name="f_23"  format="ascii">0.0000000000000000e+00  0.0000000000000000e+00  0.0000000000000000e+00  0.0000000000000000e+00  2.2915181038741250e+02  0.0000000000000000e+00  0.0000000000000000e+00  0.0000000000000000e+00  0.0000000000000000e+00  0.0000000000000000e+00  0.0000000000000000e+00  0.0000000000000000e+00  0.0000000000000000e+00  0.0000000000000000e+00  0.0000000000000000e+00  0.0000000000000000e+00  0.0000000000000000e+00  0.0000000000000000e+00  0.0000000000000000e+00  0.0000000000000000e+00  0.0000000000000000e+00  0.0000000000000000e+00  0.0000000000000000e+00  0.0000000000000000e+00  0.0000000000000000e+00  0.0000000000000000e+00  0.0000000000000000e+00  0.0000000000000000e+00  0.0000000000000000e+00  0.0000000000000000e+00  0.0000000000000000e+00  0.0000000000000000e+00  0.0000000000000000e+00  0.0000000000000000e+00  0.0000000000000000e+00  0.0000000000000000e+00  0.0000000000000000e+00  0.0000000000000000e+00  0.0000000000000000e+00  0.0000000000000000e+00  0.0000000000000000e+00  0.0000000000000000e+00  0.0000000000000000e+00  0.0000000000000000e+00  0.0000000000000000e+00  0.0000000000000000e+00  0.0000000000000000e+00  0.0000000000000000e+00  0.0000000000000000e+00  0.0000000000000000e+00  0.0000000000000000e+00  0.0000000000000000e+00  0.0000000000000000e+00  0.0000000000000000e+00  0.0000000000000000e+00  0.0000000000000000e+00  0.0000000000000000e+00  0.0000000000000000e+00  0.0000000000000000e+00  0.0000000000000000e+00  0.0000000000000000e+00  0.0000000000000000e+00  0.0000000000000000e+00  0.0000000000000000e+00  0.0000000000000000e+00  0.0000000000000000e+00  0.0000000000000000e+00  0.0000000000000000e+00  0.0000000000000000e+00  0.0000000000000000e+00  0.0000000000000000e+00  0.0000000000000000e+00  0.0000000000000000e+00  0.0000000000000000e+00  0.0000000000000000e+00  0.0000000000000000e+00  0.0000000000000000e+00  0.0000000000000000e+00  0.0000000000000000e+00  0.0000000000000000e+00  0.0000000000000000e+00  0.0000000000000000e+00  0.0000000000000000e+00  0.0000000000000000e+00  0.0000000000000000e+00  0.0000000000000000e+00  0.0000000000000000e+00  0.0000000000000000e+00  0.0000000000000000e+00  0.0000000000000000e+00  0.0000000000000000e+00  0.0000000000000000e+00  0.0000000000000000e+00  0.0000000000000000e+00  0.0000000000000000e+00  0.0000000000000000e+00  0.0000000000000000e+00  0.0000000000000000e+00  0.0000000000000000e+00  0.0000000000000000e+00  0.0000000000000000e+00  0.0000000000000000e+00  0.0000000000000000e+00  0.0000000000000000e+00  0.0000000000000000e+00  0.0000000000000000e+00  0.0000000000000000e+00  0.0000000000000000e+00  0.0000000000000000e+00  0.0000000000000000e+00  0.0000000000000000e+00  0.0000000000000000e+00  0.0000000000000000e+00  0.0000000000000000e+00  0.0000000000000000e+00  0.0000000000000000e+00  0.0000000000000000e+00  0.0000000000000000e+00  0.0000000000000000e+00  0.0000000000000000e+00  0.0000000000000000e+00  0.0000000000000000e+00  0.0000000000000000e+00  0.0000000000000000e+00  0.0000000000000000e+00  0.0000000000000000e+00  0.0000000000000000e+00  0.0000000000000000e+00  0.0000000000000000e+00  0.0000000000000000e+00  0.0000000000000000e+00  0.0000000000000000e+00  0.0000000000000000e+00  0.0000000000000000e+00  0.0000000000000000e+00  0.0000000000000000e+00  0.0000000000000000e+00  0.0000000000000000e+00  0.0000000000000000e+00  0.0000000000000000e+00  0.0000000000000000e+00  0.0000000000000000e+00  0.0000000000000000e+00  0.0000000000000000e+00  0.0000000000000000e+00  0.0000000000000000e+00  0.0000000000000000e+00  0.0000000000000000e+00  0.0000000000000000e+00  0.0000000000000000e+00  0.0000000000000000e+00  0.0000000000000000e+00  0.0000000000000000e+00  0.0000000000000000e+00  0.0000000000000000e+00  0.0000000000000000e+00  0.0000000000000000e+00  0.0000000000000000e+00  0.0000000000000000e+00  0.0000000000000000e+00  0.0000000000000000e+00  0.0000000000000000e+00  0.0000000000000000e+00  0.0000000000000000e+00  0.0000000000000000e+00  0.0000000000000000e+00  0.0000000000000000e+00  0.0000000000000000e+00  0.0000000000000000e+00  0.0000000000000000e+00  0.0000000000000000e+00  0.0000000000000000e+00  0.0000000000000000e+00  0.0000000000000000e+00  0.0000000000000000e+00  0.0000000000000000e+00  0.0000000000000000e+00  0.0000000000000000e+00  0.0000000000000000e+00  0.0000000000000000e+00  0.0000000000000000e+00  0.0000000000000000e+00  0.0000000000000000e+00  0.0000000000000000e+00  0.0000000000000000e+00  0.0000000000000000e+00  0.0000000000000000e+00  0.0000000000000000e+00  0.0000000000000000e+00  0.0000000000000000e+00  0.0000000000000000e+00  0.0000000000000000e+00  0.0000000000000000e+00  0.0000000000000000e+00  0.0000000000000000e+00  0.0000000000000000e+00  0.0000000000000000e+00  0.0000000000000000e+00  0.0000000000000000e+00  0.0000000000000000e+00  0.0000000000000000e+00  0.0000000000000000e+00  0.0000000000000000e+00  0.0000000000000000e+00  0.0000000000000000e+00  0.0000000000000000e+00  0.0000000000000000e+00  0.0000000000000000e+00  0.0000000000000000e+00  0.0000000000000000e+00  0.0000000000000000e+00  0.0000000000000000e+00  0.0000000000000000e+00  0.0000000000000000e+00  0.0000000000000000e+00  0.0000000000000000e+00  0.0000000000000000e+00  0.0000000000000000e+00  0.0000000000000000e+00  0.0000000000000000e+00  0.0000000000000000e+00  0.0000000000000000e+00  0.0000000000000000e+00  0.0000000000000000e+00  0.0000000000000000e+00  0.0000000000000000e+00  0.0000000000000000e+00  0.0000000000000000e+00  0.0000000000000000e+00  0.0000000000000000e+00  0.0000000000000000e+00  0.0000000000000000e+00  0.0000000000000000e+00  0.0000000000000000e+00  0.0000000000000000e+00  0.0000000000000000e+00  0.0000000000000000e+00  0.0000000000000000e+00  0.0000000000000000e+00  0.0000000000000000e+00  0.0000000000000000e+00  0.0000000000000000e+00  0.0000000000000000e+00  0.0000000000000000e+00  0.0000000000000000e+00  0.0000000000000000e+00  0.0000000000000000e+00  0.0000000000000000e+00  0.0000000000000000e+00  0.0000000000000000e+00  0.0000000000000000e+00  0.0000000000000000e+00  0.0000000000000000e+00  0.0000000000000000e+00  0.0000000000000000e+00  0.0000000000000000e+00  0.0000000000000000e+00  0.0000000000000000e+00  0.0000000000000000e+00  0.0000000000000000e+00  0.0000000000000000e+00  0.0000000000000000e+00  0.0000000000000000e+00  0.0000000000000000e+00  0.0000000000000000e+00  0.0000000000000000e+00  0.0000000000000000e+00  0.0000000000000000e+00  0.0000000000000000e+00  0.0000000000000000e+00  0.0000000000000000e+00  0.0000000000000000e+00  0.0000000000000000e+00  0.0000000000000000e+00  0.0000000000000000e+00  0.0000000000000000e+00  0.0000000000000000e+00  0.0000000000000000e+00  0.0000000000000000e+00  0.0000000000000000e+00  0.0000000000000000e+00  0.0000000000000000e+00  0.0000000000000000e+00  0.0000000000000000e+00  0.0000000000000000e+00  0.0000000000000000e+00  0.0000000000000000e+00  0.0000000000000000e+00  0.0000000000000000e+00  0.0000000000000000e+00  0.0000000000000000e+00  0.0000000000000000e+00  0.0000000000000000e+00  0.0000000000000000e+00  0.0000000000000000e+00  0.0000000000000000e+00  0.0000000000000000e+00  0.0000000000000000e+00  0.0000000000000000e+00  0.0000000000000000e+00  0.0000000000000000e+00  0.0000000000000000e+00  0.0000000000000000e+00  0.0000000000000000e+00  0.0000000000000000e+00  0.0000000000000000e+00  0.0000000000000000e+00  0.0000000000000000e+00  0.0000000000000000e+00  0.0000000000000000e+00  0.0000000000000000e+00  0.0000000000000000e+00  0.0000000000000000e+00  0.0000000000000000e+00  0.0000000000000000e+00  0.0000000000000000e+00  0.0000000000000000e+00  0.0000000000000000e+00  0.0000000000000000e+00  0.0000000000000000e+00  0.0000000000000000e+00  0.0000000000000000e+00  0.0000000000000000e+00  0.0000000000000000e+00  0.0000000000000000e+00  0.0000000000000000e+00  0.0000000000000000e+00  0.0000000000000000e+00  0.0000000000000000e+00  0.0000000000000000e+00  0.0000000000000000e+00  0.0000000000000000e+00  0.0000000000000000e+00  0.0000000000000000e+00  0.0000000000000000e+00  0.0000000000000000e+00  0.0000000000000000e+00  0.0000000000000000e+00  0.0000000000000000e+00  0.0000000000000000e+00  0.0000000000000000e+00  0.0000000000000000e+00  0.0000000000000000e+00  0.0000000000000000e+00  0.0000000000000000e+00  0.0000000000000000e+00  0.0000000000000000e+00  0.0000000000000000e+00  0.0000000000000000e+00  0.0000000000000000e+00  0.0000000000000000e+00  0.0000000000000000e+00  0.0000000000000000e+00  0.0000000000000000e+00  0.0000000000000000e+00  0.0000000000000000e+00  0.0000000000000000e+00  0.0000000000000000e+00  0.0000000000000000e+00  0.0000000000000000e+00  0.0000000000000000e+00  0.0000000000000000e+00  0.0000000000000000e+00  0.0000000000000000e+00  0.0000000000000000e+00  0.0000000000000000e+00  0.0000000000000000e+00  0.0000000000000000e+00  0.0000000000000000e+00  0.0000000000000000e+00  0.0000000000000000e+00  0.0000000000000000e+00  0.0000000000000000e+00  0.0000000000000000e+00  0.0000000000000000e+00  0.0000000000000000e+00  0.0000000000000000e+00  0.0000000000000000e+00  0.0000000000000000e+00  0.0000000000000000e+00  0.0000000000000000e+00  0.0000000000000000e+00  0.0000000000000000e+00  0.0000000000000000e+00  0.0000000000000000e+00  0.0000000000000000e+00  0.0000000000000000e+00  0.0000000000000000e+00  0.0000000000000000e+00  0.0000000000000000e+00  0.0000000000000000e+00  0.0000000000000000e+00  0.0000000000000000e+00  0.0000000000000000e+00  0.0000000000000000e+00  0.0000000000000000e+00  0.0000000000000000e+00  0.0000000000000000e+00  0.0000000000000000e+00  0.0000000000000000e+00  0.0000000000000000e+00  2.2656014261130352e+02  2.3028549498652970e+02  2.2622355044497058e+02  2.3251829571624791e+02  2.3255537275022058e+02  2.3157854235928517e+02  2.3086749525634937e+02  2.2191650710867802e+02  2.1207855396878770e+02  2.1122165952654251e+02  2.1210298375679076e+02  2.1175814713458115e+02  2.1013306555812821e+02  2.1005475604368598e+02  2.1023120846139628e+02  2.1120825208249937e+02  2.1171066498950125e+02  2.1052361300891582e+02  2.1045970552156584e+02  2.1131523044645371e+02  2.1124399068050485e+02  2.1212264374230784e+02  2.1401647890747205e+02  2.0583064106849352e+02  2.3219695411463763e+02  2.3456660602527393e+02  2.3958318860944922e+02  2.3581752689588191e+02  2.3656876429111139e+02  2.3647883200426236e+02  2.3464433795204991e+02  2.3296997342128216e+02  2.2656896932919412e+02  2.3302619876034839e+02  2.2942064762309971e+02  2.2052644340195042e+02  2.3159075613649694e+02  2.2633063675663334e+02  2.2089028732087496e+02  2.1947264721317833e+02  2.1421582283866599e+02  2.1269910894501558e+02  2.1277665485593602e+02  2.1198464398431940e+02  2.1091137622902954e+02  2.1093269134954258e+02  2.1098781050006519e+02  2.1105505278498580e+02  2.1050364194391321e+02  2.1015857757517989e+02  2.1091079038304957e+02  2.1474902469251870e+02  2.1485289077163267e+02  2.1632960627018485e+02  2.1581932213163225e+02  2.1804288300800317e+02  2.2257568294112377e+02  2.2009741361121704e+02  2.2293235284953732e+02  2.2620192236525170e+02  2.2504434641976277e+02  2.2638386429864093e+02  2.3396559223685496e+00  2.5675900085496299e+00  2.6709938641029205e+00  2.4271861968687092e+00  2.9884436755176385e+00  2.8766063655957361e+00  2.6802754378915150e+00  2.6684013502097073e+00  3.0796127762899181e+00  2.9800941771160336e+00  2.9639941871863060e+00  3.3888367148964682e+00  3.3897187619627394e+00  3.3470383437624247e+00  3.2959306016196277e+00  3.7174359816099258e+00  3.5054304829339720e+00  3.2292368021234239e+00  3.8912362270147041e+00  3.8889093667109478e+00  3.3658784562659294e+00  3.5076828553449428e+00  3.8742113775639568e+00  3.4083606406391747e+00  3.6915187758488743e+00  3.3150455548499873e+00  4.2847262709318956e+00  4.2783747139854738e+00  4.3087620923553871e+00  3.7673166341131901e+00  4.2298526430045023e+00  3.4446065237797403e+00  2.0301967633668605e+00  1.8725967775939780e+00  2.0329398549781779e+00  2.0041631983759096e+00  1.8476466031561460e+00  2.0021232225233199e+00  1.9404413881333062e+00  1.9681994928352200e+00  4.4347402204513511e+00  3.6716236614988005e+00  3.3595649040968567e+00  4.0918414949214723e+00  1.3742002653866388e+00  1.4891678122862144e+00  1.4945341825070182e+00  1.3841874309370641e+00  1.5104331623829912e+00  1.4652310214492781e+00  1.4787458633826573e+00  1.4561393515705674e+00  1.0568451645869494e+00  1.2118621696916765e+00  1.0816093327750429e+00  1.0896969614525429e+00  1.0026992457931931e+00  1.0846802167223113e+00  1.0604793780893058e+00  1.0708126190270224e+00  7.8393190915243327e-01  6.1625372618142016e-01  5.6844822516445159e-01  6.6984956775117110e-01  6.5900030819345035e-01  6.6344677782632855e-01  6.5291670773151811e-01  6.9490034745243001e-01  4.4081158220631469e+00  3.8144889501351789e+00  3.5346688557299535e+00  3.8503152948890378e+00  3.7701324785299017e+00  3.6511830004286758e+00  4.1270890729150640e+00  4.1518412753942231e+00  3.6783614555534094e+00  2.9475920784819412e+00  4.1978886168889300e+00  3.5882882367445075e+00  3.3364055036479416e+00  3.5069156265926922e+00  4.1429816532049193e+00  3.6841151716933935e+00  3.6742625996186717e+00  3.3340059668296096e+00  4.0454371550170212e+00  3.3531504838965436e+00  3.3908430977637272e+00  3.0639354370977312e+00  3.0977877992386920e+00  3.0379630425735176e+00  2.4266508522750359e+00  2.8866770241662962e+00  2.8402013374259862e+00  3.0867492985501861e+00  2.3526806949888583e+00  2.4146408687293821e+00  2.3489065941364964e+00  2.3268320552181461e+00  2.5841859485689844e+00  2.3616612963294292e+00  2.2485780558981223e+00  2.0033440756642245e+00  3.5961060304237269e-01  3.5481986084248712e-01  3.4377589093053512e-01  3.8332080195382440e-01  3.5995683004173040e-01  3.7601179945266794e-01  3.5493491578564951e-01  2.9560365325410126e-01  4.4105744441371986e+00  4.1046955277654460e+00  4.4792411572594695e+00  3.9071188676831610e+00  2.7336025385120375e+00  2.8798577618065395e+00  2.8796001788924639e+00  3.0850365056191706e+00  2.8905664337115038e+00  2.7410113355883809e+00  2.9338997235529747e+00  2.8457258927762603e+00  1.7947186097593000e+00  2.0687715349324352e+00  2.0361336221872901e+00  1.8284372444737380e+00  1.7176154610282166e+00  1.8643783836260794e+00  1.7595275850460959e+00  1.7994004563379569e+00  1.2750978672323288e+00  8.6273783122933279e-01  1.3054759005518461e+00  9.4814415962620391e-01  1.1848757500971603e+00  8.8448820971661468e-01  1.2995903765474850e+00  8.8078104756776532e-01  1.2860584135103221e+00  1.0503985597841949e+00  1.2936600801851101e+00  8.7712230917511069e-01  1.2935448609159612e+00  8.6598999643314645e-01  1.3428350758196197e+00  9.0279247654225969e-01  1.7061951576166223e-01  1.5387935781975395e-01  1.5412253996977934e-01  1.6694666890034654e-01  4.4267323079310215e+00  8.8498265450143947e+00  8.8090019870803307e+00  1.3267835454224915e+01  1.3193898865496665e+01  1.7681386663650329e+01  1.7572055235437581e+01  2.2092383537800227e+01  2.1932412059060393e+01  2.6499013049676410e+01  2.6278706347423658e+01  3.0901795235068484e+01  3.0611771821370205e+01  3.5300133570290555e+01  3.4930726414074947e+01  3.9693859282854156e+01  3.9229840428377067e+01  4.4079036408670873e+01  4.3519055048721675e+01  4.8447300503134954e+01  4.7782623651856916e+01  4.9052881927397209e+01  5.2816042874337221e+01  5.2018292183760572e+01  5.7168243959731967e+01  5.6231008836789613e+01  6.1481556062274720e+01  6.0401702297628880e+01  6.5765484032848974e+01  6.4526853981906484e+01  7.0001507163501486e+01  6.8597270386181577e+01  7.1334163391732943e+01  7.4176085539902616e+01  7.2600673072335866e+01  7.8300864907025414e+01  7.6531375879282777e+01  8.2357089680812479e+01  8.0370895307554520e+01  8.6307209725993673e+01  8.4116189139052409e+01  9.0147849155598820e+01  8.7743320805542382e+01  9.2509431388856271e+01  9.3863317704970299e+01  9.1242006017578163e+01  9.7439533242650057e+01  9.4592132200868107e+01  8.8550191131975680e+01  9.1708112726612441e+01  9.7790822556563640e+01  9.4726833233771060e+01  8.8845421142638102e+01  9.1670451265171806e+01  8.6001823959153853e+01  8.8629162682509445e+01  9.4318980036064673e+01  9.1093698147242392e+01  8.5599607993152773e+01  8.7892388047847817e+01  8.2587186575130360e+01  8.4717333346630340e+01  9.0022495427344836e+01  8.6687623744479737e+01  8.1570257104943408e+01  8.3388209197625130e+01  8.8492374929214833e+01  8.5044520022942606e+01  8.0124372853461750e+01  8.1638563745484802e+01  8.6534839146576118e+01  8.2991118137626813e+01  8.7855769046716119e+01  7.6896130711237461e+01  8.4178830186017848e+01  8.9003710849599841e+01  8.5199169993981045e+01  8.9977159102406318e+01  8.6050427106623616e+01  9.0774431960665524e+01  8.6731613326403888e+01  9.1394482996118114e+01  8.2185837952351136e+01  8.7242078202020465e+01  9.1837815588800822e+01  8.7582190705306303e+01  9.2105125533138292e+01  8.7753212261342782e+01  9.2198028939628358e+01  8.7756558335631397e+01  9.2118899443351367e+01  8.7594867211277688e+01  9.1870466896178371e+01  8.7270837728189122e+01  9.1456472762658535e+01  8.3394327370083829e+01  9.4887980772588065e+01  2.1491548963824974e+02  8.6787673758486122e+01  9.0881048683275196e+01  8.6150398773188982e+01  9.0148809726459902e+01  2.0809477460386054e+02  8.5363146303294172e+01  8.9264944147269802e+01  2.0508365723123458e+02  8.4430963639125025e+01  8.8234997657731626e+01  9.3205869542727143e+01  9.2071044552081673e+01  8.7064721784953377e+01  9.0795602154035819e+01  9.6731182304695963e+01  8.0665871540176610e+01  8.5760766740651476e+01  8.9386762571182288e+01  9.4544768944932798e+01  9.3023770852466669e+01  8.7850171395094378e+01  9.1376497300540947e+01  9.6665137863784068e+01  9.4900772304366583e+01  8.9609727406404716e+01  9.3018921608862868e+01  9.8415887091603821e+01  9.6412926191766104e+01  9.1026942265226140e+01  9.4301428062219102e+01  9.9793683895740173e+01  9.7553463087248318e+01  9.2091269527919380e+01  9.5215742939617698e+01  1.0076240849362746e+02  9.8297795426688111e+01  9.2792712317851567e+01  9.5751561769086720e+01  1.0132943404384238e+02  9.8655560449926242e+01  1.0430314435623121e+02  1.0149648635622869e+02  9.5907573876369895e+01  9.8619612023960258e+01  1.0426581369368377e+02  1.0125598324127841e+02  9.5680796654662430e+01  9.8188636173196500e+01  1.0380836281282272e+02  1.0060850728321697e+02  1.0626766864638421e+02  1.0293158807803495e+02  1.0862514034639651e+02  1.0514930842962742e+02  9.9556728009064472e+01  1.0164072142605252e+02  1.0725303403559026e+02  1.0360781419939396e+02  1.0923373858065221e+02  1.0544943317822516e+02  1.1108245242404834e+02  1.0715690516584404e+02  1.1279017130324492e+02  1.0872168158233328e+02  1.0322794571180424e+02  1.0465818086309091e+02  1.1013577777827020e+02  1.0593960602181684e+02  1.1138870260492413e+02  1.0706003813916372e+02  1.1247624972038722e+02  1.0801397150690219e+02  1.1339985048735331e+02  1.0879499478123397e+02  1.1413398397769751e+02  1.0940032794552373e+02  1.1467186361971130e+02  1.0981823659252889e+02  1.1502217378125158e+02  1.1004765107778951e+02  1.1520301820080763e+02  1.1008863338696280e+02  1.1516125835458429e+02  1.0993069198456799e+02  1.1487842884580742e+02  1.0956484049474075e+02  1.1441083176313113e+02  1.0900109724294344e+02  1.1373943495454304e+02  1.0436497160295713e+02  1.0371574937301028e+02  9.9283719447029569e+01  9.8557284338558432e+01  9.4324002312683305e+01  9.3530866546772103e+01  8.9488883935239897e+01  8.8637606500026308e+01  8.4779974568364835e+01  8.3879171084822431e+01  8.7614005587967952e+01  8.0199478455418728e+01  1.0275770261303256e+02  8.2812561063609053e+01  8.6419507218982190e+01  8.1583745901374101e+01  8.5056728660958598e+01  8.0192687136773742e+01  8.3528229707100664e+01  7.8641976634162674e+01  8.1837492972918611e+01  7.6937979688729911e+01  7.3915939093677778e+01  7.9989334631520336e+01  7.2204036159851114e+01  6.9347793249895872e+01  6.7631586685914840e+01  6.4933892746012575e