<?xml version="1.0"?>
<VTKFile type="UnstructuredGrid"  version="0.1"  >
<UnstructuredGrid>
<Piece  NumberOfPoints="11902" NumberOfCells="23402">
<Points>
<DataArray  type="Float64"  NumberOfComponents="3"  format="ascii">-5 -5 0  5 -5 0  5 5 0  -5 5 0  1.870532564417259 0.003526089481990929 0  -4.9 -5 0  -4.8 -5 0  -4.7 -5 0  -4.6 -5 0  -4.5 -5 0  -4.4 -5 0  -4.3 -5 0  -4.2 -5 0  -4.1 -5 0  -4 -5 0  -3.9 -5 0  -3.8 -5 0  -3.7 -5 0  -3.6 -5 0  -3.5 -5 0  -3.4 -5 0  -3.3 -5 0  -3.2 -5 0  -3.1 -5 0  -3 -5 0  -2.9 -5 0  -2.8 -5 0  -2.7 -5 0  -2.6 -5 0  -2.5 -5 0  -2.4 -5 0  -2.3 -5 0  -2.2 -5 0  -2.1 -5 0  -2 -5 0  -1.9 -5 0  -1.8 -5 0  -1.7 -5 0  -1.6 -5 0  -1.5 -5 0  -1.4 -5 0  -1.3 -5 0  -1.2 -5 0  -1.1 -5 0  -1 -5 0  -0.9000000000000004 -5 0  -0.7999999999999998 -5 0  -0.7000000000000002 -5 0  -0.5999999999999996 -5 0  -0.5 -5 0  -0.4000000000000004 -5 0  -0.2999999999999998 -5 0  -0.2000000000000002 -5 0  -0.09999999999999964 -5 0  0 -5 0  0.09999999999999964 -5 0  0.2000000000000002 -5 0  0.2999999999999998 -5 0  0.4000000000000004 -5 0  0.5 -5 0  0.5999999999999996 -5 0  0.7000000000000002 -5 0  0.7999999999999998 -5 0  0.9000000000000004 -5 0  1 -5 0  1.1 -5 0  1.2 -5 0  1.3 -5 0  1.4 -5 0  1.5 -5 0  1.6 -5 0  1.7 -5 0  1.8 -5 0  1.9 -5 0  2 -5 0  2.1 -5 0  2.2 -5 0  2.3 -5 0  2.4 -5 0  2.5 -5 0  2.6 -5 0  2.7 -5 0  2.8 -5 0  2.9 -5 0  3 -5 0  3.1 -5 0  3.199999999999999 -5 0  3.300000000000001 -5 0  3.4 -5 0  3.5 -5 0  3.6 -5 0  3.699999999999999 -5 0  3.800000000000001 -5 0  3.9 -5 0  4 -5 0  4.1 -5 0  4.199999999999999 -5 0  4.300000000000001 -5 0  4.4 -5 0  4.5 -5 0  4.6 -5 0  4.699999999999999 -5 0  4.800000000000001 -5 0  4.9 -5 0  5 -4.9 0  5 -4.8 0  5 -4.7 0  5 -4.6 0  5 -4.5 0  5 -4.4 0  5 -4.3 0  5 -4.2 0  5 -4.1 0  5 -4 0  5 -3.9 0  5 -3.8 0  5 -3.7 0  5 -3.6 0  5 -3.5 0  5 -3.4 0  5 -3.3 0  5 -3.2 0  5 -3.1 0  5 -3 0  5 -2.9 0  5 -2.8 0  5 -2.7 0  5 -2.6 0  5 -2.5 0  5 -2.4 0  5 -2.3 0  5 -2.2 0  5 -2.1 0  5 -2 0  5 -1.9 0  5 -1.8 0  5 -1.7 0  5 -1.6 0  5 -1.5 0  5 -1.4 0  5 -1.3 0  5 -1.2 0  5 -1.1 0  5 -1 0  5 -0.9000000000000004 0  5 -0.7999999999999998 0  5 -0.7000000000000002 0  5 -0.5999999999999996 0  5 -0.5 0  5 -0.4000000000000004 0  5 -0.2999999999999998 0  5 -0.2000000000000002 0  5 -0.09999999999999964 0  5 0 0  5 0.09999999999999964 0  5 0.2000000000000002 0  5 0.2999999999999998 0  5 0.4000000000000004 0  5 0.5 0  5 0.5999999999999996 0  5 0.7000000000000002 0  5 0.7999999999999998 0  5 0.9000000000000004 0  5 1 0  5 1.1 0  5 1.2 0  5 1.3 0  5 1.4 0  5 1.5 0  5 1.6 0  5 1.7 0  5 1.8 0  5 1.9 0  5 2 0  5 2.1 0  5 2.2 0  5 2.3 0  5 2.4 0  5 2.5 0  5 2.6 0  5 2.7 0  5 2.8 0  5 2.9 0  5 3 0  5 3.1 0  5 3.199999999999999 0  5 3.300000000000001 0  5 3.4 0  5 3.5 0  5 3.6 0  5 3.699999999999999 0  5 3.800000000000001 0  5 3.9 0  5 4 0  5 4.1 0  5 4.199999999999999 0  5 4.300000000000001 0  5 4.4 0  5 4.5 0  5 4.6 0  5 4.699999999999999 0  5 4.800000000000001 0  5 4.9 0  4.9 5 0  4.8 5 0  4.7 5 0  4.6 5 0  4.5 5 0  4.4 5 0  4.3 5 0  4.2 5 0  4.1 5 0  4 5 0  3.9 5 0  3.8 5 0  3.7 5 0  3.6 5 0  3.5 5 0  3.4 5 0  3.3 5 0  3.2 5 0  3.1 5 0  3 5 0  2.9 5 0  2.8 5 0  2.7 5 0  2.6 5 0  2.5 5 0  2.4 5 0  2.3 5 0  2.2 5 0  2.1 5 0  2 5 0  1.9 5 0  1.8 5 0  1.7 5 0  1.6 5 0  1.5 5 0  1.4 5 0  1.3 5 0  1.2 5 0  1.1 5 0  1 5 0  0.9000000000000004 5 0  0.7999999999999998 5 0  0.7000000000000002 5 0  0.5999999999999996 5 0  0.5 5 0  0.4000000000000004 5 0  0.2999999999999998 5 0  0.2000000000000002 5 0  0.09999999999999964 5 0  0 5 0  -0.09999999999999964 5 0  -0.2000000000000002 5 0  -0.2999999999999998 5 0  -0.4000000000000004 5 0  -0.5 5 0  -0.5999999999999996 5 0  -0.7000000000000002 5 0  -0.7999999999999998 5 0  -0.9000000000000004 5 0  -1 5 0  -1.1 5 0  -1.2 5 0  -1.3 5 0  -1.4 5 0  -1.5 5 0  -1.6 5 0  -1.7 5 0  -1.8 5 0  -1.9 5 0  -2 5 0  -2.1 5 0  -2.2 5 0  -2.3 5 0  -2.4 5 0  -2.5 5 0  -2.6 5 0  -2.7 5 0  -2.8 5 0  -2.9 5 0  -3 5 0  -3.1 5 0  -3.199999999999999 5 0  -3.300000000000001 5 0  -3.4 5 0  -3.5 5 0  -3.6 5 0  -3.699999999999999 5 0  -3.800000000000001 5 0  -3.9 5 0  -4 5 0  -4.1 5 0  -4.199999999999999 5 0  -4.300000000000001 5 0  -4.4 5 0  -4.5 5 0  -4.6 5 0  -4.699999999999999 5 0  -4.800000000000001 5 0  -4.9 5 0  -5 4.9 0  -5 4.8 0  -5 4.7 0  -5 4.6 0  -5 4.5 0  -5 4.4 0  -5 4.3 0  -5 4.2 0  -5 4.1 0  -5 4 0  -5 3.9 0  -5 3.8 0  -5 3.7 0  -5 3.6 0  -5 3.5 0  -5 3.4 0  -5 3.3 0  -5 3.2 0  -5 3.1 0  -5 3 0  -5 2.9 0  -5 2.8 0  -5 2.7 0  -5 2.6 0  -5 2.5 0  -5 2.4 0  -5 2.3 0  -5 2.2 0  -5 2.1 0  -5 2 0  -5 1.9 0  -5 1.8 0  -5 1.7 0  -5 1.6 0  -5 1.5 0  -5 1.4 0  -5 1.3 0  -5 1.2 0  -5 1.1 0  -5 1 0  -5 0.9000000000000004 0  -5 0.7999999999999998 0  -5 0.7000000000000002 0  -5 0.5999999999999996 0  -5 0.5 0  -5 0.4000000000000004 0  -5 0.2999999999999998 0  -5 0.2000000000000002 0  -5 0.09999999999999964 0  -5 0 0  -5 -0.09999999999999964 0  -5 -0.2000000000000002 0  -5 -0.2999999999999998 0  -5 -0.4000000000000004 0  -5 -0.5 0  -5 -0.5999999999999996 0  -5 -0.7000000000000002 0  -5 -0.7999999999999998 0  -5 -0.9000000000000004 0  -5 -1 0  -5 -1.1 0  -5 -1.2 0  -5 -1.3 0  -5 -1.4 0  -5 -1.5 0  -5 -1.6 0  -5 -1.7 0  -5 -1.8 0  -5 -1.9 0  -5 -2 0  -5 -2.1 0  -5 -2.2 0  -5 -2.3 0  -5 -2.4 0  -5 -2.5 0  -5 -2.6 0  -5 -2.7 0  -5 -2.8 0  -5 -2.9 0  -5 -3 0  -5 -3.1 0  -5 -3.199999999999999 0  -5 -3.300000000000001 0  -5 -3.4 0  -5 -3.5 0  -5 -3.6 0  -5 -3.699999999999999 0  -5 -3.800000000000001 0  -5 -3.9 0  -5 -4 0  -5 -4.1 0  -5 -4.199999999999999 0  -5 -4.300000000000001 0  -5 -4.4 0  -5 -4.5 0  -5 -4.6 0  -5 -4.699999999999999 0  -5 -4.800000000000001 0  -5 -4.9 0  2.417362136775328 0.2958317277633786 0  1.937921406603751 0.3560864843490162 0  2.37892250298856 0.7526244602836457 0  1.764400281506762 0.6519456713557941 0  1.868635157671618 0.9206601415329002 0  1.526649034846108 0.9938675964360326 0  1.304912840550975 1.279568007423607 0  1.144437717225135 0.9365011033792714 0  1.134212653239989 1.230235557421115 0  0.9452435646569359 1.389955820408286 0  0.781424833222554 1.395918612006344 0  0.6492306454077988 1.425051519245368 0  0.462749442465836 1.518738952979988 0  0.2929787109914763 1.550634758735223 0  0.1318838644250343 1.578742121414483 0  -0.02424923170070209 1.574116465631658 0  -0.2259973906876019 1.546046690887894 0  -0.3886418466656694 1.53682552889703 0  -0.5389934282754268 1.490610644932909 0  -0.6990103519135673 1.412264218791214 0  -0.8678572758490275 1.379715150601975 0  -1.037942551132159 1.268118768467712 0  -1.185546438026409 1.156167097542024 0  -1.309755275123166 1.224454689490947 0  -1.216325114049419 0.7975395766489699 0  -1.545648420710459 1.062162031651541 0  -1.97438157863511 0.9195270895308094 0  -1.79960501276763 0.6490639657627408 0  -2.176161744524255 0.600857070744799 0  -2.224514742850652 0.3107098983733297 0  -2.345738247594653 0.06881358839052011 0  -1.815551868341298 -0.1058608735134883 0  -2.528582001769987 -0.5248553615049372 0  -1.992916764864535 -0.4145778314439686 0  -1.871194280275503 -0.6400794278309387 0  -1.902446811709494 -1.009763334443699 0  -1.516261812440658 -0.7929730481577274 0  -1.524544291241345 -0.9309348362890083 0  -1.361307365417716 -1.158211665995807 0  -1.140128888073431 -1.129726924632958 0  -1.009018720547635 -1.274035877881591 0  -0.8575383788343015 -1.41394443439868 0  -0.6891449902733252 -1.43808341772267 0  -0.5305631071603403 -1.474177447523794 0  -0.3745114084466164 -1.540345303351395 0  -0.2061724129725259 -1.551375747689416 0  -0.04322314454938411 -1.570259625583596 0  0.1431888158884863 -1.567538507485008 0  0.2882062870194826 -1.560787473628108 0  0.4617609344233237 -1.532525323164381 0  0.6252433412017178 -1.4727349316242 0  0.7423942130400933 -1.30117788287205 0  0.9234566897082946 -1.36926008963663 0  1.105810321805871 -1.271746579662663 0  1.296453985459231 -1.216724383081277 0  1.374102941816857 -0.9959601515042482 0  1.472437532998238 -0.8386986285753893 0  1.815577949300439 -0.9388543403199384 0  1.899506046643392 -0.7228514723941039 0  1.874762703467441 -0.4974026634817874 0  2.312293593911461 -0.4618984865856126 0  2.255543911294492 -0.1708909988013568 0  -2.449965893588235 4.92021616313065 0  -2.449934994630476 -4.912767421690435 0  4.910933717851323 2.448094292324592 0  4.918981766511888 -2.449424966544647 0  2.447880287541806 -4.898339033526312 0  2.442298757664516 4.90207850587795 0  -4.910998203352015 -2.44813496058769 0  -4.91103276147176 2.448129797233963 0  -1.750289978661347 4.914454069631041 0  -1.745988705707513 -4.917734919322378 0  4.920437922491399 1.743721675594586 0  4.908875156974383 -1.747599311102034 0  -4.909302710663052 -1.74732003726527 0  -4.910149486735014 1.747061527358126 0  1.747742405719244 4.908534501464069 0  1.749321797414418 -4.897057305511974 0  -1.150415080912364 4.913405648738089 0  -1.131131822031452 -4.920770267907715 0  -4.908095445701813 -1.14737173651662 0  -4.907914368866379 1.147167326534327 0  1.145303047723239 -4.917191265933775 0  1.15043380853528 4.913336503359934 0  4.908171057686832 1.14561444202627 0  4.91908315784741 -1.151325878915826 0  -0.5475187799533338 -4.915183418370048 0  -0.5472230697983641 4.923451110487277 0  -4.90589466861109 -0.5482654140948613 0  -4.90591806327233 0.5468161077823469 0  4.905006576661937 -0.5485949192511757 0  4.916994424741731 0.5452869548344205 0  0.5435065738310286 -4.902768177443988 0  0.5519908441234029 4.920454646824932 0  -4.912613471500198 -3.048715566954196 0  4.919133642676181 3.04665303274958 0  4.912085725007858 -3.048656359631057 0  -4.913482479328664 3.045785340587046 0  3.056278483513663 -4.918772515570291 0  -3.049691842823437 -4.912768809065824 0  3.053234150566216 4.914864062633741 0  -3.049157129120652 4.913701612219924 0  -4.904621823105896 -0.04985904351071754 0  0.0452182742568727 -4.917264795198473 0  0.04964280994256388 4.923930586030037 0  4.911732397138122 -0.05128056334088703 0  3.546241380168926 -4.919912054965041 0  -3.549615485440913 4.912958196128359 0  -3.549586792525832 -4.912976590348653 
[...]
<PointData  Scalars="f_23"> 
<DataArray  type="Float64"  Name="f_23"  format="ascii">0.0000000000000000e+00  0.0000000000000000e+00  0.0000000000000000e+00  0.0000000000000000e+00  2.2166786074349949e+02  0.0000000000000000e+00  0.0000000000000000e+00  0.0000000000000000e+00  0.0000000000000000e+00  0.0000000000000000e+00  0.0000000000000000e+00  0.0000000000000000e+00  0.0000000000000000e+00  0.0000000000000000e+00  0.0000000000000000e+00  0.0000000000000000e+00  0.0000000000000000e+00  0.0000000000000000e+00  0.0000000000000000e+00  0.0000000000000000e+00  0.0000000000000000e+00  0.0000000000000000e+00  0.0000000000000000e+00  0.0000000000000000e+00  0.0000000000000000e+00  0.0000000000000000e+00  0.0000000000000000e+00  0.0000000000000000e+00  0.0000000000000000e+00  0.0000000000000000e+00  0.0000000000000000e+00  0.0000000000000000e+00  0.0000000000000000e+00  0.0000000000000000e+00  0.0000000000000000e+00  0.0000000000000000e+00  0.0000000000000000e+00  0.0000000000000000e+00  0.0000000000000000e+00  0.0000000000000000e+00  0.0000000000000000e+00  0.0000000000000000e+00  0.0000000000000000e+00  0.0000000000000000e+00  0.0000000000000000e+00  0.0000000000000000e+00  0.0000000000000000e+00  0.0000000000000000e+00  0.0000000000000000e+00  0.0000000000000000e+00  0.0000000000000000e+00  0.0000000000000000e+00  0.0000000000000000e+00  0.0000000000000000e+00  0.0000000000000000e+00  0.0000000000000000e+00  0.0000000000000000e+00  0.0000000000000000e+00  0.0000000000000000e+00  0.0000000000000000e+00  0.0000000000000000e+00  0.0000000000000000e+00  0.0000000000000000e+00  0.0000000000000000e+00  0.0000000000000000e+00  0.0000000000000000e+00  0.0000000000000000e+00  0.0000000000000000e+00  0.0000000000000000e+00  0.0000000000000000e+00  0.0000000000000000e+00  0.0000000000000000e+00  0.0000000000000000e+00  0.0000000000000000e+00  0.0000000000000000e+00  0.0000000000000000e+00  0.0000000000000000e+00  0.0000000000000000e+00  0.0000000000000000e+00  0.0000000000000000e+00  0.0000000000000000e+00  0.0000000000000000e+00  0.0000000000000000e+00  0.0000000000000000e+00  0.0000000000000000e+00  0.0000000000000000e+00  0.0000000000000000e+00  0.0000000000000000e+00  0.0000000000000000e+00  0.0000000000000000e+00  0.0000000000000000e+00  0.0000000000000000e+00  0.0000000000000000e+00  0.0000000000000000e+00  0.0000000000000000e+00  0.0000000000000000e+00  0.0000000000000000e+00  0.0000000000000000e+00  0.0000000000000000e+00  0.0000000000000000e+00  0.0000000000000000e+00  0.0000000000000000e+00  0.0000000000000000e+00  0.0000000000000000e+00  0.0000000000000000e+00  0.0000000000000000e+00  0.0000000000000000e+00  0.0000000000000000e+00  0.0000000000000000e+00  0.0000000000000000e+00  0.0000000000000000e+00  0.0000000000000000e+00  0.0000000000000000e+00  0.0000000000000000e+00  0.0000000000000000e+00  0.0000000000000000e+00  0.0000000000000000e+00  0.0000000000000000e+00  0.0000000000000000e+00  0.0000000000000000e+00  0.0000000000000000e+00  0.0000000000000000e+00  0.0000000000000000e+00  0.0000000000000000e+00  0.0000000000000000e+00  0.0000000000000000e+00  0.0000000000000000e+00  0.0000000000000000e+00  0.0000000000000000e+00  0.0000000000000000e+00  0.0000000000000000e+00  0.0000000000000000e+00  0.0000000000000000e+00  0.0000000000000000e+00  0.0000000000000000e+00  0.0000000000000000e+00  0.0000000000000000e+00  0.0000000000000000e+00  0.0000000000000000e+00  0.0000000000000000e+00  0.0000000000000000e+00  0.0000000000000000e+00  0.0000000000000000e+00  0.0000000000000000e+00  0.0000000000000000e+00  0.0000000000000000e+00  0.0000000000000000e+00  0.0000000000000000e+00  0.0000000000000000e+00  0.0000000000000000e+00  0.0000000000000000e+00  0.0000000000000000e+00  0.0000000000000000e+00  0.0000000000000000e+00  0.0000000000000000e+00  0.0000000000000000e+00  0.0000000000000000e+00  0.0000000000000000e+00  0.0000000000000000e+00  0.0000000000000000e+00  0.0000000000000000e+00  0.0000000000000000e+00  0.0000000000000000e+00  0.0000000000000000e+00  0.0000000000000000e+00  0.0000000000000000e+00  0.0000000000000000e+00  0.0000000000000000e+00  0.0000000000000000e+00  0.0000000000000000e+00  0.0000000000000000e+00  0.0000000000000000e+00  0.0000000000000000e+00  0.0000000000000000e+00  0.0000000000000000e+00  0.0000000000000000e+00  0.0000000000000000e+00  0.0000000000000000e+00  0.0000000000000000e+00  0.0000000000000000e+00  0.0000000000000000e+00  0.0000000000000000e+00  0.0000000000000000e+00  0.0000000000000000e+00  0.0000000000000000e+00  0.0000000000000000e+00  0.0000000000000000e+00  0.0000000000000000e+00  0.0000000000000000e+00  0.0000000000000000e+00  0.0000000000000000e+00  0.0000000000000000e+00  0.0000000000000000e+00  0.0000000000000000e+00  0.0000000000000000e+00  0.0000000000000000e+00  0.0000000000000000e+00  0.0000000000000000e+00  0.0000000000000000e+00  0.0000000000000000e+00  0.0000000000000000e+00  0.0000000000000000e+00  0.0000000000000000e+00  0.0000000000000000e+00  0.0000000000000000e+00  0.0000000000000000e+00  0.0000000000000000e+00  0.0000000000000000e+00  0.0000000000000000e+00  0.0000000000000000e+00  0.0000000000000000e+00  0.0000000000000000e+00  0.0000000000000000e+00  0.0000000000000000e+00  0.0000000000000000e+00  0.0000000000000000e+00  0.0000000000000000e+00  0.0000000000000000e+00  0.0000000000000000e+00  0.0000000000000000e+00  0.0000000000000000e+00  0.0000000000000000e+00  0.0000000000000000e+00  0.0000000000000000e+00  0.0000000000000000e+00  0.0000000000000000e+00  0.0000000000000000e+00  0.0000000000000000e+00  0.0000000000000000e+00  0.0000000000000000e+00  0.0000000000000000e+00  0.0000000000000000e+00  0.0000000000000000e+00  0.0000000000000000e+00  0.0000000000000000e+00  0.0000000000000000e+00  0.0000000000000000e+00  0.0000000000000000e+00  0.0000000000000000e+00  0.0000000000000000e+00  0.0000000000000000e+00  0.0000000000000000e+00  0.0000000000000000e+00  0.0000000000000000e+00  0.0000000000000000e+00  0.0000000000000000e+00  0.0000000000000000e+00  0.0000000000000000e+00  0.0000000000000000e+00  0.0000000000000000e+00  0.0000000000000000e+00  0.0000000000000000e+00  0.0000000000000000e+00  0.0000000000000000e+00  0.0000000000000000e+00  0.0000000000000000e+00  0.0000000000000000e+00  0.0000000000000000e+00  0.0000000000000000e+00  0.0000000000000000e+00  0.0000000000000000e+00  0.0000000000000000e+00  0.0000000000000000e+00  0.0000000000000000e+00  0.0000000000000000e+00  0.0000000000000000e+00  0.0000000000000000e+00  0.0000000000000000e+00  0.0000000000000000e+00  0.0000000000000000e+00  0.0000000000000000e+00  0.0000000000000000e+00  0.0000000000000000e+00  0.0000000000000000e+00  0.0000000000000000e+00  0.0000000000000000e+00  0.0000000000000000e+00  0.0000000000000000e+00  0.0000000000000000e+00  0.0000000000000000e+00  0.0000000000000000e+00  0.0000000000000000e+00  0.0000000000000000e+00  0.0000000000000000e+00  0.0000000000000000e+00  0.0000000000000000e+00  0.0000000000000000e+00  0.0000000000000000e+00  0.0000000000000000e+00  0.0000000000000000e+00  0.0000000000000000e+00  0.0000000000000000e+00  0.0000000000000000e+00  0.0000000000000000e+00  0.0000000000000000e+00  0.0000000000000000e+00  0.0000000000000000e+00  0.0000000000000000e+00  0.0000000000000000e+00  0.0000000000000000e+00  0.0000000000000000e+00  0.0000000000000000e+00  0.0000000000000000e+00  0.0000000000000000e+00  0.0000000000000000e+00  0.0000000000000000e+00  0.0000000000000000e+00  0.0000000000000000e+00  0.0000000000000000e+00  0.0000000000000000e+00  0.0000000000000000e+00  0.0000000000000000e+00  0.0000000000000000e+00  0.0000000000000000e+00  0.0000000000000000e+00  0.0000000000000000e+00  0.0000000000000000e+00  0.0000000000000000e+00  0.0000000000000000e+00  0.0000000000000000e+00  0.0000000000000000e+00  0.0000000000000000e+00  0.0000000000000000e+00  0.0000000000000000e+00  0.0000000000000000e+00  0.0000000000000000e+00  0.0000000000000000e+00  0.0000000000000000e+00  0.0000000000000000e+00  0.0000000000000000e+00  0.0000000000000000e+00  0.0000000000000000e+00  0.0000000000000000e+00  0.0000000000000000e+00  0.0000000000000000e+00  0.0000000000000000e+00  0.0000000000000000e+00  0.0000000000000000e+00  0.0000000000000000e+00  0.0000000000000000e+00  0.0000000000000000e+00  0.0000000000000000e+00  0.0000000000000000e+00  0.0000000000000000e+00  0.0000000000000000e+00  0.0000000000000000e+00  0.0000000000000000e+00  0.0000000000000000e+00  0.0000000000000000e+00  0.0000000000000000e+00  0.0000000000000000e+00  0.0000000000000000e+00  0.0000000000000000e+00  0.0000000000000000e+00  0.0000000000000000e+00  0.0000000000000000e+00  0.0000000000000000e+00  0.0000000000000000e+00  0.0000000000000000e+00  0.0000000000000000e+00  0.0000000000000000e+00  0.0000000000000000e+00  0.0000000000000000e+00  0.0000000000000000e+00  0.0000000000000000e+00  0.0000000000000000e+00  0.0000000000000000e+00  0.0000000000000000e+00  0.0000000000000000e+00  0.0000000000000000e+00  0.0000000000000000e+00  0.0000000000000000e+00  0.0000000000000000e+00  0.0000000000000000e+00  0.0000000000000000e+00  0.0000000000000000e+00  0.0000000000000000e+00  0.0000000000000000e+00  0.0000000000000000e+00  0.0000000000000000e+00  0.0000000000000000e+00  0.0000000000000000e+00  0.0000000000000000e+00  0.0000000000000000e+00  0.0000000000000000e+00  0.0000000000000000e+00  0.0000000000000000e+00  0.0000000000000000e+00  0.0000000000000000e+00  0.0000000000000000e+00  0.0000000000000000e+00  0.0000000000000000e+00  0.0000000000000000e+00  0.0000000000000000e+00  0.0000000000000000e+00  0.0000000000000000e+00  0.0000000000000000e+00  0.0000000000000000e+00  0.0000000000000000e+00  0.0000000000000000e+00  0.0000000000000000e+00  2.1889518083364015e+02  2.2265160635540491e+02  2.1863841914517582e+02  2.2531084745746361e+02  2.2552042859791899e+02  2.2434811359868820e+02  2.2456145049379762e+02  2.1715258979993899e+02  2.0413008047426828e+02  2.0313388431672723e+02  2.0439234454916661e+02  2.0419276578748378e+02  2.0236174480961017e+02  2.0219801659328118e+02  2.0233894656886255e+02  2.0321332019298475e+02  2.0359119133711718e+02  2.0260119688177187e+02  2.0272945907052215e+02  2.0375923548842306e+02  2.0361467528211230e+02  2.0440087504976717e+02  2.0617460718691112e+02  1.9879347064048491e+02  2.2623226297766305e+02  2.2626961393096775e+02  2.3176908294361866e+02  2.2750549498321672e+02  2.2849123731525100e+02  2.2850994915953800e+02  2.2684694420369718e+02  2.2508045493363531e+02  2.1769086622314154e+02  2.2539319127053776e+02  2.2207999485133317e+02  2.1435717615320485e+02  2.2258236788926018e+02  2.1722666835057288e+02  2.1189687135253979e+02  2.1156782071467143e+02  2.0563281991290683e+02  2.0417993738067662e+02  2.0468550892193949e+02  2.0397964323744574e+02  2.0296873725842070e+02  2.0292964212080210e+02  2.0294098971264472e+02  2.0297976263139032e+02  2.0247680794433009e+02  2.0215523934595666e+02  2.0331483280119312e+02  2.0702658659753428e+02  2.0761854980033991e+02  2.0846453113573921e+02  2.0738863797501983e+02  2.1004226694726685e+02  2.1665239972006390e+02  2.1099058608394435e+02  2.1503238587072116e+02  2.1912350792682182e+02  2.1747251893787907e+02  2.1886030030735236e+02  2.2453153929266119e+00  2.4613112204322709e+00  2.5749973728240190e+00  2.3440139045619452e+00  2.8704679492564695e+00  2.7607854524666702e+00  2.5810982556949962e+00  2.5719656937125568e+00  2.9517952608599876e+00  2.8528100966423291e+00  2.8629581958394064e+00  3.2783616935972479e+00  3.2702294350566858e+00  3.2315887721014005e+00  3.1589627071366579e+00  3.5642709436643956e+00  3.3562187279306528e+00  3.0885582822028486e+00  3.7601044140963378e+00  3.7601277185250583e+00  3.2221364627194964e+00  3.3585466487721596e+00  3.7484872234161699e+00  3.3015780780219974e+00  3.5278073288553915e+00  3.1717198920556280e+00  4.1455200779441039e+00  4.1407191651429214e+00  4.1772152456562388e+00  3.6500740616227065e+00  4.0445417937383938e+00  3.2955983942526834e+00  1.9526750668246269e+00  1.8029644743544546e+00  1.9607801882920040e+00  1.9294704743314015e+00  1.7768971981135733e+00  1.9207344273451898e+00  1.8636790375521217e+00  1.8904639827892444e+00  4.2928502109090836e+00  3.5086431662607604e+00  3.2135994823063818e+00  3.9671793694969728e+00  1.3222837699521690e+00  1.4309458411175768e+00  1.4345819947824940e+00  1.3317013613319291e+00  1.4516994327737354e+00  1.4120834899110242e+00  1.4226274795006397e+00  1.3991460308840857e+00  1.0180381309984465e+00  1.1635050852853581e+00  1.0410827024099270e+00  1.0469030716152161e+00  9.6371615349722006e-01  1.0431113877847999e+00  1.0191978265767232e+00  1.0297729316420203e+00  7.5470335437361802e-01  5.9236060449569783e-01  5.4585756386037576e-01  6.4400518431540366e-01  6.3460795544902893e-01  6.3722768995571433e-01  6.2773527678629870e-01  6.6793889809087126e-01  4.2671526139734350e+00  3.6448097045571517e+00  3.3812865196475959e+00  3.7321301871141106e+00  3.6083903856943174e+00  3.5253722541495440e+00  3.9926924578899636e+00  4.0147189809777153e+00  3.5541429745268251e+00  2.8239944993950110e+00  4.0174058887859596e+00  3.4327032386226444e+00  3.1963600630691813e+00  3.3903106610701728e+00  4.0151541973905482e+00  3.5672761364811674e+00  3.5570402102824743e+00  3.1938422927479677e+00  3.8664318166325757e+00  3.2080910508027389e+00  3.2520224565263374e+00  2.9345967989487023e+00  2.9861572399486174e+00  2.9309648063145213e+00  2.3271644688254094e+00  2.7700171010939547e+00  2.7410216734668715e+00  2.9838808367206431e+00  2.2705561573400854e+00  2.3155895730231570e+00  2.2549900273899923e+00  2.2413269601992347e+00  2.4809252737852714e+00  2.2727715575059260e+00  2.1662580923523369e+00  1.9255704886001050e+00  3.4536085009956080e-01  3.4161479073919609e-01  3.3047466241226625e-01  3.6847599515803781e-01  3.4658617645841222e-01  3.6108959567603816e-01  3.4120937089287789e-01  2.8414833597441519e-01  4.2688847890920592e+00  3.9233161694630709e+00  4.2848702106697827e+00  3.7882438856323972e+00  2.6224069648138282e+00  2.7777599973981055e+00  2.7822552702256762e+00  2.9565429645953740e+00  2.7849642050795365e+00  2.6315390908838174e+00  2.8143060987783843e+00  2.7441618874494944e+00  1.7304021383700892e+00  1.9851682499070751e+00  1.9559509542618445e+00  1.7580510780631815e+00  1.6531875787643444e+00  1.7932815661748660e+00  1.6901825700564139e+00  1.7317902560812610e+00  1.2285375738676245e+00  8.3091595850906030e-01  1.2532527589766447e+00  9.1041665398626836e-01  1.1403658247196755e+00  8.5144689501000437e-01  1.2487807158740427e+00  8.4606802291576955e-01  1.2359082886534549e+00  1.0096230778271356e+00  1.2443186708525789e+00  8.4337961454100108e-01  1.2441876795445421e+00  8.3268236832690645e-01  1.2904336981868463e+00  8.6772080878052504e-01  1.6385153051720963e-01  1.4791846948274492e-01  1.4838995617126383e-01  1.6048374355246101e-01  4.2848628059799800e+00  8.5660310554780175e+00  8.5257374734700271e+00  1.2842024212732591e+01  1.2769136844571950e+01  1.7113412723740939e+01  1.7005621534111231e+01  2.1382004996681300e+01  2.1224433749018218e+01  2.5645991301403480e+01  2.5429133893643765e+01  2.9905798555498937e+01  2.9620454646154045e+01  3.4160758488688614e+01  3.3797445106880950e+01  3.8410580302829864e+01  3.7954405431146760e+01  4.2651277083506763e+01  4.2100830402207620e+01  4.6874593580427856e+01  4.6221290001747846e+01  4.7470042627473141e+01  5.1097094337211757e+01  5.0313325217081839e+01  5.5302074426441045e+01  5.4381484657700831e+01  5.9467543175811286e+01  5.8407005263348800e+01  6.3602302684596637e+01  6.2386113146091716e+01  6.7688031158497509e+01  6.6309567889904528e+01  6.8997239087563571e+01  7.1711145351405108e+01  7.0165040436009946e+01  7.5682450927949091e+01  7.3946681760324935e+01  7.9583348698075397e+01  7.7636087292260015e+01  8.3376962052591452e+01  8.1230020107701478e+01  8.7059510475421618e+01  8.4704967972719984e+01  8.9374662248899085e+01  9.0615546897798822e+01  8.8050675401705533e+01  9.4031134322499511e+01  9.1247530522823482e+01  8.5420752676213098e+01  8.8431983837419480e+01  9.4292800977085989e+01  9.1304073675580611e+01  8.5640064146100386e+01  8.8326263402100139e+01  8.2869751934938947e+01  8.5366470408636388e+01  9.0838062582355377e+01  8.7702600637805517e+01  8.2421422615910288e+01  8.4593800669374019e+01  7.9496113571508204e+01  8.1513663611667766e+01  8.6606482857468151e+01  8.3374698202396345e+01  7.8463649041053117e+01  8.0180257525920723e+01  8.5074055808472423e+01  8.1739342514473165e+01  7.7023043206271183e+01  7.8447881150775487e+01  8.3137051712789514e+01  7.9715858682823054e+01  8.4370488814856941e+01  7.3902839027810870e+01  8.0824232348838876e+01  8.5436589451939369e+01  8.1770924827922300e+01  8.6334328114356936e+01  8.2554666798688586e+01  8.7062512542947474e+01  8.3174888267516678e+01  8.7620563246862204e+01  7.8836754620129554e+01  8.3631345912574815e+01  8.8009388183710541e+01  8.3924773220778420e+01  8.8230072355664163e+01  8.4056744906399928e+01  8.8284555673383366e+01  8.4028973373248505e+01  8.8175496077779684e+01  8.3844318400513458e+01  8.7905852622235756e+01  8.3505677123011722e+01  8.7479531569222118e+01  7.9850068143982895e+01  9.1020134070060820e+01  2.0790231128301141e+02  8.3016403488743507e+01  8.6900782712142430e+01  8.2381559739388180e+01  8.6174277546919853e+01  2.0275897190198100e+02  8.1605326218785990e+01  8.5305196989784889e+01  1.9930266556038194e+02  8.0692715289784687e+01  8.4299025500506346e+01  8.9038683221258793e+01  8.7932463956871956e+01  8.3161398511748587e+01  8.6694904214282857e+01  9.2591846920142785e+01  7.7120204695315863e+01  8.1898761767541330e+01  8.5332975010831447e+01  9.0242808568552178e+01  8.8775025043319360e+01  8.3852094393016742e+01  8.7190048497092718e+01  9.2218714316605215e+01  9.0523963499023083e+01  8.5494272220384715e+01  8.8720639489599463e+01  9.3847305768127313e+01  9.1931146067782393e+01  8.6815586073332000e+01  8.9915022097105080e+01  9.5127924356323462e+01  9.2992506114658255e+01  8.7808048476783682e+01  9.0767452720623851e+01  9.6028906767637338e+01  9.3686818269088619e+01  8.8463962007813123e+01  9.1269834985117939e+01  9.6559084352903056e+01  9.4024767407952353e+01  9.9377722368831797e+01  9.6721529151701390e+01  9.1422082606480785e+01  9.4000490794843799e+01  9.9352663904507367e+01  9.6509627881641407e+01  9.1221810429058294e+01  9.3612823736274109e+01  9.8942204214313151e+01  9.5923579981698850e+01  1.0129022811037882e+02  9.8146245132987090e+01  1.0354601296597698e+02  1.0027320210586041e+02  9.4964641017534149e+01  9.6967909067377136e+01  1.0229677802434232e+02  9.8864741079337406e+01  1.0420885889171329e+02  1.0064733912051032e+02  1.0600131908077603e+02  1.0230772992284211e+02  1.0766591272876758e+02  1.0383794829680241e+02  9.8606739452297518e+01  1.0000980961905853e+02  1.0523045339310814e+02  1.0127613710156959e+02  1.0647512930921447e+02  1.0239392669964508e+02  1.0756770176580909e+02  1.0335756380420757e+02  1.0850913325692250e+02  1.0416041258875048e+02  1.0927439391638140e+02  1.0479919011226703e+02  1.0985618443676513e+02  1.0526191277897360e+02  1.1026184664226803e+02  1.0554667346616853e+02  1.1050766482240388e+02  1.0565259428389700e+02  1.1054183752473574e+02  1.0556863566362810e+02  1.1034532315436967e+02  1.0528513384300786e+02  1.0997089775565287e+02  1.0481066113947699e+02  1.0939919560712349e+02  1.0032642259396371e+02  9.9762710582574954e+01  9.5474655416112583e+01  9.4830149282925603e+01  9.0733382293309447e+01  9.0018695025869533e+01  8.6106263772318670e+01  8.5330137269653221e+01  8.1595563352344101e+01  8.0766770754514454e+01  8.4386141012375660e+01  7.7204069332353782e+01  9.8331123122576884e+01  7.9776388208309712e+01  8.3275203107162937e+01  7.8627522959811856e+01  8.1999471514669139e+01  7.7319831596859729e+01  8.0561096363928229e+01  7.5855551572808082e+01  7.8963193023732174e+01  7.4240631046452179e+01  7.1302316068651834e+01  7.7210232331510383e+01  6.9676055391103063e+01  6.6899571520621535e+01  6.5265889706638646e+01  6.2644154057055616e