<?xml version="1.0"?>
<VTKFile type="UnstructuredGrid"  version="0.1"  >
<UnstructuredGrid>
<Piece  NumberOfPoints="11902" NumberOfCells="23402">
<Points>
<DataArray  type="Float64"  NumberOfComponents="3"  format="ascii">-5 -5 0  5 -5 0  5 5 0  -5 5 0  1.093139592288615 0.0006203329760325213 0  -4.9 -5 0  -4.8 -5 0  -4.7 -5 0  -4.6 -5 0  -4.5 -5 0  -4.4 -5 0  -4.3 -5 0  -4.2 -5 0  -4.1 -5 0  -4 -5 0  -3.9 -5 0  -3.8 -5 0  -3.7 -5 0  -3.6 -5 0  -3.5 -5 0  -3.4 -5 0  -3.3 -5 0  -3.2 -5 0  -3.1 -5 0  -3 -5 0  -2.9 -5 0  -2.8 -5 0  -2.7 -5 0  -2.6 -5 0  -2.5 -5 0  -2.4 -5 0  -2.3 -5 0  -2.2 -5 0  -2.1 -5 0  -2 -5 0  -1.9 -5 0  -1.8 -5 0  -1.7 -5 0  -1.6 -5 0  -1.5 -5 0  -1.4 -5 0  -1.3 -5 0  -1.2 -5 0  -1.1 -5 0  -1 -5 0  -0.9000000000000004 -5 0  -0.7999999999999998 -5 0  -0.7000000000000002 -5 0  -0.5999999999999996 -5 0  -0.5 -5 0  -0.4000000000000004 -5 0  -0.2999999999999998 -5 0  -0.2000000000000002 -5 0  -0.09999999999999964 -5 0  0 -5 0  0.09999999999999964 -5 0  0.2000000000000002 -5 0  0.2999999999999998 -5 0  0.4000000000000004 -5 0  0.5 -5 0  0.5999999999999996 -5 0  0.7000000000000002 -5 0  0.7999999999999998 -5 0  0.9000000000000004 -5 0  1 -5 0  1.1 -5 0  1.2 -5 0  1.3 -5 0  1.4 -5 0  1.5 -5 0  1.6 -5 0  1.7 -5 0  1.8 -5 0  1.9 -5 0  2 -5 0  2.1 -5 0  2.2 -5 0  2.3 -5 0  2.4 -5 0  2.5 -5 0  2.6 -5 0  2.7 -5 0  2.8 -5 0  2.9 -5 0  3 -5 0  3.1 -5 0  3.199999999999999 -5 0  3.300000000000001 -5 0  3.4 -5 0  3.5 -5 0  3.6 -5 0  3.699999999999999 -5 0  3.800000000000001 -5 0  3.9 -5 0  4 -5 0  4.1 -5 0  4.199999999999999 -5 0  4.300000000000001 -5 0  4.4 -5 0  4.5 -5 0  4.6 -5 0  4.699999999999999 -5 0  4.800000000000001 -5 0  4.9 -5 0  5 -4.9 0  5 -4.8 0  5 -4.7 0  5 -4.6 0  5 -4.5 0  5 -4.4 0  5 -4.3 0  5 -4.2 0  5 -4.1 0  5 -4 0  5 -3.9 0  5 -3.8 0  5 -3.7 0  5 -3.6 0  5 -3.5 0  5 -3.4 0  5 -3.3 0  5 -3.2 0  5 -3.1 0  5 -3 0  5 -2.9 0  5 -2.8 0  5 -2.7 0  5 -2.6 0  5 -2.5 0  5 -2.4 0  5 -2.3 0  5 -2.2 0  5 -2.1 0  5 -2 0  5 -1.9 0  5 -1.8 0  5 -1.7 0  5 -1.6 0  5 -1.5 0  5 -1.4 0  5 -1.3 0  5 -1.2 0  5 -1.1 0  5 -1 0  5 -0.9000000000000004 0  5 -0.7999999999999998 0  5 -0.7000000000000002 0  5 -0.5999999999999996 0  5 -0.5 0  5 -0.4000000000000004 0  5 -0.2999999999999998 0  5 -0.2000000000000002 0  5 -0.09999999999999964 0  5 0 0  5 0.09999999999999964 0  5 0.2000000000000002 0  5 0.2999999999999998 0  5 0.4000000000000004 0  5 0.5 0  5 0.5999999999999996 0  5 0.7000000000000002 0  5 0.7999999999999998 0  5 0.9000000000000004 0  5 1 0  5 1.1 0  5 1.2 0  5 1.3 0  5 1.4 0  5 1.5 0  5 1.6 0  5 1.7 0  5 1.8 0  5 1.9 0  5 2 0  5 2.1 0  5 2.2 0  5 2.3 0  5 2.4 0  5 2.5 0  5 2.6 0  5 2.7 0  5 2.8 0  5 2.9 0  5 3 0  5 3.1 0  5 3.199999999999999 0  5 3.300000000000001 0  5 3.4 0  5 3.5 0  5 3.6 0  5 3.699999999999999 0  5 3.800000000000001 0  5 3.9 0  5 4 0  5 4.1 0  5 4.199999999999999 0  5 4.300000000000001 0  5 4.4 0  5 4.5 0  5 4.6 0  5 4.699999999999999 0  5 4.800000000000001 0  5 4.9 0  4.9 5 0  4.8 5 0  4.7 5 0  4.6 5 0  4.5 5 0  4.4 5 0  4.3 5 0  4.2 5 0  4.1 5 0  4 5 0  3.9 5 0  3.8 5 0  3.7 5 0  3.6 5 0  3.5 5 0  3.4 5 0  3.3 5 0  3.2 5 0  3.1 5 0  3 5 0  2.9 5 0  2.8 5 0  2.7 5 0  2.6 5 0  2.5 5 0  2.4 5 0  2.3 5 0  2.2 5 0  2.1 5 0  2 5 0  1.9 5 0  1.8 5 0  1.7 5 0  1.6 5 0  1.5 5 0  1.4 5 0  1.3 5 0  1.2 5 0  1.1 5 0  1 5 0  0.9000000000000004 5 0  0.7999999999999998 5 0  0.7000000000000002 5 0  0.5999999999999996 5 0  0.5 5 0  0.4000000000000004 5 0  0.2999999999999998 5 0  0.2000000000000002 5 0  0.09999999999999964 5 0  0 5 0  -0.09999999999999964 5 0  -0.2000000000000002 5 0  -0.2999999999999998 5 0  -0.4000000000000004 5 0  -0.5 5 0  -0.5999999999999996 5 0  -0.7000000000000002 5 0  -0.7999999999999998 5 0  -0.9000000000000004 5 0  -1 5 0  -1.1 5 0  -1.2 5 0  -1.3 5 0  -1.4 5 0  -1.5 5 0  -1.6 5 0  -1.7 5 0  -1.8 5 0  -1.9 5 0  -2 5 0  -2.1 5 0  -2.2 5 0  -2.3 5 0  -2.4 5 0  -2.5 5 0  -2.6 5 0  -2.7 5 0  -2.8 5 0  -2.9 5 0  -3 5 0  -3.1 5 0  -3.199999999999999 5 0  -3.300000000000001 5 0  -3.4 5 0  -3.5 5 0  -3.6 5 0  -3.699999999999999 5 0  -3.800000000000001 5 0  -3.9 5 0  -4 5 0  -4.1 5 0  -4.199999999999999 5 0  -4.300000000000001 5 0  -4.4 5 0  -4.5 5 0  -4.6 5 0  -4.699999999999999 5 0  -4.800000000000001 5 0  -4.9 5 0  -5 4.9 0  -5 4.8 0  -5 4.7 0  -5 4.6 0  -5 4.5 0  -5 4.4 0  -5 4.3 0  -5 4.2 0  -5 4.1 0  -5 4 0  -5 3.9 0  -5 3.8 0  -5 3.7 0  -5 3.6 0  -5 3.5 0  -5 3.4 0  -5 3.3 0  -5 3.2 0  -5 3.1 0  -5 3 0  -5 2.9 0  -5 2.8 0  -5 2.7 0  -5 2.6 0  -5 2.5 0  -5 2.4 0  -5 2.3 0  -5 2.2 0  -5 2.1 0  -5 2 0  -5 1.9 0  -5 1.8 0  -5 1.7 0  -5 1.6 0  -5 1.5 0  -5 1.4 0  -5 1.3 0  -5 1.2 0  -5 1.1 0  -5 1 0  -5 0.9000000000000004 0  -5 0.7999999999999998 0  -5 0.7000000000000002 0  -5 0.5999999999999996 0  -5 0.5 0  -5 0.4000000000000004 0  -5 0.2999999999999998 0  -5 0.2000000000000002 0  -5 0.09999999999999964 0  -5 0 0  -5 -0.09999999999999964 0  -5 -0.2000000000000002 0  -5 -0.2999999999999998 0  -5 -0.4000000000000004 0  -5 -0.5 0  -5 -0.5999999999999996 0  -5 -0.7000000000000002 0  -5 -0.7999999999999998 0  -5 -0.9000000000000004 0  -5 -1 0  -5 -1.1 0  -5 -1.2 0  -5 -1.3 0  -5 -1.4 0  -5 -1.5 0  -5 -1.6 0  -5 -1.7 0  -5 -1.8 0  -5 -1.9 0  -5 -2 0  -5 -2.1 0  -5 -2.2 0  -5 -2.3 0  -5 -2.4 0  -5 -2.5 0  -5 -2.6 0  -5 -2.7 0  -5 -2.8 0  -5 -2.9 0  -5 -3 0  -5 -3.1 0  -5 -3.199999999999999 0  -5 -3.300000000000001 0  -5 -3.4 0  -5 -3.5 0  -5 -3.6 0  -5 -3.699999999999999 0  -5 -3.800000000000001 0  -5 -3.9 0  -5 -4 0  -5 -4.1 0  -5 -4.199999999999999 0  -5 -4.300000000000001 0  -5 -4.4 0  -5 -4.5 0  -5 -4.6 0  -5 -4.699999999999999 0  -5 -4.800000000000001 0  -5 -4.9 0  1.087824812887748 0.1004056233402572 0  1.071395337623339 0.1997186386708339 0  1.043727548845172 0.2973753865933812 0  1.006810976381716 0.391030785558317 0  0.959607731188901 0.4819113196140744 0  0.9032611318931565 0.567634763306048 0  0.837421643853921 0.6474588188472442 0  0.7627114046256133 0.7206560342325357 0  0.6811247232652463 0.7870200233861553 0  0.5927659917667761 0.845835375021627 0  0.4981166500974179 0.8958441806868046 0  0.398456074130124 0.937096750217702 0  0.2958461870305109 0.9694192495707805 0  0.1895601361365683 0.9914892421308125 0  0.08211703364867216 1.00420581280227 0  -0.02649124838033926 1.006769463682491 0  -0.1348450318229199 0.9989067670566285 0  -0.2420023395102995 0.9818355366816192 0  -0.3467387671985624 0.9548933798585069 0  -0.4478700338552527 0.9181422707052963 0  -0.5443868999088509 0.8726966040653905 0  -0.635715114321949 0.8181998866230132 0  -0.7207377164448303 0.7557695736982356 0  -0.7986933025512538 0.6859673582725849 0  -0.868922775637271 0.6085858219166044 0  -0.930163577628617 0.5254481896755749 0  -0.982723976035962 0.437507785809317 0  -1.025032708931618 0.3447604291169539 0  -1.056961506645047 0.2489831068049068 0  -1.078650993704384 0.1507689857837612 0  -1.089662858509163 0.0507004906958041 0  -1.089686093297741 -0.04992989578917593 0  -1.078698371180802 -0.1498754824680845 0  -1.058002410469418 -0.2480585908296153 0  -1.025002613356904 -0.3443005653710134 0  -0.9829221825338513 -0.4365984659416552 0  -0.9305645971419689 -0.5247072650077352 0  -0.8694119197832795 -0.6076119136509656 0  -0.7991482307956337 -0.6844741627952701 0  -0.7208240380742107 -0.7540967110076228 0  -0.6353722844935277 -0.8160472139064175 0  -0.5446702261944596 -0.8708486330522465 0  -0.446965931475707 -0.9163628995173027 0  -0.3457577798136229 -0.9534834041791351 0  -0.240837909278179 -0.9806978419339892 0  -0.1339501461840732 -0.9981055076758644 0  -0.02588648465180593 -1.006416050492051 0  0.0823877777324325 -1.003495892670994 0  0.1904477551645782 -0.9905288298501528 0  0.296237232612975 -0.968397418942012 0  0.3998808048416312 -0.9361552379165423 0  0.4986351850331261 -0.8950209876393382 0  0.593116380954105 -0.8451128918147577 0  0.6813444905041903 -0.7872933336446303 0  0.7628899506542375 -0.7209097016730189 0  0.837153329169202 -0.6470849370174661 0  0.9027149909047312 -0.5670085562017154 0  0.9597913064987575 -0.4815181844825525 0  1.007693754595575 -0.3910897375299567 0  1.044504427178518 -0.2969608977617674 0  1.071457907388624 -0.1993256919877434 0  1.087861062039286 -0.100212409941224 0  -2.449329093119672 4.919532192436219 0  -2.449271380889121 -4.912038767807014 0  4.911999384380024 2.449005496565937 0  4.919979725937922 -2.450366324371962 0  2.447137797269898 -4.897540406868859 0  2.441539674222176 4.901243902030096 0  -4.912013351725559 -2.449019679596673 0  -4.91201457481932 2.449023367144561 0  -1.749308355703333 4.913043357530062 0  -1.745060489803369 -4.916402955283665 0  4.922591141767968 1.745074474759528 0  4.911402350798909 -1.748982620605096 0  -4.911671364975501 -1.748699700804407 0  -4.912477876653523 1.748432552750872 0  1.74663020102933 4.907051207727253 0  1.748144442596947 -4.895462795704383 0  -1.149457139481796 4.911253953901345 0  -1.130251237274978 -4.91896021250223 0  -4.911947783277024 -1.148827085952537 0  -4.911775298073436 1.148626149315133 0  1.144411496002698 -4.915248609955542 0  1.149459609011351 4.911247946432529 0  4.91211095106865 1.147109569675394 0  4.92260472659048 -1.152786985389507 0  -0.5469893825438104 -4.91265285862521 0  -0.546740975535621 4.921091284135858 0  -4.911129601044669 -0.5492083336064582 0  -4.911155369371589 0.5477604245861039 0  4.91050273631061 -0.5495363308542495 0  4.921753112932082 0.5462253223575153 0  0.5428021606443703 -4.899921059250505 0  0.5514748661441008 4.918009135409059 0  -4.912933024957714 -3.049187480172878 0  4.91943482613599 3.047146310702113 0  4.912452687760765 -3.049177811588466 0  -4.913775946485058 3.04627190314139 0  3.055972780922876 -4.918408836727897 0  -3.049353908957811 -4.912415000272465 0  3.052905982249959 4.914474574092005 0  -3.048795270077497 4.913296494682031 0  -4.910405863227938 -0.04995765146022466 0  0.04513951538938322 -4.914622889367857 0  0.04958962671615368 4.921446016531772 0  4.917235053997915 -0.05133657813658522 0  3.546152060693144 -4.919745339470856 0  -3.549479158009271 4.91270
[...]
<PointData  Scalars="f_30"> 
<DataArray  type="Float64"  Name="f_30"  format="ascii">0.0000000000000000e+00  0.0000000000000000e+00  0.0000000000000000e+00  0.0000000000000000e+00  7.0235089585799704e-01  0.0000000000000000e+00  0.0000000000000000e+00  0.0000000000000000e+00  0.0000000000000000e+00  0.0000000000000000e+00  0.0000000000000000e+00  0.0000000000000000e+00  0.0000000000000000e+00  0.0000000000000000e+00  0.0000000000000000e+00  0.0000000000000000e+00  0.0000000000000000e+00  0.0000000000000000e+00  0.0000000000000000e+00  0.0000000000000000e+00  0.0000000000000000e+00  0.0000000000000000e+00  0.0000000000000000e+00  0.0000000000000000e+00  0.0000000000000000e+00  0.0000000000000000e+00  0.0000000000000000e+00  0.0000000000000000e+00  0.0000000000000000e+00  0.0000000000000000e+00  0.0000000000000000e+00  0.0000000000000000e+00  0.0000000000000000e+00  0.0000000000000000e+00  0.0000000000000000e+00  0.0000000000000000e+00  0.0000000000000000e+00  0.0000000000000000e+00  0.0000000000000000e+00  0.0000000000000000e+00  0.0000000000000000e+00  0.0000000000000000e+00  0.0000000000000000e+00  0.0000000000000000e+00  0.0000000000000000e+00  0.0000000000000000e+00  0.0000000000000000e+00  0.0000000000000000e+00  0.0000000000000000e+00  0.0000000000000000e+00  0.0000000000000000e+00  0.0000000000000000e+00  0.0000000000000000e+00  0.0000000000000000e+00  0.0000000000000000e+00  0.0000000000000000e+00  0.0000000000000000e+00  0.0000000000000000e+00  0.0000000000000000e+00  0.0000000000000000e+00  0.0000000000000000e+00  0.0000000000000000e+00  0.0000000000000000e+00  0.0000000000000000e+00  0.0000000000000000e+00  0.0000000000000000e+00  0.0000000000000000e+00  0.0000000000000000e+00  0.0000000000000000e+00  0.0000000000000000e+00  0.0000000000000000e+00  0.0000000000000000e+00  0.0000000000000000e+00  0.0000000000000000e+00  0.0000000000000000e+00  0.0000000000000000e+00  0.0000000000000000e+00  0.0000000000000000e+00  0.0000000000000000e+00  0.0000000000000000e+00  0.0000000000000000e+00  0.0000000000000000e+00  0.0000000000000000e+00  0.0000000000000000e+00  0.0000000000000000e+00  0.0000000000000000e+00  0.0000000000000000e+00  0.0000000000000000e+00  0.0000000000000000e+00  0.0000000000000000e+00  0.0000000000000000e+00  0.0000000000000000e+00  0.0000000000000000e+00  0.0000000000000000e+00  0.0000000000000000e+00  0.0000000000000000e+00  0.0000000000000000e+00  0.0000000000000000e+00  0.0000000000000000e+00  0.0000000000000000e+00  0.0000000000000000e+00  0.0000000000000000e+00  0.0000000000000000e+00  0.0000000000000000e+00  0.0000000000000000e+00  0.0000000000000000e+00  0.0000000000000000e+00  0.0000000000000000e+00  0.0000000000000000e+00  0.0000000000000000e+00  0.0000000000000000e+00  0.0000000000000000e+00  0.0000000000000000e+00  0.0000000000000000e+00  0.0000000000000000e+00  0.0000000000000000e+00  0.0000000000000000e+00  0.0000000000000000e+00  0.0000000000000000e+00  0.0000000000000000e+00  0.0000000000000000e+00  0.0000000000000000e+00  0.0000000000000000e+00  0.0000000000000000e+00  0.0000000000000000e+00  0.0000000000000000e+00  0.0000000000000000e+00  0.0000000000000000e+00  0.0000000000000000e+00  0.0000000000000000e+00  0.0000000000000000e+00  0.0000000000000000e+00  0.0000000000000000e+00  0.0000000000000000e+00  0.0000000000000000e+00  0.0000000000000000e+00  0.0000000000000000e+00  0.0000000000000000e+00  0.0000000000000000e+00  0.0000000000000000e+00  0.0000000000000000e+00  0.0000000000000000e+00  0.0000000000000000e+00  0.0000000000000000e+00  0.0000000000000000e+00  0.0000000000000000e+00  0.0000000000000000e+00  0.0000000000000000e+00  0.0000000000000000e+00  0.0000000000000000e+00  0.0000000000000000e+00  0.0000000000000000e+00  0.0000000000000000e+00  0.0000000000000000e+00  0.0000000000000000e+00  0.0000000000000000e+00  0.0000000000000000e+00  0.0000000000000000e+00  0.0000000000000000e+00  0.0000000000000000e+00  0.0000000000000000e+00  0.0000000000000000e+00  0.0000000000000000e+00  0.0000000000000000e+00  0.0000000000000000e+00  0.0000000000000000e+00  0.0000000000000000e+00  0.0000000000000000e+00  0.0000000000000000e+00  0.0000000000000000e+00  0.0000000000000000e+00  0.0000000000000000e+00  0.0000000000000000e+00  0.0000000000000000e+00  0.0000000000000000e+00  0.0000000000000000e+00  0.0000000000000000e+00  0.0000000000000000e+00  0.0000000000000000e+00  0.0000000000000000e+00  0.0000000000000000e+00  0.0000000000000000e+00  0.0000000000000000e+00  0.0000000000000000e+00  0.0000000000000000e+00  0.0000000000000000e+00  0.0000000000000000e+00  0.0000000000000000e+00  0.0000000000000000e+00  0.0000000000000000e+00  0.0000000000000000e+00  0.0000000000000000e+00  0.0000000000000000e+00  0.0000000000000000e+00  0.0000000000000000e+00  0.0000000000000000e+00  0.0000000000000000e+00  0.0000000000000000e+00  0.0000000000000000e+00  0.0000000000000000e+00  0.0000000000000000e+00  0.0000000000000000e+00  0.0000000000000000e+00  0.0000000000000000e+00  0.0000000000000000e+00  0.0000000000000000e+00  0.0000000000000000e+00  0.0000000000000000e+00  0.0000000000000000e+00  0.0000000000000000e+00  0.0000000000000000e+00  0.0000000000000000e+00  0.0000000000000000e+00  0.0000000000000000e+00  0.0000000000000000e+00  0.0000000000000000e+00  0.0000000000000000e+00  0.0000000000000000e+00  0.0000000000000000e+00  0.0000000000000000e+00  0.0000000000000000e+00  0.0000000000000000e+00  0.0000000000000000e+00  0.0000000000000000e+00  0.0000000000000000e+00  0.0000000000000000e+00  0.0000000000000000e+00  0.0000000000000000e+00  0.0000000000000000e+00  0.0000000000000000e+00  0.0000000000000000e+00  0.0000000000000000e+00  0.0000000000000000e+00  0.0000000000000000e+00  0.0000000000000000e+00  0.0000000000000000e+00  0.0000000000000000e+00  0.0000000000000000e+00  0.0000000000000000e+00  0.0000000000000000e+00  0.0000000000000000e+00  0.0000000000000000e+00  0.0000000000000000e+00  0.0000000000000000e+00  0.0000000000000000e+00  0.0000000000000000e+00  0.0000000000000000e+00  0.0000000000000000e+00  0.0000000000000000e+00  0.0000000000000000e+00  0.0000000000000000e+00  0.0000000000000000e+00  0.0000000000000000e+00  0.0000000000000000e+00  0.0000000000000000e+00  0.0000000000000000e+00  0.0000000000000000e+00  0.0000000000000000e+00  0.0000000000000000e+00  0.0000000000000000e+00  0.0000000000000000e+00  0.0000000000000000e+00  0.0000000000000000e+00  0.0000000000000000e+00  0.0000000000000000e+00  0.0000000000000000e+00  0.0000000000000000e+00  0.0000000000000000e+00  0.0000000000000000e+00  0.0000000000000000e+00  0.0000000000000000e+00  0.0000000000000000e+00  0.0000000000000000e+00  0.0000000000000000e+00  0.0000000000000000e+00  0.0000000000000000e+00  0.0000000000000000e+00  0.0000000000000000e+00  0.0000000000000000e+00  0.0000000000000000e+00  0.0000000000000000e+00  0.0000000000000000e+00  0.0000000000000000e+00  0.0000000000000000e+00  0.0000000000000000e+00  0.0000000000000000e+00  0.0000000000000000e+00  0.0000000000000000e+00  0.0000000000000000e+00  0.0000000000000000e+00  0.0000000000000000e+00  0.0000000000000000e+00  0.0000000000000000e+00  0.0000000000000000e+00  0.0000000000000000e+00  0.0000000000000000e+00  0.0000000000000000e+00  0.0000000000000000e+00  0.0000000000000000e+00  0.0000000000000000e+00  0.0000000000000000e+00  0.0000000000000000e+00  0.0000000000000000e+00  0.0000000000000000e+00  0.0000000000000000e+00  0.0000000000000000e+00  0.0000000000000000e+00  0.0000000000000000e+00  0.0000000000000000e+00  0.0000000000000000e+00  0.0000000000000000e+00  0.0000000000000000e+00  0.0000000000000000e+00  0.0000000000000000e+00  0.0000000000000000e+00  0.0000000000000000e+00  0.0000000000000000e+00  0.0000000000000000e+00  0.0000000000000000e+00  0.0000000000000000e+00  0.0000000000000000e+00  0.0000000000000000e+00  0.0000000000000000e+00  0.0000000000000000e+00  0.0000000000000000e+00  0.0000000000000000e+00  0.0000000000000000e+00  0.0000000000000000e+00  0.0000000000000000e+00  0.0000000000000000e+00  0.0000000000000000e+00  0.0000000000000000e+00  0.0000000000000000e+00  0.0000000000000000e+00  0.0000000000000000e+00  0.0000000000000000e+00  0.0000000000000000e+00  0.0000000000000000e+00  0.0000000000000000e+00  0.0000000000000000e+00  0.0000000000000000e+00  0.0000000000000000e+00  0.0000000000000000e+00  0.0000000000000000e+00  0.0000000000000000e+00  0.0000000000000000e+00  0.0000000000000000e+00  0.0000000000000000e+00  0.0000000000000000e+00  0.0000000000000000e+00  0.0000000000000000e+00  0.0000000000000000e+00  0.0000000000000000e+00  0.0000000000000000e+00  0.0000000000000000e+00  0.0000000000000000e+00  0.0000000000000000e+00  0.0000000000000000e+00  0.0000000000000000e+00  0.0000000000000000e+00  0.0000000000000000e+00  0.0000000000000000e+00  0.0000000000000000e+00  0.0000000000000000e+00  0.0000000000000000e+00  0.0000000000000000e+00  0.0000000000000000e+00  0.0000000000000000e+00  0.0000000000000000e+00  0.0000000000000000e+00  0.0000000000000000e+00  0.0000000000000000e+00  0.0000000000000000e+00  0.0000000000000000e+00  0.0000000000000000e+00  0.0000000000000000e+00  0.0000000000000000e+00  0.0000000000000000e+00  0.0000000000000000e+00  0.0000000000000000e+00  0.0000000000000000e+00  0.0000000000000000e+00  0.0000000000000000e+00  0.0000000000000000e+00  0.0000000000000000e+00  0.0000000000000000e+00  0.0000000000000000e+00  0.0000000000000000e+00  0.0000000000000000e+00  0.0000000000000000e+00  0.0000000000000000e+00  0.0000000000000000e+00  0.0000000000000000e+00  0.0000000000000000e+00  0.0000000000000000e+00  0.0000000000000000e+00  0.0000000000000000e+00  0.0000000000000000e+00  0.0000000000000000e+00  0.0000000000000000e+00  0.0000000000000000e+00  7.2214136906231063e-01  6.9642300226037213e-01  5.5611479464384372e-01  5.6444180728560078e-01  6.5161501981706904e-01  7.9296072153480035e-01  7.6850261233994777e-01  6.1596923805843451e-01  6.7538609543263273e-01  8.0814848536262407e-01  7.5639744058988356e-01  7.1914334020892012e-01  8.4552420457259347e-01  6.7402256537114691e-01  6.8927095165966801e-01  6.7287115929651531e-01  5.9228652156212747e-01  7.0842588669073248e-01  7.4001397647925327e-01  6.6484322514270822e-01  7.0407672440936764e-01  6.8163705327330704e-01  7.0430986041989341e-01  7.6517269551970857e-01  7.0097181401343001e-01  6.2760827270463082e-01  7.1894958383195540e-01  6.7383258811040014e-01  5.9236861961462595e-01  6.3437726265734562e-01  6.7967560413341044e-01  6.8917336247041217e-01  6.5094485531216673e-01  8.5368479797421293e-01  6.6624067303153545e-01  7.2818339968575962e-01  6.7511720334491876e-01  7.6227890053599856e-01  7.5988666441363129e-01  6.7000347541977523e-01  5.3994846188182966e-01  7.9871421781975638e-01  6.5643309612444689e-01  7.5689212663489136e-01  7.3188763992310102e-01  6.8258446496417857e-01  9.1431938988312911e-01  8.1240030440567379e-01  7.0573691213307221e-01  7.4356662634470150e-01  6.8043744214526469e-01  6.2760342769430966e-01  6.8258713874780252e-01  7.7751029187758314e-01  7.1797221581430104e-01  6.9268411027481358e-01  6.2690401262552109e-01  6.9671961045218944e-01  8.4962815781392464e-01  7.3056948174692993e-01  7.1125896911561448e-01  7.4897737741414039e-01  3.6124630932198340e-27  -1.3179246130552624e-27  -2.6372992239497612e-27  -2.9362117364969695e-27  -1.2758449911477360e-27  -5.3231503649797458e-28  -2.0321711991214628e-28  1.8085997595507265e-27  7.1911427150508920e-27  4.1262772987091398e-27  -7.0167498533338023e-25  -6.6245832750820532e-25  5.4015512726144779e-25  1.1894522782795394e-24  3.7087407487144208e-26  3.0575092266359108e-26  -4.7807201117132658e-26  -3.0033017683496628e-26  -1.1242593050125369e-22  -1.6505399203510931e-22  -4.3272541684867374e-26  -4.9231892893675178e-26  4.7612445036192278e-23  4.7758648957829414e-23  -4.7320451365030427e-27  -3.9746415590253987e-26  -7.5369921068117357e-21  -7.1236227282863701e-21  -4.5758827229963119e-21  -4.8274270651646190e-21  8.3190916292146559e-26  -2.6521790990355637e-26  7.1703458436129063e-30  -8.8439319988094644e-30  -9.0742349622344025e-30  1.6282542457108376e-29  1.9759241625871828e-28  3.9844089578472655e-28  2.8927378549910835e-28  3.1817852985520991e-28  3.5536297177814444e-20  6.3534702408104035e-26  1.2229846743593603e-26  3.8447618365986719e-20  -9.0965325694090644e-30  -9.9263827928088813e-30  -6.2620631473519739e-30  2.3186077592474780e-31  2.4329241506099932e-31  2.3940971125606358e-31  1.4562219289324529e-31  -9.9633712445383766e-30  -6.1356153682867301e-33  -2.3068716234863317e-32  1.1371226913175342e-31  -4.0599762758766455e-33  2.5155003044813416e-32  -6.0625834374608986e-33  1.3756212778613995e-31  -9.9017130910253672e-34  -1.2942969463246305e-33  -4.6819388389178565e-34  -1.9574335976126032e-34  1.4856515984795484e-34  1.3409178614023153e-34  7.7341049872559899e-35  7.3735242936938638e-36  -1.6096905802472684e-33  2.7758147750268348e-20  4.6287197911738012e-26  -1.3624899775261159e-26  1.3821895565774561e-20  1.1674894102737103e-25  -3.4725253062701503e-24  1.3394908108192800e-21  8.8430430214561387e-22  -3.2579713178682727e-24  2.7350442678908070e-26  7.8784894047169991e-26  -5.2858931606800830e-26  -3.8568453097743351e-26  -1.1547888073259097e-23  3.9597117026311502e-22  4.1482003388979592e-22  -1.1338401320352055e-23  -2.5535822394824962e-27  8.8216900253173536e-26  -4.0414424571018795e-27  5.5610237730852671e-27  -6.5531768879786908e-27  8.9115027843690608e-26  1.1270771740273310e-25  -4.0123327047650650e-27  -2.4118818875509866e-27  3.0464774393287908e-26  2.8830719844619205e-26  -1.5704731471986318e-28  -7.7607505877327995e-28  -1.2225138007647306e-27  2.0590627842540459e-28  6.3877756480352311e-28  6.7275964507693312e-29  -1.5133892255984701e-28  -9.2259716451812825e-28  1.2567461954746105e-35  1.8952163789657252e-35  7.5316889236117655e-36  -1.6945966812791231e-36  6.4699475440955798e-36  1.5368915137415085e-36  1.0557451348950983e-35  5.2339703674308585e-37  2.7877468098780310e-20  1.2033569954638032e-25  1.1446024724422919e-25  1.3760365337598180e-20  -1.7864309978294295e-27  4.4955713341480593e-27  4.7957015857113204e-27  -7.1557470059806493e-27  -1.1865853808382675e-26  -7.0172037417596898e-29  -8.1948495600275303e-27  -2.0294426821634447e-26  3.5252795025789133e-30  -1.1191916252669650e-28  -7.3960336763765460e-29  2.8341012323376889e-30  3.4754385276198084e-30  -9.6395331566300857e-29  -1.2779598484290005e-28  1.1569373560226035e-30  -3.7500004211409350e-33  3.6441437640879604e-34  1.2053009781221877e-30  -1.2997725366158858e-32  2.7360794166428994e-31  -1.5412836557471069e-32  -3.6562416593348802e-32  1.2126589264036412e-33  8.1374562508811959e-31  -1.3325617061656679e-32  -1.3655507445417131e-33  2.9198332774073267e-34  -4.4317834366293103e-32  1.2637525123050660e-33  5.2319141097535480e-31  -1.7094960791618479e-32  -3.7014087748214520e-36  -1.7453806251465698e-36  -2.9595970463021023e-36  -3.4662494886575037e-36  3.4840953112186295e-20  -1.2995853857552981e-19  -8.5771481056063502e-20  4.2076949802437805e-19  2.0515161257394634e-19  -1.2097205634360868e-18  -3.1622072359732401e-19  2.8705392068483274e-18  -2.7975282140847107e-19  -4.3099798043053662e-18  4.7474874132527267e-18  -4.6496840604730787e-18  -2.3363935695183632e-17  6.8991207479937756e-17  8.0970993127109814e-17  -3.3342386836024414e-16  -2.1158945529511400e-16  1.1328875718620129e-15  3.8162533481977916e-16  -2.8846905683712036e-15  -2.0353336309818061e-16  -4.7525364822507026e-15  4.9165514003089593e-15  -1.6200972337335382e-15  -1.5863591587078604e-15  7.3808895843434224e-15  -2.5145868090562038e-14  -1.5924050393601877e-14  9.9126081234546972e-14  9.7169878575931078e-15  -1.8521728913792300e-13  5.6053611418419351e-14  -3.7650739688666347e-13  2.9176581870011410e-14  -1.9703581603219611e-13  8.8654771964231572e-13  1.5536372074834255e-13  -2.2293418039335690e-12  7.7802429530450118e-13  -1.2244369647381242e-13  -2.4767517583115218e-12  1.3240156797061852e-11  -1.0637218743508929e-13  -2.1326468463204954e-11  -2.3720653350112009e-11  1.5576248173346271e-11  -4.0435956311846325e-11  -2.6197014616568741e-11  -3.0475917701543675e-13  1.7310824316586939e-11  -4.9867794375444418e-11  -2.3475138215187450e-11  -1.2717074938420626e-12  1.8382150024063145e-11  -2.7278789307177164e-12  -3.2804593626909656e-12  -1.3737058400960290e-11  1.8262698518198265e-11  -1.8308176740330157e-12  -6.7099889385848861e-12  1.4874964946334677e-12  3.6898538315389097e-13  1.1085118271804830e-11  -8.5790478437750190e-12  9.5890431174021961e-13  3.5615955334517392e-12  -1.4405370078424979e-11  2.2790824176038718e-12  -9.7888600201985509e-13  2.8368191954805088e-13  -4.9727512188950324e-12  2.1933209197124979e-12  -8.9153963916934072e-12  1.4121255633345863e-13  1.4211349055565660e-12  2.1923137886075497e-12  -3.5655655038634702e-12  2.5691749462629233e-11  -9.9231840546953704e-12  4.6010894184140289e-11  -1.3699301152811602e-11  5.3263129659307902e-11  3.2758552962770554e-12  -1.4243385528617063e-11  5.2221954607923995e-11  -1.3903417158735708e-11  5.2098872835751523e-11  -1.4170351785741806e-11  5.2925115944251112e-11  -1.3636559071133707e-11  4.6052895539098598e-11  -1.0050684094620448e-11  2.6442993029033671e-11  -3.7218006106883142e-12  1.9330583106033820e-12  3.2815757729691515e-12  -1.3958261942478541e-10  2.3545421510043569e+00  1.9656888131121799e-12  -1.3155391566904995e-11  3.9195608948703715e-12  -1.2890813717730308e-11  2.3907279903942729e+00  2.4094234593101040e-12  -4.4109887425312114e-12  2.3546279548981053e+00  1.7736459292810475e-13  1.8650258214456827e-12  1.7163581845538996e-12  -1.0302423429624045e-11  2.3501464956885020e-12  -4.7670545540209090e-12  -1.9087493350360933e-10  -3.2986187021966744e-13  1.8434789364106897e-13  2.4645141621096579e-12  1.3491380822651067e-12  -1.3790155066471487e-11  3.1898462463771360e-12  -6.8563128896194685e-12  4.4371445140673131e-11  5.1244371369252988e-12  1.7258288796173231e-12  -1.0569852191700959e-11  2.9623517953658148e-11  2.7853152674273048e-11  -3.0702224532048043e-12  -2.6879247444073725e-12  -2.9987509193325132e-11  2.4130295824593351e-11  -4.4952319224735896e-12  2.5572489151636537e-12  -4.7095887813442986e-11  1.4853965583245325e-11  -3.5621541057098154e-12  2.0501935023827739e-12  -3.4323661183276571e-11  1.3008291372427007e-11  -1.6549047785821287e-11  -2.7050097061853016e-11  7.5664668983626271e-13  1.4716416580792583e-11  -2.5664808543295585e-11  -3.4304463118522734e-11  1.0575453336644087e-12  1.9252420036851959e-11  -3.8074033624374072e-11  -4.0373638530483359e-11  3.3818815486589091e-10  -1.0482727471407875e-10  3.4557369672653310e-11  2.7918120636383978e-10  -1.0166415555017368e-11  -1.5823755325033121e-10  7.0782134419185420e-10  -9.7359308682651443e-11  -3.1622272064685600e-10  3.3492503052295329e-10  -1.7627454234213636e-09  3.1751402087461011e-10  5.2667258525680953e-10  -9.3921215479072547e-10  5.5427976918545494e-11  4.6158230599202241e-10  -2.0802165276262441e-09  4.1334469780730078e-10  4.8905515907751712e-11  -7.7784440896710316e-10  6.2580066556826011e-09  -2.5231770580295541e-09  1.1102907553921115e-08  -2.6967703314347105e-09  6.0767952966768777e-09  3.0381327782634630e-10  -1.0068052528581932e-08  5.1677003254637914e-09  -2.7534075971508483e-08  8.9689155577667937e-09  -3.7317781523764931e-08  1.0594619357958209e-08  -4.0077924542906653e-08  1.0586088852643030e-08  -3.7174856975483470e-08  8.7248637460524153e-09  -2.6310964284316669e-08  5.0685755443764342e-09  -1.1416166849380401e-08  -1.8825378939017745e-09  -8.3021156562323873e-10  3.6490913553149380e-10  9.5298795716826646e-11  -6.0274829374404025e-11  2.9173287249199668e-12  6.9892832090932051e-12  -6.6547401616990097e-12  1.9365049028366109e-13  2.8335952870942195e-12  -1.2437670394545387e-11  -4.7751801720657633e-13  4.5648823021537722e-10  3.2651041949749964e-12  -1.0225748972164526e-11  1.8589515069420874e-12  -3.3190794633299482e-12  1.0211916195025728e-13  1.5019749636590912e-12  -5.0334252773270586e-13  1.3507412