<?xml version="1.0"?>
<VTKFile type="UnstructuredGrid"  version="0.1"  >
<UnstructuredGrid>
<Piece  NumberOfPoints="11902" NumberOfCells="23402">
<Points>
<DataArray  type="Float64"  NumberOfComponents="3"  format="ascii">-5 -5 0  5 -5 0  5 5 0  -5 5 0  1.243965896209419 0.001376714555304842 0  -4.9 -5 0  -4.8 -5 0  -4.7 -5 0  -4.6 -5 0  -4.5 -5 0  -4.4 -5 0  -4.3 -5 0  -4.2 -5 0  -4.1 -5 0  -4 -5 0  -3.9 -5 0  -3.8 -5 0  -3.7 -5 0  -3.6 -5 0  -3.5 -5 0  -3.4 -5 0  -3.3 -5 0  -3.2 -5 0  -3.1 -5 0  -3 -5 0  -2.9 -5 0  -2.8 -5 0  -2.7 -5 0  -2.6 -5 0  -2.5 -5 0  -2.4 -5 0  -2.3 -5 0  -2.2 -5 0  -2.1 -5 0  -2 -5 0  -1.9 -5 0  -1.8 -5 0  -1.7 -5 0  -1.6 -5 0  -1.5 -5 0  -1.4 -5 0  -1.3 -5 0  -1.2 -5 0  -1.1 -5 0  -1 -5 0  -0.9000000000000004 -5 0  -0.7999999999999998 -5 0  -0.7000000000000002 -5 0  -0.5999999999999996 -5 0  -0.5 -5 0  -0.4000000000000004 -5 0  -0.2999999999999998 -5 0  -0.2000000000000002 -5 0  -0.09999999999999964 -5 0  0 -5 0  0.09999999999999964 -5 0  0.2000000000000002 -5 0  0.2999999999999998 -5 0  0.4000000000000004 -5 0  0.5 -5 0  0.5999999999999996 -5 0  0.7000000000000002 -5 0  0.7999999999999998 -5 0  0.9000000000000004 -5 0  1 -5 0  1.1 -5 0  1.2 -5 0  1.3 -5 0  1.4 -5 0  1.5 -5 0  1.6 -5 0  1.7 -5 0  1.8 -5 0  1.9 -5 0  2 -5 0  2.1 -5 0  2.2 -5 0  2.3 -5 0  2.4 -5 0  2.5 -5 0  2.6 -5 0  2.7 -5 0  2.8 -5 0  2.9 -5 0  3 -5 0  3.1 -5 0  3.199999999999999 -5 0  3.300000000000001 -5 0  3.4 -5 0  3.5 -5 0  3.6 -5 0  3.699999999999999 -5 0  3.800000000000001 -5 0  3.9 -5 0  4 -5 0  4.1 -5 0  4.199999999999999 -5 0  4.300000000000001 -5 0  4.4 -5 0  4.5 -5 0  4.6 -5 0  4.699999999999999 -5 0  4.800000000000001 -5 0  4.9 -5 0  5 -4.9 0  5 -4.8 0  5 -4.7 0  5 -4.6 0  5 -4.5 0  5 -4.4 0  5 -4.3 0  5 -4.2 0  5 -4.1 0  5 -4 0  5 -3.9 0  5 -3.8 0  5 -3.7 0  5 -3.6 0  5 -3.5 0  5 -3.4 0  5 -3.3 0  5 -3.2 0  5 -3.1 0  5 -3 0  5 -2.9 0  5 -2.8 0  5 -2.7 0  5 -2.6 0  5 -2.5 0  5 -2.4 0  5 -2.3 0  5 -2.2 0  5 -2.1 0  5 -2 0  5 -1.9 0  5 -1.8 0  5 -1.7 0  5 -1.6 0  5 -1.5 0  5 -1.4 0  5 -1.3 0  5 -1.2 0  5 -1.1 0  5 -1 0  5 -0.9000000000000004 0  5 -0.7999999999999998 0  5 -0.7000000000000002 0  5 -0.5999999999999996 0  5 -0.5 0  5 -0.4000000000000004 0  5 -0.2999999999999998 0  5 -0.2000000000000002 0  5 -0.09999999999999964 0  5 0 0  5 0.09999999999999964 0  5 0.2000000000000002 0  5 0.2999999999999998 0  5 0.4000000000000004 0  5 0.5 0  5 0.5999999999999996 0  5 0.7000000000000002 0  5 0.7999999999999998 0  5 0.9000000000000004 0  5 1 0  5 1.1 0  5 1.2 0  5 1.3 0  5 1.4 0  5 1.5 0  5 1.6 0  5 1.7 0  5 1.8 0  5 1.9 0  5 2 0  5 2.1 0  5 2.2 0  5 2.3 0  5 2.4 0  5 2.5 0  5 2.6 0  5 2.7 0  5 2.8 0  5 2.9 0  5 3 0  5 3.1 0  5 3.199999999999999 0  5 3.300000000000001 0  5 3.4 0  5 3.5 0  5 3.6 0  5 3.699999999999999 0  5 3.800000000000001 0  5 3.9 0  5 4 0  5 4.1 0  5 4.199999999999999 0  5 4.300000000000001 0  5 4.4 0  5 4.5 0  5 4.6 0  5 4.699999999999999 0  5 4.800000000000001 0  5 4.9 0  4.9 5 0  4.8 5 0  4.7 5 0  4.6 5 0  4.5 5 0  4.4 5 0  4.3 5 0  4.2 5 0  4.1 5 0  4 5 0  3.9 5 0  3.8 5 0  3.7 5 0  3.6 5 0  3.5 5 0  3.4 5 0  3.3 5 0  3.2 5 0  3.1 5 0  3 5 0  2.9 5 0  2.8 5 0  2.7 5 0  2.6 5 0  2.5 5 0  2.4 5 0  2.3 5 0  2.2 5 0  2.1 5 0  2 5 0  1.9 5 0  1.8 5 0  1.7 5 0  1.6 5 0  1.5 5 0  1.4 5 0  1.3 5 0  1.2 5 0  1.1 5 0  1 5 0  0.9000000000000004 5 0  0.7999999999999998 5 0  0.7000000000000002 5 0  0.5999999999999996 5 0  0.5 5 0  0.4000000000000004 5 0  0.2999999999999998 5 0  0.2000000000000002 5 0  0.09999999999999964 5 0  0 5 0  -0.09999999999999964 5 0  -0.2000000000000002 5 0  -0.2999999999999998 5 0  -0.4000000000000004 5 0  -0.5 5 0  -0.5999999999999996 5 0  -0.7000000000000002 5 0  -0.7999999999999998 5 0  -0.9000000000000004 5 0  -1 5 0  -1.1 5 0  -1.2 5 0  -1.3 5 0  -1.4 5 0  -1.5 5 0  -1.6 5 0  -1.7 5 0  -1.8 5 0  -1.9 5 0  -2 5 0  -2.1 5 0  -2.2 5 0  -2.3 5 0  -2.4 5 0  -2.5 5 0  -2.6 5 0  -2.7 5 0  -2.8 5 0  -2.9 5 0  -3 5 0  -3.1 5 0  -3.199999999999999 5 0  -3.300000000000001 5 0  -3.4 5 0  -3.5 5 0  -3.6 5 0  -3.699999999999999 5 0  -3.800000000000001 5 0  -3.9 5 0  -4 5 0  -4.1 5 0  -4.199999999999999 5 0  -4.300000000000001 5 0  -4.4 5 0  -4.5 5 0  -4.6 5 0  -4.699999999999999 5 0  -4.800000000000001 5 0  -4.9 5 0  -5 4.9 0  -5 4.8 0  -5 4.7 0  -5 4.6 0  -5 4.5 0  -5 4.4 0  -5 4.3 0  -5 4.2 0  -5 4.1 0  -5 4 0  -5 3.9 0  -5 3.8 0  -5 3.7 0  -5 3.6 0  -5 3.5 0  -5 3.4 0  -5 3.3 0  -5 3.2 0  -5 3.1 0  -5 3 0  -5 2.9 0  -5 2.8 0  -5 2.7 0  -5 2.6 0  -5 2.5 0  -5 2.4 0  -5 2.3 0  -5 2.2 0  -5 2.1 0  -5 2 0  -5 1.9 0  -5 1.8 0  -5 1.7 0  -5 1.6 0  -5 1.5 0  -5 1.4 0  -5 1.3 0  -5 1.2 0  -5 1.1 0  -5 1 0  -5 0.9000000000000004 0  -5 0.7999999999999998 0  -5 0.7000000000000002 0  -5 0.5999999999999996 0  -5 0.5 0  -5 0.4000000000000004 0  -5 0.2999999999999998 0  -5 0.2000000000000002 0  -5 0.09999999999999964 0  -5 0 0  -5 -0.09999999999999964 0  -5 -0.2000000000000002 0  -5 -0.2999999999999998 0  -5 -0.4000000000000004 0  -5 -0.5 0  -5 -0.5999999999999996 0  -5 -0.7000000000000002 0  -5 -0.7999999999999998 0  -5 -0.9000000000000004 0  -5 -1 0  -5 -1.1 0  -5 -1.2 0  -5 -1.3 0  -5 -1.4 0  -5 -1.5 0  -5 -1.6 0  -5 -1.7 0  -5 -1.8 0  -5 -1.9 0  -5 -2 0  -5 -2.1 0  -5 -2.2 0  -5 -2.3 0  -5 -2.4 0  -5 -2.5 0  -5 -2.6 0  -5 -2.7 0  -5 -2.8 0  -5 -2.9 0  -5 -3 0  -5 -3.1 0  -5 -3.199999999999999 0  -5 -3.300000000000001 0  -5 -3.4 0  -5 -3.5 0  -5 -3.6 0  -5 -3.699999999999999 0  -5 -3.800000000000001 0  -5 -3.9 0  -5 -4 0  -5 -4.1 0  -5 -4.199999999999999 0  -5 -4.300000000000001 0  -5 -4.4 0  -5 -4.5 0  -5 -4.6 0  -5 -4.699999999999999 0  -5 -4.800000000000001 0  -5 -4.9 0  1.236750609829717 0.09657501183969336 0  1.216153947689815 0.1938363809997128 0  1.183094875501691 0.2904573876632668 0  1.140617349311652 0.3801368027073749 0  1.084284273067244 0.4706763123976305 0  1.01949408672108 0.5554179759982159 0  0.9426544133643714 0.6351686320480835 0  0.8571100658705507 0.7089793708632882 0  0.765629149660098 0.7743382801847016 0  0.6640321201259991 0.8320032782841608 0  0.5544802807360207 0.8841630548947593 0  0.442919409785521 0.927397887712921 0  0.3300403971150227 0.9601490302581511 0  0.2078811026596509 0.9818366454377854 0  0.08941881647076483 0.999671272619843 0  -0.02755111310951553 1.002724443847514 0  -0.1452518311888275 0.9900677014497775 0  -0.2695003398085958 0.971708762274123 0  -0.3875829631260795 0.9468240782104518 0  -0.4984233973430287 0.9104951854430066 0  -0.6065287143712307 0.8642026072776128 0  -0.7084873992439085 0.8097626264555597 0  -0.8027558531186704 0.7454346819899362 0  -0.8924058412811748 0.6730355520458043 0  -0.9759747406245323 0.5940041372057207 0  -1.0483977911026 0.5126755116578767 0  -1.10967288670395 0.4265987012617045 0  -1.160670912794941 0.3349980351033275 0  -1.198269091124748 0.243473243137746 0  -1.222763166773761 0.1487298244679388 0  -1.234703979890273 0.05086476861382165 0  -1.23465813022101 -0.04875898633611352 0  -1.222656220985575 -0.1460208986070794 0  -1.198139612099784 -0.2401500980438803 0  -1.1586418877007 -0.3351480203084636 0  -1.109897820411932 -0.4262419162312959 0  -1.049764881747535 -0.5122723160964692 0  -0.9781426051922447 -0.5929173815162885 0  -0.8951817288748779 -0.670689055496237 0  -0.8057686605584815 -0.7415944756613195 0  -0.7099167895325056 -0.8025589088014391 0  -0.6061874888197691 -0.856021056160604 0  -0.4945082945782618 -0.9048731589435838 0  -0.3820278936633512 -0.9439190540534323 0  -0.2661862251959713 -0.9710740781964423 0  -0.1439076535587313 -0.9895856563192751 0  -0.02795273247008087 -1.001861840737563 0  0.08955037644800813 -0.9953558792219539 0  0.212378424505411 -0.9789153313730641 0  0.3323426449538155 -0.9585607482139937 0  0.4469675098082733 -0.9260507116923322 0  0.5566885710471767 -0.8832661059305799 0  0.664902417690892 -0.8319865072301323 0  0.7656673416603641 -0.7755064153489732 0  0.857192719106571 -0.7099182026564488 0  0.9420370166318622 -0.635017948605505 0  1.01716711215314 -0.5546914056684208 0  1.084410838411932 -0.4697619289068317 0  1.141546050699181 -0.3802550249444187 0  1.184774968707848 -0.2885095702257122 0  1.216691204695506 -0.1929463783520627 0  1.236943057928464 -0.0962008034107442 0  -2.44860982702316 4.918202356979882 0  -2.448488380641175 -4.910588757064244 0  4.910515199741786 2.447960793426696 0  4.918632866626504 -2.449416313016468 0  2.446226689397956 -4.895836695617596 0  2.440658219044197 4.899595781572069 0  -4.910541554539859 -2.447986508319569 0  -4.910538988658012 2.447990387153117 0  -1.748565815650676 4.911129912620608 0  -1.744350363775761 -4.914566469230723 0  4.920716569110638 1.744129370400514 0  4.909262117748865 -1.747899112447123 0  -4.90955499183186 -1.747632455745061 0  -4.910376518239764 1.747376612210628 0  1.745841832974427 4.904994894007428 0  1.747261242075426 -4.893154481707504 0  -1.148866671600451 4.908938381913767 0  -1.129720623587181 -4.916843730603095 0  -4.90929894121559 -1.147949178196918 0  -4.909117618232592 1.147749531111249 0  1.143859758901359 -4.913032860295569 0  1.148876261444036 4.908925428553394 0  4.909439830082727 1.14622481597324 0  4.920258195180619 -1.152004241732563 0  -0.54668208339124 -4.910139518518367 0  -0.5464634114267162 4.918813495386212 0  -4.908052678605634 -0.5487203781358087 0  -4.908076699968674 0.5472778715274642 0  4.907374067825638 -0.5490390135372788 0  4.919016087233723 0.5457947056721061 0  0.5424657683334083 -4.897033612289128 0  0.5511923570690788 4.915640195331556 0  -4.911940015925522 -3.048333442047875 0  4.918507839267574 3.046347006413207 0  4.911448297977902 -3.048309760204201 0  -4.912787554548124 3.045424679421701 0  3.055330630218691 -4.917433604103102 0  -3.048663745531294 -4.911372719499985 0  3.052230294615383 4.913449653948493 0  -3.048109133281184 4.912262109456607 0  -4.907168693864397 -0.04990892718965094 0  0.04512066391058166 -4.912090633126381 0  0.04956840579491581 4.919109483479018 0  4.914215725150012 -0.05129092548853571 0  3.545642883091358 -4.919062303729512 0  -3.548925421440529 4.91196
[...]
<PointData  Scalars="f_30"> 
<DataArray  type="Float64"  Name="f_30"  format="ascii">0.0000000000000000e+00  0.0000000000000000e+00  0.0000000000000000e+00  0.0000000000000000e+00  9.5929439089360774e-02  0.0000000000000000e+00  0.0000000000000000e+00  0.0000000000000000e+00  0.0000000000000000e+00  0.0000000000000000e+00  0.0000000000000000e+00  0.0000000000000000e+00  0.0000000000000000e+00  0.0000000000000000e+00  0.0000000000000000e+00  0.0000000000000000e+00  0.0000000000000000e+00  0.0000000000000000e+00  0.0000000000000000e+00  0.0000000000000000e+00  0.0000000000000000e+00  0.0000000000000000e+00  0.0000000000000000e+00  0.0000000000000000e+00  0.0000000000000000e+00  0.0000000000000000e+00  0.0000000000000000e+00  0.0000000000000000e+00  0.0000000000000000e+00  0.0000000000000000e+00  0.0000000000000000e+00  0.0000000000000000e+00  0.0000000000000000e+00  0.0000000000000000e+00  0.0000000000000000e+00  0.0000000000000000e+00  0.0000000000000000e+00  0.0000000000000000e+00  0.0000000000000000e+00  0.0000000000000000e+00  0.0000000000000000e+00  0.0000000000000000e+00  0.0000000000000000e+00  0.0000000000000000e+00  0.0000000000000000e+00  0.0000000000000000e+00  0.0000000000000000e+00  0.0000000000000000e+00  0.0000000000000000e+00  0.0000000000000000e+00  0.0000000000000000e+00  0.0000000000000000e+00  0.0000000000000000e+00  0.0000000000000000e+00  0.0000000000000000e+00  0.0000000000000000e+00  0.0000000000000000e+00  0.0000000000000000e+00  0.0000000000000000e+00  0.0000000000000000e+00  0.0000000000000000e+00  0.0000000000000000e+00  0.0000000000000000e+00  0.0000000000000000e+00  0.0000000000000000e+00  0.0000000000000000e+00  0.0000000000000000e+00  0.0000000000000000e+00  0.0000000000000000e+00  0.0000000000000000e+00  0.0000000000000000e+00  0.0000000000000000e+00  0.0000000000000000e+00  0.0000000000000000e+00  0.0000000000000000e+00  0.0000000000000000e+00  0.0000000000000000e+00  0.0000000000000000e+00  0.0000000000000000e+00  0.0000000000000000e+00  0.0000000000000000e+00  0.0000000000000000e+00  0.0000000000000000e+00  0.0000000000000000e+00  0.0000000000000000e+00  0.0000000000000000e+00  0.0000000000000000e+00  0.0000000000000000e+00  0.0000000000000000e+00  0.0000000000000000e+00  0.0000000000000000e+00  0.0000000000000000e+00  0.0000000000000000e+00  0.0000000000000000e+00  0.0000000000000000e+00  0.0000000000000000e+00  0.0000000000000000e+00  0.0000000000000000e+00  0.0000000000000000e+00  0.0000000000000000e+00  0.0000000000000000e+00  0.0000000000000000e+00  0.0000000000000000e+00  0.0000000000000000e+00  0.0000000000000000e+00  0.0000000000000000e+00  0.0000000000000000e+00  0.0000000000000000e+00  0.0000000000000000e+00  0.0000000000000000e+00  0.0000000000000000e+00  0.0000000000000000e+00  0.0000000000000000e+00  0.0000000000000000e+00  0.0000000000000000e+00  0.0000000000000000e+00  0.0000000000000000e+00  0.0000000000000000e+00  0.0000000000000000e+00  0.0000000000000000e+00  0.0000000000000000e+00  0.0000000000000000e+00  0.0000000000000000e+00  0.0000000000000000e+00  0.0000000000000000e+00  0.0000000000000000e+00  0.0000000000000000e+00  0.0000000000000000e+00  0.0000000000000000e+00  0.0000000000000000e+00  0.0000000000000000e+00  0.0000000000000000e+00  0.0000000000000000e+00  0.0000000000000000e+00  0.0000000000000000e+00  0.0000000000000000e+00  0.0000000000000000e+00  0.0000000000000000e+00  0.0000000000000000e+00  0.0000000000000000e+00  0.0000000000000000e+00  0.0000000000000000e+00  0.0000000000000000e+00  0.0000000000000000e+00  0.0000000000000000e+00  0.0000000000000000e+00  0.0000000000000000e+00  0.0000000000000000e+00  0.0000000000000000e+00  0.0000000000000000e+00  0.0000000000000000e+00  0.0000000000000000e+00  0.0000000000000000e+00  0.0000000000000000e+00  0.0000000000000000e+00  0.0000000000000000e+00  0.0000000000000000e+00  0.0000000000000000e+00  0.0000000000000000e+00  0.0000000000000000e+00  0.0000000000000000e+00  0.0000000000000000e+00  0.0000000000000000e+00  0.0000000000000000e+00  0.0000000000000000e+00  0.0000000000000000e+00  0.0000000000000000e+00  0.0000000000000000e+00  0.0000000000000000e+00  0.0000000000000000e+00  0.0000000000000000e+00  0.0000000000000000e+00  0.0000000000000000e+00  0.0000000000000000e+00  0.0000000000000000e+00  0.0000000000000000e+00  0.0000000000000000e+00  0.0000000000000000e+00  0.0000000000000000e+00  0.0000000000000000e+00  0.0000000000000000e+00  0.0000000000000000e+00  0.0000000000000000e+00  0.0000000000000000e+00  0.0000000000000000e+00  0.0000000000000000e+00  0.0000000000000000e+00  0.0000000000000000e+00  0.0000000000000000e+00  0.0000000000000000e+00  0.0000000000000000e+00  0.0000000000000000e+00  0.0000000000000000e+00  0.0000000000000000e+00  0.0000000000000000e+00  0.0000000000000000e+00  0.0000000000000000e+00  0.0000000000000000e+00  0.0000000000000000e+00  0.0000000000000000e+00  0.0000000000000000e+00  0.0000000000000000e+00  0.0000000000000000e+00  0.0000000000000000e+00  0.0000000000000000e+00  0.0000000000000000e+00  0.0000000000000000e+00  0.0000000000000000e+00  0.0000000000000000e+00  0.0000000000000000e+00  0.0000000000000000e+00  0.0000000000000000e+00  0.0000000000000000e+00  0.0000000000000000e+00  0.0000000000000000e+00  0.0000000000000000e+00  0.0000000000000000e+00  0.0000000000000000e+00  0.0000000000000000e+00  0.0000000000000000e+00  0.0000000000000000e+00  0.0000000000000000e+00  0.0000000000000000e+00  0.0000000000000000e+00  0.0000000000000000e+00  0.0000000000000000e+00  0.0000000000000000e+00  0.0000000000000000e+00  0.0000000000000000e+00  0.0000000000000000e+00  0.0000000000000000e+00  0.0000000000000000e+00  0.0000000000000000e+00  0.0000000000000000e+00  0.0000000000000000e+00  0.0000000000000000e+00  0.0000000000000000e+00  0.0000000000000000e+00  0.0000000000000000e+00  0.0000000000000000e+00  0.0000000000000000e+00  0.0000000000000000e+00  0.0000000000000000e+00  0.0000000000000000e+00  0.0000000000000000e+00  0.0000000000000000e+00  0.0000000000000000e+00  0.0000000000000000e+00  0.0000000000000000e+00  0.0000000000000000e+00  0.0000000000000000e+00  0.0000000000000000e+00  0.0000000000000000e+00  0.0000000000000000e+00  0.0000000000000000e+00  0.0000000000000000e+00  0.0000000000000000e+00  0.0000000000000000e+00  0.0000000000000000e+00  0.0000000000000000e+00  0.0000000000000000e+00  0.0000000000000000e+00  0.0000000000000000e+00  0.0000000000000000e+00  0.0000000000000000e+00  0.0000000000000000e+00  0.0000000000000000e+00  0.0000000000000000e+00  0.0000000000000000e+00  0.0000000000000000e+00  0.0000000000000000e+00  0.0000000000000000e+00  0.0000000000000000e+00  0.0000000000000000e+00  0.0000000000000000e+00  0.0000000000000000e+00  0.0000000000000000e+00  0.0000000000000000e+00  0.0000000000000000e+00  0.0000000000000000e+00  0.0000000000000000e+00  0.0000000000000000e+00  0.0000000000000000e+00  0.0000000000000000e+00  0.0000000000000000e+00  0.0000000000000000e+00  0.0000000000000000e+00  0.0000000000000000e+00  0.0000000000000000e+00  0.0000000000000000e+00  0.0000000000000000e+00  0.0000000000000000e+00  0.0000000000000000e+00  0.0000000000000000e+00  0.0000000000000000e+00  0.0000000000000000e+00  0.0000000000000000e+00  0.0000000000000000e+00  0.0000000000000000e+00  0.0000000000000000e+00  0.0000000000000000e+00  0.0000000000000000e+00  0.0000000000000000e+00  0.0000000000000000e+00  0.0000000000000000e+00  0.0000000000000000e+00  0.0000000000000000e+00  0.0000000000000000e+00  0.0000000000000000e+00  0.0000000000000000e+00  0.0000000000000000e+00  0.0000000000000000e+00  0.0000000000000000e+00  0.0000000000000000e+00  0.0000000000000000e+00  0.0000000000000000e+00  0.0000000000000000e+00  0.0000000000000000e+00  0.0000000000000000e+00  0.0000000000000000e+00  0.0000000000000000e+00  0.0000000000000000e+00  0.0000000000000000e+00  0.0000000000000000e+00  0.0000000000000000e+00  0.0000000000000000e+00  0.0000000000000000e+00  0.0000000000000000e+00  0.0000000000000000e+00  0.0000000000000000e+00  0.0000000000000000e+00  0.0000000000000000e+00  0.0000000000000000e+00  0.0000000000000000e+00  0.0000000000000000e+00  0.0000000000000000e+00  0.0000000000000000e+00  0.0000000000000000e+00  0.0000000000000000e+00  0.0000000000000000e+00  0.0000000000000000e+00  0.0000000000000000e+00  0.0000000000000000e+00  0.0000000000000000e+00  0.0000000000000000e+00  0.0000000000000000e+00  0.0000000000000000e+00  0.0000000000000000e+00  0.0000000000000000e+00  0.0000000000000000e+00  0.0000000000000000e+00  0.0000000000000000e+00  0.0000000000000000e+00  0.0000000000000000e+00  0.0000000000000000e+00  0.0000000000000000e+00  0.0000000000000000e+00  0.0000000000000000e+00  0.0000000000000000e+00  0.0000000000000000e+00  0.0000000000000000e+00  0.0000000000000000e+00  0.0000000000000000e+00  0.0000000000000000e+00  0.0000000000000000e+00  0.0000000000000000e+00  0.0000000000000000e+00  0.0000000000000000e+00  0.0000000000000000e+00  0.0000000000000000e+00  0.0000000000000000e+00  0.0000000000000000e+00  0.0000000000000000e+00  0.0000000000000000e+00  0.0000000000000000e+00  0.0000000000000000e+00  0.0000000000000000e+00  0.0000000000000000e+00  0.0000000000000000e+00  0.0000000000000000e+00  0.0000000000000000e+00  0.0000000000000000e+00  0.0000000000000000e+00  0.0000000000000000e+00  0.0000000000000000e+00  0.0000000000000000e+00  0.0000000000000000e+00  0.0000000000000000e+00  0.0000000000000000e+00  0.0000000000000000e+00  0.0000000000000000e+00  0.0000000000000000e+00  0.0000000000000000e+00  0.0000000000000000e+00  0.0000000000000000e+00  0.0000000000000000e+00  0.0000000000000000e+00  0.0000000000000000e+00  0.0000000000000000e+00  0.0000000000000000e+00  0.0000000000000000e+00  9.8709926695031064e-02  8.8181006876794449e-02  7.2313068046305481e-02  6.7037092262874118e-02  8.1179211644087784e-02  1.0846781991094884e-01  1.0008138996333384e-01  8.0441913720361122e-02  8.9536915253352167e-02  1.0637868764099377e-01  9.5368476856372467e-02  1.0120385788604198e-01  1.0366473012123557e-01  8.6322363775455060e-02  8.2532815463770073e-02  8.6070291001530186e-02  7.5186611313953475e-02  8.1412932421941100e-02  9.8334988399786771e-02  8.9169431044618150e-02  8.8980026719129898e-02  8.6694145147091062e-02  9.4287260989089614e-02  9.8689504469402292e-02  9.0482080603220869e-02  8.3592203933958456e-02  9.2909363455568855e-02  8.7480478070032355e-02  7.4455058085399775e-02  8.1672865183454096e-02  8.5412285781568148e-02  9.0090582327613647e-02  9.0998470813175497e-02  1.2026185203970216e-01  8.7581859545365265e-02  1.0033152658833000e-01  9.1592026544971852e-02  1.0117818553915520e-01  9.7786140441842792e-02  9.0372731263163628e-02  7.2714212129474820e-02  1.0904918434617812e-01  8.4829099302537223e-02  1.0299530833350660e-01  8.9201736081864047e-02  9.0381224018931616e-02  1.2823774454075196e-01  1.0832356917765271e-01  8.9270693942690729e-02  9.0424056530849478e-02  8.9930964717765641e-02  7.8160676295930792e-02  8.7787134850376772e-02  1.0919421038123397e-01  9.3625825705062671e-02  8.8161145572994815e-02  8.1993583362354683e-02  8.6545332920394569e-02  1.1570119625312658e-01  1.0109750597438474e-01  9.6303127227163401e-02  9.9599807506225838e-02  3.6121168249938701e-27  -1.3176977934702538e-27  -2.6372987416113866e-27  -2.9362109524774127e-27  -1.2754160641086115e-27  -5.3179954434345503e-28  -2.0321713710564621e-28  1.8085996462246660e-27  7.1907259276573957e-27  4.1261310065368424e-27  -7.0167487107209810e-25  -6.6245818099240999e-25  5.4015520686621901e-25  1.1894523685938502e-24  3.7092096060563173e-26  3.0577649783280556e-26  -4.7815221899701352e-26  -3.0032413990462304e-26  -1.1242594219734076e-22  -1.6505400826268927e-22  -4.3275355820762597e-26  -4.9234761642822816e-26  4.7612436515961253e-23  4.7758639731922658e-23  -4.7381039970912124e-27  -3.9750973799321925e-26  -7.5369922766370589e-21  -7.1236227132570598e-21  -4.5758827948228294e-21  -4.8274274490229433e-21  8.3203312587347146e-26  -2.6524712249207854e-26  7.1703383713699772e-30  -8.8439269176583516e-30  -9.0742310864993691e-30  1.6282534830809970e-29  1.9759979947816594e-28  3.9844642221335020e-28  2.8927803947207076e-28  3.1818338893365641e-28  3.5536295452491921e-20  6.3551756465370501e-26  1.2229455476902978e-26  3.8447621119394961e-20  -9.0965160080116582e-30  -9.9263732439524314e-30  -6.2620412627561769e-30  2.3186070596099282e-31  2.4329242474703240e-31  2.3940963790684363e-31  1.4562222541498176e-31  -9.9633766125182172e-30  -6.1356141118213543e-33  -2.3068987730995608e-32  1.1371219498972980e-31  -4.0599786565825210e-33  2.5154716423160905e-32  -6.0625814335894959e-33  1.3756196220283187e-31  -9.9017457837785634e-34  -1.2942975512576856e-33  -4.6819472049842160e-34  -1.9574400366280657e-34  1.4856513877731620e-34  1.3409178697957632e-34  7.7341123607719959e-35  7.3736226457163127e-36  -1.6096914636275727e-33  2.7758150483260710e-20  4.6290263751215755e-26  -1.3626936127269623e-26  1.3821898003307263e-20  1.1675446491317606e-25  -3.4725228756117386e-24  1.3394908221529969e-21  8.8430431542788753e-22  -3.2579686798395585e-24  2.7352941544845563e-26  7.8783566185257360e-26  -5.2874074767290424e-26  -3.8570917087510295e-26  -1.1547888786168275e-23  3.9597121830575073e-22  4.1482012113713963e-22  -1.1338401794930557e-23  -2.5511545130817827e-27  8.8214036060973960e-26  -4.0403122628949288e-27  5.5575714627732705e-27  -6.5554116988230317e-27  8.9115002035285341e-26  1.1270769260053234e-25  -4.0130197691775896e-27  -2.4126812168772169e-27  3.0464788188952993e-26  2.8830733037505032e-26  -1.5704725182585623e-28  -7.7609997600822287e-28  -1.2224749469869992e-27  2.0590621003137361e-28  6.3879326558890938e-28  6.7275899239164154e-29  -1.5133886204192256e-28  -9.2253451814453334e-28  1.2567465670084270e-35  1.8952176625346211e-35  7.5316862502375715e-36  -1.6946029406552379e-36  6.4699463093683867e-36  1.5368872444610857e-36  1.0557457550237918e-35  5.2340145482856607e-37  2.7877468651889659e-20  1.2036096534176567e-25  1.1446603314590286e-25  1.3760367999179934e-20  -1.7863124893523464e-27  4.4955682204961153e-27  4.7956980777596580e-27  -7.1560954462040829e-27  -1.1865850326529880e-26  -6.9872903925435029e-29  -8.1943544613992176e-27  -2.0294423418274372e-26  3.5252785069089464e-30  -1.1192080554993543e-28  -7.3961074093901902e-29  2.8341013095596340e-30  3.4754376854890023e-30  -9.6395378534266251e-29  -1.2779704406879950e-28  1.1569376779941342e-30  -3.7499944207650620e-33  3.6441404910863685e-34  1.2052981190231796e-30  -1.2997730248333072e-32  2.7360661344273873e-31  -1.5412841037897127e-32  -3.6562400818045493e-32  1.2126587777011781e-33  8.1374421405478649e-31  -1.3325624307096247e-32  -1.3655501495657326e-33  2.9198302895699470e-34  -4.4317819214093281e-32  1.2637524610115905e-33  5.2319061936428177e-31  -1.7094968032542133e-32  -3.7014101428372343e-36  -1.7453800548585321e-36  -2.9595980345282305e-36  -3.4662516391346692e-36  3.4840952383633870e-20  -1.2995853851294741e-19  -8.5771484642577417e-20  4.2076950677333395e-19  2.0515162679808691e-19  -1.2097206151377553e-18  -3.1622076578479489e-19  2.8705394079713145e-18  -2.7975273421321383e-19  -4.3099803925463854e-18  4.7474873653601761e-18  -4.6496828800209746e-18  -2.3363936315509203e-17  6.8991206982242909e-17  8.0970997010689455e-17  -3.3342387763683245e-16  -2.1158947023075831e-16  1.1328876274790096e-15  3.8162537771389514e-16  -2.8846907781926138e-15  -2.0353345135430387e-16  -4.7525366204302569e-15  4.9165519941001261e-15  -1.6200971600342693e-15  -1.5863603457646653e-15  7.3808899547362987e-15  -2.5145867315670846e-14  -1.5924052617268363e-14  9.9126087094716150e-14  9.7169946113512684e-15  -1.8521732118274387e-13  5.6053600157089993e-14  -3.7650738957765579e-13  2.9176674341873031e-14  -1.9703582231364276e-13  8.8654758724569458e-13  1.5536382816601905e-13  -2.2293419836116192e-12  7.7802395504296639e-13  -1.2244205574814465e-13  -2.4767513697928709e-12  1.3240152408643734e-11  -1.0637106096860760e-13  -2.1326472341595509e-11  -2.3720650627545933e-11  1.5576242205787261e-11  -4.0435934440236124e-11  -2.6197005643281599e-11  -3.0475891308455743e-13  1.7310818011800109e-11  -4.9867779127545204e-11  -2.3475125626289532e-11  -1.2717078630217963e-12  1.8382143786917714e-11  -2.7278776237982937e-12  -3.2804598396206858e-12  -1.3737045387124003e-11  1.8262692369684002e-11  -1.8308164333737808e-12  -6.7099889644010807e-12  1.4874961442291309e-12  3.6898637058565837e-13  1.1085112466740682e-11  -8.5790471351893039e-12  9.5890393278019399e-13  3.5615960922858774e-12  -1.4405374649216468e-11  2.2790836337628627e-12  -9.7888633558532910e-13  2.8368202067674398e-13  -4.9727537319036437e-12  2.1933220863693263e-12  -8.9153998034277658e-12  1.4121262238012893e-13  1.4211341190634138e-12  2.1923250412291222e-12  -3.5655705274014423e-12  2.5691764566882604e-11  -9.9231813798167181e-12  4.6010839328346117e-11  -1.3699269071937163e-11  5.3262957709457547e-11  3.2758509768755938e-12  -1.4243337001469654e-11  5.2221843927366304e-11  -1.3903438007902333e-11  5.2099224919397833e-11  -1.4170535828362899e-11  5.2926089348450630e-11  -1.3636855480781927e-11  4.6053933700672793e-11  -1.0050875448239923e-11  2.6443249892640684e-11  -3.7217420353367836e-12  1.9324932736679192e-12  3.2816482057065155e-12  -1.3958259591278427e-10  2.5645885924044718e+00  1.9658572269794427e-12  -1.3155842562696215e-11  3.9195774507997426e-12  -1.2890437245567395e-11  2.6129665017423824e+00  2.4092355151280208e-12  -4.4101260895022630e-12  2.5278540484757541e+00  1.7715027670355382e-13  1.8656250165517333e-12  1.7133376989923017e-12  -1.0303653634409662e-11  2.3502470784001553e-12  -4.7668147527987340e-12  -1.9087914478705970e-10  -3.2980160874296392e-13  1.8421314866907584e-13  2.4650384378630197e-12  1.3472363687290601e-12  -1.3791631375430959e-11  3.1900846774536749e-12  -6.8566591029523472e-12  4.4374618330906283e-11  5.1244417246495995e-12  1.7259604145041280e-12  -1.0570325449755430e-11  2.9625482991713849e-11  2.7853744297884779e-11  -3.0701322022831663e-12  -2.6887479637198243e-12  -2.9985398213541771e-11  2.4132381365236610e-11  -4.4953354181724337e-12  2.5562168034191135e-12  -4.7095507018327009e-11  1.4857949164886632e-11  -3.5625895396446247e-12  2.0492292160976327e-12  -3.4326473043967124e-11  1.3013680771212537e-11  -1.6571433254941198e-11  -2.7054564555339202e-11  7.5565659284171215e-13  1.4722484108234122e-11  -2.5691015686843184e-11  -3.4307054222657241e-11  1.0561761728966359e-12  1.9257989289279625e-11  -3.8103632937459433e-11  -4.0371051526070014e-11  3.3822040642586653e-10  -1.0485238707217870e-10  3.4669842611060563e-11  2.7917455606144907e-10  -1.0159713146416724e-11  -1.5824760002856519e-10  7.0789129691838570e-10  -9.7373953299120435e-11  -3.1623774436453966e-10  3.3496568579428834e-10  -1.7630088221682528e-09  3.1758426871298627e-10  5.2657203162887839e-10  -9.3928648432904891e-10  5.5422801933072160e-11  4.6163698183370671e-10  -2.0805544326267566e-09  4.1346397888468383e-10  4.8384226730643370e-11  -7.7769410845990089e-10  6.2574253014966387e-09  -2.5230159618208008e-09  1.1102284386524351e-08  -2.6965945851608032e-09  6.0761064658414560e-09  3.0400634868128648e-10  -1.0068787721768571e-08  5.1678940830691652e-09  -2.7534744994114355e-08  8.9690654504270842e-09  -3.7318189019933221e-08  1.0594681201451685e-08  -4.0077987995693975e-08  1.0586073956725340e-08  -3.7174737655613354e-08  8.7248323134918335e-09  -2.6310885292229791e-08  5.0685667214681590e-09  -1.1416172301187067e-08  -1.8825320290347988e-09  -8.3021163951857916e-10  3.6490841106788033e-10  9.5299117040246199e-11  -6.0274812912253865e-11  2.9172400172907234e-12  6.9893032029867690e-12  -6.6547265431896006e-12  1.9364416015510079e-13  2.8335947100024523e-12  -1.2437676923956984e-11  -4.7751691827309333e-13  4.5644627951369967e-10  3.2651061630675729e-12  -1.0225753149725601e-11  1.8589516986636995e-12  -3.3190776374710587e-12  1.0211864015265336e-13  1.5019759037903252e-12  -5.0334254020479306e-13  1.3507407