<?xml version="1.0"?>
<VTKFile type="UnstructuredGrid"  version="0.1"  >
<UnstructuredGrid>
<Piece  NumberOfPoints="11902" NumberOfCells="23402">
<Points>
<DataArray  type="Float64"  NumberOfComponents="3"  format="ascii">-5 -5 0  5 -5 0  5 5 0  -5 5 0  1.256579332779437 0.001349686648796464 0  -4.9 -5 0  -4.8 -5 0  -4.7 -5 0  -4.6 -5 0  -4.5 -5 0  -4.4 -5 0  -4.3 -5 0  -4.2 -5 0  -4.1 -5 0  -4 -5 0  -3.9 -5 0  -3.8 -5 0  -3.7 -5 0  -3.6 -5 0  -3.5 -5 0  -3.4 -5 0  -3.3 -5 0  -3.2 -5 0  -3.1 -5 0  -3 -5 0  -2.9 -5 0  -2.8 -5 0  -2.7 -5 0  -2.6 -5 0  -2.5 -5 0  -2.4 -5 0  -2.3 -5 0  -2.2 -5 0  -2.1 -5 0  -2 -5 0  -1.9 -5 0  -1.8 -5 0  -1.7 -5 0  -1.6 -5 0  -1.5 -5 0  -1.4 -5 0  -1.3 -5 0  -1.2 -5 0  -1.1 -5 0  -1 -5 0  -0.9000000000000004 -5 0  -0.7999999999999998 -5 0  -0.7000000000000002 -5 0  -0.5999999999999996 -5 0  -0.5 -5 0  -0.4000000000000004 -5 0  -0.2999999999999998 -5 0  -0.2000000000000002 -5 0  -0.09999999999999964 -5 0  0 -5 0  0.09999999999999964 -5 0  0.2000000000000002 -5 0  0.2999999999999998 -5 0  0.4000000000000004 -5 0  0.5 -5 0  0.5999999999999996 -5 0  0.7000000000000002 -5 0  0.7999999999999998 -5 0  0.9000000000000004 -5 0  1 -5 0  1.1 -5 0  1.2 -5 0  1.3 -5 0  1.4 -5 0  1.5 -5 0  1.6 -5 0  1.7 -5 0  1.8 -5 0  1.9 -5 0  2 -5 0  2.1 -5 0  2.2 -5 0  2.3 -5 0  2.4 -5 0  2.5 -5 0  2.6 -5 0  2.7 -5 0  2.8 -5 0  2.9 -5 0  3 -5 0  3.1 -5 0  3.199999999999999 -5 0  3.300000000000001 -5 0  3.4 -5 0  3.5 -5 0  3.6 -5 0  3.699999999999999 -5 0  3.800000000000001 -5 0  3.9 -5 0  4 -5 0  4.1 -5 0  4.199999999999999 -5 0  4.300000000000001 -5 0  4.4 -5 0  4.5 -5 0  4.6 -5 0  4.699999999999999 -5 0  4.800000000000001 -5 0  4.9 -5 0  5 -4.9 0  5 -4.8 0  5 -4.7 0  5 -4.6 0  5 -4.5 0  5 -4.4 0  5 -4.3 0  5 -4.2 0  5 -4.1 0  5 -4 0  5 -3.9 0  5 -3.8 0  5 -3.7 0  5 -3.6 0  5 -3.5 0  5 -3.4 0  5 -3.3 0  5 -3.2 0  5 -3.1 0  5 -3 0  5 -2.9 0  5 -2.8 0  5 -2.7 0  5 -2.6 0  5 -2.5 0  5 -2.4 0  5 -2.3 0  5 -2.2 0  5 -2.1 0  5 -2 0  5 -1.9 0  5 -1.8 0  5 -1.7 0  5 -1.6 0  5 -1.5 0  5 -1.4 0  5 -1.3 0  5 -1.2 0  5 -1.1 0  5 -1 0  5 -0.9000000000000004 0  5 -0.7999999999999998 0  5 -0.7000000000000002 0  5 -0.5999999999999996 0  5 -0.5 0  5 -0.4000000000000004 0  5 -0.2999999999999998 0  5 -0.2000000000000002 0  5 -0.09999999999999964 0  5 0 0  5 0.09999999999999964 0  5 0.2000000000000002 0  5 0.2999999999999998 0  5 0.4000000000000004 0  5 0.5 0  5 0.5999999999999996 0  5 0.7000000000000002 0  5 0.7999999999999998 0  5 0.9000000000000004 0  5 1 0  5 1.1 0  5 1.2 0  5 1.3 0  5 1.4 0  5 1.5 0  5 1.6 0  5 1.7 0  5 1.8 0  5 1.9 0  5 2 0  5 2.1 0  5 2.2 0  5 2.3 0  5 2.4 0  5 2.5 0  5 2.6 0  5 2.7 0  5 2.8 0  5 2.9 0  5 3 0  5 3.1 0  5 3.199999999999999 0  5 3.300000000000001 0  5 3.4 0  5 3.5 0  5 3.6 0  5 3.699999999999999 0  5 3.800000000000001 0  5 3.9 0  5 4 0  5 4.1 0  5 4.199999999999999 0  5 4.300000000000001 0  5 4.4 0  5 4.5 0  5 4.6 0  5 4.699999999999999 0  5 4.800000000000001 0  5 4.9 0  4.9 5 0  4.8 5 0  4.7 5 0  4.6 5 0  4.5 5 0  4.4 5 0  4.3 5 0  4.2 5 0  4.1 5 0  4 5 0  3.9 5 0  3.8 5 0  3.7 5 0  3.6 5 0  3.5 5 0  3.4 5 0  3.3 5 0  3.2 5 0  3.1 5 0  3 5 0  2.9 5 0  2.8 5 0  2.7 5 0  2.6 5 0  2.5 5 0  2.4 5 0  2.3 5 0  2.2 5 0  2.1 5 0  2 5 0  1.9 5 0  1.8 5 0  1.7 5 0  1.6 5 0  1.5 5 0  1.4 5 0  1.3 5 0  1.2 5 0  1.1 5 0  1 5 0  0.9000000000000004 5 0  0.7999999999999998 5 0  0.7000000000000002 5 0  0.5999999999999996 5 0  0.5 5 0  0.4000000000000004 5 0  0.2999999999999998 5 0  0.2000000000000002 5 0  0.09999999999999964 5 0  0 5 0  -0.09999999999999964 5 0  -0.2000000000000002 5 0  -0.2999999999999998 5 0  -0.4000000000000004 5 0  -0.5 5 0  -0.5999999999999996 5 0  -0.7000000000000002 5 0  -0.7999999999999998 5 0  -0.9000000000000004 5 0  -1 5 0  -1.1 5 0  -1.2 5 0  -1.3 5 0  -1.4 5 0  -1.5 5 0  -1.6 5 0  -1.7 5 0  -1.8 5 0  -1.9 5 0  -2 5 0  -2.1 5 0  -2.2 5 0  -2.3 5 0  -2.4 5 0  -2.5 5 0  -2.6 5 0  -2.7 5 0  -2.8 5 0  -2.9 5 0  -3 5 0  -3.1 5 0  -3.199999999999999 5 0  -3.300000000000001 5 0  -3.4 5 0  -3.5 5 0  -3.6 5 0  -3.699999999999999 5 0  -3.800000000000001 5 0  -3.9 5 0  -4 5 0  -4.1 5 0  -4.199999999999999 5 0  -4.300000000000001 5 0  -4.4 5 0  -4.5 5 0  -4.6 5 0  -4.699999999999999 5 0  -4.800000000000001 5 0  -4.9 5 0  -5 4.9 0  -5 4.8 0  -5 4.7 0  -5 4.6 0  -5 4.5 0  -5 4.4 0  -5 4.3 0  -5 4.2 0  -5 4.1 0  -5 4 0  -5 3.9 0  -5 3.8 0  -5 3.7 0  -5 3.6 0  -5 3.5 0  -5 3.4 0  -5 3.3 0  -5 3.2 0  -5 3.1 0  -5 3 0  -5 2.9 0  -5 2.8 0  -5 2.7 0  -5 2.6 0  -5 2.5 0  -5 2.4 0  -5 2.3 0  -5 2.2 0  -5 2.1 0  -5 2 0  -5 1.9 0  -5 1.8 0  -5 1.7 0  -5 1.6 0  -5 1.5 0  -5 1.4 0  -5 1.3 0  -5 1.2 0  -5 1.1 0  -5 1 0  -5 0.9000000000000004 0  -5 0.7999999999999998 0  -5 0.7000000000000002 0  -5 0.5999999999999996 0  -5 0.5 0  -5 0.4000000000000004 0  -5 0.2999999999999998 0  -5 0.2000000000000002 0  -5 0.09999999999999964 0  -5 0 0  -5 -0.09999999999999964 0  -5 -0.2000000000000002 0  -5 -0.2999999999999998 0  -5 -0.4000000000000004 0  -5 -0.5 0  -5 -0.5999999999999996 0  -5 -0.7000000000000002 0  -5 -0.7999999999999998 0  -5 -0.9000000000000004 0  -5 -1 0  -5 -1.1 0  -5 -1.2 0  -5 -1.3 0  -5 -1.4 0  -5 -1.5 0  -5 -1.6 0  -5 -1.7 0  -5 -1.8 0  -5 -1.9 0  -5 -2 0  -5 -2.1 0  -5 -2.2 0  -5 -2.3 0  -5 -2.4 0  -5 -2.5 0  -5 -2.6 0  -5 -2.7 0  -5 -2.8 0  -5 -2.9 0  -5 -3 0  -5 -3.1 0  -5 -3.199999999999999 0  -5 -3.300000000000001 0  -5 -3.4 0  -5 -3.5 0  -5 -3.6 0  -5 -3.699999999999999 0  -5 -3.800000000000001 0  -5 -3.9 0  -5 -4 0  -5 -4.1 0  -5 -4.199999999999999 0  -5 -4.300000000000001 0  -5 -4.4 0  -5 -4.5 0  -5 -4.6 0  -5 -4.699999999999999 0  -5 -4.800000000000001 0  -5 -4.9 0  1.248595792802613 0.0951337222894187 0  1.227107964856496 0.1926246634815305 0  1.193730733723957 0.2891252793225094 0  1.150909585746839 0.3780108102077177 0  1.093235108983507 0.4687789999864024 0  1.027678675628163 0.5531796942902311 0  0.9495814251854253 0.6330779641920289 0  0.8630142889395133 0.7075640316625234 0  0.7712916649402779 0.7729805981684359 0  0.6689911527703305 0.8303559978243163 0  0.5575825007846491 0.8826461480655858 0  0.4452892755806503 0.9268508808529836 0  0.3327250408872612 0.9591695191826691 0  0.2086342625138724 0.980721612206559 0  0.08912081430386076 0.999531727538379 0  -0.02721296741698046 1.002786030772613 0  -0.1449543882721689 0.9891747982862655 0  -0.2715940115468847 0.9703657614646009 0  -0.3906656980283487 0.9460314898911493 0  -0.5014488886348053 0.9099126357549681 0  -0.6106106319405554 0.8634728819058743 0  -0.7127786535977487 0.8089088589707348 0  -0.8073937493676844 0.7440932394551163 0  -0.8981474610925195 0.6708240371724912 0  -0.9833486259691209 0.5912409352204105 0  -1.057303215024247 0.5101570284579534 0  -1.118998849664459 0.4246488512382563 0  -1.171795853594634 0.3325542426791702 0  -1.20977185477421 0.2428244875175162 0  -1.234267125650028 0.1485361957219103 0  -1.245532415869198 0.05139080242059244 0  -1.245482138006438 -0.04929741188216285 0  -1.234231174334905 -0.1457001791526324 0  -1.209457498801676 -0.238491419701334 0  -1.168406359173029 -0.3332958352086237 0  -1.119319301995377 -0.424907160907304 0  -1.058914743288604 -0.50995756141242 0  -0.9857351758362104 -0.5902133807268117 0  -0.9011603584164867 -0.6686495609455904 0  -0.8108541564716716 -0.7401954623513518 0  -0.7148992526273756 -0.8012101633714241 0  -0.6103025544604678 -0.8543223687403821 0  -0.4969349948455513 -0.9037428583658691 0  -0.3841043140887543 -0.9434227048426794 0  -0.268323838584018 -0.969999672154889 0  -0.1435207959756738 -0.9889251862654683 0  -0.02794012270714932 -1.0019844912072 0  0.08861316337512211 -0.9948319414017913 0  0.2138317410307639 -0.9774427286591083 0  0.3352040948684977 -0.9576023813113967 0  0.4494215116777313 -0.9255244369143842 0  0.5599374183424081 -0.8818261337363617 0  0.6699157634552568 -0.8304207345482323 0  0.7712596389428857 -0.7741069142369762 0  0.8631201866280568 -0.7085633958606006 0  0.9487699143134328 -0.6331490285267779 0  1.025074856387053 -0.5522311124427486 0  1.093869652120166 -0.4677138555518611 0  1.151772327385682 -0.3782885273156661 0  1.19548042498633 -0.2871135217653724 0  1.227761687091228 -0.1917528640779118 0  1.248918170669232 -0.09487043134289116 0  -2.448563504256104 4.918117857689361 0  -2.448437878074723 -4.910496533587937 0  4.910420947697915 2.447895233261477 0  4.918547309060286 -2.449356710131256 0  2.446167927157037 -4.8957284713344 0  2.44060140743999 4.899491106259029 0  -4.910447947635619 -2.447921584184177 0  -4.910445235267433 2.447925494413838 0  -1.748517675182745 4.911007588818731 0  -1.744304254958267 -4.914448947365218 0  4.920597466265721 1.744069996771271 0  4.909126096415977 -1.747831076384182 0  -4.909420323811901 -1.747565336469838 0  -4.910242911828719 1.747310197635001 0  1.745790651410921 4.904863488277062 0  1.747203852036788 -4.893006923240434 0  -1.148828202568678 4.908789657602408 0  -1.129686002787647 -4.916707647703404 0  -4.909130288440751 -1.147893926471417 0  -4.908948496796096 1.147694321567766 0  1.143823679620753 -4.912890519222844 0  1.148838163156458 4.90877630075582 0  4.909269993445744 1.146169168773613 0  4.920108974867834 -1.151955051711703 0  -0.5466619994124535 -4.909977431499431 0  -0.5464452874931471 4.918666727778278 0  -4.907856667815077 -0.548689666007701 0  -4.90788063214018 0.5472474301524465 0  4.907174991627037 -0.5490077535195907 0  4.918841947914141 0.5457675830796338 0  0.5424436390080428 -4.89684746830758 0  0.5511738063162427 4.915487577794673 0  -4.911876873547619 -3.048279802110661 0  4.918448985240169 3.046296878764669 0  4.911384502432481 -3.048255326826428 0  -4.912724777685534 3.045371494083154 0  3.055289457988584 -4.91737197418851 0  -3.04861947016566 -4.911306754511266 0  3.052186997596406 4.91338489051765 0  -3.048065179366377 4.912196701400681 0  -4.90696245174404 -0.04990589672363903 0  0.04511935641793358 -4.91192719062841 0  0.04956696110126593 4.918958785808542 0  4.914023572164314 -0.05128808290819392 0  3.545610366002323 -4.919019291663539 0  -3.548890083800462 4.911
[...]
<PointData  Scalars="f_30"> 
<DataArray  type="Float64"  Name="f_30"  format="ascii">0.0000000000000000e+00  0.0000000000000000e+00  0.0000000000000000e+00  0.0000000000000000e+00  5.3308559103439609e-02  0.0000000000000000e+00  0.0000000000000000e+00  0.0000000000000000e+00  0.0000000000000000e+00  0.0000000000000000e+00  0.0000000000000000e+00  0.0000000000000000e+00  0.0000000000000000e+00  0.0000000000000000e+00  0.0000000000000000e+00  0.0000000000000000e+00  0.0000000000000000e+00  0.0000000000000000e+00  0.0000000000000000e+00  0.0000000000000000e+00  0.0000000000000000e+00  0.0000000000000000e+00  0.0000000000000000e+00  0.0000000000000000e+00  0.0000000000000000e+00  0.0000000000000000e+00  0.0000000000000000e+00  0.0000000000000000e+00  0.0000000000000000e+00  0.0000000000000000e+00  0.0000000000000000e+00  0.0000000000000000e+00  0.0000000000000000e+00  0.0000000000000000e+00  0.0000000000000000e+00  0.0000000000000000e+00  0.0000000000000000e+00  0.0000000000000000e+00  0.0000000000000000e+00  0.0000000000000000e+00  0.0000000000000000e+00  0.0000000000000000e+00  0.0000000000000000e+00  0.0000000000000000e+00  0.0000000000000000e+00  0.0000000000000000e+00  0.0000000000000000e+00  0.0000000000000000e+00  0.0000000000000000e+00  0.0000000000000000e+00  0.0000000000000000e+00  0.0000000000000000e+00  0.0000000000000000e+00  0.0000000000000000e+00  0.0000000000000000e+00  0.0000000000000000e+00  0.0000000000000000e+00  0.0000000000000000e+00  0.0000000000000000e+00  0.0000000000000000e+00  0.0000000000000000e+00  0.0000000000000000e+00  0.0000000000000000e+00  0.0000000000000000e+00  0.0000000000000000e+00  0.0000000000000000e+00  0.0000000000000000e+00  0.0000000000000000e+00  0.0000000000000000e+00  0.0000000000000000e+00  0.0000000000000000e+00  0.0000000000000000e+00  0.0000000000000000e+00  0.0000000000000000e+00  0.0000000000000000e+00  0.0000000000000000e+00  0.0000000000000000e+00  0.0000000000000000e+00  0.0000000000000000e+00  0.0000000000000000e+00  0.0000000000000000e+00  0.0000000000000000e+00  0.0000000000000000e+00  0.0000000000000000e+00  0.0000000000000000e+00  0.0000000000000000e+00  0.0000000000000000e+00  0.0000000000000000e+00  0.0000000000000000e+00  0.0000000000000000e+00  0.0000000000000000e+00  0.0000000000000000e+00  0.0000000000000000e+00  0.0000000000000000e+00  0.0000000000000000e+00  0.0000000000000000e+00  0.0000000000000000e+00  0.0000000000000000e+00  0.0000000000000000e+00  0.0000000000000000e+00  0.0000000000000000e+00  0.0000000000000000e+00  0.0000000000000000e+00  0.0000000000000000e+00  0.0000000000000000e+00  0.0000000000000000e+00  0.0000000000000000e+00  0.0000000000000000e+00  0.0000000000000000e+00  0.0000000000000000e+00  0.0000000000000000e+00  0.0000000000000000e+00  0.0000000000000000e+00  0.0000000000000000e+00  0.0000000000000000e+00  0.0000000000000000e+00  0.0000000000000000e+00  0.0000000000000000e+00  0.0000000000000000e+00  0.0000000000000000e+00  0.0000000000000000e+00  0.0000000000000000e+00  0.0000000000000000e+00  0.0000000000000000e+00  0.0000000000000000e+00  0.0000000000000000e+00  0.0000000000000000e+00  0.0000000000000000e+00  0.0000000000000000e+00  0.0000000000000000e+00  0.0000000000000000e+00  0.0000000000000000e+00  0.0000000000000000e+00  0.0000000000000000e+00  0.0000000000000000e+00  0.0000000000000000e+00  0.0000000000000000e+00  0.0000000000000000e+00  0.0000000000000000e+00  0.0000000000000000e+00  0.0000000000000000e+00  0.0000000000000000e+00  0.0000000000000000e+00  0.0000000000000000e+00  0.0000000000000000e+00  0.0000000000000000e+00  0.0000000000000000e+00  0.0000000000000000e+00  0.0000000000000000e+00  0.0000000000000000e+00  0.0000000000000000e+00  0.0000000000000000e+00  0.0000000000000000e+00  0.0000000000000000e+00  0.0000000000000000e+00  0.0000000000000000e+00  0.0000000000000000e+00  0.0000000000000000e+00  0.0000000000000000e+00  0.0000000000000000e+00  0.0000000000000000e+00  0.0000000000000000e+00  0.0000000000000000e+00  0.0000000000000000e+00  0.0000000000000000e+00  0.0000000000000000e+00  0.0000000000000000e+00  0.0000000000000000e+00  0.0000000000000000e+00  0.0000000000000000e+00  0.0000000000000000e+00  0.0000000000000000e+00  0.0000000000000000e+00  0.0000000000000000e+00  0.0000000000000000e+00  0.0000000000000000e+00  0.0000000000000000e+00  0.0000000000000000e+00  0.0000000000000000e+00  0.0000000000000000e+00  0.0000000000000000e+00  0.0000000000000000e+00  0.0000000000000000e+00  0.0000000000000000e+00  0.0000000000000000e+00  0.0000000000000000e+00  0.0000000000000000e+00  0.0000000000000000e+00  0.0000000000000000e+00  0.0000000000000000e+00  0.0000000000000000e+00  0.0000000000000000e+00  0.0000000000000000e+00  0.0000000000000000e+00  0.0000000000000000e+00  0.0000000000000000e+00  0.0000000000000000e+00  0.0000000000000000e+00  0.0000000000000000e+00  0.0000000000000000e+00  0.0000000000000000e+00  0.0000000000000000e+00  0.0000000000000000e+00  0.0000000000000000e+00  0.0000000000000000e+00  0.0000000000000000e+00  0.0000000000000000e+00  0.0000000000000000e+00  0.0000000000000000e+00  0.0000000000000000e+00  0.0000000000000000e+00  0.0000000000000000e+00  0.0000000000000000e+00  0.0000000000000000e+00  0.0000000000000000e+00  0.0000000000000000e+00  0.0000000000000000e+00  0.0000000000000000e+00  0.0000000000000000e+00  0.0000000000000000e+00  0.0000000000000000e+00  0.0000000000000000e+00  0.0000000000000000e+00  0.0000000000000000e+00  0.0000000000000000e+00  0.0000000000000000e+00  0.0000000000000000e+00  0.0000000000000000e+00  0.0000000000000000e+00  0.0000000000000000e+00  0.0000000000000000e+00  0.0000000000000000e+00  0.0000000000000000e+00  0.0000000000000000e+00  0.0000000000000000e+00  0.0000000000000000e+00  0.0000000000000000e+00  0.0000000000000000e+00  0.0000000000000000e+00  0.0000000000000000e+00  0.0000000000000000e+00  0.0000000000000000e+00  0.0000000000000000e+00  0.0000000000000000e+00  0.0000000000000000e+00  0.0000000000000000e+00  0.0000000000000000e+00  0.0000000000000000e+00  0.0000000000000000e+00  0.0000000000000000e+00  0.0000000000000000e+00  0.0000000000000000e+00  0.0000000000000000e+00  0.0000000000000000e+00  0.0000000000000000e+00  0.0000000000000000e+00  0.0000000000000000e+00  0.0000000000000000e+00  0.0000000000000000e+00  0.0000000000000000e+00  0.0000000000000000e+00  0.0000000000000000e+00  0.0000000000000000e+00  0.0000000000000000e+00  0.0000000000000000e+00  0.0000000000000000e+00  0.0000000000000000e+00  0.0000000000000000e+00  0.0000000000000000e+00  0.0000000000000000e+00  0.0000000000000000e+00  0.0000000000000000e+00  0.0000000000000000e+00  0.0000000000000000e+00  0.0000000000000000e+00  0.0000000000000000e+00  0.0000000000000000e+00  0.0000000000000000e+00  0.0000000000000000e+00  0.0000000000000000e+00  0.0000000000000000e+00  0.0000000000000000e+00  0.0000000000000000e+00  0.0000000000000000e+00  0.0000000000000000e+00  0.0000000000000000e+00  0.0000000000000000e+00  0.0000000000000000e+00  0.0000000000000000e+00  0.0000000000000000e+00  0.0000000000000000e+00  0.0000000000000000e+00  0.0000000000000000e+00  0.0000000000000000e+00  0.0000000000000000e+00  0.0000000000000000e+00  0.0000000000000000e+00  0.0000000000000000e+00  0.0000000000000000e+00  0.0000000000000000e+00  0.0000000000000000e+00  0.0000000000000000e+00  0.0000000000000000e+00  0.0000000000000000e+00  0.0000000000000000e+00  0.0000000000000000e+00  0.0000000000000000e+00  0.0000000000000000e+00  0.0000000000000000e+00  0.0000000000000000e+00  0.0000000000000000e+00  0.0000000000000000e+00  0.0000000000000000e+00  0.0000000000000000e+00  0.0000000000000000e+00  0.0000000000000000e+00  0.0000000000000000e+00  0.0000000000000000e+00  0.0000000000000000e+00  0.0000000000000000e+00  0.0000000000000000e+00  0.0000000000000000e+00  0.0000000000000000e+00  0.0000000000000000e+00  0.0000000000000000e+00  0.0000000000000000e+00  0.0000000000000000e+00  0.0000000000000000e+00  0.0000000000000000e+00  0.0000000000000000e+00  0.0000000000000000e+00  0.0000000000000000e+00  0.0000000000000000e+00  0.0000000000000000e+00  0.0000000000000000e+00  0.0000000000000000e+00  0.0000000000000000e+00  0.0000000000000000e+00  0.0000000000000000e+00  0.0000000000000000e+00  0.0000000000000000e+00  0.0000000000000000e+00  0.0000000000000000e+00  0.0000000000000000e+00  0.0000000000000000e+00  0.0000000000000000e+00  0.0000000000000000e+00  0.0000000000000000e+00  0.0000000000000000e+00  0.0000000000000000e+00  0.0000000000000000e+00  0.0000000000000000e+00  0.0000000000000000e+00  0.0000000000000000e+00  0.0000000000000000e+00  0.0000000000000000e+00  0.0000000000000000e+00  0.0000000000000000e+00  0.0000000000000000e+00  0.0000000000000000e+00  0.0000000000000000e+00  0.0000000000000000e+00  0.0000000000000000e+00  0.0000000000000000e+00  0.0000000000000000e+00  0.0000000000000000e+00  0.0000000000000000e+00  0.0000000000000000e+00  0.0000000000000000e+00  0.0000000000000000e+00  0.0000000000000000e+00  0.0000000000000000e+00  0.0000000000000000e+00  0.0000000000000000e+00  0.0000000000000000e+00  0.0000000000000000e+00  0.0000000000000000e+00  0.0000000000000000e+00  0.0000000000000000e+00  0.0000000000000000e+00  0.0000000000000000e+00  0.0000000000000000e+00  0.0000000000000000e+00  0.0000000000000000e+00  0.0000000000000000e+00  0.0000000000000000e+00  0.0000000000000000e+00  0.0000000000000000e+00  0.0000000000000000e+00  0.0000000000000000e+00  0.0000000000000000e+00  0.0000000000000000e+00  0.0000000000000000e+00  0.0000000000000000e+00  0.0000000000000000e+00  0.0000000000000000e+00  0.0000000000000000e+00  0.0000000000000000e+00  0.0000000000000000e+00  0.0000000000000000e+00  0.0000000000000000e+00  5.2550450513416995e-02  4.2872555883428524e-02  3.7723896756305504e-02  3.2859127693030947e-02  3.8451404976889307e-02  5.6048138385800174e-02  4.7665993846486003e-02  4.1752064788684720e-02  4.6852073139612621e-02  5.0956644951360604e-02  4.5477379799481105e-02  5.3493846132181465e-02  6.1481539003285082e-02  3.9407691423172998e-02  4.9742686453767386e-02  5.4492003995704447e-02  3.6477666116579516e-02  3.5824538916492940e-02  5.6966125664903819e-02  4.6340157089362857e-02  4.5955657218793168e-02  4.8419418852424824e-02  4.8398609474876529e-02  4.7391031397432497e-02  4.3725016565104295e-02  4.4399513201361970e-02  4.4497719250200733e-02  4.0971995675227600e-02  4.2118432288143985e-02  4.1605856415883595e-02  4.0217755683758918e-02  4.4138108363007716e-02  4.9611887605864956e-02  5.7010969901483230e-02  4.5265992663674086e-02  5.2456459190387515e-02  4.8316165009130864e-02  4.8895460731811898e-02  4.6812763158441476e-02  4.8780726247574409e-02  4.1066156390997990e-02  5.3568871835593571e-02  4.2708519011807375e-02  6.1543629021447589e-02  4.2251402836581721e-02  4.3291965765163143e-02  9.3723538543201479e-02  5.0007600970246875e-02  4.2041150944372239e-02  5.4534353415106138e-02  4.9846540593540233e-02  3.8609991168273017e-02  4.3947398832471729e-02  6.4687094601742171e-02  4.7377881806953799e-02  4.2043685182525534e-02  4.2925186270307066e-02  4.1346411784421729e-02  6.0619288131391433e-02  5.2525587653069097e-02  4.8164177884785900e-02  4.9837675093912133e-02  3.6120702797483882e-27  -1.3176648593872638e-27  -2.6372986664739803e-27  -2.9362108324095498e-27  -1.2753697875626315e-27  -5.3172196514253228e-28  -2.0321713970623890e-28  1.8085996369435914e-27  7.1906306737380705e-27  4.1261211125292022e-27  -7.0167485244676930e-25  -6.6245815666794019e-25  5.4015521870832910e-25  1.1894523838154808e-24  3.7092757671176057e-26  3.0577960277710884e-26  -4.7816380337488985e-26  -3.0032440360996322e-26  -1.1242594398709476e-22  -1.6505401079131109e-22  -4.3275680482859901e-26  -4.9235044056715591e-26  4.7612435196134475e-23  4.7758638163282946e-23  -4.7389334331041823e-27  -3.9751645251195256e-26  -7.5369922737510408e-21  -7.1236226988066554e-21  -4.5758828070965049e-21  -4.8274275022583628e-21  8.3204967731642876e-26  -2.6525146792233003e-26  7.1703371953013140e-30  -8.8439261565168290e-30  -9.0742304887019410e-30  1.6282533715291678e-29  1.9760083665906012e-28  3.9844706263600837e-28  2.8927855130324233e-28  3.1818396734107707e-28  3.5536295230821278e-20  6.3554183777670946e-26  1.2229081119569896e-26  3.8447621522795703e-20  -9.0965136579750267e-30  -9.9263721068135828e-30  -6.2620381561203430e-30  2.3186069578032095e-31  2.4329242528049351e-31  2.3940962663859555e-31  1.4562222914714793e-31  -9.9633772635072269e-30  -6.1356139090858777e-33  -2.3069024380972090e-32  1.1371218681680727e-31  -4.0599790102379044e-33  2.5154677748181382e-32  -6.0625811447000173e-33  1.3756194083912546e-31  -9.9017504560138798e-34  -1.2942976498204931e-33  -4.6819483629470609e-34  -1.9574409701940144e-34  1.4856513562598758e-34  1.3409178663570884e-34  7.7341134667803413e-35  7.3736370768913110e-36  -1.6096915889824319e-33  2.7758150894052576e-20  4.6290774944170499e-26  -1.3627507233637586e-26  1.3821898370037153e-20  1.1675467357320833e-25  -3.4725224549009645e-24  1.3394908226103396e-21  8.8430431529870747e-22  -3.2579682456596222e-24  2.7353237544285236e-26  7.8782819861325866e-26  -5.2876061593834071e-26  -3.8571206506235390e-26  -1.1547888924028911e-23  3.9597122686182250e-22  4.1482013523969732e-22  -1.1338401903807665e-23  -2.5507469584299736e-27  8.8213925694034737e-26  -4.0401937560791455e-27  5.5570999912352641e-27  -6.5557837687652054e-27  8.9114997636384395e-26  1.1270768871241137e-25  -4.0131014893411748e-27  -2.4127772543919621e-27  3.0464790586233947e-26  2.8830735383960969e-26  -1.5704724211521992e-28  -7.7610440292181473e-28  -1.2224685207981383e-27  2.0590620025629107e-28  6.3879508181196316e-28  6.7275888942927034e-29  -1.5133885272087570e-28  -9.2252642481057265e-28  1.2567466200914885e-35  1.8952178656483216e-35  7.5316858589456719e-36  -1.6946037392505749e-36  6.4699460874036767e-36  1.5368865490788615e-36  1.0557458411165237e-35  5.2340209875001510e-37  2.7877468724231072e-20  1.2036444827175398e-25  1.1446633591340474e-25  1.3760368415974170e-20  -1.7862975580349550e-27  4.4955677070407482e-27  4.7956975032765595e-27  -7.1561462349940430e-27  -1.1865849738841254e-26  -6.9841448012053893e-29  -8.1942866690513147e-27  -2.0294422913900161e-26  3.5252783561172842e-30  -1.1192102874212576e-28  -7.3961178019537833e-29  2.8341013102277808e-30  3.4754375614661386e-30  -9.6395380986255277e-29  -1.2779717709452067e-28  1.1569377128333917e-30  -3.7499935154060359e-33  3.6441399855131964e-34  1.2052976892761027e-30  -1.2997730841519486e-32  2.7360645881454901e-31  -1.5412841821741244e-32  -3.6562398231997828e-32  1.2126587506244029e-33  8.1374400353686988e-31  -1.3325625281306536e-32  -1.3655500588012793e-33  2.9198298636783043e-34  -4.4317816807815734e-32  1.2637524466182554e-33  5.2319051990077932e-31  -1.7094969048765197e-32  -3.7014103398574996e-36  -1.7453799652242454e-36  -2.9595981624048550e-36  -3.4662519364256545e-36  3.4840952276041998e-20  -1.2995853846521576e-19  -8.5771485165424220e-20  4.2076950791298032e-19  2.0515162906332767e-19  -1.2097206226640062e-18  -3.1622077334701963e-19  2.8705394400551699e-18  -2.7975271462006045e-19  -4.3099804986320779e-18  4.7474873320917686e-18  -4.6496826094071021e-18  -2.3363936324438809e-17  6.8991206536456699e-17  8.0970997376091835e-17  -3.3342387785040175e-16  -2.1158947205748791e-16  1.1328876328539431e-15  3.8162538375236184e-16  -2.8846908042106628e-15  -2.0353346540190483e-16  -4.7525366247351466e-15  4.9165520787729034e-15  -1.6200971443874475e-15  -1.5863605365917218e-15  7.3808900013796135e-15  -2.5145867137459611e-14  -1.5924052956490395e-14  9.9126087880397744e-14  9.7169957102798452e-15  -1.8521732617092304e-13  5.6053598240962146e-14  -3.7650738767944163e-13  2.9176689529800434e-14  -1.9703582324969468e-13  8.8654756465120062e-13  1.5536384631125928e-13  -2.2293420130342963e-12  7.7802389661721629e-13  -1.2244177667758690e-13  -2.4767513014756683e-12  1.3240151654535080e-11  -1.0637087397132332e-13  -2.1326472994924722e-11  -2.3720650138910744e-11  1.5576241197217340e-11  -4.0435930789359221e-11  -2.6197004103980002e-11  -3.0475887773092787e-13  1.7310816978819151e-11  -4.9867776695330020e-11  -2.3475123563384613e-11  -1.2717079253331258e-12  1.8382142776070506e-11  -2.7278774135703067e-12  -3.2804599030163435e-12  -1.3737043353701604e-11  1.8262691374308629e-11  -1.8308162393492090e-12  -6.7099889388746570e-12  1.4874960854705223e-12  3.6898651521251630e-13  1.1085111566743804e-11  -8.5790470001885101e-12  9.5890387290958827e-13  3.5615961647162433e-12  -1.4405375286664197e-11  2.2790838060734091e-12  -9.7888638267988914e-13  2.8368203887349360e-13  -4.9727541258180907e-12  2.1933222696336935e-12  -8.9154003664613409e-12  1.4121263157294866e-13  1.4211340221591143e-12  2.1923265883591715e-12  -3.5655712104761859e-12  2.5691766425673307e-11  -9.9231808352212784e-12  4.6010830647804202e-11  -1.3699264264757043e-11  5.3262932638481164e-11  3.2758502993342854e-12  -1.4243330108263822e-11  5.2221828702475177e-11  -1.3903441030729510e-11  5.2099273781531377e-11  -1.4170560914229124e-11  5.2926220058120690e-11  -1.3636894667031179e-11  4.6054067585270984e-11  -1.0050898772379123e-11  2.6443272262754593e-11  -3.7217302271999683e-12  1.9324014175035434e-12  3.2816575502668774e-12  -1.3958259046167300e-10  2.5536613348461623e+00  1.9658840087938068e-12  -1.3155916179309118e-11  3.9195819962596497e-12  -1.2890389960246785e-11  2.6641104053651135e+00  2.4092096942771604e-12  -4.4100038735249179e-12  2.5343129626841239e+00  1.7711921453595304e-13  1.8657138292234323e-12  1.7129002377988693e-12  -1.0303841831510346e-11  2.3502634127638440e-12  -4.7667797851936285e-12  -1.9087970081362248e-10  -3.2979305972232533e-13  1.8419158544241287e-13  2.4651274540798876e-12  1.3469310157374526e-12  -1.3791899695887103e-11  3.1901312710258542e-12  -6.8567368501449613e-12  4.4375246096894607e-11  5.1244762698753914e-12  1.7259819821207124e-12  -1.0570423411678397e-11  2.9625819035115448e-11  2.7853925407077254e-11  -3.0701336769251721e-12  -2.6888565675977093e-12  -2.9985260618817366e-11  2.4132715120310197e-11  -4.4953608252152265e-12  2.5560844322810209e-12  -4.7095566314856384e-11  1.4858520205622560e-11  -3.5626555375577459e-12  2.0490967823291264e-12  -3.4326899041200153e-11  1.3014444735161111e-11  -1.6574605353817392e-11  -2.7055169059191375e-11  7.5551373755197234e-13  1.4723326998776904e-11  -2.5694715790652981e-11  -3.4307357518596583e-11  1.0559807674363519e-12  1.9258730061413430e-11  -3.8107631862179743e-11  -4.0370668571282154e-11  3.3822439886109193e-10  -1.0485557247192519e-10  3.4684085666851506e-11  2.7917377542981028e-10  -1.0158871110233607e-11  -1.5824888409792291e-10  7.0790018489464294e-10  -9.7375832315931711e-11  -3.1623922755913567e-10  3.3497049246822846e-10  -1.7630404863655240e-09  3.1759298668462497e-10  5.2655612003521543e-10  -9.3929281059376583e-10  5.5421873985742182e-11  4.6164227454484942e-10  -2.0805881200469244e-09  4.1347610110314135e-10  4.8329888278156706e-11  -7.7767771157683029e-10  6.2573582132352383e-09  -2.5229961267607475e-09  1.1102203272581597e-08  -2.6965707827352465e-09  6.0760112290447031e-09  3.0403323216464191e-10  -1.0068889570296022e-08  5.1679206732726602e-09  -2.7534835424619656e-08  8.9690854043376936e-09  -3.7318242068512824e-08  1.0594688993072529e-08  -4.0077994827634842e-08  1.0586071671814533e-08  -3.7174721335422335e-08  8.7248281671131834e-09  -2.6310875344716644e-08  5.0685657270711270e-09  -1.1416173596027063e-08  -1.8825312853289759e-09  -8.3021169003877053e-10  3.6490832701460243e-10  9.5299166437140067e-11  -6.0274813618623302e-11  2.9172276548910034e-12  6.9893063581453737e-12  -6.6547248231511436e-12  1.9364326989035980e-13  2.8335946879274417e-12  -1.2437677994456997e-11  -4.7751677670443981e-13  4.5644142345455883e-10  3.2651064571029292e-12  -1.0225753722538366e-11  1.8589517131670885e-12  -3.3190773338880562e-12  1.0211855908348616e-13  1.5019760417359353e-12  -5.0334254038815766e-13  1.3507406