<?xml version="1.0"?>
<VTKFile type="UnstructuredGrid"  version="0.1"  >
<UnstructuredGrid>
<Piece  NumberOfPoints="11902" NumberOfCells="23402">
<Points>
<DataArray  type="Float64"  NumberOfComponents="3"  format="ascii">-5 -5 0  5 -5 0  5 5 0  -5 5 0  1.124448875308128 0.0008350657151814252 0  -4.9 -5 0  -4.8 -5 0  -4.7 -5 0  -4.6 -5 0  -4.5 -5 0  -4.4 -5 0  -4.3 -5 0  -4.2 -5 0  -4.1 -5 0  -4 -5 0  -3.9 -5 0  -3.8 -5 0  -3.7 -5 0  -3.6 -5 0  -3.5 -5 0  -3.4 -5 0  -3.3 -5 0  -3.2 -5 0  -3.1 -5 0  -3 -5 0  -2.9 -5 0  -2.8 -5 0  -2.7 -5 0  -2.6 -5 0  -2.5 -5 0  -2.4 -5 0  -2.3 -5 0  -2.2 -5 0  -2.1 -5 0  -2 -5 0  -1.9 -5 0  -1.8 -5 0  -1.7 -5 0  -1.6 -5 0  -1.5 -5 0  -1.4 -5 0  -1.3 -5 0  -1.2 -5 0  -1.1 -5 0  -1 -5 0  -0.9000000000000004 -5 0  -0.7999999999999998 -5 0  -0.7000000000000002 -5 0  -0.5999999999999996 -5 0  -0.5 -5 0  -0.4000000000000004 -5 0  -0.2999999999999998 -5 0  -0.2000000000000002 -5 0  -0.09999999999999964 -5 0  0 -5 0  0.09999999999999964 -5 0  0.2000000000000002 -5 0  0.2999999999999998 -5 0  0.4000000000000004 -5 0  0.5 -5 0  0.5999999999999996 -5 0  0.7000000000000002 -5 0  0.7999999999999998 -5 0  0.9000000000000004 -5 0  1 -5 0  1.1 -5 0  1.2 -5 0  1.3 -5 0  1.4 -5 0  1.5 -5 0  1.6 -5 0  1.7 -5 0  1.8 -5 0  1.9 -5 0  2 -5 0  2.1 -5 0  2.2 -5 0  2.3 -5 0  2.4 -5 0  2.5 -5 0  2.6 -5 0  2.7 -5 0  2.8 -5 0  2.9 -5 0  3 -5 0  3.1 -5 0  3.199999999999999 -5 0  3.300000000000001 -5 0  3.4 -5 0  3.5 -5 0  3.6 -5 0  3.699999999999999 -5 0  3.800000000000001 -5 0  3.9 -5 0  4 -5 0  4.1 -5 0  4.199999999999999 -5 0  4.300000000000001 -5 0  4.4 -5 0  4.5 -5 0  4.6 -5 0  4.699999999999999 -5 0  4.800000000000001 -5 0  4.9 -5 0  5 -4.9 0  5 -4.8 0  5 -4.7 0  5 -4.6 0  5 -4.5 0  5 -4.4 0  5 -4.3 0  5 -4.2 0  5 -4.1 0  5 -4 0  5 -3.9 0  5 -3.8 0  5 -3.7 0  5 -3.6 0  5 -3.5 0  5 -3.4 0  5 -3.3 0  5 -3.2 0  5 -3.1 0  5 -3 0  5 -2.9 0  5 -2.8 0  5 -2.7 0  5 -2.6 0  5 -2.5 0  5 -2.4 0  5 -2.3 0  5 -2.2 0  5 -2.1 0  5 -2 0  5 -1.9 0  5 -1.8 0  5 -1.7 0  5 -1.6 0  5 -1.5 0  5 -1.4 0  5 -1.3 0  5 -1.2 0  5 -1.1 0  5 -1 0  5 -0.9000000000000004 0  5 -0.7999999999999998 0  5 -0.7000000000000002 0  5 -0.5999999999999996 0  5 -0.5 0  5 -0.4000000000000004 0  5 -0.2999999999999998 0  5 -0.2000000000000002 0  5 -0.09999999999999964 0  5 0 0  5 0.09999999999999964 0  5 0.2000000000000002 0  5 0.2999999999999998 0  5 0.4000000000000004 0  5 0.5 0  5 0.5999999999999996 0  5 0.7000000000000002 0  5 0.7999999999999998 0  5 0.9000000000000004 0  5 1 0  5 1.1 0  5 1.2 0  5 1.3 0  5 1.4 0  5 1.5 0  5 1.6 0  5 1.7 0  5 1.8 0  5 1.9 0  5 2 0  5 2.1 0  5 2.2 0  5 2.3 0  5 2.4 0  5 2.5 0  5 2.6 0  5 2.7 0  5 2.8 0  5 2.9 0  5 3 0  5 3.1 0  5 3.199999999999999 0  5 3.300000000000001 0  5 3.4 0  5 3.5 0  5 3.6 0  5 3.699999999999999 0  5 3.800000000000001 0  5 3.9 0  5 4 0  5 4.1 0  5 4.199999999999999 0  5 4.300000000000001 0  5 4.4 0  5 4.5 0  5 4.6 0  5 4.699999999999999 0  5 4.800000000000001 0  5 4.9 0  4.9 5 0  4.8 5 0  4.7 5 0  4.6 5 0  4.5 5 0  4.4 5 0  4.3 5 0  4.2 5 0  4.1 5 0  4 5 0  3.9 5 0  3.8 5 0  3.7 5 0  3.6 5 0  3.5 5 0  3.4 5 0  3.3 5 0  3.2 5 0  3.1 5 0  3 5 0  2.9 5 0  2.8 5 0  2.7 5 0  2.6 5 0  2.5 5 0  2.4 5 0  2.3 5 0  2.2 5 0  2.1 5 0  2 5 0  1.9 5 0  1.8 5 0  1.7 5 0  1.6 5 0  1.5 5 0  1.4 5 0  1.3 5 0  1.2 5 0  1.1 5 0  1 5 0  0.9000000000000004 5 0  0.7999999999999998 5 0  0.7000000000000002 5 0  0.5999999999999996 5 0  0.5 5 0  0.4000000000000004 5 0  0.2999999999999998 5 0  0.2000000000000002 5 0  0.09999999999999964 5 0  0 5 0  -0.09999999999999964 5 0  -0.2000000000000002 5 0  -0.2999999999999998 5 0  -0.4000000000000004 5 0  -0.5 5 0  -0.5999999999999996 5 0  -0.7000000000000002 5 0  -0.7999999999999998 5 0  -0.9000000000000004 5 0  -1 5 0  -1.1 5 0  -1.2 5 0  -1.3 5 0  -1.4 5 0  -1.5 5 0  -1.6 5 0  -1.7 5 0  -1.8 5 0  -1.9 5 0  -2 5 0  -2.1 5 0  -2.2 5 0  -2.3 5 0  -2.4 5 0  -2.5 5 0  -2.6 5 0  -2.7 5 0  -2.8 5 0  -2.9 5 0  -3 5 0  -3.1 5 0  -3.199999999999999 5 0  -3.300000000000001 5 0  -3.4 5 0  -3.5 5 0  -3.6 5 0  -3.699999999999999 5 0  -3.800000000000001 5 0  -3.9 5 0  -4 5 0  -4.1 5 0  -4.199999999999999 5 0  -4.300000000000001 5 0  -4.4 5 0  -4.5 5 0  -4.6 5 0  -4.699999999999999 5 0  -4.800000000000001 5 0  -4.9 5 0  -5 4.9 0  -5 4.8 0  -5 4.7 0  -5 4.6 0  -5 4.5 0  -5 4.4 0  -5 4.3 0  -5 4.2 0  -5 4.1 0  -5 4 0  -5 3.9 0  -5 3.8 0  -5 3.7 0  -5 3.6 0  -5 3.5 0  -5 3.4 0  -5 3.3 0  -5 3.2 0  -5 3.1 0  -5 3 0  -5 2.9 0  -5 2.8 0  -5 2.7 0  -5 2.6 0  -5 2.5 0  -5 2.4 0  -5 2.3 0  -5 2.2 0  -5 2.1 0  -5 2 0  -5 1.9 0  -5 1.8 0  -5 1.7 0  -5 1.6 0  -5 1.5 0  -5 1.4 0  -5 1.3 0  -5 1.2 0  -5 1.1 0  -5 1 0  -5 0.9000000000000004 0  -5 0.7999999999999998 0  -5 0.7000000000000002 0  -5 0.5999999999999996 0  -5 0.5 0  -5 0.4000000000000004 0  -5 0.2999999999999998 0  -5 0.2000000000000002 0  -5 0.09999999999999964 0  -5 0 0  -5 -0.09999999999999964 0  -5 -0.2000000000000002 0  -5 -0.2999999999999998 0  -5 -0.4000000000000004 0  -5 -0.5 0  -5 -0.5999999999999996 0  -5 -0.7000000000000002 0  -5 -0.7999999999999998 0  -5 -0.9000000000000004 0  -5 -1 0  -5 -1.1 0  -5 -1.2 0  -5 -1.3 0  -5 -1.4 0  -5 -1.5 0  -5 -1.6 0  -5 -1.7 0  -5 -1.8 0  -5 -1.9 0  -5 -2 0  -5 -2.1 0  -5 -2.2 0  -5 -2.3 0  -5 -2.4 0  -5 -2.5 0  -5 -2.6 0  -5 -2.7 0  -5 -2.8 0  -5 -2.9 0  -5 -3 0  -5 -3.1 0  -5 -3.199999999999999 0  -5 -3.300000000000001 0  -5 -3.4 0  -5 -3.5 0  -5 -3.6 0  -5 -3.699999999999999 0  -5 -3.800000000000001 0  -5 -3.9 0  -5 -4 0  -5 -4.1 0  -5 -4.199999999999999 0  -5 -4.300000000000001 0  -5 -4.4 0  -5 -4.5 0  -5 -4.6 0  -5 -4.699999999999999 0  -5 -4.800000000000001 0  -5 -4.9 0  1.11900372677376 0.1003463863728149 0  1.101985301081182 0.1995744736365378 0  1.073277303920032 0.2973106590835336 0  1.035382917717407 0.3905730970304522 0  0.9867197501145096 0.4815392862526027 0  0.9288067509347003 0.567208422437289 0  0.86095748135253 0.6470251791400434 0  0.7839581694764718 0.7200855153749391 0  0.7000437026572267 0.7863602679995081 0  0.6091046997000013 0.845200460853487 0  0.511571686130516 0.8952716264521363 0  0.409042258216238 0.9366084742702603 0  0.3037338603582139 0.9690976080625562 0  0.1944297879885323 0.9912360854106131 0  0.08435751053485674 1.00417501514 0  -0.02698324553455496 1.006768916304934 0  -0.1380910868333763 0.9986629437264752 0  -0.2482180563478859 0.9815659162765523 0  -0.355896147933945 0.9547114156062771 0  -0.4597220584910546 0.9179686193351091 0  -0.5587453359838707 0.8725884795791785 0  -0.6525900324917605 0.8180094092525486 0  -0.7399410843505442 0.7555598220477466 0  -0.8201636711493587 0.6857280425131508 0  -0.8926075746148884 0.608138202761769 0  -0.9556979931068816 0.5250262695223716 0  -1.009974404795558 0.4372244970470155 0  -1.053613547851834 0.3444587212837407 0  -1.08649294327037 0.248885705692653 0  -1.108831615887116 0.150870592121896 0  -1.120194314673147 0.05083427809975759 0  -1.120221515307181 -0.04978210168992193 0  -1.108880176933268 -0.1496445104273383 0  -1.087700756106894 -0.247644447372745 0  -1.053527865547629 -0.3439433095375571 0  -1.010254942310872 -0.4361016040304331 0  -0.9562664657097353 -0.5241181204120592 0  -0.8933422210828067 -0.6069302534361066 0  -0.820891613927959 -0.6838058140305217 0  -0.7402055670543934 -0.7533140010457716 0  -0.6522401376636296 -0.8150903476127418 0  -0.5590942408684433 -0.8698766818072006 0  -0.4583852368318366 -0.9155044635808598 0  -0.3544425422364371 -0.9528423104134798 0  -0.2465939799533721 -0.9801731392600957 0  -0.1369538832071325 -0.997691828301017 0  -0.02625881999389938 -1.006280927497896 0  0.08476464265627377 -1.00312772422735 0  0.1957624275897889 -0.9899149235655507 0  0.304395758167569 -0.9677931842951423 0  0.4110337865065199 -0.9354422403229645 0  0.5123793867888156 -0.8943219227372413 0  0.6095663500137873 -0.844442385854272 0  0.7002886529848524 -0.786817245600649 0  0.7841391715891114 -0.7204576076519542 0  0.8606163085968358 -0.6465468263500032 0  0.9280384449811074 -0.566497575426184 0  0.9868630121862023 -0.4810916701242958 0  1.03641804227144 -0.3906666963784051 0  1.074269996267893 -0.296653133878816 0  1.102077618128533 -0.1990409377408174 0  1.119030883609349 -0.1000610394553617 0  -2.449145209570401 4.919191119689495 0  -2.449071254043894 -4.911666917089935 0  4.911618666908491 2.448736679850549 0  4.91963425974949 -2.450121866239678 0  2.446904940792086 -4.897103486309557 0  2.441314357725279 4.900821211439021 0  -4.91163585407446 -2.448753843927514 0  -4.911636067705434 2.448757590125531 0  -1.749119085552356 4.912554010678955 0  -1.744879532027641 -4.915933358877932 0  4.92211115731252 1.744831733053855 0  4.910854391210338 -1.748704308706416 0  -4.91112951444474 -1.748425588481434 0  -4.911939833922778 1.748161366513728 0  1.746429283107289 4.906525328487946 0  1.74791940792085 -4.894872530064776 0  -1.149306967501092 4.910663041249996 0  -1.130116327352662 -4.918420215888891 0  -4.911270645963111 -1.148601943534505 0  -4.911095873386722 1.148401372225363 0  1.14427125539813 -4.914683239415519 0  1.149311283179432 4.910655262371099 0  4.911428090626044 1.146882680813464 0  4.922004855445303 -1.152586228598442 0  -0.5469113469348658 -4.912012516284233 0  -0.5466704868766626 4.920510864038929 0  -4.910343931839695 -0.5490833269543441 0  -4.910369239946013 0.5476368467068891 0  4.909703849481981 -0.5494089094453654 0  4.921054212047582 0.5461150315292139 0  0.5427168133518625 -4.899185396258192 0  0.5514031536149703 4.917405487081796 0  -4.912677994747337 -3.048967444823425 0  4.919196714273742 3.046940358552249 0  4.912194727594437 -3.048954150257977 0  -4.913522070179271 3.046053625571219 0  3.055808243118618 -4.918158116841635 0  -3.049177074431999 -4.912147068540154 0  3.052732824468548 4.914211066895025 0  -3.048619427598679 4.913030570811987 0  -4.909579586164759 -0.04994515170994402 0  0.04513477005472774 -4.913978017382162 0  0.04958425711322142 4.920850902184638 0  4.916464369534875 -0.05132486679505027 0  3.5460213582941 -4.919569431399433 0  -3.5493369902567 4.91251135270
[...]
<PointData  Scalars="f_30"> 
<DataArray  type="Float64"  Name="f_30"  format="ascii">0.0000000000000000e+00  0.0000000000000000e+00  0.0000000000000000e+00  0.0000000000000000e+00  5.7961697325476003e-01  0.0000000000000000e+00  0.0000000000000000e+00  0.0000000000000000e+00  0.0000000000000000e+00  0.0000000000000000e+00  0.0000000000000000e+00  0.0000000000000000e+00  0.0000000000000000e+00  0.0000000000000000e+00  0.0000000000000000e+00  0.0000000000000000e+00  0.0000000000000000e+00  0.0000000000000000e+00  0.0000000000000000e+00  0.0000000000000000e+00  0.0000000000000000e+00  0.0000000000000000e+00  0.0000000000000000e+00  0.0000000000000000e+00  0.0000000000000000e+00  0.0000000000000000e+00  0.0000000000000000e+00  0.0000000000000000e+00  0.0000000000000000e+00  0.0000000000000000e+00  0.0000000000000000e+00  0.0000000000000000e+00  0.0000000000000000e+00  0.0000000000000000e+00  0.0000000000000000e+00  0.0000000000000000e+00  0.0000000000000000e+00  0.0000000000000000e+00  0.0000000000000000e+00  0.0000000000000000e+00  0.0000000000000000e+00  0.0000000000000000e+00  0.0000000000000000e+00  0.0000000000000000e+00  0.0000000000000000e+00  0.0000000000000000e+00  0.0000000000000000e+00  0.0000000000000000e+00  0.0000000000000000e+00  0.0000000000000000e+00  0.0000000000000000e+00  0.0000000000000000e+00  0.0000000000000000e+00  0.0000000000000000e+00  0.0000000000000000e+00  0.0000000000000000e+00  0.0000000000000000e+00  0.0000000000000000e+00  0.0000000000000000e+00  0.0000000000000000e+00  0.0000000000000000e+00  0.0000000000000000e+00  0.0000000000000000e+00  0.0000000000000000e+00  0.0000000000000000e+00  0.0000000000000000e+00  0.0000000000000000e+00  0.0000000000000000e+00  0.0000000000000000e+00  0.0000000000000000e+00  0.0000000000000000e+00  0.0000000000000000e+00  0.0000000000000000e+00  0.0000000000000000e+00  0.0000000000000000e+00  0.0000000000000000e+00  0.0000000000000000e+00  0.0000000000000000e+00  0.0000000000000000e+00  0.0000000000000000e+00  0.0000000000000000e+00  0.0000000000000000e+00  0.0000000000000000e+00  0.0000000000000000e+00  0.0000000000000000e+00  0.0000000000000000e+00  0.0000000000000000e+00  0.0000000000000000e+00  0.0000000000000000e+00  0.0000000000000000e+00  0.0000000000000000e+00  0.0000000000000000e+00  0.0000000000000000e+00  0.0000000000000000e+00  0.0000000000000000e+00  0.0000000000000000e+00  0.0000000000000000e+00  0.0000000000000000e+00  0.0000000000000000e+00  0.0000000000000000e+00  0.0000000000000000e+00  0.0000000000000000e+00  0.0000000000000000e+00  0.0000000000000000e+00  0.0000000000000000e+00  0.0000000000000000e+00  0.0000000000000000e+00  0.0000000000000000e+00  0.0000000000000000e+00  0.0000000000000000e+00  0.0000000000000000e+00  0.0000000000000000e+00  0.0000000000000000e+00  0.0000000000000000e+00  0.0000000000000000e+00  0.0000000000000000e+00  0.0000000000000000e+00  0.0000000000000000e+00  0.0000000000000000e+00  0.0000000000000000e+00  0.0000000000000000e+00  0.0000000000000000e+00  0.0000000000000000e+00  0.0000000000000000e+00  0.0000000000000000e+00  0.0000000000000000e+00  0.0000000000000000e+00  0.0000000000000000e+00  0.0000000000000000e+00  0.0000000000000000e+00  0.0000000000000000e+00  0.0000000000000000e+00  0.0000000000000000e+00  0.0000000000000000e+00  0.0000000000000000e+00  0.0000000000000000e+00  0.0000000000000000e+00  0.0000000000000000e+00  0.0000000000000000e+00  0.0000000000000000e+00  0.0000000000000000e+00  0.0000000000000000e+00  0.0000000000000000e+00  0.0000000000000000e+00  0.0000000000000000e+00  0.0000000000000000e+00  0.0000000000000000e+00  0.0000000000000000e+00  0.0000000000000000e+00  0.0000000000000000e+00  0.0000000000000000e+00  0.0000000000000000e+00  0.0000000000000000e+00  0.0000000000000000e+00  0.0000000000000000e+00  0.0000000000000000e+00  0.0000000000000000e+00  0.0000000000000000e+00  0.0000000000000000e+00  0.0000000000000000e+00  0.0000000000000000e+00  0.0000000000000000e+00  0.0000000000000000e+00  0.0000000000000000e+00  0.0000000000000000e+00  0.0000000000000000e+00  0.0000000000000000e+00  0.0000000000000000e+00  0.0000000000000000e+00  0.0000000000000000e+00  0.0000000000000000e+00  0.0000000000000000e+00  0.0000000000000000e+00  0.0000000000000000e+00  0.0000000000000000e+00  0.0000000000000000e+00  0.0000000000000000e+00  0.0000000000000000e+00  0.0000000000000000e+00  0.0000000000000000e+00  0.0000000000000000e+00  0.0000000000000000e+00  0.0000000000000000e+00  0.0000000000000000e+00  0.0000000000000000e+00  0.0000000000000000e+00  0.0000000000000000e+00  0.0000000000000000e+00  0.0000000000000000e+00  0.0000000000000000e+00  0.0000000000000000e+00  0.0000000000000000e+00  0.0000000000000000e+00  0.0000000000000000e+00  0.0000000000000000e+00  0.0000000000000000e+00  0.0000000000000000e+00  0.0000000000000000e+00  0.0000000000000000e+00  0.0000000000000000e+00  0.0000000000000000e+00  0.0000000000000000e+00  0.0000000000000000e+00  0.0000000000000000e+00  0.0000000000000000e+00  0.0000000000000000e+00  0.0000000000000000e+00  0.0000000000000000e+00  0.0000000000000000e+00  0.0000000000000000e+00  0.0000000000000000e+00  0.0000000000000000e+00  0.0000000000000000e+00  0.0000000000000000e+00  0.0000000000000000e+00  0.0000000000000000e+00  0.0000000000000000e+00  0.0000000000000000e+00  0.0000000000000000e+00  0.0000000000000000e+00  0.0000000000000000e+00  0.0000000000000000e+00  0.0000000000000000e+00  0.0000000000000000e+00  0.0000000000000000e+00  0.0000000000000000e+00  0.0000000000000000e+00  0.0000000000000000e+00  0.0000000000000000e+00  0.0000000000000000e+00  0.0000000000000000e+00  0.0000000000000000e+00  0.0000000000000000e+00  0.0000000000000000e+00  0.0000000000000000e+00  0.0000000000000000e+00  0.0000000000000000e+00  0.0000000000000000e+00  0.0000000000000000e+00  0.0000000000000000e+00  0.0000000000000000e+00  0.0000000000000000e+00  0.0000000000000000e+00  0.0000000000000000e+00  0.0000000000000000e+00  0.0000000000000000e+00  0.0000000000000000e+00  0.0000000000000000e+00  0.0000000000000000e+00  0.0000000000000000e+00  0.0000000000000000e+00  0.0000000000000000e+00  0.0000000000000000e+00  0.0000000000000000e+00  0.0000000000000000e+00  0.0000000000000000e+00  0.0000000000000000e+00  0.0000000000000000e+00  0.0000000000000000e+00  0.0000000000000000e+00  0.0000000000000000e+00  0.0000000000000000e+00  0.0000000000000000e+00  0.0000000000000000e+00  0.0000000000000000e+00  0.0000000000000000e+00  0.0000000000000000e+00  0.0000000000000000e+00  0.0000000000000000e+00  0.0000000000000000e+00  0.0000000000000000e+00  0.0000000000000000e+00  0.0000000000000000e+00  0.0000000000000000e+00  0.0000000000000000e+00  0.0000000000000000e+00  0.0000000000000000e+00  0.0000000000000000e+00  0.0000000000000000e+00  0.0000000000000000e+00  0.0000000000000000e+00  0.0000000000000000e+00  0.0000000000000000e+00  0.0000000000000000e+00  0.0000000000000000e+00  0.0000000000000000e+00  0.0000000000000000e+00  0.0000000000000000e+00  0.0000000000000000e+00  0.0000000000000000e+00  0.0000000000000000e+00  0.0000000000000000e+00  0.0000000000000000e+00  0.0000000000000000e+00  0.0000000000000000e+00  0.0000000000000000e+00  0.0000000000000000e+00  0.0000000000000000e+00  0.0000000000000000e+00  0.0000000000000000e+00  0.0000000000000000e+00  0.0000000000000000e+00  0.0000000000000000e+00  0.0000000000000000e+00  0.0000000000000000e+00  0.0000000000000000e+00  0.0000000000000000e+00  0.0000000000000000e+00  0.0000000000000000e+00  0.0000000000000000e+00  0.0000000000000000e+00  0.0000000000000000e+00  0.0000000000000000e+00  0.0000000000000000e+00  0.0000000000000000e+00  0.0000000000000000e+00  0.0000000000000000e+00  0.0000000000000000e+00  0.0000000000000000e+00  0.0000000000000000e+00  0.0000000000000000e+00  0.0000000000000000e+00  0.0000000000000000e+00  0.0000000000000000e+00  0.0000000000000000e+00  0.0000000000000000e+00  0.0000000000000000e+00  0.0000000000000000e+00  0.0000000000000000e+00  0.0000000000000000e+00  0.0000000000000000e+00  0.0000000000000000e+00  0.0000000000000000e+00  0.0000000000000000e+00  0.0000000000000000e+00  0.0000000000000000e+00  0.0000000000000000e+00  0.0000000000000000e+00  0.0000000000000000e+00  0.0000000000000000e+00  0.0000000000000000e+00  0.0000000000000000e+00  0.0000000000000000e+00  0.0000000000000000e+00  0.0000000000000000e+00  0.0000000000000000e+00  0.0000000000000000e+00  0.0000000000000000e+00  0.0000000000000000e+00  0.0000000000000000e+00  0.0000000000000000e+00  0.0000000000000000e+00  0.0000000000000000e+00  0.0000000000000000e+00  0.0000000000000000e+00  0.0000000000000000e+00  0.0000000000000000e+00  0.0000000000000000e+00  0.0000000000000000e+00  0.0000000000000000e+00  0.0000000000000000e+00  0.0000000000000000e+00  0.0000000000000000e+00  0.0000000000000000e+00  0.0000000000000000e+00  0.0000000000000000e+00  0.0000000000000000e+00  0.0000000000000000e+00  0.0000000000000000e+00  0.0000000000000000e+00  0.0000000000000000e+00  0.0000000000000000e+00  0.0000000000000000e+00  0.0000000000000000e+00  0.0000000000000000e+00  0.0000000000000000e+00  0.0000000000000000e+00  0.0000000000000000e+00  0.0000000000000000e+00  0.0000000000000000e+00  0.0000000000000000e+00  0.0000000000000000e+00  0.0000000000000000e+00  0.0000000000000000e+00  0.0000000000000000e+00  0.0000000000000000e+00  0.0000000000000000e+00  0.0000000000000000e+00  0.0000000000000000e+00  0.0000000000000000e+00  0.0000000000000000e+00  0.0000000000000000e+00  0.0000000000000000e+00  0.0000000000000000e+00  0.0000000000000000e+00  0.0000000000000000e+00  0.0000000000000000e+00  0.0000000000000000e+00  0.0000000000000000e+00  0.0000000000000000e+00  0.0000000000000000e+00  5.9732800194184044e-01  5.7364301327773515e-01  4.5374006087556373e-01  4.6018976035774034e-01  5.3373508284774529e-01  6.5956970609614096e-01  6.3711751579343823e-01  5.0313011990793544e-01  5.5474507636697457e-01  6.7209080351865780e-01  6.2498760761109129e-01  5.9234565426796315e-01  7.0479756795036119e-01  5.5170129047102467e-01  5.6650908412151890e-01  5.5228681851278749e-01  4.8189016565411563e-01  5.8274133386351501e-01  6.1081732285645485e-01  5.4503008663178076e-01  5.7941344384401328e-01  5.5950227601330405e-01  5.7991540882409198e-01  6.3354854224097201e-01  5.7734325906385009e-01  5.1403710153035775e-01  5.9365165900210204e-01  5.5498570790078183e-01  4.8382220517901331e-01  5.2023342843150189e-01  5.5945635947218553e-01  5.6832823222417850e-01  5.3480281752540004e-01  7.1492526938148449e-01  5.4667903294901077e-01  6.0275316111094857e-01  5.5510891363157333e-01  6.3178012999615374e-01  6.2891803141840108e-01  5.5001833463080840e-01  4.3752775999631593e-01  6.6385714218426495e-01  5.3714488333288468e-01  6.2572413619449119e-01  6.0356211059420428e-01  5.5972865413875472e-01  7.6853637570813060e-01  6.7546127355262886e-01  5.7987962468723564e-01  6.1369444065801404e-01  5.5820951911525285e-01  5.1263585597360317e-01  5.6045182975695373e-01  6.4495066048128658e-01  5.9170992865304162e-01  5.7033679666091552e-01  5.1324895007006177e-01  5.7323749062105644e-01  7.1063445448140561e-01  6.0432837507958659e-01  5.8751682485890666e-01  6.2060687798177927e-01  3.6124302893678888e-27  -1.3179049586018910e-27  -2.6372991763900386e-27  -2.9362116631428342e-27  -1.2758042433644196e-27  -5.3227465124718954e-28  -2.0321712296358700e-28  1.8085997443963386e-27  7.1911179290012676e-27  4.1262730870806062e-27  -7.0167497423806115e-25  -6.6245831476321960e-25  5.4015513447615081e-25  1.1894522856231584e-24  3.7087782143286271e-26  3.0575271141145021e-26  -4.7807989473520341e-26  -3.0032949810282037e-26  -1.1242593163625753e-22  -1.6505399355228843e-22  -4.3272784244324516e-26  -4.9232190612165344e-26  4.7612444181472780e-23  4.7758648246977441e-23  -4.7325117330097954e-27  -3.9746958667769224e-26  -7.5369921334862957e-21  -7.1236227356903790e-21  -4.5758827284633815e-21  -4.8274271070323236e-21  8.3191953266493229e-26  -2.6522204754712472e-26  7.1703452003970310e-30  -8.8439315133186883e-30  -9.0742346173703971e-30  1.6282541736589141e-29  1.9759309254806553e-28  3.9844154410344179e-28  2.8927426510492227e-28  3.1817896446777948e-28  3.5536297009284753e-20  6.3536072294243879e-26  1.2229864238931933e-26  3.8447618618176478e-20  -9.0965309030517543e-30  -9.9263817845404473e-30  -6.2620610767826382e-30  2.3186076939665817e-31  2.4329241667790975e-31  2.3940970479216396e-31  1.4562219642264051e-31  -9.9633717782136370e-30  -6.1356152673631723e-33  -2.3068742188989752e-32  1.1371226142111403e-31  -4.0599764880561327e-33  2.5154975890691134e-32  -6.0625832466500922e-33  1.3756211275308243e-31  -9.9017162016333261e-34  -1.2942969994903812e-33  -4.6819396291347517e-34  -1.9574341716783863e-34  1.4856515768868391e-34  1.3409178659823531e-34  7.7341056196349513e-35  7.3735334367021779e-36  -1.6096906618416426e-33  2.7758148030855234e-20  4.6287417925179922e-26  -1.3625127555884047e-26  1.3821895793018776e-20  1.1674959261013577e-25  -3.4725251029216228e-24  1.3394908126865052e-21  8.8430430458799208e-22  -3.2579710802685566e-24  2.7350633781136165e-26  7.8784765558819590e-26  -5.2860190957200978e-26  -3.8568676498332359e-26  -1.1547888133363664e-23  3.9597117407676928e-22  4.1482004232986379e-22  -1.1338401361143545e-23  -2.5533677425472051e-27  8.8216621062171419e-26  -4.0413607179961743e-27  5.5607032517332912e-27  -6.5533276130282927e-27  8.9115025741629423e-26  1.1270771508427939e-25  -4.0123929723242011e-27  -2.4119486698588173e-27  3.0464775670035169e-26  2.8830721015187585e-26  -1.5704730895658041e-28  -7.7607644484127825e-28  -1.2225102882155854e-27  2.0590627178458991e-28  6.3877897699061308e-28  6.7275958797981759e-29  -1.5133891674656569e-28  -9.2259113826100583e-28  1.2567462285145188e-35  1.8952164928464782e-35  7.5316886650579557e-36  -1.6945973151047753e-36  6.4699474521038870e-36  1.5368911852535913e-36  1.0557451950334163e-35  5.2339745000647323e-37  2.7877468166185023e-20  1.2033778559920297e-25  1.1446126083857852e-25  1.3760365568572406e-20  -1.7864190872582401e-27  4.4955710363638212e-27  4.7957012648805090e-27  -7.1557880995278564e-27  -1.1865853521231146e-26  -7.0144009132490244e-29  -8.1948016771071347e-27  -2.0294426489105330e-26  3.5252794130531459e-30  -1.1191931582343079e-28  -7.3960401604519563e-29  2.8341012485527048e-30  3.4754384481930400e-30  -9.6395334736037939e-29  -1.2779608966114171e-28  1.1569373916843035e-30  -3.7499998483133181e-33  3.6441434695684811e-34  1.2053007412547752e-30  -1.2997725906437064e-32  2.7360781239197350e-31  -1.5412836937207623e-32  -3.6562415361183209e-32  1.2126589170208370e-33  8.1374550056530732e-31  -1.3325617746507744e-32  -1.3655507227324432e-33  2.9198330052428749e-34  -4.4317833045251123e-32  1.2637525112306541e-33  5.2319133428073940e-31  -1.7094961460073476e-32  -3.7014088940217593e-36  -1.7453805672400472e-36  -2.9595971471221381e-36  -3.4662496962563533e-36  3.4840953051180237e-20  -1.2995853862393035e-19  -8.5771481445945245e-20  4.2076949908416843e-19  2.0515161402027259e-19  -1.2097205690460696e-18  -3.1622072755003200e-19  2.8705392272573723e-18  -2.7975281465168058e-19  -4.3099798591542286e-18  4.7474874171701145e-18  -4.6496839709502535e-18  -2.3363935786210951e-17  6.8991207554912612e-17  8.0970993588519402e-17  -3.3342386969633332e-16  -2.1158945690669098e-16  1.1328875784234790e-15  3.8162533909673583e-16  -2.8846905908652891e-15  -2.0353337105846241e-16  -4.7525365018086438e-15  4.9165514589852049e-15  -1.6200972294899481e-15  -1.5863592644386252e-15  7.3808896263150713e-15  -2.5145868055792665e-14  -1.5924050608764386e-14  9.9126081873287584e-14  9.7169884668981986e-15  -1.8521729218466991e-13  5.6053610464462203e-14  -3.7650739672362680e-13  2.9176590122336616e-14  -1.9703581669219700e-13  8.8654770851782852e-13  1.5536373008725521e-13  -2.2293418205636677e-12  7.7802426648414328e-13  -1.2244355549280434e-13  -2.4767517258505365e-12  1.3240156426240855e-11  -1.0637209356649886e-13  -2.1326468805709087e-11  -2.3720653120032488e-11  1.5576247677993698e-11  -4.0435954493911633e-11  -2.6197013872593890e-11  -3.0475915423057018e-13  1.7310823789181951e-11  -4.9867793104545778e-11  -2.3475137141911613e-11  -1.2717075285016561e-12  1.8382149503385856e-11  -2.7278788189964281e-12  -3.2804594168821331e-12  -1.3737057236251207e-11  1.8262698004647776e-11  -1.8308175646861356e-12  -6.7099889637028062e-12  1.4874964670868272e-12  3.6898547619919190e-13  1.1085117760222721e-11  -8.5790477984200469e-12  9.5890427943200275e-13  3.5615955904296087e-12  -1.4405370512124432e-11  2.2790825274834226e-12  -9.7888603294297115e-13  2.8368192829279015e-13  -4.9727514350895462e-12  2.1933210160148015e-12  -8.9153966469536298e-12  1.4121256225516698e-13  1.4211348198877663e-12  2.1923148640968467e-12  -3.5655659784249763e-12  2.5691750979660769e-11  -9.9231838973902136e-12  4.6010889637436121e-11  -1.3699298340653701e-11  5.3263113995250187e-11  3.2758549374963743e-12  -1.4243380880665040e-11  5.2221942760495694e-11  -1.3903418464229251e-11  5.2098903353308446e-11  -1.4170368746229608e-11  5.2925209134866505e-11  -1.3636588442626817e-11  4.6053003345075990e-11  -1.0050705760218398e-11  2.6443033361801501e-11  -3.7217995852637414e-12  1.9330207990091578e-12  3.2815832842883074e-12  -1.3958261830265393e-10  2.3932261517167057e+00  1.9657010594288280e-12  -1.3155423909593639e-11  3.9195607263242818e-12  -1.2890775499769810e-11  2.4263454363786607e+00  2.4094058918643927e-12  -4.4109100096102912e-12  2.3923989969913872e+00  1.7734529024995392e-13  1.8650797624743253e-12  1.7160854491123756e-12  -1.0302536902165010e-11  2.3501574937269053e-12  -4.7670448864240899e-12  -1.9087535175645460e-10  -3.2985638777270314e-13  1.8433961717270888e-13  2.4645472161315366e-12  1.3490215882561381e-12  -1.3790246688823511e-11  3.1898609706387262e-12  -6.8563351652697075e-12  4.4371641278442838e-11  5.1244455665141164e-12  1.7258346571382173e-12  -1.0569874186325390e-11  2.9623607444664669e-11  2.7853169774260259e-11  -3.0702126176831133e-12  -2.6879882283655951e-12  -2.9987314745330850e-11  2.4130450389484731e-11  -4.4952381497275537e-12  2.5571660369881471e-12  -4.7095842087119633e-11  1.4854281301962562e-11  -3.5621879506037197e-12  2.0501148561580103e-12  -3.4323880745933067e-11  1.3008728510043262e-11  -1.6550880068557948e-11  -2.7050454843572722e-11  7.5656367424773877e-13  1.4716920171888872e-11  -2.5667006391082697e-11  -3.4304672769749782e-11  1.0574292754467737e-12  1.9252891365048844e-11  -3.8076562427336838e-11  -4.0373411058996411e-11  3.3819088713743776e-10  -1.0482942866724405e-10  3.4567175967716512e-11  2.7918053745669206e-10  -1.0165838608689210e-11  -1.5823832827442229e-10  7.0782657357062019e-10  -9.7360132224430759e-11  -3.1622636392818542e-10  3.3492921532585397e-10  -1.7627697750081498e-09  3.1751975924809429e-10  5.2666890295573725e-10  -9.3922103400503753e-10  5.5427896746449992e-11  4.6158790492581227e-10  -2.0802497101274477e-09  4.1335619374953066e-10  4.8855204307718998e-11  -7.7782970984519050e-10  6.2579485226176332e-09  -2.5231607358924186e-09  1.1102844039678021e-08  -2.6967527283097770e-09  6.0767276878462415e-09  3.0383177783086540e-10  -1.0068122129530353e-08  5.1677185940970977e-09  -2.7534139539792139e-08  8.9689298705182721e-09  -3.7317820813871719e-08  1.0594625285772392e-08  -4.0077930280762399e-08  1.0586087239432071e-08  -3.7174844618414027e-08  8.7248605119335434e-09  -2.6310956083543610e-08  5.0685746023800160e-09  -1.1416167248106445e-08  -1.8825372880491513e-09  -8.3021156295527240e-10  3.6490905913688489e-10  9.5298826793659394e-11  -6.0274827034003033e-11  2.9173197567040325e-12  6.9892851270408032e-12  -6.6547387089508831e-12  1.9364985370858973e-13  2.8335952000225306e-12  -1.2437670957717168e-11  -4.7751790171921732e-13  4.5648405445781287e-10  3.2651043798356017e-12  -1.0225749394261155e-11  1.8589515331105644e-12  -3.3190793096005094e-12  1.0211911439799615e-13  1.5019750560009968e-12  -5.0334253029006286e-13  1.3507411