<?xml version="1.0"?>
<VTKFile type="UnstructuredGrid"  version="0.1"  >
<UnstructuredGrid>
<Piece  NumberOfPoints="11902" NumberOfCells="23402">
<Points>
<DataArray  type="Float64"  NumberOfComponents="3"  format="ascii">-5 -5 0  5 -5 0  5 5 0  -5 5 0  1.258363902379314 0.001344523330501971 0  -4.9 -5 0  -4.8 -5 0  -4.7 -5 0  -4.6 -5 0  -4.5 -5 0  -4.4 -5 0  -4.3 -5 0  -4.2 -5 0  -4.1 -5 0  -4 -5 0  -3.9 -5 0  -3.8 -5 0  -3.7 -5 0  -3.6 -5 0  -3.5 -5 0  -3.4 -5 0  -3.3 -5 0  -3.2 -5 0  -3.1 -5 0  -3 -5 0  -2.9 -5 0  -2.8 -5 0  -2.7 -5 0  -2.6 -5 0  -2.5 -5 0  -2.4 -5 0  -2.3 -5 0  -2.2 -5 0  -2.1 -5 0  -2 -5 0  -1.9 -5 0  -1.8 -5 0  -1.7 -5 0  -1.6 -5 0  -1.5 -5 0  -1.4 -5 0  -1.3 -5 0  -1.2 -5 0  -1.1 -5 0  -1 -5 0  -0.9000000000000004 -5 0  -0.7999999999999998 -5 0  -0.7000000000000002 -5 0  -0.5999999999999996 -5 0  -0.5 -5 0  -0.4000000000000004 -5 0  -0.2999999999999998 -5 0  -0.2000000000000002 -5 0  -0.09999999999999964 -5 0  0 -5 0  0.09999999999999964 -5 0  0.2000000000000002 -5 0  0.2999999999999998 -5 0  0.4000000000000004 -5 0  0.5 -5 0  0.5999999999999996 -5 0  0.7000000000000002 -5 0  0.7999999999999998 -5 0  0.9000000000000004 -5 0  1 -5 0  1.1 -5 0  1.2 -5 0  1.3 -5 0  1.4 -5 0  1.5 -5 0  1.6 -5 0  1.7 -5 0  1.8 -5 0  1.9 -5 0  2 -5 0  2.1 -5 0  2.2 -5 0  2.3 -5 0  2.4 -5 0  2.5 -5 0  2.6 -5 0  2.7 -5 0  2.8 -5 0  2.9 -5 0  3 -5 0  3.1 -5 0  3.199999999999999 -5 0  3.300000000000001 -5 0  3.4 -5 0  3.5 -5 0  3.6 -5 0  3.699999999999999 -5 0  3.800000000000001 -5 0  3.9 -5 0  4 -5 0  4.1 -5 0  4.199999999999999 -5 0  4.300000000000001 -5 0  4.4 -5 0  4.5 -5 0  4.6 -5 0  4.699999999999999 -5 0  4.800000000000001 -5 0  4.9 -5 0  5 -4.9 0  5 -4.8 0  5 -4.7 0  5 -4.6 0  5 -4.5 0  5 -4.4 0  5 -4.3 0  5 -4.2 0  5 -4.1 0  5 -4 0  5 -3.9 0  5 -3.8 0  5 -3.7 0  5 -3.6 0  5 -3.5 0  5 -3.4 0  5 -3.3 0  5 -3.2 0  5 -3.1 0  5 -3 0  5 -2.9 0  5 -2.8 0  5 -2.7 0  5 -2.6 0  5 -2.5 0  5 -2.4 0  5 -2.3 0  5 -2.2 0  5 -2.1 0  5 -2 0  5 -1.9 0  5 -1.8 0  5 -1.7 0  5 -1.6 0  5 -1.5 0  5 -1.4 0  5 -1.3 0  5 -1.2 0  5 -1.1 0  5 -1 0  5 -0.9000000000000004 0  5 -0.7999999999999998 0  5 -0.7000000000000002 0  5 -0.5999999999999996 0  5 -0.5 0  5 -0.4000000000000004 0  5 -0.2999999999999998 0  5 -0.2000000000000002 0  5 -0.09999999999999964 0  5 0 0  5 0.09999999999999964 0  5 0.2000000000000002 0  5 0.2999999999999998 0  5 0.4000000000000004 0  5 0.5 0  5 0.5999999999999996 0  5 0.7000000000000002 0  5 0.7999999999999998 0  5 0.9000000000000004 0  5 1 0  5 1.1 0  5 1.2 0  5 1.3 0  5 1.4 0  5 1.5 0  5 1.6 0  5 1.7 0  5 1.8 0  5 1.9 0  5 2 0  5 2.1 0  5 2.2 0  5 2.3 0  5 2.4 0  5 2.5 0  5 2.6 0  5 2.7 0  5 2.8 0  5 2.9 0  5 3 0  5 3.1 0  5 3.199999999999999 0  5 3.300000000000001 0  5 3.4 0  5 3.5 0  5 3.6 0  5 3.699999999999999 0  5 3.800000000000001 0  5 3.9 0  5 4 0  5 4.1 0  5 4.199999999999999 0  5 4.300000000000001 0  5 4.4 0  5 4.5 0  5 4.6 0  5 4.699999999999999 0  5 4.800000000000001 0  5 4.9 0  4.9 5 0  4.8 5 0  4.7 5 0  4.6 5 0  4.5 5 0  4.4 5 0  4.3 5 0  4.2 5 0  4.1 5 0  4 5 0  3.9 5 0  3.8 5 0  3.7 5 0  3.6 5 0  3.5 5 0  3.4 5 0  3.3 5 0  3.2 5 0  3.1 5 0  3 5 0  2.9 5 0  2.8 5 0  2.7 5 0  2.6 5 0  2.5 5 0  2.4 5 0  2.3 5 0  2.2 5 0  2.1 5 0  2 5 0  1.9 5 0  1.8 5 0  1.7 5 0  1.6 5 0  1.5 5 0  1.4 5 0  1.3 5 0  1.2 5 0  1.1 5 0  1 5 0  0.9000000000000004 5 0  0.7999999999999998 5 0  0.7000000000000002 5 0  0.5999999999999996 5 0  0.5 5 0  0.4000000000000004 5 0  0.2999999999999998 5 0  0.2000000000000002 5 0  0.09999999999999964 5 0  0 5 0  -0.09999999999999964 5 0  -0.2000000000000002 5 0  -0.2999999999999998 5 0  -0.4000000000000004 5 0  -0.5 5 0  -0.5999999999999996 5 0  -0.7000000000000002 5 0  -0.7999999999999998 5 0  -0.9000000000000004 5 0  -1 5 0  -1.1 5 0  -1.2 5 0  -1.3 5 0  -1.4 5 0  -1.5 5 0  -1.6 5 0  -1.7 5 0  -1.8 5 0  -1.9 5 0  -2 5 0  -2.1 5 0  -2.2 5 0  -2.3 5 0  -2.4 5 0  -2.5 5 0  -2.6 5 0  -2.7 5 0  -2.8 5 0  -2.9 5 0  -3 5 0  -3.1 5 0  -3.199999999999999 5 0  -3.300000000000001 5 0  -3.4 5 0  -3.5 5 0  -3.6 5 0  -3.699999999999999 5 0  -3.800000000000001 5 0  -3.9 5 0  -4 5 0  -4.1 5 0  -4.199999999999999 5 0  -4.300000000000001 5 0  -4.4 5 0  -4.5 5 0  -4.6 5 0  -4.699999999999999 5 0  -4.800000000000001 5 0  -4.9 5 0  -5 4.9 0  -5 4.8 0  -5 4.7 0  -5 4.6 0  -5 4.5 0  -5 4.4 0  -5 4.3 0  -5 4.2 0  -5 4.1 0  -5 4 0  -5 3.9 0  -5 3.8 0  -5 3.7 0  -5 3.6 0  -5 3.5 0  -5 3.4 0  -5 3.3 0  -5 3.2 0  -5 3.1 0  -5 3 0  -5 2.9 0  -5 2.8 0  -5 2.7 0  -5 2.6 0  -5 2.5 0  -5 2.4 0  -5 2.3 0  -5 2.2 0  -5 2.1 0  -5 2 0  -5 1.9 0  -5 1.8 0  -5 1.7 0  -5 1.6 0  -5 1.5 0  -5 1.4 0  -5 1.3 0  -5 1.2 0  -5 1.1 0  -5 1 0  -5 0.9000000000000004 0  -5 0.7999999999999998 0  -5 0.7000000000000002 0  -5 0.5999999999999996 0  -5 0.5 0  -5 0.4000000000000004 0  -5 0.2999999999999998 0  -5 0.2000000000000002 0  -5 0.09999999999999964 0  -5 0 0  -5 -0.09999999999999964 0  -5 -0.2000000000000002 0  -5 -0.2999999999999998 0  -5 -0.4000000000000004 0  -5 -0.5 0  -5 -0.5999999999999996 0  -5 -0.7000000000000002 0  -5 -0.7999999999999998 0  -5 -0.9000000000000004 0  -5 -1 0  -5 -1.1 0  -5 -1.2 0  -5 -1.3 0  -5 -1.4 0  -5 -1.5 0  -5 -1.6 0  -5 -1.7 0  -5 -1.8 0  -5 -1.9 0  -5 -2 0  -5 -2.1 0  -5 -2.2 0  -5 -2.3 0  -5 -2.4 0  -5 -2.5 0  -5 -2.6 0  -5 -2.7 0  -5 -2.8 0  -5 -2.9 0  -5 -3 0  -5 -3.1 0  -5 -3.199999999999999 0  -5 -3.300000000000001 0  -5 -3.4 0  -5 -3.5 0  -5 -3.6 0  -5 -3.699999999999999 0  -5 -3.800000000000001 0  -5 -3.9 0  -5 -4 0  -5 -4.1 0  -5 -4.199999999999999 0  -5 -4.300000000000001 0  -5 -4.4 0  -5 -4.5 0  -5 -4.6 0  -5 -4.699999999999999 0  -5 -4.800000000000001 0  -5 -4.9 0  1.250280683742022 0.09486402097433527 0  1.228644382600522 0.192425659224202 0  1.195229681632563 0.2889250401224872 0  1.152391055062966 0.3776720790381458 0  1.094525480578751 0.468487107978113 0  1.028812849834951 0.5527962692709146 0  0.9505453654945526 0.6327651037616114 0  0.8638159684925087 0.7073613733996758 0  0.7720558290125566 0.7727869087607849 0  0.6697154199660562 0.8301504121114013 0  0.5579858928060464 0.8824261415727004 0  0.4455293608342196 0.9267999999701253 0  0.3331174070627027 0.9590190609373758 0  0.2086985765660748 0.9806092645428258 0  0.08897703529707222 0.9994979367468119 0  -0.02711224107511371 1.002788377322118 0  -0.1448324064247923 0.9890829732138878 0  -0.2719285313513221 0.9701520040708426 0  -0.3911480333683406 0.9458951568054865 0  -0.5018429007144058 0.9098674721498936 0  -0.6111695975486519 0.8634094995639179 0  -0.7133286499042704 0.8087843558665242 0  -0.8079773235928328 0.7439375492125579 0  -0.8989145422828015 0.6705229052920899 0  -0.9843716433744433 0.5908312758838627 0  -1.058553046801483 0.5097339209934517 0  -1.120310056660291 0.4243602271907241 0  -1.173460105469426 0.332098230618359 0  -1.211422019947775 0.2427624264071067 0  -1.235906825658678 0.1485545446302256 0  -1.247014890637855 0.05154257427949606 0  -1.246967397442792 -0.04943314106693077 0  -1.235881630175214 -0.1456768976185065 0  -1.211086012883027 -0.238207750355978 0  -1.169789495123104 -0.3330062324014808 0  -1.120655991110258 -0.424734994327793 0  -1.060225980866533 -0.5095604206373947 0  -0.9867982569315635 -0.5898065182259246 0  -0.9019720824980919 -0.6683770907592883 0  -0.8115199049916498 -0.7399922343340057 0  -0.7155839914281569 -0.8010150958884686 0  -0.6109169616348646 -0.8541109829228493 0  -0.4972107958748453 -0.9035946754965569 0  -0.3843662085703702 -0.9433627435852627 0  -0.2686421357174839 -0.9698320191515327 0  -0.1433603632571545 -0.9888892583655635 0  -0.02790809738577733 -1.001997684406083 0  0.08834004643610616 -0.994768198433611 0  0.2140868312333378 -0.977237664781832 0  0.3356590212364151 -0.9574367287574191 0  0.4496731336126852 -0.9254765870252062 0  0.5603711368491747 -0.8816307638709058 0  0.6706731218770136 -0.8302087545409977 0  0.772015377306313 -0.7739030927073099 0  0.8638919035870131 -0.7083944578584308 0  0.9496427541381562 -0.6328794871638241 0  1.02620525823803 -0.5517920787177777 0  1.095269852604041 -0.4673972482484384 0  1.153230416328833 -0.3780028765763107 0  1.19697871226789 -0.2869351929933419 0  1.229316164624743 -0.1915631353801413 0  1.250627544694462 -0.09462064732745779 0  -2.448556359093972 4.918104953453765 0  -2.448430068613242 -4.910482433700955 0  4.910406484455472 2.447885246440787 0  4.918534192667868 -2.449347653716779 0  2.446158868359147 -4.89571194351982 0  2.440592615477827 4.899475103390129 0  -4.910433576937601 -2.447911694624409 0  -4.910430849474302 2.447915636020267 0  -1.748510242646127 4.910988879244826 0  -1.744297106420455 -4.914430957059051 0  4.920579216293453 1.744060955151202 0  4.909105266385879 -1.747820750898937 0  -4.909399676445489 -1.747555115930641 0  -4.910222433950929 1.747300120663076 0  1.745782704740548 4.904843374113233 0  1.747194992515207 -4.892984353974788 0  -1.148822265730092 4.90876688178302 0  -1.129680620379944 -4.916686795509325 0  -4.909104455632192 -1.147885510726085 0  -4.908922597399749 1.147685956775985 0  1.143818107446391 -4.912868720947869 0  1.148832225263064 4.908753451828202 0  4.909243996881595 1.146160692288957 0  4.920086141863882 -1.151947596521415 0  -0.5466588627768162 -4.909952579636435 0  -0.5464425049197345 4.918644231110704 0  -4.90782666435826 -0.5486849768813588 0  -4.907850622751103 0.5472428327498249 0  4.907144545651431 -0.5490030301641713 0  4.918815311727799 0.5457634419934936 0  0.542440230352696 -4.896818935737313 0  0.5511708930302679 4.915464179084249 0  -4.91186716933973 -3.048271627894191 0  4.918439942949244 3.046289239688384 0  4.911374713621207 -3.048247049075784 0  -4.912715136464109 3.045363407298819 0  3.055283118890624 -4.917362573404481 0  -3.048612635837645 -4.911296679006456 0  3.052180311785531 4.913374999062844 0  -3.048058406847967 4.912186724614703 0  -4.906930889475283 -0.04990541014792293 0  0.04511917481193593 -4.911902128538315 0  0.04956670333547214 4.918935678089438 0  4.913994188563368 -0.05128767480805975 0  3.545605363807109 -4.919012735907383 0  -3.54888464329
[...]
<PointData  Scalars="f_30"> 
<DataArray  type="Float64"  Name="f_30"  format="ascii">0.0000000000000000e+00  0.0000000000000000e+00  0.0000000000000000e+00  0.0000000000000000e+00  4.9795139624784150e-02  0.0000000000000000e+00  0.0000000000000000e+00  0.0000000000000000e+00  0.0000000000000000e+00  0.0000000000000000e+00  0.0000000000000000e+00  0.0000000000000000e+00  0.0000000000000000e+00  0.0000000000000000e+00  0.0000000000000000e+00  0.0000000000000000e+00  0.0000000000000000e+00  0.0000000000000000e+00  0.0000000000000000e+00  0.0000000000000000e+00  0.0000000000000000e+00  0.0000000000000000e+00  0.0000000000000000e+00  0.0000000000000000e+00  0.0000000000000000e+00  0.0000000000000000e+00  0.0000000000000000e+00  0.0000000000000000e+00  0.0000000000000000e+00  0.0000000000000000e+00  0.0000000000000000e+00  0.0000000000000000e+00  0.0000000000000000e+00  0.0000000000000000e+00  0.0000000000000000e+00  0.0000000000000000e+00  0.0000000000000000e+00  0.0000000000000000e+00  0.0000000000000000e+00  0.0000000000000000e+00  0.0000000000000000e+00  0.0000000000000000e+00  0.0000000000000000e+00  0.0000000000000000e+00  0.0000000000000000e+00  0.0000000000000000e+00  0.0000000000000000e+00  0.0000000000000000e+00  0.0000000000000000e+00  0.0000000000000000e+00  0.0000000000000000e+00  0.0000000000000000e+00  0.0000000000000000e+00  0.0000000000000000e+00  0.0000000000000000e+00  0.0000000000000000e+00  0.0000000000000000e+00  0.0000000000000000e+00  0.0000000000000000e+00  0.0000000000000000e+00  0.0000000000000000e+00  0.0000000000000000e+00  0.0000000000000000e+00  0.0000000000000000e+00  0.0000000000000000e+00  0.0000000000000000e+00  0.0000000000000000e+00  0.0000000000000000e+00  0.0000000000000000e+00  0.0000000000000000e+00  0.0000000000000000e+00  0.0000000000000000e+00  0.0000000000000000e+00  0.0000000000000000e+00  0.0000000000000000e+00  0.0000000000000000e+00  0.0000000000000000e+00  0.0000000000000000e+00  0.0000000000000000e+00  0.0000000000000000e+00  0.0000000000000000e+00  0.0000000000000000e+00  0.0000000000000000e+00  0.0000000000000000e+00  0.0000000000000000e+00  0.0000000000000000e+00  0.0000000000000000e+00  0.0000000000000000e+00  0.0000000000000000e+00  0.0000000000000000e+00  0.0000000000000000e+00  0.0000000000000000e+00  0.0000000000000000e+00  0.0000000000000000e+00  0.0000000000000000e+00  0.0000000000000000e+00  0.0000000000000000e+00  0.0000000000000000e+00  0.0000000000000000e+00  0.0000000000000000e+00  0.0000000000000000e+00  0.0000000000000000e+00  0.0000000000000000e+00  0.0000000000000000e+00  0.0000000000000000e+00  0.0000000000000000e+00  0.0000000000000000e+00  0.0000000000000000e+00  0.0000000000000000e+00  0.0000000000000000e+00  0.0000000000000000e+00  0.0000000000000000e+00  0.0000000000000000e+00  0.0000000000000000e+00  0.0000000000000000e+00  0.0000000000000000e+00  0.0000000000000000e+00  0.0000000000000000e+00  0.0000000000000000e+00  0.0000000000000000e+00  0.0000000000000000e+00  0.0000000000000000e+00  0.0000000000000000e+00  0.0000000000000000e+00  0.0000000000000000e+00  0.0000000000000000e+00  0.0000000000000000e+00  0.0000000000000000e+00  0.0000000000000000e+00  0.0000000000000000e+00  0.0000000000000000e+00  0.0000000000000000e+00  0.0000000000000000e+00  0.0000000000000000e+00  0.0000000000000000e+00  0.0000000000000000e+00  0.0000000000000000e+00  0.0000000000000000e+00  0.0000000000000000e+00  0.0000000000000000e+00  0.0000000000000000e+00  0.0000000000000000e+00  0.0000000000000000e+00  0.0000000000000000e+00  0.0000000000000000e+00  0.0000000000000000e+00  0.0000000000000000e+00  0.0000000000000000e+00  0.0000000000000000e+00  0.0000000000000000e+00  0.0000000000000000e+00  0.0000000000000000e+00  0.0000000000000000e+00  0.0000000000000000e+00  0.0000000000000000e+00  0.0000000000000000e+00  0.0000000000000000e+00  0.0000000000000000e+00  0.0000000000000000e+00  0.0000000000000000e+00  0.0000000000000000e+00  0.0000000000000000e+00  0.0000000000000000e+00  0.0000000000000000e+00  0.0000000000000000e+00  0.0000000000000000e+00  0.0000000000000000e+00  0.0000000000000000e+00  0.0000000000000000e+00  0.0000000000000000e+00  0.0000000000000000e+00  0.0000000000000000e+00  0.0000000000000000e+00  0.0000000000000000e+00  0.0000000000000000e+00  0.0000000000000000e+00  0.0000000000000000e+00  0.0000000000000000e+00  0.0000000000000000e+00  0.0000000000000000e+00  0.0000000000000000e+00  0.0000000000000000e+00  0.0000000000000000e+00  0.0000000000000000e+00  0.0000000000000000e+00  0.0000000000000000e+00  0.0000000000000000e+00  0.0000000000000000e+00  0.0000000000000000e+00  0.0000000000000000e+00  0.0000000000000000e+00  0.0000000000000000e+00  0.0000000000000000e+00  0.0000000000000000e+00  0.0000000000000000e+00  0.0000000000000000e+00  0.0000000000000000e+00  0.0000000000000000e+00  0.0000000000000000e+00  0.0000000000000000e+00  0.0000000000000000e+00  0.0000000000000000e+00  0.0000000000000000e+00  0.0000000000000000e+00  0.0000000000000000e+00  0.0000000000000000e+00  0.0000000000000000e+00  0.0000000000000000e+00  0.0000000000000000e+00  0.0000000000000000e+00  0.0000000000000000e+00  0.0000000000000000e+00  0.0000000000000000e+00  0.0000000000000000e+00  0.0000000000000000e+00  0.0000000000000000e+00  0.0000000000000000e+00  0.0000000000000000e+00  0.0000000000000000e+00  0.0000000000000000e+00  0.0000000000000000e+00  0.0000000000000000e+00  0.0000000000000000e+00  0.0000000000000000e+00  0.0000000000000000e+00  0.0000000000000000e+00  0.0000000000000000e+00  0.0000000000000000e+00  0.0000000000000000e+00  0.0000000000000000e+00  0.0000000000000000e+00  0.0000000000000000e+00  0.0000000000000000e+00  0.0000000000000000e+00  0.0000000000000000e+00  0.0000000000000000e+00  0.0000000000000000e+00  0.0000000000000000e+00  0.0000000000000000e+00  0.0000000000000000e+00  0.0000000000000000e+00  0.0000000000000000e+00  0.0000000000000000e+00  0.0000000000000000e+00  0.0000000000000000e+00  0.0000000000000000e+00  0.0000000000000000e+00  0.0000000000000000e+00  0.0000000000000000e+00  0.0000000000000000e+00  0.0000000000000000e+00  0.0000000000000000e+00  0.0000000000000000e+00  0.0000000000000000e+00  0.0000000000000000e+00  0.0000000000000000e+00  0.0000000000000000e+00  0.0000000000000000e+00  0.0000000000000000e+00  0.0000000000000000e+00  0.0000000000000000e+00  0.0000000000000000e+00  0.0000000000000000e+00  0.0000000000000000e+00  0.0000000000000000e+00  0.0000000000000000e+00  0.0000000000000000e+00  0.0000000000000000e+00  0.0000000000000000e+00  0.0000000000000000e+00  0.0000000000000000e+00  0.0000000000000000e+00  0.0000000000000000e+00  0.0000000000000000e+00  0.0000000000000000e+00  0.0000000000000000e+00  0.0000000000000000e+00  0.0000000000000000e+00  0.0000000000000000e+00  0.0000000000000000e+00  0.0000000000000000e+00  0.0000000000000000e+00  0.0000000000000000e+00  0.0000000000000000e+00  0.0000000000000000e+00  0.0000000000000000e+00  0.0000000000000000e+00  0.0000000000000000e+00  0.0000000000000000e+00  0.0000000000000000e+00  0.0000000000000000e+00  0.0000000000000000e+00  0.0000000000000000e+00  0.0000000000000000e+00  0.0000000000000000e+00  0.0000000000000000e+00  0.0000000000000000e+00  0.0000000000000000e+00  0.0000000000000000e+00  0.0000000000000000e+00  0.0000000000000000e+00  0.0000000000000000e+00  0.0000000000000000e+00  0.0000000000000000e+00  0.0000000000000000e+00  0.0000000000000000e+00  0.0000000000000000e+00  0.0000000000000000e+00  0.0000000000000000e+00  0.0000000000000000e+00  0.0000000000000000e+00  0.0000000000000000e+00  0.0000000000000000e+00  0.0000000000000000e+00  0.0000000000000000e+00  0.0000000000000000e+00  0.0000000000000000e+00  0.0000000000000000e+00  0.0000000000000000e+00  0.0000000000000000e+00  0.0000000000000000e+00  0.0000000000000000e+00  0.0000000000000000e+00  0.0000000000000000e+00  0.0000000000000000e+00  0.0000000000000000e+00  0.0000000000000000e+00  0.0000000000000000e+00  0.0000000000000000e+00  0.0000000000000000e+00  0.0000000000000000e+00  0.0000000000000000e+00  0.0000000000000000e+00  0.0000000000000000e+00  0.0000000000000000e+00  0.0000000000000000e+00  0.0000000000000000e+00  0.0000000000000000e+00  0.0000000000000000e+00  0.0000000000000000e+00  0.0000000000000000e+00  0.0000000000000000e+00  0.0000000000000000e+00  0.0000000000000000e+00  0.0000000000000000e+00  0.0000000000000000e+00  0.0000000000000000e+00  0.0000000000000000e+00  0.0000000000000000e+00  0.0000000000000000e+00  0.0000000000000000e+00  0.0000000000000000e+00  0.0000000000000000e+00  0.0000000000000000e+00  0.0000000000000000e+00  0.0000000000000000e+00  0.0000000000000000e+00  0.0000000000000000e+00  0.0000000000000000e+00  0.0000000000000000e+00  0.0000000000000000e+00  0.0000000000000000e+00  0.0000000000000000e+00  0.0000000000000000e+00  0.0000000000000000e+00  0.0000000000000000e+00  0.0000000000000000e+00  0.0000000000000000e+00  0.0000000000000000e+00  0.0000000000000000e+00  0.0000000000000000e+00  0.0000000000000000e+00  0.0000000000000000e+00  0.0000000000000000e+00  0.0000000000000000e+00  0.0000000000000000e+00  0.0000000000000000e+00  0.0000000000000000e+00  0.0000000000000000e+00  0.0000000000000000e+00  0.0000000000000000e+00  0.0000000000000000e+00  0.0000000000000000e+00  0.0000000000000000e+00  0.0000000000000000e+00  0.0000000000000000e+00  0.0000000000000000e+00  0.0000000000000000e+00  0.0000000000000000e+00  0.0000000000000000e+00  0.0000000000000000e+00  0.0000000000000000e+00  0.0000000000000000e+00  0.0000000000000000e+00  0.0000000000000000e+00  0.0000000000000000e+00  0.0000000000000000e+00  0.0000000000000000e+00  0.0000000000000000e+00  0.0000000000000000e+00  0.0000000000000000e+00  4.8524855524363940e-02  3.9514064049654810e-02  3.2591338852610459e-02  3.0286448050190696e-02  3.4383746116088909e-02  5.1800097311331887e-02  4.2567328908595999e-02  3.5875260719162222e-02  4.4296668705777871e-02  4.3101032245157649e-02  3.8437677381569245e-02  4.9602240864338856e-02  5.7701371999558777e-02  3.2435031828957614e-02  4.6768910795095493e-02  5.1563074453912332e-02  3.0958220243152351e-02  2.9752472579251284e-02  5.3636267872768165e-02  4.1772084537335510e-02  4.2936535363151701e-02  4.5303946738373881e-02  4.1890685758063373e-02  4.0625776165480333e-02  3.7443031962333465e-02  3.9171939081165119e-02  3.8853223678043468e-02  3.7204342236253955e-02  3.9227490324995590e-02  3.8543748771810958e-02  3.5620792283149905e-02  3.7852330817633104e-02  4.4261930623169007e-02  4.8916939262512518e-02  3.9582499561773628e-02  4.6265734034813918e-02  4.2773139574858766e-02  4.1565146488444643e-02  4.1169376255508788e-02  4.5522915243480566e-02  3.6561582992937103e-02  4.6076702074162708e-02  3.6764526848192203e-02  5.8852141535598007e-02  3.6590753661428999e-02  3.6731513809153862e-02  8.9184778192687955e-02  4.4622584927566336e-02  3.5036211705458814e-02  5.1226712563224218e-02  4.6955833287657713e-02  3.2722462333238410e-02  3.9816366144545638e-02  6.0624337246958204e-02  4.4411893105903662e-02  3.6162069872241173e-02  3.7156165437355150e-02  3.8486955715756617e-02  5.5788797760082234e-02  4.7643350310388743e-02  4.1095622822137620e-02  4.6258339869573846e-02  3.6120660936672462e-27  -1.3176605489804158e-27  -2.6372986567837994e-27  -2.9362108168460089e-27  -1.2753653311509172e-27  -5.3171198070350973e-28  -2.0321714364987855e-28  1.8085996360267492e-27  7.1906140729083666e-27  4.1261161708695383e-27  -7.0167484985372813e-25  -6.6245815334465291e-25  5.4015521946077019e-25  1.1894523859734229e-24  3.7092859748995258e-26  3.0578010194955834e-26  -4.7816544854238829e-26  -3.0032452650303697e-26  -1.1242594419864510e-22  -1.6505401115332500e-22  -4.3275732789418123e-26  -4.9235097613484284e-26  4.7612435023219309e-23  4.7758637954582552e-23  -4.7390397563305956e-27  -3.9751753818508492e-26  -7.5369922783386075e-21  -7.1236226967423293e-21  -4.5758828073082255e-21  -4.8274275084346757e-21  8.3205240422611996e-26  -2.6525236050967863e-26  7.1703370152852752e-30  -8.8439260644784486e-30  -9.0742304118440525e-30  1.6282533565518037e-29  1.9760097898508321e-28  3.9844714482750904e-28  2.8927860714453319e-28  3.1818402392869590e-28  3.5536295176184764e-20  6.3554534427775283e-26  1.2229021121719972e-26  3.8447621568327841e-20  -9.0965132692435046e-30  -9.9263719446381152e-30  -6.2620376936912108e-30  2.3186069458501634e-31  2.4329242558811846e-31  2.3940962526644651e-31  1.4562222962782943e-31  -9.9633773009955131e-30  -6.1356138833894077e-33  -2.3069029960348112e-32  1.1371218595947321e-31  -4.0599790658306468e-33  2.5154672300169176e-32  -6.0625811107663085e-33  1.3756193787294585e-31  -9.9017510953965145e-34  -1.2942976645083153e-33  -4.6819485234748113e-34  -1.9574411251705133e-34  1.4856513525720782e-34  1.3409178655942607e-34  7.7341136358449227e-35  7.3736390561633262e-36  -1.6096916025944122e-33  2.7758150935375780e-20  4.6290894378860236e-26  -1.3627607439603658e-26  1.3821898409839886e-20  1.1675468706016670e-25  -3.4725223967474451e-24  1.3394908227632009e-21  8.8430431557639159e-22  -3.2579681849946098e-24  2.7353286230003728e-26  7.8782701515879702e-26  -5.2876348796995765e-26  -3.8571256120534003e-26  -1.1547888943184016e-23  3.9597122793509233e-22  4.1482013702320451e-22  -1.1338401920034778e-23  -2.5506863943823337e-27  8.8213950738982274e-26  -4.0401746074464229e-27  5.5570511236698201e-27  -6.5558322975918590e-27  8.9114996958673377e-26  1.1270768817669318e-25  -4.0131144295925161e-27  -2.4127903526686508e-27  3.0464790910979398e-26  2.8830735718712362e-26  -1.5704724085804167e-28  -7.7610520160583481e-28  -1.2224676061966660e-27  2.0590619895688122e-28  6.3879512721537982e-28  6.7275887243540695e-29  -1.5133885156158429e-28  -9.2252540359480891e-28  1.2567466286506895e-35  1.8952178939525650e-35  7.5316858121293088e-36  -1.6946038826734508e-36  6.4699460564546490e-36  1.5368864564621750e-36  1.0557458532375422e-35  5.2340217466687337e-37  2.7877468707607173e-20  1.2036498268529269e-25  1.1446643478855785e-25  1.3760368468263824e-20  -1.7862963026755790e-27  4.4955676387492545e-27  4.7956974246991129e-27  -7.1561522384582720e-27  -1.1865849638939225e-26  -6.9838478861778430e-29  -8.1942730659677548e-27  -2.0294422845524564e-26  3.5252783377862726e-30  -1.1192106044030126e-28  -7.3961192969779228e-29  2.8341013136671747e-30  3.4754375468498067e-30  -9.6395380084340204e-29  -1.2779719269591947e-28  1.1569377169788572e-30  -3.7499934079930136e-33  3.6441399224358731e-34  1.2052976309698108e-30  -1.2997730979207433e-32  2.7360644297678711e-31  -1.5412841947783645e-32  -3.6562397875519804e-32  1.2126587474252411e-33  8.1374397124749749e-31  -1.3325625396005122e-32  -1.3655500467458454e-33  2.9198298126245341e-34  -4.4317816478965590e-32  1.2637524448052523e-33  5.2319050580342504e-31  -1.7094969157202342e-32  -3.7014103710557994e-36  -1.7453799547003677e-36  -2.9595981775387393e-36  -3.4662519791843973e-36  3.4840952236025646e-20  -1.2995853835419459e-19  -8.5771485133247950e-20  4.2076950767000894e-19  2.0515162901563168e-19  -1.2097206222322312e-18  -3.1622077325686627e-19  2.8705394394182591e-18  -2.7975271507241083e-19  -4.3099804973813536e-18  4.7474873349141450e-18  -4.6496826159755185e-18  -2.3363936338836836e-17  6.8991206577237813e-17  8.0970997436233395e-17  -3.3342387805541004e-16  -2.1158947226800934e-16  1.1328876337039341e-15  3.8162538436400653e-16  -2.8846908071892564e-15  -2.0353346674224469e-16  -4.7525366276376704e-15  4.9165520873997451e-15  -1.6200971430766241e-15  -1.5863605553389013e-15  7.3808900074096079e-15  -2.5145867121860479e-14  -1.5924052998032697e-14  9.9126087977496285e-14  9.7169958519961840e-15  -1.8521732678823225e-13  5.6053597964503456e-14  -3.7650738750110192e-13  2.9176691539728418e-14  -1.9703582327073049e-13  8.8654756120268858e-13  1.5536384861728345e-13  -2.2293420155092635e-12  7.7802388821871522e-13  -1.2244173984485261e-13  -2.4767512894576193e-12  1.3240151542222138e-11  -1.0637085307353071e-13  -2.1326473063969827e-11  -2.3720650034991895e-11  1.5576241053861537e-11  -4.0435930327637537e-11  -2.6197003851531103e-11  -3.0475887999493625e-13  1.7310816838008293e-11  -4.9867776430713727e-11  -2.3475123245630315e-11  -1.2717079413322006e-12  1.8382142642040555e-11  -2.7278773832295149e-12  -3.2804599190679751e-12  -1.3737043043296021e-11  1.8262691241750623e-11  -1.8308162111250512e-12  -6.7099889426577377e-12  1.4874960780959076e-12  3.6898653770983175e-13  1.1085111438339556e-11  -8.5790469853346598e-12  9.5890386456801786e-13  3.5615961771824368e-12  -1.4405375385446093e-11  2.2790838307826490e-12  -9.7888638990576900e-13  2.8368204245671864e-13  -4.9727541905947345e-12  2.1933222994639485e-12  -8.9154004634076163e-12  1.4121263287751692e-13  1.4211340123447553e-12  2.1923268053144573e-12  -3.5655713138384433e-12  2.5691766748206260e-11  -9.9231807840439499e-12  4.6010829524479527e-11  -1.3699263599139155e-11  5.3262929032341059e-11  3.2758502108017495e-12  -1.4243329067508425e-11  5.2221826133319216e-11  -1.3903441326696711e-11  5.2099280269389129e-11  -1.4170564420560270e-11  5.2926238692642779e-11  -1.3636900299808110e-11  4.6054086785858778e-11  -1.0050902010208553e-11  2.6443274478670548e-11  -3.7217280952146829e-12  1.9323861235372989e-12  3.2816588866894031e-12  -1.3958259003618208e-10  2.5455812210708877e+00  1.9658884489134120e-12  -1.3155928825017406e-11  3.9195831273062841e-12  -1.2890384679275341e-11  2.6528475097851185e+00  2.4092063715801873e-12  -4.4099877795457252e-12  2.5363703096003634e+00  1.7711514971908543e-13  1.8657252019815298e-12  1.7128430597287373e-12  -1.0303864849619682e-11  2.3502651675068886e-12  -4.7667743961535213e-12  -1.9087978084067676e-10  -3.2979193694929023e-13  1.8418872108183806e-13  2.4651387681935769e-12  1.3468909069750796e-12  -1.3791933205631773e-11  3.1901370388111551e-12  -6.8567463158906009e-12  4.4375324463401631e-11  5.1244784398098420e-12  1.7259855978951750e-12  -1.0570439608791145e-11  2.9625875560110129e-11  2.7853958715477299e-11  -3.0701348954099331e-12  -2.6888723523311252e-12  -2.9985253669777458e-11  2.4132772478577033e-11  -4.4953667952473868e-12  2.5560691673223777e-12  -4.7095606271934684e-11  1.4858606367055507e-11  -3.5626672997872012e-12  2.0490834337614780e-12  -3.4326993963274618e-11  1.3014554670039678e-11  -1.6575006049545907e-11  -2.7055288141752544e-11  7.5549931108386514e-13  1.4723447917811249e-11  -2.5695192105199789e-11  -3.4307432836227157e-11  1.0559581958903174e-12  1.9258839710807615e-11  -3.8108173685882987e-11  -4.0370640632636825e-11  3.3822510291675275e-10  -1.0485604541802703e-10  3.4686055406800132e-11  2.7917372521622768e-10  -1.0158755082523346e-11  -1.5824909589792658e-10  7.0790166175934963e-10  -9.7376214214044218e-11  -3.1623874201327790e-10  3.3497091107649844e-10  -1.7630441071569443e-09  3.1759423405292729e-10  5.2655203743475585e-10  -9.3929246696394442e-10  5.5421597257143658e-11  4.6164248768931361e-10  -2.0805903095598147e-09  4.1347708096177011e-10  4.8324765835152758e-11  -7.7767595775681330e-10  6.2573503305537541e-09  -2.5229936708489741e-09  1.1102192925964084e-08  -2.6965676916837453e-09  6.0759986521350902e-09  3.0403687190365318e-10  -1.0068903652505486e-08  5.1679243829765719e-09  -2.7534847974784808e-08  8.9690880884890198e-09  -3.7318248763745630e-08  1.0594689848535709e-08  -4.0077994959511261e-08  1.0586071205186005e-08  -3.7174718845075576e-08  8.7248275956941279e-09  -2.6310874109029865e-08  5.0685656244096692e-09  -1.1416173832759501e-08  -1.8825311912312449e-09  -8.3021170223851089e-10  3.6490831790488851e-10  9.5299173577290827e-11  -6.0274814148264450e-11  2.9172260275776941e-12  6.9893068336002611e-12  -6.6547246160078654e-12  1.9364314990552680e-13  2.8335946898330760e-12  -1.2437678139251798e-11  -4.7751675917248718e-13  4.5644085639234469e-10  3.2651064945795303e-12  -1.0225753790059059e-11  1.8589517136633666e-12  -3.3190772929991323e-12  1.0211854861861419e-13  1.5019760589894933e-12  -5.0334254033072010e-13  1.3507406