<?xml version="1.0"?>
<VTKFile type="UnstructuredGrid"  version="0.1"  >
<UnstructuredGrid>
<Piece  NumberOfPoints="11902" NumberOfCells="23402">
<Points>
<DataArray  type="Float64"  NumberOfComponents="3"  format="ascii">-5 -5 0  5 -5 0  5 5 0  -5 5 0  1.265515895604602 0.001279147315371278 0  -4.9 -5 0  -4.8 -5 0  -4.7 -5 0  -4.6 -5 0  -4.5 -5 0  -4.4 -5 0  -4.3 -5 0  -4.2 -5 0  -4.1 -5 0  -4 -5 0  -3.9 -5 0  -3.8 -5 0  -3.7 -5 0  -3.6 -5 0  -3.5 -5 0  -3.4 -5 0  -3.3 -5 0  -3.2 -5 0  -3.1 -5 0  -3 -5 0  -2.9 -5 0  -2.8 -5 0  -2.7 -5 0  -2.6 -5 0  -2.5 -5 0  -2.4 -5 0  -2.3 -5 0  -2.2 -5 0  -2.1 -5 0  -2 -5 0  -1.9 -5 0  -1.8 -5 0  -1.7 -5 0  -1.6 -5 0  -1.5 -5 0  -1.4 -5 0  -1.3 -5 0  -1.2 -5 0  -1.1 -5 0  -1 -5 0  -0.9000000000000004 -5 0  -0.7999999999999998 -5 0  -0.7000000000000002 -5 0  -0.5999999999999996 -5 0  -0.5 -5 0  -0.4000000000000004 -5 0  -0.2999999999999998 -5 0  -0.2000000000000002 -5 0  -0.09999999999999964 -5 0  0 -5 0  0.09999999999999964 -5 0  0.2000000000000002 -5 0  0.2999999999999998 -5 0  0.4000000000000004 -5 0  0.5 -5 0  0.5999999999999996 -5 0  0.7000000000000002 -5 0  0.7999999999999998 -5 0  0.9000000000000004 -5 0  1 -5 0  1.1 -5 0  1.2 -5 0  1.3 -5 0  1.4 -5 0  1.5 -5 0  1.6 -5 0  1.7 -5 0  1.8 -5 0  1.9 -5 0  2 -5 0  2.1 -5 0  2.2 -5 0  2.3 -5 0  2.4 -5 0  2.5 -5 0  2.6 -5 0  2.7 -5 0  2.8 -5 0  2.9 -5 0  3 -5 0  3.1 -5 0  3.199999999999999 -5 0  3.300000000000001 -5 0  3.4 -5 0  3.5 -5 0  3.6 -5 0  3.699999999999999 -5 0  3.800000000000001 -5 0  3.9 -5 0  4 -5 0  4.1 -5 0  4.199999999999999 -5 0  4.300000000000001 -5 0  4.4 -5 0  4.5 -5 0  4.6 -5 0  4.699999999999999 -5 0  4.800000000000001 -5 0  4.9 -5 0  5 -4.9 0  5 -4.8 0  5 -4.7 0  5 -4.6 0  5 -4.5 0  5 -4.4 0  5 -4.3 0  5 -4.2 0  5 -4.1 0  5 -4 0  5 -3.9 0  5 -3.8 0  5 -3.7 0  5 -3.6 0  5 -3.5 0  5 -3.4 0  5 -3.3 0  5 -3.2 0  5 -3.1 0  5 -3 0  5 -2.9 0  5 -2.8 0  5 -2.7 0  5 -2.6 0  5 -2.5 0  5 -2.4 0  5 -2.3 0  5 -2.2 0  5 -2.1 0  5 -2 0  5 -1.9 0  5 -1.8 0  5 -1.7 0  5 -1.6 0  5 -1.5 0  5 -1.4 0  5 -1.3 0  5 -1.2 0  5 -1.1 0  5 -1 0  5 -0.9000000000000004 0  5 -0.7999999999999998 0  5 -0.7000000000000002 0  5 -0.5999999999999996 0  5 -0.5 0  5 -0.4000000000000004 0  5 -0.2999999999999998 0  5 -0.2000000000000002 0  5 -0.09999999999999964 0  5 0 0  5 0.09999999999999964 0  5 0.2000000000000002 0  5 0.2999999999999998 0  5 0.4000000000000004 0  5 0.5 0  5 0.5999999999999996 0  5 0.7000000000000002 0  5 0.7999999999999998 0  5 0.9000000000000004 0  5 1 0  5 1.1 0  5 1.2 0  5 1.3 0  5 1.4 0  5 1.5 0  5 1.6 0  5 1.7 0  5 1.8 0  5 1.9 0  5 2 0  5 2.1 0  5 2.2 0  5 2.3 0  5 2.4 0  5 2.5 0  5 2.6 0  5 2.7 0  5 2.8 0  5 2.9 0  5 3 0  5 3.1 0  5 3.199999999999999 0  5 3.300000000000001 0  5 3.4 0  5 3.5 0  5 3.6 0  5 3.699999999999999 0  5 3.800000000000001 0  5 3.9 0  5 4 0  5 4.1 0  5 4.199999999999999 0  5 4.300000000000001 0  5 4.4 0  5 4.5 0  5 4.6 0  5 4.699999999999999 0  5 4.800000000000001 0  5 4.9 0  4.9 5 0  4.8 5 0  4.7 5 0  4.6 5 0  4.5 5 0  4.4 5 0  4.3 5 0  4.2 5 0  4.1 5 0  4 5 0  3.9 5 0  3.8 5 0  3.7 5 0  3.6 5 0  3.5 5 0  3.4 5 0  3.3 5 0  3.2 5 0  3.1 5 0  3 5 0  2.9 5 0  2.8 5 0  2.7 5 0  2.6 5 0  2.5 5 0  2.4 5 0  2.3 5 0  2.2 5 0  2.1 5 0  2 5 0  1.9 5 0  1.8 5 0  1.7 5 0  1.6 5 0  1.5 5 0  1.4 5 0  1.3 5 0  1.2 5 0  1.1 5 0  1 5 0  0.9000000000000004 5 0  0.7999999999999998 5 0  0.7000000000000002 5 0  0.5999999999999996 5 0  0.5 5 0  0.4000000000000004 5 0  0.2999999999999998 5 0  0.2000000000000002 5 0  0.09999999999999964 5 0  0 5 0  -0.09999999999999964 5 0  -0.2000000000000002 5 0  -0.2999999999999998 5 0  -0.4000000000000004 5 0  -0.5 5 0  -0.5999999999999996 5 0  -0.7000000000000002 5 0  -0.7999999999999998 5 0  -0.9000000000000004 5 0  -1 5 0  -1.1 5 0  -1.2 5 0  -1.3 5 0  -1.4 5 0  -1.5 5 0  -1.6 5 0  -1.7 5 0  -1.8 5 0  -1.9 5 0  -2 5 0  -2.1 5 0  -2.2 5 0  -2.3 5 0  -2.4 5 0  -2.5 5 0  -2.6 5 0  -2.7 5 0  -2.8 5 0  -2.9 5 0  -3 5 0  -3.1 5 0  -3.199999999999999 5 0  -3.300000000000001 5 0  -3.4 5 0  -3.5 5 0  -3.6 5 0  -3.699999999999999 5 0  -3.800000000000001 5 0  -3.9 5 0  -4 5 0  -4.1 5 0  -4.199999999999999 5 0  -4.300000000000001 5 0  -4.4 5 0  -4.5 5 0  -4.6 5 0  -4.699999999999999 5 0  -4.800000000000001 5 0  -4.9 5 0  -5 4.9 0  -5 4.8 0  -5 4.7 0  -5 4.6 0  -5 4.5 0  -5 4.4 0  -5 4.3 0  -5 4.2 0  -5 4.1 0  -5 4 0  -5 3.9 0  -5 3.8 0  -5 3.7 0  -5 3.6 0  -5 3.5 0  -5 3.4 0  -5 3.3 0  -5 3.2 0  -5 3.1 0  -5 3 0  -5 2.9 0  -5 2.8 0  -5 2.7 0  -5 2.6 0  -5 2.5 0  -5 2.4 0  -5 2.3 0  -5 2.2 0  -5 2.1 0  -5 2 0  -5 1.9 0  -5 1.8 0  -5 1.7 0  -5 1.6 0  -5 1.5 0  -5 1.4 0  -5 1.3 0  -5 1.2 0  -5 1.1 0  -5 1 0  -5 0.9000000000000004 0  -5 0.7999999999999998 0  -5 0.7000000000000002 0  -5 0.5999999999999996 0  -5 0.5 0  -5 0.4000000000000004 0  -5 0.2999999999999998 0  -5 0.2000000000000002 0  -5 0.09999999999999964 0  -5 0 0  -5 -0.09999999999999964 0  -5 -0.2000000000000002 0  -5 -0.2999999999999998 0  -5 -0.4000000000000004 0  -5 -0.5 0  -5 -0.5999999999999996 0  -5 -0.7000000000000002 0  -5 -0.7999999999999998 0  -5 -0.9000000000000004 0  -5 -1 0  -5 -1.1 0  -5 -1.2 0  -5 -1.3 0  -5 -1.4 0  -5 -1.5 0  -5 -1.6 0  -5 -1.7 0  -5 -1.8 0  -5 -1.9 0  -5 -2 0  -5 -2.1 0  -5 -2.2 0  -5 -2.3 0  -5 -2.4 0  -5 -2.5 0  -5 -2.6 0  -5 -2.7 0  -5 -2.8 0  -5 -2.9 0  -5 -3 0  -5 -3.1 0  -5 -3.199999999999999 0  -5 -3.300000000000001 0  -5 -3.4 0  -5 -3.5 0  -5 -3.6 0  -5 -3.699999999999999 0  -5 -3.800000000000001 0  -5 -3.9 0  -5 -4 0  -5 -4.1 0  -5 -4.199999999999999 0  -5 -4.300000000000001 0  -5 -4.4 0  -5 -4.5 0  -5 -4.6 0  -5 -4.699999999999999 0  -5 -4.800000000000001 0  -5 -4.9 0  1.257771166815677 0.09175148054544628 0  1.235633446825716 0.1892978888807411 0  1.201489410964583 0.2863784742521591 0  1.158824814404569 0.3752619885031647 0  1.09990236306579 0.4665176565213448 0  1.032715415239369 0.5495832389348624 0  0.9544589746603215 0.6302688948446477 0  0.8673807622529822 0.7049512105115826 0  0.7755619727588273 0.7698630333831825 0  0.6742551981686736 0.8273768893149629 0  0.5602173681703387 0.8796569894751778 0  0.4458910434888719 0.9247798634037093 0  0.3365755827450291 0.9560269620965577 0  0.2087969415125834 0.9793950008818577 0  0.08656145422786382 0.9971799926403325 0  -0.02594788870324442 1.000861971737895 0  -0.1435889374176564 0.9875927905600133 0  -0.275124299385504 0.9671325126119757 0  -0.3959529512866809 0.9426656464597742 0  -0.5045406414181128 0.9081556699443606 0  -0.6135548454594397 0.8618652455835765 0  -0.715410584000529 0.8064548368692246 0  -0.8095279494247808 0.7425596963943878 0  -0.9012373657751765 0.6689149385498508 0  -0.9880825297225484 0.5883997870371609 0  -1.062990781721534 0.5063192232409622 0  -1.125566090886128 0.4224515304817033 0  -1.182130389129293 0.3270031363139571 0  -1.219044045646857 0.2413748916672492 0  -1.243110942445163 0.148255154768868 0  -1.253048844896242 0.05306652077688726 0  -1.252963517347343 -0.05077947756893218 0  -1.242871132539516 -0.1452234383256064 0  -1.218686527932274 -0.2347175449890421 0  -1.176022041640194 -0.3307147072701628 0  -1.125857472970861 -0.4236834865774918 0  -1.0655222556658 -0.5059070246824315 0  -0.9907323991523443 -0.5873989576513011 0  -0.9044838045997295 -0.6668442999828819 0  -0.813965080595042 -0.737583058698333 0  -0.7191315879315506 -0.797829829021681 0  -0.6148930593311197 -0.8514541518829513 0  -0.4978315866567317 -0.9013067872128718 0  -0.385828427222707 -0.9410825372594424 0  -0.2718402174942854 -0.9669921740991456 0  -0.1416880115174315 -0.9877208390277536 0  -0.02740616472129401 -1.000065476028557 0  0.08429934669780323 -0.9927585489800298 0  0.2160945973968338 -0.9746509246799957 0  0.3398619901339751 -0.9539492351487578 0  0.4502487636017377 -0.9234046801344129 0  0.5632393227801081 -0.8788133958040522 0  0.6756954510219786 -0.8270950297398655 0  0.7750917570675431 -0.7712138848680491 0  0.8656549217550115 -0.7071960315556122 0  0.9508262392022437 -0.6316485616347501 0  1.030506784016745 -0.5478161087476258 0  1.102244957346995 -0.4640268669765749 0  1.159869017058126 -0.3752404857401826 0  1.203393373662144 -0.2844631077180063 0  1.236385643327011 -0.1888197869538461 0  1.258175562386635 -0.09210873834769839 0  -2.448503267318792 4.918011733847042 0  -2.448371772404409 -4.910380441169742 0  4.910299920143376 2.447813596434838 0  4.918437498933304 -2.449282890799129 0  2.446091330446893 -4.895592480033786 0  2.440527021500487 4.89935919262351 0  -4.910327179436864 -2.447840959753969 0  -4.910324503796438 2.447845232264618 0  -1.748455043870771 4.910853270380739 0  -1.744243661629318 -4.914300420679503 0  4.920445076550461 1.743996206262127 0  4.908952092132029 -1.747747085425791 0  -4.909247141686145 -1.747482198746063 0  -4.910071318178201 1.74722832606347 0  1.745723120793303 4.904697295900637 0  1.747128711703031 -4.892820712418 0  -1.148778317533793 4.908601354944712 0  -1.129640367121737 -4.91653512886037 0  -4.908913956799638 -1.147825586893418 0  -4.90873174764607 1.1476264634968 0  1.1437762763242 -4.91271026865792 0  1.148787412346289 4.908587173634642 0  4.90905326382179 1.14610005227433 0  4.91991856584606 -1.151894518104078 0  -0.5466354672297493 -4.909771547586583 0  -0.5464221801027475 4.918480404736187 0  -4.907605707718642 -0.5486516321329558 0  -4.907629701378493 0.5472101723397936 0  4.906921406537912 -0.5489695038858174 0  4.918620124022163 0.5457337883955991 0  0.5424145018708267 -4.896611150476334 0  0.5511485759252688 4.91529367637533 0  -4.911795205527703 -3.048213045157901 0  4.918373190955099 3.046234347368721 0  4.911302409861115 -3.048187746948001 0  -4.912643776388742 3.04530554394458 0  3.055235977457243 -4.917294788332609 0  -3.048561697373214 -4.91122397262766 0  3.052130588840044 4.913303507755268 0  -3.048008112527215 4.912114835936026 0  -4.906698577803441 -0.04990194392524927 0  0.04511766057894182 -4.911719495174415 0  0.04956423832797456 4.918767254987812 0  4.913778938792595 -0.05128490295664723 0  3.545568224868831 -4.918965538946243 0  -3.548844267307042 4.911860
[...]
<PointData  Scalars="f_30"> 
<DataArray  type="Float64"  Name="f_30"  format="ascii">0.0000000000000000e+00  0.0000000000000000e+00  0.0000000000000000e+00  0.0000000000000000e+00  3.0051687696399088e-02  0.0000000000000000e+00  0.0000000000000000e+00  0.0000000000000000e+00  0.0000000000000000e+00  0.0000000000000000e+00  0.0000000000000000e+00  0.0000000000000000e+00  0.0000000000000000e+00  0.0000000000000000e+00  0.0000000000000000e+00  0.0000000000000000e+00  0.0000000000000000e+00  0.0000000000000000e+00  0.0000000000000000e+00  0.0000000000000000e+00  0.0000000000000000e+00  0.0000000000000000e+00  0.0000000000000000e+00  0.0000000000000000e+00  0.0000000000000000e+00  0.0000000000000000e+00  0.0000000000000000e+00  0.0000000000000000e+00  0.0000000000000000e+00  0.0000000000000000e+00  0.0000000000000000e+00  0.0000000000000000e+00  0.0000000000000000e+00  0.0000000000000000e+00  0.0000000000000000e+00  0.0000000000000000e+00  0.0000000000000000e+00  0.0000000000000000e+00  0.0000000000000000e+00  0.0000000000000000e+00  0.0000000000000000e+00  0.0000000000000000e+00  0.0000000000000000e+00  0.0000000000000000e+00  0.0000000000000000e+00  0.0000000000000000e+00  0.0000000000000000e+00  0.0000000000000000e+00  0.0000000000000000e+00  0.0000000000000000e+00  0.0000000000000000e+00  0.0000000000000000e+00  0.0000000000000000e+00  0.0000000000000000e+00  0.0000000000000000e+00  0.0000000000000000e+00  0.0000000000000000e+00  0.0000000000000000e+00  0.0000000000000000e+00  0.0000000000000000e+00  0.0000000000000000e+00  0.0000000000000000e+00  0.0000000000000000e+00  0.0000000000000000e+00  0.0000000000000000e+00  0.0000000000000000e+00  0.0000000000000000e+00  0.0000000000000000e+00  0.0000000000000000e+00  0.0000000000000000e+00  0.0000000000000000e+00  0.0000000000000000e+00  0.0000000000000000e+00  0.0000000000000000e+00  0.0000000000000000e+00  0.0000000000000000e+00  0.0000000000000000e+00  0.0000000000000000e+00  0.0000000000000000e+00  0.0000000000000000e+00  0.0000000000000000e+00  0.0000000000000000e+00  0.0000000000000000e+00  0.0000000000000000e+00  0.0000000000000000e+00  0.0000000000000000e+00  0.0000000000000000e+00  0.0000000000000000e+00  0.0000000000000000e+00  0.0000000000000000e+00  0.0000000000000000e+00  0.0000000000000000e+00  0.0000000000000000e+00  0.0000000000000000e+00  0.0000000000000000e+00  0.0000000000000000e+00  0.0000000000000000e+00  0.0000000000000000e+00  0.0000000000000000e+00  0.0000000000000000e+00  0.0000000000000000e+00  0.0000000000000000e+00  0.0000000000000000e+00  0.0000000000000000e+00  0.0000000000000000e+00  0.0000000000000000e+00  0.0000000000000000e+00  0.0000000000000000e+00  0.0000000000000000e+00  0.0000000000000000e+00  0.0000000000000000e+00  0.0000000000000000e+00  0.0000000000000000e+00  0.0000000000000000e+00  0.0000000000000000e+00  0.0000000000000000e+00  0.0000000000000000e+00  0.0000000000000000e+00  0.0000000000000000e+00  0.0000000000000000e+00  0.0000000000000000e+00  0.0000000000000000e+00  0.0000000000000000e+00  0.0000000000000000e+00  0.0000000000000000e+00  0.0000000000000000e+00  0.0000000000000000e+00  0.0000000000000000e+00  0.0000000000000000e+00  0.0000000000000000e+00  0.0000000000000000e+00  0.0000000000000000e+00  0.0000000000000000e+00  0.0000000000000000e+00  0.0000000000000000e+00  0.0000000000000000e+00  0.0000000000000000e+00  0.0000000000000000e+00  0.0000000000000000e+00  0.0000000000000000e+00  0.0000000000000000e+00  0.0000000000000000e+00  0.0000000000000000e+00  0.0000000000000000e+00  0.0000000000000000e+00  0.0000000000000000e+00  0.0000000000000000e+00  0.0000000000000000e+00  0.0000000000000000e+00  0.0000000000000000e+00  0.0000000000000000e+00  0.0000000000000000e+00  0.0000000000000000e+00  0.0000000000000000e+00  0.0000000000000000e+00  0.0000000000000000e+00  0.0000000000000000e+00  0.0000000000000000e+00  0.0000000000000000e+00  0.0000000000000000e+00  0.0000000000000000e+00  0.0000000000000000e+00  0.0000000000000000e+00  0.0000000000000000e+00  0.0000000000000000e+00  0.0000000000000000e+00  0.0000000000000000e+00  0.0000000000000000e+00  0.0000000000000000e+00  0.0000000000000000e+00  0.0000000000000000e+00  0.0000000000000000e+00  0.0000000000000000e+00  0.0000000000000000e+00  0.0000000000000000e+00  0.0000000000000000e+00  0.0000000000000000e+00  0.0000000000000000e+00  0.0000000000000000e+00  0.0000000000000000e+00  0.0000000000000000e+00  0.0000000000000000e+00  0.0000000000000000e+00  0.0000000000000000e+00  0.0000000000000000e+00  0.0000000000000000e+00  0.0000000000000000e+00  0.0000000000000000e+00  0.0000000000000000e+00  0.0000000000000000e+00  0.0000000000000000e+00  0.0000000000000000e+00  0.0000000000000000e+00  0.0000000000000000e+00  0.0000000000000000e+00  0.0000000000000000e+00  0.0000000000000000e+00  0.0000000000000000e+00  0.0000000000000000e+00  0.0000000000000000e+00  0.0000000000000000e+00  0.0000000000000000e+00  0.0000000000000000e+00  0.0000000000000000e+00  0.0000000000000000e+00  0.0000000000000000e+00  0.0000000000000000e+00  0.0000000000000000e+00  0.0000000000000000e+00  0.0000000000000000e+00  0.0000000000000000e+00  0.0000000000000000e+00  0.0000000000000000e+00  0.0000000000000000e+00  0.0000000000000000e+00  0.0000000000000000e+00  0.0000000000000000e+00  0.0000000000000000e+00  0.0000000000000000e+00  0.0000000000000000e+00  0.0000000000000000e+00  0.0000000000000000e+00  0.0000000000000000e+00  0.0000000000000000e+00  0.0000000000000000e+00  0.0000000000000000e+00  0.0000000000000000e+00  0.0000000000000000e+00  0.0000000000000000e+00  0.0000000000000000e+00  0.0000000000000000e+00  0.0000000000000000e+00  0.0000000000000000e+00  0.0000000000000000e+00  0.0000000000000000e+00  0.0000000000000000e+00  0.0000000000000000e+00  0.0000000000000000e+00  0.0000000000000000e+00  0.0000000000000000e+00  0.0000000000000000e+00  0.0000000000000000e+00  0.0000000000000000e+00  0.0000000000000000e+00  0.0000000000000000e+00  0.0000000000000000e+00  0.0000000000000000e+00  0.0000000000000000e+00  0.0000000000000000e+00  0.0000000000000000e+00  0.0000000000000000e+00  0.0000000000000000e+00  0.0000000000000000e+00  0.0000000000000000e+00  0.0000000000000000e+00  0.0000000000000000e+00  0.0000000000000000e+00  0.0000000000000000e+00  0.0000000000000000e+00  0.0000000000000000e+00  0.0000000000000000e+00  0.0000000000000000e+00  0.0000000000000000e+00  0.0000000000000000e+00  0.0000000000000000e+00  0.0000000000000000e+00  0.0000000000000000e+00  0.0000000000000000e+00  0.0000000000000000e+00  0.0000000000000000e+00  0.0000000000000000e+00  0.0000000000000000e+00  0.0000000000000000e+00  0.0000000000000000e+00  0.0000000000000000e+00  0.0000000000000000e+00  0.0000000000000000e+00  0.0000000000000000e+00  0.0000000000000000e+00  0.0000000000000000e+00  0.0000000000000000e+00  0.0000000000000000e+00  0.0000000000000000e+00  0.0000000000000000e+00  0.0000000000000000e+00  0.0000000000000000e+00  0.0000000000000000e+00  0.0000000000000000e+00  0.0000000000000000e+00  0.0000000000000000e+00  0.0000000000000000e+00  0.0000000000000000e+00  0.0000000000000000e+00  0.0000000000000000e+00  0.0000000000000000e+00  0.0000000000000000e+00  0.0000000000000000e+00  0.0000000000000000e+00  0.0000000000000000e+00  0.0000000000000000e+00  0.0000000000000000e+00  0.0000000000000000e+00  0.0000000000000000e+00  0.0000000000000000e+00  0.0000000000000000e+00  0.0000000000000000e+00  0.0000000000000000e+00  0.0000000000000000e+00  0.0000000000000000e+00  0.0000000000000000e+00  0.0000000000000000e+00  0.0000000000000000e+00  0.0000000000000000e+00  0.0000000000000000e+00  0.0000000000000000e+00  0.0000000000000000e+00  0.0000000000000000e+00  0.0000000000000000e+00  0.0000000000000000e+00  0.0000000000000000e+00  0.0000000000000000e+00  0.0000000000000000e+00  0.0000000000000000e+00  0.0000000000000000e+00  0.0000000000000000e+00  0.0000000000000000e+00  0.0000000000000000e+00  0.0000000000000000e+00  0.0000000000000000e+00  0.0000000000000000e+00  0.0000000000000000e+00  0.0000000000000000e+00  0.0000000000000000e+00  0.0000000000000000e+00  0.0000000000000000e+00  0.0000000000000000e+00  0.0000000000000000e+00  0.0000000000000000e+00  0.0000000000000000e+00  0.0000000000000000e+00  0.0000000000000000e+00  0.0000000000000000e+00  0.0000000000000000e+00  0.0000000000000000e+00  0.0000000000000000e+00  0.0000000000000000e+00  0.0000000000000000e+00  0.0000000000000000e+00  0.0000000000000000e+00  0.0000000000000000e+00  0.0000000000000000e+00  0.0000000000000000e+00  0.0000000000000000e+00  0.0000000000000000e+00  0.0000000000000000e+00  0.0000000000000000e+00  0.0000000000000000e+00  0.0000000000000000e+00  0.0000000000000000e+00  0.0000000000000000e+00  0.0000000000000000e+00  0.0000000000000000e+00  0.0000000000000000e+00  0.0000000000000000e+00  0.0000000000000000e+00  0.0000000000000000e+00  0.0000000000000000e+00  0.0000000000000000e+00  0.0000000000000000e+00  0.0000000000000000e+00  0.0000000000000000e+00  0.0000000000000000e+00  0.0000000000000000e+00  0.0000000000000000e+00  0.0000000000000000e+00  0.0000000000000000e+00  0.0000000000000000e+00  0.0000000000000000e+00  0.0000000000000000e+00  0.0000000000000000e+00  0.0000000000000000e+00  0.0000000000000000e+00  0.0000000000000000e+00  0.0000000000000000e+00  0.0000000000000000e+00  0.0000000000000000e+00  0.0000000000000000e+00  0.0000000000000000e+00  0.0000000000000000e+00  0.0000000000000000e+00  0.0000000000000000e+00  0.0000000000000000e+00  0.0000000000000000e+00  0.0000000000000000e+00  0.0000000000000000e+00  0.0000000000000000e+00  0.0000000000000000e+00  0.0000000000000000e+00  0.0000000000000000e+00  0.0000000000000000e+00  0.0000000000000000e+00  3.1002712076184907e-02  2.4771027367442865e-02  1.8773513647409080e-02  2.1228338801294998e-02  2.3016488392747978e-02  2.5556785740722111e-02  2.7814424598473796e-02  2.0372796311245910e-02  2.4677001770285666e-02  2.7696923257679425e-02  1.7124914572269254e-02  3.0707127767519257e-02  3.8542484689163478e-02  9.4322382982614094e-03  2.9794966864040321e-02  3.4621604506726224e-02  9.8284645676563424e-03  1.5530910587273164e-02  3.1029051576285799e-02  2.7273838632078759e-02  3.0004468673950811e-02  2.6177712208914818e-02  2.4014065129590381e-02  2.2860572176047322e-02  1.8937805629602945e-02  2.0143515877422632e-02  2.2453777475250368e-02  2.2908140876461792e-02  2.6785390450275906e-02  2.3440856190695480e-02  1.9952294458529297e-02  2.1520261802370041e-02  1.9002329807331280e-02  2.7511060883510935e-02  1.6673534588765509e-02  2.8701535695996261e-02  2.3623201949209013e-02  2.1238354930367940e-02  2.6381392350871963e-02  2.7051265288339239e-02  1.6463053967234364e-02  2.2899340929938908e-02  1.6192672227454581e-02  3.8960774907003642e-02  2.2704042365351600e-02  1.3255724639959190e-02  5.8177641290171653e-02  2.7569656101792388e-02  7.6919847773937915e-03  3.3295965616337415e-02  3.1098454034478640e-02  1.6353424030550831e-02  2.7794459482249855e-02  3.4917361032271145e-02  3.0381621571931874e-02  2.0163899962039690e-02  1.2206974105702699e-02  2.7892035975586902e-02  3.6103920120039497e-02  2.7460577943828408e-02  2.3388172091512480e-02  2.8854805434105592e-02  3.6120482777543741e-27  -1.3176447487357207e-27  -2.6372986244103646e-27  -2.9362107343475780e-27  -1.2753401495775831e-27  -5.3165946643101488e-28  -2.0321713209870312e-28  1.8085996426597785e-27  7.1905346449873033e-27  4.1261051746369819e-27  -7.0167484388250684e-25  -6.6245813631396880e-25  5.4015522911632607e-25  1.1894523966659823e-24  3.7093460214697535e-26  3.0578373141146923e-26  -4.7817337790832717e-26  -3.0032638341981719e-26  -1.1242594561207401e-22  -1.6505401297976063e-22  -4.3276111740188206e-26  -4.9235524921880716e-26  4.7612434427954283e-23  4.7758636764963902e-23  -4.7392216042254648e-27  -3.9752159115672628e-26  -7.5369923237167218e-21  -7.1236227145754054e-21  -4.5758828063431924e-21  -4.8274275360389039e-21  8.3206763599588111e-26  -2.6525667598622490e-26  7.1703364702395007e-30  -8.8439255698269010e-30  -9.0742299740866939e-30  1.6282533006940192e-29  1.9760131187083263e-28  3.9844730736027284e-28  2.8927916878001270e-28  3.1818418856421347e-28  3.5536294990047457e-20  6.3555784306478067e-26  1.2229147610446122e-26  3.8447621787336746e-20  -9.0965122897002711e-30  -9.9263712215948121e-30  -6.2620364045135927e-30  2.3186068997158472e-31  2.4329242348973890e-31  2.3940961913662708e-31  1.4562222879848905e-31  -9.9633774567866705e-30  -6.1356137288322945e-33  -2.3069040466466531e-32  1.1371218809875301e-31  -4.0599791770093946e-33  2.5154658069446031e-32  -6.0625809379613841e-33  1.3756192832731376e-31  -9.9017527687053430e-34  -1.2942977203992392e-33  -4.6819490045708049e-34  -1.9574415024084498e-34  1.4856513231581264e-34  1.3409178438918365e-34  7.7341140703560069e-35  7.3736449464279317e-36  -1.6096916293589720e-33  2.7758151098701188e-20  4.6291711749065160e-26  -1.3627614122689675e-26  1.3821898603874686e-20  1.1675543197350355e-25  -3.4725221587437836e-24  1.3394908258134662e-21  8.8430431897122529e-22  -3.2579679034065768e-24  2.7353653257142656e-26  7.8782462750830024e-26  -5.2877805364265064e-26  -3.8571595269579726e-26  -1.1547889001466081e-23  3.9597123426653949e-22  4.1482014481229852e-22  -1.1338401965811580e-23  -2.5504058955834249e-27  8.8214527191931590e-26  -4.0401680651228305e-27  5.5568505577256267e-27  -6.5560485502560097e-27  8.9114994607760888e-26  1.1270768572397628e-25  -4.0131668455657644e-27  -2.4128227356599812e-27  3.0464792176652205e-26  2.8830737185479352e-26  -1.5704723420974029e-28  -7.7610594935924088e-28  -1.2224602730419105e-27  2.0590619422353177e-28  6.3879531147592185e-28  6.7275882718149902e-29  -1.5133884620397675e-28  -9.2252204709116001e-28  1.2567466421144863e-35  1.8952179880817899e-35  7.5316855987156871e-36  -1.6946037698494367e-36  6.4699458856794436e-36  1.5368866489512743e-36  1.0557458800263747e-35  5.2340242616877076e-37  2.7877468766793667e-20  1.2036750305635295e-25  1.1446733925896015e-25  1.3760368736029722e-20  -1.7862905598049492e-27  4.4955673778537181e-27  4.7956970398451567e-27  -7.1561500527181125e-27  -1.1865849355534491e-26  -6.9819331303641757e-29  -8.1942408262250083e-27  -2.0294422556446276e-26  3.5252782491676939e-30  -1.1192112044821391e-28  -7.3961221338981664e-29  2.8341012862510638e-30  3.4754374897180983e-30  -9.6395371693357219e-29  -1.2779726780423862e-28  1.1569377027034673e-30  -3.7499933261696896e-33  3.6441397479755875e-34  1.2052974999410000e-30  -1.2997731638114198e-32  2.7360646719153549e-31  -1.5412842506059965e-32  -3.6562396451930124e-32  1.2126587239394742e-33  8.1374393212137188e-31  -1.3325626075228249e-32  -1.3655503819570731e-33  2.9198296844309093e-34  -4.4317815046484425e-32  1.2637524257766665e-33  5.2319041783223238e-31  -1.7094969309188224e-32  -3.7014104233749615e-36  -1.7453799016539006e-36  -2.9595981752757375e-36  -3.4662520679447684e-36  3.4840952172703904e-20  -1.2995853838908327e-19  -8.5771485465389398e-20  4.2076950860861533e-19  2.0515163015908794e-19  -1.2097206270363263e-18  -3.1622077586820218e-19  2.8705394555913691e-18  -2.7975271351116540e-19  -4.3099805334217559e-18  4.7474873566982916e-18  -4.6496825993286760e-18  -2.3363936484519237e-17  6.8991206902705811e-17  8.0970998044692350e-17  -3.3342388015170934e-16  -2.1158947421838451e-16  1.1328876422884308e-15  3.8162538926921128e-16  -2.8846908343220133e-15  -2.0353347540254913e-16  -4.7525366577072013e-15  4.9165521544939459e-15  -1.6200971395597408e-15  -1.5863606704075698e-15  7.3808900567235908e-15  -2.5145867098612815e-14  -1.5924053237082441e-14  9.9126088716676131e-14  9.7169965025495177e-15  -1.8521733015148172e-13  5.6053597043632232e-14  -3.7650738750789097e-13  2.9176700292719836e-14  -1.9703582448963292e-13  8.8654755089086382e-13  1.5536386019116285e-13  -2.2293420408856190e-12  7.7802385473305381e-13  -1.2244156734669011e-13  -2.4767512566409144e-12  1.3240151116575261e-11  -1.0637072640307780e-13  -2.1326473542301822e-11  -2.3720649847202690e-11  1.5576240456728745e-11  -4.0435927982510028e-11  -2.6197003057457047e-11  -3.0475883360960619e-13  1.7310816206801721e-11  -4.9867774645086300e-11  -2.3475122192500778e-11  -1.2717079395822720e-12  1.8382142020689795e-11  -2.7278772691579242e-12  -3.2804599036805792e-12  -1.3737042117914321e-11  1.8262690672260853e-11  -1.8308161165358246e-12  -6.7099888768333169e-12  1.4874960416941480e-12  3.6898659398920033e-13  1.1085111006320257e-11  -8.5790468894912133e-12  9.5890383426209265e-13  3.5615961974293706e-12  -1.4405375654053879e-11  2.2790839293624882e-12  -9.7888641094013268e-13  2.8368203683752337e-13  -4.9727543242254369e-12  2.1933223947234354e-12  -8.9154009529084231e-12  1.4121263912485535e-13  1.4211341150109144e-12  2.1923267071057007e-12  -3.5655714026048375e-12  2.5691767135850563e-11  -9.9231806694061084e-12  4.6010827171229990e-11  -1.3699262069233509e-11  5.3262919892484755e-11  3.2758500230434820e-12  -1.4243325994399743e-11  5.2221815712736229e-11  -1.3903440322748387e-11  5.2099287924138771e-11  -1.4170570644886422e-11  5.2926275975669013e-11  -1.3636912214534179e-11  4.6054128563675085e-11  -1.0050908981768335e-11  2.6443278332490734e-11  -3.7217231712347068e-12  1.9323534435067824e-12  3.2816617698535712e-12  -1.3958258892829914e-10  2.5154731469274640e+00  1.9658966937484582e-12  -1.3155944756133342e-11  3.9195806822741687e-12  -1.2890349904173102e-11  2.5623389710872870e+00  2.4091925921500968e-12  -4.4099307182519886e-12  2.4635412092555562e+00  1.7710191903901488e-13  1.8657591865694011e-12  1.7126577404981933e-12  -1.0303923551805285e-11  2.3502661933265670e-12  -4.7667400956789583e-12  -1.9087995102065203e-10  -3.2978792715239627e-13  1.8417512003305829e-13  2.4651903499104215e-12  1.3467016368460395e-12  -1.3792091508026472e-11  3.1901663900618679e-12  -6.8568042025291262e-12  4.4375729363040410e-11  5.1245345485350845e-12  1.7259957425978078e-12  -1.0570514317493162e-11  2.9626048207761085e-11  2.7854176182768858e-11  -3.0701596972664764e-12  -2.6888978149892223e-12  -2.9985506231151546e-11  2.4133011380460331e-11  -4.4954083486650997e-12  2.5560704816375892e-12  -4.7096061813428184e-11  1.4858899788253262e-11  -3.5627259012539607e-12  2.0491000447155642e-12  -3.4327648556120594e-11  1.3014932908896056e-11  -1.6575789666809913e-11  -2.7056068724534210e-11  7.5551046971479405e-13  1.4723921286501266e-11  -2.5696493951263121e-11  -3.4308075408823978e-11  1.0559200299619780e-12  1.9259363274062554e-11  -3.8110318892112540e-11  -4.0370752069912297e-11  3.3822968299671070e-10  -1.0485861698329932e-10  3.4695815148465544e-11  2.7917390147618588e-10  -1.0158155280365650e-11  -1.5825057615766375e-10  7.0791262076467396e-10  -9.7379930077079626e-11  -3.1622645103717795e-10  3.3496982300473544e-10  -1.7630498743431108e-09  3.1759758360255550e-10  5.2654149085493226e-10  -9.3929406629357170e-10  5.5420958658691022e-11  4.6164491936001782e-10  -2.0806082127921449e-09  4.1348409920170771e-10  4.8292535613492316e-11  -7.7766672248979765e-10  6.2573163985573831e-09  -2.5229851268528696e-09  1.1102162962323025e-08  -2.6965595419361164e-09  6.0759664250716096e-09  3.0404632238386767e-10  -1.0068940636678083e-08  5.1679338653100535e-09  -2.7534878204883008e-08  8.9690938439090920e-09  -3.7318260155153653e-08  1.0594690538308894e-08  -4.0077991171468291e-08  1.0586069532080346e-08  -3.7174713003470583e-08  8.7248266347590174e-09  -2.6310873254804063e-08  5.0685658621624091e-09  -1.1416175474798107e-08  -1.8825311117053187e-09  -8.3021181340572558e-10  3.6490833095319443e-10  9.5299199429411447e-11  -6.0274821591235524e-11  2.9172223383016023e-12  6.9893086926122568e-12  -6.6547245012314186e-12  1.9364285909058240e-13  2.8335948036673773e-12  -1.2437678728043291e-11  -4.7751674235908319e-13  4.5643842388002598e-10  3.2651066006803190e-12  -1.0225753871037393e-11  1.8589516835390849e-12  -3.3190771048244428e-12  1.0211851238206312e-13  1.5019760957541219e-12  -5.0334253460225202e-13  1.3507405