<?xml version="1.0"?>
<VTKFile type="UnstructuredGrid"  version="0.1"  >
<UnstructuredGrid>
<Piece  NumberOfPoints="11902" NumberOfCells="23402">
<Points>
<DataArray  type="Float64"  NumberOfComponents="3"  format="ascii">-5 -5 0  5 -5 0  5 5 0  -5 5 0  1.114557164237945 0.0007675340488023428 0  -4.9 -5 0  -4.8 -5 0  -4.7 -5 0  -4.6 -5 0  -4.5 -5 0  -4.4 -5 0  -4.3 -5 0  -4.2 -5 0  -4.1 -5 0  -4 -5 0  -3.9 -5 0  -3.8 -5 0  -3.7 -5 0  -3.6 -5 0  -3.5 -5 0  -3.4 -5 0  -3.3 -5 0  -3.2 -5 0  -3.1 -5 0  -3 -5 0  -2.9 -5 0  -2.8 -5 0  -2.7 -5 0  -2.6 -5 0  -2.5 -5 0  -2.4 -5 0  -2.3 -5 0  -2.2 -5 0  -2.1 -5 0  -2 -5 0  -1.9 -5 0  -1.8 -5 0  -1.7 -5 0  -1.6 -5 0  -1.5 -5 0  -1.4 -5 0  -1.3 -5 0  -1.2 -5 0  -1.1 -5 0  -1 -5 0  -0.9000000000000004 -5 0  -0.7999999999999998 -5 0  -0.7000000000000002 -5 0  -0.5999999999999996 -5 0  -0.5 -5 0  -0.4000000000000004 -5 0  -0.2999999999999998 -5 0  -0.2000000000000002 -5 0  -0.09999999999999964 -5 0  0 -5 0  0.09999999999999964 -5 0  0.2000000000000002 -5 0  0.2999999999999998 -5 0  0.4000000000000004 -5 0  0.5 -5 0  0.5999999999999996 -5 0  0.7000000000000002 -5 0  0.7999999999999998 -5 0  0.9000000000000004 -5 0  1 -5 0  1.1 -5 0  1.2 -5 0  1.3 -5 0  1.4 -5 0  1.5 -5 0  1.6 -5 0  1.7 -5 0  1.8 -5 0  1.9 -5 0  2 -5 0  2.1 -5 0  2.2 -5 0  2.3 -5 0  2.4 -5 0  2.5 -5 0  2.6 -5 0  2.7 -5 0  2.8 -5 0  2.9 -5 0  3 -5 0  3.1 -5 0  3.199999999999999 -5 0  3.300000000000001 -5 0  3.4 -5 0  3.5 -5 0  3.6 -5 0  3.699999999999999 -5 0  3.800000000000001 -5 0  3.9 -5 0  4 -5 0  4.1 -5 0  4.199999999999999 -5 0  4.300000000000001 -5 0  4.4 -5 0  4.5 -5 0  4.6 -5 0  4.699999999999999 -5 0  4.800000000000001 -5 0  4.9 -5 0  5 -4.9 0  5 -4.8 0  5 -4.7 0  5 -4.6 0  5 -4.5 0  5 -4.4 0  5 -4.3 0  5 -4.2 0  5 -4.1 0  5 -4 0  5 -3.9 0  5 -3.8 0  5 -3.7 0  5 -3.6 0  5 -3.5 0  5 -3.4 0  5 -3.3 0  5 -3.2 0  5 -3.1 0  5 -3 0  5 -2.9 0  5 -2.8 0  5 -2.7 0  5 -2.6 0  5 -2.5 0  5 -2.4 0  5 -2.3 0  5 -2.2 0  5 -2.1 0  5 -2 0  5 -1.9 0  5 -1.8 0  5 -1.7 0  5 -1.6 0  5 -1.5 0  5 -1.4 0  5 -1.3 0  5 -1.2 0  5 -1.1 0  5 -1 0  5 -0.9000000000000004 0  5 -0.7999999999999998 0  5 -0.7000000000000002 0  5 -0.5999999999999996 0  5 -0.5 0  5 -0.4000000000000004 0  5 -0.2999999999999998 0  5 -0.2000000000000002 0  5 -0.09999999999999964 0  5 0 0  5 0.09999999999999964 0  5 0.2000000000000002 0  5 0.2999999999999998 0  5 0.4000000000000004 0  5 0.5 0  5 0.5999999999999996 0  5 0.7000000000000002 0  5 0.7999999999999998 0  5 0.9000000000000004 0  5 1 0  5 1.1 0  5 1.2 0  5 1.3 0  5 1.4 0  5 1.5 0  5 1.6 0  5 1.7 0  5 1.8 0  5 1.9 0  5 2 0  5 2.1 0  5 2.2 0  5 2.3 0  5 2.4 0  5 2.5 0  5 2.6 0  5 2.7 0  5 2.8 0  5 2.9 0  5 3 0  5 3.1 0  5 3.199999999999999 0  5 3.300000000000001 0  5 3.4 0  5 3.5 0  5 3.6 0  5 3.699999999999999 0  5 3.800000000000001 0  5 3.9 0  5 4 0  5 4.1 0  5 4.199999999999999 0  5 4.300000000000001 0  5 4.4 0  5 4.5 0  5 4.6 0  5 4.699999999999999 0  5 4.800000000000001 0  5 4.9 0  4.9 5 0  4.8 5 0  4.7 5 0  4.6 5 0  4.5 5 0  4.4 5 0  4.3 5 0  4.2 5 0  4.1 5 0  4 5 0  3.9 5 0  3.8 5 0  3.7 5 0  3.6 5 0  3.5 5 0  3.4 5 0  3.3 5 0  3.2 5 0  3.1 5 0  3 5 0  2.9 5 0  2.8 5 0  2.7 5 0  2.6 5 0  2.5 5 0  2.4 5 0  2.3 5 0  2.2 5 0  2.1 5 0  2 5 0  1.9 5 0  1.8 5 0  1.7 5 0  1.6 5 0  1.5 5 0  1.4 5 0  1.3 5 0  1.2 5 0  1.1 5 0  1 5 0  0.9000000000000004 5 0  0.7999999999999998 5 0  0.7000000000000002 5 0  0.5999999999999996 5 0  0.5 5 0  0.4000000000000004 5 0  0.2999999999999998 5 0  0.2000000000000002 5 0  0.09999999999999964 5 0  0 5 0  -0.09999999999999964 5 0  -0.2000000000000002 5 0  -0.2999999999999998 5 0  -0.4000000000000004 5 0  -0.5 5 0  -0.5999999999999996 5 0  -0.7000000000000002 5 0  -0.7999999999999998 5 0  -0.9000000000000004 5 0  -1 5 0  -1.1 5 0  -1.2 5 0  -1.3 5 0  -1.4 5 0  -1.5 5 0  -1.6 5 0  -1.7 5 0  -1.8 5 0  -1.9 5 0  -2 5 0  -2.1 5 0  -2.2 5 0  -2.3 5 0  -2.4 5 0  -2.5 5 0  -2.6 5 0  -2.7 5 0  -2.8 5 0  -2.9 5 0  -3 5 0  -3.1 5 0  -3.199999999999999 5 0  -3.300000000000001 5 0  -3.4 5 0  -3.5 5 0  -3.6 5 0  -3.699999999999999 5 0  -3.800000000000001 5 0  -3.9 5 0  -4 5 0  -4.1 5 0  -4.199999999999999 5 0  -4.300000000000001 5 0  -4.4 5 0  -4.5 5 0  -4.6 5 0  -4.699999999999999 5 0  -4.800000000000001 5 0  -4.9 5 0  -5 4.9 0  -5 4.8 0  -5 4.7 0  -5 4.6 0  -5 4.5 0  -5 4.4 0  -5 4.3 0  -5 4.2 0  -5 4.1 0  -5 4 0  -5 3.9 0  -5 3.8 0  -5 3.7 0  -5 3.6 0  -5 3.5 0  -5 3.4 0  -5 3.3 0  -5 3.2 0  -5 3.1 0  -5 3 0  -5 2.9 0  -5 2.8 0  -5 2.7 0  -5 2.6 0  -5 2.5 0  -5 2.4 0  -5 2.3 0  -5 2.2 0  -5 2.1 0  -5 2 0  -5 1.9 0  -5 1.8 0  -5 1.7 0  -5 1.6 0  -5 1.5 0  -5 1.4 0  -5 1.3 0  -5 1.2 0  -5 1.1 0  -5 1 0  -5 0.9000000000000004 0  -5 0.7999999999999998 0  -5 0.7000000000000002 0  -5 0.5999999999999996 0  -5 0.5 0  -5 0.4000000000000004 0  -5 0.2999999999999998 0  -5 0.2000000000000002 0  -5 0.09999999999999964 0  -5 0 0  -5 -0.09999999999999964 0  -5 -0.2000000000000002 0  -5 -0.2999999999999998 0  -5 -0.4000000000000004 0  -5 -0.5 0  -5 -0.5999999999999996 0  -5 -0.7000000000000002 0  -5 -0.7999999999999998 0  -5 -0.9000000000000004 0  -5 -1 0  -5 -1.1 0  -5 -1.2 0  -5 -1.3 0  -5 -1.4 0  -5 -1.5 0  -5 -1.6 0  -5 -1.7 0  -5 -1.8 0  -5 -1.9 0  -5 -2 0  -5 -2.1 0  -5 -2.2 0  -5 -2.3 0  -5 -2.4 0  -5 -2.5 0  -5 -2.6 0  -5 -2.7 0  -5 -2.8 0  -5 -2.9 0  -5 -3 0  -5 -3.1 0  -5 -3.199999999999999 0  -5 -3.300000000000001 0  -5 -3.4 0  -5 -3.5 0  -5 -3.6 0  -5 -3.699999999999999 0  -5 -3.800000000000001 0  -5 -3.9 0  -5 -4 0  -5 -4.1 0  -5 -4.199999999999999 0  -5 -4.300000000000001 0  -5 -4.4 0  -5 -4.5 0  -5 -4.6 0  -5 -4.699999999999999 0  -5 -4.800000000000001 0  -5 -4.9 0  1.109155497125813 0.1003879641374345 0  1.092327972672979 0.1996636558070801 0  1.063950274860235 0.2973914441738205 0  1.026369368153621 0.3907999770534761 0  0.978178296355087 0.4817541599499771 0  0.9207693972394417 0.5674553182485286 0  0.8535628697360174 0.6472787783493779 0  0.7772836825084756 0.7203884887815691 0  0.6941065287556474 0.7867033247327561 0  0.6039906814041937 0.8455452037621126 0  0.5073738515805046 0.8955898164452286 0  0.405742340730562 0.9368954191249027 0  0.3012815748274792 0.9693334974505977 0  0.1929295247645462 0.9914411064714953 0  0.08367060606192538 1.004295380621651 0  -0.0268340823609812 1.006878356013775 0  -0.1370928432445349 0.9988631180774531 0  -0.2462800513090704 0.9817855361042033 0  -0.3530300756314366 0.954897151764814 0  -0.4560162225853269 0.9181453540025328 0  -0.5542570915925715 0.8727464895577282 0  -0.6473103306504725 0.8181931607042037 0  -0.7339309659607897 0.7557513941374757 0  -0.8134327365952693 0.685933739448698 0  -0.8851632680137878 0.6084048049848936 0  -0.9476567221861724 0.525268527550921 0  -1.001384556587343 0.4374077105663757 0  -1.044593044647266 0.3446303048776989 0  -1.077164489498449 0.2489691059901317 0  -1.099297779331483 0.1508683506164183 0  -1.110550783370087 0.05080159624191845 0  -1.110577435481206 -0.04983957487897702 0  -1.099347947191981 -0.1497489274683957 0  -1.078335286345713 -0.2478287326880862 0  -1.04452896110942 -0.3441257794666072 0  -1.00163938437712 -0.4363449330767142 0  -0.9481708587489673 -0.5244061665253626 0  -0.8858150420734482 -0.6072630853029388 0  -0.8140644051445877 -0.6841403449882537 0  -0.734125968167043 -0.7536870651063228 0  -0.6469538845242075 -0.8155215953700522 0  -0.5545893833875062 -0.8703255954545149 0  -0.4548256677812925 -0.9159034554110422 0  -0.3517383332465643 -0.9531709572384461 0  -0.2448060832517439 -0.9804613584290783 0  -0.1360261372331424 -0.997936584124373 0  -0.02613726056345124 -1.00643582692454 0  0.08403406182118971 -1.003365258143142 0  0.1941113912904023 -0.9902374414774078 0  0.301848917618478 -0.9681125868197997 0  0.4075508127834285 -0.9357937468294953 0  0.5080839638584466 -0.8946709856799056 0  0.604417257064303 -0.8447856271793625 0  0.6943471376874524 -0.7870982563856492 0  0.7774679631298396 -0.7207217199190477 0  0.8532437135501545 -0.6468313287285988 0  0.9200732409679576 -0.5667634957521659 0  0.9783407180315582 -0.4813206049247407 0  1.027366731024854 -0.3908839625713573 0  1.064877897625367 -0.2968172245993074 0  1.092409675040365 -0.1991746678846053 0  1.109186324935272 -0.1001324617987751 0  -2.449201186040082 4.919294890624695 0  -2.449132176583376 -4.911780052281793 0  4.911734500990737 2.44881842057164 0  4.919739368527966 -2.450196199649385 0  2.446975827544533 -4.897236422887754 0  2.441382948595706 4.900949818375917 0  -4.911750705777147 -2.448834675844385 0  -4.911751227308209 2.448838405116935 0  -1.749176738061275 4.912702987552114 0  -1.744934654279434 -4.916076323640226 0  4.922257265382485 1.744905580173529 0  4.911021192118813 -1.748788976147098 0  -4.911294449817389 -1.748508976668099 0  -4.912103611585009 1.748243865121301 0  1.746490484556247 4.906685430439227 0  1.747987956511999 -4.895052235250435 0  -1.149352732056435 4.91084302243313 0  -1.130157442521012 -4.918584691781747 0  -4.911476845897257 -1.148670461986713 0  -4.911302771381616 1.148469779414727 0  1.144313994877687 -4.914855444224964 0  1.149356485382611 4.91083578544606 0  4.911636040986305 1.146951732174798 0  4.922187532057412 -1.152647326303258 0  -0.5469351361597334 -4.912207615457499 0  -0.5466919752607633 4.920687704735878 0  -4.91058325399794 -0.5491213821683594 0  -4.910608703322839 0.5476744663011209 0  4.909947206188762 -0.5494476993251181 0  4.921267110838988 0.5461486073612453 0  0.5427428318381711 -4.899409539506844 0  0.5514250145780794 4.917589406005742 0  -4.912755558180497 -3.049034326630155 0  4.919269133106885 3.047002961169313 0  4.912273183922041 -3.049022135974934 0  -4.913599282973894 3.046119973960265 0  3.055858305055093 -4.918234358730961 0  -3.049230877660765 -4.912228543115932 0  3.052785508685863 4.914291197302207 0  -3.048672928127675 4.913111435259663 0  -4.909831303281371 -0.04994895773818998 0  0.04513621702683499 -4.914174516202138 0  0.04958589381561064 4.921032238131227 0  4.916699158175238 -0.05132843208979508 0  3.546061109975605 -4.919622902584666 0  -3.5493802280
[...]
<PointData  Scalars="f_30"> 
<DataArray  type="Float64"  Name="f_30"  format="ascii">0.0000000000000000e+00  0.0000000000000000e+00  0.0000000000000000e+00  0.0000000000000000e+00  6.1879207174077400e-01  0.0000000000000000e+00  0.0000000000000000e+00  0.0000000000000000e+00  0.0000000000000000e+00  0.0000000000000000e+00  0.0000000000000000e+00  0.0000000000000000e+00  0.0000000000000000e+00  0.0000000000000000e+00  0.0000000000000000e+00  0.0000000000000000e+00  0.0000000000000000e+00  0.0000000000000000e+00  0.0000000000000000e+00  0.0000000000000000e+00  0.0000000000000000e+00  0.0000000000000000e+00  0.0000000000000000e+00  0.0000000000000000e+00  0.0000000000000000e+00  0.0000000000000000e+00  0.0000000000000000e+00  0.0000000000000000e+00  0.0000000000000000e+00  0.0000000000000000e+00  0.0000000000000000e+00  0.0000000000000000e+00  0.0000000000000000e+00  0.0000000000000000e+00  0.0000000000000000e+00  0.0000000000000000e+00  0.0000000000000000e+00  0.0000000000000000e+00  0.0000000000000000e+00  0.0000000000000000e+00  0.0000000000000000e+00  0.0000000000000000e+00  0.0000000000000000e+00  0.0000000000000000e+00  0.0000000000000000e+00  0.0000000000000000e+00  0.0000000000000000e+00  0.0000000000000000e+00  0.0000000000000000e+00  0.0000000000000000e+00  0.0000000000000000e+00  0.0000000000000000e+00  0.0000000000000000e+00  0.0000000000000000e+00  0.0000000000000000e+00  0.0000000000000000e+00  0.0000000000000000e+00  0.0000000000000000e+00  0.0000000000000000e+00  0.0000000000000000e+00  0.0000000000000000e+00  0.0000000000000000e+00  0.0000000000000000e+00  0.0000000000000000e+00  0.0000000000000000e+00  0.0000000000000000e+00  0.0000000000000000e+00  0.0000000000000000e+00  0.0000000000000000e+00  0.0000000000000000e+00  0.0000000000000000e+00  0.0000000000000000e+00  0.0000000000000000e+00  0.0000000000000000e+00  0.0000000000000000e+00  0.0000000000000000e+00  0.0000000000000000e+00  0.0000000000000000e+00  0.0000000000000000e+00  0.0000000000000000e+00  0.0000000000000000e+00  0.0000000000000000e+00  0.0000000000000000e+00  0.0000000000000000e+00  0.0000000000000000e+00  0.0000000000000000e+00  0.0000000000000000e+00  0.0000000000000000e+00  0.0000000000000000e+00  0.0000000000000000e+00  0.0000000000000000e+00  0.0000000000000000e+00  0.0000000000000000e+00  0.0000000000000000e+00  0.0000000000000000e+00  0.0000000000000000e+00  0.0000000000000000e+00  0.0000000000000000e+00  0.0000000000000000e+00  0.0000000000000000e+00  0.0000000000000000e+00  0.0000000000000000e+00  0.0000000000000000e+00  0.0000000000000000e+00  0.0000000000000000e+00  0.0000000000000000e+00  0.0000000000000000e+00  0.0000000000000000e+00  0.0000000000000000e+00  0.0000000000000000e+00  0.0000000000000000e+00  0.0000000000000000e+00  0.0000000000000000e+00  0.0000000000000000e+00  0.0000000000000000e+00  0.0000000000000000e+00  0.0000000000000000e+00  0.0000000000000000e+00  0.0000000000000000e+00  0.0000000000000000e+00  0.0000000000000000e+00  0.0000000000000000e+00  0.0000000000000000e+00  0.0000000000000000e+00  0.0000000000000000e+00  0.0000000000000000e+00  0.0000000000000000e+00  0.0000000000000000e+00  0.0000000000000000e+00  0.0000000000000000e+00  0.0000000000000000e+00  0.0000000000000000e+00  0.0000000000000000e+00  0.0000000000000000e+00  0.0000000000000000e+00  0.0000000000000000e+00  0.0000000000000000e+00  0.0000000000000000e+00  0.0000000000000000e+00  0.0000000000000000e+00  0.0000000000000000e+00  0.0000000000000000e+00  0.0000000000000000e+00  0.0000000000000000e+00  0.0000000000000000e+00  0.0000000000000000e+00  0.0000000000000000e+00  0.0000000000000000e+00  0.0000000000000000e+00  0.0000000000000000e+00  0.0000000000000000e+00  0.0000000000000000e+00  0.0000000000000000e+00  0.0000000000000000e+00  0.0000000000000000e+00  0.0000000000000000e+00  0.0000000000000000e+00  0.0000000000000000e+00  0.0000000000000000e+00  0.0000000000000000e+00  0.0000000000000000e+00  0.0000000000000000e+00  0.0000000000000000e+00  0.0000000000000000e+00  0.0000000000000000e+00  0.0000000000000000e+00  0.0000000000000000e+00  0.0000000000000000e+00  0.0000000000000000e+00  0.0000000000000000e+00  0.0000000000000000e+00  0.0000000000000000e+00  0.0000000000000000e+00  0.0000000000000000e+00  0.0000000000000000e+00  0.0000000000000000e+00  0.0000000000000000e+00  0.0000000000000000e+00  0.0000000000000000e+00  0.0000000000000000e+00  0.0000000000000000e+00  0.0000000000000000e+00  0.0000000000000000e+00  0.0000000000000000e+00  0.0000000000000000e+00  0.0000000000000000e+00  0.0000000000000000e+00  0.0000000000000000e+00  0.0000000000000000e+00  0.0000000000000000e+00  0.0000000000000000e+00  0.0000000000000000e+00  0.0000000000000000e+00  0.0000000000000000e+00  0.0000000000000000e+00  0.0000000000000000e+00  0.0000000000000000e+00  0.0000000000000000e+00  0.0000000000000000e+00  0.0000000000000000e+00  0.0000000000000000e+00  0.0000000000000000e+00  0.0000000000000000e+00  0.0000000000000000e+00  0.0000000000000000e+00  0.0000000000000000e+00  0.0000000000000000e+00  0.0000000000000000e+00  0.0000000000000000e+00  0.0000000000000000e+00  0.0000000000000000e+00  0.0000000000000000e+00  0.0000000000000000e+00  0.0000000000000000e+00  0.0000000000000000e+00  0.0000000000000000e+00  0.0000000000000000e+00  0.0000000000000000e+00  0.0000000000000000e+00  0.0000000000000000e+00  0.0000000000000000e+00  0.0000000000000000e+00  0.0000000000000000e+00  0.0000000000000000e+00  0.0000000000000000e+00  0.0000000000000000e+00  0.0000000000000000e+00  0.0000000000000000e+00  0.0000000000000000e+00  0.0000000000000000e+00  0.0000000000000000e+00  0.0000000000000000e+00  0.0000000000000000e+00  0.0000000000000000e+00  0.0000000000000000e+00  0.0000000000000000e+00  0.0000000000000000e+00  0.0000000000000000e+00  0.0000000000000000e+00  0.0000000000000000e+00  0.0000000000000000e+00  0.0000000000000000e+00  0.0000000000000000e+00  0.0000000000000000e+00  0.0000000000000000e+00  0.0000000000000000e+00  0.0000000000000000e+00  0.0000000000000000e+00  0.0000000000000000e+00  0.0000000000000000e+00  0.0000000000000000e+00  0.0000000000000000e+00  0.0000000000000000e+00  0.0000000000000000e+00  0.0000000000000000e+00  0.0000000000000000e+00  0.0000000000000000e+00  0.0000000000000000e+00  0.0000000000000000e+00  0.0000000000000000e+00  0.0000000000000000e+00  0.0000000000000000e+00  0.0000000000000000e+00  0.0000000000000000e+00  0.0000000000000000e+00  0.0000000000000000e+00  0.0000000000000000e+00  0.0000000000000000e+00  0.0000000000000000e+00  0.0000000000000000e+00  0.0000000000000000e+00  0.0000000000000000e+00  0.0000000000000000e+00  0.0000000000000000e+00  0.0000000000000000e+00  0.0000000000000000e+00  0.0000000000000000e+00  0.0000000000000000e+00  0.0000000000000000e+00  0.0000000000000000e+00  0.0000000000000000e+00  0.0000000000000000e+00  0.0000000000000000e+00  0.0000000000000000e+00  0.0000000000000000e+00  0.0000000000000000e+00  0.0000000000000000e+00  0.0000000000000000e+00  0.0000000000000000e+00  0.0000000000000000e+00  0.0000000000000000e+00  0.0000000000000000e+00  0.0000000000000000e+00  0.0000000000000000e+00  0.0000000000000000e+00  0.0000000000000000e+00  0.0000000000000000e+00  0.0000000000000000e+00  0.0000000000000000e+00  0.0000000000000000e+00  0.0000000000000000e+00  0.0000000000000000e+00  0.0000000000000000e+00  0.0000000000000000e+00  0.0000000000000000e+00  0.0000000000000000e+00  0.0000000000000000e+00  0.0000000000000000e+00  0.0000000000000000e+00  0.0000000000000000e+00  0.0000000000000000e+00  0.0000000000000000e+00  0.0000000000000000e+00  0.0000000000000000e+00  0.0000000000000000e+00  0.0000000000000000e+00  0.0000000000000000e+00  0.0000000000000000e+00  0.0000000000000000e+00  0.0000000000000000e+00  0.0000000000000000e+00  0.0000000000000000e+00  0.0000000000000000e+00  0.0000000000000000e+00  0.0000000000000000e+00  0.0000000000000000e+00  0.0000000000000000e+00  0.0000000000000000e+00  0.0000000000000000e+00  0.0000000000000000e+00  0.0000000000000000e+00  0.0000000000000000e+00  0.0000000000000000e+00  0.0000000000000000e+00  0.0000000000000000e+00  0.0000000000000000e+00  0.0000000000000000e+00  0.0000000000000000e+00  0.0000000000000000e+00  0.0000000000000000e+00  0.0000000000000000e+00  0.0000000000000000e+00  0.0000000000000000e+00  0.0000000000000000e+00  0.0000000000000000e+00  0.0000000000000000e+00  0.0000000000000000e+00  0.0000000000000000e+00  0.0000000000000000e+00  0.0000000000000000e+00  0.0000000000000000e+00  0.0000000000000000e+00  0.0000000000000000e+00  0.0000000000000000e+00  0.0000000000000000e+00  0.0000000000000000e+00  0.0000000000000000e+00  0.0000000000000000e+00  0.0000000000000000e+00  0.0000000000000000e+00  0.0000000000000000e+00  0.0000000000000000e+00  0.0000000000000000e+00  0.0000000000000000e+00  0.0000000000000000e+00  0.0000000000000000e+00  0.0000000000000000e+00  0.0000000000000000e+00  0.0000000000000000e+00  0.0000000000000000e+00  0.0000000000000000e+00  0.0000000000000000e+00  0.0000000000000000e+00  0.0000000000000000e+00  0.0000000000000000e+00  0.0000000000000000e+00  0.0000000000000000e+00  0.0000000000000000e+00  0.0000000000000000e+00  0.0000000000000000e+00  0.0000000000000000e+00  0.0000000000000000e+00  0.0000000000000000e+00  0.0000000000000000e+00  0.0000000000000000e+00  0.0000000000000000e+00  0.0000000000000000e+00  0.0000000000000000e+00  0.0000000000000000e+00  0.0000000000000000e+00  0.0000000000000000e+00  0.0000000000000000e+00  0.0000000000000000e+00  0.0000000000000000e+00  0.0000000000000000e+00  0.0000000000000000e+00  0.0000000000000000e+00  0.0000000000000000e+00  0.0000000000000000e+00  0.0000000000000000e+00  0.0000000000000000e+00  6.3724167406755838e-01  6.1283485810767147e-01  4.8609458252459370e-01  4.9317170188503834e-01  5.7122163592812503e-01  7.0248075743314220e-01  6.7931036170032455e-01  5.3889265833159417e-01  5.9316422626563592e-01  7.1590693399648797e-01  6.6712246500173922e-01  6.3282348346713946e-01  7.5026174723593819e-01  5.9063870099837035e-01  6.0564923512146851e-01  5.9068238746973234e-01  5.1683102903042943e-01  6.2291233147678637e-01  6.5217103199194892e-01  5.8313604981901590e-01  6.1922894052550148e-01  5.9843268857276510e-01  6.1963323620364275e-01  6.7579813405535938e-01  6.1681709329746803e-01  5.5007867039517100e-01  6.3372958708828264e-01  5.9285993737765097e-01  5.1820363845822714e-01  5.5650989435349707e-01  5.9779296812892058e-01  6.0689390108912133e-01  5.7169436720703837e-01  7.5978546299592442e-01  5.8469308645980411e-01  6.4289622353332676e-01  5.9332592365374981e-01  6.7365119335873702e-01  6.7093931109278626e-01  5.8822611300718641e-01  4.6977021504669919e-01  7.0724149100442602e-01  5.7504153545219905e-01  6.6776907977264921e-01  6.4463985382233480e-01  5.9882658516366893e-01  8.1586726118413722e-01  7.1955465607365410e-01  6.2004529568693512e-01  6.5529585532903378e-01  5.9713762266964210e-01  5.4913393463020432e-01  5.9939231805887838e-01  6.8751488923751991e-01  6.3206371540089923e-01  6.0938583603081109e-01  5.4933414760579380e-01  6.1265058495944813e-01  7.5555343892801541e-01  6.4470945021550730e-01  6.2704369724898412e-01  6.6175195770076223e-01  3.6124424802142590e-27  -1.3179124484929726e-27  -2.6372991937615851e-27  -2.9362116904138354e-27  -1.2758193868095462e-27  -5.3229043125751436e-28  -2.0321712194949367e-28  1.8085997497114636e-27  7.1911281389381911e-27  4.1262755576223387e-27  -7.0167497828175217e-25  -6.6245831955890346e-25  5.4015513178848252e-25  1.1894522828414155e-24  3.7087637981303783e-26  3.0575199212860446e-26  -4.7807700262936564e-26  -3.0032974200111512e-26  -1.1242593122175767e-22  -1.6505399299389700e-22  -4.3272691620916564e-26  -4.9232081829397103e-26  4.7612444491521299e-23  4.7758648521951765e-23  -4.7323312921271991e-27  -3.9746765797646764e-26  -7.5369921243495607e-21  -7.1236227335754175e-21  -4.5758827263127948e-21  -4.8274270920229985e-21  8.3191556708412466e-26  -2.6522060201922342e-26  7.1703454442066737e-30  -8.8439316928791594e-30  -9.0742347474975117e-30  1.6282542004203054e-29  1.9759283824061988e-28  3.9844131266396279e-28  2.8927409167588752e-28  3.1817880075532120e-28  3.5536297071434958e-20  6.3535545931737344e-26  1.2229860956780743e-26  3.8447618524035620e-20  -9.0965315154144693e-30  -9.9263821506896551e-30  -6.2620618494962496e-30  2.3186077182625375e-31  2.4329241612363622e-31  2.3940970722889824e-31  1.4562219514434986e-31  -9.9633715825380556e-30  -6.1356153064419619e-33  -2.3068732499782943e-32  1.1371226423699422e-31  -4.0599764079610928e-33  2.5154986034022270e-32  -6.0625833174773450e-33  1.3756211844366408e-31  -9.9017150450339787e-34  -1.2942969793241084e-33  -4.6819393339935634e-34  -1.9574339541093519e-34  1.4856515847707956e-34  1.3409178646340915e-34  7.7341053788892569e-35  7.3735300189304552e-36  -1.6096906312631230e-33  2.7758147929110847e-20  4.6287330595075516e-26  -1.3625046353949833e-26  1.3821895708801230e-20  1.1674936015916980e-25  -3.4725251799011978e-24  1.3394908120581884e-21  8.8430430378821450e-22  -3.2579711685059906e-24  2.7350558720051950e-26  7.8784814184800698e-26  -5.2859709168205866e-26  -3.8568592925117500e-26  -1.1547888110812315e-23  3.9597117261228256e-22  4.1482003924459262e-22  -1.1338401345902246e-23  -2.5534481618399393e-27  8.8216723481183739e-26  -4.0413931258506742e-27  5.5608219287967155e-27  -6.5532669859327457e-27  8.9115026544398381e-26  1.1270771594239775e-25  -4.0123702990242132e-27  -2.4119229968883250e-27  3.0464775198695403e-26  2.8830720576348373e-26  -1.5704731111211789e-28  -7.7607584893358406e-28  -1.2225116173045558e-27  2.0590627423538200e-28  6.3877844919930515e-28  6.7275960952602483e-29  -1.5133891888855915e-28  -9.2259337312379164e-28  1.2567462159958050e-35  1.8952164498372083e-35  7.5316887606944564e-36  -1.6945970798737699e-36  6.4699474884166697e-36  1.5368913146545355e-36  1.0557451727117567e-35  5.2339729609356148e-37  2.7877468142540965e-20  1.2033698708638575e-25  1.1446091608271009e-25  1.3760365481511366e-20  -1.7864235143424194e-27  4.4955711456993496e-27  4.7957013846091014e-27  -7.1557734193640087e-27  -1.1865853630663864e-26  -7.0154456639979281e-29  -8.1948192260105115e-27  -2.0294426611383539e-26  3.5252794466517919e-30  -1.1191925836032323e-28  -7.3960376933483748e-29  2.8341012431405997e-30  3.4754384776397017e-30  -9.6395333412558948e-29  -1.2779605087035585e-28  1.1569373788234566e-30  -3.7500000589795898e-33  3.6441435799331791e-34  1.2053008323956556e-30  -1.2997725710430102e-32  2.7360786028398480e-31  -1.5412836791658372e-32  -3.6562415838583941e-32  1.2126589208342167e-33  8.1374554782418929e-31  -1.3325617491832257e-32  -1.3655507332343713e-33  2.9198331072938788e-34  -4.4317833545172413e-32  1.2637525119035416e-33  5.2319136265194807e-31  -1.7094961209038251e-32  -3.7014088486035120e-36  -1.7453805883448449e-36  -2.9595971102602329e-36  -3.4662496190314823e-36  3.4840953074489749e-20  -1.2995853861068922e-19  -8.5771481306193039e-20  4.2076949871188954e-19  2.0515161349537134e-19  -1.2097205670341599e-18  -3.1622072609386434e-19  2.8705392198471820e-18  -2.7975281723558244e-19  -4.3099798389288033e-18  4.7474874162796638e-18  -4.6496840053453555e-18  -2.3363935754782921e-17  6.8991207535297327e-17  8.0970993424481829e-17  -3.3342386923403341e-16  -2.1158945632444039e-16  1.1328875760884237e-15  3.8162533752774656e-16  -2.8846905827291549e-15  -2.0353336807183658e-16  -4.7525364950277967e-15  4.9165514374210949e-15  -1.6200972313109690e-15  -1.5863592246473162e-15  7.3808896114458700e-15  -2.5145868072219968e-14  -1.5924050529820466e-14  9.9126081645288443e-14  9.7169882395184869e-15  -1.8521729106272886e-13  5.6053610826946868e-14  -3.7650739683334601e-13  2.9176587035028464e-14  -1.9703581646020104e-13  8.8654771275759657e-13  1.5536372659228159e-13  -2.2293418144871460e-12  7.7802427736035795e-13  -1.2244360842525299e-13  -2.4767517381664662e-12  1.3240156566285667e-11  -1.0637212910151943e-13  -2.1326468678640461e-11  -2.3720653207168197e-11  1.5576247865939935e-11  -4.0435955183244690e-11  -2.6197014154859509e-11  -3.0475916288861053e-13  1.7310823989440019e-11  -4.9867793588259229e-11  -2.3475137547557499e-11  -1.2717075157316678e-12  1.8382149701471608e-11  -2.7278788612675219e-12  -3.2804593974810755e-12  -1.3737057672760969e-11  1.8262698200079009e-11  -1.8308176058363367e-12  -6.7099889559686424e-12  1.4874964777100261e-12  3.6898544160571407e-13  1.1085117952806519e-11  -8.5790478166895602e-12  9.5890429167783233e-13  3.5615955694779748e-12  -1.4405370350778724e-11  2.2790824862696903e-12  -9.7888602138387434e-13  2.8368192493381370e-13  -4.9727513528095676e-12  2.1933209790754348e-12  -8.9153965470001683e-12  1.4121256003170754e-13  1.4211348511084939e-12  2.1923144632193686e-12  -3.5655658011088458e-12  2.5691750419078061e-11  -9.9231839627428054e-12  4.6010891379257595e-11  -1.3699299405798125e-11  5.3263119879898471e-11  3.2758550749437312e-12  -1.4243382608480175e-11  5.2221947062848919e-11  -1.3903417920422103e-11  5.2098891725188124e-11  -1.4170362375125910e-11  5.2925174431967815e-11  -1.3636577589330168e-11  4.6052963922546385e-11  -1.0050697981741469e-11  2.6443019708672710e-11  -3.7218003615008066e-12  1.9330361699706476e-12  3.2815805366456676e-12  -1.3958261879658721e-10  2.3806736427981434e+00  1.9656961825683106e-12  -1.3155411031674239e-11  3.9195606669732068e-12  -1.2890789633014947e-11  2.4148625768032632e+00  2.4094124809388358e-12  -4.4109396403470821e-12  2.3802140111374466e+00  1.7735256614744825e-13  1.8650594622603893e-12  1.7161881660338458e-12  -1.0302494515329044e-11  2.3501535349642747e-12  -4.7670495135351431e-12  -1.9087519728892282e-10  -3.2985845292164245e-13  1.8434303137599061e-13  2.4645337329266217e-12  1.3490696394146659e-12  -1.3790209278269543e-11  3.1898549651548146e-12  -6.8563262128035870e-12  4.4371561337154004e-11  5.1244431216256606e-12  1.7258320238694490e-12  -1.0569864375915064e-11  2.9623567216435369e-11  2.7853160546684075e-11  -3.0702161526725172e-12  -2.6879636796441323e-12  -2.9987386900779778e-11  2.4130389882098303e-11  -4.4952355387336498e-12  2.5571977141756049e-12  -4.7095857631496360e-11  1.4854159862901566e-11  -3.5621748387308120e-12  2.0501448138029419e-12  -3.4323795399899547e-11  1.3008561147204427e-11  -1.6550181126333871e-11  -2.7050316800974928e-11  7.5659513942128888e-13  1.4716728092478806e-11  -2.5666171219907304e-11  -3.4304591533787237e-11  1.0574732425026320e-12  1.9252712010081667e-11  -3.8075603515320262e-11  -4.0373496048839387e-11  3.3818984304815850e-10  -1.0482861006251350e-10  3.4563467474909883e-11  2.7918078065802923e-10  -1.0166057423928021e-11  -1.5823802508178932e-10  7.0782451373362008e-10  -9.7359779903194513e-11  -3.1622518877671525e-10  3.3492768510140529e-10  -1.7627606588729781e-09  3.1751754321430279e-10  5.2667079933364041e-10  -9.3921790383556158e-10  5.5427963792027617e-11  4.6158586464614288e-10  -2.0802374983900992e-09  4.1335194219551569e-10  4.8873816076801569e-11  -7.7783513511629530e-10  6.2579698815048512e-09  -2.5231667157989395e-09  1.1102867272644774e-08  -2.6967591905768534e-09  6.0767526198768409e-09  3.0382491316373935e-10  -1.0068096206233382e-08  5.1677117753990847e-09  -2.7534115834475714e-08  8.9689245367669390e-09  -3.7317806204963962e-08  1.0594623079420685e-08  -4.0077928119698713e-08  1.0586087824041299e-08  -3.7174849132265315e-08  8.7248616937677906e-09  -2.6310959069602732e-08  5.0685749426178232e-09  -1.1416167087033997e-08  -1.8825375090155213e-09  -8.3021156290899392e-10  3.6490908682776314e-10  9.5298815263763125e-11  -6.0274827822467212e-11  2.9173230447305046e-12  6.9892844132700074e-12  -6.6547392349543132e-12  1.9365008754034037e-13  2.8335952295699742e-12  -1.2437670743905970e-11  -4.7751794369521452e-13  4.5648559024760379e-10  3.2651043111160254e-12  -1.0225749240116255e-11  1.8589515241165638e-12  -3.3190793682199673e-12  1.0211913216529955e-13  1.5019750221550611e-12  -5.0334252947517434e-13  1.3507412