<?xml version="1.0"?>
<VTKFile type="UnstructuredGrid"  version="0.1"  >
<UnstructuredGrid>
<Piece  NumberOfPoints="11902" NumberOfCells="23402">
<Points>
<DataArray  type="Float64"  NumberOfComponents="3"  format="ascii">-5 -5 0  5 -5 0  5 5 0  -5 5 0  1.219370407094949 0.001359465498024146 0  -4.9 -5 0  -4.8 -5 0  -4.7 -5 0  -4.6 -5 0  -4.5 -5 0  -4.4 -5 0  -4.3 -5 0  -4.2 -5 0  -4.1 -5 0  -4 -5 0  -3.9 -5 0  -3.8 -5 0  -3.7 -5 0  -3.6 -5 0  -3.5 -5 0  -3.4 -5 0  -3.3 -5 0  -3.2 -5 0  -3.1 -5 0  -3 -5 0  -2.9 -5 0  -2.8 -5 0  -2.7 -5 0  -2.6 -5 0  -2.5 -5 0  -2.4 -5 0  -2.3 -5 0  -2.2 -5 0  -2.1 -5 0  -2 -5 0  -1.9 -5 0  -1.8 -5 0  -1.7 -5 0  -1.6 -5 0  -1.5 -5 0  -1.4 -5 0  -1.3 -5 0  -1.2 -5 0  -1.1 -5 0  -1 -5 0  -0.9000000000000004 -5 0  -0.7999999999999998 -5 0  -0.7000000000000002 -5 0  -0.5999999999999996 -5 0  -0.5 -5 0  -0.4000000000000004 -5 0  -0.2999999999999998 -5 0  -0.2000000000000002 -5 0  -0.09999999999999964 -5 0  0 -5 0  0.09999999999999964 -5 0  0.2000000000000002 -5 0  0.2999999999999998 -5 0  0.4000000000000004 -5 0  0.5 -5 0  0.5999999999999996 -5 0  0.7000000000000002 -5 0  0.7999999999999998 -5 0  0.9000000000000004 -5 0  1 -5 0  1.1 -5 0  1.2 -5 0  1.3 -5 0  1.4 -5 0  1.5 -5 0  1.6 -5 0  1.7 -5 0  1.8 -5 0  1.9 -5 0  2 -5 0  2.1 -5 0  2.2 -5 0  2.3 -5 0  2.4 -5 0  2.5 -5 0  2.6 -5 0  2.7 -5 0  2.8 -5 0  2.9 -5 0  3 -5 0  3.1 -5 0  3.199999999999999 -5 0  3.300000000000001 -5 0  3.4 -5 0  3.5 -5 0  3.6 -5 0  3.699999999999999 -5 0  3.800000000000001 -5 0  3.9 -5 0  4 -5 0  4.1 -5 0  4.199999999999999 -5 0  4.300000000000001 -5 0  4.4 -5 0  4.5 -5 0  4.6 -5 0  4.699999999999999 -5 0  4.800000000000001 -5 0  4.9 -5 0  5 -4.9 0  5 -4.8 0  5 -4.7 0  5 -4.6 0  5 -4.5 0  5 -4.4 0  5 -4.3 0  5 -4.2 0  5 -4.1 0  5 -4 0  5 -3.9 0  5 -3.8 0  5 -3.7 0  5 -3.6 0  5 -3.5 0  5 -3.4 0  5 -3.3 0  5 -3.2 0  5 -3.1 0  5 -3 0  5 -2.9 0  5 -2.8 0  5 -2.7 0  5 -2.6 0  5 -2.5 0  5 -2.4 0  5 -2.3 0  5 -2.2 0  5 -2.1 0  5 -2 0  5 -1.9 0  5 -1.8 0  5 -1.7 0  5 -1.6 0  5 -1.5 0  5 -1.4 0  5 -1.3 0  5 -1.2 0  5 -1.1 0  5 -1 0  5 -0.9000000000000004 0  5 -0.7999999999999998 0  5 -0.7000000000000002 0  5 -0.5999999999999996 0  5 -0.5 0  5 -0.4000000000000004 0  5 -0.2999999999999998 0  5 -0.2000000000000002 0  5 -0.09999999999999964 0  5 0 0  5 0.09999999999999964 0  5 0.2000000000000002 0  5 0.2999999999999998 0  5 0.4000000000000004 0  5 0.5 0  5 0.5999999999999996 0  5 0.7000000000000002 0  5 0.7999999999999998 0  5 0.9000000000000004 0  5 1 0  5 1.1 0  5 1.2 0  5 1.3 0  5 1.4 0  5 1.5 0  5 1.6 0  5 1.7 0  5 1.8 0  5 1.9 0  5 2 0  5 2.1 0  5 2.2 0  5 2.3 0  5 2.4 0  5 2.5 0  5 2.6 0  5 2.7 0  5 2.8 0  5 2.9 0  5 3 0  5 3.1 0  5 3.199999999999999 0  5 3.300000000000001 0  5 3.4 0  5 3.5 0  5 3.6 0  5 3.699999999999999 0  5 3.800000000000001 0  5 3.9 0  5 4 0  5 4.1 0  5 4.199999999999999 0  5 4.300000000000001 0  5 4.4 0  5 4.5 0  5 4.6 0  5 4.699999999999999 0  5 4.800000000000001 0  5 4.9 0  4.9 5 0  4.8 5 0  4.7 5 0  4.6 5 0  4.5 5 0  4.4 5 0  4.3 5 0  4.2 5 0  4.1 5 0  4 5 0  3.9 5 0  3.8 5 0  3.7 5 0  3.6 5 0  3.5 5 0  3.4 5 0  3.3 5 0  3.2 5 0  3.1 5 0  3 5 0  2.9 5 0  2.8 5 0  2.7 5 0  2.6 5 0  2.5 5 0  2.4 5 0  2.3 5 0  2.2 5 0  2.1 5 0  2 5 0  1.9 5 0  1.8 5 0  1.7 5 0  1.6 5 0  1.5 5 0  1.4 5 0  1.3 5 0  1.2 5 0  1.1 5 0  1 5 0  0.9000000000000004 5 0  0.7999999999999998 5 0  0.7000000000000002 5 0  0.5999999999999996 5 0  0.5 5 0  0.4000000000000004 5 0  0.2999999999999998 5 0  0.2000000000000002 5 0  0.09999999999999964 5 0  0 5 0  -0.09999999999999964 5 0  -0.2000000000000002 5 0  -0.2999999999999998 5 0  -0.4000000000000004 5 0  -0.5 5 0  -0.5999999999999996 5 0  -0.7000000000000002 5 0  -0.7999999999999998 5 0  -0.9000000000000004 5 0  -1 5 0  -1.1 5 0  -1.2 5 0  -1.3 5 0  -1.4 5 0  -1.5 5 0  -1.6 5 0  -1.7 5 0  -1.8 5 0  -1.9 5 0  -2 5 0  -2.1 5 0  -2.2 5 0  -2.3 5 0  -2.4 5 0  -2.5 5 0  -2.6 5 0  -2.7 5 0  -2.8 5 0  -2.9 5 0  -3 5 0  -3.1 5 0  -3.199999999999999 5 0  -3.300000000000001 5 0  -3.4 5 0  -3.5 5 0  -3.6 5 0  -3.699999999999999 5 0  -3.800000000000001 5 0  -3.9 5 0  -4 5 0  -4.1 5 0  -4.199999999999999 5 0  -4.300000000000001 5 0  -4.4 5 0  -4.5 5 0  -4.6 5 0  -4.699999999999999 5 0  -4.800000000000001 5 0  -4.9 5 0  -5 4.9 0  -5 4.8 0  -5 4.7 0  -5 4.6 0  -5 4.5 0  -5 4.4 0  -5 4.3 0  -5 4.2 0  -5 4.1 0  -5 4 0  -5 3.9 0  -5 3.8 0  -5 3.7 0  -5 3.6 0  -5 3.5 0  -5 3.4 0  -5 3.3 0  -5 3.2 0  -5 3.1 0  -5 3 0  -5 2.9 0  -5 2.8 0  -5 2.7 0  -5 2.6 0  -5 2.5 0  -5 2.4 0  -5 2.3 0  -5 2.2 0  -5 2.1 0  -5 2 0  -5 1.9 0  -5 1.8 0  -5 1.7 0  -5 1.6 0  -5 1.5 0  -5 1.4 0  -5 1.3 0  -5 1.2 0  -5 1.1 0  -5 1 0  -5 0.9000000000000004 0  -5 0.7999999999999998 0  -5 0.7000000000000002 0  -5 0.5999999999999996 0  -5 0.5 0  -5 0.4000000000000004 0  -5 0.2999999999999998 0  -5 0.2000000000000002 0  -5 0.09999999999999964 0  -5 0 0  -5 -0.09999999999999964 0  -5 -0.2000000000000002 0  -5 -0.2999999999999998 0  -5 -0.4000000000000004 0  -5 -0.5 0  -5 -0.5999999999999996 0  -5 -0.7000000000000002 0  -5 -0.7999999999999998 0  -5 -0.9000000000000004 0  -5 -1 0  -5 -1.1 0  -5 -1.2 0  -5 -1.3 0  -5 -1.4 0  -5 -1.5 0  -5 -1.6 0  -5 -1.7 0  -5 -1.8 0  -5 -1.9 0  -5 -2 0  -5 -2.1 0  -5 -2.2 0  -5 -2.3 0  -5 -2.4 0  -5 -2.5 0  -5 -2.6 0  -5 -2.7 0  -5 -2.8 0  -5 -2.9 0  -5 -3 0  -5 -3.1 0  -5 -3.199999999999999 0  -5 -3.300000000000001 0  -5 -3.4 0  -5 -3.5 0  -5 -3.6 0  -5 -3.699999999999999 0  -5 -3.800000000000001 0  -5 -3.9 0  -5 -4 0  -5 -4.1 0  -5 -4.199999999999999 0  -5 -4.300000000000001 0  -5 -4.4 0  -5 -4.5 0  -5 -4.6 0  -5 -4.699999999999999 0  -5 -4.800000000000001 0  -5 -4.9 0  1.21304256023224 0.09824920432912441 0  1.19361585822927 0.1959203159958061 0  1.161463382213047 0.2928743269522006 0  1.120023216549372 0.3836566384087851 0  1.065842079836969 0.4741958007886123 0  1.002463997855644 0.5591348453651086 0  0.9278266452124787 0.6389077236534711 0  0.8440943623536808 0.7119515093643936 0  0.7535569688505328 0.7774263596158751 0  0.6541248636554279 0.8356608097346695 0  0.5474214071272463 0.8870685655414946 0  0.4372456249360687 0.9293762750068946 0  0.3250192751973786 0.962259808079636 0  0.2060169143135748 0.9844792334045676 0  0.08914478372947213 1.000293270243477 0  -0.02771650954795473 1.003164641983793 0  -0.1449574610314604 0.9923228823335131 0  -0.2653946796784555 0.9743593076263013 0  -0.3815685864134096 0.9486470559021127 0  -0.4918637105571264 0.9122245211263085 0  -0.5979927083786233 0.8663568057041459 0  -0.6988261490360375 0.8117166252331126 0  -0.792230964487822 0.7483100675671779 0  -0.8797965229890402 0.6771263793264185 0  -0.9604803564126848 0.5987364186987304 0  -1.030423310691033 0.5167371963789836 0  -1.090397765583431 0.4301657775881138 0  -1.139169874727792 0.3383924095482677 0  -1.175603220062813 0.2451780233810388 0  -1.199855457666237 0.1493687171004509 0  -1.212054319114857 0.0507148557552517 0  -1.212029485827284 -0.04876395194041428 0  -1.199735766424128 -0.146993887777213 0  -1.176034603212921 -0.2427127893023666 0  -1.138257379760741 -0.3381753948348759 0  -1.090694301909866 -0.4291758770430986 0  -1.031552304522355 -0.5160042780807066 0  -0.9622816222871264 -0.5974864015258685 0  -0.8820737361143787 -0.6746188240103684 0  -0.7943234193727066 -0.7445533480017137 0  -0.6993850969142892 -0.8056690905278389 0  -0.5979770513556562 -0.8597084329031152 0  -0.4886351537967046 -0.9073345958813536 0  -0.3773984030010543 -0.9457035908212449 0  -0.2622406716254492 -0.9732742457072694 0  -0.1435805238116995 -0.9915787207432439 0  -0.02764190618224417 -1.002237144979489 0  0.08967532870878915 -0.9970243355873889 0  0.2095590892007647 -0.9819176416189316 0  0.3269623525800548 -0.9605982916814116 0  0.4409820984926286 -0.9279673082689176 0  0.5493498558658403 -0.8861387159560589 0  0.6549199205739057 -0.8354371963328627 0  0.7536773626457437 -0.7785284138659777 0  0.8441388083294517 -0.7127791619558029 0  0.9272767456661724 -0.6384566939297125 0  1.00071384614314 -0.558501209916441 0  1.065667573690068 -0.4735198941210396 0  1.121008846105507 -0.3837024419057506 0  1.163007834949037 -0.2911744292341082 0  1.193978838802353 -0.1950404789980514 0  1.213105301284336 -0.09778845631844825 0  -2.448701009319342 4.918369888128428 0  -2.448587707622917 -4.910771503178721 0  4.910702059924374 2.448091584239647 0  4.918802477080241 -2.449535243620372 0  2.44634227845814 -4.896051341262934 0  2.440769990703846 4.899803384196113 0  -4.910726963378591 -2.448115909678395 0  -4.910724797517517 2.448119765986832 0  -1.748660353904645 4.911371935606814 0  -1.744440833725073 -4.914798866722501 0  4.920952937405294 1.744247895734072 0  4.909532042700413 -1.748034971348255 0  -4.909821994941844 -1.747766333558529 0  -4.910641542190206 1.747509101372192 0  1.745942246391473 4.905254957156196 0  1.747373807315865 -4.893446494989854 0  -1.148942092077502 4.909232163508126 0  -1.129788438457301 -4.917112400218758 0  -4.909633565239158 -1.148059450025735 0  -4.909453285102838 1.147859701790333 0  1.143930344912718 -4.913314045903348 0  1.148950823578169 4.909220065188756 0  4.909777113867077 1.146335944153815 0  4.920554523249157 -1.152102522043462 0  -0.5467214125078266 -4.910459206616524 0  -0.5464989338657567 4.919103087691981 0  -4.908441774988703 -0.5487817109773908 0  -4.908465975652017 0.5473386136218051 0  4.907769579662384 -0.5491015067394946 0  4.919362064837183 0.5458488690743468 0  0.5425089459557791 -4.897400845965613 0  0.5512285670687715 4.915941361417221 0  -4.91206498051939 -3.048440286912891 0  4.918624421263481 3.046446952864257 0  4.911574655897495 -3.048418308015632 0  -4.912911878392768 3.045530661289426 0  3.055411794790298 -4.917556049542384 0  -3.048750990174227 -4.91150364450794 0  3.052315660622476 4.913578318008232 0  -3.048195814132534 4.912391997935464 0  -4.907578181955459 -0.04991500866477998 0  0.04512314228451774 -4.912412921778696 0  0.04957115369589158 4.919406735716004 0  4.914597536952193 -0.05129663825993819 0  3.54570707546217 -4.919147857368423 0  -3.548995199
[...]
<PointData  Scalars="f_30"> 
<DataArray  type="Float64"  Name="f_30"  format="ascii">0.0000000000000000e+00  0.0000000000000000e+00  0.0000000000000000e+00  0.0000000000000000e+00  1.9331867632351615e-01  0.0000000000000000e+00  0.0000000000000000e+00  0.0000000000000000e+00  0.0000000000000000e+00  0.0000000000000000e+00  0.0000000000000000e+00  0.0000000000000000e+00  0.0000000000000000e+00  0.0000000000000000e+00  0.0000000000000000e+00  0.0000000000000000e+00  0.0000000000000000e+00  0.0000000000000000e+00  0.0000000000000000e+00  0.0000000000000000e+00  0.0000000000000000e+00  0.0000000000000000e+00  0.0000000000000000e+00  0.0000000000000000e+00  0.0000000000000000e+00  0.0000000000000000e+00  0.0000000000000000e+00  0.0000000000000000e+00  0.0000000000000000e+00  0.0000000000000000e+00  0.0000000000000000e+00  0.0000000000000000e+00  0.0000000000000000e+00  0.0000000000000000e+00  0.0000000000000000e+00  0.0000000000000000e+00  0.0000000000000000e+00  0.0000000000000000e+00  0.0000000000000000e+00  0.0000000000000000e+00  0.0000000000000000e+00  0.0000000000000000e+00  0.0000000000000000e+00  0.0000000000000000e+00  0.0000000000000000e+00  0.0000000000000000e+00  0.0000000000000000e+00  0.0000000000000000e+00  0.0000000000000000e+00  0.0000000000000000e+00  0.0000000000000000e+00  0.0000000000000000e+00  0.0000000000000000e+00  0.0000000000000000e+00  0.0000000000000000e+00  0.0000000000000000e+00  0.0000000000000000e+00  0.0000000000000000e+00  0.0000000000000000e+00  0.0000000000000000e+00  0.0000000000000000e+00  0.0000000000000000e+00  0.0000000000000000e+00  0.0000000000000000e+00  0.0000000000000000e+00  0.0000000000000000e+00  0.0000000000000000e+00  0.0000000000000000e+00  0.0000000000000000e+00  0.0000000000000000e+00  0.0000000000000000e+00  0.0000000000000000e+00  0.0000000000000000e+00  0.0000000000000000e+00  0.0000000000000000e+00  0.0000000000000000e+00  0.0000000000000000e+00  0.0000000000000000e+00  0.0000000000000000e+00  0.0000000000000000e+00  0.0000000000000000e+00  0.0000000000000000e+00  0.0000000000000000e+00  0.0000000000000000e+00  0.0000000000000000e+00  0.0000000000000000e+00  0.0000000000000000e+00  0.0000000000000000e+00  0.0000000000000000e+00  0.0000000000000000e+00  0.0000000000000000e+00  0.0000000000000000e+00  0.0000000000000000e+00  0.0000000000000000e+00  0.0000000000000000e+00  0.0000000000000000e+00  0.0000000000000000e+00  0.0000000000000000e+00  0.0000000000000000e+00  0.0000000000000000e+00  0.0000000000000000e+00  0.0000000000000000e+00  0.0000000000000000e+00  0.0000000000000000e+00  0.0000000000000000e+00  0.0000000000000000e+00  0.0000000000000000e+00  0.0000000000000000e+00  0.0000000000000000e+00  0.0000000000000000e+00  0.0000000000000000e+00  0.0000000000000000e+00  0.0000000000000000e+00  0.0000000000000000e+00  0.0000000000000000e+00  0.0000000000000000e+00  0.0000000000000000e+00  0.0000000000000000e+00  0.0000000000000000e+00  0.0000000000000000e+00  0.0000000000000000e+00  0.0000000000000000e+00  0.0000000000000000e+00  0.0000000000000000e+00  0.0000000000000000e+00  0.0000000000000000e+00  0.0000000000000000e+00  0.0000000000000000e+00  0.0000000000000000e+00  0.0000000000000000e+00  0.0000000000000000e+00  0.0000000000000000e+00  0.0000000000000000e+00  0.0000000000000000e+00  0.0000000000000000e+00  0.0000000000000000e+00  0.0000000000000000e+00  0.0000000000000000e+00  0.0000000000000000e+00  0.0000000000000000e+00  0.0000000000000000e+00  0.0000000000000000e+00  0.0000000000000000e+00  0.0000000000000000e+00  0.0000000000000000e+00  0.0000000000000000e+00  0.0000000000000000e+00  0.0000000000000000e+00  0.0000000000000000e+00  0.0000000000000000e+00  0.0000000000000000e+00  0.0000000000000000e+00  0.0000000000000000e+00  0.0000000000000000e+00  0.0000000000000000e+00  0.0000000000000000e+00  0.0000000000000000e+00  0.0000000000000000e+00  0.0000000000000000e+00  0.0000000000000000e+00  0.0000000000000000e+00  0.0000000000000000e+00  0.0000000000000000e+00  0.0000000000000000e+00  0.0000000000000000e+00  0.0000000000000000e+00  0.0000000000000000e+00  0.0000000000000000e+00  0.0000000000000000e+00  0.0000000000000000e+00  0.0000000000000000e+00  0.0000000000000000e+00  0.0000000000000000e+00  0.0000000000000000e+00  0.0000000000000000e+00  0.0000000000000000e+00  0.0000000000000000e+00  0.0000000000000000e+00  0.0000000000000000e+00  0.0000000000000000e+00  0.0000000000000000e+00  0.0000000000000000e+00  0.0000000000000000e+00  0.0000000000000000e+00  0.0000000000000000e+00  0.0000000000000000e+00  0.0000000000000000e+00  0.0000000000000000e+00  0.0000000000000000e+00  0.0000000000000000e+00  0.0000000000000000e+00  0.0000000000000000e+00  0.0000000000000000e+00  0.0000000000000000e+00  0.0000000000000000e+00  0.0000000000000000e+00  0.0000000000000000e+00  0.0000000000000000e+00  0.0000000000000000e+00  0.0000000000000000e+00  0.0000000000000000e+00  0.0000000000000000e+00  0.0000000000000000e+00  0.0000000000000000e+00  0.0000000000000000e+00  0.0000000000000000e+00  0.0000000000000000e+00  0.0000000000000000e+00  0.0000000000000000e+00  0.0000000000000000e+00  0.0000000000000000e+00  0.0000000000000000e+00  0.0000000000000000e+00  0.0000000000000000e+00  0.0000000000000000e+00  0.0000000000000000e+00  0.0000000000000000e+00  0.0000000000000000e+00  0.0000000000000000e+00  0.0000000000000000e+00  0.0000000000000000e+00  0.0000000000000000e+00  0.0000000000000000e+00  0.0000000000000000e+00  0.0000000000000000e+00  0.0000000000000000e+00  0.0000000000000000e+00  0.0000000000000000e+00  0.0000000000000000e+00  0.0000000000000000e+00  0.0000000000000000e+00  0.0000000000000000e+00  0.0000000000000000e+00  0.0000000000000000e+00  0.0000000000000000e+00  0.0000000000000000e+00  0.0000000000000000e+00  0.0000000000000000e+00  0.0000000000000000e+00  0.0000000000000000e+00  0.0000000000000000e+00  0.0000000000000000e+00  0.0000000000000000e+00  0.0000000000000000e+00  0.0000000000000000e+00  0.0000000000000000e+00  0.0000000000000000e+00  0.0000000000000000e+00  0.0000000000000000e+00  0.0000000000000000e+00  0.0000000000000000e+00  0.0000000000000000e+00  0.0000000000000000e+00  0.0000000000000000e+00  0.0000000000000000e+00  0.0000000000000000e+00  0.0000000000000000e+00  0.0000000000000000e+00  0.0000000000000000e+00  0.0000000000000000e+00  0.0000000000000000e+00  0.0000000000000000e+00  0.0000000000000000e+00  0.0000000000000000e+00  0.0000000000000000e+00  0.0000000000000000e+00  0.0000000000000000e+00  0.0000000000000000e+00  0.0000000000000000e+00  0.0000000000000000e+00  0.0000000000000000e+00  0.0000000000000000e+00  0.0000000000000000e+00  0.0000000000000000e+00  0.0000000000000000e+00  0.0000000000000000e+00  0.0000000000000000e+00  0.0000000000000000e+00  0.0000000000000000e+00  0.0000000000000000e+00  0.0000000000000000e+00  0.0000000000000000e+00  0.0000000000000000e+00  0.0000000000000000e+00  0.0000000000000000e+00  0.0000000000000000e+00  0.0000000000000000e+00  0.0000000000000000e+00  0.0000000000000000e+00  0.0000000000000000e+00  0.0000000000000000e+00  0.0000000000000000e+00  0.0000000000000000e+00  0.0000000000000000e+00  0.0000000000000000e+00  0.0000000000000000e+00  0.0000000000000000e+00  0.0000000000000000e+00  0.0000000000000000e+00  0.0000000000000000e+00  0.0000000000000000e+00  0.0000000000000000e+00  0.0000000000000000e+00  0.0000000000000000e+00  0.0000000000000000e+00  0.0000000000000000e+00  0.0000000000000000e+00  0.0000000000000000e+00  0.0000000000000000e+00  0.0000000000000000e+00  0.0000000000000000e+00  0.0000000000000000e+00  0.0000000000000000e+00  0.0000000000000000e+00  0.0000000000000000e+00  0.0000000000000000e+00  0.0000000000000000e+00  0.0000000000000000e+00  0.0000000000000000e+00  0.0000000000000000e+00  0.0000000000000000e+00  0.0000000000000000e+00  0.0000000000000000e+00  0.0000000000000000e+00  0.0000000000000000e+00  0.0000000000000000e+00  0.0000000000000000e+00  0.0000000000000000e+00  0.0000000000000000e+00  0.0000000000000000e+00  0.0000000000000000e+00  0.0000000000000000e+00  0.0000000000000000e+00  0.0000000000000000e+00  0.0000000000000000e+00  0.0000000000000000e+00  0.0000000000000000e+00  0.0000000000000000e+00  0.0000000000000000e+00  0.0000000000000000e+00  0.0000000000000000e+00  0.0000000000000000e+00  0.0000000000000000e+00  0.0000000000000000e+00  0.0000000000000000e+00  0.0000000000000000e+00  0.0000000000000000e+00  0.0000000000000000e+00  0.0000000000000000e+00  0.0000000000000000e+00  0.0000000000000000e+00  0.0000000000000000e+00  0.0000000000000000e+00  0.0000000000000000e+00  0.0000000000000000e+00  0.0000000000000000e+00  0.0000000000000000e+00  0.0000000000000000e+00  0.0000000000000000e+00  0.0000000000000000e+00  0.0000000000000000e+00  0.0000000000000000e+00  0.0000000000000000e+00  0.0000000000000000e+00  0.0000000000000000e+00  0.0000000000000000e+00  0.0000000000000000e+00  0.0000000000000000e+00  0.0000000000000000e+00  0.0000000000000000e+00  0.0000000000000000e+00  0.0000000000000000e+00  0.0000000000000000e+00  0.0000000000000000e+00  0.0000000000000000e+00  0.0000000000000000e+00  0.0000000000000000e+00  0.0000000000000000e+00  0.0000000000000000e+00  0.0000000000000000e+00  0.0000000000000000e+00  0.0000000000000000e+00  0.0000000000000000e+00  0.0000000000000000e+00  0.0000000000000000e+00  0.0000000000000000e+00  0.0000000000000000e+00  0.0000000000000000e+00  0.0000000000000000e+00  0.0000000000000000e+00  0.0000000000000000e+00  0.0000000000000000e+00  0.0000000000000000e+00  0.0000000000000000e+00  0.0000000000000000e+00  0.0000000000000000e+00  0.0000000000000000e+00  0.0000000000000000e+00  0.0000000000000000e+00  0.0000000000000000e+00  0.0000000000000000e+00  2.0010434693865364e-01  1.8697482029287357e-01  1.4698683694365114e-01  1.4570537963262534e-01  1.7065061201962309e-01  2.2192728851336038e-01  2.1023109765141962e-01  1.6287479775698252e-01  1.8144369834611013e-01  2.2324862262950881e-01  2.0254269256491475e-01  1.9772189099557150e-01  2.2956001958908517e-01  1.7664616093526514e-01  1.8040958559299911e-01  1.7927152950619554e-01  1.5262064467638062e-01  1.8234382721062267e-01  2.0169753327040427e-01  1.7797375694862319e-01  1.8700262466661982e-01  1.8007309993486637e-01  1.9033805818243801e-01  2.0767874946255893e-01  1.8844188887677221e-01  1.6832514464214457e-01  1.9472946517073972e-01  1.8277082907419209e-01  1.5535537104602976e-01  1.6903045816598822e-01  1.8176769883090091e-01  1.8748855760519395e-01  1.7905514243798121e-01  2.4712806765807399e-01  1.7876873845219007e-01  2.0229980978179676e-01  1.8372775541555353e-01  2.0990250268813537e-01  2.0601823236489450e-01  1.8033196847790581e-01  1.4123685930005084e-01  2.2340910186719934e-01  1.7324311467339404e-01  2.0790819182348816e-01  1.9276425568391473e-01  1.8155650428400741e-01  2.6503011396007697e-01  2.2514168338823104e-01  1.8649298869140923e-01  1.9614565199393455e-01  1.8191491172456004e-01  1.6268507937932905e-01  1.8098243662500837e-01  2.1713366823470148e-01  1.9349554967036717e-01  1.8551282853967391e-01  1.6613194101081730e-01  1.8508647523732402e-01  2.4203360047945385e-01  2.0283867948871223e-01  1.9641027988557788e-01  2.0707767870735602e-01  3.6122095024809894e-27  -1.3177595081821121e-27  -2.6372988715237617e-27  -2.9362111640722213e-27  -1.2755289893648286e-27  -5.3194442263182357e-28  -2.0321713417271050e-28  1.8085996686874755e-27  7.1908687242910071e-27  4.1261770621211806e-27  -7.0167490256112202e-25  -6.6245822234501436e-25  5.4015518501456413e-25  1.1894523417819694e-24  3.7090728069241888e-26  3.0576903325227326e-26  -4.7813028934406225e-26  -3.0032525637985394e-26  -1.1242593903028001e-22  -1.6505400375659933e-22  -4.3274599201175371e-26  -4.9234024647645106e-26  4.7612438807627016e-23  4.7758642444249007e-23  -4.7363383888220515e-27  -3.9749849287344634e-26  -7.5369922514972739e-21  -7.1236227295725738e-21  -4.5758827734379511e-21  -4.8274273516129584e-21  8.3199877585879438e-26  -2.6524107049149399e-26  7.1703404420402757e-30  -8.8439282748373570e-30  -9.0742321390188229e-30  1.6282536854773988e-29  1.9759785218707396e-28  3.9844512927530615e-28  2.8927703820161202e-28  3.1818206925649872e-28  3.5536295897374209e-20  6.3546868853774549e-26  1.2229692276427130e-26  3.8447620373421489e-20  -9.0965202562659248e-30  -9.9263756730024034e-30  -6.2620469890268479e-30  2.3186072471705301e-31  2.4329242332435367e-31  2.3940965815793736e-31  1.4562221754414411e-31  -9.9633752456913840e-30  -6.1356144664641722e-33  -2.3068917994038065e-32  1.1371221332049669e-31  -4.0599780147066113e-33  2.5154790715520699e-32  -6.0625819634127081e-33  1.3756200499669616e-31  -9.9017372142911197e-34  -1.2942973853333503e-33  -4.6819450244301425e-34  -1.9574383244426849e-34  1.4856514423179103e-34  1.3409178713688933e-34  7.7341103401614666e-35  7.3735965722070445e-36  -1.6096912291676667e-33  2.7758149763431195e-20  4.6289351726100242e-26  -1.3626362407318893e-26  1.3821897339428649e-20  1.1675320636688276e-25  -3.4725235730230500e-24  1.3394908200137010e-21  8.8430431343565801e-22  -3.2579694199898123e-24  2.7352232563209937e-26  7.8783955159951866e-26  -5.2869837277032423e-26  -3.8570232854782386e-26  -1.1547888573761263e-23  3.9597120416251727e-22  4.1482009718090988e-22  -1.1338401651153274e-23  -2.5518593717081911e-27  8.8214706084730847e-26  -4.0406342519723080e-27  5.5585291523729633e-27  -6.5547235743461961e-27  8.9115009460060562e-26  1.1270769934555816e-25  -4.0128307555431664e-27  -2.4124666353314919e-27  3.0464784307852980e-26  2.8830729326582962e-26  -1.5704726885002870e-28  -7.7609237053009037e-28  -1.2224855873527609e-27  2.0590622795880381e-28  6.3878893848976364e-28  6.7275917251666008e-29  -1.5133887834139948e-28  -9.2255085969454002e-28  1.2567464680067036e-35  1.8952173107832295e-35  7.5316869548581231e-36  -1.6946014450757688e-36  6.4699466703836781e-36  1.5368884356096317e-36  1.0557455954560828e-35  5.2340027384275342e-37  2.7877468519153833e-20  1.2035386011507407e-25  1.1446515838972379e-25  1.3760367256393691e-20  -1.7863421209961361e-27  4.4955690769878828e-27  4.7956990405080742e-27  -7.1560150638149431e-27  -1.1865851321303860e-26  -6.9952176483895092e-29  -8.1944905005523146e-27  -2.0294424314477323e-26  3.5252787792827257e-30  -1.1192037796987186e-28  -7.3960877942229680e-29  2.8341013030859182e-30  3.4754379115898954e-30  -9.6395366047760530e-29  -1.2779677724611212e-28  1.1569376010969189e-30  -3.7499960661511660e-33  3.6441413925575061e-34  1.2052989066610905e-30  -1.2997729088942067e-32  2.7360695262164599e-31  -1.5412839789443448e-32  -3.6562405365564788e-32  1.2126588243734579e-33  8.1374459097129860e-31  -1.3325622371628591e-32  -1.3655503545561261e-33  2.9198310908850615e-34  -4.4317823383296581e-32  1.2637524807636486e-33  5.2319082295199844e-31  -1.7094966122688673e-32  -3.7014097762695261e-36  -1.7453802059731752e-36  -2.9595977816672341e-36  -3.4662510875544226e-36  3.4840952585083921e-20  -1.2995853858762614e-19  -8.5771483723293572e-20  4.2076950467076729e-19  2.0515162299596551e-19  -1.2097206018827387e-18  -3.1622075389691503e-19  2.8705393541599205e-18  -2.7975276154276077e-19  -4.3099802263331800e-18  4.7474873958412253e-18  -4.6496832536893200e-18  -2.3363936210274930e-17  6.8991207367764151e-17  8.0970996137912904e-17  -3.3342387600894146e-16  -2.1158946657728288e-16  1.1328876148844291e-15  3.8162536664711775e-16  -2.8846907266159952e-15  -2.0353342737618949e-16  -4.7525365954294436e-15  4.9165518400868854e-15  -1.6200971829949402e-15  -1.5863600216499391e-15  7.3808898630704454e-15  -2.5145867567849508e-14  -1.5924052021894603e-14  9.9126085608962647e-14  9.7169927499685848e-15  -1.8521731252323404e-13  5.6053603316652080e-14  -3.7650739212833320e-13  2.9176648734516409e-14  -1.9703582055906338e-13  8.8654762440766410e-13  1.5536379761337906e-13  -2.2293419324463915e-12  7.7802405227378639e-13  -1.2244252396642891e-13  -2.4767514809653588e-12  1.3240153663222959e-11  -1.0637138440893900e-13  -2.1326471230207283e-11  -2.3720651403139465e-11  1.5576243918206186e-11  -4.0435940712725796e-11  -2.6197008223529568e-11  -3.0475898489259895e-13  1.7310819801968161e-11  -4.9867783439913214e-11  -2.3475129178620966e-11  -1.2717077613959998e-12  1.8382145552309448e-11  -2.7278779903502559e-12  -3.2804597248251072e-12  -1.3737048960419216e-11  1.8262694108335255e-11  -1.8308167755221184e-12  -6.7099889927877173e-12  1.4874962458935157e-12  3.6898610847601815e-13  1.1085114065974959e-11  -8.5790473594444626e-12  9.5890403880875906e-13  3.5615959527936238e-12  -1.4405373450913913e-11  2.2790833054444603e-12  -9.7888624712900022e-13  2.8368199372022675e-13  -4.9727530442517817e-12  2.1933217603954372e-12  -8.9153988059285681e-12  1.4121260447279183e-13  1.4211343040851971e-12  2.1923221448725511e-12  -3.5655692278116435e-12  2.5691760819864480e-11  -9.9231822391861740e-12  4.6010854671704843e-11  -1.3699277790294976e-11  5.3263003614089911e-11  3.2758521816239744e-12  -1.4243349671144897e-11  5.2221871505678918e-11  -1.3903431931898083e-11  5.2099130709783742e-11  -1.4170487673320931e-11  5.2925838436569119e-11  -1.3636780139615996e-11  4.6053674996064185e-11  -1.0050829635958313e-11  2.6443200243319233e-11  -3.7217620638399099e-12  1.9326573916985354e-12  3.2816301437661045e-12  -1.3958260398327162e-10  2.5303172476646556e+00  1.9658092630469425e-12  -1.3155712751848547e-11  3.9195708748014958e-12  -1.2890531437593997e-11  2.5549136417929987e+00  2.4092847529422644e-12  -4.4103556169430784e-12  2.5119119855274716e+00  1.7720791652014586e-13  1.8654627261456677e-12  1.7141497504625803e-12  -1.0303320565891771e-11  2.3502216035679101e-12  -4.7668951271800549e-12  -1.9087807546030404e-10  -3.2981766074383923e-13  1.8425556737304817e-13  2.4648718890241219e-12  1.3478367517603680e-12  -1.3791152398826432e-11  3.1900060071181676e-12  -6.8565428071770203e-12  4.4373568219684116e-11  5.1244423286009592e-12  1.7259146563679951e-12  -1.0570156762629400e-11  2.9624798538144288e-11  2.7853503397080284e-11  -3.0701508966485795e-12  -2.6885079741650996e-12  -2.9985933095693607e-11  2.4131751309985793e-11  -4.4953000628544062e-12  2.5565115503578243e-12  -4.7095572001687417e-11  1.4856795753080363e-11  -3.5624622435453027e-12  2.0495059098053989e-12  -3.4325661422264693e-11  1.3012138897649916e-11  -1.6565022572210063e-11  -2.7053307659959575e-11  7.5594031267858325e-13  1.4720770065272761e-11  -2.5683588429226652e-11  -3.4306353798571075e-11  1.0565651707298803e-12  1.9256439196712577e-11  -3.8095366399928174e-11  -4.0371795505057180e-11  3.3821159217612868e-10  -1.0484545861382291e-10  3.4638848158988796e-11  2.7917633845599009e-10  -1.0161571336871364e-11  -1.5824473242431523e-10  7.0787098184465545e-10  -9.7369307597054187e-11  -3.1623709827830699e-10  3.3495561694559235e-10  -1.7629399901451632e-09  3.1756518520183256e-10  5.2660277991093550e-10  -9.3926813614713456e-10  5.5424454388893601e-11  4.6162279198038658e-10  -2.0804657775760314e-09  4.1343258797682261e-10  4.8520858817321397e-11  -7.7773317090585368e-10  6.2575746975942351e-09  -2.5230571133725224e-09  1.1102443266732938e-08  -2.6966397525652916e-09  6.0762849467304569e-09  3.0395595496420518e-10  -1.0068595497179189e-08  5.1678435146260216e-09  -2.7534571407657668e-08  8.9690267019527329e-09  -3.7318084189512654e-08  1.0594665274648973e-08  -4.0077971395785929e-08  1.0586077667825604e-08  -3.7174767798371674e-08  8.7248402752312486e-09  -2.6310905241562698e-08  5.0685689158824249e-09  -1.1416170691925376e-08  -1.8825335116723659e-09  -8.3021160656761519e-10  3.6490859216733435e-10  9.5299032488495718e-11  -6.0274816182923190e-11  2.9172628527500997e-12  6.9892979275155218e-12  -6.6547299502704447e-12  1.9364579113317592e-13  2.8335948203289020e-12  -1.2437675106856912e-11  -4.7751719486536840e-13  4.5645708305527370e-10  3.2651056345665973e-12  -1.0225752061877428e-11  1.8589516569980663e-12  -3.3190781516360637e-12  1.0211878301210103e-13  1.5019756525982821e-12  -5.0334253807199348e-13  1.3507408