<?xml version="1.0"?>
<VTKFile type="UnstructuredGrid"  version="0.1"  >
<UnstructuredGrid>
<Piece  NumberOfPoints="11902" NumberOfCells="23402">
<Points>
<DataArray  type="Float64"  NumberOfComponents="3"  format="ascii">-5 -5 0  5 -5 0  5 5 0  -5 5 0  1.26466159434596 0.001264291635559718 0  -4.9 -5 0  -4.8 -5 0  -4.7 -5 0  -4.6 -5 0  -4.5 -5 0  -4.4 -5 0  -4.3 -5 0  -4.2 -5 0  -4.1 -5 0  -4 -5 0  -3.9 -5 0  -3.8 -5 0  -3.7 -5 0  -3.6 -5 0  -3.5 -5 0  -3.4 -5 0  -3.3 -5 0  -3.2 -5 0  -3.1 -5 0  -3 -5 0  -2.9 -5 0  -2.8 -5 0  -2.7 -5 0  -2.6 -5 0  -2.5 -5 0  -2.4 -5 0  -2.3 -5 0  -2.2 -5 0  -2.1 -5 0  -2 -5 0  -1.9 -5 0  -1.8 -5 0  -1.7 -5 0  -1.6 -5 0  -1.5 -5 0  -1.4 -5 0  -1.3 -5 0  -1.2 -5 0  -1.1 -5 0  -1 -5 0  -0.9000000000000004 -5 0  -0.7999999999999998 -5 0  -0.7000000000000002 -5 0  -0.5999999999999996 -5 0  -0.5 -5 0  -0.4000000000000004 -5 0  -0.2999999999999998 -5 0  -0.2000000000000002 -5 0  -0.09999999999999964 -5 0  0 -5 0  0.09999999999999964 -5 0  0.2000000000000002 -5 0  0.2999999999999998 -5 0  0.4000000000000004 -5 0  0.5 -5 0  0.5999999999999996 -5 0  0.7000000000000002 -5 0  0.7999999999999998 -5 0  0.9000000000000004 -5 0  1 -5 0  1.1 -5 0  1.2 -5 0  1.3 -5 0  1.4 -5 0  1.5 -5 0  1.6 -5 0  1.7 -5 0  1.8 -5 0  1.9 -5 0  2 -5 0  2.1 -5 0  2.2 -5 0  2.3 -5 0  2.4 -5 0  2.5 -5 0  2.6 -5 0  2.7 -5 0  2.8 -5 0  2.9 -5 0  3 -5 0  3.1 -5 0  3.199999999999999 -5 0  3.300000000000001 -5 0  3.4 -5 0  3.5 -5 0  3.6 -5 0  3.699999999999999 -5 0  3.800000000000001 -5 0  3.9 -5 0  4 -5 0  4.1 -5 0  4.199999999999999 -5 0  4.300000000000001 -5 0  4.4 -5 0  4.5 -5 0  4.6 -5 0  4.699999999999999 -5 0  4.800000000000001 -5 0  4.9 -5 0  5 -4.9 0  5 -4.8 0  5 -4.7 0  5 -4.6 0  5 -4.5 0  5 -4.4 0  5 -4.3 0  5 -4.2 0  5 -4.1 0  5 -4 0  5 -3.9 0  5 -3.8 0  5 -3.7 0  5 -3.6 0  5 -3.5 0  5 -3.4 0  5 -3.3 0  5 -3.2 0  5 -3.1 0  5 -3 0  5 -2.9 0  5 -2.8 0  5 -2.7 0  5 -2.6 0  5 -2.5 0  5 -2.4 0  5 -2.3 0  5 -2.2 0  5 -2.1 0  5 -2 0  5 -1.9 0  5 -1.8 0  5 -1.7 0  5 -1.6 0  5 -1.5 0  5 -1.4 0  5 -1.3 0  5 -1.2 0  5 -1.1 0  5 -1 0  5 -0.9000000000000004 0  5 -0.7999999999999998 0  5 -0.7000000000000002 0  5 -0.5999999999999996 0  5 -0.5 0  5 -0.4000000000000004 0  5 -0.2999999999999998 0  5 -0.2000000000000002 0  5 -0.09999999999999964 0  5 0 0  5 0.09999999999999964 0  5 0.2000000000000002 0  5 0.2999999999999998 0  5 0.4000000000000004 0  5 0.5 0  5 0.5999999999999996 0  5 0.7000000000000002 0  5 0.7999999999999998 0  5 0.9000000000000004 0  5 1 0  5 1.1 0  5 1.2 0  5 1.3 0  5 1.4 0  5 1.5 0  5 1.6 0  5 1.7 0  5 1.8 0  5 1.9 0  5 2 0  5 2.1 0  5 2.2 0  5 2.3 0  5 2.4 0  5 2.5 0  5 2.6 0  5 2.7 0  5 2.8 0  5 2.9 0  5 3 0  5 3.1 0  5 3.199999999999999 0  5 3.300000000000001 0  5 3.4 0  5 3.5 0  5 3.6 0  5 3.699999999999999 0  5 3.800000000000001 0  5 3.9 0  5 4 0  5 4.1 0  5 4.199999999999999 0  5 4.300000000000001 0  5 4.4 0  5 4.5 0  5 4.6 0  5 4.699999999999999 0  5 4.800000000000001 0  5 4.9 0  4.9 5 0  4.8 5 0  4.7 5 0  4.6 5 0  4.5 5 0  4.4 5 0  4.3 5 0  4.2 5 0  4.1 5 0  4 5 0  3.9 5 0  3.8 5 0  3.7 5 0  3.6 5 0  3.5 5 0  3.4 5 0  3.3 5 0  3.2 5 0  3.1 5 0  3 5 0  2.9 5 0  2.8 5 0  2.7 5 0  2.6 5 0  2.5 5 0  2.4 5 0  2.3 5 0  2.2 5 0  2.1 5 0  2 5 0  1.9 5 0  1.8 5 0  1.7 5 0  1.6 5 0  1.5 5 0  1.4 5 0  1.3 5 0  1.2 5 0  1.1 5 0  1 5 0  0.9000000000000004 5 0  0.7999999999999998 5 0  0.7000000000000002 5 0  0.5999999999999996 5 0  0.5 5 0  0.4000000000000004 5 0  0.2999999999999998 5 0  0.2000000000000002 5 0  0.09999999999999964 5 0  0 5 0  -0.09999999999999964 5 0  -0.2000000000000002 5 0  -0.2999999999999998 5 0  -0.4000000000000004 5 0  -0.5 5 0  -0.5999999999999996 5 0  -0.7000000000000002 5 0  -0.7999999999999998 5 0  -0.9000000000000004 5 0  -1 5 0  -1.1 5 0  -1.2 5 0  -1.3 5 0  -1.4 5 0  -1.5 5 0  -1.6 5 0  -1.7 5 0  -1.8 5 0  -1.9 5 0  -2 5 0  -2.1 5 0  -2.2 5 0  -2.3 5 0  -2.4 5 0  -2.5 5 0  -2.6 5 0  -2.7 5 0  -2.8 5 0  -2.9 5 0  -3 5 0  -3.1 5 0  -3.199999999999999 5 0  -3.300000000000001 5 0  -3.4 5 0  -3.5 5 0  -3.6 5 0  -3.699999999999999 5 0  -3.800000000000001 5 0  -3.9 5 0  -4 5 0  -4.1 5 0  -4.199999999999999 5 0  -4.300000000000001 5 0  -4.4 5 0  -4.5 5 0  -4.6 5 0  -4.699999999999999 5 0  -4.800000000000001 5 0  -4.9 5 0  -5 4.9 0  -5 4.8 0  -5 4.7 0  -5 4.6 0  -5 4.5 0  -5 4.4 0  -5 4.3 0  -5 4.2 0  -5 4.1 0  -5 4 0  -5 3.9 0  -5 3.8 0  -5 3.7 0  -5 3.6 0  -5 3.5 0  -5 3.4 0  -5 3.3 0  -5 3.2 0  -5 3.1 0  -5 3 0  -5 2.9 0  -5 2.8 0  -5 2.7 0  -5 2.6 0  -5 2.5 0  -5 2.4 0  -5 2.3 0  -5 2.2 0  -5 2.1 0  -5 2 0  -5 1.9 0  -5 1.8 0  -5 1.7 0  -5 1.6 0  -5 1.5 0  -5 1.4 0  -5 1.3 0  -5 1.2 0  -5 1.1 0  -5 1 0  -5 0.9000000000000004 0  -5 0.7999999999999998 0  -5 0.7000000000000002 0  -5 0.5999999999999996 0  -5 0.5 0  -5 0.4000000000000004 0  -5 0.2999999999999998 0  -5 0.2000000000000002 0  -5 0.09999999999999964 0  -5 0 0  -5 -0.09999999999999964 0  -5 -0.2000000000000002 0  -5 -0.2999999999999998 0  -5 -0.4000000000000004 0  -5 -0.5 0  -5 -0.5999999999999996 0  -5 -0.7000000000000002 0  -5 -0.7999999999999998 0  -5 -0.9000000000000004 0  -5 -1 0  -5 -1.1 0  -5 -1.2 0  -5 -1.3 0  -5 -1.4 0  -5 -1.5 0  -5 -1.6 0  -5 -1.7 0  -5 -1.8 0  -5 -1.9 0  -5 -2 0  -5 -2.1 0  -5 -2.2 0  -5 -2.3 0  -5 -2.4 0  -5 -2.5 0  -5 -2.6 0  -5 -2.7 0  -5 -2.8 0  -5 -2.9 0  -5 -3 0  -5 -3.1 0  -5 -3.199999999999999 0  -5 -3.300000000000001 0  -5 -3.4 0  -5 -3.5 0  -5 -3.6 0  -5 -3.699999999999999 0  -5 -3.800000000000001 0  -5 -3.9 0  -5 -4 0  -5 -4.1 0  -5 -4.199999999999999 0  -5 -4.300000000000001 0  -5 -4.4 0  -5 -4.5 0  -5 -4.6 0  -5 -4.699999999999999 0  -5 -4.800000000000001 0  -5 -4.9 0  1.256581647614195 0.09309690256439758 0  1.234411917432636 0.190920507027266 0  1.200624261723077 0.2876827695664835 0  1.15791684313436 0.3760676369480321 0  1.099250079859176 0.4672085363769158 0  1.032646390052494 0.5506688817197412 0  0.9540282470391318 0.6311646169532381 0  0.8667229761722225 0.706099219264986 0  0.7748890444534452 0.7713239394987709 0  0.6729837928112952 0.8287769589641444 0  0.5595784370867493 0.8810110188281052 0  0.4460354476423373 0.9260085398430462 0  0.3352978045816223 0.9576033066814543 0  0.2088046589179799 0.9800626596084934 0  0.08760513955121298 0.9985726085997489 0  -0.0263090184171958 1.002113808554545 0  -0.1439864622555069 0.9884440401873142 0  -0.2739406356023828 0.9685742609377991 0  -0.3940922772599765 0.9443983956216314 0  -0.5035925003344563 0.9092512505140926 0  -0.6131704412704573 0.8628319458486494 0  -0.7151263658649269 0.8077144076729306 0  -0.8095855675158097 0.7432473582770687 0  -0.9012381488913239 0.6694397388663391 0  -0.9878847611014793 0.5890858611236015 0  -1.062885311762856 0.5073971316085003 0  -1.12507063018272 0.4230455189204161 0  -1.180277805477481 0.3291984170921761 0  -1.217662268300426 0.2423587898506179 0  -1.242005393614443 0.1486445790413897 0  -1.252272079974234 0.05262338909491499 0  -1.252220190271459 -0.05031154401372115 0  -1.241893198800659 -0.145604209239827 0  -1.217291543812272 -0.2363682638521734 0  -1.175030415461049 -0.3316599019881509 0  -1.125368728452848 -0.4240981581694228 0  -1.065011595776024 -0.5072440014234986 0  -0.9904478450102566 -0.588107502782268 0  -0.9044074130317391 -0.6674181968250653 0  -0.8136562681173599 -0.7387812601506867 0  -0.7183666839676417 -0.7994100401243345 0  -0.6137326843595945 -0.8527793405490278 0  -0.4978217592274017 -0.9025277614951751 0  -0.385415558197997 -0.9424459982548103 0  -0.2706109025549573 -0.968432874560618 0  -0.1422525181004005 -0.9884982063678309 0  -0.02750903189876864 -1.001354018066383 0  0.08603293656597105 -0.9939422657970227 0  0.2153800817329792 -0.9759271066135586 0  0.338250165680964 -0.9557680660173092 0  0.450255509371933 -0.9246806293247093 0  0.5623331256210864 -0.8802343927254991 0  0.6742718446942628 -0.8286117565438341 0  0.774669076971593 -0.7725314751936403 0  0.8659408066074236 -0.7077356806020539 0  0.9517598723546637 -0.6318953038612101 0  1.030239348944218 -0.5492717256473512 0  1.100918172575138 -0.4655028872546401 0  1.158779644312086 -0.3763780732526709 0  1.202445381865541 -0.2857639158402726 0  1.235146215975047 -0.1902849163024966 0  1.256998917717365 -0.09320390755487309 0  -2.448521013143226 4.918042337459123 0  -2.448391275218789 -4.910413936181672 0  4.910335353271032 2.447836961325458 0  4.918469658563357 -2.449303987450159 0  2.446113954154283 -4.895631652629328 0  2.440548991137629 4.899397262574444 0  -4.910362691822689 -2.447864020517205 0  -4.910359998852265 2.44786818183256 0  -1.748473473256193 4.910897881463155 0  -1.74426153450258 -4.914343368957328 0  4.920489612830046 1.744017284859634 0  4.909002957155983 -1.747771054655763 0  -4.909298006536035 -1.747505926381673 0  -4.91012171141232 1.747251698124436 0  1.745743137221732 4.904745366131801 0  1.747150970961843 -4.892874481053492 0  -1.148792946975449 4.908655895978682 0  -1.129653804781768 -4.916585098065264 0  -4.908977430169611 -1.147845052761187 0  -4.908795339827104 1.147645817864996 0  1.143790370295099 -4.912762420989687 0  1.148802529131552 4.908641972812473 0  4.90911651769295 1.146119764559534 0  4.91997414543573 -1.151911778100475 0  -0.5466432285772028 -4.909831238781678 0  -0.5464288765255662 4.918534446860809 0  -4.907679285532518 -0.5486624395530088 0  -4.90770326849787 0.5472208045626246 0  4.906995350878117 -0.5489804089772568 0  4.918684803472787 0.5457434121211591 0  0.5424232364349337 -4.896679628955837 0  0.5511561801579409 4.915349925445572 0  -4.911819239709013 -3.048232170540603 0  4.918395411835361 3.046252270637316 0  4.911326486776841 -3.048207084580293 0  -4.912667607429919 3.045324427730194 0  3.055251742318762 -4.917316980862455 0  -3.04857873524841 -4.911247814458623 0  3.052147212106666 4.913326952325099 0  -3.048024925610406 4.912138399441099 0  -4.906775921861062 -0.04990304231073405 0  0.04511826272312374 -4.911779718151381 0  0.04956519226454469 4.9188228350606 0  4.91385024877805 -0.05128581783329139 0  3.545580631881897 -4.918980975732926 0  -3.548857763120602 4.9
[...]
<PointData  Scalars="f_30"> 
<DataArray  type="Float64"  Name="f_30"  format="ascii">0.0000000000000000e+00  0.0000000000000000e+00  0.0000000000000000e+00  0.0000000000000000e+00  3.5516860788409356e-02  0.0000000000000000e+00  0.0000000000000000e+00  0.0000000000000000e+00  0.0000000000000000e+00  0.0000000000000000e+00  0.0000000000000000e+00  0.0000000000000000e+00  0.0000000000000000e+00  0.0000000000000000e+00  0.0000000000000000e+00  0.0000000000000000e+00  0.0000000000000000e+00  0.0000000000000000e+00  0.0000000000000000e+00  0.0000000000000000e+00  0.0000000000000000e+00  0.0000000000000000e+00  0.0000000000000000e+00  0.0000000000000000e+00  0.0000000000000000e+00  0.0000000000000000e+00  0.0000000000000000e+00  0.0000000000000000e+00  0.0000000000000000e+00  0.0000000000000000e+00  0.0000000000000000e+00  0.0000000000000000e+00  0.0000000000000000e+00  0.0000000000000000e+00  0.0000000000000000e+00  0.0000000000000000e+00  0.0000000000000000e+00  0.0000000000000000e+00  0.0000000000000000e+00  0.0000000000000000e+00  0.0000000000000000e+00  0.0000000000000000e+00  0.0000000000000000e+00  0.0000000000000000e+00  0.0000000000000000e+00  0.0000000000000000e+00  0.0000000000000000e+00  0.0000000000000000e+00  0.0000000000000000e+00  0.0000000000000000e+00  0.0000000000000000e+00  0.0000000000000000e+00  0.0000000000000000e+00  0.0000000000000000e+00  0.0000000000000000e+00  0.0000000000000000e+00  0.0000000000000000e+00  0.0000000000000000e+00  0.0000000000000000e+00  0.0000000000000000e+00  0.0000000000000000e+00  0.0000000000000000e+00  0.0000000000000000e+00  0.0000000000000000e+00  0.0000000000000000e+00  0.0000000000000000e+00  0.0000000000000000e+00  0.0000000000000000e+00  0.0000000000000000e+00  0.0000000000000000e+00  0.0000000000000000e+00  0.0000000000000000e+00  0.0000000000000000e+00  0.0000000000000000e+00  0.0000000000000000e+00  0.0000000000000000e+00  0.0000000000000000e+00  0.0000000000000000e+00  0.0000000000000000e+00  0.0000000000000000e+00  0.0000000000000000e+00  0.0000000000000000e+00  0.0000000000000000e+00  0.0000000000000000e+00  0.0000000000000000e+00  0.0000000000000000e+00  0.0000000000000000e+00  0.0000000000000000e+00  0.0000000000000000e+00  0.0000000000000000e+00  0.0000000000000000e+00  0.0000000000000000e+00  0.0000000000000000e+00  0.0000000000000000e+00  0.0000000000000000e+00  0.0000000000000000e+00  0.0000000000000000e+00  0.0000000000000000e+00  0.0000000000000000e+00  0.0000000000000000e+00  0.0000000000000000e+00  0.0000000000000000e+00  0.0000000000000000e+00  0.0000000000000000e+00  0.0000000000000000e+00  0.0000000000000000e+00  0.0000000000000000e+00  0.0000000000000000e+00  0.0000000000000000e+00  0.0000000000000000e+00  0.0000000000000000e+00  0.0000000000000000e+00  0.0000000000000000e+00  0.0000000000000000e+00  0.0000000000000000e+00  0.0000000000000000e+00  0.0000000000000000e+00  0.0000000000000000e+00  0.0000000000000000e+00  0.0000000000000000e+00  0.0000000000000000e+00  0.0000000000000000e+00  0.0000000000000000e+00  0.0000000000000000e+00  0.0000000000000000e+00  0.0000000000000000e+00  0.0000000000000000e+00  0.0000000000000000e+00  0.0000000000000000e+00  0.0000000000000000e+00  0.0000000000000000e+00  0.0000000000000000e+00  0.0000000000000000e+00  0.0000000000000000e+00  0.0000000000000000e+00  0.0000000000000000e+00  0.0000000000000000e+00  0.0000000000000000e+00  0.0000000000000000e+00  0.0000000000000000e+00  0.0000000000000000e+00  0.0000000000000000e+00  0.0000000000000000e+00  0.0000000000000000e+00  0.0000000000000000e+00  0.0000000000000000e+00  0.0000000000000000e+00  0.0000000000000000e+00  0.0000000000000000e+00  0.0000000000000000e+00  0.0000000000000000e+00  0.0000000000000000e+00  0.0000000000000000e+00  0.0000000000000000e+00  0.0000000000000000e+00  0.0000000000000000e+00  0.0000000000000000e+00  0.0000000000000000e+00  0.0000000000000000e+00  0.0000000000000000e+00  0.0000000000000000e+00  0.0000000000000000e+00  0.0000000000000000e+00  0.0000000000000000e+00  0.0000000000000000e+00  0.0000000000000000e+00  0.0000000000000000e+00  0.0000000000000000e+00  0.0000000000000000e+00  0.0000000000000000e+00  0.0000000000000000e+00  0.0000000000000000e+00  0.0000000000000000e+00  0.0000000000000000e+00  0.0000000000000000e+00  0.0000000000000000e+00  0.0000000000000000e+00  0.0000000000000000e+00  0.0000000000000000e+00  0.0000000000000000e+00  0.0000000000000000e+00  0.0000000000000000e+00  0.0000000000000000e+00  0.0000000000000000e+00  0.0000000000000000e+00  0.0000000000000000e+00  0.0000000000000000e+00  0.0000000000000000e+00  0.0000000000000000e+00  0.0000000000000000e+00  0.0000000000000000e+00  0.0000000000000000e+00  0.0000000000000000e+00  0.0000000000000000e+00  0.0000000000000000e+00  0.0000000000000000e+00  0.0000000000000000e+00  0.0000000000000000e+00  0.0000000000000000e+00  0.0000000000000000e+00  0.0000000000000000e+00  0.0000000000000000e+00  0.0000000000000000e+00  0.0000000000000000e+00  0.0000000000000000e+00  0.0000000000000000e+00  0.0000000000000000e+00  0.0000000000000000e+00  0.0000000000000000e+00  0.0000000000000000e+00  0.0000000000000000e+00  0.0000000000000000e+00  0.0000000000000000e+00  0.0000000000000000e+00  0.0000000000000000e+00  0.0000000000000000e+00  0.0000000000000000e+00  0.0000000000000000e+00  0.0000000000000000e+00  0.0000000000000000e+00  0.0000000000000000e+00  0.0000000000000000e+00  0.0000000000000000e+00  0.0000000000000000e+00  0.0000000000000000e+00  0.0000000000000000e+00  0.0000000000000000e+00  0.0000000000000000e+00  0.0000000000000000e+00  0.0000000000000000e+00  0.0000000000000000e+00  0.0000000000000000e+00  0.0000000000000000e+00  0.0000000000000000e+00  0.0000000000000000e+00  0.0000000000000000e+00  0.0000000000000000e+00  0.0000000000000000e+00  0.0000000000000000e+00  0.0000000000000000e+00  0.0000000000000000e+00  0.0000000000000000e+00  0.0000000000000000e+00  0.0000000000000000e+00  0.0000000000000000e+00  0.0000000000000000e+00  0.0000000000000000e+00  0.0000000000000000e+00  0.0000000000000000e+00  0.0000000000000000e+00  0.0000000000000000e+00  0.0000000000000000e+00  0.0000000000000000e+00  0.0000000000000000e+00  0.0000000000000000e+00  0.0000000000000000e+00  0.0000000000000000e+00  0.0000000000000000e+00  0.0000000000000000e+00  0.0000000000000000e+00  0.0000000000000000e+00  0.0000000000000000e+00  0.0000000000000000e+00  0.0000000000000000e+00  0.0000000000000000e+00  0.0000000000000000e+00  0.0000000000000000e+00  0.0000000000000000e+00  0.0000000000000000e+00  0.0000000000000000e+00  0.0000000000000000e+00  0.0000000000000000e+00  0.0000000000000000e+00  0.0000000000000000e+00  0.0000000000000000e+00  0.0000000000000000e+00  0.0000000000000000e+00  0.0000000000000000e+00  0.0000000000000000e+00  0.0000000000000000e+00  0.0000000000000000e+00  0.0000000000000000e+00  0.0000000000000000e+00  0.0000000000000000e+00  0.0000000000000000e+00  0.0000000000000000e+00  0.0000000000000000e+00  0.0000000000000000e+00  0.0000000000000000e+00  0.0000000000000000e+00  0.0000000000000000e+00  0.0000000000000000e+00  0.0000000000000000e+00  0.0000000000000000e+00  0.0000000000000000e+00  0.0000000000000000e+00  0.0000000000000000e+00  0.0000000000000000e+00  0.0000000000000000e+00  0.0000000000000000e+00  0.0000000000000000e+00  0.0000000000000000e+00  0.0000000000000000e+00  0.0000000000000000e+00  0.0000000000000000e+00  0.0000000000000000e+00  0.0000000000000000e+00  0.0000000000000000e+00  0.0000000000000000e+00  0.0000000000000000e+00  0.0000000000000000e+00  0.0000000000000000e+00  0.0000000000000000e+00  0.0000000000000000e+00  0.0000000000000000e+00  0.0000000000000000e+00  0.0000000000000000e+00  0.0000000000000000e+00  0.0000000000000000e+00  0.0000000000000000e+00  0.0000000000000000e+00  0.0000000000000000e+00  0.0000000000000000e+00  0.0000000000000000e+00  0.0000000000000000e+00  0.0000000000000000e+00  0.0000000000000000e+00  0.0000000000000000e+00  0.0000000000000000e+00  0.0000000000000000e+00  0.0000000000000000e+00  0.0000000000000000e+00  0.0000000000000000e+00  0.0000000000000000e+00  0.0000000000000000e+00  0.0000000000000000e+00  0.0000000000000000e+00  0.0000000000000000e+00  0.0000000000000000e+00  0.0000000000000000e+00  0.0000000000000000e+00  0.0000000000000000e+00  0.0000000000000000e+00  0.0000000000000000e+00  0.0000000000000000e+00  0.0000000000000000e+00  0.0000000000000000e+00  0.0000000000000000e+00  0.0000000000000000e+00  0.0000000000000000e+00  0.0000000000000000e+00  0.0000000000000000e+00  0.0000000000000000e+00  0.0000000000000000e+00  0.0000000000000000e+00  0.0000000000000000e+00  0.0000000000000000e+00  0.0000000000000000e+00  0.0000000000000000e+00  0.0000000000000000e+00  0.0000000000000000e+00  0.0000000000000000e+00  0.0000000000000000e+00  0.0000000000000000e+00  0.0000000000000000e+00  0.0000000000000000e+00  0.0000000000000000e+00  0.0000000000000000e+00  0.0000000000000000e+00  0.0000000000000000e+00  0.0000000000000000e+00  0.0000000000000000e+00  0.0000000000000000e+00  0.0000000000000000e+00  0.0000000000000000e+00  0.0000000000000000e+00  0.0000000000000000e+00  0.0000000000000000e+00  0.0000000000000000e+00  0.0000000000000000e+00  0.0000000000000000e+00  0.0000000000000000e+00  0.0000000000000000e+00  0.0000000000000000e+00  0.0000000000000000e+00  0.0000000000000000e+00  0.0000000000000000e+00  0.0000000000000000e+00  0.0000000000000000e+00  0.0000000000000000e+00  0.0000000000000000e+00  0.0000000000000000e+00  0.0000000000000000e+00  0.0000000000000000e+00  0.0000000000000000e+00  0.0000000000000000e+00  0.0000000000000000e+00  0.0000000000000000e+00  0.0000000000000000e+00  0.0000000000000000e+00  0.0000000000000000e+00  3.4692209343373165e-02  2.7159008257742659e-02  2.1654787006196993e-02  2.1610757902448999e-02  2.4518551741194324e-02  3.2615063969801808e-02  3.0021231686151520e-02  2.3225249816561454e-02  2.9848179629886212e-02  3.0260907588871226e-02  1.9893600275138472e-02  3.5779165279259888e-02  4.3937112544404584e-02  7.1413681255805272e-03  3.4625472155192273e-02  3.9399300104554349e-02  1.0847840701747552e-02  1.7733188830523171e-02  3.6642883476862370e-02  2.9836480878365084e-02  3.2695037096801903e-02  3.1005233547827922e-02  2.7415128883565721e-02  2.6019502604568822e-02  2.1494424389130618e-02  2.5193060549848038e-02  2.5084447808433094e-02  2.4833603579224341e-02  2.9159059977238572e-02  2.6990311144407909e-02  2.2721335581465926e-02  2.4169436209705287e-02  2.4116050687216856e-02  3.0750532677615700e-02  1.9343759966807688e-02  3.2898748695728126e-02  2.8602251505852012e-02  2.4156955877915161e-02  2.8831345396067826e-02  3.1599827063344764e-02  2.1037351859816245e-02  2.4494122879999556e-02  2.0186139220235641e-02  4.4710401438402818e-02  2.5356240437944946e-02  1.3732565697357616e-02  6.7254671172347943e-02  3.1499150975165709e-02  8.5206565398559878e-03  3.8138823197909552e-02  3.4910149439168259e-02  1.8709144847060627e-02  3.0040482489521705e-02  4.1713676521472648e-02  3.2844772613059001e-02  2.3454291528199930e-02  1.7295161740335449e-02  2.9516634822099663e-02  3.8904148880756488e-02  3.2610765624457472e-02  2.6600603777296047e-02  3.2174036845391538e-02  3.6120529026724009e-27  -1.3176456346161118e-27  -2.6372986295036685e-27  -2.9362107477990169e-27  -1.2753409966602734e-27  -5.3166637181077493e-28  -2.0321714705052877e-28  1.8085996354371352e-27  7.1905512337030329e-27  4.1261056694701752e-27  -7.0167484353457805e-25  -6.6245813796207956e-25  5.4015522503544370e-25  1.1894523946508412e-24  3.7093377834148750e-26  3.0578344251288948e-26  -4.7817198142391612e-26  -3.0032575440709391e-26  -1.1242594530386445e-22  -1.6505401270449846e-22  -4.3276066746460087e-26  -4.9235412407128633e-26  4.7612434492180737e-23  4.7758636904103266e-23  -4.7392478454199587e-27  -3.9752098571661624e-26  -7.5369923097170362e-21  -7.1236227058693881e-21  -4.5758828067292631e-21  -4.8274275362036078e-21  8.3206529856445107e-26  -2.6525573331196940e-26  7.1703364859790392e-30  -8.8439256988681718e-30  -9.0742300760528213e-30  1.6282533061856891e-29  1.9760123348712637e-28  3.9844710098667326e-28  2.8927893438660923e-28  3.1818411191552013e-28  3.5536295000442032e-20  6.3555646926728116e-26  1.2229037194503940e-26  3.8447621767908332e-20  -9.0965124795217529e-30  -9.9263713087035912e-30  -6.2620366000877978e-30  2.3186069130773779e-31  2.4329242529944361e-31  2.3940962041739711e-31  1.4562223007149402e-31  -9.9633773490248106e-30  -6.1356137728518326e-33  -2.3069039439376004e-32  1.1371218788273784e-31  -4.0599791879366469e-33  2.5154661106132468e-32  -6.0625809864442282e-33  1.3756193177510557e-31  -9.9017527167905842e-34  -1.2942977075053554e-33  -4.6819489359490156e-34  -1.9574414564661684e-34  1.4856513306925624e-34  1.3409178520476119e-34  7.7341140250042316e-35  7.3736441996859607e-36  -1.6096916311682201e-33  2.7758151073647740e-20  4.6291581912147704e-26  -1.3627689851665561e-26  1.3821898571545566e-20  1.1675523104050448e-25  -3.4725221802218022e-24  1.3394908247937655e-21  8.8430431815174849e-22  -3.2579679308004478e-24  2.7353602672270535e-26  7.8782414068306961e-26  -5.2877562859499197e-26  -3.8571529179748114e-26  -1.1547889018146708e-23  3.9597123357937187e-22  4.1482014386474761e-22  -1.1338401982518307e-23  -2.5504606363704246e-27  8.8214336341750675e-26  -4.0401517774026426e-27  5.5568780671423143e-27  -6.5560090583497108e-27  8.9114994713078764e-26  1.1270768594301852e-25  -4.0131679442879564e-27  -2.4128406466589188e-27  3.0464792187163019e-26  2.8830737155976160e-26  -1.5704723544539929e-28  -7.7610680859598985e-28  -1.2224622207768609e-27  2.0590619440020761e-28  6.3879522413357393e-28  6.7275882321470433e-29  -1.5133884737373199e-28  -9.2252235700728534e-28  1.2567466435578196e-35  1.8952179728035890e-35  7.5316856387214676e-36  -1.6946039066500236e-36  6.4699459219855124e-36  1.5368864859325524e-36  1.0557458794154409e-35  5.2340237641602351e-37  2.7877468737756752e-20  1.2036712860810636e-25  1.1446702172266997e-25  1.3760368707120590e-20  -1.7862935060586554e-27  4.4955673956867990e-27  4.7956970790396295e-27  -7.1561577488422120e-27  -1.1865849335532012e-26  -6.9820135317324422e-29  -8.1942396157971077e-27  -2.0294422570451183e-26  3.5252782680206100e-30  -1.1192110078104624e-28  -7.3961210929337987e-29  2.8341013100362706e-30  3.4754375067115348e-30  -9.6395371894329203e-29  -1.2779724014571223e-28  1.1569377187552615e-30  -3.7499932369778210e-33  3.6441397618724976e-34  1.2052975162487729e-30  -1.2997731463895014e-32  2.7360646480510196e-31  -1.5412842369775854e-32  -3.6562396781997849e-32  1.2126587332806329e-33  8.1374393746295470e-31  -1.3325625923719774e-32  -1.3655502677500023e-33  2.9198297105102732e-34  -4.4317815385074710e-32  1.2637524339608958e-33  5.2319045884724911e-31  -1.7094969371920610e-32  -3.7014104242003085e-36  -1.7453799065910098e-36  -2.9595981762292827e-36  -3.4662520641479765e-36  3.4840952160505894e-20  -1.2995853829606878e-19  -8.5771485349408874e-20  4.2076950816294094e-19  2.0515162981828164e-19  -1.2097206253792223e-18  -3.1622077518884079e-19  2.8705394507801045e-18  -2.7975271357312252e-19  -4.3099805240224505e-18  4.7474873492091943e-18  -4.6496825989079743e-18  -2.3363936439992470e-17  6.8991206792361439e-17  8.0970997868276095e-17  -3.3342387951157366e-16  -2.1158947368003824e-16  1.1328876397986904e-15  3.8162538800250104e-16  -2.8846908268598167e-15  -2.0353347341081041e-16  -4.7525366485210415e-15  4.9165521374106645e-15  -1.6200971398269130e-15  -1.5863606449362361e-15  7.3808900455938063e-15  -2.5145867094857023e-14  -1.5924053196140532e-14  9.9126088555951528e-14  9.7169964295290340e-15  -1.8521732961718848e-13  5.6053597030024817e-14  -3.7650738736429309e-13  2.9176699456933495e-14  -1.9703582392864523e-13  8.8654755016495921e-13  1.5536385828912010e-13  -2.2293420324267113e-12  7.7802385745146475e-13  -1.2244159233211619e-13  -2.4767512524073874e-12  1.3240151143287038e-11  -1.0637076050203076e-13  -2.1326473417716456e-11  -2.3720649755876684e-11  1.5576240537147008e-11  -4.0435928488565595e-11  -2.6197003054683388e-11  -3.0475886552830737e-13  1.7310816323026487e-11  -4.9867775223629920e-11  -2.3475122240257566e-11  -1.2717079704896486e-12  1.8382142153706347e-11  -2.7278772829575586e-12  -3.2804599427473918e-12  -1.3737042122762328e-11  1.8262690789654810e-11  -1.8308161248369370e-12  -6.7099889244736332e-12  1.4874960516546163e-12  3.6898659600800307e-13  1.1085111066029016e-11  -8.5790469266474119e-12  9.5890384012254067e-13  3.5615962031234480e-12  -1.4405375627153533e-11  2.2790838988650778e-12  -9.7888640765615557e-13  2.8368204670151914e-13  -4.9727543373694370e-12  2.1933223784655810e-12  -8.9154008104278728e-12  1.4121263677559518e-13  1.4211340628788436e-12  2.1923268819060385e-12  -3.5655714122868961e-12  2.5691767026018859e-11  -9.9231806264793153e-12  4.6010827161109164e-11  -1.3699262192545729e-11  5.3262920869820453e-11  3.2758500269277057e-12  -1.4243326342741720e-11  5.2221816681622335e-11  -1.3903440195034615e-11  5.2099284922351018e-11  -1.4170568868445386e-11  5.2926265283608981e-11  -1.3636908299242738e-11  4.6054110884787796e-11  -1.0050903813999431e-11  2.6443259039280150e-11  -3.7217184308814912e-12  1.9323384584690367e-12  3.2816605048488438e-12  -1.3958258822008877e-10  2.5215978991099179e+00  1.9658998636556891e-12  -1.3155953491901667e-11  3.9195823910963005e-12  -1.2890354571313462e-11  2.5931237955711581e+00  2.4091935667937166e-12  -4.4099336067495745e-12  2.4818638882013468e+00  1.7710246930828053e-13  1.8657581176381758e-12  1.7126656865480235e-12  -1.0303924054437914e-11  2.3502675363073825e-12  -4.7667487449122566e-12  -1.9087989642400762e-10  -3.2978813068685185e-13  1.8417794383463016e-13  2.4651796468439998e-12  1.3467414298076000e-12  -1.3792057138133051e-11  3.1901597092091836e-12  -6.8567899897365016e-12  4.4375636785749547e-11  5.1245171185288974e-12  1.7259942895923744e-12  -1.0570497931570344e-11  2.9626021822551654e-11  2.7854118291377255e-11  -3.0701505482486637e-12  -2.6889044424629941e-12  -2.9985393648381046e-11  2.4132979494872013e-11  -4.4953990293998002e-12  2.5560565293048292e-12  -4.7095941991091124e-11  1.4858878069245185e-11  -3.5627176600934786e-12  2.0490887050840691e-12  -3.4327538598189670e-11  1.3014895210298792e-11  -1.6575783468079105e-11  -2.7055951716137500e-11  7.5550476001975062e-13  1.4723856483194700e-11  -2.5696330132413544e-11  -3.4307980146450162e-11  1.0559258474662890e-12  1.9259279442499723e-11  -3.8109951242764749e-11  -4.0370753501686302e-11  3.3822898355032028e-10  -1.0485815160566587e-10  3.4693730757250169e-11  2.7917410228521227e-10  -1.0158294536092522e-11  -1.5825038572850402e-10  7.0791069503092051e-10  -9.7379074695172189e-11  -3.1623066826632465e-10  3.3497108700272039e-10  -1.7630548115894521e-09  3.1759896839762794e-10  5.2653614107894347e-10  -9.3929258606405165e-10  5.5420569090773656e-11  4.6164454056891888e-10  -2.0806069208985752e-09  4.1348378816338109e-10  4.8293693879266633e-11  -7.7766710812103227e-10  6.2573183275705965e-09  -2.5229858177286094e-09  1.1102166292050393e-08  -2.6965606565828475e-09  6.0759715249124112e-09  3.0404463854576795e-10  -1.0068933321198784e-08  5.1679317412662153e-09  -2.7534870496556277e-08  8.9690921521905641e-09  -3.7318255990052047e-08  1.0594690066217084e-08  -4.0077991474535780e-08  1.0586069894552513e-08  -3.7174714555373082e-08  8.7248269094134475e-09  -2.6310873509755574e-08  5.0685657933364227e-09  -1.1416174984844211e-08  -1.8825311363717789e-09  -8.3021178072704165e-10  3.6490832751757240e-10  9.5299191720792792e-11  -6.0274819449841095e-11  2.9172234997372057e-12  6.9893081391067095e-12  -6.6547245705292063e-12  1.9364295133529850e-13  2.8335947822967417e-12  -1.2437678601294141e-11  -4.7751675013148881e-13  4.5643856234602166e-10  3.2651065781038725e-12  -1.0225753857639342e-11  1.8589516892856637e-12  -3.3190771341127220e-12  1.0211851651955927e-13  1.5019760991509177e-12  -5.0334253711552844e-13  1.3507405