<?xml version="1.0"?>
<VTKFile type="UnstructuredGrid"  version="0.1"  >
<UnstructuredGrid>
<Piece  NumberOfPoints="11902" NumberOfCells="23402">
<Points>
<DataArray  type="Float64"  NumberOfComponents="3"  format="ascii">-5 -5 0  5 -5 0  5 5 0  -5 5 0  1.259149117967404 0.001341906553175302 0  -4.9 -5 0  -4.8 -5 0  -4.7 -5 0  -4.6 -5 0  -4.5 -5 0  -4.4 -5 0  -4.3 -5 0  -4.2 -5 0  -4.1 -5 0  -4 -5 0  -3.9 -5 0  -3.8 -5 0  -3.7 -5 0  -3.6 -5 0  -3.5 -5 0  -3.4 -5 0  -3.3 -5 0  -3.2 -5 0  -3.1 -5 0  -3 -5 0  -2.9 -5 0  -2.8 -5 0  -2.7 -5 0  -2.6 -5 0  -2.5 -5 0  -2.4 -5 0  -2.3 -5 0  -2.2 -5 0  -2.1 -5 0  -2 -5 0  -1.9 -5 0  -1.8 -5 0  -1.7 -5 0  -1.6 -5 0  -1.5 -5 0  -1.4 -5 0  -1.3 -5 0  -1.2 -5 0  -1.1 -5 0  -1 -5 0  -0.9000000000000004 -5 0  -0.7999999999999998 -5 0  -0.7000000000000002 -5 0  -0.5999999999999996 -5 0  -0.5 -5 0  -0.4000000000000004 -5 0  -0.2999999999999998 -5 0  -0.2000000000000002 -5 0  -0.09999999999999964 -5 0  0 -5 0  0.09999999999999964 -5 0  0.2000000000000002 -5 0  0.2999999999999998 -5 0  0.4000000000000004 -5 0  0.5 -5 0  0.5999999999999996 -5 0  0.7000000000000002 -5 0  0.7999999999999998 -5 0  0.9000000000000004 -5 0  1 -5 0  1.1 -5 0  1.2 -5 0  1.3 -5 0  1.4 -5 0  1.5 -5 0  1.6 -5 0  1.7 -5 0  1.8 -5 0  1.9 -5 0  2 -5 0  2.1 -5 0  2.2 -5 0  2.3 -5 0  2.4 -5 0  2.5 -5 0  2.6 -5 0  2.7 -5 0  2.8 -5 0  2.9 -5 0  3 -5 0  3.1 -5 0  3.199999999999999 -5 0  3.300000000000001 -5 0  3.4 -5 0  3.5 -5 0  3.6 -5 0  3.699999999999999 -5 0  3.800000000000001 -5 0  3.9 -5 0  4 -5 0  4.1 -5 0  4.199999999999999 -5 0  4.300000000000001 -5 0  4.4 -5 0  4.5 -5 0  4.6 -5 0  4.699999999999999 -5 0  4.800000000000001 -5 0  4.9 -5 0  5 -4.9 0  5 -4.8 0  5 -4.7 0  5 -4.6 0  5 -4.5 0  5 -4.4 0  5 -4.3 0  5 -4.2 0  5 -4.1 0  5 -4 0  5 -3.9 0  5 -3.8 0  5 -3.7 0  5 -3.6 0  5 -3.5 0  5 -3.4 0  5 -3.3 0  5 -3.2 0  5 -3.1 0  5 -3 0  5 -2.9 0  5 -2.8 0  5 -2.7 0  5 -2.6 0  5 -2.5 0  5 -2.4 0  5 -2.3 0  5 -2.2 0  5 -2.1 0  5 -2 0  5 -1.9 0  5 -1.8 0  5 -1.7 0  5 -1.6 0  5 -1.5 0  5 -1.4 0  5 -1.3 0  5 -1.2 0  5 -1.1 0  5 -1 0  5 -0.9000000000000004 0  5 -0.7999999999999998 0  5 -0.7000000000000002 0  5 -0.5999999999999996 0  5 -0.5 0  5 -0.4000000000000004 0  5 -0.2999999999999998 0  5 -0.2000000000000002 0  5 -0.09999999999999964 0  5 0 0  5 0.09999999999999964 0  5 0.2000000000000002 0  5 0.2999999999999998 0  5 0.4000000000000004 0  5 0.5 0  5 0.5999999999999996 0  5 0.7000000000000002 0  5 0.7999999999999998 0  5 0.9000000000000004 0  5 1 0  5 1.1 0  5 1.2 0  5 1.3 0  5 1.4 0  5 1.5 0  5 1.6 0  5 1.7 0  5 1.8 0  5 1.9 0  5 2 0  5 2.1 0  5 2.2 0  5 2.3 0  5 2.4 0  5 2.5 0  5 2.6 0  5 2.7 0  5 2.8 0  5 2.9 0  5 3 0  5 3.1 0  5 3.199999999999999 0  5 3.300000000000001 0  5 3.4 0  5 3.5 0  5 3.6 0  5 3.699999999999999 0  5 3.800000000000001 0  5 3.9 0  5 4 0  5 4.1 0  5 4.199999999999999 0  5 4.300000000000001 0  5 4.4 0  5 4.5 0  5 4.6 0  5 4.699999999999999 0  5 4.800000000000001 0  5 4.9 0  4.9 5 0  4.8 5 0  4.7 5 0  4.6 5 0  4.5 5 0  4.4 5 0  4.3 5 0  4.2 5 0  4.1 5 0  4 5 0  3.9 5 0  3.8 5 0  3.7 5 0  3.6 5 0  3.5 5 0  3.4 5 0  3.3 5 0  3.2 5 0  3.1 5 0  3 5 0  2.9 5 0  2.8 5 0  2.7 5 0  2.6 5 0  2.5 5 0  2.4 5 0  2.3 5 0  2.2 5 0  2.1 5 0  2 5 0  1.9 5 0  1.8 5 0  1.7 5 0  1.6 5 0  1.5 5 0  1.4 5 0  1.3 5 0  1.2 5 0  1.1 5 0  1 5 0  0.9000000000000004 5 0  0.7999999999999998 5 0  0.7000000000000002 5 0  0.5999999999999996 5 0  0.5 5 0  0.4000000000000004 5 0  0.2999999999999998 5 0  0.2000000000000002 5 0  0.09999999999999964 5 0  0 5 0  -0.09999999999999964 5 0  -0.2000000000000002 5 0  -0.2999999999999998 5 0  -0.4000000000000004 5 0  -0.5 5 0  -0.5999999999999996 5 0  -0.7000000000000002 5 0  -0.7999999999999998 5 0  -0.9000000000000004 5 0  -1 5 0  -1.1 5 0  -1.2 5 0  -1.3 5 0  -1.4 5 0  -1.5 5 0  -1.6 5 0  -1.7 5 0  -1.8 5 0  -1.9 5 0  -2 5 0  -2.1 5 0  -2.2 5 0  -2.3 5 0  -2.4 5 0  -2.5 5 0  -2.6 5 0  -2.7 5 0  -2.8 5 0  -2.9 5 0  -3 5 0  -3.1 5 0  -3.199999999999999 5 0  -3.300000000000001 5 0  -3.4 5 0  -3.5 5 0  -3.6 5 0  -3.699999999999999 5 0  -3.800000000000001 5 0  -3.9 5 0  -4 5 0  -4.1 5 0  -4.199999999999999 5 0  -4.300000000000001 5 0  -4.4 5 0  -4.5 5 0  -4.6 5 0  -4.699999999999999 5 0  -4.800000000000001 5 0  -4.9 5 0  -5 4.9 0  -5 4.8 0  -5 4.7 0  -5 4.6 0  -5 4.5 0  -5 4.4 0  -5 4.3 0  -5 4.2 0  -5 4.1 0  -5 4 0  -5 3.9 0  -5 3.8 0  -5 3.7 0  -5 3.6 0  -5 3.5 0  -5 3.4 0  -5 3.3 0  -5 3.2 0  -5 3.1 0  -5 3 0  -5 2.9 0  -5 2.8 0  -5 2.7 0  -5 2.6 0  -5 2.5 0  -5 2.4 0  -5 2.3 0  -5 2.2 0  -5 2.1 0  -5 2 0  -5 1.9 0  -5 1.8 0  -5 1.7 0  -5 1.6 0  -5 1.5 0  -5 1.4 0  -5 1.3 0  -5 1.2 0  -5 1.1 0  -5 1 0  -5 0.9000000000000004 0  -5 0.7999999999999998 0  -5 0.7000000000000002 0  -5 0.5999999999999996 0  -5 0.5 0  -5 0.4000000000000004 0  -5 0.2999999999999998 0  -5 0.2000000000000002 0  -5 0.09999999999999964 0  -5 0 0  -5 -0.09999999999999964 0  -5 -0.2000000000000002 0  -5 -0.2999999999999998 0  -5 -0.4000000000000004 0  -5 -0.5 0  -5 -0.5999999999999996 0  -5 -0.7000000000000002 0  -5 -0.7999999999999998 0  -5 -0.9000000000000004 0  -5 -1 0  -5 -1.1 0  -5 -1.2 0  -5 -1.3 0  -5 -1.4 0  -5 -1.5 0  -5 -1.6 0  -5 -1.7 0  -5 -1.8 0  -5 -1.9 0  -5 -2 0  -5 -2.1 0  -5 -2.2 0  -5 -2.3 0  -5 -2.4 0  -5 -2.5 0  -5 -2.6 0  -5 -2.7 0  -5 -2.8 0  -5 -2.9 0  -5 -3 0  -5 -3.1 0  -5 -3.199999999999999 0  -5 -3.300000000000001 0  -5 -3.4 0  -5 -3.5 0  -5 -3.6 0  -5 -3.699999999999999 0  -5 -3.800000000000001 0  -5 -3.9 0  -5 -4 0  -5 -4.1 0  -5 -4.199999999999999 0  -5 -4.300000000000001 0  -5 -4.4 0  -5 -4.5 0  -5 -4.6 0  -5 -4.699999999999999 0  -5 -4.800000000000001 0  -5 -4.9 0  1.251027744060716 0.09473503479127084 0  1.229324340605414 0.1923290713780048 0  1.195892246898976 0.288832321769544 0  1.153049406838082 0.3775168778581539 0  1.095100185285113 0.4683541666399996 0  1.029313057381603 0.5526120649341272 0  0.9509755841773466 0.6326185159150045 0  0.864169915861876 0.7072658951417092 0  0.7723919003262337 0.7726940303645934 0  0.670042986172623 0.8300581395554548 0  0.5581597341996893 0.8823260915105506 0  0.4456218077126703 0.9267750178461799 0  0.3332954978522831 0.958945248964947 0  0.2087194172782854 0.9805637929650139 0  0.08889545627410483 0.9994756580669857 0  -0.02705781637994436 1.002783544006852 0  -0.1447665883590668 0.9890440511121431 0  -0.2720866929197669 0.9700495813779278 0  -0.3913760186984048 0.9458252033653771 0  -0.5020130479292393 0.9098490134826623 0  -0.6114119365200207 0.8633841395384849 0  -0.7135624054333995 0.8087261979731462 0  -0.8082236713369279 0.7438723932018302 0  -0.8992478154033917 0.6703913532076782 0  -0.9848236573889266 0.5906453483644515 0  -1.059105940233496 0.5095311044824062 0  -1.120893844209163 0.424224483390984 0  -1.174211705781155 0.3318743553054304 0  -1.212154965203075 0.2427372339455921 0  -1.236634141504936 0.1485661947166462 0  -1.247665720848128 0.05162363937794703 0  -1.24761990848148 -0.04949646215062015 0  -1.236612262224878 -0.1456700318524195 0  -1.211808672509755 -0.2380718029402089 0  -1.170406237041593 -0.3328724666807786 0  -1.121246310633446 -0.4246585878874325 0  -1.060808951045658 -0.5093703201081484 0  -0.9872651834901228 -0.5896251800293392 0  -0.9023216782105414 -0.6682610842307852 0  -0.8118088246244491 -0.7398983991372869 0  -0.7158905065518371 -0.8009184113958882 0  -0.6111969073081628 -0.8540161529208992 0  -0.497322272633911 -0.9035272590394209 0  -0.3844793965643659 -0.9433305365374615 0  -0.2687883171348894 -0.9697507954923578 0  -0.1432726824338859 -0.9888768498938896 0  -0.02788561400873162 -1.001997514466655 0  0.08819591885091148 -0.9947355007101992 0  0.2142059770834691 -0.9771434029258613 0  0.3358718282324687 -0.9573523262437783 0  0.4497712961470617 -0.9254523324490531 0  0.5605651552731615 -0.8815407555525139 0  0.6710219100347834 -0.8301071357322651 0  0.7723471798516544 -0.7738074411440279 0  0.8642190146140621 -0.7083234176061202 0  0.9500123057494543 -0.632760663745333 0  1.026708480114308 -0.5515810021673552 0  1.095900361497399 -0.4672484841135067 0  1.153877353042481 -0.3778730742395142 0  1.197637701841159 -0.2868578461551278 0  1.230003868518248 -0.191473776318601 0  1.25138601530392 -0.09450031820722954 0  -2.448553071726987 4.918099035743698 0  -2.448426471405055 -4.91047596466423 0  4.910399838867631 2.447880667759106 0  4.918528166053677 -2.449343506168631 0  2.44615470043886 -4.895704362452525 0  2.440588566695848 4.899467760597584 0  -4.91042697170621 -2.447907162608772 0  -4.910424239781271 2.447911121230892 0  -1.748506822480104 4.910980295801306 0  -1.74429381107727 -4.914422700073396 0  4.920570833989208 1.744056809943652 0  4.909095698684594 -1.747816024224949 0  -4.909390190326684 -1.747550433031616 0  -4.910213028248502 1.747295507254202 0  1.745779041930064 4.904834142420722 0  1.74719091534861 -4.892973997321809 0  -1.148819534499902 4.908756429350833 0  -1.129678136902981 -4.916677222238491 0  -4.909092591067311 -1.147881654834471 0  -4.90891070440541 1.147682128545798 0  1.143815543420163 -4.91285871462463 0  1.148829485334459 4.908742962877801 0  4.909232059719359 1.146156805423997 0  4.92007565683607 -1.151944185612627 0  -0.5466574129543904 -4.909941168044738 0  -0.5464412270291482 4.918633904079883 0  -4.907812887597345 -0.5486828275078485 0  -4.907836844481825 0.5472407301532642 0  4.907130567307302 -0.549000871955834 0  4.918803082909387 0.5457615410871527 0  0.5424386640211299 -4.896805834785831 0  0.5511695456457988 4.915453436505891 0  -4.911862707438673 -3.048267881321646 0  4.918435786840992 3.046285737076309 0  4.911370214811955 -3.048243257036528 0  -4.912710705582404 3.045359702993612 0  3.055280203074277 -4.917358262863385 0  -3.048609489420018 -4.911292057658636 0  3.052177234698858 4.913370461422273 0  -3.0480552916997 4.912182150797601 0  -4.906916398414425 -0.04990518489233594 0  0.04511909530578757 -4.911890619979344 0  0.04956657970189582 4.918925069125922 0  4.91398069890294 -0.05128749269931654 0  3.54560306337802 -4.919009730566921 0  -3.548882141320647 4.9
[...]
<PointData  Scalars="f_30"> 
<DataArray  type="Float64"  Name="f_30"  format="ascii">0.0000000000000000e+00  0.0000000000000000e+00  0.0000000000000000e+00  0.0000000000000000e+00  4.8271663554907453e-02  0.0000000000000000e+00  0.0000000000000000e+00  0.0000000000000000e+00  0.0000000000000000e+00  0.0000000000000000e+00  0.0000000000000000e+00  0.0000000000000000e+00  0.0000000000000000e+00  0.0000000000000000e+00  0.0000000000000000e+00  0.0000000000000000e+00  0.0000000000000000e+00  0.0000000000000000e+00  0.0000000000000000e+00  0.0000000000000000e+00  0.0000000000000000e+00  0.0000000000000000e+00  0.0000000000000000e+00  0.0000000000000000e+00  0.0000000000000000e+00  0.0000000000000000e+00  0.0000000000000000e+00  0.0000000000000000e+00  0.0000000000000000e+00  0.0000000000000000e+00  0.0000000000000000e+00  0.0000000000000000e+00  0.0000000000000000e+00  0.0000000000000000e+00  0.0000000000000000e+00  0.0000000000000000e+00  0.0000000000000000e+00  0.0000000000000000e+00  0.0000000000000000e+00  0.0000000000000000e+00  0.0000000000000000e+00  0.0000000000000000e+00  0.0000000000000000e+00  0.0000000000000000e+00  0.0000000000000000e+00  0.0000000000000000e+00  0.0000000000000000e+00  0.0000000000000000e+00  0.0000000000000000e+00  0.0000000000000000e+00  0.0000000000000000e+00  0.0000000000000000e+00  0.0000000000000000e+00  0.0000000000000000e+00  0.0000000000000000e+00  0.0000000000000000e+00  0.0000000000000000e+00  0.0000000000000000e+00  0.0000000000000000e+00  0.0000000000000000e+00  0.0000000000000000e+00  0.0000000000000000e+00  0.0000000000000000e+00  0.0000000000000000e+00  0.0000000000000000e+00  0.0000000000000000e+00  0.0000000000000000e+00  0.0000000000000000e+00  0.0000000000000000e+00  0.0000000000000000e+00  0.0000000000000000e+00  0.0000000000000000e+00  0.0000000000000000e+00  0.0000000000000000e+00  0.0000000000000000e+00  0.0000000000000000e+00  0.0000000000000000e+00  0.0000000000000000e+00  0.0000000000000000e+00  0.0000000000000000e+00  0.0000000000000000e+00  0.0000000000000000e+00  0.0000000000000000e+00  0.0000000000000000e+00  0.0000000000000000e+00  0.0000000000000000e+00  0.0000000000000000e+00  0.0000000000000000e+00  0.0000000000000000e+00  0.0000000000000000e+00  0.0000000000000000e+00  0.0000000000000000e+00  0.0000000000000000e+00  0.0000000000000000e+00  0.0000000000000000e+00  0.0000000000000000e+00  0.0000000000000000e+00  0.0000000000000000e+00  0.0000000000000000e+00  0.0000000000000000e+00  0.0000000000000000e+00  0.0000000000000000e+00  0.0000000000000000e+00  0.0000000000000000e+00  0.0000000000000000e+00  0.0000000000000000e+00  0.0000000000000000e+00  0.0000000000000000e+00  0.0000000000000000e+00  0.0000000000000000e+00  0.0000000000000000e+00  0.0000000000000000e+00  0.0000000000000000e+00  0.0000000000000000e+00  0.0000000000000000e+00  0.0000000000000000e+00  0.0000000000000000e+00  0.0000000000000000e+00  0.0000000000000000e+00  0.0000000000000000e+00  0.0000000000000000e+00  0.0000000000000000e+00  0.0000000000000000e+00  0.0000000000000000e+00  0.0000000000000000e+00  0.0000000000000000e+00  0.0000000000000000e+00  0.0000000000000000e+00  0.0000000000000000e+00  0.0000000000000000e+00  0.0000000000000000e+00  0.0000000000000000e+00  0.0000000000000000e+00  0.0000000000000000e+00  0.0000000000000000e+00  0.0000000000000000e+00  0.0000000000000000e+00  0.0000000000000000e+00  0.0000000000000000e+00  0.0000000000000000e+00  0.0000000000000000e+00  0.0000000000000000e+00  0.0000000000000000e+00  0.0000000000000000e+00  0.0000000000000000e+00  0.0000000000000000e+00  0.0000000000000000e+00  0.0000000000000000e+00  0.0000000000000000e+00  0.0000000000000000e+00  0.0000000000000000e+00  0.0000000000000000e+00  0.0000000000000000e+00  0.0000000000000000e+00  0.0000000000000000e+00  0.0000000000000000e+00  0.0000000000000000e+00  0.0000000000000000e+00  0.0000000000000000e+00  0.0000000000000000e+00  0.0000000000000000e+00  0.0000000000000000e+00  0.0000000000000000e+00  0.0000000000000000e+00  0.0000000000000000e+00  0.0000000000000000e+00  0.0000000000000000e+00  0.0000000000000000e+00  0.0000000000000000e+00  0.0000000000000000e+00  0.0000000000000000e+00  0.0000000000000000e+00  0.0000000000000000e+00  0.0000000000000000e+00  0.0000000000000000e+00  0.0000000000000000e+00  0.0000000000000000e+00  0.0000000000000000e+00  0.0000000000000000e+00  0.0000000000000000e+00  0.0000000000000000e+00  0.0000000000000000e+00  0.0000000000000000e+00  0.0000000000000000e+00  0.0000000000000000e+00  0.0000000000000000e+00  0.0000000000000000e+00  0.0000000000000000e+00  0.0000000000000000e+00  0.0000000000000000e+00  0.0000000000000000e+00  0.0000000000000000e+00  0.0000000000000000e+00  0.0000000000000000e+00  0.0000000000000000e+00  0.0000000000000000e+00  0.0000000000000000e+00  0.0000000000000000e+00  0.0000000000000000e+00  0.0000000000000000e+00  0.0000000000000000e+00  0.0000000000000000e+00  0.0000000000000000e+00  0.0000000000000000e+00  0.0000000000000000e+00  0.0000000000000000e+00  0.0000000000000000e+00  0.0000000000000000e+00  0.0000000000000000e+00  0.0000000000000000e+00  0.0000000000000000e+00  0.0000000000000000e+00  0.0000000000000000e+00  0.0000000000000000e+00  0.0000000000000000e+00  0.0000000000000000e+00  0.0000000000000000e+00  0.0000000000000000e+00  0.0000000000000000e+00  0.0000000000000000e+00  0.0000000000000000e+00  0.0000000000000000e+00  0.0000000000000000e+00  0.0000000000000000e+00  0.0000000000000000e+00  0.0000000000000000e+00  0.0000000000000000e+00  0.0000000000000000e+00  0.0000000000000000e+00  0.0000000000000000e+00  0.0000000000000000e+00  0.0000000000000000e+00  0.0000000000000000e+00  0.0000000000000000e+00  0.0000000000000000e+00  0.0000000000000000e+00  0.0000000000000000e+00  0.0000000000000000e+00  0.0000000000000000e+00  0.0000000000000000e+00  0.0000000000000000e+00  0.0000000000000000e+00  0.0000000000000000e+00  0.0000000000000000e+00  0.0000000000000000e+00  0.0000000000000000e+00  0.0000000000000000e+00  0.0000000000000000e+00  0.0000000000000000e+00  0.0000000000000000e+00  0.0000000000000000e+00  0.0000000000000000e+00  0.0000000000000000e+00  0.0000000000000000e+00  0.0000000000000000e+00  0.0000000000000000e+00  0.0000000000000000e+00  0.0000000000000000e+00  0.0000000000000000e+00  0.0000000000000000e+00  0.0000000000000000e+00  0.0000000000000000e+00  0.0000000000000000e+00  0.0000000000000000e+00  0.0000000000000000e+00  0.0000000000000000e+00  0.0000000000000000e+00  0.0000000000000000e+00  0.0000000000000000e+00  0.0000000000000000e+00  0.0000000000000000e+00  0.0000000000000000e+00  0.0000000000000000e+00  0.0000000000000000e+00  0.0000000000000000e+00  0.0000000000000000e+00  0.0000000000000000e+00  0.0000000000000000e+00  0.0000000000000000e+00  0.0000000000000000e+00  0.0000000000000000e+00  0.0000000000000000e+00  0.0000000000000000e+00  0.0000000000000000e+00  0.0000000000000000e+00  0.0000000000000000e+00  0.0000000000000000e+00  0.0000000000000000e+00  0.0000000000000000e+00  0.0000000000000000e+00  0.0000000000000000e+00  0.0000000000000000e+00  0.0000000000000000e+00  0.0000000000000000e+00  0.0000000000000000e+00  0.0000000000000000e+00  0.0000000000000000e+00  0.0000000000000000e+00  0.0000000000000000e+00  0.0000000000000000e+00  0.0000000000000000e+00  0.0000000000000000e+00  0.0000000000000000e+00  0.0000000000000000e+00  0.0000000000000000e+00  0.0000000000000000e+00  0.0000000000000000e+00  0.0000000000000000e+00  0.0000000000000000e+00  0.0000000000000000e+00  0.0000000000000000e+00  0.0000000000000000e+00  0.0000000000000000e+00  0.0000000000000000e+00  0.0000000000000000e+00  0.0000000000000000e+00  0.0000000000000000e+00  0.0000000000000000e+00  0.0000000000000000e+00  0.0000000000000000e+00  0.0000000000000000e+00  0.0000000000000000e+00  0.0000000000000000e+00  0.0000000000000000e+00  0.0000000000000000e+00  0.0000000000000000e+00  0.0000000000000000e+00  0.0000000000000000e+00  0.0000000000000000e+00  0.0000000000000000e+00  0.0000000000000000e+00  0.0000000000000000e+00  0.0000000000000000e+00  0.0000000000000000e+00  0.0000000000000000e+00  0.0000000000000000e+00  0.0000000000000000e+00  0.0000000000000000e+00  0.0000000000000000e+00  0.0000000000000000e+00  0.0000000000000000e+00  0.0000000000000000e+00  0.0000000000000000e+00  0.0000000000000000e+00  0.0000000000000000e+00  0.0000000000000000e+00  0.0000000000000000e+00  0.0000000000000000e+00  0.0000000000000000e+00  0.0000000000000000e+00  0.0000000000000000e+00  0.0000000000000000e+00  0.0000000000000000e+00  0.0000000000000000e+00  0.0000000000000000e+00  0.0000000000000000e+00  0.0000000000000000e+00  0.0000000000000000e+00  0.0000000000000000e+00  0.0000000000000000e+00  0.0000000000000000e+00  0.0000000000000000e+00  0.0000000000000000e+00  0.0000000000000000e+00  0.0000000000000000e+00  0.0000000000000000e+00  0.0000000000000000e+00  0.0000000000000000e+00  0.0000000000000000e+00  0.0000000000000000e+00  0.0000000000000000e+00  0.0000000000000000e+00  0.0000000000000000e+00  0.0000000000000000e+00  0.0000000000000000e+00  0.0000000000000000e+00  0.0000000000000000e+00  0.0000000000000000e+00  0.0000000000000000e+00  0.0000000000000000e+00  0.0000000000000000e+00  0.0000000000000000e+00  0.0000000000000000e+00  0.0000000000000000e+00  0.0000000000000000e+00  0.0000000000000000e+00  0.0000000000000000e+00  0.0000000000000000e+00  0.0000000000000000e+00  0.0000000000000000e+00  0.0000000000000000e+00  0.0000000000000000e+00  0.0000000000000000e+00  0.0000000000000000e+00  0.0000000000000000e+00  0.0000000000000000e+00  0.0000000000000000e+00  0.0000000000000000e+00  0.0000000000000000e+00  0.0000000000000000e+00  0.0000000000000000e+00  4.6792923778099349e-02  3.7992705046248396e-02  3.0681214976291407e-02  2.9082215993711663e-02  3.3052248216692844e-02  4.9711958729813086e-02  4.1110670704306324e-02  3.3258147636630563e-02  4.2948513196876578e-02  4.1099614156352826e-02  3.5082528276174925e-02  4.8318974272023869e-02  5.6007028967585110e-02  2.9373399039022766e-02  4.5441150999214704e-02  5.0248438679627472e-02  2.8525610576758783e-02  2.7148436847650951e-02  5.2025788711394724e-02  4.0316058431112314e-02  4.1572325021831488e-02  4.3894175274301540e-02  3.9195875708482250e-02  3.8086815721788889e-02  3.4632887308060190e-02  3.6848934492118283e-02  3.7245773025803147e-02  3.5596558735128819e-02  3.7968508645003167e-02  3.7126369277357997e-02  3.4161905241685574e-02  3.5249940415613766e-02  4.1929163020583748e-02  4.5509107722462180e-02  3.6965814309787542e-02  4.4492184595342883e-02  4.1177743204809131e-02  3.8033949814494705e-02  3.9833281574970542e-02  4.4069034580600228e-02  3.4575053311003072e-02  4.2948877673154362e-02  3.4178919368280776e-02  5.7527641545454665e-02  3.5180221009891897e-02  3.3670535776078529e-02  8.7020486031787206e-02  4.3061799373470870e-02  3.1807299459273360e-02  4.9771975175080627e-02  4.5689855765538988e-02  3.0015069330448528e-02  3.8789724135561615e-02  5.8688409887761618e-02  4.2960904752513039e-02  3.4679567355445001e-02  3.4462654494198122e-02  3.7297816632521498e-02  5.3591892082885395e-02  4.6052426079525498e-02  3.9214591360803686e-02  4.4534450406896617e-02  3.6120644322382768e-27  -1.3176583263880875e-27  -2.6372986532217491e-27  -2.9362108101740758e-27  -1.2753625742289708e-27  -5.3170764025792299e-28  -2.0321714503512069e-28  1.8085996355629021e-27  7.1906062987254556e-27  4.1261123929787192e-27  -7.0167484883803250e-25  -6.6245815189104394e-25  5.4015521977244472e-25  1.1894523868930705e-24  3.7092907460936737e-26  3.0578038309790576e-26  -4.7816616252572767e-26  -3.0032456629392953e-26  -1.1242594428916533e-22  -1.6505401131340709e-22  -4.3275759437705390e-26  -4.9235122870789714e-26  4.7612434949344908e-23  4.7758637866606239e-23  -4.7390849727653462e-27  -3.9751803171610888e-26  -7.5369922797679770e-21  -7.1236226961490858e-21  -4.5758828072931724e-21  -4.8274275114328776e-21  8.3205364513323098e-26  -2.6525278916251480e-26  7.1703369374617814e-30  -8.8439260278927472e-30  -9.0742303801343498e-30  1.6282533504718247e-29  1.9760103973018924e-28  3.9844715892419097e-28  2.8927862511399087e-28  3.1818405050507699e-28  3.5536295153452158e-20  6.3554685049056249e-26  1.2228997102075429e-26  3.8447621588142488e-20  -9.0965131401829506e-30  -9.9263718699282589e-30  -6.2620375020884810e-30  2.3186069415970272e-31  2.4329242570384784e-31  2.3940962470041485e-31  1.4562222981676430e-31  -9.9633773052510351e-30  -6.1356138731881437e-33  -2.3069032261142704e-32  1.1371218554051569e-31  -4.0599790896649999e-33  2.5154669818478583e-32  -6.0625810976709075e-33  1.3756193655388771e-31  -9.9017513570918680e-34  -1.2942976701615028e-33  -4.6819485954940344e-34  -1.9574411915142492e-34  1.4856513510257241e-34  1.3409178653885350e-34  7.7341137081964571e-35  7.3736398837508223e-36  -1.6096916067986993e-33  2.7758150953175008e-20  4.6290947381149070e-26  -1.3627649958177458e-26  1.3821898428301147e-20  1.1675470935956107e-25  -3.4725223691693653e-24  1.3394908228850628e-21  8.8430431557323054e-22  -3.2579681587880785e-24  2.7353312399765686e-26  7.8782649676339553e-26  -5.2876480041766439e-26  -3.8571279380452122e-26  -1.1547888950797166e-23  3.9597122839246642e-22  4.1482013775381967e-22  -1.1338401927453264e-23  -2.5506611495038640e-27  8.8213960357114482e-26  -4.0401633633401687e-27  5.5570301870546071e-27  -6.5558579211891794e-27  8.9114996654062900e-26  1.1270768794867999e-25  -4.0131202456770459e-27  -2.4127967887864050e-27  3.0464791043481052e-26  2.8830735866080398e-26  -1.5704724032683682e-28  -7.7610568991589087e-28  -1.2224672263688380e-27  2.0590619842190533e-28  6.3879519834044204e-28  6.7275886518971175e-29  -1.5133885111352545e-28  -9.2252492177648524e-28  1.2567466322607656e-35  1.8952179055175283e-35  7.5316857948469048e-36  -1.6946039479142479e-36  6.4699460436234486e-36  1.5368864198509006e-36  1.0557458584071825e-35  5.2340220119185600e-37  2.7877468700109564e-20  1.2036521940524758e-25  1.1446649086200267e-25  1.3760368488301193e-20  -1.7862961538695960e-27  4.4955676117273650e-27  4.7956973905213312e-27  -7.1561549526058715e-27  -1.1865849595293474e-26  -6.9836542465248356e-29  -8.1942667152750703e-27  -2.0294422816467153e-26  3.5252783301965451e-30  -1.1192107313482599e-28  -7.3961199495863029e-29  2.8341013148064468e-30  3.4754375416986693e-30  -9.6395380428444097e-29  -1.2779719881707988e-28  1.1569377186091755e-30  -3.7499933604124976e-33  3.6441398957531024e-34  1.2052976066785353e-30  -1.2997731041291677e-32  2.7360643449177721e-31  -1.5412841994020344e-32  -3.6562397719830208e-32  1.2126587460142016e-33  8.1374395638177491e-31  -1.3325625447044805e-32  -1.3655500502318064e-33  2.9198297949457380e-34  -4.4317816344161663e-32  1.2637524440370150e-33  5.2319049817694082e-31  -1.7094969188975665e-32  -3.7014103840893888e-36  -1.7453799512320986e-36  -2.9595981836322840e-36  -3.4662519978928669e-36  3.4840952218702074e-20  -1.2995853830497599e-19  -8.5771485118900626e-20  4.2076950755986838e-19  2.0515162899859878e-19  -1.2097206220386575e-18  -3.1622077325092983e-19  2.8705394391947134e-18  -2.7975271510086871e-19  -4.3099804973219594e-18  4.7474873355194655e-18  -4.6496826163888500e-18  -2.3363936343405722e-17  6.8991206586030025e-17  8.0970997459657301e-17  -3.3342387812084230e-16  -2.1158947236205187e-16  1.1328876340382198e-15  3.8162538466797184e-16  -2.8846908085339073e-15  -2.0353346748501807e-16  -4.7525366285695699e-15  4.9165520917274447e-15  -1.6200971420990511e-15  -1.5863605657703155e-15  7.3808900095422145e-15  -2.5145867109670007e-14  -1.5924053017157948e-14  9.9126088014669380e-14  9.7169959211592925e-15  -1.8521732707624231e-13  5.6053597824174271e-14  -3.7650738735343079e-13  2.9176692522350816e-14  -1.9703582326078478e-13  8.8654755945540636e-13  1.5536384968367350e-13  -2.2293420164663765e-12  7.7802388427072947e-13  -1.2244172272395248e-13  -2.4767512837837540e-12  1.3240151489742466e-11  -1.0637084364179146e-13  -2.1326473094393346e-11  -2.3720649986480299e-11  1.5576240989189888e-11  -4.0435930118553433e-11  -2.6197003740404664e-11  -3.0475888061829060e-13  1.7310816775284243e-11  -4.9867776307851182e-11  -2.3475123108782643e-11  -1.2717079476228868e-12  1.8382142582588312e-11  -2.7278773700271897e-12  -3.2804599253643415e-12  -1.3737042910177876e-11  1.8262691183168635e-11  -1.8308161988621302e-12  -6.7099889437989068e-12  1.4874960747943990e-12  3.6898654749454167e-13  1.1085111381609340e-11  -8.5790469783548533e-12  9.5890386086837240e-13  3.5615961824513438e-12  -1.4405375427825409e-11  2.2790838413383856e-12  -9.7888639300388230e-13  2.8368204408600201e-13  -4.9727542191556331e-12  2.1933223125807659e-12  -8.9154005069864022e-12  1.4121263342890315e-13  1.4211340090778554e-12  2.1923268927537779e-12  -3.5655713559210841e-12  2.5691766878980012e-11  -9.9231807623720505e-12  4.6010829059447530e-11  -1.3699263324370044e-11  5.3262927539574710e-11  3.2758501742627374e-12  -1.4243328632513734e-11  5.2221825029865552e-11  -1.3903441430353399e-11  5.2099282851263943e-11  -1.4170565835829640e-11  5.2926246183156551e-11  -1.3636902517582305e-11  4.6054093943812409e-11  -1.0050902980666491e-11  2.6443273352058299e-11  -3.7217265005137003e-12  1.9323768137094807e-12  3.2816593806449079e-12  -1.3958258984963429e-10  2.5434158425919389e+00  1.9658910323197956e-12  -1.3155936175062094e-11  3.9195838713879785e-12  -1.2890382349603798e-11  2.6490120243126207e+00  2.4092047105192536e-12  -4.4099795257871014e-12  2.5294061260939222e+00  1.7711304954884089e-13  1.8657310698845590e-12  1.7128134604838943e-12  -1.0303876449777444e-11  2.3502659287482323e-12  -4.7667709534194108e-12  -1.9087981244022652e-10  -3.2979136199362893e-13  1.8418710567345399e-13  2.4651448405105785e-12  1.3468682185890553e-12  -1.3791950225263826e-11  3.1901397998410241e-12  -6.8567503532153739e-12  4.4375361438216892e-11  5.1244779756574398e-12  1.7259875079466779e-12  -1.0570447248327325e-11  2.9625904052022022e-11  2.7853973930093337e-11  -3.0701354893161638e-12  -2.6888790092206146e-12  -2.9985252069536218e-11  2.4132796977165670e-11  -4.4953694058147038e-12  2.5560629392840424e-12  -4.7095624633551763e-11  1.4858642868651806e-11  -3.5626723820287907e-12  2.0490781456790049e-12  -3.4327036387508514e-11  1.3014601584260683e-11  -1.6575172231797987e-11  -2.7055342679882949e-11  7.5549372778131724e-13  1.4723500316649992e-11  -2.5695391891681763e-11  -3.4307470256080767e-11  1.0559490523539028e-12  1.9258888821866935e-11  -3.8108409519636312e-11  -4.0370632511335107e-11  3.3822544326840844e-10  -1.0485626529984634e-10  3.4686946739071531e-11  2.7917371829155425e-10  -1.0158702151480231e-11  -1.5824920664940096e-10  7.0790244226147490e-10  -9.7376436126145032e-11  -3.1623829875801779e-10  3.3497104958668350e-10  -1.7630456412870536e-09  3.1759480391748206e-10  5.2655017734026059e-10  -9.3929239052955448e-10  5.5421472452622650e-11  4.6164265611390841e-10  -2.0805918206426403e-09  4.1347773769625403e-10  4.8321460794923228e-11  -7.7767489834165381e-10  6.2573459505275382e-09  -2.5229924380879628e-09  1.1102188208533802e-08  -2.6965663769135442e-09  6.0759934941370610e-09  3.0403836876737701e-10  -1.0068909571714675e-08  5.1679259885511676e-09  -2.7534853580466108e-08  8.9690893259173928e-09  -3.7318251992448382e-08  1.0594690306472270e-08  -4.0077995301751376e-08  1.0586071064279865e-08  -3.7174717928040842e-08  8.7248273735754059e-09  -2.6310873610894597e-08  5.0685655797792559e-09  -1.1416173915604822e-08  -1.8825311532834377e-09  -8.3021170620960184e-10  3.6490831398988103e-10  9.5299176273754363e-11  -6.0274814290331363e-11  2.9172253974432112e-12  6.9893070112726119e-12  -6.6547245350032142e-12  1.9364310358781189e-13  2.8335946906580986e-12  -1.2437678197222127e-11  -4.7751675231179463e-13  4.5644054283394549e-10  3.2651065095630355e-12  -1.0225753816908108e-11  1.8589517137041496e-12  -3.3190772757005760e-12  1.0211854420521818e-13  1.5019760663976629e-12  -5.0334254033392381e-13  1.3507406