<?xml version="1.0"?>
<VTKFile type="UnstructuredGrid"  version="0.1"  >
<UnstructuredGrid>
<Piece  NumberOfPoints="11902" NumberOfCells="23402">
<Points>
<DataArray  type="Float64"  NumberOfComponents="3"  format="ascii">-5 -5 0  5 -5 0  5 5 0  -5 5 0  1.173320816211858 0.001150185367134916 0  -4.9 -5 0  -4.8 -5 0  -4.7 -5 0  -4.6 -5 0  -4.5 -5 0  -4.4 -5 0  -4.3 -5 0  -4.2 -5 0  -4.1 -5 0  -4 -5 0  -3.9 -5 0  -3.8 -5 0  -3.7 -5 0  -3.6 -5 0  -3.5 -5 0  -3.4 -5 0  -3.3 -5 0  -3.2 -5 0  -3.1 -5 0  -3 -5 0  -2.9 -5 0  -2.8 -5 0  -2.7 -5 0  -2.6 -5 0  -2.5 -5 0  -2.4 -5 0  -2.3 -5 0  -2.2 -5 0  -2.1 -5 0  -2 -5 0  -1.9 -5 0  -1.8 -5 0  -1.7 -5 0  -1.6 -5 0  -1.5 -5 0  -1.4 -5 0  -1.3 -5 0  -1.2 -5 0  -1.1 -5 0  -1 -5 0  -0.9000000000000004 -5 0  -0.7999999999999998 -5 0  -0.7000000000000002 -5 0  -0.5999999999999996 -5 0  -0.5 -5 0  -0.4000000000000004 -5 0  -0.2999999999999998 -5 0  -0.2000000000000002 -5 0  -0.09999999999999964 -5 0  0 -5 0  0.09999999999999964 -5 0  0.2000000000000002 -5 0  0.2999999999999998 -5 0  0.4000000000000004 -5 0  0.5 -5 0  0.5999999999999996 -5 0  0.7000000000000002 -5 0  0.7999999999999998 -5 0  0.9000000000000004 -5 0  1 -5 0  1.1 -5 0  1.2 -5 0  1.3 -5 0  1.4 -5 0  1.5 -5 0  1.6 -5 0  1.7 -5 0  1.8 -5 0  1.9 -5 0  2 -5 0  2.1 -5 0  2.2 -5 0  2.3 -5 0  2.4 -5 0  2.5 -5 0  2.6 -5 0  2.7 -5 0  2.8 -5 0  2.9 -5 0  3 -5 0  3.1 -5 0  3.199999999999999 -5 0  3.300000000000001 -5 0  3.4 -5 0  3.5 -5 0  3.6 -5 0  3.699999999999999 -5 0  3.800000000000001 -5 0  3.9 -5 0  4 -5 0  4.1 -5 0  4.199999999999999 -5 0  4.300000000000001 -5 0  4.4 -5 0  4.5 -5 0  4.6 -5 0  4.699999999999999 -5 0  4.800000000000001 -5 0  4.9 -5 0  5 -4.9 0  5 -4.8 0  5 -4.7 0  5 -4.6 0  5 -4.5 0  5 -4.4 0  5 -4.3 0  5 -4.2 0  5 -4.1 0  5 -4 0  5 -3.9 0  5 -3.8 0  5 -3.7 0  5 -3.6 0  5 -3.5 0  5 -3.4 0  5 -3.3 0  5 -3.2 0  5 -3.1 0  5 -3 0  5 -2.9 0  5 -2.8 0  5 -2.7 0  5 -2.6 0  5 -2.5 0  5 -2.4 0  5 -2.3 0  5 -2.2 0  5 -2.1 0  5 -2 0  5 -1.9 0  5 -1.8 0  5 -1.7 0  5 -1.6 0  5 -1.5 0  5 -1.4 0  5 -1.3 0  5 -1.2 0  5 -1.1 0  5 -1 0  5 -0.9000000000000004 0  5 -0.7999999999999998 0  5 -0.7000000000000002 0  5 -0.5999999999999996 0  5 -0.5 0  5 -0.4000000000000004 0  5 -0.2999999999999998 0  5 -0.2000000000000002 0  5 -0.09999999999999964 0  5 0 0  5 0.09999999999999964 0  5 0.2000000000000002 0  5 0.2999999999999998 0  5 0.4000000000000004 0  5 0.5 0  5 0.5999999999999996 0  5 0.7000000000000002 0  5 0.7999999999999998 0  5 0.9000000000000004 0  5 1 0  5 1.1 0  5 1.2 0  5 1.3 0  5 1.4 0  5 1.5 0  5 1.6 0  5 1.7 0  5 1.8 0  5 1.9 0  5 2 0  5 2.1 0  5 2.2 0  5 2.3 0  5 2.4 0  5 2.5 0  5 2.6 0  5 2.7 0  5 2.8 0  5 2.9 0  5 3 0  5 3.1 0  5 3.199999999999999 0  5 3.300000000000001 0  5 3.4 0  5 3.5 0  5 3.6 0  5 3.699999999999999 0  5 3.800000000000001 0  5 3.9 0  5 4 0  5 4.1 0  5 4.199999999999999 0  5 4.300000000000001 0  5 4.4 0  5 4.5 0  5 4.6 0  5 4.699999999999999 0  5 4.800000000000001 0  5 4.9 0  4.9 5 0  4.8 5 0  4.7 5 0  4.6 5 0  4.5 5 0  4.4 5 0  4.3 5 0  4.2 5 0  4.1 5 0  4 5 0  3.9 5 0  3.8 5 0  3.7 5 0  3.6 5 0  3.5 5 0  3.4 5 0  3.3 5 0  3.2 5 0  3.1 5 0  3 5 0  2.9 5 0  2.8 5 0  2.7 5 0  2.6 5 0  2.5 5 0  2.4 5 0  2.3 5 0  2.2 5 0  2.1 5 0  2 5 0  1.9 5 0  1.8 5 0  1.7 5 0  1.6 5 0  1.5 5 0  1.4 5 0  1.3 5 0  1.2 5 0  1.1 5 0  1 5 0  0.9000000000000004 5 0  0.7999999999999998 5 0  0.7000000000000002 5 0  0.5999999999999996 5 0  0.5 5 0  0.4000000000000004 5 0  0.2999999999999998 5 0  0.2000000000000002 5 0  0.09999999999999964 5 0  0 5 0  -0.09999999999999964 5 0  -0.2000000000000002 5 0  -0.2999999999999998 5 0  -0.4000000000000004 5 0  -0.5 5 0  -0.5999999999999996 5 0  -0.7000000000000002 5 0  -0.7999999999999998 5 0  -0.9000000000000004 5 0  -1 5 0  -1.1 5 0  -1.2 5 0  -1.3 5 0  -1.4 5 0  -1.5 5 0  -1.6 5 0  -1.7 5 0  -1.8 5 0  -1.9 5 0  -2 5 0  -2.1 5 0  -2.2 5 0  -2.3 5 0  -2.4 5 0  -2.5 5 0  -2.6 5 0  -2.7 5 0  -2.8 5 0  -2.9 5 0  -3 5 0  -3.1 5 0  -3.199999999999999 5 0  -3.300000000000001 5 0  -3.4 5 0  -3.5 5 0  -3.6 5 0  -3.699999999999999 5 0  -3.800000000000001 5 0  -3.9 5 0  -4 5 0  -4.1 5 0  -4.199999999999999 5 0  -4.300000000000001 5 0  -4.4 5 0  -4.5 5 0  -4.6 5 0  -4.699999999999999 5 0  -4.800000000000001 5 0  -4.9 5 0  -5 4.9 0  -5 4.8 0  -5 4.7 0  -5 4.6 0  -5 4.5 0  -5 4.4 0  -5 4.3 0  -5 4.2 0  -5 4.1 0  -5 4 0  -5 3.9 0  -5 3.8 0  -5 3.7 0  -5 3.6 0  -5 3.5 0  -5 3.4 0  -5 3.3 0  -5 3.2 0  -5 3.1 0  -5 3 0  -5 2.9 0  -5 2.8 0  -5 2.7 0  -5 2.6 0  -5 2.5 0  -5 2.4 0  -5 2.3 0  -5 2.2 0  -5 2.1 0  -5 2 0  -5 1.9 0  -5 1.8 0  -5 1.7 0  -5 1.6 0  -5 1.5 0  -5 1.4 0  -5 1.3 0  -5 1.2 0  -5 1.1 0  -5 1 0  -5 0.9000000000000004 0  -5 0.7999999999999998 0  -5 0.7000000000000002 0  -5 0.5999999999999996 0  -5 0.5 0  -5 0.4000000000000004 0  -5 0.2999999999999998 0  -5 0.2000000000000002 0  -5 0.09999999999999964 0  -5 0 0  -5 -0.09999999999999964 0  -5 -0.2000000000000002 0  -5 -0.2999999999999998 0  -5 -0.4000000000000004 0  -5 -0.5 0  -5 -0.5999999999999996 0  -5 -0.7000000000000002 0  -5 -0.7999999999999998 0  -5 -0.9000000000000004 0  -5 -1 0  -5 -1.1 0  -5 -1.2 0  -5 -1.3 0  -5 -1.4 0  -5 -1.5 0  -5 -1.6 0  -5 -1.7 0  -5 -1.8 0  -5 -1.9 0  -5 -2 0  -5 -2.1 0  -5 -2.2 0  -5 -2.3 0  -5 -2.4 0  -5 -2.5 0  -5 -2.6 0  -5 -2.7 0  -5 -2.8 0  -5 -2.9 0  -5 -3 0  -5 -3.1 0  -5 -3.199999999999999 0  -5 -3.300000000000001 0  -5 -3.4 0  -5 -3.5 0  -5 -3.6 0  -5 -3.699999999999999 0  -5 -3.800000000000001 0  -5 -3.9 0  -5 -4 0  -5 -4.1 0  -5 -4.199999999999999 0  -5 -4.300000000000001 0  -5 -4.4 0  -5 -4.5 0  -5 -4.6 0  -5 -4.699999999999999 0  -5 -4.800000000000001 0  -5 -4.9 0  1.167593352873456 0.09975168101652199 0  1.149527238884292 0.1984291191750402 0  1.119130632964332 0.2959568479553603 0  1.07957132947835 0.3881946508842308 0  1.028365937088622 0.4790297792215725 0  0.9677876521957698 0.5643699959979985 0  0.8966262133214072 0.6441403940923865 0  0.8161261162395383 0.716961040679119 0  0.7285849621620575 0.7828901156377472 0  0.6334240878580015 0.8415921801324158 0  0.5312893436882103 0.8920082753637326 0  0.4245183783699578 0.9336317966070613 0  0.3152102850955584 0.9663469095512872 0  0.2011516267237712 0.988713313634129 0  0.08733812967127229 1.002454192342768 0  -0.02756173612247589 1.005141940767669 0  -0.1424368819091676 0.9962231628156226 0  -0.2573811492113953 0.9788275593904402 0  -0.3695844059266553 0.9523029229773329 0  -0.4772631149729298 0.9156822731190422 0  -0.580001756436445 0.8702759735928385 0  -0.6776609262674574 0.815570347753237 0  -0.7684653929150871 0.7529463873060782 0  -0.8523448705870029 0.6828381414166751 0  -0.928609180853913 0.6049570600838799 0  -0.9948998978184878 0.5221946760146019 0  -1.052012284463242 0.434892144440524 0  -1.097981984603114 0.3424455600904284 0  -1.132521980785987 0.2476768559122772 0  -1.155881060656137 0.1504380792377449 0  -1.167759247659247 0.05085635066551455 0  -1.167773470112422 -0.04934262046802459 0  -1.155878229309332 -0.1486593766292227 0  -1.133630339715177 -0.2459090339759573 0  -1.097692419678981 -0.3419808196157464 0  -1.052384320047191 -0.4336156044651532 0  -0.9957471479385329 -0.521200769722416 0  -0.929830863599835 -0.6035701347091411 0  -0.8537244952496477 -0.6804244386248727 0  -0.7693408470693772 -0.7498188967062243 0  -0.6775163066472502 -0.8112826818417348 0  -0.5803305627376618 -0.8658307553700534 0  -0.4750561842202561 -0.9120307670847058 0  -0.3670779773306035 -0.9497814732723343 0  -0.2549522271063561 -0.9773319583592077 0  -0.1410681501562403 -0.9952032228399976 0  -0.02692278817704649 -1.004392269106192 0  0.08792826084082986 -1.000592784340467 0  0.203409964322826 -0.9867629312403725 0  0.3164617500299065 -0.964740685695092 0  0.4274421184904493 -0.9322470777498272 0  0.5326500542736516 -0.8910186023501433 0  0.6340602218672278 -0.8410103724011604 0  0.7287999678760618 -0.7836902799812888 0  0.8162395362794409 -0.7175478370090402 0  0.8961822803016344 -0.6435626101445555 0  0.9666204039141807 -0.5636641530627732 0  1.028332989370615 -0.4785260905208628 0  1.080650831412061 -0.3882940496159125 0  1.120412293724774 -0.294801698243284 0  1.149705246606189 -0.1976848281190188 0  1.167604492973418 -0.09932843440318945 0  -2.448896246542061 4.918730239896322 0  -2.448800270480608 -4.911164436708687 0  4.911104217293437 2.448374177372337 0  4.919167437123629 -2.44979221839964 0  2.446589627691865 -4.89651303512412 0  2.44100927087456 4.900249999111149 0  -4.911125774251992 -2.44839538280277 0  -4.911124623599948 2.448399195068719 0  -1.748862269269904 4.911891340770032 0  -1.744633962172669 -4.915297410588615 0  4.921461513807941 1.744503869768332 0  4.910112719949251 -1.748328417886664 0  -4.91039617795121 -1.748055381102726 0  -4.911211643327573 1.747795098791363 0  1.746156641680962 4.905813152857656 0  1.74761401675096 -4.894073129920876 0  -1.149102869694824 4.909861546913646 0  -1.129932942164712 -4.917687723720513 0  -4.910352966539327 -1.148297466567008 0  -4.91017508251125 1.148097382027602 0  1.144080616351603 -4.913916336393047 0  1.149109680361641 4.909851341310208 0  4.91050257783611 1.146575824783605 0  4.921191832179528 -1.152314729625997 0  -0.5468051657274222 -4.911142993612466 0  -0.5465745784429196 4.919722748049443 0  -4.909278092394123 -0.5489141038726392 0  -4.909302767100541 0.5474695551614254 0  4.908619987527548 -0.5492364283841722 0  4.920106010131642 0.5459657175590196 0  0.5426006597187338 -4.898186418212483 0  0.5513055744687132 4.916585820236578 0  -4.91233380775721 -3.048671092165236 0  4.918875360992651 3.046662962373578 0  4.911846567997061 -3.048652899148321 0  -4.913179444432715 3.045759629517589 0  3.055585858624644 -4.917819929973409 0  -3.048938069857861 -4.91178567282862 0  3.052498801411004 4.913855635717949 0  -3.048381783276981 4.912671883272665 0  -4.908458282178638 -0.0499282253399528 0  0.04512829806193766 -4.91310204467923 0  0.04957694663242428 4.920042554332615 0  4.915418430528748 -0.05130901687010554 0  3.545844943103806 -4.919332474127921 0  -3.549145117695532 4.
[...]
<PointData  Scalars="f_30"> 
<DataArray  type="Float64"  Name="f_30"  format="ascii">0.0000000000000000e+00  0.0000000000000000e+00  0.0000000000000000e+00  0.0000000000000000e+00  3.8207107339940372e-01  0.0000000000000000e+00  0.0000000000000000e+00  0.0000000000000000e+00  0.0000000000000000e+00  0.0000000000000000e+00  0.0000000000000000e+00  0.0000000000000000e+00  0.0000000000000000e+00  0.0000000000000000e+00  0.0000000000000000e+00  0.0000000000000000e+00  0.0000000000000000e+00  0.0000000000000000e+00  0.0000000000000000e+00  0.0000000000000000e+00  0.0000000000000000e+00  0.0000000000000000e+00  0.0000000000000000e+00  0.0000000000000000e+00  0.0000000000000000e+00  0.0000000000000000e+00  0.0000000000000000e+00  0.0000000000000000e+00  0.0000000000000000e+00  0.0000000000000000e+00  0.0000000000000000e+00  0.0000000000000000e+00  0.0000000000000000e+00  0.0000000000000000e+00  0.0000000000000000e+00  0.0000000000000000e+00  0.0000000000000000e+00  0.0000000000000000e+00  0.0000000000000000e+00  0.0000000000000000e+00  0.0000000000000000e+00  0.0000000000000000e+00  0.0000000000000000e+00  0.0000000000000000e+00  0.0000000000000000e+00  0.0000000000000000e+00  0.0000000000000000e+00  0.0000000000000000e+00  0.0000000000000000e+00  0.0000000000000000e+00  0.0000000000000000e+00  0.0000000000000000e+00  0.0000000000000000e+00  0.0000000000000000e+00  0.0000000000000000e+00  0.0000000000000000e+00  0.0000000000000000e+00  0.0000000000000000e+00  0.0000000000000000e+00  0.0000000000000000e+00  0.0000000000000000e+00  0.0000000000000000e+00  0.0000000000000000e+00  0.0000000000000000e+00  0.0000000000000000e+00  0.0000000000000000e+00  0.0000000000000000e+00  0.0000000000000000e+00  0.0000000000000000e+00  0.0000000000000000e+00  0.0000000000000000e+00  0.0000000000000000e+00  0.0000000000000000e+00  0.0000000000000000e+00  0.0000000000000000e+00  0.0000000000000000e+00  0.0000000000000000e+00  0.0000000000000000e+00  0.0000000000000000e+00  0.0000000000000000e+00  0.0000000000000000e+00  0.0000000000000000e+00  0.0000000000000000e+00  0.0000000000000000e+00  0.0000000000000000e+00  0.0000000000000000e+00  0.0000000000000000e+00  0.0000000000000000e+00  0.0000000000000000e+00  0.0000000000000000e+00  0.0000000000000000e+00  0.0000000000000000e+00  0.0000000000000000e+00  0.0000000000000000e+00  0.0000000000000000e+00  0.0000000000000000e+00  0.0000000000000000e+00  0.0000000000000000e+00  0.0000000000000000e+00  0.0000000000000000e+00  0.0000000000000000e+00  0.0000000000000000e+00  0.0000000000000000e+00  0.0000000000000000e+00  0.0000000000000000e+00  0.0000000000000000e+00  0.0000000000000000e+00  0.0000000000000000e+00  0.0000000000000000e+00  0.0000000000000000e+00  0.0000000000000000e+00  0.0000000000000000e+00  0.0000000000000000e+00  0.0000000000000000e+00  0.0000000000000000e+00  0.0000000000000000e+00  0.0000000000000000e+00  0.0000000000000000e+00  0.0000000000000000e+00  0.0000000000000000e+00  0.0000000000000000e+00  0.0000000000000000e+00  0.0000000000000000e+00  0.0000000000000000e+00  0.0000000000000000e+00  0.0000000000000000e+00  0.0000000000000000e+00  0.0000000000000000e+00  0.0000000000000000e+00  0.0000000000000000e+00  0.0000000000000000e+00  0.0000000000000000e+00  0.0000000000000000e+00  0.0000000000000000e+00  0.0000000000000000e+00  0.0000000000000000e+00  0.0000000000000000e+00  0.0000000000000000e+00  0.0000000000000000e+00  0.0000000000000000e+00  0.0000000000000000e+00  0.0000000000000000e+00  0.0000000000000000e+00  0.0000000000000000e+00  0.0000000000000000e+00  0.0000000000000000e+00  0.0000000000000000e+00  0.0000000000000000e+00  0.0000000000000000e+00  0.0000000000000000e+00  0.0000000000000000e+00  0.0000000000000000e+00  0.0000000000000000e+00  0.0000000000000000e+00  0.0000000000000000e+00  0.0000000000000000e+00  0.0000000000000000e+00  0.0000000000000000e+00  0.0000000000000000e+00  0.0000000000000000e+00  0.0000000000000000e+00  0.0000000000000000e+00  0.0000000000000000e+00  0.0000000000000000e+00  0.0000000000000000e+00  0.0000000000000000e+00  0.0000000000000000e+00  0.0000000000000000e+00  0.0000000000000000e+00  0.0000000000000000e+00  0.0000000000000000e+00  0.0000000000000000e+00  0.0000000000000000e+00  0.0000000000000000e+00  0.0000000000000000e+00  0.0000000000000000e+00  0.0000000000000000e+00  0.0000000000000000e+00  0.0000000000000000e+00  0.0000000000000000e+00  0.0000000000000000e+00  0.0000000000000000e+00  0.0000000000000000e+00  0.0000000000000000e+00  0.0000000000000000e+00  0.0000000000000000e+00  0.0000000000000000e+00  0.0000000000000000e+00  0.0000000000000000e+00  0.0000000000000000e+00  0.0000000000000000e+00  0.0000000000000000e+00  0.0000000000000000e+00  0.0000000000000000e+00  0.0000000000000000e+00  0.0000000000000000e+00  0.0000000000000000e+00  0.0000000000000000e+00  0.0000000000000000e+00  0.0000000000000000e+00  0.0000000000000000e+00  0.0000000000000000e+00  0.0000000000000000e+00  0.0000000000000000e+00  0.0000000000000000e+00  0.0000000000000000e+00  0.0000000000000000e+00  0.0000000000000000e+00  0.0000000000000000e+00  0.0000000000000000e+00  0.0000000000000000e+00  0.0000000000000000e+00  0.0000000000000000e+00  0.0000000000000000e+00  0.0000000000000000e+00  0.0000000000000000e+00  0.0000000000000000e+00  0.0000000000000000e+00  0.0000000000000000e+00  0.0000000000000000e+00  0.0000000000000000e+00  0.0000000000000000e+00  0.0000000000000000e+00  0.0000000000000000e+00  0.0000000000000000e+00  0.0000000000000000e+00  0.0000000000000000e+00  0.0000000000000000e+00  0.0000000000000000e+00  0.0000000000000000e+00  0.0000000000000000e+00  0.0000000000000000e+00  0.0000000000000000e+00  0.0000000000000000e+00  0.0000000000000000e+00  0.0000000000000000e+00  0.0000000000000000e+00  0.0000000000000000e+00  0.0000000000000000e+00  0.0000000000000000e+00  0.0000000000000000e+00  0.0000000000000000e+00  0.0000000000000000e+00  0.0000000000000000e+00  0.0000000000000000e+00  0.0000000000000000e+00  0.0000000000000000e+00  0.0000000000000000e+00  0.0000000000000000e+00  0.0000000000000000e+00  0.0000000000000000e+00  0.0000000000000000e+00  0.0000000000000000e+00  0.0000000000000000e+00  0.0000000000000000e+00  0.0000000000000000e+00  0.0000000000000000e+00  0.0000000000000000e+00  0.0000000000000000e+00  0.0000000000000000e+00  0.0000000000000000e+00  0.0000000000000000e+00  0.0000000000000000e+00  0.0000000000000000e+00  0.0000000000000000e+00  0.0000000000000000e+00  0.0000000000000000e+00  0.0000000000000000e+00  0.0000000000000000e+00  0.0000000000000000e+00  0.0000000000000000e+00  0.0000000000000000e+00  0.0000000000000000e+00  0.0000000000000000e+00  0.0000000000000000e+00  0.0000000000000000e+00  0.0000000000000000e+00  0.0000000000000000e+00  0.0000000000000000e+00  0.0000000000000000e+00  0.0000000000000000e+00  0.0000000000000000e+00  0.0000000000000000e+00  0.0000000000000000e+00  0.0000000000000000e+00  0.0000000000000000e+00  0.0000000000000000e+00  0.0000000000000000e+00  0.0000000000000000e+00  0.0000000000000000e+00  0.0000000000000000e+00  0.0000000000000000e+00  0.0000000000000000e+00  0.0000000000000000e+00  0.0000000000000000e+00  0.0000000000000000e+00  0.0000000000000000e+00  0.0000000000000000e+00  0.0000000000000000e+00  0.0000000000000000e+00  0.0000000000000000e+00  0.0000000000000000e+00  0.0000000000000000e+00  0.0000000000000000e+00  0.0000000000000000e+00  0.0000000000000000e+00  0.0000000000000000e+00  0.0000000000000000e+00  0.0000000000000000e+00  0.0000000000000000e+00  0.0000000000000000e+00  0.0000000000000000e+00  0.0000000000000000e+00  0.0000000000000000e+00  0.0000000000000000e+00  0.0000000000000000e+00  0.0000000000000000e+00  0.0000000000000000e+00  0.0000000000000000e+00  0.0000000000000000e+00  0.0000000000000000e+00  0.0000000000000000e+00  0.0000000000000000e+00  0.0000000000000000e+00  0.0000000000000000e+00  0.0000000000000000e+00  0.0000000000000000e+00  0.0000000000000000e+00  0.0000000000000000e+00  0.0000000000000000e+00  0.0000000000000000e+00  0.0000000000000000e+00  0.0000000000000000e+00  0.0000000000000000e+00  0.0000000000000000e+00  0.0000000000000000e+00  0.0000000000000000e+00  0.0000000000000000e+00  0.0000000000000000e+00  0.0000000000000000e+00  0.0000000000000000e+00  0.0000000000000000e+00  0.0000000000000000e+00  0.0000000000000000e+00  0.0000000000000000e+00  0.0000000000000000e+00  0.0000000000000000e+00  0.0000000000000000e+00  0.0000000000000000e+00  0.0000000000000000e+00  0.0000000000000000e+00  0.0000000000000000e+00  0.0000000000000000e+00  0.0000000000000000e+00  0.0000000000000000e+00  0.0000000000000000e+00  0.0000000000000000e+00  0.0000000000000000e+00  0.0000000000000000e+00  0.0000000000000000e+00  0.0000000000000000e+00  0.0000000000000000e+00  0.0000000000000000e+00  0.0000000000000000e+00  0.0000000000000000e+00  0.0000000000000000e+00  0.0000000000000000e+00  0.0000000000000000e+00  0.0000000000000000e+00  0.0000000000000000e+00  0.0000000000000000e+00  0.0000000000000000e+00  0.0000000000000000e+00  0.0000000000000000e+00  0.0000000000000000e+00  0.0000000000000000e+00  0.0000000000000000e+00  0.0000000000000000e+00  0.0000000000000000e+00  0.0000000000000000e+00  0.0000000000000000e+00  0.0000000000000000e+00  0.0000000000000000e+00  0.0000000000000000e+00  0.0000000000000000e+00  0.0000000000000000e+00  0.0000000000000000e+00  0.0000000000000000e+00  0.0000000000000000e+00  0.0000000000000000e+00  0.0000000000000000e+00  0.0000000000000000e+00  0.0000000000000000e+00  0.0000000000000000e+00  0.0000000000000000e+00  0.0000000000000000e+00  0.0000000000000000e+00  0.0000000000000000e+00  0.0000000000000000e+00  0.0000000000000000e+00  0.0000000000000000e+00  3.9496991430387224e-01  3.7599382145363491e-01  2.9448463453674750e-01  2.9738475399256065e-01  3.4655034878957169e-01  4.3871382678101611e-01  4.2097151683442036e-01  3.2626885621267504e-01  3.6234464946303291e-01  4.4600963649351588e-01  4.1015909049586868e-01  3.8877756493694088e-01  4.6786748047113508e-01  3.5724185363695055e-01  3.6950866600122356e-01  3.6016974720304512e-01  3.0969764888576429e-01  3.7914082778077290e-01  4.0128574670262274e-01  3.5498511295508395e-01  3.7842707939344411e-01  3.6413568945569963e-01  3.7972688598914289e-01  4.1747783248408860e-01  3.7822335775255717e-01  3.3506859684689194e-01  3.9042385916321160e-01  3.6462865943470341e-01  3.1371403565633221e-01  3.3927166722404023e-01  3.6646359634491515e-01  3.7383729442522912e-01  3.5114899234738250e-01  4.8112063820414941e-01  3.5705843511342800e-01  3.9887429510351313e-01  3.6374842727432993e-01  4.1781109220196577e-01  4.1426346717578544e-01  3.5892589508992123e-01  2.8102419361877989e-01  4.4092048839520814e-01  3.4869093734177997e-01  4.1193466543643481e-01  3.9470259338932345e-01  3.6428686957620510e-01  5.1903694007909340e-01  4.4820785378048161e-01  3.7763139927866385e-01  4.0184284617618937e-01  3.6352624214964663e-01  3.3124644891734201e-01  3.6495445043934843e-01  4.2729604589770331e-01  3.8780802800943925e-01  3.7345171701098612e-01  3.3372017812598137e-01  3.7457944331648985e-01  4.7656102267338468e-01  3.9961233322917838e-01  3.8781357546829881e-01  4.1084791961417405e-01  3.6123419455857740e-27  -1.3178480229343534e-27  -2.6372990540010806e-27  -2.9362114647493448e-27  -1.2756942706561377e-27  -5.3214877567420505e-28  -2.0321712863826535e-28  1.8085997106601580e-27  7.1910290803769465e-27  4.1262419773826721e-27  -7.0167494572678592e-25  -6.6245827887749176e-25  5.4015515422229455e-25  1.1894523068646110e-24  3.7088904527614896e-26  3.0575876717955614e-26  -4.7810029103254225e-26  -3.0032779551656754e-26  -1.1242593457118868e-22  -1.6505399756807524e-22  -4.3273494015089784e-26  -4.9232948103120021e-26  4.7612442020438828e-23  4.7758646070112343e-23  -4.7339435385890891e-27  -3.9748213218939298e-26  -7.5369921882724154e-21  -7.1236227406162337e-21  -4.5758827456691581e-21  -4.8274272083656023e-21  8.3195011871052323e-26  -2.6523095524652315e-26  7.1703433529220065e-30  -8.8439302200314464e-30  -9.0742336436426181e-30  1.6282539792467723e-29  1.9759498052880408e-28  3.9844307531930121e-28  2.8927544069953809e-28  3.1818018567202259e-28  3.5536296562982254e-20  6.3540179402008715e-26  1.2229837828444581e-26  3.8447619310295430e-20  -9.0965265702849868e-30  -9.9263792608736623e-30  -6.2620554351484263e-30  2.3186075166643582e-31  2.4329241994480328e-31  2.3940968655859923e-31  1.4562220520434795e-31  -9.9633731700749447e-30  -6.1356149604858185e-33  -2.3068812893628113e-32  1.1371224172981122e-31  -4.0599770883071996e-33  2.5154901694332743e-32  -6.0625827336728790e-33  1.3756207002702192e-31  -9.9017246057814596e-34  -1.2942971513267441e-33  -4.6819417878367688e-34  -1.9574358089535401e-34  1.4856515218675967e-34  1.3409178706677255e-34  7.7341074547605810e-35  7.3735585338643330e-36  -1.6096908871884292e-33  2.7758148735695405e-20  4.6288138157325548e-26  -1.3625658128300264e-26  1.3821896404528280e-20  1.1675113507790638e-25  -3.4725245172507422e-24  1.3394908162285939e-21  8.8430430886984291e-22  -3.2579704335667734e-24  2.7351239854146691e-26  7.8784415816279728e-26  -5.2863906790973089e-26  -3.8569291110772164e-26  -1.1547888302007589e-23  3.9597118547941934e-22  4.1482006417551873e-22  -1.1338401473537009e-23  -2.5527750163230845e-27  8.8215875418507231e-26  -4.0410929648112165e-27  5.5598443271882722e-27  -6.5538387348793899e-27  8.9115019540447130e-26  1.1270770886497166e-25  -4.0125628011854893e-27  -2.4121487283195306e-27  3.0464779071536190e-26  2.8830724268186201e-26  -1.5704729309213912e-28  -7.7608203872119148e-28  -1.2225004219576242e-27  2.0590625420536879e-28  6.3878287650966447e-28  6.7275942602123895e-29  -1.5133890141088942e-28  -9.2257497673451246e-28  1.2567463228103211e-35  1.8952168146287597e-35  7.5316879779035232e-36  -1.6945990072873710e-36  6.4699471572905880e-36  1.5368901386421718e-36  1.0557453563441380e-35  5.2339857292908184e-37  2.7877468317273950e-20  1.2034395976009467e-25  1.1446323454020792e-25  1.3760366222953667e-20  -1.7863873708204928e-27  4.4955702570089286e-27  4.7957003864589868e-27  -7.1558851474622488e-27  -1.1865852679712038e-26  -7.0067666355118754e-29  -8.1946774554395349e-27  -2.0294425616941293e-26  3.5252791638969834e-30  -1.1191973942026237e-28  -7.3960588774969310e-29  2.8341012780151935e-30  3.4754382348127525e-30  -9.6395346391715919e-29  -1.2779636825919035e-28  1.1569374792513802e-30  -3.7499983438728954e-33  3.6441426532418717e-34  1.2053000332662458e-30  -1.2997727245550008e-32  2.7360746695011680e-31  -1.5412838052740942e-32  -3.6562411585132630e-32  1.2126588840451117e-33  8.1374514329892139e-31  -1.3325619594372607e-32  -1.3655506052480920e-33  2.9198322497264745e-34  -4.4317829278089123e-32  1.2637525021034779e-33  5.2319112942761002e-31  -1.7094963314771868e-32  -3.7014092396432303e-36  -1.7453804202034227e-36  -2.9595974055714686e-36  -3.4662502564451809e-36  3.4840952871273157e-20  -1.2995853864792623e-19  -8.5771482387467250e-20  4.2076950147122830e-19  2.0515161765940386e-19  -1.2097205826151947e-18  -3.1622073798608606e-19  2.8705392786807584e-18  -2.7975279466518346e-19  -4.3099800043989033e-18  4.7474874149837387e-18  -4.6496837025123121e-18  -2.3363935978782406e-17  6.8991207571394875e-17  8.0970994671732500e-17  -3.3342387254573603e-16  -2.1158946089975710e-16  1.1328875938815850e-15  3.8162535022398438e-16  -2.8846906468099090e-15  -2.0353339322989469e-16  -4.7525365438308880e-15  4.9165516125197688e-15  -1.6200972127233178e-15  -1.5863595616198530e-15  7.3808897245497915e-15  -2.5145867885976626e-14  -1.5924051171531464e-14  9.9126083406277598e-14  9.7169901439423380e-15  -1.8521730024553635e-13  5.6053607700835993e-14  -3.7650739522504195e-13  2.9176613008465493e-14  -1.9703581822536468e-13  8.8654767603018496e-13  1.5536375612669865e-13  -2.2293418639731131e-12  7.7802418422916019e-13  -1.2244315868806509e-13  -2.4767516318635526e-12  1.3240155365647984e-11  -1.0637182303228944e-13  -2.1326469739504188e-11  -2.3720652457684566e-11  1.5576246241976069e-11  -4.0435949232889359e-11  -2.6197011714712074e-11  -3.0475908865130176e-13  1.7310822260329764e-11  -4.9867789401136826e-11  -2.3475134071431607e-11  -1.2717076207522923e-12  1.8382147987406416e-11  -2.7278784988824017e-12  -3.2804595470508960e-12  -1.3737053995001142e-11  1.8262696508561345e-11  -1.8308172567990887e-12  -6.7099889944542892e-12  1.4874963835947054e-12  3.6898572814694789e-13  1.1085116318709606e-11  -8.5790476421010525e-12  9.5890418645621669e-13  3.5615957387984143e-12  -1.4405371686682984e-11  2.2790828332572485e-12  -9.7888611794771525e-13  2.8368195413601673e-13  -4.9727520618402978e-12  2.1933213020809127e-12  -8.9153974530306515e-12  1.4121257879502138e-13  1.4211346035130957e-12  2.1923177883532764e-12  -3.5655672782409944e-12  2.5691754988522765e-11  -9.9231833125166470e-12  4.6010876177382898e-11  -1.3699290302008547e-11  5.3263070337385866e-11  3.2758538757442330e-12  -1.4243368351016939e-11  5.2221913156460471e-11  -1.3903423321297127e-11  5.2098992095848952e-11  -1.4170415973867914e-11  5.2925461762494761e-11  -1.3636666165413322e-11  4.6053279387839306e-11  -1.0050758018735709e-11  2.6443112193455196e-11  -3.7217879800844887e-12  1.9328875613700818e-12  3.2816025358944638e-12  -1.3958261347680637e-10  2.4600541356471672e+00  1.9657414648190833e-12  -1.3155531018544276e-11  3.9195632568718693e-12  -1.2890675067886293e-11  2.4867777948002940e+00  2.4093574215444028e-12  -4.4106900735633069e-12  2.4551759620990645e+00  1.7729105317511702e-13  1.8652307612831488e-12  1.7153208590573047e-12  -1.0302847631131742e-11  2.3501842169947403e-12  -4.7669951693583938e-12  -1.9087645674575273e-10  -3.2984103486024652e-13  1.8430954424614975e-13  2.4646639007678598e-12  1.3485981927345200e-12  -1.3790570947735170e-11  3.1899128916885818e-12  -6.8564105295460798e-12  4.4372331474604795e-11  5.1244522622000268e-12  1.7258612696469411e-12  -1.0569969983142721e-11  2.9624006621313630e-11  2.7853277361016918e-11  -3.0701879940453076e-12  -2.6881827115287570e-12  -2.9986781175918660e-11  2.4130936812560233e-11  -4.4952609308531317e-12  2.5569193919017423e-12  -4.7095739597234141e-11  1.4855232374980228e-11  -3.5622916349012311e-12  2.0498837719396978e-12  -3.4324557671853947e-11  1.3010027214476939e-11  -1.6556270719638329e-11  -2.7051540846268523e-11  7.5632440925133082e-13  1.4718397608372691e-11  -2.5673383486829290e-11  -3.4305316673673242e-11  1.0570959332004011e-12  1.9254262509799628e-11  -3.8083842626635850e-11  -4.0372784363074848e-11  3.3819892071670136e-10  -1.0483565850714854e-10  3.4595123437674411e-11  2.7917885085324767e-10  -1.0164180666203224e-11  -1.5824076149923848e-10  7.0784330000835166e-10  -9.7363385431812717e-11  -3.1623226672958354e-10  3.3493999283667957e-10  -1.7628372306457164e-09  3.1753719636157531e-10  5.2664686931004653e-10  -9.3924116920378572e-10  5.5426827610457618e-11  4.6160211885843375e-10  -2.0803366890781864e-09  4.1338679524541880e-10  4.8721165172666949e-11  -7.7779083631832547e-10  6.2577969647430654e-09  -2.5231185584357064e-09  1.1102680663552311e-08  -2.6967069168433405e-09  6.0765492140257504e-09  3.0388152775281159e-10  -1.0068311297215256e-08  5.1677685103420491e-09  -2.7534312605146874e-08  8.9689687378916160e-09  -3.7317926785284537e-08  1.0594641333969383e-08  -4.0077946442106867e-08  1.0586083239569791e-08  -3.7174813081143755e-08  8.7248522356759073e-09  -2.6310935291449173e-08  5.0685722678234434e-09  -1.1416168578549773e-08  -1.8825357448681590e-09  -8.3021157640208112e-10  3.6490886785299189e-10  9.5298909869699926e-11  -6.0274822352310899e-11  2.9172965815066602e-12  6.9892902947782154e-12  -6.6547350952746750e-12  1.9364820018471125e-13  2.8335950263955110e-12  -1.2437672576731603e-11  -4.7751761109989170e-13  4.5647313382812246e-10  3.2651048794967948e-12  -1.0225750475710199e-11  1.8589515879005792e-12  -3.3190788613179744e-12  1.0211898368487758e-13  1.5019752956555151e-12  -5.0334253427792674e-13  1.3507410