<?xml version="1.0"?>
<VTKFile type="UnstructuredGrid"  version="0.1"  >
<UnstructuredGrid>
<Piece  NumberOfPoints="11902" NumberOfCells="23402">
<Points>
<DataArray  type="Float64"  NumberOfComponents="3"  format="ascii">-5 -5 0  5 -5 0  5 5 0  -5 5 0  1.133814540028444 0.000898380397924217 0  -4.9 -5 0  -4.8 -5 0  -4.7 -5 0  -4.6 -5 0  -4.5 -5 0  -4.4 -5 0  -4.3 -5 0  -4.2 -5 0  -4.1 -5 0  -4 -5 0  -3.9 -5 0  -3.8 -5 0  -3.7 -5 0  -3.6 -5 0  -3.5 -5 0  -3.4 -5 0  -3.3 -5 0  -3.2 -5 0  -3.1 -5 0  -3 -5 0  -2.9 -5 0  -2.8 -5 0  -2.7 -5 0  -2.6 -5 0  -2.5 -5 0  -2.4 -5 0  -2.3 -5 0  -2.2 -5 0  -2.1 -5 0  -2 -5 0  -1.9 -5 0  -1.8 -5 0  -1.7 -5 0  -1.6 -5 0  -1.5 -5 0  -1.4 -5 0  -1.3 -5 0  -1.2 -5 0  -1.1 -5 0  -1 -5 0  -0.9000000000000004 -5 0  -0.7999999999999998 -5 0  -0.7000000000000002 -5 0  -0.5999999999999996 -5 0  -0.5 -5 0  -0.4000000000000004 -5 0  -0.2999999999999998 -5 0  -0.2000000000000002 -5 0  -0.09999999999999964 -5 0  0 -5 0  0.09999999999999964 -5 0  0.2000000000000002 -5 0  0.2999999999999998 -5 0  0.4000000000000004 -5 0  0.5 -5 0  0.5999999999999996 -5 0  0.7000000000000002 -5 0  0.7999999999999998 -5 0  0.9000000000000004 -5 0  1 -5 0  1.1 -5 0  1.2 -5 0  1.3 -5 0  1.4 -5 0  1.5 -5 0  1.6 -5 0  1.7 -5 0  1.8 -5 0  1.9 -5 0  2 -5 0  2.1 -5 0  2.2 -5 0  2.3 -5 0  2.4 -5 0  2.5 -5 0  2.6 -5 0  2.7 -5 0  2.8 -5 0  2.9 -5 0  3 -5 0  3.1 -5 0  3.199999999999999 -5 0  3.300000000000001 -5 0  3.4 -5 0  3.5 -5 0  3.6 -5 0  3.699999999999999 -5 0  3.800000000000001 -5 0  3.9 -5 0  4 -5 0  4.1 -5 0  4.199999999999999 -5 0  4.300000000000001 -5 0  4.4 -5 0  4.5 -5 0  4.6 -5 0  4.699999999999999 -5 0  4.800000000000001 -5 0  4.9 -5 0  5 -4.9 0  5 -4.8 0  5 -4.7 0  5 -4.6 0  5 -4.5 0  5 -4.4 0  5 -4.3 0  5 -4.2 0  5 -4.1 0  5 -4 0  5 -3.9 0  5 -3.8 0  5 -3.7 0  5 -3.6 0  5 -3.5 0  5 -3.4 0  5 -3.3 0  5 -3.2 0  5 -3.1 0  5 -3 0  5 -2.9 0  5 -2.8 0  5 -2.7 0  5 -2.6 0  5 -2.5 0  5 -2.4 0  5 -2.3 0  5 -2.2 0  5 -2.1 0  5 -2 0  5 -1.9 0  5 -1.8 0  5 -1.7 0  5 -1.6 0  5 -1.5 0  5 -1.4 0  5 -1.3 0  5 -1.2 0  5 -1.1 0  5 -1 0  5 -0.9000000000000004 0  5 -0.7999999999999998 0  5 -0.7000000000000002 0  5 -0.5999999999999996 0  5 -0.5 0  5 -0.4000000000000004 0  5 -0.2999999999999998 0  5 -0.2000000000000002 0  5 -0.09999999999999964 0  5 0 0  5 0.09999999999999964 0  5 0.2000000000000002 0  5 0.2999999999999998 0  5 0.4000000000000004 0  5 0.5 0  5 0.5999999999999996 0  5 0.7000000000000002 0  5 0.7999999999999998 0  5 0.9000000000000004 0  5 1 0  5 1.1 0  5 1.2 0  5 1.3 0  5 1.4 0  5 1.5 0  5 1.6 0  5 1.7 0  5 1.8 0  5 1.9 0  5 2 0  5 2.1 0  5 2.2 0  5 2.3 0  5 2.4 0  5 2.5 0  5 2.6 0  5 2.7 0  5 2.8 0  5 2.9 0  5 3 0  5 3.1 0  5 3.199999999999999 0  5 3.300000000000001 0  5 3.4 0  5 3.5 0  5 3.6 0  5 3.699999999999999 0  5 3.800000000000001 0  5 3.9 0  5 4 0  5 4.1 0  5 4.199999999999999 0  5 4.300000000000001 0  5 4.4 0  5 4.5 0  5 4.6 0  5 4.699999999999999 0  5 4.800000000000001 0  5 4.9 0  4.9 5 0  4.8 5 0  4.7 5 0  4.6 5 0  4.5 5 0  4.4 5 0  4.3 5 0  4.2 5 0  4.1 5 0  4 5 0  3.9 5 0  3.8 5 0  3.7 5 0  3.6 5 0  3.5 5 0  3.4 5 0  3.3 5 0  3.2 5 0  3.1 5 0  3 5 0  2.9 5 0  2.8 5 0  2.7 5 0  2.6 5 0  2.5 5 0  2.4 5 0  2.3 5 0  2.2 5 0  2.1 5 0  2 5 0  1.9 5 0  1.8 5 0  1.7 5 0  1.6 5 0  1.5 5 0  1.4 5 0  1.3 5 0  1.2 5 0  1.1 5 0  1 5 0  0.9000000000000004 5 0  0.7999999999999998 5 0  0.7000000000000002 5 0  0.5999999999999996 5 0  0.5 5 0  0.4000000000000004 5 0  0.2999999999999998 5 0  0.2000000000000002 5 0  0.09999999999999964 5 0  0 5 0  -0.09999999999999964 5 0  -0.2000000000000002 5 0  -0.2999999999999998 5 0  -0.4000000000000004 5 0  -0.5 5 0  -0.5999999999999996 5 0  -0.7000000000000002 5 0  -0.7999999999999998 5 0  -0.9000000000000004 5 0  -1 5 0  -1.1 5 0  -1.2 5 0  -1.3 5 0  -1.4 5 0  -1.5 5 0  -1.6 5 0  -1.7 5 0  -1.8 5 0  -1.9 5 0  -2 5 0  -2.1 5 0  -2.2 5 0  -2.3 5 0  -2.4 5 0  -2.5 5 0  -2.6 5 0  -2.7 5 0  -2.8 5 0  -2.9 5 0  -3 5 0  -3.1 5 0  -3.199999999999999 5 0  -3.300000000000001 5 0  -3.4 5 0  -3.5 5 0  -3.6 5 0  -3.699999999999999 5 0  -3.800000000000001 5 0  -3.9 5 0  -4 5 0  -4.1 5 0  -4.199999999999999 5 0  -4.300000000000001 5 0  -4.4 5 0  -4.5 5 0  -4.6 5 0  -4.699999999999999 5 0  -4.800000000000001 5 0  -4.9 5 0  -5 4.9 0  -5 4.8 0  -5 4.7 0  -5 4.6 0  -5 4.5 0  -5 4.4 0  -5 4.3 0  -5 4.2 0  -5 4.1 0  -5 4 0  -5 3.9 0  -5 3.8 0  -5 3.7 0  -5 3.6 0  -5 3.5 0  -5 3.4 0  -5 3.3 0  -5 3.2 0  -5 3.1 0  -5 3 0  -5 2.9 0  -5 2.8 0  -5 2.7 0  -5 2.6 0  -5 2.5 0  -5 2.4 0  -5 2.3 0  -5 2.2 0  -5 2.1 0  -5 2 0  -5 1.9 0  -5 1.8 0  -5 1.7 0  -5 1.6 0  -5 1.5 0  -5 1.4 0  -5 1.3 0  -5 1.2 0  -5 1.1 0  -5 1 0  -5 0.9000000000000004 0  -5 0.7999999999999998 0  -5 0.7000000000000002 0  -5 0.5999999999999996 0  -5 0.5 0  -5 0.4000000000000004 0  -5 0.2999999999999998 0  -5 0.2000000000000002 0  -5 0.09999999999999964 0  -5 0 0  -5 -0.09999999999999964 0  -5 -0.2000000000000002 0  -5 -0.2999999999999998 0  -5 -0.4000000000000004 0  -5 -0.5 0  -5 -0.5999999999999996 0  -5 -0.7000000000000002 0  -5 -0.7999999999999998 0  -5 -0.9000000000000004 0  -5 -1 0  -5 -1.1 0  -5 -1.2 0  -5 -1.3 0  -5 -1.4 0  -5 -1.5 0  -5 -1.6 0  -5 -1.7 0  -5 -1.8 0  -5 -1.9 0  -5 -2 0  -5 -2.1 0  -5 -2.2 0  -5 -2.3 0  -5 -2.4 0  -5 -2.5 0  -5 -2.6 0  -5 -2.7 0  -5 -2.8 0  -5 -2.9 0  -5 -3 0  -5 -3.1 0  -5 -3.199999999999999 0  -5 -3.300000000000001 0  -5 -3.4 0  -5 -3.5 0  -5 -3.6 0  -5 -3.699999999999999 0  -5 -3.800000000000001 0  -5 -3.9 0  -5 -4 0  -5 -4.1 0  -5 -4.199999999999999 0  -5 -4.300000000000001 0  -5 -4.4 0  -5 -4.5 0  -5 -4.6 0  -5 -4.699999999999999 0  -5 -4.800000000000001 0  -5 -4.9 0  1.128325416757251 0.1002855031911955 0  1.111121214696668 0.1994497864355156 0  1.082098193033399 0.2971789582367139 0  1.043901647370724 0.3902841879111728 0  0.9947805914345793 0.4812491440084133 0  0.9363809146977652 0.5668759306095408 0  0.867915665977145 0.6466839087326909 0  0.7902376541967123 0.7196943341105481 0  0.7056240597823552 0.7859213101529343 0  0.6138975201989327 0.8447520187144757 0  0.515492613562277 0.8948573896171899 0  0.4121222877847016 0.9362298016211228 0  0.3060182809643554 0.9687657139344569 0  0.195812688631306 0.9909409575760193 0  0.0849864384942504 1.00397698375868 0  -0.02711696640908507 1.006583022383909 0  -0.139007162419959 0.9983747311354961 0  -0.2500286965214989 0.9812478547072551 0  -0.3585835039804355 0.9544326850804553 0  -0.4631912016272814 0.9177036199530905 0  -0.5629462249983458 0.8723370513670029 0  -0.6575361484026067 0.8177332256705999 0  -0.7455724890337795 0.7552718409355273 0  -0.8264823607306725 0.6854189813481515 0  -0.8996162839303872 0.6077742374111093 0  -0.963284879583999 0.5246993727467003 0  -1.018087324096075 0.4369666142421755 0  -1.062144641262582 0.3442275431243949 0  -1.09532309103625 0.2487594261112261 0  -1.117856608265618 0.1508459814637964 0  -1.129321989984941 0.05085668491821336 0  -1.129348911268798 -0.04971812705284567 0  -1.11790145367459 -0.1495175286405916 0  -1.096550483807712 -0.2474216167601703 0  -1.062034110926636 -0.3437079425172453 0  -1.018391176518176 -0.4357941840314001 0  -0.9639057621133592 -0.5237551107682417 0  -0.9004341472218693 -0.6065114157787205 0  -0.8273113204205436 -0.6833819372889723 0  -0.7459164221693432 -0.7528541219491596 0  -0.6572012981939352 -0.8145734241710259 0  -0.5633061841948195 -0.8693328524745292 0  -0.4617069966281633 -0.9150236201406206 0  -0.3569637243237297 -0.952430736768909 0  -0.2482581436919017 -0.9798025291861875 0  -0.1378094948232007 -0.9973706837389996 0  -0.02637759911092306 -1.006049221842549 0  0.0854343860103435 -1.002807287126367 0  0.1972978842919348 -0.9895052844485057 0  0.3067775555384098 -0.9673881235842771 0  0.4142898993786376 -0.935008342554158 0  0.5163977234448196 -0.8938860786856589 0  0.6143924079127288 -0.8440063042725201 0  0.705869879090658 -0.7864399991620487 0  0.7904120265824423 -0.7201044887614121 0  0.8675543389915995 -0.6461786483076528 0  0.935542371695618 -0.5661536435079912 0  0.994900193281927 -0.4807902095324582 0  1.044963344404284 -0.3903849727971058 0  1.083149995340302 -0.2964369326862429 0  1.111225058578639 -0.1988742182784283 0  1.128348719408597 -0.09997175796140692 0  -2.449093978503959 4.919096190380341 0  -2.44901549494007 -4.911563421050525 0  4.911512701872092 2.4486619403417 0  4.919538106037153 -2.450053899940342 0  2.446840061415543 -4.896981873440932 0  2.441251580309375 4.900703559680347 0  -4.91153078916928 -2.448679936757842 0  -4.911530720849703 2.448683697751814 0  -1.749066292328462 4.912417654665615 0  -1.744829054299578 -4.915802504743179 0  4.921977443127495 1.744764184196185 0  4.910701738392501 -1.748626863120563 0  -4.910978572781512 -1.748349313900113 0  -4.911789951051476 1.748085905086622 0  1.746373239146264 4.906378787900383 0  1.747856634975232 -4.894708045544365 0  -1.149265043510499 4.910498242702183 0  -1.130078661149056 -4.918269612073136 0  -4.91108187669107 -1.148539249282809 0  -4.910906464201969 1.148338779610558 0  1.1442321010006 -4.914525558667972 0  1.149269873833351 4.910489966210812 0  4.911237714155981 1.14681949800177 0  4.921837617518621 -1.152530324106538 0  -0.546889547868301 -4.911833825947624 0  -0.5466507963389281 4.920348898074352 0  -4.910124785137811 -0.5490484978548915 0  -4.910149963311627 0.5476024164684896 0  4.909481002969997 -0.5493734084364263 0  4.920859256739794 0.5460843015788081 0  0.5426929707422103 -4.89898010343861 0  0.5513831216439505 4.917237037610609 0  -4.912607062017936 -3.048906310701333 0  4.919130486089623 3.04688313505239 0  4.912122977179086 -3.04889200609465 0  -4.913451458110267 3.045992978417679 0  3.055762444763435 -4.918088401449249 0  -3.049127853442694 -4.912072569035399 0  3.052684627643599 4.914137795970509 0  -3.048570484361155 4.912956629040674 0  -4.909349070110881 -0.04994166790856836 0  0.04513344357986853 -4.913798029996047 0  0.04958275726507694 4.920684804978895 0  4.916249351529385 -0.05132160383771091 0  3.54598500415014 -4.919520553660828 0  -3.549297448829608 4.912
[...]
<PointData  Vectors="PointNormal"> 
<DataArray  type="Float64"  Name="PointNormal"  NumberOfComponents="3" format="ascii">0.0000000000000000e+00 0.0000000000000000e+00 0.0000000000000000e+00  0.0000000000000000e+00 0.0000000000000000e+00 0.0000000000000000e+00  0.0000000000000000e+00 0.0000000000000000e+00 0.0000000000000000e+00  0.0000000000000000e+00 0.0000000000000000e+00 0.0000000000000000e+00  -9.9999986482503811e-01 -5.1995182985581953e-04 0.0000000000000000e+00  0.0000000000000000e+00 0.0000000000000000e+00 0.0000000000000000e+00  0.0000000000000000e+00 0.0000000000000000e+00 0.0000000000000000e+00  0.0000000000000000e+00 0.0000000000000000e+00 0.0000000000000000e+00  0.0000000000000000e+00 0.0000000000000000e+00 0.0000000000000000e+00  0.0000000000000000e+00 0.0000000000000000e+00 0.0000000000000000e+00  0.0000000000000000e+00 0.0000000000000000e+00 0.0000000000000000e+00  0.0000000000000000e+00 0.0000000000000000e+00 0.0000000000000000e+00  0.0000000000000000e+00 0.0000000000000000e+00 0.0000000000000000e+00  0.0000000000000000e+00 0.0000000000000000e+00 0.0000000000000000e+00  0.0000000000000000e+00 0.0000000000000000e+00 0.0000000000000000e+00  0.0000000000000000e+00 0.0000000000000000e+00 0.0000000000000000e+00  0.0000000000000000e+00 0.0000000000000000e+00 0.0000000000000000e+00  0.0000000000000000e+00 0.0000000000000000e+00 0.0000000000000000e+00  0.0000000000000000e+00 0.0000000000000000e+00 0.0000000000000000e+00  0.0000000000000000e+00 0.0000000000000000e+00 0.0000000000000000e+00  0.0000000000000000e+00 0.0000000000000000e+00 0.0000000000000000e+00  0.0000000000000000e+00 0.0000000000000000e+00 0.0000000000000000e+00  0.0000000000000000e+00 0.0000000000000000e+00 0.0000000000000000e+00  0.0000000000000000e+00 0.0000000000000000e+00 0.0000000000000000e+00  0.0000000000000000e+00 0.0000000000000000e+00 0.0000000000000000e+00  0.0000000000000000e+00 0.0000000000000000e+00 0.0000000000000000e+00  0.0000000000000000e+00 0.0000000000000000e+00 0.0000000000000000e+00  0.0000000000000000e+00 0.0000000000000000e+00 0.0000000000000000e+00  0.0000000000000000e+00 0.0000000000000000e+00 0.0000000000000000e+00  0.0000000000000000e+00 0.0000000000000000e+00 0.0000000000000000e+00  0.0000000000000000e+00 0.0000000000000000e+00 0.0000000000000000e+00  0.0000000000000000e+00 0.0000000000000000e+00 0.0000000000000000e+00  0.0000000000000000e+00 0.0000000000000000e+00 0.0000000000000000e+00  0.0000000000000000e+00 0.0000000000000000e+00 0.0000000000000000e+00  0.0000000000000000e+00 0.0000000000000000e+00 0.0000000000000000e+00  0.0000000000000000e+00 0.0000000000000000e+00 0.0000000000000000e+00  0.0000000000000000e+00 0.0000000000000000e+00 0.0000000000000000e+00  0.0000000000000000e+00 0.0000000000000000e+00 0.0000000000000000e+00  0.0000000000000000e+00 0.0000000000000000e+00 0.0000000000000000e+00  0.0000000000000000e+00 0.0000000000000000e+00 0.0000000000000000e+00  0.0000000000000000e+00 0.0000000000000000e+00 0.0000000000000000e+00  0.0000000000000000e+00 0.0000000000000000e+00 0.0000000000000000e+00  0.0000000000000000e+00 0.0000000000000000e+00 0.0000000000000000e+00  0.0000000000000000e+00 0.0000000000000000e+00 0.0000000000000000e+00  0.0000000000000000e+00 0.0000000000000000e+00 0.0000000000000000e+00  0.0000000000000000e+00 0.0000000000000000e+00 0.0000000000000000e+00  0.0000000000000000e+00 0.0000000000000000e+00 0.0000000000000000e+00  0.0000000000000000e+00 0.0000000000000000e+00 0.0000000000000000e+00  0.0000000000000000e+00 0.0000000000000000e+00 0.0000000000000000e+00  0.0000000000000000e+00 0.0000000000000000e+00 0.0000000000000000e+00  0.0000000000000000e+00 0.0000000000000000e+00 0.0000000000000000e+00  0.0000000000000000e+00 0.0000000000000000e+00 0.0000000000000000e+00  0.0000000000000000e+00 0.0000000000000000e+00 0.0000000000000000e+00  0.0000000000000000e+00 0.0000000000000000e+00 0.0000000000000000e+00  0.0000000000000000e+00 0.0000000000000000e+00 0.0000000000000000e+00  0.0000000000000000e+00 0.0000000000000000e+00 0.0000000000000000e+00  0.0000000000000000e+00 0.0000000000000000e+00 0.0000000000000000e+00  0.0000000000000000e+00 0.0000000000000000e+00 0.0000000000000000e+00  0.0000000000000000e+00 0.0000000000000000e+00 0.0000000000000000e+00  0.0000000000000000e+00 0.0000000000000000e+00 0.0000000000000000e+00  0.0000000000000000e+00 0.0000000000000000e+00 0.0000000000000000e+00  0.0000000000000000e+00 0.0000000000000000e+00 0.0000000000000000e+00  0.0000000000000000e+00 0.0000000000000000e+00 0.0000000000000000e+00  0.0000000000000000e+00 0.0000000000000000e+00 0.0000000000000000e+00  0.0000000000000000e+00 0.0000000000000000e+00 0.0000000000000000e+00  0.0000000000000000e+00 0.0000000000000000e+00 0.0000000000000000e+00  0.0000000000000000e+00 0.0000000000000000e+00 0.0000000000000000e+00  0.0000000000000000e+00 0.0000000000000000e+00 0.0000000000000000e+00  0.0000000000000000e+00 0.0000000000000000e+00 0.0000000000000000e+00  0.0000000000000000e+00 0.0000000000000000e+00 0.0000000000000000e+00  0.0000000000000000e+00 0.0000000000000000e+00 0.0000000000000000e+00  0.0000000000000000e+00 0.0000000000000000e+00 0.0000000000000000e+00  0.0000000000000000e+00 0.0000000000000000e+00 0.0000000000000000e+00  0.0000000000000000e+00 0.0000000000000000e+00 0.0000000000000000e+00  0.0000000000000000e+00 0.0000000000000000e+00 0.0000000000000000e+00  0.0000000000000000e+00 0.0000000000000000e+00 0.0000000000000000e+00  0.0000000000000000e+00 0.0000000000000000e+00 0.0000000000000000e+00  0.0000000000000000e+00 0.0000000000000000e+00 0.0000000000000000e+00  0.0000000000000000e+00 0.0000000000000000e+00 0.0000000000000000e+00  0.0000000000000000e+00 0.0000000000000000e+00 0.0000000000000000e+00  0.0000000000000000e+00 0.0000000000000000e+00 0.0000000000000000e+00  0.0000000000000000e+00 0.0000000000000000e+00 0.0000000000000000e+00  0.0000000000000000e+00 0.0000000000000000e+00 0.0000000000000000e+00  0.0000000000000000e+00 0.0000000000000000e+00 0.0000000000000000e+00  0.0000000000000000e+00 0.0000000000000000e+00 0.0000000000000000e+00  0.0000000000000000e+00 0.0000000000000000e+00 0.0000000000000000e+00  0.0000000000000000e+00 0.0000000000000000e+00 0.0000000000000000e+00  0.0000000000000000e+00 0.0000000000000000e+00 0.0000000000000000e+00  0.0000000000000000e+00 0.0000000000000000e+00 0.0000000000000000e+00  0.0000000000000000e+00 0.0000000000000000e+00 0.0000000000000000e+00  0.0000000000000000e+00 0.0000000000000000e+00 0.0000000000000000e+00  0.0000000000000000e+00 0.0000000000000000e+00 0.0000000000000000e+00  0.0000000000000000e+00 0.0000000000000000e+00 0.0000000000000000e+00  0.0000000000000000e+00 0.0000000000000000e+00 0.0000000000000000e+00  0.0000000000000000e+00 0.0000000000000000e+00 0.0000000000000000e+00  0.0000000000000000e+00 0.0000000000000000e+00 0.0000000000000000e+00  0.0000000000000000e+00 0.0000000000000000e+00 0.0000000000000000e+00  0.0000000000000000e+00 0.0000000000000000e+00 0.0000000000000000e+00  0.0000000000000000e+00 0.0000000000000000e+00 0.0000000000000000e+00  0.0000000000000000e+00 0.0000000000000000e+00 0.0000000000000000e+00  0.0000000000000000e+00 0.0000000000000000e+00 0.0000000000000000e+00  0.0000000000000000e+00 0.0000000000000000e+00 0.0000000000000000e+00  0.0000000000000000e+00 0.0000000000000000e+00 0.0000000000000000e+00  0.0000000000000000e+00 0.0000000000000000e+00 0.0000000000000000e+00  0.0000000000000000e+00 0.0000000000000000e+00 0.0000000000000000e+00  0.0000000000000000e+00 0.0000000000000000e+00 0.0000000000000000e+00  0.0000000000000000e+00 0.0000000000000000e+00 0.0000000000000000e+00  0.0000000000000000e+00 0.0000000000000000e+00 0.0000000000000000e+00  0.0000000000000000e+00 0.0000000000000000e+00 0.0000000000000000e+00  0.0000000000000000e+00 0.0000000000000000e+00 0.0000000000000000e+00  0.0000000000000000e+00 0.0000000000000000e+00 0.0000000000000000e+00  0.0000000000000000e+00 0.0000000000000000e+00 0.0000000000000000e+00  0.0000000000000000e+00 0.0000000000000000e+00 0.0000000000000000e+00  0.0000000000000000e+00 0.0000000000000000e+00 0.0000000000000000e+00  0.0000000000000000e+00 0.0000000000000000e+00 0.0000000000000000e+00  0.0000000000000000e+00 0.0000000000000000e+00 0.0000000000000000e+00  0.0000000000000000e+00 0.0000000000000000e+00 0.0000000000000000e+00  0.0000000000000000e+00 0.0000000000000000e+00 0.0000000000000000e+00  0.0000000000000000e+00 0.0000000000000000e+00 0.0000000000000000e+00  0.0000000000000000e+00 0.0000000000000000e+00 0.0000000000000000e+00  0.0000000000000000e+00 0.0000000000000000e+00 0.0000000000000000e+00  0.0000000000000000e+00 0.0000000000000000e+00 0.0000000000000000e+00  0.0000000000000000e+00 0.0000000000000000e+00 0.0000000000000000e+00  0.0000000000000000e+00 0.0000000000000000e+00 0.0000000000000000e+00  0.0000000000000000e+00 0.0000000000000000e+00 0.0000000000000000e+00  0.0000000000000000e+00 0.0000000000000000e+00 0.0000000000000000e+00  0.0000000000000000e+00 0.0000000000000000e+00 0.0000000000000000e+00  0.0000000000000000e+00 0.0000000000000000e+00 0.0000000000000000e+00  0.0000000000000000e+00 0.0000000000000000e+00 0.0000000000000000e+00  0.0000000000000000e+00 0.0000000000000000e+00 0.0000000000000000e+00  0.0000000000000000e+00 0.0000000000000000e+00 0.0000000000000000e+00  0.0000000000000000e+00 0.0000000000000000e+00 0.0000000000000000e+00  0.0000000000000000e+00 0.0000000000000000e+00 0.0000000000000000e+00  0.0000000000000000e+00 0.0000000000000000e+00 0.0000000000000000e+00  0.0000000000000000e+00 0.0000000000000000e+00 0.0000000000000000e+00  0.0000000000000000e+00 0.0000000000000000e+00 0.0000000000000000e+00  0.0000000000000000e+00 0.0000000000000000e+00 0.0000000000000000e+00  0.0000000000000000e+00 0.0000000000000000e+00 0.0000000000000000e+00  0.0000000000000000e+00 0.0000000000000000e+00 0.0000000000000000e+00  0.0000000000000000e+00 0.0000000000000000e+00 0.0000000000000000e+00  0.0000000000000000e+00 0.0000000000000000e+00 0.0000000000000000e+00  0.0000000000000000e+00 0.0000000000000000e+00 0.0000000000000000e+00  0.0000000000000000e+00 0.0000000000000000e+00 0.0000000000000000e+00  0.0000000000000000e+00 0.0000000000000000e+00 0.0000000000000000e+00  0.0000000000000000e+00 0.0000000000000000e+00 0.0000000000000000e+00  0.0000000000000000e+00 0.0000000000000000e+00 0.0000000000000000e+00  0.0000000000000000e+00 0.0000000000000000e+00 0.0000000000000000e+00  0.0000000000000000e+00 0.0000000000000000e+00 0.0000000000000000e+00  0.0000000000000000e+00 0.0000000000000000e+00 0.0000000000000000e+00  0.0000000000000000e+00 0.0000000000000000e+00 0.0000000000000000e+00  0.0000000000000000e+00 0.0000000000000000e+00 0.0000000000000000e+00  0.0000000000000000e+00 0.0000000000000000e+00 0.0000000000000000e+00  0.0000000000000000e+00 0.0000000000000000e+00 0.0000000000000000e+00  0.0000000000000000e+00 0.0000000000000000e+00 0.0000000000000000e+00  0.0000000000000000e+00 0.0000000000000000e+00 0.0000000000000000e+00  0.0000000000000000e+00 0.0000000000000000e+00 0.0000000000000000e+00  0.0000000000000000e+00 0.0000000000000000e+00 0.0000000000000000e+00  0.0000000000000000e+00 0.0000000000000000e+00 0.0000000000000000e+00  0.0000000000000000e+00 0.0000000000000000e+00 0.0000000000000000e+00  0.0000000000000000e+00 0.0000000000000000e+00 0.0000000000000000e+00  0.0000000000000000e+00 0.0000000000000000e+00 0.0000000000000000e+00  0.0000000000000000e+00 0.0000000000000000e+00 0.0000000000000000e+00  0.0000000000000000e+00 0.0000000000000000e+00 0.0000000000000000e+00  0.0000000000000000e+00 0.0000000000000000e+00 0.0000000000000000e+00  0.0000000000000000e+00 0.0000000000000000e+00 0.0000000000000000e+00  0.0000000000000000e+00 0.0000000000000000e+00 0.0000000000000000e+00  0.0000000000000000e+00 0.0000000000000000e+00 0.0000000000000000e+00  0.0000000000000000e+00 0.0000000000000000e+00 0.0000000000000000e+00  0.0000000000000000e+00 0.0000000000000000e+00 0.0000000000000000e+00  0.0000000000000000e+00 0.0000000000000000e+00 0.0000000000000000e+00  0.0000000000000000e+00 0.0000000000000000e+00 0.0000000000000000e+00  0.0000000000000000e+00 0.0000000000000000e+00 0.0000000000000000e+00  0.0000000000000000e+00 0.0000000000000000e+00 0.0000000000000000e+00  0.0000000000000000e+00 0.0000000000000000e+00 0.0000000000000000e+00  0.0000000000000000e+00 0.0000000000000000e+00 0.0000000000000000e+00  0.0000000000000000e+00 0.0000000000000000e+00 0.0000000000000000e+00  0.0000000000000000e+00 0.0000000000000000e+00 0.0000000000000000e+00  0.0000000000000000e+00 0.0000000000000000e+00 0.0000000000000000e+00  0.0000000000000000e+00 0.0000000000000000e+00 0.0000000000000000e+00  0.0000000000000000e+00 0.0000000000000000e+00 0.0000000000000000e+00  0.0000000000000000e+00 0.0000000000000000e+00 0.0000000000000000e+00  0.0000000000000000e+00 0.0000000000000000e+00 0.0000000000000000e+00  0.0000000000000000e+00 0.0000000000000000e+00 0.0000000000000000e+00  0.0000000000000000e+00 0.0000000000000000e+00 0.0000000000000000e+00  0.0000000000000000e+00 0.0000000000000000e+00 0.0000000000000000e+00  0.0000000000000000e+00 0.0000000000000000e+00 0.0000000000000000e+00  0.0000000000000000e+00 0.0000000000000000e+00 0.0000000000000000e+00  0.0000000000000000e+00 0.0000000000000000e+00 0.0000000000000000e+00  0.0000000000000000e+00 0.0000000000000000e+00 0.0000000000000000e+00  0.0000000000000000e+00 0.0000000000000000e+00 0.0000000000000000e+00  0.0000000000000000e+00 0.0000000000000000e+00 0.0000000000000000e+00  0.0000000000000000e+00 0.0000000000000000e+00 0.0000000000000000e+00  0.0000000000000000e+00 0.0000000000000000e+00 0.0000000000000000e+00  0.0000000000000000e+00 0.0000000000000000e+00 0.0000000000000000e+00  0.0000000000000000e+00 0.0000000000000000e+00 0.0000000000000000e+00  0.0000000000000000e+00 0.0000000000000000e+00 0.0000000000000000e+00  0.0000000000000000e+00 0.0000000000000000e+00 0.0000000000000000e+00  0.0000000000000000e+00 0.0000000000000000e+00 0.0000000000000000e+00  0.0000000000000000e+00 0.0000000000000000e+00 0.0000000000000000e+00  0.0000000000000000e+00 0.0000000000000000e+00 0.0000000000000000e+00  0.0000000000000000e+00 0.0000000000000000e+00 0.0000000000000000e+00  0.0000000000000000e+00 0.0000000000000000e+00 0.0000000000000000e+00  0.0000000000000000e+00 0.0000000000000000e+00 0.0000000000000000e+00  0.0000000000000000e+00 0.0000000000000000e+00 0.0000000000000000e+00  0.0000000000000000e+00 0.0000000000000000e+00 0.0000000000000000e+00  0.0000000000000000e+00 0.0000000000000000e+00 0.0000000000000000e+00  0.0000000000000000e+00 0.0000000000000000e+00 0.0000000000000000e+00  0.0000000000000000e+00 0.0000000000000000e+00 0.0000000000000000e+00  0.0000000000000000e+00 0.0000000000000000e+00 0.0000000000000000e+00  0.0000000000000000e+00 0.0000000000000000e+00 0.0000000000000000e+00  0.0000000000000000e+00 0.0000000000000000e+00 0.0000000000000000e+00  0.0000000000000000e+00 0.0000000000000000e+00 0.0000000000000000e+00  0.0000000000000000e+00 0.0000000000000000e+00 0.0000000000000000e+00  0.0000000000000000e+00 0.0000000000000000e+00 0.0000000000000000e+00  0.0000000000000000e+00 0.0000000000000000e+00 0.0000000000000000e+00  0.0000000000000000e+00 0.0000000000000000e+00 0.0000000000000000e+00  0.0000000000000000e+00 0.0000000000000000e+00 0.0000000000000000e+00  0.0000000000000000e+00 0.0000000000000000e+00 0.0000000000000000e+00  0.0000000000000000e+00 0.0000000000000000e+00 0.0000000000000000e+00  0.0000000000000000e+00 0.0000000000000000e+00 0.0000000000000000e+00  0.0000000000000000e+00 0.0000000000000000e+00 0.0000000000000000e+00  0.0000000000000000e+00 0.0000000000000000e+00 0.0000000000000000e+00  0.0000000000000000e+00 0.0000000000000000e+00 0.0000000000000000e+00  0.0000000000000000e+00 0.0000000000000000e+00 0.0000000000000000e+00  0.0000000000000000e+00 0.0000000000000000e+00 0.0000000000000000e+00  0.0000000000000000e+00 0.0000000000000000e+00 0.0000000000000000e+00  0.0000000000000000e+00 0.0000000000000000e+00 0.0000000000000000e+00  0.0000000000000000e+00 0.0000000000000000e+00 0.0000000000000000e+00  0.0000000000000000e+00 0.0000000000000000e+00 0.0000000000000000e+00  0.0000000000000000e+00 0.0000000000000000e+00 0.0000000000000000e+00  0.0000000000000000e+00 0.0000000000000000e+00 0.0000000000000000e+00  0.0000000000000000e+00 0.0000000000000000e+00 0.0000000000000000e+00  0.0000000000000000e+00 0.0000000000000000e+00 0.0000000000000000e+00  0.0000000000000000e+00 0.0000000000000000e+00 0.0000000000000000e+00  0.0000000000000000e+00 0.0000000000000000e+00 0.0000000000000000e+00  0.0000000000000000e+00 0.0000000000000000e+00 0.0000000000000000e+00  0.0000000000000000e+00 0.0000000000000000e+00 0.0000000000000000e+00  0.0000000000000000e+00 0.0000000000000000e+00 0.0000000000000000e+00  0.0000000000000000e+00 0.0000000000000000e+00 0.0000000000000000e+00  0.0000000000000000e+00 0.0000000000000000e+00 0.0000000000000000e+00  0.0000000000000000e+00 0.0000000000000000e+00 0.0000000000000000e+00  0.0000000000000000e+00 0.0000000000000000e+00 0.0000000000000000e+00  0.0000000000000000e+00 0.0000000000000000e+00 0.0000000000000000e+00  0.0000000000000000e+00 0.0000000000000000e+00 0.0000000000000000e+00  0.0000000000000000e+00 0.0000000000000000e+00 0.0000000000000000e+00  0.0000000000000000e+00 0.0000000000000000e+00 0.0000000000000000e+00  0.0000000000000000e+00 0.0000000000000000e+00 0.0000000000000000e+00  0.0000000000000000e+00 0.0000000000000000e+00 0.0000000000000000e+00  0.0000000000000000e+00 0.0000000000000000e+00 0.0000000000000000e+00  0.0000000000000000e+00 0.0000000000000000e+00 0.0000000000000000e+00  0.0000000000000000e+00 0.0000000000000000e+00 0.0000000000000000e+00  0.0000000000000000e+00 0.0000000000000000e+00 0.0000000000000000e+00  0.0000000000000000e+00 0.0000000000000000e+00 0.0000000000000000e+00  0.0000000000000000e+00 0.0000000000000000e+00 0.0000000000000000e+00  0.0000000000000000e+00 0.0000000000000000e+00 0.0000000000000000e+00  0.0000000000000000e+00 0.0000000000000000e+00 0.0000000000000000e+00  0.0000000000000000e+00 0.0000000000000000e+00 0.0000000000000000e+00  0.0000000000000000e+00 0.0000000000000000e+00 0.0000000000000000e+00  0.0000000000000000e+00 0.0000000000000000e+00 0.0000000000000000e+00  0.0000000000000000e+00 0.0000000000000000e+00 0.0000000000000000e+00  0.0000000000000000e+00 0.0000000000000000e+00 0.0000000000000000e+00  0.0000000000000000e+00 0.0000000000000000e+00 0.0000000000000000e+00  0.0000000000000000e+00 0.0000000000000000e+00 0.0000000000000000e+00  0.0000000000000000e+00 0.0000000000000000e+00 0.0000000000000000e+00  0.0000000000000000e+00 0.0000000000000000e+00 0.0000000000000000e+00  0.0000000000000000e+00 0.0000000000000000e+00 0.0000000000000000e+00  0.0000000000000000e+00 0.0000000000000000e+00 0.0000000000000000e+00  0.0000000000000000e+00 0.0000000000000000e+00 0.0000000000000000e+00  0.0000000000000000e+00 0.0000000000000000e+00 0.0000000000000000e+00  0.0000000000000000e+00 0.0000000000000000e+00 0.0000000000000000e+00  0.0000000000000000e+00 0.0000000000000000e+00 0.0000000000000000e+00  0.0000000000000000e+00 0.0000000000000000e+00 0.0000000000000000e+00  0.0000000000000000e+00 0.0000000000000000e+00 0.0000000000000000e+00  0.0000000000000000e+00 0.0000000000000000e+00 0.0000000000000000e+00  0.0000000000000000e+00 0.0000000000000000e+00 0.0000000000000000e+00  0.0000000000000000e+00 0.0000000000000000e+00 0.0000000000000000e+00  0.0000000000000000e+00 0.0000000000000000e+00 0.0000000000000000e+00  0.0000000000000000e+00 0.0000000000000000e+00 0.0000000000000000e+00  0.0000000000000000e+00 0.0000000000000000e+00 0.0000000000000000e+00  0.0000000000000000e+00 0.0000000000000000e+00 0.0000000000000000e+00  0.0000000000000000e+00 0.0000000000000000e+00 0.0000000000000000e+00  0.0000000000000000e+00 0.0000000000000000e+00 0.0000000000000000e+00  0.0000000000000000e+00 0.0000000000000000e+00 0.0000000000000000e+00  0.0000000000000000e+00 0.0000000000000000e+00 0.0000000000000000e+