<?xml version="1.0"?>
<VTKFile type="UnstructuredGrid"  version="0.1"  >
<UnstructuredGrid>
<Piece  NumberOfPoints="11902" NumberOfCells="23402">
<Points>
<DataArray  type="Float64"  NumberOfComponents="3"  format="ascii">-5 -5 0  5 -5 0  5 5 0  -5 5 0  1.264833669450763 0.001264107697276983 0  -4.9 -5 0  -4.8 -5 0  -4.7 -5 0  -4.6 -5 0  -4.5 -5 0  -4.4 -5 0  -4.3 -5 0  -4.2 -5 0  -4.1 -5 0  -4 -5 0  -3.9 -5 0  -3.8 -5 0  -3.7 -5 0  -3.6 -5 0  -3.5 -5 0  -3.4 -5 0  -3.3 -5 0  -3.2 -5 0  -3.1 -5 0  -3 -5 0  -2.9 -5 0  -2.8 -5 0  -2.7 -5 0  -2.6 -5 0  -2.5 -5 0  -2.4 -5 0  -2.3 -5 0  -2.2 -5 0  -2.1 -5 0  -2 -5 0  -1.9 -5 0  -1.8 -5 0  -1.7 -5 0  -1.6 -5 0  -1.5 -5 0  -1.4 -5 0  -1.3 -5 0  -1.2 -5 0  -1.1 -5 0  -1 -5 0  -0.9000000000000004 -5 0  -0.7999999999999998 -5 0  -0.7000000000000002 -5 0  -0.5999999999999996 -5 0  -0.5 -5 0  -0.4000000000000004 -5 0  -0.2999999999999998 -5 0  -0.2000000000000002 -5 0  -0.09999999999999964 -5 0  0 -5 0  0.09999999999999964 -5 0  0.2000000000000002 -5 0  0.2999999999999998 -5 0  0.4000000000000004 -5 0  0.5 -5 0  0.5999999999999996 -5 0  0.7000000000000002 -5 0  0.7999999999999998 -5 0  0.9000000000000004 -5 0  1 -5 0  1.1 -5 0  1.2 -5 0  1.3 -5 0  1.4 -5 0  1.5 -5 0  1.6 -5 0  1.7 -5 0  1.8 -5 0  1.9 -5 0  2 -5 0  2.1 -5 0  2.2 -5 0  2.3 -5 0  2.4 -5 0  2.5 -5 0  2.6 -5 0  2.7 -5 0  2.8 -5 0  2.9 -5 0  3 -5 0  3.1 -5 0  3.199999999999999 -5 0  3.300000000000001 -5 0  3.4 -5 0  3.5 -5 0  3.6 -5 0  3.699999999999999 -5 0  3.800000000000001 -5 0  3.9 -5 0  4 -5 0  4.1 -5 0  4.199999999999999 -5 0  4.300000000000001 -5 0  4.4 -5 0  4.5 -5 0  4.6 -5 0  4.699999999999999 -5 0  4.800000000000001 -5 0  4.9 -5 0  5 -4.9 0  5 -4.8 0  5 -4.7 0  5 -4.6 0  5 -4.5 0  5 -4.4 0  5 -4.3 0  5 -4.2 0  5 -4.1 0  5 -4 0  5 -3.9 0  5 -3.8 0  5 -3.7 0  5 -3.6 0  5 -3.5 0  5 -3.4 0  5 -3.3 0  5 -3.2 0  5 -3.1 0  5 -3 0  5 -2.9 0  5 -2.8 0  5 -2.7 0  5 -2.6 0  5 -2.5 0  5 -2.4 0  5 -2.3 0  5 -2.2 0  5 -2.1 0  5 -2 0  5 -1.9 0  5 -1.8 0  5 -1.7 0  5 -1.6 0  5 -1.5 0  5 -1.4 0  5 -1.3 0  5 -1.2 0  5 -1.1 0  5 -1 0  5 -0.9000000000000004 0  5 -0.7999999999999998 0  5 -0.7000000000000002 0  5 -0.5999999999999996 0  5 -0.5 0  5 -0.4000000000000004 0  5 -0.2999999999999998 0  5 -0.2000000000000002 0  5 -0.09999999999999964 0  5 0 0  5 0.09999999999999964 0  5 0.2000000000000002 0  5 0.2999999999999998 0  5 0.4000000000000004 0  5 0.5 0  5 0.5999999999999996 0  5 0.7000000000000002 0  5 0.7999999999999998 0  5 0.9000000000000004 0  5 1 0  5 1.1 0  5 1.2 0  5 1.3 0  5 1.4 0  5 1.5 0  5 1.6 0  5 1.7 0  5 1.8 0  5 1.9 0  5 2 0  5 2.1 0  5 2.2 0  5 2.3 0  5 2.4 0  5 2.5 0  5 2.6 0  5 2.7 0  5 2.8 0  5 2.9 0  5 3 0  5 3.1 0  5 3.199999999999999 0  5 3.300000000000001 0  5 3.4 0  5 3.5 0  5 3.6 0  5 3.699999999999999 0  5 3.800000000000001 0  5 3.9 0  5 4 0  5 4.1 0  5 4.199999999999999 0  5 4.300000000000001 0  5 4.4 0  5 4.5 0  5 4.6 0  5 4.699999999999999 0  5 4.800000000000001 0  5 4.9 0  4.9 5 0  4.8 5 0  4.7 5 0  4.6 5 0  4.5 5 0  4.4 5 0  4.3 5 0  4.2 5 0  4.1 5 0  4 5 0  3.9 5 0  3.8 5 0  3.7 5 0  3.6 5 0  3.5 5 0  3.4 5 0  3.3 5 0  3.2 5 0  3.1 5 0  3 5 0  2.9 5 0  2.8 5 0  2.7 5 0  2.6 5 0  2.5 5 0  2.4 5 0  2.3 5 0  2.2 5 0  2.1 5 0  2 5 0  1.9 5 0  1.8 5 0  1.7 5 0  1.6 5 0  1.5 5 0  1.4 5 0  1.3 5 0  1.2 5 0  1.1 5 0  1 5 0  0.9000000000000004 5 0  0.7999999999999998 5 0  0.7000000000000002 5 0  0.5999999999999996 5 0  0.5 5 0  0.4000000000000004 5 0  0.2999999999999998 5 0  0.2000000000000002 5 0  0.09999999999999964 5 0  0 5 0  -0.09999999999999964 5 0  -0.2000000000000002 5 0  -0.2999999999999998 5 0  -0.4000000000000004 5 0  -0.5 5 0  -0.5999999999999996 5 0  -0.7000000000000002 5 0  -0.7999999999999998 5 0  -0.9000000000000004 5 0  -1 5 0  -1.1 5 0  -1.2 5 0  -1.3 5 0  -1.4 5 0  -1.5 5 0  -1.6 5 0  -1.7 5 0  -1.8 5 0  -1.9 5 0  -2 5 0  -2.1 5 0  -2.2 5 0  -2.3 5 0  -2.4 5 0  -2.5 5 0  -2.6 5 0  -2.7 5 0  -2.8 5 0  -2.9 5 0  -3 5 0  -3.1 5 0  -3.199999999999999 5 0  -3.300000000000001 5 0  -3.4 5 0  -3.5 5 0  -3.6 5 0  -3.699999999999999 5 0  -3.800000000000001 5 0  -3.9 5 0  -4 5 0  -4.1 5 0  -4.199999999999999 5 0  -4.300000000000001 5 0  -4.4 5 0  -4.5 5 0  -4.6 5 0  -4.699999999999999 5 0  -4.800000000000001 5 0  -4.9 5 0  -5 4.9 0  -5 4.8 0  -5 4.7 0  -5 4.6 0  -5 4.5 0  -5 4.4 0  -5 4.3 0  -5 4.2 0  -5 4.1 0  -5 4 0  -5 3.9 0  -5 3.8 0  -5 3.7 0  -5 3.6 0  -5 3.5 0  -5 3.4 0  -5 3.3 0  -5 3.2 0  -5 3.1 0  -5 3 0  -5 2.9 0  -5 2.8 0  -5 2.7 0  -5 2.6 0  -5 2.5 0  -5 2.4 0  -5 2.3 0  -5 2.2 0  -5 2.1 0  -5 2 0  -5 1.9 0  -5 1.8 0  -5 1.7 0  -5 1.6 0  -5 1.5 0  -5 1.4 0  -5 1.3 0  -5 1.2 0  -5 1.1 0  -5 1 0  -5 0.9000000000000004 0  -5 0.7999999999999998 0  -5 0.7000000000000002 0  -5 0.5999999999999996 0  -5 0.5 0  -5 0.4000000000000004 0  -5 0.2999999999999998 0  -5 0.2000000000000002 0  -5 0.09999999999999964 0  -5 0 0  -5 -0.09999999999999964 0  -5 -0.2000000000000002 0  -5 -0.2999999999999998 0  -5 -0.4000000000000004 0  -5 -0.5 0  -5 -0.5999999999999996 0  -5 -0.7000000000000002 0  -5 -0.7999999999999998 0  -5 -0.9000000000000004 0  -5 -1 0  -5 -1.1 0  -5 -1.2 0  -5 -1.3 0  -5 -1.4 0  -5 -1.5 0  -5 -1.6 0  -5 -1.7 0  -5 -1.8 0  -5 -1.9 0  -5 -2 0  -5 -2.1 0  -5 -2.2 0  -5 -2.3 0  -5 -2.4 0  -5 -2.5 0  -5 -2.6 0  -5 -2.7 0  -5 -2.8 0  -5 -2.9 0  -5 -3 0  -5 -3.1 0  -5 -3.199999999999999 0  -5 -3.300000000000001 0  -5 -3.4 0  -5 -3.5 0  -5 -3.6 0  -5 -3.699999999999999 0  -5 -3.800000000000001 0  -5 -3.9 0  -5 -4 0  -5 -4.1 0  -5 -4.199999999999999 0  -5 -4.300000000000001 0  -5 -4.4 0  -5 -4.5 0  -5 -4.6 0  -5 -4.699999999999999 0  -5 -4.800000000000001 0  -5 -4.9 0  1.256782544437134 0.09296781130512248 0  1.234604998772265 0.1907826159530152 0  1.200781354049452 0.2875747523129175 0  1.158085074385599 0.3759830660035525 0  1.099380780898623 0.467143495335592 0  1.03271781008471 0.5505516858360524 0  0.9541199191757482 0.6310736319515929 0  0.8668173135187721 0.7059976441535883 0  0.7749860890410433 0.771194471672909 0  0.673140795665678 0.8286532519311041 0  0.5596540904941548 0.8808882491591994 0  0.4460363623405266 0.9259068595791177 0  0.3354428845624148 0.9574629606191095 0  0.2088087402001766 0.9800101755360161 0  0.0874967635213974 0.9984527067172547 0  -0.02626443847003547 1.002014231245615 0  -0.1439411000728129 0.9883741032824912 0  -0.2740712910664462 0.968440307654578 0  -0.3942886465909016 0.9442450763963819 0  -0.5036952342053383 0.9091638254699028 0  -0.6132371087209521 0.8627554096812534 0  -0.7151752376964625 0.8076061130967774 0  -0.8096024321469674 0.7431914857698053 0  -0.9012720182731805 0.6693908837748804 0  -0.9879588168444104 0.5890101259272773 0  -1.062971741589951 0.5072738241611934 0  -1.125193309095347 0.422985986690058 0  -1.180537097569949 0.3289951724084944 0  -1.217872061728885 0.2422945788020462 0  -1.242194940136044 0.1486289678079078 0  -1.252420724007705 0.05268362990259987 0  -1.252365472502156 -0.05037207605997146 0  -1.242071082510173 -0.1455868511785866 0  -1.217504820231284 -0.2362247066848944 0  -1.175195680140545 -0.3315769397380491 0  -1.125490607632167 -0.4240645296321288 0  -1.065136436601611 -0.5071029064914163 0  -0.9905299220780994 -0.5880312890083763 0  -0.904446713766402 -0.6673694102685088 0  -0.8137082441492695 -0.738679251886881 0  -0.718473512681525 -0.7992683151589334 0  -0.6138714729284688 -0.8526627004014541 0  -0.4978287710738348 -0.9024228523595291 0  -0.3854673495398712 -0.9423334488046269 0  -0.2707449430012773 -0.9683028371416608 0  -0.1421895501859365 -0.9884379286269489 0  -0.02748919153631071 -1.001252226554041 0  0.0858595810006727 -0.9938443968288657 0  0.2154549132204016 -0.9758153030086035 0  0.3384223836970406 -0.9556044147335374 0  0.450265948424337 -0.9245766032541732 0  0.5624358379832912 -0.8801073475864546 0  0.6744466785392252 -0.8284740360502713 0  0.774744196075095 -0.7724148690665367 0  0.8659469712902027 -0.7076921921126142 0  0.9517213765499976 -0.6318648432814239 0  1.030330348718764 -0.5491234735771916 0  1.101119137432828 -0.4653672386839909 0  1.158963006533843 -0.3762668432759694 0  1.202611382042058 -0.2856579588323129 0  1.235341560607059 -0.1901646975347447 0  1.257200013114868 -0.09310215665895633 0  -2.4485190645043 4.918038958372233 0  -2.448389132051687 -4.910410237615583 0  4.910331452870097 2.447834373030297 0  4.918466117422252 -2.44930164937994 0  2.446111470457298 -4.895627320519194 0  2.440546580637382 4.89939305597195 0  -4.910358789354179 -2.4478614690848 0  -4.910356100254242 2.447865643228111 0  -1.748471448282074 4.910892958467096 0  -1.744259569339603 -4.914338628721635 0  4.920484707184168 1.744014948429253 0  4.908997353027762 -1.747768397495453 0  -4.909292415953662 -1.747503299707642 0  -4.910116174751097 1.747249112180966 0  1.745740944062126 4.904740058317709 0  1.747148530279568 -4.892868539164578 0  -1.148791337136774 4.908649879643137 0  -1.129652325326301 -4.91657958455282 0  -4.908970452538238 -1.147842896577589 0  -4.908788350882769 1.147643676497782 0  1.14378882761277 -4.912756661460693 0  1.14880087603205 4.908635925520313 0  4.909109546763079 1.146117578353283 0  4.919968019156472 -1.151909864600332 0  -0.5466423706380629 -4.909824653209792 0  -0.5464281359741346 4.918528487007968 0  -4.907671196121813 -0.548661241137631 0  -4.907695181222012 0.547219629076392 0  4.90698719797633 -0.5489792005105686 0  4.918677672754331 0.5457423439340416 0  0.5424222846579605 -4.896672070560301 0  0.5511553525259862 4.915343720923646 0  -4.911816598834031 -3.048230055322425 0  4.918392967047865 3.04625028603006 0  4.911323836885043 -3.048204942075412 0  -4.912664990408075 3.045322339407157 0  3.055250010304025 -4.917314525246065 0  -3.048576863235038 -4.911245180774483 0  3.052145386678374 4.913324360322881 0  -3.048023079665071 4.912135796551776 0  -4.906767418294632 -0.04990291871174956 0  0.04511820301395122 -4.911773072987448 0  0.04956509428870028 4.918816705585254 0  4.913842385835523 -0.05128571745275044 0  3.545579268169755 -4.9189792670612 0  -3.548856281387153 4.911875
[...]
<PointData  Vectors="f_6406"> 
<DataArray  type="Float64"  Name="f_6406"  NumberOfComponents="3" format="ascii">2.6559658580600291e-76 2.6559658580600291e-76 0.0000000000000000e+00  -2.8445085011138827e-76 2.8445085011138827e-76 0.0000000000000000e+00  -8.5659604779174488e-78 -8.5659604779174488e-78 0.0000000000000000e+00  3.0308186857311735e-76 -3.0308186857311735e-76 0.0000000000000000e+00  7.8605545264129395e-01 8.1932959694123730e-03 0.0000000000000000e+00  4.1660484681863541e-75 6.6061260247990803e-75 0.0000000000000000e+00  2.0822668461199301e-75 2.0880074588274450e-74 0.0000000000000000e+00  -3.4062182572049485e-75 6.7718890575022310e-75 0.0000000000000000e+00  4.0007513306481120e-72 6.6675797515096377e-72 0.0000000000000000e+00  5.3178073350324834e-71 1.3457448094536124e-70 0.0000000000000000e+00  -7.9219865262079706e-72 4.5554134222567731e-71 0.0000000000000000e+00  3.2352723449440065e-69 6.1615850205372327e-69 0.0000000000000000e+00  5.1631904994103863e-68 9.3974489582924492e-68 0.0000000000000000e+00  -3.0661939450726851e-68 1.5001675036433297e-67 0.0000000000000000e+00  1.2773059318571706e-67 3.9813019846234412e-67 0.0000000000000000e+00  1.2623978254300930e-68 8.7791209461840593e-67 0.0000000000000000e+00  5.4546303861943788e-64 8.8209706156388092e-64 0.0000000000000000e+00  4.7429191333125128e-65 2.4418706148419523e-63 0.0000000000000000e+00  1.3500319940193910e-62 2.1984271135484216e-62 0.0000000000000000e+00  8.0702735901091643e-63 8.3178245346574992e-62 0.0000000000000000e+00  6.9363993692979210e-61 1.1019705640267255e-60 0.0000000000000000e+00  4.0654843780765721e-60 7.0047182513966203e-60 0.0000000000000000e+00  -2.8493559452366810e-60 7.7004529322331988e-60 0.0000000000000000e+00  5.6669446026277363e-59 1.1365148176020471e-58 0.0000000000000000e+00  -1.7604246709738607e-59 1.1647331118543935e-58 0.0000000000000000e+00  -3.0061420172364761e-59 6.8400483636324602e-59 0.0000000000000000e+00  1.8039566431769867e-58 3.3032831685210736e-58 0.0000000000000000e+00  7.3055434491373892e-58 2.0890445701142843e-57 0.0000000000000000e+00  2.8634341981205407e-57 6.2313518231889104e-57 0.0000000000000000e+00  -3.4108294971675097e-57 5.7399321127692378e-57 0.0000000000000000e+00  -3.5262341098610953e-58 1.0979886847832629e-57 0.0000000000000000e+00  1.9106772904749297e-56 2.9309142609660395e-56 0.0000000000000000e+00  -1.4151969423623975e-56 3.5316679496226525e-56 0.0000000000000000e+00  1.1927244761701740e-56 2.8927619924026105e-56 0.0000000000000000e+00  8.7480173923679010e-56 2.0970634800694905e-55 0.0000000000000000e+00  -2.5154294137076903e-56 5.7435180650097754e-55 0.0000000000000000e+00  5.2170184342772299e-57 8.6095508500590273e-57 0.0000000000000000e+00  5.5518323697646858e-56 1.3813753974365883e-55 0.0000000000000000e+00  1.5509455485643493e-55 6.1686132227212111e-55 0.0000000000000000e+00  -2.2394695287055931e-55 3.5175388592828599e-55 0.0000000000000000e+00  9.8503082721454717e-55 1.7223812093118526e-54 0.0000000000000000e+00  -4.4278865794260375e-55 4.3616300074834013e-54 0.0000000000000000e+00  -2.2865604512584297e-55 2.6820867201927046e-54 0.0000000000000000e+00  -9.6340781428626335e-56 9.4400221257230322e-55 0.0000000000000000e+00  -1.1329200512809308e-55 1.8226313694671768e-55 0.0000000000000000e+00  2.7644001309512468e-54 5.2321166521981951e-54 0.0000000000000000e+00  -2.1634969145445624e-54 4.1398699026614759e-54 0.0000000000000000e+00  -7.2043613372976621e-55 8.0833569987853058e-55 0.0000000000000000e+00  -1.3227770733867728e-55 2.7135192940218380e-55 0.0000000000000000e+00  9.3193937610638878e-55 1.4448621782352678e-54 0.0000000000000000e+00  9.4713569055317479e-55 6.1540862015587442e-54 0.0000000000000000e+00  -1.1305748421181650e-54 5.8988667357330831e-54 0.0000000000000000e+00  5.1561149654911705e-55 4.6478694389791848e-54 0.0000000000000000e+00  1.9108429825081776e-56 5.7928005481602366e-54 0.0000000000000000e+00  3.0229860820687044e-55 6.1509544286885049e-54 0.0000000000000000e+00  -1.2639290330701163e-54 2.0440763352137936e-54 0.0000000000000000e+00  -6.4664086962708556e-55 1.4722574171541199e-53 0.0000000000000000e+00  4.4718787357440532e-54 7.4698482949503077e-54 0.0000000000000000e+00  -4.3551651126666984e-54 8.0948453328835282e-54 0.0000000000000000e+00  1.9253933089296458e-54 3.9574067489579945e-54 0.0000000000000000e+00  -7.3739752011870362e-55 9.4982197850856994e-54 0.0000000000000000e+00  1.3336858396582372e-54 9.3291051213394418e-54 0.0000000000000000e+00  -1.6879558369184693e-54 4.3956417346261170e-54 0.0000000000000000e+00  -9.2668583873492469e-55 2.4042142911924464e-54 0.0000000000000000e+00  3.3377052691058745e-55 1.2997778697913687e-54 0.0000000000000000e+00  2.6622865147604568e-55 2.5377235507923631e-54 0.0000000000000000e+00  -7.8377347079262786e-56 3.4897139466585558e-54 0.0000000000000000e+00  -7.1250892629999666e-55 1.4809618536481490e-54 0.0000000000000000e+00  2.3820039279302281e-55 4.4278937403238598e-55 0.0000000000000000e+00  -2.3134871902151703e-55 6.0214157496875598e-55 0.0000000000000000e+00  5.0423648710386754e-56 2.3984435164318037e-55 0.0000000000000000e+00  1.8696698368240563e-55 9.5257502071319091e-55 0.0000000000000000e+00  -3.3087370402484142e-55 5.2985680991733942e-55 0.0000000000000000e+00  -1.5931396147875329e-56 4.8203707185954814e-56 0.0000000000000000e+00  -1.1363167886453187e-57 1.1331639151084462e-56 0.0000000000000000e+00  6.7636559122565575e-57 2.3558527054576130e-56 0.0000000000000000e+00  -9.0044138264088065e-57 1.5009711523927644e-56 0.0000000000000000e+00  1.7440512935118842e-57 2.8891286833461877e-57 0.0000000000000000e+00  -1.2457093106126419e-57 2.7227999483461400e-57 0.0000000000000000e+00  5.1821160613785009e-57 7.8153157189935918e-57 0.0000000000000000e+00  -4.5374118737855891e-57 1.1245161013321315e-56 0.0000000000000000e+00  -1.8154382179319512e-58 9.3927534696043083e-58 0.0000000000000000e+00  -2.3941261914454752e-58 4.6495113636708758e-58 0.0000000000000000e+00  -7.8837368047786281e-61 8.8102413220900857e-59 0.0000000000000000e+00  -2.4475108881578610e-59 6.4199063478198639e-59 0.0000000000000000e+00  -7.1197723707495627e-60 2.4989270607971831e-59 0.0000000000000000e+00  -4.3866516270105482e-60 2.2382021244264137e-59 0.0000000000000000e+00  -3.0640391923280779e-60 7.1649389787809154e-60 0.0000000000000000e+00  -8.5266251303149869e-62 4.4343426225478264e-61 0.0000000000000000e+00  -1.0761921507605092e-61 2.2330697708734383e-61 0.0000000000000000e+00  -3.5881144769591718e-62 5.6714238142828339e-62 0.0000000000000000e+00  -3.9107695794519621e-64 6.6948217006313163e-64 0.0000000000000000e+00  -2.4316281469335418e-65 5.1691511912351954e-65 0.0000000000000000e+00  3.7089162668018781e-66 1.0389217765325073e-65 0.0000000000000000e+00  -4.8429253428309033e-66 9.2590881809240713e-66 0.0000000000000000e+00  -6.7005335951760584e-68 2.7707536875650503e-67 0.0000000000000000e+00  -7.8542536064922089e-68 1.2914384750234125e-67 0.0000000000000000e+00  -8.0616957390612167e-69 1.1729202115324827e-68 0.0000000000000000e+00  -5.6338361172925850e-70 9.5185992482345548e-70 0.0000000000000000e+00  -3.7797366349541352e-71 6.8177189453162567e-71 0.0000000000000000e+00  -1.8785544875866173e-72 3.2023531730974851e-72 0.0000000000000000e+00  -1.2177941642562207e-73 2.7266059469123682e-73 0.0000000000000000e+00  -4.4212978455507677e-75 1.2911168483529975e-74 0.0000000000000000e+00  -2.5481645236131983e-75 4.2411037630317933e-75 0.0000000000000000e+00  -9.7687273549268340e-76 3.5584722201010556e-76 0.0000000000000000e+00  -1.6211628005300600e-75 -2.3927734584603493e-76 0.0000000000000000e+00  -2.4487677636644436e-74 1.1592201182773990e-74 0.0000000000000000e+00  -3.6791072167790683e-74 1.5506406863201361e-75 0.0000000000000000e+00  -3.8827600169879007e-73 1.4337496975693555e-73 0.0000000000000000e+00  -1.0235623472244529e-71 6.2401933981410022e-72 0.0000000000000000e+00  -6.7393591430251118e-71 3.7097400635344142e-71 0.0000000000000000e+00  -1.0610213763803221e-70 3.9049292439321861e-72 0.0000000000000000e+00  -8.8989398513943238e-70 3.3105649915701335e-70 0.0000000000000000e+00  -2.1278794021750637e-68 1.2872685493680633e-68 0.0000000000000000e+00  -1.0234066366809502e-67 5.1139460209836265e-68 0.0000000000000000e+00  -1.0140033627452034e-67 -6.0312182469676400e-68 0.0000000000000000e+00  -3.1644565558555124e-66 1.7475979912386725e-66 0.0000000000000000e+00  -3.1837092571259572e-65 1.8335427172941937e-65 0.0000000000000000e+00  -5.3854623298187614e-65 5.0514034622084135e-66 0.0000000000000000e+00  -4.4353427319793418e-64 1.4480382259334947e-64 0.0000000000000000e+00  -6.9888779218866246e-63 4.3643417248340323e-63 0.0000000000000000e+00  -1.5060663300114280e-62 3.7534719901221214e-63 0.0000000000000000e+00  -8.4314233421434006e-62 1.9689635396336788e-62 0.0000000000000000e+00  -1.3539931432775215e-60 8.5305457282032494e-61 0.0000000000000000e+00  -2.4165170003800345e-60 3.3872899500211110e-61 0.0000000000000000e+00  -2.1161266787379293e-59 7.4091248040599016e-60 0.0000000000000000e+00  -2.4152660240370604e-58 1.4970445719081969e-58 0.0000000000000000e+00  -2.5887473611536442e-58 -9.4347874587092410e-59 0.0000000000000000e+00  -5.9747092837666712e-57 2.7865535190408723e-57 0.0000000000000000e+00  -2.4820002584329467e-56 1.2414229710381841e-56 0.0000000000000000e+00  -5.5644831676849346e-56 -8.7037258133872125e-57 0.0000000000000000e+00  -1.0105058164709113e-54 6.4921595987015985e-55 0.0000000000000000e+00  -1.1210111754150820e-54 -3.4708053154883239e-55 0.0000000000000000e+00  -2.4064900977389853e-53 1.2717852862354767e-53 0.0000000000000000e+00  -6.5898292170152565e-53 2.9949992662707493e-53 0.0000000000000000e+00  -4.3551728552395395e-52 1.2266918470074018e-52 0.0000000000000000e+00  -2.6641016039787771e-51 1.6663344871693090e-51 0.0000000000000000e+00  -7.6659770695999844e-51 -2.1496013761900112e-52 0.0000000000000000e+00  -7.1925048304328761e-50 4.6061359055778336e-50 0.0000000000000000e+00  -1.6173054598544207e-49 -1.4812727879359882e-50 0.0000000000000000e+00  -1.7287328286750272e-48 1.0120897341141699e-48 0.0000000000000000e+00  -4.3412231175934057e-48 -2.0452913071283370e-49 0.0000000000000000e+00  -2.0130314082828486e-47 1.1119783440651699e-47 0.0000000000000000e+00  -1.1026192229538954e-46 1.8992714557958126e-47 0.0000000000000000e+00  -1.0246334431932470e-46 2.4649788454930867e-47 0.0000000000000000e+00  -1.2404662406536285e-45 5.2631770220625131e-46 0.0000000000000000e+00  -8.7391662887587553e-46 -5.6899430256657270e-46 0.0000000000000000e+00  -1.3428343129393244e-44 8.0861382677642878e-45 0.0000000000000000e+00  -5.7955318513449152e-44 1.3763615231900088e-44 0.0000000000000000e+00  -3.6155210950902921e-44 -1.7547505138292198e-44 0.0000000000000000e+00  -1.1424913909592134e-43 6.5130480965879667e-44 0.0000000000000000e+00  -8.4129153208416045e-43 2.3204536495145674e-43 0.0000000000000000e+00  -1.9291025516705823e-42 1.9791931063773792e-43 0.0000000000000000e+00  -2.5116902816541395e-42 6.1161987231471777e-44 0.0000000000000000e+00  -2.0144768099968099e-42 -1.9516195247504255e-43 0.0000000000000000e+00  -8.6135835741989887e-43 -2.5104294909944080e-43 0.0000000000000000e+00  -1.1324545869821288e-43 -6.4591502735169957e-44 0.0000000000000000e+00  -3.8715065680991902e-44 1.8538381251093745e-44 0.0000000000000000e+00  -6.3164336552524497e-44 -1.0841888020658591e-44 0.0000000000000000e+00  -1.4988022015587506e-44 -7.8816930720198645e-45 0.0000000000000000e+00  -9.9894596261792574e-46 5.6825313056915417e-46 0.0000000000000000e+00  -1.4038321595602532e-45 -5.3955384003689538e-46 0.0000000000000000e+00  -1.1207687482318078e-46 -2.8602243625816566e-47 0.0000000000000000e+00  -1.0180748406597648e-46 -2.1454177657097479e-47 0.0000000000000000e+00  -1.8606598438911160e-47 -1.1990966736607078e-47 0.0000000000000000e+00  -4.0856418289945344e-48 2.0366542171872966e-49 0.0000000000000000e+00  -1.4865205814775496e-48 -9.3714282762566443e-49 0.0000000000000000e+00  -1.6332479625242911e-49 2.4586984211564489e-50 0.0000000000000000e+00  -7.4564617315640177e-50 -4.4251651210524084e-50 0.0000000000000000e+00  -8.2464019376176243e-51 6.4155203334114833e-52 0.0000000000000000e+00  -3.1449205315378059e-51 -1.7850472577173626e-51 0.0000000000000000e+00  -5.1025206047964382e-52 -1.1473397089879169e-52 0.0000000000000000e+00  -8.2048698850525463e-53 -3.5494132625863270e-53 0.0000000000000000e+00  -2.6614586522819234e-53 -1.3164447842094786e-53 0.0000000000000000e+00  -1.1972996305118650e-54 3.2412710735571850e-55 0.0000000000000000e+00  -1.0634758062537720e-54 -6.8084484168233321e-55 0.0000000000000000e+00  -5.1526873879405948e-56 8.3555449966776212e-57 0.0000000000000000e+00  -2.3361400822188606e-56 -1.3243959342217693e-56 0.0000000000000000e+00  -4.8230387814594213e-57 -2.5222257531425391e-57 0.0000000000000000e+00  -2.4589759851526182e-58 8.5492486797575757e-59 0.0000000000000000e+00  -2.1578679140610600e-58 -1.3289516390430359e-58 0.0000000000000000e+00  -1.9908804429955389e-59 -6.1476389902015492e-60 0.0000000000000000e+00  -2.3748158479974664e-60 -3.3968013057658973e-61 0.0000000000000000e+00  -1.2906332378482451e-60 -7.6102243119586475e-61 0.0000000000000000e+00  -7.6902093617018117e-62 -2.1441437994772678e-62 0.0000000000000000e+00  -1.3592998556150924e-62 -2.9309852485923778e-63 0.0000000000000000e+00  -6.6382139661207798e-63 -3.7890648890517688e-63 0.0000000000000000e+00  -4.7826398616237646e-64 -1.8199022848535600e-64 0.0000000000000000e+00  -4.3638826819520247e-65 9.5822671906210283e-67 0.0000000000000000e+00  -2.9477778369604520e-65 -1.6623502930604968e-65 0.0000000000000000e+00  -3.4128152212328186e-66 -1.9890037862838785e-66 0.0000000000000000e+00  -8.9965865086476808e-68 5.4815638240913987e-68 0.0000000000000000e+00  -8.6358131261739602e-68 -4.1780980596003038e-68 0.0000000000000000e+00  -2.0679772349675604e-68 -1.2851341842826409e-68 0.0000000000000000e+00  -1.1325705755264217e-69 -5.1341114293022949e-70 0.0000000000000000e+00  -8.7946059973270373e-71 1.3790779836157240e-71 0.0000000000000000e+00  -6.9077573420875732e-71 -3.6575137605030570e-71 0.0000000000000000e+00  -1.2478318363833754e-71 -7.6628606395588453e-72 0.0000000000000000e+00  -5.9817402411547706e-73 -2.7512445834965609e-73 0.0000000000000000e+00  -3.9238060050705386e-74 7.4239560974243874e-75 0.0000000000000000e+00  -3.1564703321726232e-74 -1.4790814522223149e-74 0.0000000000000000e+00  -6.5905254348433221e-75 -3.3571775000151140e-75 0.0000000000000000e+00  -7.1798696168602847e-76 -3.1071809496039774e-76 0.0000000000000000e+00  -8.5520606126573730e-76 -1.6228346054375089e-75 0.0000000000000000e+00  -4.7736371066053763e-75 -1.3945841672961643e-74 0.0000000000000000e+00  4.3673594797851656e-75 -8.3091019744224895e-75 0.0000000000000000e+00  -1.6295487015226437e-73 -3.4271070321625079e-73 0.0000000000000000e+00  -9.2865549288686753e-71 -1.0068595997577358e-70 0.0000000000000000e+00  -7.5076924450646300e-70 -1.3176193046558338e-69 0.0000000000000000e+00  -1.0986573350240365e-69 -3.6510694530767755e-69 0.0000000000000000e+00  -7.7627708362993754e-68 -1.7112750863134877e-67 0.0000000000000000e+00  -6.5327616073722608e-68 -3.2598136430403098e-67 0.0000000000000000e+00  -6.7917143460662607e-66 -1.3499137717737962e-65 0.0000000000000000e+00  -4.5213541275519309e-66 -2.1315125159388637e-65 0.0000000000000000e+00  -9.0729028746995429e-65 -1.5572984696621369e-64 0.0000000000000000e+00  1.7227055619481902e-65 -2.1036202642522061e-64 0.0000000000000000e+00  -4.2776072127987684e-62 -6.4009923900686103e-62 0.0000000000000000e+00  -7.0022203047934192e-62 -1.7204385331045156e-61 0.0000000000000000e+00  -2.3273309726461422e-62 -2.7285382764406995e-61 0.0000000000000000e+00  -5.7437157137472130e-60 -1.1360108978354104e-59 0.0000000000000000e+00  4.7715134546235222e-60 -1.5022754322346100e-59 0.0000000000000000e+00  -2.9031120863451646e-59 -4.7474708108375207e-59 0.0000000000000000e+00  8.8288503647819227e-60 -6.0865946077651819e-59 0.0000000000000000e+00  2.3277006478563842e-59 -3.9732441970826259e-59 0.0000000000000000e+00  -5.6434863532066632e-58 -8.9442564453938122e-58 0.0000000000000000e+00  -1.3817568670608774e-59 -1.2602302164459646e-57 0.0000000000000000e+00  -4.6389458280033281e-57 -1.1634867558788265e-56 0.0000000000000000e+00  5.7568598856158772e-57 -8.6779279357670477e-57 0.0000000000000000e+00  -5.3409465006107121e-57 -7.3346653764637025e-57 0.0000000000000000e+00  -1.7696515017128728e-56 -3.7722572346724926e-56 0.0000000000000000e+00  2.1651939800502632e-56 -4.0726057830862442e-56 0.0000000000000000e+00  -5.0105316185791289e-57 -9.1974047809625691e-57 0.0000000000000000e+00  -8.1316730740679837e-56 -2.0304895489164147e-55 0.0000000000000000e+00  6.3868986247997753e-56 -5.0773470013352420e-55 0.0000000000000000e+00  -4.2977937810275946e-55 -7.2551890626044083e-55 0.0000000000000000e+00  -4.8855476063299115e-56 -1.8357014619644689e-54 0.0000000000000000e+00  1.6637671773240565e-55 -5.7407501762940334e-55 0.0000000000000000e+00  -5.1930875366830647e-55 -1.6756510988909448e-54 0.0000000000000000e+00  -2.2586099928131028e-54 -7.0704823575393689e-54 0.0000000000000000e+00  2.5884491995042041e-54 -6.0779335787715728e-54 0.0000000000000000e+00  -6.7360130450725090e-55 -2.3893708755139747e-54 0.0000000000000000e+00  5.3389171950569017e-55 -2.8192816761483720e-54 0.0000000000000000e+00  1.2858716561513534e-55 -1.4248235396349065e-54 0.0000000000000000e+00  -2.1859432378234722e-54 -3.4658696603438229e-54 0.0000000000000000e+00  5.7291024819101834e-55 -8.2270555978852109e-54 0.0000000000000000e+00  -3.9410035176974974e-54 -1.3556451953300851e-53 0.0000000000000000e+00  4.7053310304579895e-54 -7.7156995869259179e-54 0.0000000000000000e+00  2.0374436215787726e-55 -6.5063529726733205e-55 0.0000000000000000e+00  -4.8148403211797737e-54 -8.0080379317837827e-54 0.0000000000000000e+00  4.8409112280372338e-54 -7.8701623641907663e-54 0.0000000000000000e+00  -1.6667447585502823e-56 -1.3349749355979291e-55 0.0000000000000000e+00  1.1186632879177072e-56 -2.7679961497905490e-55 0.0000000000000000e+00  2.2133844909189534e-56 -9.8796602677061132e-56 0.0000000000000000e+00  -5.2198970840778567e-54 -9.3538356845974896e-54 0.0000000000000000e+00  5.5674083386376160e-54 -9.4072783044391916e-54 0.0000000000000000e+00  5.6919289084343960e-56 -1.0517954932924513e-55 0.0000000000000000e+00  -1.4372780678869583e-56 -6.2048872620210756e-56 0.0000000000000000e+00  -5.0142018306497856e-55 -9.0474394179610440e-55 0.0000000000000000e+00  -5.8319622576427033e-54 -1.0047211531843181e-53 0.0000000000000000e+00  4.5168993743104790e-54 -1.0490515783156599e-53 0.0000000000000000e+00  -3.0613621248618368e-54 -7.9863106849966497e-54 0.0000000000000000e+00  2.4458883990128320e-54 -8.5490221068312482e-54 0.0000000000000000e+00  2.2527639517907664e-54 -3.3053518250423683e-54 0.0000000000000000e+00  -5.4521651865882301e-55 -1.4800663549251109e-54 0.0000000000000000e+00  8.3792865460410865e-55 -1.5734683211015862e-54 0.0000000000000000e+00  -4.9368254715369613e-55 -9.8346009188000185e-55 0.0000000000000000e+00  5.1381038138861089e-55 -8.8524719299944447e-55 0.0000000000000000e+00  -1.5705806141319760e-56 -2.6928423470499313e-56 0.0000000000000000e+00  -4.4881905323179870e-56 -1.7220477890153178e-55 0.0000000000000000e+00  4.1817296927209337e-56 -1.7465473261904876e-55 0.0000000000000000e+00  4.8110667364578359e-57 -6.9027263475956592e-56 0.0000000000000000e+00  -2.7545468261371371e-56 -6.5442995458540811e-56 0.0000000000000000e+00  3.2946107737117694e-56 -6.4117259799995566e-56 0.0000000000000000e+00  -2.8642342484968835e-57 -2.8735254298327471e-56 0.0000000000000000e+00  1.2982961651115851e-56 -3.0012382912565648e-56 0.0000000000000000e+00  1.0040933159969050e-57 -2.3984483356697306e-57 0.0000000000000000e+00  -4.3898876750068201e-57 -7.6418555840416878e-57 0.0000000000000000e+00  4.2560721861089796e-57 -1.1004279938410294e-56 0.0000000000000000e+00  3.1290629455520744e-58 -1.0211042799961532e-57 0.0000000000000000e+00  1.4399023415664968e-58 -5.025268