<?xml version="1.0"?>
<VTKFile type="UnstructuredGrid"  version="0.1"  >
<UnstructuredGrid>
<Piece  NumberOfPoints="11902" NumberOfCells="23402">
<Points>
<DataArray  type="Float64"  NumberOfComponents="3"  format="ascii">-5 -5 0  5 -5 0  5 5 0  -5 5 0  1.239801104054961 0.001381117188121178 0  -4.9 -5 0  -4.8 -5 0  -4.7 -5 0  -4.6 -5 0  -4.5 -5 0  -4.4 -5 0  -4.3 -5 0  -4.2 -5 0  -4.1 -5 0  -4 -5 0  -3.9 -5 0  -3.8 -5 0  -3.7 -5 0  -3.6 -5 0  -3.5 -5 0  -3.4 -5 0  -3.3 -5 0  -3.2 -5 0  -3.1 -5 0  -3 -5 0  -2.9 -5 0  -2.8 -5 0  -2.7 -5 0  -2.6 -5 0  -2.5 -5 0  -2.4 -5 0  -2.3 -5 0  -2.2 -5 0  -2.1 -5 0  -2 -5 0  -1.9 -5 0  -1.8 -5 0  -1.7 -5 0  -1.6 -5 0  -1.5 -5 0  -1.4 -5 0  -1.3 -5 0  -1.2 -5 0  -1.1 -5 0  -1 -5 0  -0.9000000000000004 -5 0  -0.7999999999999998 -5 0  -0.7000000000000002 -5 0  -0.5999999999999996 -5 0  -0.5 -5 0  -0.4000000000000004 -5 0  -0.2999999999999998 -5 0  -0.2000000000000002 -5 0  -0.09999999999999964 -5 0  0 -5 0  0.09999999999999964 -5 0  0.2000000000000002 -5 0  0.2999999999999998 -5 0  0.4000000000000004 -5 0  0.5 -5 0  0.5999999999999996 -5 0  0.7000000000000002 -5 0  0.7999999999999998 -5 0  0.9000000000000004 -5 0  1 -5 0  1.1 -5 0  1.2 -5 0  1.3 -5 0  1.4 -5 0  1.5 -5 0  1.6 -5 0  1.7 -5 0  1.8 -5 0  1.9 -5 0  2 -5 0  2.1 -5 0  2.2 -5 0  2.3 -5 0  2.4 -5 0  2.5 -5 0  2.6 -5 0  2.7 -5 0  2.8 -5 0  2.9 -5 0  3 -5 0  3.1 -5 0  3.199999999999999 -5 0  3.300000000000001 -5 0  3.4 -5 0  3.5 -5 0  3.6 -5 0  3.699999999999999 -5 0  3.800000000000001 -5 0  3.9 -5 0  4 -5 0  4.1 -5 0  4.199999999999999 -5 0  4.300000000000001 -5 0  4.4 -5 0  4.5 -5 0  4.6 -5 0  4.699999999999999 -5 0  4.800000000000001 -5 0  4.9 -5 0  5 -4.9 0  5 -4.8 0  5 -4.7 0  5 -4.6 0  5 -4.5 0  5 -4.4 0  5 -4.3 0  5 -4.2 0  5 -4.1 0  5 -4 0  5 -3.9 0  5 -3.8 0  5 -3.7 0  5 -3.6 0  5 -3.5 0  5 -3.4 0  5 -3.3 0  5 -3.2 0  5 -3.1 0  5 -3 0  5 -2.9 0  5 -2.8 0  5 -2.7 0  5 -2.6 0  5 -2.5 0  5 -2.4 0  5 -2.3 0  5 -2.2 0  5 -2.1 0  5 -2 0  5 -1.9 0  5 -1.8 0  5 -1.7 0  5 -1.6 0  5 -1.5 0  5 -1.4 0  5 -1.3 0  5 -1.2 0  5 -1.1 0  5 -1 0  5 -0.9000000000000004 0  5 -0.7999999999999998 0  5 -0.7000000000000002 0  5 -0.5999999999999996 0  5 -0.5 0  5 -0.4000000000000004 0  5 -0.2999999999999998 0  5 -0.2000000000000002 0  5 -0.09999999999999964 0  5 0 0  5 0.09999999999999964 0  5 0.2000000000000002 0  5 0.2999999999999998 0  5 0.4000000000000004 0  5 0.5 0  5 0.5999999999999996 0  5 0.7000000000000002 0  5 0.7999999999999998 0  5 0.9000000000000004 0  5 1 0  5 1.1 0  5 1.2 0  5 1.3 0  5 1.4 0  5 1.5 0  5 1.6 0  5 1.7 0  5 1.8 0  5 1.9 0  5 2 0  5 2.1 0  5 2.2 0  5 2.3 0  5 2.4 0  5 2.5 0  5 2.6 0  5 2.7 0  5 2.8 0  5 2.9 0  5 3 0  5 3.1 0  5 3.199999999999999 0  5 3.300000000000001 0  5 3.4 0  5 3.5 0  5 3.6 0  5 3.699999999999999 0  5 3.800000000000001 0  5 3.9 0  5 4 0  5 4.1 0  5 4.199999999999999 0  5 4.300000000000001 0  5 4.4 0  5 4.5 0  5 4.6 0  5 4.699999999999999 0  5 4.800000000000001 0  5 4.9 0  4.9 5 0  4.8 5 0  4.7 5 0  4.6 5 0  4.5 5 0  4.4 5 0  4.3 5 0  4.2 5 0  4.1 5 0  4 5 0  3.9 5 0  3.8 5 0  3.7 5 0  3.6 5 0  3.5 5 0  3.4 5 0  3.3 5 0  3.2 5 0  3.1 5 0  3 5 0  2.9 5 0  2.8 5 0  2.7 5 0  2.6 5 0  2.5 5 0  2.4 5 0  2.3 5 0  2.2 5 0  2.1 5 0  2 5 0  1.9 5 0  1.8 5 0  1.7 5 0  1.6 5 0  1.5 5 0  1.4 5 0  1.3 5 0  1.2 5 0  1.1 5 0  1 5 0  0.9000000000000004 5 0  0.7999999999999998 5 0  0.7000000000000002 5 0  0.5999999999999996 5 0  0.5 5 0  0.4000000000000004 5 0  0.2999999999999998 5 0  0.2000000000000002 5 0  0.09999999999999964 5 0  0 5 0  -0.09999999999999964 5 0  -0.2000000000000002 5 0  -0.2999999999999998 5 0  -0.4000000000000004 5 0  -0.5 5 0  -0.5999999999999996 5 0  -0.7000000000000002 5 0  -0.7999999999999998 5 0  -0.9000000000000004 5 0  -1 5 0  -1.1 5 0  -1.2 5 0  -1.3 5 0  -1.4 5 0  -1.5 5 0  -1.6 5 0  -1.7 5 0  -1.8 5 0  -1.9 5 0  -2 5 0  -2.1 5 0  -2.2 5 0  -2.3 5 0  -2.4 5 0  -2.5 5 0  -2.6 5 0  -2.7 5 0  -2.8 5 0  -2.9 5 0  -3 5 0  -3.1 5 0  -3.199999999999999 5 0  -3.300000000000001 5 0  -3.4 5 0  -3.5 5 0  -3.6 5 0  -3.699999999999999 5 0  -3.800000000000001 5 0  -3.9 5 0  -4 5 0  -4.1 5 0  -4.199999999999999 5 0  -4.300000000000001 5 0  -4.4 5 0  -4.5 5 0  -4.6 5 0  -4.699999999999999 5 0  -4.800000000000001 5 0  -4.9 5 0  -5 4.9 0  -5 4.8 0  -5 4.7 0  -5 4.6 0  -5 4.5 0  -5 4.4 0  -5 4.3 0  -5 4.2 0  -5 4.1 0  -5 4 0  -5 3.9 0  -5 3.8 0  -5 3.7 0  -5 3.6 0  -5 3.5 0  -5 3.4 0  -5 3.3 0  -5 3.2 0  -5 3.1 0  -5 3 0  -5 2.9 0  -5 2.8 0  -5 2.7 0  -5 2.6 0  -5 2.5 0  -5 2.4 0  -5 2.3 0  -5 2.2 0  -5 2.1 0  -5 2 0  -5 1.9 0  -5 1.8 0  -5 1.7 0  -5 1.6 0  -5 1.5 0  -5 1.4 0  -5 1.3 0  -5 1.2 0  -5 1.1 0  -5 1 0  -5 0.9000000000000004 0  -5 0.7999999999999998 0  -5 0.7000000000000002 0  -5 0.5999999999999996 0  -5 0.5 0  -5 0.4000000000000004 0  -5 0.2999999999999998 0  -5 0.2000000000000002 0  -5 0.09999999999999964 0  -5 0 0  -5 -0.09999999999999964 0  -5 -0.2000000000000002 0  -5 -0.2999999999999998 0  -5 -0.4000000000000004 0  -5 -0.5 0  -5 -0.5999999999999996 0  -5 -0.7000000000000002 0  -5 -0.7999999999999998 0  -5 -0.9000000000000004 0  -5 -1 0  -5 -1.1 0  -5 -1.2 0  -5 -1.3 0  -5 -1.4 0  -5 -1.5 0  -5 -1.6 0  -5 -1.7 0  -5 -1.8 0  -5 -1.9 0  -5 -2 0  -5 -2.1 0  -5 -2.2 0  -5 -2.3 0  -5 -2.4 0  -5 -2.5 0  -5 -2.6 0  -5 -2.7 0  -5 -2.8 0  -5 -2.9 0  -5 -3 0  -5 -3.1 0  -5 -3.199999999999999 0  -5 -3.300000000000001 0  -5 -3.4 0  -5 -3.5 0  -5 -3.6 0  -5 -3.699999999999999 0  -5 -3.800000000000001 0  -5 -3.9 0  -5 -4 0  -5 -4.1 0  -5 -4.199999999999999 0  -5 -4.300000000000001 0  -5 -4.4 0  -5 -4.5 0  -5 -4.6 0  -5 -4.699999999999999 0  -5 -4.800000000000001 0  -5 -4.9 0  1.232795253020232 0.0969400045319279 0  1.212437928065716 0.1942216873212257 0  1.17951512948413 0.2908923964179106 0  1.137194486293672 0.3807898328631193 0  1.081272113652109 0.4712997574964168 0  1.016706652501567 0.5560900630140014 0  0.9402679289851126 0.6358408799762035 0  0.8550425954606532 0.7094701577970545 0  0.7636705755712696 0.7748295049045056 0  0.6624003529542736 0.8326079558993298 0  0.553379352553707 0.8846586292581801 0  0.4420316560183987 0.9276686924930513 0  0.3291832828451564 0.9604840375251106 0  0.2075993619035347 0.9822729211442979 0  0.08942424103218581 0.9997333184638577 0  -0.02760221531059486 1.002742936078409 0  -0.1452652447548665 0.9904279743720132 0  -0.2688116062307704 0.9721536215512092 0  -0.3865777444445123 0.9471001626117614 0  -0.4973811354226485 0.9107534071352752 0  -0.6051387821213874 0.8645275123454556 0  -0.7069623187324987 0.8100622506572911 0  -0.8011089049985153 0.7459138918038006 0  -0.8904024296671064 0.6737611984549919 0  -0.9734560713515318 0.5948713225962239 0  -1.045414911697917 0.51342166162166 0  -1.106509773326752 0.4272385897224256 0  -1.157052858638853 0.3356637520341643 0  -1.194459540918086 0.2437480690137329 0  -1.218936912326197 0.1488267022225349 0  -1.230983157720385 0.05079141997995486 0  -1.230940433284226 -0.04870057987146666 0  -1.218815462701286 -0.146167917382676 0  -1.194418392551712 -0.2406358950170477 0  -1.155311111833386 -0.3357148854268558 0  -1.106734478532142 -0.4267308230050647 0  -1.04672918109364 -0.5129538842064926 0  -0.9755580920987617 -0.5937579533120146 0  -0.8930990795049303 -0.6713742473101911 0  -0.8039632988560836 -0.7420746646283687 0  -0.7082037986053972 -0.8030501906111264 0  -0.6048434358541508 -0.8566337622089357 0  -0.4936061257829865 -0.9052693860316433 0  -0.3812925276746458 -0.9441569693869817 0  -0.2655000123710722 -0.9714336371623502 0  -0.1439178463105734 -0.9898948852673347 0  -0.0279184208886858 -1.001860815989247 0  0.08966575755575959 -0.995591615763004 0  0.2119145683242446 -0.979425875219014 0  0.3314285702918387 -0.958879225934662 0  0.4460380089902387 -0.9263096331604795 0  0.5555418688346931 -0.8837537138207529 0  0.66325776467521 -0.8325577736523004 0  0.7637259526513051 -0.7759965014647189 0  0.8551132961291317 -0.7103932271862938 0  0.9396688812595203 -0.6356234350928177 0  1.014493252714961 -0.555399323476529 0  1.081299347612068 -0.4704325961482669 0  1.138136087060739 -0.3808798743568296 0  1.181173017702398 -0.288979829462731 0  1.212941001393079 -0.1933294269740741 0  1.23295612455657 -0.09654224621773867 0  -2.448624852797319 4.918229896589978 0  -2.448504753065141 -4.910618804240131 0  4.910545905576148 2.44798224008104 0  4.918660740341013 -2.449435814544878 0  2.446245742853145 -4.89587197812769 0  2.440676639427009 4.899629904208831 0  -4.910572032434129 -2.448007733364827 0  -4.910569525257293 2.448011607966659 0  -1.74858141072915 4.911169734024691 0  -1.744365291342849 -4.914604715758054 0  4.920755400074422 1.744148802834528 0  4.909306464699119 -1.74792138547606 0  -4.909598870579911 -1.74765441014219 0  -4.910420063594723 1.747398340944821 0  1.74585840029896 4.905037679550175 0  1.747279819682106 -4.893202528282216 0  -1.148879122795292 4.908986754145432 0  -1.129731821006407 -4.916887978891211 0  -4.909353922631762 -1.147967258053628 0  -4.909172763652427 1.147767599603211 0  1.143871420870539 -4.913079161402122 0  1.148888575198771 4.908973938279508 0  4.909495230936694 1.146243034438764 0  4.920306871057838 -1.152020351917339 0  -0.5466885779540286 -4.910192193704431 0  -0.5464692780860771 4.918861201561318 0  -4.90811660259076 -0.5487304310395144 0  -4.908140649116465 0.5472878356601873 0  4.907439028999629 -0.5490492559145842 0  4.919072911212032 0.5458035857439653 0  0.5424729102375588 -4.897094116584122 0  0.5511983421449287 4.915689806366442 0  -4.911960562657804 -3.048350970471714 0  4.918527001108166 3.046363397756944 0  4.911469068932098 -3.048327562314117 0  -4.912807990692746 3.045442064766542 0  3.055343996846164 -4.917453715610181 0  -3.048678114725674 -4.911394230422462 0  3.052244350714753 4.913470785809203 0  -3.048123405578186 4.912283445943319 0  -4.907235964297975 -0.04990991978426932 0  0.04512107926438375 -4.912143743150751 0  0.04956886240883177 4.919158458653314 0  4.914278433756346 -0.05129186024754031 0  3.545653448267764 -4.919076348584611 0  -3.548936904206037 4.9
[...]
<PointData  Vectors="f_3494"> 
<DataArray  type="Float64"  Name="f_3494"  NumberOfComponents="3" format="ascii">2.6559658580600150e-76 2.6559658580600150e-76 0.0000000000000000e+00  -2.8445085011138723e-76 2.8445085011138723e-76 0.0000000000000000e+00  -8.5659604779151534e-78 -8.5659604779151534e-78 0.0000000000000000e+00  3.0308186857311361e-76 -3.0308186857311361e-76 0.0000000000000000e+00  -2.5680203561992782e-01 -4.8361575193081327e-03 0.0000000000000000e+00  4.1657609539673633e-75 6.6063845539471200e-75 0.0000000000000000e+00  2.0825497544739942e-75 2.0879824460665936e-74 0.0000000000000000e+00  -3.4053815509669404e-75 6.7711420786720181e-75 0.0000000000000000e+00  3.9996939442825593e-72 6.6685229504521861e-72 0.0000000000000000e+00  5.3162946912098059e-71 1.3458804752498228e-70 0.0000000000000000e+00  -7.9182004752818109e-72 4.5550825276913826e-71 0.0000000000000000e+00  3.2336270892714945e-69 6.1630180155892699e-69 0.0000000000000000e+00  5.1600923383224358e-68 9.4001141043955784e-68 0.0000000000000000e+00  -3.0636126068061739e-68 1.4999530696128477e-67 0.0000000000000000e+00  1.2764051501409940e-67 3.9820657934902870e-67 0.0000000000000000e+00  1.2650211365180952e-68 8.7789553993833252e-67 0.0000000000000000e+00  5.4496191092834268e-64 8.8250566403522182e-64 0.0000000000000000e+00  4.7475641085177802e-65 2.4418508192603782e-63 0.0000000000000000e+00  1.3485328121289536e-62 2.1996013675863821e-62 0.0000000000000000e+00  8.0637585752906465e-63 8.3183963562925082e-62 0.0000000000000000e+00  6.9274113943915582e-61 1.1026451177879448e-60 0.0000000000000000e+00  4.0597654399764160e-60 7.0088941887207162e-60 0.0000000000000000e+00  -2.8449924411963195e-60 7.6973683121437096e-60 0.0000000000000000e+00  5.6581381966821189e-59 1.1371342190361911e-58 0.0000000000000000e+00  -1.7573462234102521e-59 1.1645281512559177e-58 0.0000000000000000e+00  -3.0005629432626267e-59 6.8364477897277015e-59 0.0000000000000000e+00  1.8005008873557393e-58 3.3054737105160357e-58 0.0000000000000000e+00  7.2914875982703152e-58 2.0899358111981161e-57 0.0000000000000000e+00  2.8573158167267329e-57 6.2349695292582423e-57 0.0000000000000000e+00  -3.4030310240303232e-57 5.7355479564102314e-57 0.0000000000000000e+00  -3.5177900506267162e-58 1.0975317219190282e-57 0.0000000000000000e+00  1.9059872835241558e-56 2.9333973861353912e-56 0.0000000000000000e+00  -1.4113971587938888e-56 3.5298290056698673e-56 0.0000000000000000e+00  1.1895719389712783e-56 2.8943140721462000e-56 0.0000000000000000e+00  8.7242144115428713e-56 2.0982001654184639e-55 0.0000000000000000e+00  -2.5042871628525266e-56 5.7432691660262639e-55 0.0000000000000000e+00  5.2012440024264823e-57 8.6160920636200061e-57 0.0000000000000000e+00  5.5348567637736391e-56 1.3820685237335150e-55 0.0000000000000000e+00  1.5461610407991133e-55 6.1705493263717971e-55 0.0000000000000000e+00  -2.2318676355667217e-55 3.5150045926942640e-55 0.0000000000000000e+00  9.8168198801579874e-55 1.7234943538777671e-54 0.0000000000000000e+00  -4.4099921058477132e-55 4.3612935422362999e-54 0.0000000000000000e+00  -2.2772124409387804e-55 2.6819328851179511e-54 0.0000000000000000e+00  -9.5957997022349107e-56 9.4393206608776585e-55 0.0000000000000000e+00  -1.1285855300710585e-55 1.8216764332496998e-55 0.0000000000000000e+00  2.7538170463405721e-54 5.2344414593821852e-54 0.0000000000000000e+00  -2.1549747039484205e-54 4.1383135579931136e-54 0.0000000000000000e+00  -7.1755590964428936e-55 8.0787074270960097e-55 0.0000000000000000e+00  -1.3173716514833762e-55 2.7128660133293243e-55 0.0000000000000000e+00  9.2813763598461273e-55 1.4453326588081892e-54 0.0000000000000000e+00  9.4331282774952376e-55 6.1546945353194111e-54 0.0000000000000000e+00  -1.1258021428871338e-54 5.8987816288741117e-54 0.0000000000000000e+00  5.1349104484830709e-55 4.6481698183336495e-54 0.0000000000000000e+00  1.9051867993505405e-56 5.7930519474574650e-54 0.0000000000000000e+00  3.0103043590816634e-55 6.1512139058007741e-54 0.0000000000000000e+00  -1.2586256930549328e-54 2.0442085133569070e-54 0.0000000000000000e+00  -6.4408790822399067e-55 1.4723682836165807e-53 0.0000000000000000e+00  4.4532411318222620e-54 7.4686761678487393e-54 0.0000000000000000e+00  -4.3371803830077951e-54 8.0965124700559105e-54 0.0000000000000000e+00  1.9174863523739658e-54 3.9565617550457206e-54 0.0000000000000000e+00  -7.3463706540514269e-55 9.4990281780590255e-54 0.0000000000000000e+00  1.3281084221122225e-54 9.3286241173932821e-54 0.0000000000000000e+00  -1.6813049457354246e-54 4.3968418138872582e-54 0.0000000000000000e+00  -9.2315642944169075e-55 2.4050091105132983e-54 0.0000000000000000e+00  3.3245665549130394e-55 1.2995333007449011e-54 0.0000000000000000e+00  2.6514656940904565e-55 2.5375506372677719e-54 0.0000000000000000e+00  -7.8230775600183377e-56 3.4898896543217845e-54 0.0000000000000000e+00  -7.1001020447724806e-55 1.4817235648672257e-54 0.0000000000000000e+00  2.3736527174143233e-55 4.4253475441137902e-55 0.0000000000000000e+00  -2.3058984203551050e-55 6.0241333738153427e-55 0.0000000000000000e+00  5.0249136689554651e-56 2.3978864930302450e-55 0.0000000000000000e+00  1.8633029939100572e-55 9.5236261612394507e-55 0.0000000000000000e+00  -3.2987105740072781e-55 5.3026903763985106e-55 0.0000000000000000e+00  -1.5886351061461852e-56 4.8224159631531607e-56 0.0000000000000000e+00  -1.1336223088347477e-57 1.1333160510658426e-56 0.0000000000000000e+00  6.7440712002113855e-57 2.3549888255688534e-56 0.0000000000000000e+00  -8.9813279073272100e-57 1.5021385547552718e-56 0.0000000000000000e+00  1.7395827421879773e-57 2.8868677446200801e-57 0.0000000000000000e+00  -1.2427417066330484e-57 2.7244056278359168e-57 0.0000000000000000e+00  5.1701135113357580e-57 7.8086663542248954e-57 0.0000000000000000e+00  -4.5280414547509979e-57 1.1250814852834693e-56 0.0000000000000000e+00  -1.8116973381251693e-58 9.3950095988550083e-58 0.0000000000000000e+00  -2.3895018297524182e-58 4.6524147135285549e-58 0.0000000000000000e+00  -7.8692280453365848e-61 8.8103349228279728e-59 0.0000000000000000e+00  -2.4432769503672995e-59 6.4227269690841513e-59 0.0000000000000000e+00  -7.1082082046738435e-60 2.4997204262170786e-59 0.0000000000000000e+00  -4.3808842356249180e-60 2.2386350834494615e-59 0.0000000000000000e+00  -3.0599044563089342e-60 7.1679901189507042e-60 0.0000000000000000e+00  -8.5152513393580554e-62 4.4351838114266871e-61 0.0000000000000000e+00  -1.0748724905955060e-61 2.2340712397601069e-61 0.0000000000000000e+00  -3.5841986981082209e-62 5.6744898613526780e-62 0.0000000000000000e+00  -3.9067430246859447e-64 6.6980132875659310e-64 0.0000000000000000e+00  -2.4294207021404881e-65 5.1709453438344379e-65 0.0000000000000000e+00  3.7053407885644143e-66 1.0386340646699589e-65 0.0000000000000000e+00  -4.8393774015955234e-66 9.2620647613610289e-66 0.0000000000000000e+00  -6.6958220661248247e-68 2.7711504196133622e-67 0.0000000000000000e+00  -7.8494965105098606e-68 1.2918450309627213e-67 0.0000000000000000e+00  -8.0575051577393256e-69 1.1732825336341491e-68 0.0000000000000000e+00  -5.6313494345481608e-70 9.5207685074157870e-70 0.0000000000000000e+00  -3.7783793437583765e-71 6.8189126728832092e-71 0.0000000000000000e+00  -1.8780244153854435e-72 3.2028222823216774e-72 0.0000000000000000e+00  -1.2175907649807840e-73 2.7267874243554118e-73 0.0000000000000000e+00  -4.4206499402228678e-75 1.2911746060435002e-74 0.0000000000000000e+00  -2.5479843540419179e-75 4.2412647367248854e-75 0.0000000000000000e+00  -9.7690323572114784e-76 3.5581993395221199e-76 0.0000000000000000e+00  -1.6210861765214115e-75 -2.3920838834521251e-76 0.0000000000000000e+00  -2.4489991409364807e-74 1.1590122458088195e-74 0.0000000000000000e+00  -3.6791535456007180e-74 1.5502216610572814e-75 0.0000000000000000e+00  -3.8831986825373943e-73 1.4333537092358210e-73 0.0000000000000000e+00  -1.0238296771082027e-71 6.2377465253229658e-72 0.0000000000000000e+00  -6.7412651184379553e-71 3.7079766761535290e-71 0.0000000000000000e+00  -1.0610449720080360e-70 3.9027165757376333e-72 0.0000000000000000e+00  -8.9009340328078926e-70 3.3087005830562022e-70 0.0000000000000000e+00  -2.1288149276145056e-68 1.2863721651026705e-68 0.0000000000000000e+00  -1.0238213066730273e-67 5.1099015935681315e-68 0.0000000000000000e+00  -1.0134511183592519e-67 -6.0256962951478690e-68 0.0000000000000000e+00  -3.1660758476435382e-66 1.7459751491225093e-66 0.0000000000000000e+00  -3.1855737391024651e-65 1.8316255689581093e-65 0.0000000000000000e+00  -5.3860185929755284e-65 5.0455304125168395e-66 0.0000000000000000e+00  -4.4369262507276140e-64 1.4463765814197933e-64 0.0000000000000000e+00  -6.9941689851265124e-63 4.3585310751665215e-63 0.0000000000000000e+00  -1.5065501290255438e-62 3.7479870571014018e-63 0.0000000000000000e+00  -8.4338875219725754e-62 1.9662398606097532e-62 0.0000000000000000e+00  -1.3551796566389230e-60 8.5164269247950109e-61 0.0000000000000000e+00  -2.4170117383351745e-60 3.3811624723169434e-61 0.0000000000000000e+00  -2.1172071973646258e-59 7.3958218306737767e-60 0.0000000000000000e+00  -2.4175740754072084e-58 1.4940230097512996e-58 0.0000000000000000e+00  -2.5872389171930651e-58 -9.4140145110939306e-59 0.0000000000000000e+00  -5.9791897927940878e-57 2.7803395240947619e-57 0.0000000000000000e+00  -2.4840536788124319e-56 1.2384041624373080e-56 0.0000000000000000e+00  -5.5629704046801972e-56 -8.6777092764606428e-57 0.0000000000000000e+00  -1.0116053484542905e-54 6.4747480468098912e-55 0.0000000000000000e+00  -1.1204180481841188e-54 -3.4607531501479631e-55 0.0000000000000000e+00  -2.4086669287386942e-53 1.2680610780418066e-53 0.0000000000000000e+00  -6.5949385659712742e-53 2.9855523046968105e-53 0.0000000000000000e+00  -4.3572812779655882e-52 1.2228948961050937e-52 0.0000000000000000e+00  -2.6668926166230783e-51 1.6606190323752722e-51 0.0000000000000000e+00  -7.6657485732083110e-51 -2.1369069630462031e-52 0.0000000000000000e+00  -7.1999205392896740e-50 4.5890350418035796e-50 0.0000000000000000e+00  -1.6171144734754856e-49 -1.4745371145492914e-50 0.0000000000000000e+00  -1.7302609412696000e-48 1.0080557983447564e-48 0.0000000000000000e+00  -4.3410616136540470e-48 -2.0344898263014486e-49 0.0000000000000000e+00  -2.0145480586501832e-47 1.1072423086880792e-47 0.0000000000000000e+00  -1.1029019526909929e-46 1.8914538597310602e-47 0.0000000000000000e+00  -1.0249171429012386e-46 2.4537959800113314e-47 0.0000000000000000e+00  -1.2410729252213089e-45 5.2392661180188023e-46 0.0000000000000000e+00  -8.7340807789364003e-46 -5.6628262972046649e-46 0.0000000000000000e+00  -1.3435478683978020e-44 8.0475247660839034e-45 0.0000000000000000e+00  -5.7968023785029251e-44 1.3697962424987367e-44 0.0000000000000000e+00  -3.6146982478735761e-44 -1.7459997478684978e-44 0.0000000000000000e+00  -1.1428062797250816e-43 6.4806137511397163e-44 0.0000000000000000e+00  -8.4140371865253103e-43 2.3088674131457685e-43 0.0000000000000000e+00  -1.9292456728852622e-42 1.9693046459185308e-43 0.0000000000000000e+00  -2.5118426854681824e-42 6.0852369922218818e-44 0.0000000000000000e+00  -2.0146214073089731e-42 -1.9418684393176351e-43 0.0000000000000000e+00  -8.6147555352123060e-43 -2.4978815293135642e-43 0.0000000000000000e+00  -1.1327673808271321e-43 -6.4269741160619717e-44 0.0000000000000000e+00  -3.8706296402199649e-44 1.8445929460956360e-44 0.0000000000000000e+00  -6.3175050950026250e-44 -1.0790505432540323e-44 0.0000000000000000e+00  -1.4995012017679971e-44 -7.8440561570455132e-45 0.0000000000000000e+00  -9.9843530113536752e-46 5.6554526350521539e-46 0.0000000000000000e+00  -1.4044544712317539e-45 -5.3710055515277721e-46 0.0000000000000000e+00  -1.1211020121904937e-46 -2.8472781380857146e-47 0.0000000000000000e+00  -1.0183841170830926e-46 -2.1364425177521716e-47 0.0000000000000000e+00  -1.8622952834593733e-47 -1.1939791478023629e-47 0.0000000000000000e+00  -4.0854880348932170e-48 2.0257672731769067e-49 0.0000000000000000e+00  -1.4879366826628489e-48 -9.3340006821410538e-49 0.0000000000000000e+00  -1.6329058579565887e-49 2.4481230512545144e-50 0.0000000000000000e+00  -7.4636004681833944e-50 -4.4087254866963448e-50 0.0000000000000000e+00  -8.2454705334229249e-51 6.3875060036868710e-52 0.0000000000000000e+00  -3.1479146249379327e-51 -1.7789124832812795e-51 0.0000000000000000e+00  -5.1045000230915605e-52 -1.1438151687641176e-52 0.0000000000000000e+00  -8.2109359212032944e-53 -3.5382107815385396e-53 0.0000000000000000e+00  -2.6637159749023833e-53 -1.3125815501598043e-53 0.0000000000000000e+00  -1.1967447709505459e-54 3.2318819891972275e-55 0.0000000000000000e+00  -1.0646309232357726e-54 -6.7901797820099762e-55 0.0000000000000000e+00  -5.1512337815178536e-56 8.3306352749870659e-57 0.0000000000000000e+00  -2.3383341244454297e-56 -1.3211758614193509e-56 0.0000000000000000e+00  -4.8271025380435593e-57 -2.5165931259768977e-57 0.0000000000000000e+00  -2.4576059356320787e-58 8.5303803199174583e-59 0.0000000000000000e+00  -2.1599227304108064e-58 -1.3262585687443867e-58 0.0000000000000000e+00  -1.9917763296201885e-59 -6.1366414597382513e-60 0.0000000000000000e+00  -2.3753128571184260e-60 -3.3906461676183155e-61 0.0000000000000000e+00  -1.2916942772617555e-60 -7.5975923423243269e-61 0.0000000000000000e+00  -7.6929428049621229e-62 -2.1410862855646464e-62 0.0000000000000000e+00  -1.3596796684762801e-62 -2.9266703559399946e-63 0.0000000000000000e+00  -6.6428264672804240e-63 -3.7839922519469145e-63 0.0000000000000000e+00  -4.7846662713925374e-64 -1.8177596253431417e-64 0.0000000000000000e+00  -4.3637766677947011e-65 9.5710593109928983e-67 0.0000000000000000e+00  -2.9494735361334154e-65 -1.6606054946166401e-65 0.0000000000000000e+00  -3.4146692035774782e-66 -1.9871430887022481e-66 0.0000000000000000e+00  -8.9915082225384586e-68 5.4764733391932026e-68 0.0000000000000000e+00  -8.6392112521025058e-68 -4.1747817023372261e-68 0.0000000000000000e+00  -2.0689140542368718e-68 -1.2842359922724212e-68 0.0000000000000000e+00  -1.1328886947350182e-69 -5.1311246822777847e-70 0.0000000000000000e+00  -8.7937652184456591e-71 1.3782886009432126e-71 0.0000000000000000e+00  -6.9096415641867777e-71 -3.6557694012112350e-71 0.0000000000000000e+00  -1.2481616856611550e-71 -7.6598392204796142e-72 0.0000000000000000e+00  -5.9826354885261314e-73 -2.7504338266029034e-73 0.0000000000000000e+00  -3.9235739576780218e-74 7.4218540328715535e-75 0.0000000000000000e+00  -3.1567910916517090e-74 -1.4787927619547141e-74 0.0000000000000000e+00  -6.5909650494709191e-75 -3.3567833720958420e-75 0.0000000000000000e+00  -7.1799922635015959e-76 -3.1070713058312441e-76 0.0000000000000000e+00  -8.5515757022690253e-76 -1.6228779714977029e-75 0.0000000000000000e+00  -4.7733213278273228e-75 -1.3946125462691763e-74 0.0000000000000000e+00  4.3662414427911184e-75 -8.3081100190620692e-75 0.0000000000000000e+00  -1.6291152928962904e-73 -3.4274913739998538e-73 0.0000000000000000e+00  -9.2831296552028288e-71 -1.0071611345781362e-70 0.0000000000000000e+00  -7.5042810429669405e-70 -1.3179167081241037e-69 0.0000000000000000e+00  -1.0980725511968447e-69 -3.6515745754897451e-69 0.0000000000000000e+00  -7.7581353172610515e-68 -1.7116720614448559e-67 0.0000000000000000e+00  -6.5282106572576685e-68 -3.2601976047037284e-67 0.0000000000000000e+00  -6.7867321076068550e-66 -1.3503320988477845e-65 0.0000000000000000e+00  -4.5174020414305283e-66 -2.1318359626956300e-65 0.0000000000000000e+00  -9.0643477699511782e-65 -1.5579895866219416e-64 0.0000000000000000e+00  1.7208800796355744e-65 -2.1034762717751730e-64 0.0000000000000000e+00  -4.2729038392692001e-62 -6.4046735867706569e-62 0.0000000000000000e+00  -6.9935780439170336e-62 -1.7210943117893593e-61 0.0000000000000000e+00  -2.3242151985433538e-62 -2.7287688924581519e-61 0.0000000000000000e+00  -5.7358355962232404e-60 -1.1365899439030748e-59 0.0000000000000000e+00  4.7635661197097296e-60 -1.5017334739534709e-59 0.0000000000000000e+00  -2.8984519164108167e-59 -4.7506929899202245e-59 0.0000000000000000e+00  8.8133740196321666e-60 -6.0855674775723175e-59 0.0000000000000000e+00  2.3232584179313692e-59 -3.9704256349146894e-59 0.0000000000000000e+00  -5.6327065595469803e-58 -8.9510927706869765e-58 0.0000000000000000e+00  -1.3788989615830576e-59 -1.2602474707231315e-57 0.0000000000000000e+00  -4.6293566898396076e-57 -1.1640670153999704e-56 0.0000000000000000e+00  5.7433873021812630e-57 -8.6704953844943097e-57 0.0000000000000000e+00  -5.3283213014866159e-57 -7.3415732124496670e-57 0.0000000000000000e+00  -1.7652304707398749e-56 -3.7745593492085532e-56 0.0000000000000000e+00  2.1594067713738187e-56 -4.0697902303690302e-56 0.0000000000000000e+00  -4.9970235769864772e-57 -9.2039142493525775e-57 0.0000000000000000e+00  -8.1092253033919711e-56 -2.0315432382725502e-55 0.0000000000000000e+00  6.3649957313277201e-56 -5.0765908502904043e-55 0.0000000000000000e+00  -4.2847164615134645e-55 -7.2605704525687484e-55 0.0000000000000000e+00  -4.8776819699847067e-56 -1.8357842339067515e-54 0.0000000000000000e+00  1.6583003330655131e-55 -5.7387850177514810e-55 0.0000000000000000e+00  -5.1764046299882138e-55 -1.6762824559043912e-54 0.0000000000000000e+00  -2.2510512176966957e-54 -7.0731105787009100e-54 0.0000000000000000e+00  2.5789966827386447e-54 -6.0753542262388136e-54 0.0000000000000000e+00  -6.7122663683704735e-55 -2.3900987036375568e-54 0.0000000000000000e+00  5.3179346025319406e-55 -2.8188677926138877e-54 0.0000000000000000e+00  1.2804764501310096e-55 -1.4247579475809675e-54 0.0000000000000000e+00  -2.1774764707712209e-54 -3.4676331503007860e-54 0.0000000000000000e+00  5.7039005121083050e-55 -8.2269692976777145e-54 0.0000000000000000e+00  -3.9255095158462229e-54 -1.3559425843602422e-53 0.0000000000000000e+00  4.6861395066040574e-54 -7.7132306016661527e-54 0.0000000000000000e+00  2.0289689914700370e-55 -6.5056323681745566e-55 0.0000000000000000e+00  -4.7949500138073510e-54 -8.0100261399014764e-54 0.0000000000000000e+00  4.8206573933315878e-54 -7.8689842860482734e-54 0.0000000000000000e+00  -1.6597553704681059e-56 -1.3350068709579217e-55 0.0000000000000000e+00  1.1138716858251898e-56 -2.7680918909007847e-55 0.0000000000000000e+00  2.2040676320718300e-56 -9.8796737509502860e-56 0.0000000000000000e+00  -5.1979297518765250e-54 -9.3535501062462243e-54 0.0000000000000000e+00  5.5441144440516371e-54 -9.4085627833361413e-54 0.0000000000000000e+00  5.6682338445148086e-56 -1.0519711828784007e-55 0.0000000000000000e+00  -1.4312483780517062e-56 -6.2045606305366926e-56 0.0000000000000000e+00  -4.9935578705235698e-55 -9.0452654423128275e-55 0.0000000000000000e+00  -5.8082294300154740e-54 -1.0044118717840360e-53 0.0000000000000000e+00  4.4988432522146883e-54 -1.0493432071729113e-53 0.0000000000000000e+00  -3.0492725913034393e-54 -7.9841375644972134e-54 0.0000000000000000e+00  2.4363996109591198e-54 -8.5509545270255073e-54 0.0000000000000000e+00  2.2442107613945362e-54 -3.3073166680574660e-54 0.0000000000000000e+00  -5.4317270762945572e-55 -1.4795687398896579e-54 0.0000000000000000e+00  8.3492300616754427e-55 -1.5743313497545913e-54 0.0000000000000000e+00  -4.9189518331318148e-55 -9.8296202902379235e-55 0.0000000000000000e+00  5.1205990885403143e-55 -8.8582605367688081e-55 0.0000000000000000e+00  -1.5652608332156146e-56 -2.6910600871199946e-56 0.0000000000000000e+00  -4.4727825299459042e-56 -1.7215436795376662e-55 0.0000000000000000e+00  4.1693178339546660e-56 -1.7470803889272822e-55 0.0000000000000000e+00  4.7995462334840411e-57 -6.9033997580792300e-56 0.0000000000000000e+00  -2.7463924594580222e-56 -6.5408124489657908e-56 0.0000000000000000e+00  3.2853524080539084e-56 -6.4159713725981252e-56 0.0000000000000000e+00  -2.8564204363722898e-57 -2.8731541212147952e-56 0.0000000000000000e+00  1.2950398357858485e-56 -3.0029305285442650e-56 0.0000000000000000e+00  1.0016808805085166e-57 -2.3997515627554081e-57 0.0000000000000000e+00  -4.3792266396569860e-57 -7.6361565865538385e-57 0.0000000000000000e+00  4.2468665541450885e-57 -1.1009687878196812e-56 0.0000000000000000e+00  3.1223284487527890e-58 -1.0215005283556647e-57 0.0000000000000000e+00  1.4369664199161880e-58 -5.0270