<?xml version="1.0"?>
<VTKFile type="UnstructuredGrid"  version="0.1"  >
<UnstructuredGrid>
<Piece  NumberOfPoints="11902" NumberOfCells="23402">
<Points>
<DataArray  type="Float64"  NumberOfComponents="3"  format="ascii">-5 -5 0  5 -5 0  5 5 0  -5 5 0  1.253297394840816 0.001357760787888715 0  -4.9 -5 0  -4.8 -5 0  -4.7 -5 0  -4.6 -5 0  -4.5 -5 0  -4.4 -5 0  -4.3 -5 0  -4.2 -5 0  -4.1 -5 0  -4 -5 0  -3.9 -5 0  -3.8 -5 0  -3.7 -5 0  -3.6 -5 0  -3.5 -5 0  -3.4 -5 0  -3.3 -5 0  -3.2 -5 0  -3.1 -5 0  -3 -5 0  -2.9 -5 0  -2.8 -5 0  -2.7 -5 0  -2.6 -5 0  -2.5 -5 0  -2.4 -5 0  -2.3 -5 0  -2.2 -5 0  -2.1 -5 0  -2 -5 0  -1.9 -5 0  -1.8 -5 0  -1.7 -5 0  -1.6 -5 0  -1.5 -5 0  -1.4 -5 0  -1.3 -5 0  -1.2 -5 0  -1.1 -5 0  -1 -5 0  -0.9000000000000004 -5 0  -0.7999999999999998 -5 0  -0.7000000000000002 -5 0  -0.5999999999999996 -5 0  -0.5 -5 0  -0.4000000000000004 -5 0  -0.2999999999999998 -5 0  -0.2000000000000002 -5 0  -0.09999999999999964 -5 0  0 -5 0  0.09999999999999964 -5 0  0.2000000000000002 -5 0  0.2999999999999998 -5 0  0.4000000000000004 -5 0  0.5 -5 0  0.5999999999999996 -5 0  0.7000000000000002 -5 0  0.7999999999999998 -5 0  0.9000000000000004 -5 0  1 -5 0  1.1 -5 0  1.2 -5 0  1.3 -5 0  1.4 -5 0  1.5 -5 0  1.6 -5 0  1.7 -5 0  1.8 -5 0  1.9 -5 0  2 -5 0  2.1 -5 0  2.2 -5 0  2.3 -5 0  2.4 -5 0  2.5 -5 0  2.6 -5 0  2.7 -5 0  2.8 -5 0  2.9 -5 0  3 -5 0  3.1 -5 0  3.199999999999999 -5 0  3.300000000000001 -5 0  3.4 -5 0  3.5 -5 0  3.6 -5 0  3.699999999999999 -5 0  3.800000000000001 -5 0  3.9 -5 0  4 -5 0  4.1 -5 0  4.199999999999999 -5 0  4.300000000000001 -5 0  4.4 -5 0  4.5 -5 0  4.6 -5 0  4.699999999999999 -5 0  4.800000000000001 -5 0  4.9 -5 0  5 -4.9 0  5 -4.8 0  5 -4.7 0  5 -4.6 0  5 -4.5 0  5 -4.4 0  5 -4.3 0  5 -4.2 0  5 -4.1 0  5 -4 0  5 -3.9 0  5 -3.8 0  5 -3.7 0  5 -3.6 0  5 -3.5 0  5 -3.4 0  5 -3.3 0  5 -3.2 0  5 -3.1 0  5 -3 0  5 -2.9 0  5 -2.8 0  5 -2.7 0  5 -2.6 0  5 -2.5 0  5 -2.4 0  5 -2.3 0  5 -2.2 0  5 -2.1 0  5 -2 0  5 -1.9 0  5 -1.8 0  5 -1.7 0  5 -1.6 0  5 -1.5 0  5 -1.4 0  5 -1.3 0  5 -1.2 0  5 -1.1 0  5 -1 0  5 -0.9000000000000004 0  5 -0.7999999999999998 0  5 -0.7000000000000002 0  5 -0.5999999999999996 0  5 -0.5 0  5 -0.4000000000000004 0  5 -0.2999999999999998 0  5 -0.2000000000000002 0  5 -0.09999999999999964 0  5 0 0  5 0.09999999999999964 0  5 0.2000000000000002 0  5 0.2999999999999998 0  5 0.4000000000000004 0  5 0.5 0  5 0.5999999999999996 0  5 0.7000000000000002 0  5 0.7999999999999998 0  5 0.9000000000000004 0  5 1 0  5 1.1 0  5 1.2 0  5 1.3 0  5 1.4 0  5 1.5 0  5 1.6 0  5 1.7 0  5 1.8 0  5 1.9 0  5 2 0  5 2.1 0  5 2.2 0  5 2.3 0  5 2.4 0  5 2.5 0  5 2.6 0  5 2.7 0  5 2.8 0  5 2.9 0  5 3 0  5 3.1 0  5 3.199999999999999 0  5 3.300000000000001 0  5 3.4 0  5 3.5 0  5 3.6 0  5 3.699999999999999 0  5 3.800000000000001 0  5 3.9 0  5 4 0  5 4.1 0  5 4.199999999999999 0  5 4.300000000000001 0  5 4.4 0  5 4.5 0  5 4.6 0  5 4.699999999999999 0  5 4.800000000000001 0  5 4.9 0  4.9 5 0  4.8 5 0  4.7 5 0  4.6 5 0  4.5 5 0  4.4 5 0  4.3 5 0  4.2 5 0  4.1 5 0  4 5 0  3.9 5 0  3.8 5 0  3.7 5 0  3.6 5 0  3.5 5 0  3.4 5 0  3.3 5 0  3.2 5 0  3.1 5 0  3 5 0  2.9 5 0  2.8 5 0  2.7 5 0  2.6 5 0  2.5 5 0  2.4 5 0  2.3 5 0  2.2 5 0  2.1 5 0  2 5 0  1.9 5 0  1.8 5 0  1.7 5 0  1.6 5 0  1.5 5 0  1.4 5 0  1.3 5 0  1.2 5 0  1.1 5 0  1 5 0  0.9000000000000004 5 0  0.7999999999999998 5 0  0.7000000000000002 5 0  0.5999999999999996 5 0  0.5 5 0  0.4000000000000004 5 0  0.2999999999999998 5 0  0.2000000000000002 5 0  0.09999999999999964 5 0  0 5 0  -0.09999999999999964 5 0  -0.2000000000000002 5 0  -0.2999999999999998 5 0  -0.4000000000000004 5 0  -0.5 5 0  -0.5999999999999996 5 0  -0.7000000000000002 5 0  -0.7999999999999998 5 0  -0.9000000000000004 5 0  -1 5 0  -1.1 5 0  -1.2 5 0  -1.3 5 0  -1.4 5 0  -1.5 5 0  -1.6 5 0  -1.7 5 0  -1.8 5 0  -1.9 5 0  -2 5 0  -2.1 5 0  -2.2 5 0  -2.3 5 0  -2.4 5 0  -2.5 5 0  -2.6 5 0  -2.7 5 0  -2.8 5 0  -2.9 5 0  -3 5 0  -3.1 5 0  -3.199999999999999 5 0  -3.300000000000001 5 0  -3.4 5 0  -3.5 5 0  -3.6 5 0  -3.699999999999999 5 0  -3.800000000000001 5 0  -3.9 5 0  -4 5 0  -4.1 5 0  -4.199999999999999 5 0  -4.300000000000001 5 0  -4.4 5 0  -4.5 5 0  -4.6 5 0  -4.699999999999999 5 0  -4.800000000000001 5 0  -4.9 5 0  -5 4.9 0  -5 4.8 0  -5 4.7 0  -5 4.6 0  -5 4.5 0  -5 4.4 0  -5 4.3 0  -5 4.2 0  -5 4.1 0  -5 4 0  -5 3.9 0  -5 3.8 0  -5 3.7 0  -5 3.6 0  -5 3.5 0  -5 3.4 0  -5 3.3 0  -5 3.2 0  -5 3.1 0  -5 3 0  -5 2.9 0  -5 2.8 0  -5 2.7 0  -5 2.6 0  -5 2.5 0  -5 2.4 0  -5 2.3 0  -5 2.2 0  -5 2.1 0  -5 2 0  -5 1.9 0  -5 1.8 0  -5 1.7 0  -5 1.6 0  -5 1.5 0  -5 1.4 0  -5 1.3 0  -5 1.2 0  -5 1.1 0  -5 1 0  -5 0.9000000000000004 0  -5 0.7999999999999998 0  -5 0.7000000000000002 0  -5 0.5999999999999996 0  -5 0.5 0  -5 0.4000000000000004 0  -5 0.2999999999999998 0  -5 0.2000000000000002 0  -5 0.09999999999999964 0  -5 0 0  -5 -0.09999999999999964 0  -5 -0.2000000000000002 0  -5 -0.2999999999999998 0  -5 -0.4000000000000004 0  -5 -0.5 0  -5 -0.5999999999999996 0  -5 -0.7000000000000002 0  -5 -0.7999999999999998 0  -5 -0.9000000000000004 0  -5 -1 0  -5 -1.1 0  -5 -1.2 0  -5 -1.3 0  -5 -1.4 0  -5 -1.5 0  -5 -1.6 0  -5 -1.7 0  -5 -1.8 0  -5 -1.9 0  -5 -2 0  -5 -2.1 0  -5 -2.2 0  -5 -2.3 0  -5 -2.4 0  -5 -2.5 0  -5 -2.6 0  -5 -2.7 0  -5 -2.8 0  -5 -2.9 0  -5 -3 0  -5 -3.1 0  -5 -3.199999999999999 0  -5 -3.300000000000001 0  -5 -3.4 0  -5 -3.5 0  -5 -3.6 0  -5 -3.699999999999999 0  -5 -3.800000000000001 0  -5 -3.9 0  -5 -4 0  -5 -4.1 0  -5 -4.199999999999999 0  -5 -4.300000000000001 0  -5 -4.4 0  -5 -4.5 0  -5 -4.6 0  -5 -4.699999999999999 0  -5 -4.800000000000001 0  -5 -4.9 0  1.245519532983165 0.09556836295339174 0  1.224291862762096 0.1929485509533661 0  1.190983495413979 0.2894720032061144 0  1.148225913491904 0.3785869229118799 0  1.090907089857782 0.4692766971961962 0  1.025587002790299 0.5538091673458514 0  0.9478163377157925 0.6336266253282691 0  0.8615270969775221 0.7079222589353854 0  0.7698646905478329 0.7733182971218716 0  0.6676884336439309 0.8307463687903628 0  0.5568153841247854 0.8830419700787928 0  0.4447587523510495 0.9269496718777066 0  0.3320136276716459 0.9594238868967732 0  0.2084697532024436 0.9809638104899954 0  0.08927825884400512 0.9995689890141224 0  -0.02735153570992645 1.00276291578462 0  -0.1451056081916549 0.9893657655737647 0  -0.2710367489360263 0.9707237029767219 0  -0.3898460146596496 0.9462457503704901 0  -0.500693179935086 0.9100216296262919 0  -0.6095690676247523 0.863615707827342 0  -0.7117144846243076 0.8091314697645081 0  -0.8062503025569315 0.7444133483883217 0  -0.8967027361723291 0.6713922876045184 0  -0.9814621911922331 0.591977608239741 0  -1.055003098487523 0.5108685268373464 0  -1.116600213591922 0.4251556131542129 0  -1.16883929553577 0.3332798012926582 0  -1.206772763921061 0.2429561325518055 0  -1.231273915457509 0.1485540566096182 0  -1.242782492431207 0.05119161922812578 0  -1.242731604464066 -0.0490873830361897 0  -1.231217425320136 -0.145758857334252 0  -1.206494073066694 -0.2389628969696385 0  -1.165894220827184 -0.3337989017918068 0  -1.116877849841676 -0.425227541060897 0  -1.056528677025322 -0.5106176689321251 0  -0.983784293343257 -0.5909404039882113 0  -0.8996454097349309 -0.6691675204566463 0  -0.8095892308408374 -0.7405577540946877 0  -0.7136363466138473 -0.8015461353639506 0  -0.6092099735690284 -0.8547291339603857 0  -0.4963643393629416 -0.9040231366746737 0  -0.3835953146939729 -0.9435242148245799 0  -0.2677585075027163 -0.970283681686414 0  -0.1437157789452801 -0.9890339692127561 0  -0.02796800384202353 -1.001943544274742 0  0.08899229273682269 -0.9949413810289628 0  0.213421507886181 -0.9778121618619032 0  0.3344319695151548 -0.9578634155107877 0  0.4488736318946809 -0.925620443542466 0  0.559127816031615 -0.8821868000892895 0  0.6685897158453624 -0.8307961845301538 0  0.7698534900281441 -0.7744632574918696 0  0.8616367863280383 -0.7088971399268302 0  0.9470939939207249 -0.6336398029041421 0  1.023027186480086 -0.5529412426241473 0  1.091371511767183 -0.4682541357621549 0  1.149110256399961 -0.3788083783966864 0  1.192716361072634 -0.2874641567112952 0  1.224913241132686 -0.1920676984696008 0  1.245802518495136 -0.09526705136463699 0  -2.448575961975681 4.918140469233414 0  -2.448451466307031 -4.910521220241422 0  4.910446211792714 2.447912733373804 0  4.918570235024135 -2.449372612201414 0  2.446183728445578 -4.895757422531819 0  2.440616698954563 4.899519115562033 0  -4.910473045543527 -2.44793892412779 0  -4.910470369083265 2.447942814401895 0  -1.74853063251704 4.91104034853096 0  -1.744316675045307 -4.914480428876007 0  4.92062936834728 1.744085839914786 0  4.909162522064865 -1.74784921941131 0  -4.909456408192573 -1.747583256817438 0  -4.910278708209154 1.74732791498505 0  1.745804447789069 4.904898678292292 0  1.747219301433112 -4.893046430674327 0  -1.148838560476544 4.908829512977159 0  -1.129695337335488 -4.916744121811869 0  -4.909175457863703 -1.147908676184431 0  -4.908993788659498 1.14770904296772 0  1.143833400492114 -4.912928656621961 0  1.148848448175062 4.90881626228445 0  4.909315460795595 1.146184015129462 0  4.920148917332861 -1.151968163265629 0  -0.5466674189476919 -4.910020890111813 0  -0.5464501623874519 4.918706076082259 0  -4.907909147738865 -0.5486978675739543 0  -4.907933125532455 0.5472555411578024 0  4.907228264138895 -0.5490160801939706 0  4.918888550386687 0.5457748212642506 0  0.5424496037505634 -4.896897368281997 0  0.5511788261309286 4.915528493250036 0  -4.911893812071368 -3.048294132511457 0  4.91846477037693 3.04631026366616 0  4.911401605858896 -3.048269855229972 0  -4.912741615321071 3.045385694711859 0  3.055300519727185 -4.917388449898167 0  -3.048631372794372 -4.911324402152196 0  3.052198639232254 4.913402209154735 0  -3.048076991454479 4.912214193222207 0  -4.907017665001352 -0.04990671443913379 0  0.04511970636129748 -4.911971014574497 0  0.04956736634055489 4.91899919294052 0  4.9140749884848 -0.0512888332975364 0  3.545619097478351 -4.919030785213454 0  -3.548899575522119 4.91193
[...]
<PointData  Vectors="f_4326"> 
<DataArray  type="Float64"  Name="f_4326"  NumberOfComponents="3" format="ascii">2.6559658580600257e-76 2.6559658580600257e-76 0.0000000000000000e+00  -2.8445085011138809e-76 2.8445085011138809e-76 0.0000000000000000e+00  -8.5659604779169186e-78 -8.5659604779169186e-78 0.0000000000000000e+00  3.0308186857311662e-76 -3.0308186857311662e-76 0.0000000000000000e+00  -2.0687863203732870e-01 -4.1340491869446784e-03 0.0000000000000000e+00  4.1658959398059025e-75 6.6062648883500467e-75 0.0000000000000000e+00  2.0824169564974485e-75 2.0879940211218431e-74 0.0000000000000000e+00  -3.4057743424400954e-75 6.7714877968503839e-75 0.0000000000000000e+00  4.0001903290015544e-72 6.6680864223934919e-72 0.0000000000000000e+00  5.3170048124527768e-71 1.3458176847941019e-70 0.0000000000000000e+00  -7.9199774975358180e-72 4.5552356377120422e-71 0.0000000000000000e+00  3.2343992843416005e-69 6.1623549705012496e-69 0.0000000000000000e+00  5.1615462998920556e-68 9.3988810997128753e-68 0.0000000000000000e+00  -3.0648237015132797e-68 1.5000522422593230e-67 0.0000000000000000e+00  1.2768278393208084e-67 3.9817124732837806e-67 0.0000000000000000e+00  1.2637925988271021e-68 8.7790317374588625e-67 0.0000000000000000e+00  5.4519699125093264e-64 8.8231672564568075e-64 0.0000000000000000e+00  4.7453929972329137e-65 2.4418598976988983e-63 0.0000000000000000e+00  1.3492358730885303e-62 2.1990585926701377e-62 0.0000000000000000e+00  8.0668166193327402e-63 8.3181317934565738e-62 0.0000000000000000e+00  6.9316251138151379e-61 1.1023334405991604e-60 0.0000000000000000e+00  4.0624460503942700e-60 7.0069651757354375e-60 0.0000000000000000e+00  -2.8470372586696163e-60 7.6987927979488302e-60 0.0000000000000000e+00  5.6622649013543440e-59 1.1368481910237792e-58 0.0000000000000000e+00  -1.7587882454319660e-59 1.1646227533407116e-58 0.0000000000000000e+00  -3.0031757830189588e-59 6.8381092408664737e-59 0.0000000000000000e+00  1.8021191270922568e-58 3.3044630571525616e-58 0.0000000000000000e+00  7.2980695643433047e-58 2.0895246230995320e-57 0.0000000000000000e+00  2.8601796115069867e-57 6.2333013753305158e-57 0.0000000000000000e+00  -3.4066800703713616e-57 5.7375687258704426e-57 0.0000000000000000e+00  -3.5217401979415811e-58 1.0977423058156623e-57 0.0000000000000000e+00  1.9081810501080588e-56 2.9322533737424354e-56 0.0000000000000000e+00  -1.4131736526325600e-56 3.5306756924195566e-56 0.0000000000000000e+00  1.1910459699451190e-56 2.8935993933949323e-56 0.0000000000000000e+00  8.7353420530708758e-56 2.0976768693457247e-55 0.0000000000000000e+00  -2.5094820751230164e-56 5.7433830333293524e-55 0.0000000000000000e+00  5.2086134516764428e-57 8.6130833450535359e-57 0.0000000000000000e+00  5.5427868232240212e-56 1.3817497437915139e-55 0.0000000000000000e+00  1.5483959966987101e-55 6.1696589669160207e-55 0.0000000000000000e+00  -2.2354161180687038e-55 3.5161689197108251e-55 0.0000000000000000e+00  9.8324517382274309e-55 1.7229829488969828e-54 0.0000000000000000e+00  -4.4183339298599812e-55 4.3614476782146090e-54 0.0000000000000000e+00  -2.2815696237361682e-55 2.6820033272678876e-54 0.0000000000000000e+00  -9.6136449798480431e-56 9.4396421411108088e-55 0.0000000000000000e+00  -1.1306068721165295e-55 1.8221144535329692e-55 0.0000000000000000e+00  2.7587522909552310e-54 5.2333751051951191e-54 0.0000000000000000e+00  -2.1589479140893640e-54 4.1390270244939151e-54 0.0000000000000000e+00  -7.1889854938909354e-55 8.0808381410509218e-55 0.0000000000000000e+00  -1.3198909674379392e-55 2.7131651512422896e-55 0.0000000000000000e+00  9.2990954150030149e-55 1.4451172298634860e-54 0.0000000000000000e+00  9.4509472622779671e-55 6.1544158300410013e-54 0.0000000000000000e+00  -1.1280260094519961e-54 5.8988199957191992e-54 0.0000000000000000e+00  5.1447924430150382e-55 4.6480322627219720e-54 0.0000000000000000e+00  1.9078235449986709e-56 5.7929365941762975e-54 0.0000000000000000e+00  3.0162128091359664e-55 6.1510950187759947e-54 0.0000000000000000e+00  -1.2610970725588479e-54 2.0441470956602078e-54 0.0000000000000000e+00  -6.4527886084115781e-55 1.4723173572127654e-53 0.0000000000000000e+00  4.4619272667668372e-54 7.4692168851101158e-54 0.0000000000000000e+00  -4.3455632900066657e-54 8.0957445264853188e-54 0.0000000000000000e+00  1.9211721422472536e-54 3.9569508622511219e-54 0.0000000000000000e+00  -7.3592531916481882e-55 9.4986563515418331e-54 0.0000000000000000e+00  1.3307078255538623e-54 9.3288456153351887e-54 0.0000000000000000e+00  -1.6844067274512208e-54 4.3962895382935287e-54 0.0000000000000000e+00  -9.2480305256090155e-55 2.4046433119987853e-54 0.0000000000000000e+00  3.3306942282491337e-55 1.2996458427648839e-54 0.0000000000000000e+00  2.6565109448522108e-55 2.5376301663201697e-54 0.0000000000000000e+00  -7.8299815218608152e-56 3.4898086389912997e-54 0.0000000000000000e+00  -7.1117689451243610e-55 1.4813727864216791e-54 0.0000000000000000e+00  2.3775520206836874e-55 4.4265201189780176e-55 0.0000000000000000e+00  -2.3094437946404485e-55 6.0228811972795462e-55 0.0000000000000000e+00  5.0330630773171427e-56 2.3981430297647380e-55 0.0000000000000000e+00  1.8662766764545380e-55 9.5246045060957899e-55 0.0000000000000000e+00  -3.3033976741111732e-55 5.3007897815713072e-55 0.0000000000000000e+00  -1.5907419047233255e-56 4.8214725149123402e-56 0.0000000000000000e+00  -1.1348841750768684e-57 1.1332457960987856e-56 0.0000000000000000e+00  6.7532297315772124e-57 2.3553872572290245e-56 0.0000000000000000e+00  -8.9921319636415342e-57 1.5015996813615791e-56 0.0000000000000000e+00  1.7416740021792926e-57 2.8879114047465610e-57 0.0000000000000000e+00  -1.2441310989850580e-57 2.7236641148125611e-57 0.0000000000000000e+00  5.1757337825919255e-57 7.8117376126574246e-57 0.0000000000000000e+00  -4.5324317145450542e-57 1.1248201798715683e-56 0.0000000000000000e+00  -1.8134500201212542e-58 9.3939668695419729e-58 0.0000000000000000e+00  -2.3916690465959890e-58 4.6510724372478309e-58 0.0000000000000000e+00  -7.8760290730858854e-61 8.8102916445197635e-59 0.0000000000000000e+00  -2.4452620262182432e-59 6.4214223250592780e-59 0.0000000000000000e+00  -7.1136312178914383e-60 2.4993533759170347e-59 0.0000000000000000e+00  -4.3835906866257813e-60 2.2384346288225514e-59 0.0000000000000000e+00  -3.0618444973957240e-60 7.1665776485792620e-60 0.0000000000000000e+00  -8.5205880723149425e-62 4.4347943893373533e-61 0.0000000000000000e+00  -1.0754918151944920e-61 2.2336075140439348e-61 0.0000000000000000e+00  -3.5860368352990504e-62 5.6730697609414462e-62 0.0000000000000000e+00  -3.9086333506313263e-64 6.6965348744168207e-64 0.0000000000000000e+00  -2.4304572287245631e-65 5.1701140658604585e-65 0.0000000000000000e+00  3.7070195550319293e-66 1.0387673570989445e-65 0.0000000000000000e+00  -4.8410437966339270e-66 9.2606852376965342e-66 0.0000000000000000e+00  -6.6980350435322836e-68 2.7709665439044797e-67 0.0000000000000000e+00  -7.8517311715158151e-68 1.2916565756797009e-67 0.0000000000000000e+00  -8.0594738901543169e-69 1.1731145641078171e-68 0.0000000000000000e+00  -5.6325177726549229e-70 9.5197627651780882e-70 0.0000000000000000e+00  -3.7790171007663396e-71 6.8183591723879974e-71 0.0000000000000000e+00  -1.8782734982701957e-72 3.2026047538443772e-72 0.0000000000000000e+00  -1.2176863516431304e-73 2.7267032640450820e-73 0.0000000000000000e+00  -4.4209544187483964e-75 1.2911478210558623e-74 0.0000000000000000e+00  -2.5480690265726742e-75 4.2411900826380324e-75 0.0000000000000000e+00  -9.7688890177439802e-76 3.5583258928076288e-76 0.0000000000000000e+00  -1.6211221873299947e-75 -2.3924036918194041e-76 0.0000000000000000e+00  -2.4488904017962052e-74 1.1591086513114067e-74 0.0000000000000000e+00  -3.6791317723544869e-74 1.5504159975208211e-75 0.0000000000000000e+00  -3.8829925237065310e-73 1.4335373597315384e-73 0.0000000000000000e+00  -1.0237040337170477e-71 6.2388814060617434e-72 0.0000000000000000e+00  -6.7403692785798352e-71 3.7087945976740164e-71 0.0000000000000000e+00  -1.0610338809623132e-70 3.9037429676839034e-72 0.0000000000000000e+00  -8.8999966890784390e-70 3.3095654107479590e-70 0.0000000000000000e+00  -2.1283751397375383e-68 1.2867880240125137e-68 0.0000000000000000e+00  -1.0236263537596212e-67 5.1117781214376223e-68 0.0000000000000000e+00  -1.0137107840216469e-67 -6.0282587475331011e-68 0.0000000000000000e+00  -3.1653144465599551e-66 1.7467282363326487e-66 0.0000000000000000e+00  -3.1846969295563587e-65 1.8325153702226046e-65 0.0000000000000000e+00  -5.3857569628256481e-65 5.0482566949079153e-66 0.0000000000000000e+00  -4.4361814875170164e-64 1.4471478914361765e-64 0.0000000000000000e+00  -6.9916798987083576e-63 4.3612290295556944e-63 0.0000000000000000e+00  -1.5063224966227546e-62 3.7505342629044657e-63 0.0000000000000000e+00  -8.4327282401249728e-62 1.9675045441422713e-62 0.0000000000000000e+00  -1.3546212510027867e-60 8.5229855593515406e-61 0.0000000000000000e+00  -2.4167788540785815e-60 3.3840095349756743e-61 0.0000000000000000e+00  -2.1166985853136201e-59 7.4020026924255656e-60 0.0000000000000000e+00  -2.4164873272018482e-58 1.4954273734863640e-58 0.0000000000000000e+00  -2.5879493414093760e-58 -9.4236719918473262e-59 0.0000000000000000e+00  -5.9770795550428710e-57 2.7832285577660843e-57 0.0000000000000000e+00  -2.4830862993284153e-56 1.2398080878323033e-56 0.0000000000000000e+00  -5.5636835843748916e-56 -8.6898170509665383e-57 0.0000000000000000e+00  -1.0110871828465547e-54 6.4828482707098433e-55 0.0000000000000000e+00  -1.1206976442019898e-54 -3.4654310123540131e-55 0.0000000000000000e+00  -2.4076407428156473e-53 1.2697942394112324e-53 0.0000000000000000e+00  -6.5925292284399562e-53 2.9899500475683826e-53 0.0000000000000000e+00  -4.3562871194088765e-52 1.2246622806122229e-52 0.0000000000000000e+00  -2.6655760052747040e-51 1.6632806392621932e-51 0.0000000000000000e+00  -7.6658569458130224e-51 -2.1428303425598881e-52 0.0000000000000000e+00  -7.1964208789046342e-50 4.5970015071292116e-50 0.0000000000000000e+00  -1.6172047448379013e-49 -1.4776777944382047e-50 0.0000000000000000e+00  -1.7295394723417548e-48 1.0099356413141476e-48 0.0000000000000000e+00  -4.3411381874347487e-48 -2.0395296810104250e-49 0.0000000000000000e+00  -2.0138316310403520e-47 1.1094500475452874e-47 0.0000000000000000e+00  -1.1027684371929721e-46 1.8950974113858773e-47 0.0000000000000000e+00  -1.0247830336713583e-46 2.4590106009794615e-47 0.0000000000000000e+00  -1.2407861325982204e-45 5.2504159352519479e-46 0.0000000000000000e+00  -8.7364872605789646e-46 -5.6754741381210346e-46 0.0000000000000000e+00  -1.3432101919189898e-44 8.0655351388183008e-45 0.0000000000000000e+00  -5.7962012068198225e-44 1.3728584398903796e-44 0.0000000000000000e+00  -3.6150889701283462e-44 -1.7500822630636561e-44 0.0000000000000000e+00  -1.1426567895924805e-43 6.4957453118155266e-44 0.0000000000000000e+00  -8.4135045751988612e-43 2.3142728049370981e-43 0.0000000000000000e+00  -1.9291778694636588e-42 1.9739180013992359e-43 0.0000000000000000e+00  -2.5117707052564788e-42 6.0996833312431601e-44 0.0000000000000000e+00  -2.0145534928105569e-42 -1.9464175718423294e-43 0.0000000000000000e+00  -8.6142064846938285e-43 -2.5037355216865087e-43 0.0000000000000000e+00  -1.1326208054685583e-43 -6.4419849544782274e-44 0.0000000000000000e+00  -3.8710405058326989e-44 1.8489060391937362e-44 0.0000000000000000e+00  -6.3170013608342359e-44 -1.0814469578785138e-44 0.0000000000000000e+00  -1.4991726928041754e-44 -7.8616103271562506e-45 0.0000000000000000e+00  -9.9867530644626524e-46 5.6680822075041000e-46 0.0000000000000000e+00  -1.4041617935595330e-45 -5.3824447551682773e-46 0.0000000000000000e+00  -1.1209452738846017e-46 -2.8533145754022994e-47 0.0000000000000000e+00  -1.0182386096855559e-46 -2.1406255827811835e-47 0.0000000000000000e+00  -1.8615259214573976e-47 -1.1963645373816365e-47 0.0000000000000000e+00  -4.0855603405310815e-48 2.0308471742878085e-49 0.0000000000000000e+00  -1.4872704638714101e-48 -9.3514404221870629e-49 0.0000000000000000e+00  -1.6330668108317637e-49 2.4530525026032348e-50 0.0000000000000000e+00  -7.4602421241366700e-50 -4.4163828800990084e-50 0.0000000000000000e+00  -8.2459088182973239e-51 6.4005640925053444e-52 0.0000000000000000e+00  -3.1465062326297984e-51 -1.7817689021385031e-51 0.0000000000000000e+00  -5.1035690944009604e-52 -1.1454553361221341e-52 0.0000000000000000e+00  -8.2080829402739184e-53 -3.5434246927928889e-53 0.0000000000000000e+00  -2.6626544569274068e-53 -1.3143789965178739e-53 0.0000000000000000e+00  -1.1970056894473635e-54 3.2362502123176011e-55 0.0000000000000000e+00  -1.0640878215053174e-54 -6.7986763612688299e-55 0.0000000000000000e+00  -5.1519173759627029e-56 8.3422251319786570e-57 0.0000000000000000e+00  -2.3373027546616506e-56 -1.3226728932477480e-56 0.0000000000000000e+00  -4.8251925747300015e-57 -2.5192109118570730e-57 0.0000000000000000e+00  -2.4582498438600060e-58 8.5391491319628076e-59 0.0000000000000000e+00  -2.1589571423149879e-58 -1.3275097590661416e-58 0.0000000000000000e+00  -1.9913554313621220e-59 -6.1417487292731035e-60 0.0000000000000000e+00  -2.3750793505261820e-60 -3.3935047877303158e-61 0.0000000000000000e+00  -1.2911958469110004e-60 -7.6034574331253425e-61 0.0000000000000000e+00  -7.6916590479396139e-62 -2.1425052833803797e-62 0.0000000000000000e+00  -1.3595012803288807e-62 -2.9286731324406664e-63 0.0000000000000000e+00  -6.6406603658922232e-63 -3.7863461974809002e-63 0.0000000000000000e+00  -4.7837147841745649e-64 -1.8187536366194550e-64 0.0000000000000000e+00  -4.3638264459289456e-65 9.5762588081932391e-67 0.0000000000000000e+00  -2.9486774198832134e-65 -1.6614147689132467e-65 0.0000000000000000e+00  -3.4137988622005114e-66 -1.9880059573583252e-66 0.0000000000000000e+00  -8.9938921832771356e-68 5.4788339488034715e-68 0.0000000000000000e+00  -8.6376161982825111e-68 -4.1763192876854464e-68 0.0000000000000000e+00  -2.0684743490740171e-68 -1.2846523716619043e-68 0.0000000000000000e+00  -1.1327393942903718e-69 -5.1325090471085685e-70 0.0000000000000000e+00  -8.7941598149950194e-71 1.3786544822517684e-71 0.0000000000000000e+00  -6.9087573005589354e-71 -3.6565778346481684e-71 0.0000000000000000e+00  -1.2480068931529390e-71 -7.6612394102305446e-72 0.0000000000000000e+00  -5.9822153780575930e-73 -2.7508095204750240e-73 0.0000000000000000e+00  -3.9236828501812397e-74 7.4228281044107644e-75 0.0000000000000000e+00  -3.1566405710521875e-74 -1.4789265328261343e-74 0.0000000000000000e+00  -6.5907587545682231e-75 -3.3569659970973019e-75 0.0000000000000000e+00  -7.1799347089728015e-76 -3.1071221112416713e-76 0.0000000000000000e+00  -8.5518032542443169e-76 -1.6228578772492809e-75 0.0000000000000000e+00  -4.7734695185497700e-75 -1.3945993956740367e-74 0.0000000000000000e+00  4.3667660484514376e-75 -8.3085695957144505e-75 0.0000000000000000e+00  -1.6293186560253832e-73 -3.4273133082045161e-73 0.0000000000000000e+00  -9.2847367328080711e-71 -1.0070214479948309e-70 0.0000000000000000e+00  -7.5058814997035413e-70 -1.3177789503359145e-69 0.0000000000000000e+00  -1.0983468820862618e-69 -3.6513406275325246e-69 0.0000000000000000e+00  -7.7603097733614330e-68 -1.7114882197800132e-67 0.0000000000000000e+00  -6.5303451991725705e-68 -3.2600198205293858e-67 0.0000000000000000e+00  -6.7890688565862445e-66 -1.3501384132494969e-65 0.0000000000000000e+00  -4.5192552971909062e-66 -2.1316862492596079e-65 0.0000000000000000e+00  -9.0683591590700447e-65 -1.5576697363055263e-64 0.0000000000000000e+00  1.7217358854769914e-65 -2.1035428941820196e-64 0.0000000000000000e+00  -4.2751087130329350e-62 -6.4029705204081748e-62 0.0000000000000000e+00  -6.9976285827783719e-62 -1.7207910245602172e-61 0.0000000000000000e+00  -2.3256752890929707e-62 -2.7286622652355345e-61 0.0000000000000000e+00  -5.7395281434242415e-60 -1.1363222387937424e-59 0.0000000000000000e+00  4.7672883761193495e-60 -1.5019838276024901e-59 0.0000000000000000e+00  -2.9006347668523889e-59 -4.7492042959305166e-59 0.0000000000000000e+00  8.8206213402114769e-60 -6.0860418151394585e-59 0.0000000000000000e+00  2.3253380687744896e-59 -3.9717266372950948e-59 0.0000000000000000e+00  -5.6377531559617290e-58 -8.9479372516151805e-58 0.0000000000000000e+00  -1.3802365048134950e-59 -1.2602395107057044e-57 0.0000000000000000e+00  -4.6338446236460928e-57 -1.1637993155968648e-56 0.0000000000000000e+00  5.7496894267571989e-57 -8.6739210173512130e-57 0.0000000000000000e+00  -5.3342267758756994e-57 -7.3383897059717311e-57 0.0000000000000000e+00  -1.7672978803790920e-56 -3.7734989530730112e-56 0.0000000000000000e+00  2.1621121142160213e-56 -4.0710862223701013e-56 0.0000000000000000e+00  -5.0033378737014876e-57 -9.2009182860291724e-57 0.0000000000000000e+00  -8.1197171493140413e-56 -2.0310584086538079e-55 0.0000000000000000e+00  6.3752202723305847e-56 -5.0769376370941613e-55 0.0000000000000000e+00  -4.2908251308632350e-55 -7.2580975522350863e-55 0.0000000000000000e+00  -4.8813784412732037e-56 -1.8357459935027754e-54 0.0000000000000000e+00  1.6608527133920208e-55 -5.7396868997733159e-55 0.0000000000000000e+00  -5.1841949208303856e-55 -1.6759925806555999e-54 0.0000000000000000e+00  -2.2545798782159411e-54 -7.0719048266123827e-54 0.0000000000000000e+00  2.5834065433505928e-54 -6.0765349449864397e-54 0.0000000000000000e+00  -6.7233478676595404e-55 -2.3897651937912895e-54 0.0000000000000000e+00  5.3277179969803253e-55 -2.8190566373135464e-54 0.0000000000000000e+00  1.2829907699890263e-55 -1.4247876781642683e-54 0.0000000000000000e+00  -2.1814246071752047e-54 -3.4668279241641494e-54 0.0000000000000000e+00  5.7156408798024872e-55 -8.2270069076828275e-54 0.0000000000000000e+00  -3.9327336606737084e-54 -1.3558069140887342e-53 0.0000000000000000e+00  4.6950849880305717e-54 -7.7143519719201064e-54 0.0000000000000000e+00  2.0329185623912613e-55 -6.5059575370012527e-55 0.0000000000000000e+00  -4.8042203051058587e-54 -8.0091263995409968e-54 0.0000000000000000e+00  4.8300963130221576e-54 -7.8695114501942841e-54 0.0000000000000000e+00  -1.6630126045996055e-56 -1.3349926863602904e-55 0.0000000000000000e+00  1.1161048167882365e-56 -2.7680475984219316e-55 0.0000000000000000e+00  2.2084095861554418e-56 -9.8796612048793915e-56 0.0000000000000000e+00  -5.2081674006493967e-54 -9.3536962554544723e-54 0.0000000000000000e+00  5.5549714982181086e-54 -9.4079571799665165e-54 0.0000000000000000e+00  5.6792786979927119e-56 -1.0518889110002891e-55 0.0000000000000000e+00  -1.4340586790356488e-56 -6.2047147025045025e-56 0.0000000000000000e+00  -5.0031819579732097e-55 -9.0462775945194727e-55 0.0000000000000000e+00  -5.8192951430370397e-54 -1.0045554879666921e-53 0.0000000000000000e+00  4.5072639237166275e-54 -1.0492080694016182e-53 0.0000000000000000e+00  -3.0549114631309508e-54 -7.9851437181610201e-54 0.0000000000000000e+00  2.4408262996855635e-54 -8.5500605653060458e-54 0.0000000000000000e+00  2.2482018992721528e-54 -3.3064083059396865e-54 0.0000000000000000e+00  -5.4412652795011416e-55 -1.4797987336684843e-54 0.0000000000000000e+00  8.3632631944832904e-55 -1.5739327027080062e-54 0.0000000000000000e+00  -4.9272961439014508e-55 -9.8319211324327971e-55 0.0000000000000000e+00  5.1287757837132900e-55 -8.8555873817601226e-55 0.0000000000000000e+00  -1.5677459188500283e-56 -2.6918832113068776e-56 0.0000000000000000e+00  -4.4799794711865311e-56 -1.7217764771428349e-55 0.0000000000000000e+00  4.1751222764418785e-56 -1.7468342268497763e-55 0.0000000000000000e+00  4.8049438566862259e-57 -6.9030886876901739e-56 0.0000000000000000e+00  -2.7502058063942094e-56 -6.5424228588408173e-56 0.0000000000000000e+00  3.2896836272961899e-56 -6.4140105577401682e-56 0.0000000000000000e+00  -2.8600764791366421e-57 -2.8733256558762197e-56 0.0000000000000000e+00  1.2965643343407295e-56 -3.0021486505136203e-56 0.0000000000000000e+00  1.0028105771425268e-57 -2.3991493321298364e-57 0.0000000000000000e+00  -4.3842186542454446e-57 -7.6387900491484370e-57 0.0000000000000000e+00  4.2511797852619203e-57 -1.1007187937752703e-56 0.0000000000000000e+00  3.1254838769489416e-58 -1.0213173504922157e-57 0.0000000000000000e+00  1.4383423892455725e-58 -5.0262