<?xml version="1.0"?>
<VTKFile type="UnstructuredGrid"  version="0.1"  >
<UnstructuredGrid>
<Piece  NumberOfPoints="11902" NumberOfCells="23402">
<Points>
<DataArray  type="Float64"  NumberOfComponents="3"  format="ascii">-5 -5 0  5 -5 0  5 5 0  -5 5 0  1.06946358319484 0.0004581455653013279 0  -4.9 -5 0  -4.8 -5 0  -4.7 -5 0  -4.6 -5 0  -4.5 -5 0  -4.4 -5 0  -4.3 -5 0  -4.2 -5 0  -4.1 -5 0  -4 -5 0  -3.9 -5 0  -3.8 -5 0  -3.7 -5 0  -3.6 -5 0  -3.5 -5 0  -3.4 -5 0  -3.3 -5 0  -3.2 -5 0  -3.1 -5 0  -3 -5 0  -2.9 -5 0  -2.8 -5 0  -2.7 -5 0  -2.6 -5 0  -2.5 -5 0  -2.4 -5 0  -2.3 -5 0  -2.2 -5 0  -2.1 -5 0  -2 -5 0  -1.9 -5 0  -1.8 -5 0  -1.7 -5 0  -1.6 -5 0  -1.5 -5 0  -1.4 -5 0  -1.3 -5 0  -1.2 -5 0  -1.1 -5 0  -1 -5 0  -0.9000000000000004 -5 0  -0.7999999999999998 -5 0  -0.7000000000000002 -5 0  -0.5999999999999996 -5 0  -0.5 -5 0  -0.4000000000000004 -5 0  -0.2999999999999998 -5 0  -0.2000000000000002 -5 0  -0.09999999999999964 -5 0  0 -5 0  0.09999999999999964 -5 0  0.2000000000000002 -5 0  0.2999999999999998 -5 0  0.4000000000000004 -5 0  0.5 -5 0  0.5999999999999996 -5 0  0.7000000000000002 -5 0  0.7999999999999998 -5 0  0.9000000000000004 -5 0  1 -5 0  1.1 -5 0  1.2 -5 0  1.3 -5 0  1.4 -5 0  1.5 -5 0  1.6 -5 0  1.7 -5 0  1.8 -5 0  1.9 -5 0  2 -5 0  2.1 -5 0  2.2 -5 0  2.3 -5 0  2.4 -5 0  2.5 -5 0  2.6 -5 0  2.7 -5 0  2.8 -5 0  2.9 -5 0  3 -5 0  3.1 -5 0  3.199999999999999 -5 0  3.300000000000001 -5 0  3.4 -5 0  3.5 -5 0  3.6 -5 0  3.699999999999999 -5 0  3.800000000000001 -5 0  3.9 -5 0  4 -5 0  4.1 -5 0  4.199999999999999 -5 0  4.300000000000001 -5 0  4.4 -5 0  4.5 -5 0  4.6 -5 0  4.699999999999999 -5 0  4.800000000000001 -5 0  4.9 -5 0  5 -4.9 0  5 -4.8 0  5 -4.7 0  5 -4.6 0  5 -4.5 0  5 -4.4 0  5 -4.3 0  5 -4.2 0  5 -4.1 0  5 -4 0  5 -3.9 0  5 -3.8 0  5 -3.7 0  5 -3.6 0  5 -3.5 0  5 -3.4 0  5 -3.3 0  5 -3.2 0  5 -3.1 0  5 -3 0  5 -2.9 0  5 -2.8 0  5 -2.7 0  5 -2.6 0  5 -2.5 0  5 -2.4 0  5 -2.3 0  5 -2.2 0  5 -2.1 0  5 -2 0  5 -1.9 0  5 -1.8 0  5 -1.7 0  5 -1.6 0  5 -1.5 0  5 -1.4 0  5 -1.3 0  5 -1.2 0  5 -1.1 0  5 -1 0  5 -0.9000000000000004 0  5 -0.7999999999999998 0  5 -0.7000000000000002 0  5 -0.5999999999999996 0  5 -0.5 0  5 -0.4000000000000004 0  5 -0.2999999999999998 0  5 -0.2000000000000002 0  5 -0.09999999999999964 0  5 0 0  5 0.09999999999999964 0  5 0.2000000000000002 0  5 0.2999999999999998 0  5 0.4000000000000004 0  5 0.5 0  5 0.5999999999999996 0  5 0.7000000000000002 0  5 0.7999999999999998 0  5 0.9000000000000004 0  5 1 0  5 1.1 0  5 1.2 0  5 1.3 0  5 1.4 0  5 1.5 0  5 1.6 0  5 1.7 0  5 1.8 0  5 1.9 0  5 2 0  5 2.1 0  5 2.2 0  5 2.3 0  5 2.4 0  5 2.5 0  5 2.6 0  5 2.7 0  5 2.8 0  5 2.9 0  5 3 0  5 3.1 0  5 3.199999999999999 0  5 3.300000000000001 0  5 3.4 0  5 3.5 0  5 3.6 0  5 3.699999999999999 0  5 3.800000000000001 0  5 3.9 0  5 4 0  5 4.1 0  5 4.199999999999999 0  5 4.300000000000001 0  5 4.4 0  5 4.5 0  5 4.6 0  5 4.699999999999999 0  5 4.800000000000001 0  5 4.9 0  4.9 5 0  4.8 5 0  4.7 5 0  4.6 5 0  4.5 5 0  4.4 5 0  4.3 5 0  4.2 5 0  4.1 5 0  4 5 0  3.9 5 0  3.8 5 0  3.7 5 0  3.6 5 0  3.5 5 0  3.4 5 0  3.3 5 0  3.2 5 0  3.1 5 0  3 5 0  2.9 5 0  2.8 5 0  2.7 5 0  2.6 5 0  2.5 5 0  2.4 5 0  2.3 5 0  2.2 5 0  2.1 5 0  2 5 0  1.9 5 0  1.8 5 0  1.7 5 0  1.6 5 0  1.5 5 0  1.4 5 0  1.3 5 0  1.2 5 0  1.1 5 0  1 5 0  0.9000000000000004 5 0  0.7999999999999998 5 0  0.7000000000000002 5 0  0.5999999999999996 5 0  0.5 5 0  0.4000000000000004 5 0  0.2999999999999998 5 0  0.2000000000000002 5 0  0.09999999999999964 5 0  0 5 0  -0.09999999999999964 5 0  -0.2000000000000002 5 0  -0.2999999999999998 5 0  -0.4000000000000004 5 0  -0.5 5 0  -0.5999999999999996 5 0  -0.7000000000000002 5 0  -0.7999999999999998 5 0  -0.9000000000000004 5 0  -1 5 0  -1.1 5 0  -1.2 5 0  -1.3 5 0  -1.4 5 0  -1.5 5 0  -1.6 5 0  -1.7 5 0  -1.8 5 0  -1.9 5 0  -2 5 0  -2.1 5 0  -2.2 5 0  -2.3 5 0  -2.4 5 0  -2.5 5 0  -2.6 5 0  -2.7 5 0  -2.8 5 0  -2.9 5 0  -3 5 0  -3.1 5 0  -3.199999999999999 5 0  -3.300000000000001 5 0  -3.4 5 0  -3.5 5 0  -3.6 5 0  -3.699999999999999 5 0  -3.800000000000001 5 0  -3.9 5 0  -4 5 0  -4.1 5 0  -4.199999999999999 5 0  -4.300000000000001 5 0  -4.4 5 0  -4.5 5 0  -4.6 5 0  -4.699999999999999 5 0  -4.800000000000001 5 0  -4.9 5 0  -5 4.9 0  -5 4.8 0  -5 4.7 0  -5 4.6 0  -5 4.5 0  -5 4.4 0  -5 4.3 0  -5 4.2 0  -5 4.1 0  -5 4 0  -5 3.9 0  -5 3.8 0  -5 3.7 0  -5 3.6 0  -5 3.5 0  -5 3.4 0  -5 3.3 0  -5 3.2 0  -5 3.1 0  -5 3 0  -5 2.9 0  -5 2.8 0  -5 2.7 0  -5 2.6 0  -5 2.5 0  -5 2.4 0  -5 2.3 0  -5 2.2 0  -5 2.1 0  -5 2 0  -5 1.9 0  -5 1.8 0  -5 1.7 0  -5 1.6 0  -5 1.5 0  -5 1.4 0  -5 1.3 0  -5 1.2 0  -5 1.1 0  -5 1 0  -5 0.9000000000000004 0  -5 0.7999999999999998 0  -5 0.7000000000000002 0  -5 0.5999999999999996 0  -5 0.5 0  -5 0.4000000000000004 0  -5 0.2999999999999998 0  -5 0.2000000000000002 0  -5 0.09999999999999964 0  -5 0 0  -5 -0.09999999999999964 0  -5 -0.2000000000000002 0  -5 -0.2999999999999998 0  -5 -0.4000000000000004 0  -5 -0.5 0  -5 -0.5999999999999996 0  -5 -0.7000000000000002 0  -5 -0.7999999999999998 0  -5 -0.9000000000000004 0  -5 -1 0  -5 -1.1 0  -5 -1.2 0  -5 -1.3 0  -5 -1.4 0  -5 -1.5 0  -5 -1.6 0  -5 -1.7 0  -5 -1.8 0  -5 -1.9 0  -5 -2 0  -5 -2.1 0  -5 -2.2 0  -5 -2.3 0  -5 -2.4 0  -5 -2.5 0  -5 -2.6 0  -5 -2.7 0  -5 -2.8 0  -5 -2.9 0  -5 -3 0  -5 -3.1 0  -5 -3.199999999999999 0  -5 -3.300000000000001 0  -5 -3.4 0  -5 -3.5 0  -5 -3.6 0  -5 -3.699999999999999 0  -5 -3.800000000000001 0  -5 -3.9 0  -5 -4 0  -5 -4.1 0  -5 -4.199999999999999 0  -5 -4.300000000000001 0  -5 -4.4 0  -5 -4.5 0  -5 -4.6 0  -5 -4.699999999999999 0  -5 -4.800000000000001 0  -5 -4.9 0  1.06423814632628 0.1003227427160982 0  1.048229377437772 0.1995797805654171 0  1.021342600491658 0.2970790895887813 0  0.9851465688809641 0.3908988804216572 0  0.9389912200093007 0.4816219668224072 0  0.8837832209290336 0.5672930478818409 0  0.8194206472125476 0.6470875802346108 0  0.7464566297175886 0.7203392816766098 0  0.6666180436854283 0.7866962748460448 0  0.580170870280092 0.8454322440857263 0  0.4876711052932316 0.8954161288998671 0  0.3902197715972218 0.9366195982105955 0  0.2896675672775195 0.9688074865989244 0  0.1856774275142687 0.9908768959401514 0  0.08031740690146788 1.003487256026331 0  -0.02609473359175032 1.006032633630801 0  -0.1322590549567194 0.9982955431330438 0  -0.2371636864144619 0.9811890577308995 0  -0.3396713412169114 0.95420868233164 0  -0.4387132773141605 0.9174913386217454 0  -0.5332851354346444 0.8719992082298008 0  -0.622694250445024 0.8175734065807144 0  -0.7059327061179376 0.7551647489861651 0  -0.782196700131954 0.6853768080242588 0  -0.8508185627572162 0.6081908292599614 0  -0.910723620122858 0.5251318678344649 0  -0.9620184499962978 0.4371789407043232 0  -1.003374303924006 0.3445465189411111 0  -1.034624371736245 0.2487513527322655 0  -1.055823514243517 0.1505187405967898 0  -1.066564083891855 0.05054356632585603 0  -1.0665814141835 -0.04997851062778228 0  -1.055861254323485 -0.1498667143905252 0  -1.035457804248438 -0.2480629757999989 0  -1.003366593118905 -0.3441662057362334 0  -0.9621566623032161 -0.4364693653257017 0  -0.9110081530818045 -0.5245527648806555 0  -0.8511524970289798 -0.6074331342052669 0  -0.7824969401591995 -0.6842405833178168 0  -0.7059500540294095 -0.753921312322566 0  -0.622402256797667 -0.8159776007690763 0  -0.5335009242533704 -0.8707065593407378 0  -0.4380843223047102 -0.9161966475895995 0  -0.3389849386253142 -0.9531550382983996 0  -0.2363195840374439 -0.9803030029100219 0  -0.1315764282371285 -0.9976675472694224 0  -0.02562622827592409 -1.005767221982188 0  0.08049476568691823 -1.002982938306543 0  0.1862841986149698 -0.9901710350502941 0  0.2899060779745082 -0.9680278242243318 0  0.3912435362808702 -0.9358840823927866 0  0.4880102706723375 -0.8947434687198557 0  0.5804358969195238 -0.8448124950296388 0  0.6667985941033038 -0.7868582567327452 0  0.746610166454847 -0.7205127146477266 0  0.8192140104145954 -0.6468025602882679 0  0.8833934865872324 -0.5667768990636118 0  0.9391674105099342 -0.4812930855462347 0  0.9858554588540693 -0.3909292792654885 0  1.021937602125476 -0.2968099193428083 0  1.048274382523434 -0.1992910638992504 0  1.064274882732431 -0.1001920093060848 0  -2.449481450019376 4.919815179304337 0  -2.449437187294547 -4.912347291987757 0  4.912315250675388 2.449228858909304 0  4.920266347297646 -2.450569450177353 0  2.447330716079227 -4.897902887451871 0  2.441726348511656 4.9015945757937 0  -4.912326571081237 -2.449240584941932 0  -4.912328624186547 2.449244217129198 0  -1.749464918290257 4.913448698892968 0  -1.745210165173303 -4.916791933732285 0  4.92298884753612 1.745275917816897 0  4.911856373486261 -1.749213587917123 0  -4.912120373331975 -1.748927198016878 0  -4.912923717709015 1.74865761805804 0  1.746796392795318 4.907486783895775 0  1.74833057770779 -4.895951697383497 0  -1.149581207962026 4.911742831678975 0  -1.130362685432897 -4.919406948664196 0  -4.912508291001227 -1.149013742711021 0  -4.912337686424959 1.148812505274851 0  1.144527352199754 -4.915716332597734 0  1.149582152901636 4.911738269807138 0  4.912676133327369 1.147297663229361 0  4.923101230931727 -1.152953418519117 0  -0.5470537964735503 -4.913182190053003 0  -0.5467991603528607 4.921571088680056 0  -4.91177942609988 -0.5493118886207352 0  -4.911805566616856 0.5478628029443968 0  4.911163426601883 -0.5496418884449878 0  4.922331114172512 0.5463166841296554 0  0.5428726118350307 -4.900529171625492 0  0.5515340683323534 4.918508131883666 0  -4.913144833947457 -3.049370497713148 0  4.919632575056903 3.047317600688814 0  4.912666915438382 -3.049363829799859 0  -4.913986793458816 3.046453451913158 0  3.056109290738414 -4.918617137911379 0  -3.04950062161787 -4.912637613146731 0  3.053049645501471 4.914693498250113 0  -3.048941164798719 4.913517435060038 0  -4.911089091739854 -0.04996799946071996 0  0.04514343187465528 -4.915155826161702 0  0.04959406260803315 4.921937838184991 0  4.917872255449037 -0.05134627829987252 0  3.546260609680856 -4.919891636806606 0  -3.549597235
[...]
<PointData  Vectors="f_686"> 
<DataArray  type="Float64"  Name="f_686"  NumberOfComponents="3" format="ascii">2.6559658580597407e-76 2.6559658580597407e-76 0.0000000000000000e+00  -2.8445085011135821e-76 2.8445085011135821e-76 0.0000000000000000e+00  -8.5659604778761837e-78 -8.5659604778761837e-78 0.0000000000000000e+00  3.0308186857302911e-76 -3.0308186857302911e-76 0.0000000000000000e+00  -8.3134839907639235e-01 -1.7560216735281013e-02 0.0000000000000000e+00  4.1633308638187865e-75 6.6085145222878125e-75 0.0000000000000000e+00  2.0849363083839648e-75 2.0877767851839611e-74 0.0000000000000000e+00  -3.3983167073102612e-75 6.7649941656295959e-75 0.0000000000000000e+00  3.9907666809493079e-72 6.6762850008877769e-72 0.0000000000000000e+00  5.3035243827430443e-71 1.3469968994799333e-70 0.0000000000000000e+00  -7.8862799185133908e-72 4.5523633926520544e-71 0.0000000000000000e+00  3.2197587851014628e-69 6.1747909958064589e-69 0.0000000000000000e+00  5.1339957936967498e-68 9.4219934249747456e-68 0.0000000000000000e+00  -3.0419045934274828e-68 1.4981958072395937e-67 0.0000000000000000e+00  1.2688226346769298e-67 3.9883316597022266e-67 0.0000000000000000e+00  1.2868464826980270e-68 8.7776189478392774e-67 0.0000000000000000e+00  5.4075177416839698e-64 8.8585069879237107e-64 0.0000000000000000e+00  4.7858002149664525e-65 2.4416952305727250e-63 0.0000000000000000e+00  1.3359589110770306e-62 2.2091968491589629e-62 0.0000000000000000e+00  8.0088494762215842e-63 8.3230898934866593e-62 0.0000000000000000e+00  6.8521564732924728e-61 1.1081470103377561e-60 0.0000000000000000e+00  4.0119326568651119e-60 7.0429151170545245e-60 0.0000000000000000e+00  -2.8085404391178786e-60 7.6722714070019828e-60 0.0000000000000000e+00  5.5845829361206774e-59 1.1421727306025217e-58 0.0000000000000000e+00  -1.7316843528459221e-59 1.1628644735315783e-58 0.0000000000000000e+00  -2.9541032711254456e-59 6.8072554444040181e-59 0.0000000000000000e+00  1.7717397160516987e-58 3.3232223956431534e-58 0.0000000000000000e+00  7.1745175025621264e-58 2.0971562937097794e-57 0.0000000000000000e+00  2.8065098422225608e-57 6.2642086031704701e-57 0.0000000000000000e+00  -3.3383755299714785e-57 5.7001750048004150e-57 0.0000000000000000e+00  -3.4478616530719363e-58 1.0938488627103089e-57 0.0000000000000000e+00  1.8671705085137697e-56 2.9533934633454066e-56 0.0000000000000000e+00  -1.3800215168323087e-56 3.5150599676036864e-56 0.0000000000000000e+00  1.1635292699502099e-56 2.9067852019795166e-56 0.0000000000000000e+00  8.5277572950067512e-56 2.1073252874910599e-55 0.0000000000000000e+00  -2.4134839836638010e-56 5.7413213152980317e-55 0.0000000000000000e+00  5.0714618841871084e-57 8.6684165184928764e-57 0.0000000000000000e+00  5.3952420062797074e-56 1.3876106909031082e-55 0.0000000000000000e+00  1.5068199201532428e-55 6.1860240658224718e-55 0.0000000000000000e+00  -2.1695739333529164e-55 3.4948209539584463e-55 0.0000000000000000e+00  9.5424127602907726e-55 1.7323591074859220e-54 0.0000000000000000e+00  -4.2642956473639465e-55 4.3586393749501888e-54 0.0000000000000000e+00  -2.2011324054835403e-55 2.6807208828141270e-54 0.0000000000000000e+00  -9.2839996255069258e-56 9.4337771147444365e-55 0.0000000000000000e+00  -1.0932301911873027e-55 1.8141094098116216e-55 0.0000000000000000e+00  2.6674963085029005e-54 5.2528629283092539e-54 0.0000000000000000e+00  -2.0855458035331623e-54 4.1259960336652084e-54 0.0000000000000000e+00  -6.9410651436430645e-55 8.0419272777581840e-55 0.0000000000000000e+00  -1.2734023867893531e-55 2.7077022100742753e-55 0.0000000000000000e+00  8.9721104682719883e-55 1.4490512010410318e-54 0.0000000000000000e+00  9.1220078162087922e-55 6.1595017476129461e-54 0.0000000000000000e+00  -1.0870300920388297e-54 5.8981073650166073e-54 0.0000000000000000e+00  4.9624855072940823e-55 4.6505414549734584e-54 0.0000000000000000e+00  1.8587890484515365e-56 5.7950344760024328e-54 0.0000000000000000e+00  2.9072996391969103e-55 6.1532610779771197e-54 0.0000000000000000e+00  -1.2155258350704577e-54 2.0452462622125479e-54 0.0000000000000000e+00  -6.2325833575057940e-55 1.4732430807598079e-53 0.0000000000000000e+00  4.3017122633975703e-54 7.4594417279741314e-54 0.0000000000000000e+00  -4.1908848785026372e-54 8.1096613813978592e-54 0.0000000000000000e+00  1.8531490390792944e-54 3.9498933759429056e-54 0.0000000000000000e+00  -7.1206586242070921e-55 9.5054303787004146e-54 0.0000000000000000e+00  1.2827633125728805e-54 9.3248397811836858e-54 0.0000000000000000e+00  -1.6270765506588683e-54 4.4063390958871133e-54 0.0000000000000000e+00  -8.9433319075193242e-55 2.4113108390707828e-54 0.0000000000000000e+00  3.2174283862186378e-55 1.2975980892391585e-54 0.0000000000000000e+00  2.5633374812800659e-55 2.5361870057575066e-54 0.0000000000000000e+00  -7.6983679705441683e-56 3.4913012134794082e-54 0.0000000000000000e+00  -6.8953198143838768e-55 1.4877883629828268e-54 0.0000000000000000e+00  2.3052104990313392e-55 4.4050737485336604e-55 0.0000000000000000e+00  -2.2435428256612013e-55 6.0458365304261894e-55 0.0000000000000000e+00  4.8818007525135672e-56 2.3934491210890686e-55 0.0000000000000000e+00  1.8110506089764870e-55 9.5066939275858331e-55 0.0000000000000000e+00  -3.2160974429901592e-55 5.3357190686390887e-55 0.0000000000000000e+00  -1.5514337714881907e-56 4.8388445745551496e-56 0.0000000000000000e+00  -1.1112383206093323e-57 1.1345446813778115e-56 0.0000000000000000e+00  6.5824444204075585e-57 2.3480553993012462e-56 0.0000000000000000e+00  -8.7901341925807582e-57 1.5115466500127285e-56 0.0000000000000000e+00  1.7025743311014288e-57 2.8686462585171756e-57 0.0000000000000000e+00  -1.2181175251090187e-57 2.7373739159561074e-57 0.0000000000000000e+00  5.0704510813974289e-57 7.7549189439048962e-57 0.0000000000000000e+00  -4.4500214390586310e-57 1.1296652157413542e-56 0.0000000000000000e+00  -1.7805501949592488e-58 9.4133013124975987e-58 0.0000000000000000e+00  -2.3509463448499289e-58 4.6759892133790552e-58 0.0000000000000000e+00  -7.7481485998879814e-61 8.8110955776679421e-59 0.0000000000000000e+00  -2.4079056411645874e-59 6.4456816397622942e-59 0.0000000000000000e+00  -7.0114933384705095e-60 2.5061846476082646e-59 0.0000000000000000e+00  -4.3324899299926746e-60 2.2421752422812401e-59 0.0000000000000000e+00  -3.0252296226475740e-60 7.1929250320207278e-60 0.0000000000000000e+00  -8.4198593019222136e-62 4.4420591167652573e-61 0.0000000000000000e+00  -1.0637930721517398e-61 2.2422657848420703e-61 0.0000000000000000e+00  -3.5512838721297119e-62 5.6996110533857938e-62 0.0000000000000000e+00  -3.8728771434683793e-64 6.7241794887525441e-64 0.0000000000000000e+00  -2.4108337513849791e-65 5.1856724893609978e-65 0.0000000000000000e+00  3.6752479944899522e-66 1.0362735411060913e-65 0.0000000000000000e+00  -4.8094603055843165e-66 9.2865358391672292e-66 0.0000000000000000e+00  -6.6560853266266371e-68 2.7744127478000690e-67 0.0000000000000000e+00  -7.8093440322372807e-68 1.2951909278592754e-67 0.0000000000000000e+00  -8.0221127613040627e-69 1.1762663378465817e-68 0.0000000000000000e+00  -5.6103352239608708e-70 9.5386439455023845e-70 0.0000000000000000e+00  -3.7669024299178881e-71 6.8287555342176379e-71 0.0000000000000000e+00  -1.8735400901963224e-72 3.2066922679596034e-72 0.0000000000000000e+00  -1.2158686512993568e-73 2.7282857954625616e-73 0.0000000000000000e+00  -4.4151644964991978e-75 1.2916514693925287e-74 0.0000000000000000e+00  -2.5464582915467445e-75 4.2425943732007491e-75 0.0000000000000000e+00  -9.7716155950686229e-76 3.5559454996916722e-76 0.0000000000000000e+00  -1.6204374358240697e-75 -2.3863902937031324e-76 0.0000000000000000e+00  -2.4509582089855374e-74 1.1572958352168627e-74 0.0000000000000000e+00  -3.6795456605031121e-74 1.5467630073673933e-75 0.0000000000000000e+00  -3.8869115909378250e-73 1.4300850751669209e-73 0.0000000000000000e+00  -1.0260915091714311e-71 6.2175560885426497e-72 0.0000000000000000e+00  -6.7573880690236236e-71 3.6934284116157323e-71 0.0000000000000000e+00  -1.0612445350604206e-70 3.8844641992008000e-72 0.0000000000000000e+00  -8.9178001933331729e-70 3.2933210276397910e-70 0.0000000000000000e+00  -2.1367256838373223e-68 1.2789788325997421e-68 0.0000000000000000e+00  -1.0273273205584165e-67 5.0765455236433277e-68 0.0000000000000000e+00  -1.0087825120537536e-67 -5.9801569543328127e-68 0.0000000000000000e+00  -3.1797649469135043e-66 1.7325917337258121e-66 0.0000000000000000e+00  -3.2013344465064482e-65 1.8158150223817879e-65 0.0000000000000000e+00  -5.3907204408522420e-65 4.9970956030743325e-66 0.0000000000000000e+00  -4.4503114012796870e-64 1.4326727819856271e-64 0.0000000000000000e+00  -7.0388881412081148e-63 4.3106102474470530e-63 0.0000000000000000e+00  -1.5106389644053361e-62 3.7027503222087629e-63 0.0000000000000000e+00  -8.4547145649970760e-62 1.9437763711830293e-62 0.0000000000000000e+00  -1.3652068956303845e-60 8.3999765423173454e-61 0.0000000000000000e+00  -2.4211926571814564e-60 3.3306202506002519e-61 0.0000000000000000e+00  -2.1263384907387535e-59 7.2860926178861850e-60 0.0000000000000000e+00  -2.4370777494986307e-58 1.4690985286105162e-58 0.0000000000000000e+00  -2.5744925211973920e-58 -9.2426462516819701e-59 0.0000000000000000e+00  -6.0170500510247505e-57 2.7290759870875887e-57 0.0000000000000000e+00  -2.5014038640495554e-56 1.2134995532457638e-56 0.0000000000000000e+00  -5.5501909588978868e-56 -8.4630800574594016e-57 0.0000000000000000e+00  -1.0208948967696658e-54 6.3311069583428604e-55 0.0000000000000000e+00  -1.1154073066029754e-54 -3.3778252548764705e-55 0.0000000000000000e+00  -2.4270566008081219e-53 1.2373372546446436e-53 0.0000000000000000e+00  -6.6380982454332886e-53 2.9076191718805593e-53 0.0000000000000000e+00  -4.3750918974284586e-52 1.1915710762416740e-52 0.0000000000000000e+00  -2.6904664260455644e-51 1.6134717067869420e-51 0.0000000000000000e+00  -7.6638209377774023e-51 -2.0322463898408847e-52 0.0000000000000000e+00  -7.2625501294155914e-50 4.4479803841366071e-50 0.0000000000000000e+00  -1.6155019163621643e-49 -1.4189908850622483e-50 0.0000000000000000e+00  -1.7431658021053014e-48 9.7478563737494284e-49 0.0000000000000000e+00  -4.3396973943653648e-48 -1.9454535490953223e-49 0.0000000000000000e+00  -2.0273563602704875e-47 1.0681870394644303e-47 0.0000000000000000e+00  -1.1052893397081257e-46 1.8269801483407838e-47 0.0000000000000000e+00  -1.0273136703644714e-46 2.3615952437060549e-47 0.0000000000000000e+00  -1.2461978359402630e-45 5.0421270846107279e-46 0.0000000000000000e+00  -8.6910898479126273e-46 -5.4392910233094099e-46 0.0000000000000000e+00  -1.3495802487711123e-44 7.7292185768766375e-45 0.0000000000000000e+00  -5.8075415619823824e-44 1.3156763817300743e-44 0.0000000000000000e+00  -3.6077176564806558e-44 -1.6738740976654996e-44 0.0000000000000000e+00  -1.1454770213560984e-43 6.2132818001455362e-44 0.0000000000000000e+00  -8.4235520596631710e-43 2.2133716913061907e-43 0.0000000000000000e+00  -1.9304564246987314e-42 1.8878033553605520e-43 0.0000000000000000e+00  -2.5131272922034086e-42 5.8300992215341023e-44 0.0000000000000000e+00  -2.0158323118544454e-42 -1.8614933700769514e-43 0.0000000000000000e+00  -8.6245413722446822e-43 -2.3944545651248387e-43 0.0000000000000000e+00  -1.1353801319143576e-43 -6.1617571342737383e-44 0.0000000000000000e+00  -3.8633061994992576e-44 1.7683885219635331e-44 0.0000000000000000e+00  -6.3264938807945203e-44 -1.0366874735755412e-44 0.0000000000000000e+00  -1.5053629349460988e-44 -7.5337669820790798e-45 0.0000000000000000e+00  -9.9415262191660336e-46 5.4322067421858767e-46 0.0000000000000000e+00  -1.4096802912503704e-45 -5.1687114276258503e-46 0.0000000000000000e+00  -1.1239008366467046e-46 -2.7405250304676987e-47 0.0000000000000000e+00  -1.0209844267314620e-46 -2.0624150755767227e-47 0.0000000000000000e+00  -1.8760424043940948e-47 -1.1517733664962972e-47 0.0000000000000000e+00  -4.0842020927369395e-48 1.9360290669565741e-49 0.0000000000000000e+00  -1.4998481248401217e-48 -9.0252721462118962e-49 0.0000000000000000e+00  -1.6300303448321649e-49 2.3609015737527848e-50 0.0000000000000000e+00  -7.5236805264468562e-50 -4.2731000765426106e-50 0.0000000000000000e+00  -8.2376419328686184e-51 6.1564366338260218e-52 0.0000000000000000e+00  -3.1731249554165917e-51 -1.7282958919865683e-51 0.0000000000000000e+00  -5.1211757785402501e-52 -1.1147323832199830e-52 0.0000000000000000e+00  -8.2620330812599066e-53 -3.4457764438881050e-53 0.0000000000000000e+00  -2.6827359496776220e-53 -1.2807049622001414e-53 0.0000000000000000e+00  -1.1920693916523017e-54 3.1544109790799181e-55 0.0000000000000000e+00  -1.0743665187669858e-54 -6.6394466026573623e-55 0.0000000000000000e+00  -5.1389860161860842e-56 8.1250996025321611e-57 0.0000000000000000e+00  -2.3568306682187266e-56 -1.2946083768319635e-56 0.0000000000000000e+00  -4.8613676532115513e-57 -2.4701229868164209e-57 0.0000000000000000e+00  -2.4460536002846496e-58 8.3747142008580545e-59 0.0000000000000000e+00  -2.1772517623773446e-58 -1.3040415427210501e-58 0.0000000000000000e+00  -1.9993333275084927e-59 -6.0459194776240501e-60 0.0000000000000000e+00  -2.3795050899419146e-60 -3.3398710498090372e-61 0.0000000000000000e+00  -1.3006450259669071e-60 -7.4933969665269248e-61 0.0000000000000000e+00  -7.7160052517032290e-62 -2.1158702903187498e-62 0.0000000000000000e+00  -1.3628841219286678e-62 -2.8910824476130738e-63 0.0000000000000000e+00  -6.6817464591705082e-63 -3.7421562230369072e-63 0.0000000000000000e+00  -4.8017673974416289e-64 -1.8000893385060642e-64 0.0000000000000000e+00  -4.3628819999735788e-65 9.4786293242725429e-67 0.0000000000000000e+00  -2.9637852664967085e-65 -1.6462169686834188e-65 0.0000000000000000e+00  -3.4303184884703517e-66 -1.9717993179552884e-66 0.0000000000000000e+00  -8.9486425212821245e-68 5.4344958488076719e-68 0.0000000000000000e+00  -8.6678998512346030e-68 -4.1474332969216853e-68 0.0000000000000000e+00  -2.0768242708957283e-68 -1.2768287024477344e-68 0.0000000000000000e+00  -1.1355753846767388e-69 -5.1064908212551902e-70 0.0000000000000000e+00  -8.7866642531742811e-71 1.3717778798550570e-71 0.0000000000000000e+00  -6.9255584814422261e-71 -3.6413803037485154e-71 0.0000000000000000e+00  -1.2509486654362973e-71 -7.6349120436829198e-72 0.0000000000000000e+00  -5.9902021334628585e-73 -2.7437432088633025e-73 0.0000000000000000e+00  -3.9216126626831250e-74 7.4045068983231602e-75 0.0000000000000000e+00  -3.1595030447663598e-74 -1.4764097102514774e-74 0.0000000000000000e+00  -6.5946830271312775e-75 -3.3535290518428125e-75 0.0000000000000000e+00  -7.1810300810476262e-76 -3.1061655102058944e-76 0.0000000000000000e+00  -8.5474733784978347e-76 -1.6232361506287521e-75 0.0000000000000000e+00  -4.7706488056192859e-75 -1.3948470377643431e-74 0.0000000000000000e+00  4.3567934245990318e-75 -8.2999265512099095e-75 0.0000000000000000e+00  -1.6254529326466814e-73 -3.4306619670137512e-73 0.0000000000000000e+00  -9.2542081906809219e-71 -1.0096465753190135e-70 0.0000000000000000e+00  -7.4754905266409596e-70 -1.3203667672576305e-69 0.0000000000000000e+00  -1.0931400537840312e-69 -3.6557332720229170e-69 0.0000000000000000e+00  -7.7190525979330723e-68 -1.7149387997413369e-67 0.0000000000000000e+00  -6.4898733570803021e-68 -3.2633543100036500e-67 0.0000000000000000e+00  -6.7447715917805524e-66 -1.3537703950477491e-65 0.0000000000000000e+00  -4.4841564657034593e-66 -2.1344908876787155e-65 0.0000000000000000e+00  -8.9924225215050161e-65 -1.5636586753469779e-64 0.0000000000000000e+00  1.7055485940712836e-65 -2.1022965295318189e-64 0.0000000000000000e+00  -4.2334155511337871e-62 -6.4348220540808545e-62 0.0000000000000000e+00  -6.9211043526836358e-62 -1.7264576403479350e-61 0.0000000000000000e+00  -2.2981113876887682e-62 -2.7306528798156427e-61 0.0000000000000000e+00  -5.6698344212731774e-60 -1.1413188011886664e-59 0.0000000000000000e+00  4.6971816928169837e-60 -1.4973218918080418e-59 0.0000000000000000e+00  -2.8595064568640765e-59 -4.7769380193958475e-59 0.0000000000000000e+00  8.6842259600384928e-60 -6.0772159185864546e-59 0.0000000000000000e+00  2.2862437024113325e-59 -3.9475499633460485e-59 0.0000000000000000e+00  -5.5428857345125449e-58 -9.0065758137455028e-58 0.0000000000000000e+00  -1.3551236468145612e-59 -1.2603872333240079e-57 0.0000000000000000e+00  -4.5495767374554240e-57 -1.1687674513181687e-56 0.0000000000000000e+00  5.6316160065564613e-57 -8.6104962918029971e-57 0.0000000000000000e+00  -5.2236044585704324e-57 -7.3973195400284347e-57 0.0000000000000000e+00  -1.7286102882597182e-56 -3.7931050490367490e-56 0.0000000000000000e+00  2.1115561795960048e-56 -4.0471610618998995e-56 0.0000000000000000e+00  -4.8853611472665766e-57 -9.2562145683299783e-57 0.0000000000000000e+00  -7.9237854277253235e-56 -2.0400017222579674e-55 0.0000000000000000e+00  6.1852033218349535e-56 -5.0705817311940497e-55 0.0000000000000000e+00  -4.1770078715263863e-55 -7.3035967950229521e-55 0.0000000000000000e+00  -4.8109497191512060e-56 -1.8364562099103212e-54 0.0000000000000000e+00  1.6133916108396051e-55 -5.7231302084888010e-55 0.0000000000000000e+00  -5.0392452134059956e-55 -1.6813175166342489e-54 0.0000000000000000e+00  -2.1889943658928555e-54 -7.0940258872797421e-54 0.0000000000000000e+00  2.5016505512480481e-54 -6.0549363308654176e-54 0.0000000000000000e+00  -6.5176833766617632e-55 -2.3958732232282000e-54 0.0000000000000000e+00  5.1467502333601751e-55 -2.8156130728465909e-54 0.0000000000000000e+00  1.2365765161859300e-55 -1.4242483803579224e-54 0.0000000000000000e+00  -2.1083654472623965e-54 -3.4815248675170057e-54 0.0000000000000000e+00  5.4992587409036352e-55 -8.2263394003047834e-54 0.0000000000000000e+00  -3.7991158040137143e-54 -1.3582812848081631e-53 0.0000000000000000e+00  4.5298385158295879e-54 -7.6939368141857418e-54 0.0000000000000000e+00  1.9600102425836793e-55 -6.5000477526917703e-55 0.0000000000000000e+00  -4.6330513940156492e-54 -8.0254912779214076e-54 0.0000000000000000e+00  4.6558948869472274e-54 -7.8599417465784864e-54 0.0000000000000000e+00  -1.6029033127005888e-56 -1.3352499431815278e-55 0.0000000000000000e+00  1.0749310397768916e-56 -2.7688550068210723e-55 0.0000000000000000e+00  2.1282956291689871e-56 -9.8799049080142484e-56 0.0000000000000000e+00  -5.0192713572897624e-54 -9.3509998788636754e-54 0.0000000000000000e+00  5.3546115762775832e-54 -9.4190243563893057e-54 0.0000000000000000e+00  5.4754193247002880e-56 -1.0533914291597880e-55 0.0000000000000000e+00  -1.3822008032487580e-56 -6.2019002422940043e-56 0.0000000000000000e+00  -4.8254817154089770e-55 -9.0277992617897506e-55 0.0000000000000000e+00  -5.6148996924133844e-54 -1.0019332410902577e-53 0.0000000000000000e+00  4.3516349885558653e-54 -1.0516763964199240e-53 0.0000000000000000e+00  -2.9506546120809568e-54 -7.9667600758495114e-54 0.0000000000000000e+00  2.3589357530264200e-54 -8.5664027387809213e-54 0.0000000000000000e+00  2.1743206415694172e-54 -3.3230249472339783e-54 0.0000000000000000e+00  -5.2646329540440911e-55 -1.4755897831045216e-54 0.0000000000000000e+00  8.1030501656719292e-55 -1.5812375143421947e-54 0.0000000000000000e+00  -4.7726108220527751e-55 -9.7897724840348675e-55 0.0000000000000000e+00  4.9769395690946560e-55 -8.9046455051495890e-55 0.0000000000000000e+00  -1.5215924849626097e-56 -2.6767749957921598e-56 0.0000000000000000e+00  -4.3463561882691151e-56 -1.7175054358637429e-55 0.0000000000000000e+00  4.0669519068759628e-56 -1.7513684762729342e-55 0.0000000000000000e+00  4.7037589378646457e-57 -6.9088433867561964e-56 0.0000000000000000e+00  -2.6791431473552249e-56 -6.5127553884253844e-56 0.0000000000000000e+00  3.2088780261591486e-56 -6.4501789903682702e-56 0.0000000000000000e+00  -2.7918247530778903e-57 -2.8701591552129025e-56 0.0000000000000000e+00  1.2680541097820993e-56 -3.0166078363889454e-56 0.0000000000000000e+00  9.8166602990006301e-58 -2.4102962259603696e-57 0.0000000000000000e+00  -4.2908043803753668e-57 -7.5900570060410608e-57 0.0000000000000000e+00  4.1703014750514562e-57 -1.1053552523276385e-56 0.0000000000000000e+00  3.0663134754179067e-58 -1.0247148743302847e-57 0.0000000000000000e+00  1.4125186976590480e-58 -5.041613