<?xml version="1.0"?>
<VTKFile type="UnstructuredGrid"  version="0.1"  >
<UnstructuredGrid>
<Piece  NumberOfPoints="11902" NumberOfCells="23402">
<Points>
<DataArray  type="Float64"  NumberOfComponents="3"  format="ascii">-5 -5 0  5 -5 0  5 5 0  -5 5 0  1.265215780407599 0.001268149056653459 0  -4.9 -5 0  -4.8 -5 0  -4.7 -5 0  -4.6 -5 0  -4.5 -5 0  -4.4 -5 0  -4.3 -5 0  -4.2 -5 0  -4.1 -5 0  -4 -5 0  -3.9 -5 0  -3.8 -5 0  -3.7 -5 0  -3.6 -5 0  -3.5 -5 0  -3.4 -5 0  -3.3 -5 0  -3.2 -5 0  -3.1 -5 0  -3 -5 0  -2.9 -5 0  -2.8 -5 0  -2.7 -5 0  -2.6 -5 0  -2.5 -5 0  -2.4 -5 0  -2.3 -5 0  -2.2 -5 0  -2.1 -5 0  -2 -5 0  -1.9 -5 0  -1.8 -5 0  -1.7 -5 0  -1.6 -5 0  -1.5 -5 0  -1.4 -5 0  -1.3 -5 0  -1.2 -5 0  -1.1 -5 0  -1 -5 0  -0.9000000000000004 -5 0  -0.7999999999999998 -5 0  -0.7000000000000002 -5 0  -0.5999999999999996 -5 0  -0.5 -5 0  -0.4000000000000004 -5 0  -0.2999999999999998 -5 0  -0.2000000000000002 -5 0  -0.09999999999999964 -5 0  0 -5 0  0.09999999999999964 -5 0  0.2000000000000002 -5 0  0.2999999999999998 -5 0  0.4000000000000004 -5 0  0.5 -5 0  0.5999999999999996 -5 0  0.7000000000000002 -5 0  0.7999999999999998 -5 0  0.9000000000000004 -5 0  1 -5 0  1.1 -5 0  1.2 -5 0  1.3 -5 0  1.4 -5 0  1.5 -5 0  1.6 -5 0  1.7 -5 0  1.8 -5 0  1.9 -5 0  2 -5 0  2.1 -5 0  2.2 -5 0  2.3 -5 0  2.4 -5 0  2.5 -5 0  2.6 -5 0  2.7 -5 0  2.8 -5 0  2.9 -5 0  3 -5 0  3.1 -5 0  3.199999999999999 -5 0  3.300000000000001 -5 0  3.4 -5 0  3.5 -5 0  3.6 -5 0  3.699999999999999 -5 0  3.800000000000001 -5 0  3.9 -5 0  4 -5 0  4.1 -5 0  4.199999999999999 -5 0  4.300000000000001 -5 0  4.4 -5 0  4.5 -5 0  4.6 -5 0  4.699999999999999 -5 0  4.800000000000001 -5 0  4.9 -5 0  5 -4.9 0  5 -4.8 0  5 -4.7 0  5 -4.6 0  5 -4.5 0  5 -4.4 0  5 -4.3 0  5 -4.2 0  5 -4.1 0  5 -4 0  5 -3.9 0  5 -3.8 0  5 -3.7 0  5 -3.6 0  5 -3.5 0  5 -3.4 0  5 -3.3 0  5 -3.2 0  5 -3.1 0  5 -3 0  5 -2.9 0  5 -2.8 0  5 -2.7 0  5 -2.6 0  5 -2.5 0  5 -2.4 0  5 -2.3 0  5 -2.2 0  5 -2.1 0  5 -2 0  5 -1.9 0  5 -1.8 0  5 -1.7 0  5 -1.6 0  5 -1.5 0  5 -1.4 0  5 -1.3 0  5 -1.2 0  5 -1.1 0  5 -1 0  5 -0.9000000000000004 0  5 -0.7999999999999998 0  5 -0.7000000000000002 0  5 -0.5999999999999996 0  5 -0.5 0  5 -0.4000000000000004 0  5 -0.2999999999999998 0  5 -0.2000000000000002 0  5 -0.09999999999999964 0  5 0 0  5 0.09999999999999964 0  5 0.2000000000000002 0  5 0.2999999999999998 0  5 0.4000000000000004 0  5 0.5 0  5 0.5999999999999996 0  5 0.7000000000000002 0  5 0.7999999999999998 0  5 0.9000000000000004 0  5 1 0  5 1.1 0  5 1.2 0  5 1.3 0  5 1.4 0  5 1.5 0  5 1.6 0  5 1.7 0  5 1.8 0  5 1.9 0  5 2 0  5 2.1 0  5 2.2 0  5 2.3 0  5 2.4 0  5 2.5 0  5 2.6 0  5 2.7 0  5 2.8 0  5 2.9 0  5 3 0  5 3.1 0  5 3.199999999999999 0  5 3.300000000000001 0  5 3.4 0  5 3.5 0  5 3.6 0  5 3.699999999999999 0  5 3.800000000000001 0  5 3.9 0  5 4 0  5 4.1 0  5 4.199999999999999 0  5 4.300000000000001 0  5 4.4 0  5 4.5 0  5 4.6 0  5 4.699999999999999 0  5 4.800000000000001 0  5 4.9 0  4.9 5 0  4.8 5 0  4.7 5 0  4.6 5 0  4.5 5 0  4.4 5 0  4.3 5 0  4.2 5 0  4.1 5 0  4 5 0  3.9 5 0  3.8 5 0  3.7 5 0  3.6 5 0  3.5 5 0  3.4 5 0  3.3 5 0  3.2 5 0  3.1 5 0  3 5 0  2.9 5 0  2.8 5 0  2.7 5 0  2.6 5 0  2.5 5 0  2.4 5 0  2.3 5 0  2.2 5 0  2.1 5 0  2 5 0  1.9 5 0  1.8 5 0  1.7 5 0  1.6 5 0  1.5 5 0  1.4 5 0  1.3 5 0  1.2 5 0  1.1 5 0  1 5 0  0.9000000000000004 5 0  0.7999999999999998 5 0  0.7000000000000002 5 0  0.5999999999999996 5 0  0.5 5 0  0.4000000000000004 5 0  0.2999999999999998 5 0  0.2000000000000002 5 0  0.09999999999999964 5 0  0 5 0  -0.09999999999999964 5 0  -0.2000000000000002 5 0  -0.2999999999999998 5 0  -0.4000000000000004 5 0  -0.5 5 0  -0.5999999999999996 5 0  -0.7000000000000002 5 0  -0.7999999999999998 5 0  -0.9000000000000004 5 0  -1 5 0  -1.1 5 0  -1.2 5 0  -1.3 5 0  -1.4 5 0  -1.5 5 0  -1.6 5 0  -1.7 5 0  -1.8 5 0  -1.9 5 0  -2 5 0  -2.1 5 0  -2.2 5 0  -2.3 5 0  -2.4 5 0  -2.5 5 0  -2.6 5 0  -2.7 5 0  -2.8 5 0  -2.9 5 0  -3 5 0  -3.1 5 0  -3.199999999999999 5 0  -3.300000000000001 5 0  -3.4 5 0  -3.5 5 0  -3.6 5 0  -3.699999999999999 5 0  -3.800000000000001 5 0  -3.9 5 0  -4 5 0  -4.1 5 0  -4.199999999999999 5 0  -4.300000000000001 5 0  -4.4 5 0  -4.5 5 0  -4.6 5 0  -4.699999999999999 5 0  -4.800000000000001 5 0  -4.9 5 0  -5 4.9 0  -5 4.8 0  -5 4.7 0  -5 4.6 0  -5 4.5 0  -5 4.4 0  -5 4.3 0  -5 4.2 0  -5 4.1 0  -5 4 0  -5 3.9 0  -5 3.8 0  -5 3.7 0  -5 3.6 0  -5 3.5 0  -5 3.4 0  -5 3.3 0  -5 3.2 0  -5 3.1 0  -5 3 0  -5 2.9 0  -5 2.8 0  -5 2.7 0  -5 2.6 0  -5 2.5 0  -5 2.4 0  -5 2.3 0  -5 2.2 0  -5 2.1 0  -5 2 0  -5 1.9 0  -5 1.8 0  -5 1.7 0  -5 1.6 0  -5 1.5 0  -5 1.4 0  -5 1.3 0  -5 1.2 0  -5 1.1 0  -5 1 0  -5 0.9000000000000004 0  -5 0.7999999999999998 0  -5 0.7000000000000002 0  -5 0.5999999999999996 0  -5 0.5 0  -5 0.4000000000000004 0  -5 0.2999999999999998 0  -5 0.2000000000000002 0  -5 0.09999999999999964 0  -5 0 0  -5 -0.09999999999999964 0  -5 -0.2000000000000002 0  -5 -0.2999999999999998 0  -5 -0.4000000000000004 0  -5 -0.5 0  -5 -0.5999999999999996 0  -5 -0.7000000000000002 0  -5 -0.7999999999999998 0  -5 -0.9000000000000004 0  -5 -1 0  -5 -1.1 0  -5 -1.2 0  -5 -1.3 0  -5 -1.4 0  -5 -1.5 0  -5 -1.6 0  -5 -1.7 0  -5 -1.8 0  -5 -1.9 0  -5 -2 0  -5 -2.1 0  -5 -2.2 0  -5 -2.3 0  -5 -2.4 0  -5 -2.5 0  -5 -2.6 0  -5 -2.7 0  -5 -2.8 0  -5 -2.9 0  -5 -3 0  -5 -3.1 0  -5 -3.199999999999999 0  -5 -3.300000000000001 0  -5 -3.4 0  -5 -3.5 0  -5 -3.6 0  -5 -3.699999999999999 0  -5 -3.800000000000001 0  -5 -3.9 0  -5 -4 0  -5 -4.1 0  -5 -4.199999999999999 0  -5 -4.300000000000001 0  -5 -4.4 0  -5 -4.5 0  -5 -4.6 0  -5 -4.699999999999999 0  -5 -4.800000000000001 0  -5 -4.9 0  1.257258923302831 0.09257412308996371 0  1.23507590388933 0.1903364039043774 0  1.201143435217355 0.2872225585709529 0  1.158472129153212 0.3757379573808967 0  1.09967187412003 0.4669471918644665 0  1.032831590541472 0.5502147628835631 0  0.9543198196350327 0.630803842512441 0  0.8670546393487241 0.70567437992965 0  0.7752310880225586 0.7707820758860633 0  0.6735698425410344 0.8282583050827067 0  0.5598629978477617 0.8805011003693795 0  0.4460159571572163 0.9255708840618305 0  0.3358582035181304 0.9570157739634112 0  0.2088142593556371 0.9798324347087667 0  0.08717440573461981 0.9980618705868869 0  -0.02614429809811794 1.001678048434073 0  -0.1438139983525313 0.9881419775104591 0  -0.2744460987356984 0.9680231777909706 0  -0.3948632380953829 0.9437555844168927 0  -0.5039933205629968 0.9088682328416943 0  -0.6133955566845583 0.8624968401028186 0  -0.7152885492415469 0.8072554588993364 0  -0.8096163185573778 0.7430057428673011 0  -0.9013198765985766 0.6692405177235486 0  -0.988096053444952 0.5887960175273721 0  -1.0631127706812 0.5069297107235519 0  -1.125447703839445 0.4228130084551858 0  -1.181201292596953 0.3283660249355931 0  -1.218390529092524 0.2420531218048417 0  -1.242641887197745 0.1485482558284644 0  -1.252756091761335 0.05284274746663315 0  -1.25269025555886 -0.05053625332237067 0  -1.242480835740966 -0.1455058206699657 0  -1.218031159125328 -0.2357635403082443 0  -1.175588497693595 -0.3313131517409124 0  -1.125743875883104 -0.4239565820878219 0  -1.065395676979918 -0.5066936931299335 0  -0.9906912290131504 -0.5878137855341983 0  -0.90451312049628 -0.6672126246394029 0  -0.8138284512151945 -0.7383484353665812 0  -0.718747076203514 -0.7988200685502351 0  -0.6142544977203269 -0.8522900563884026 0  -0.4978385861524662 -0.902083259574867 0  -0.3856079357864514 -0.9419609444707324 0  -0.2711334904182274 -0.9678913089009293 0  -0.1420094983596507 -0.9882307114760179 0  -0.02744240491472084 -1.000907363607454 0  0.08533795526490175 -0.9935208304471317 0  0.2156735480198088 -0.9754566876952993 0  0.338925723331026 -0.9550855970753329 0  0.450279875825274 -0.9242304948412391 0  0.5627246945037713 -0.8797046071955039 0  0.6749230819777264 -0.8280410792084124 0  0.7749171463591595 -0.772044346703416 0  0.865908336507528 -0.707548997646978 0  0.9515179064879223 -0.6317853063793725 0  1.030503470418171 -0.54868665618679 0  1.101617465545605 -0.4649458456267399 0  1.159401221305422 -0.3759310648833092 0  1.20299930850927 -0.2853092540418102 0  1.235818490094745 -0.189768130295573 0  1.257674346401374 -0.09278590914289542 0  -2.448513483648456 4.918029311051028 0  -2.44838299503963 -4.910399678452791 0  4.910320295846904 2.447826996585302 0  4.918455987565911 -2.449294986692962 0  2.446104354039197 -4.895614961092972 0  2.440539674552911 4.899381049681632 0  -4.910347615674696 -2.447854193594081 0  -4.910344936068593 2.447858403566605 0  -1.748465650661174 4.910878898669454 0  -1.744253943555187 -4.914325091831358 0  4.920470679060767 1.744008292360714 0  4.908981327099479 -1.747760826552289 0  -4.909276410798874 -1.74749581212804 0  -4.910100322250191 1.747241738764585 0  1.745734656414937 4.904724903008767 0  1.747141532572362 -4.892851580260094 0  -1.148786731506068 4.908632693077085 0  -1.129648092816567 -4.916563836352459 0  -4.908950478775011 -1.147836752255721 0  -4.908768343288529 1.147637570906683 0  1.143784400535113 -4.912740217291977 0  1.148796132170376 4.908618653321147 0  4.909089617584939 1.146111352685833 0  4.919950504551946 -1.15190441245041 0  -0.5466399212590841 -4.909805841352905 0  -0.5464260225112617 4.918511459143035 0  -4.907648041840362 -0.5486578280414166 0  -4.907672032258913 0.5472162763380194 0  4.906963893572175 -0.5489757557551689 0  4.918657290221669 0.5457393040674317 0  0.5424195469135222 -4.896650484194939 0  0.5511529719146478 4.915325995463521 0  -4.911809036856356 -3.048224022317077 0  4.918385972069057 3.046244628495275 0  4.911316254560242 -3.048198835719292 0  -4.912657495524571 3.04531638286274 0  3.055245049626992 -4.917307521494846 0  -3.048571502359457 -4.911237663562233 0  3.052140158954471 4.913316964682084 0  -3.048017792513701 4.912128367187308 0  -4.906743079057162 -0.04990256924619765 0  0.0451180223763677 -4.911754091889658 0  0.04956480413497968 4.918799192777533 0  4.913819911522038 -0.05128542856504999 0  3.545575363281805 -4.918974394599832 0  -3.548852037399385 4.91187
[...]
<PointData  Vectors="f_6718"> 
<DataArray  type="Float64"  Name="f_6718"  NumberOfComponents="3" format="ascii">2.6559658580600291e-76 2.6559658580600291e-76 0.0000000000000000e+00  -2.8445085011138809e-76 2.8445085011138809e-76 0.0000000000000000e+00  -8.5659604779174651e-78 -8.5659604779174651e-78 0.0000000000000000e+00  3.0308186857311735e-76 -3.0308186857311735e-76 0.0000000000000000e+00  7.8446634902183854e-01 8.1062197969083150e-03 0.0000000000000000e+00  4.1660628787478120e-75 6.6061124000713728e-75 0.0000000000000000e+00  2.0822526592686100e-75 2.0880087775799878e-74 0.0000000000000000e+00  -3.4062602037894953e-75 6.7719284317696774e-75 0.0000000000000000e+00  4.0008043419701781e-72 6.6675300331302603e-72 0.0000000000000000e+00  5.3178831633733874e-71 1.3457376585886767e-70 0.0000000000000000e+00  -7.9221764338220322e-72 4.5554308715708141e-71 0.0000000000000000e+00  3.2353548775802765e-69 6.1615094483312950e-69 0.0000000000000000e+00  5.1633459616227894e-68 9.3973083734807094e-68 0.0000000000000000e+00  -3.0663235752713401e-68 1.5001788217646829e-67 0.0000000000000000e+00  1.2773511466070749e-67 3.9812616840785826e-67 0.0000000000000000e+00  1.2622653771263479e-68 8.7791297297853344e-67 0.0000000000000000e+00  5.4548821530205065e-64 8.8207548795784514e-64 0.0000000000000000e+00  4.7426832782054584e-65 2.4418716750703398e-63 0.0000000000000000e+00  1.3501073792412047e-62 2.1983650740780289e-62 0.0000000000000000e+00  8.0706003225062926e-63 8.3177943726283294e-62 0.0000000000000000e+00  6.9368517376692214e-61 1.1019349012950076e-60 0.0000000000000000e+00  4.0657723816665575e-60 7.0044973829294389e-60 0.0000000000000000e+00  -2.8495758377544815e-60 7.7006161581597488e-60 0.0000000000000000e+00  5.6673884329757584e-59 1.1364820387798714e-58 0.0000000000000000e+00  -1.7605799933923293e-59 1.1647439667169440e-58 0.0000000000000000e+00  -3.0064236794250844e-59 6.8402391317355346e-59 0.0000000000000000e+00  1.8041311688555678e-58 3.3031670807648757e-58 0.0000000000000000e+00  7.3062533125183660e-58 2.0889973374899545e-57 0.0000000000000000e+00  2.8637435990040255e-57 6.2311599386423707e-57 0.0000000000000000e+00  -3.4112242171416589e-57 5.7401647817186908e-57 0.0000000000000000e+00  -3.5266618039263587e-58 1.0980129419573051e-57 0.0000000000000000e+00  1.9109149183342835e-56 2.9307823984392248e-56 0.0000000000000000e+00  -1.4153897382997122e-56 3.5317656822726407e-56 0.0000000000000000e+00  1.1928843885903951e-56 2.8926795146344372e-56 0.0000000000000000e+00  8.7492253833343905e-56 2.0970030614102299e-55 0.0000000000000000e+00  -2.5159992458266335e-56 5.7435313758890571e-55 0.0000000000000000e+00  5.2178205213210374e-57 8.6092028455489611e-57 0.0000000000000000e+00  5.5526957049235333e-56 1.3813385180643971e-55 0.0000000000000000e+00  1.5511889076915637e-55 6.1685101949379710e-55 0.0000000000000000e+00  -2.2398569772345691e-55 3.5176737898835488e-55 0.0000000000000000e+00  9.8520151382834395e-55 1.7223219416791610e-54 0.0000000000000000e+00  -4.4288020288495994e-55 4.3616479228879414e-54 0.0000000000000000e+00  -2.2870388519623653e-55 2.6820949044467536e-54 0.0000000000000000e+00  -9.6360360530433965e-56 9.4400594394744714e-55 0.0000000000000000e+00  -1.1331415732390001e-55 1.8226821895528625e-55 0.0000000000000000e+00  2.7649410025254547e-54 5.2319929307150958e-54 0.0000000000000000e+00  -2.1639327572991094e-54 4.1399526524404117e-54 0.0000000000000000e+00  -7.2058348586947023e-55 8.0836040067883850e-55 0.0000000000000000e+00  -1.3230537548123031e-55 2.7135539045291444e-55 0.0000000000000000e+00  9.3213396466262883e-55 1.4448372427749086e-54 0.0000000000000000e+00  9.4733131830989854e-55 6.1540538798246788e-54 0.0000000000000000e+00  -1.1308192941182403e-54 5.8988709513666833e-54 0.0000000000000000e+00  5.1572006087583683e-55 4.6478534947399731e-54 0.0000000000000000e+00  1.9111330530785241e-56 5.7927870798693164e-54 0.0000000000000000e+00  3.0236358936544323e-55 6.1509406178230696e-54 0.0000000000000000e+00  -1.2642005784413945e-54 2.0440688759275514e-54 0.0000000000000000e+00  -6.4677117081642515e-55 1.4722514647205617e-53 0.0000000000000000e+00  4.4728327251308706e-54 7.4699123689909235e-54 0.0000000000000000e+00  -4.3560853484794627e-54 8.0947548435145316e-54 0.0000000000000000e+00  1.9257978062960081e-54 3.9574525148518458e-54 0.0000000000000000e+00  -7.3753827091588117e-55 9.4981764215325032e-54 0.0000000000000000e+00  1.3339713149058533e-54 9.3291312912560578e-54 0.0000000000000000e+00  -1.6882956058620142e-54 4.3955771537129556e-54 0.0000000000000000e+00  -9.2686595333599954e-55 2.4041716212696926e-54 0.0000000000000000e+00  3.3383764249019114e-55 1.2997910286954912e-54 0.0000000000000000e+00  2.6628396979955521e-55 2.5377328808694518e-54 0.0000000000000000e+00  -7.8384623165648423e-56 3.4897046202682497e-54 0.0000000000000000e+00  -7.1263615566110732e-55 1.4809211113975876e-54 0.0000000000000000e+00  2.3824291524710180e-55 4.4280299270971034e-55 0.0000000000000000e+00  -2.3138729578730947e-55 6.0212706997619703e-55 0.0000000000000000e+00  5.0432530798540737e-56 2.3984732965708588e-55 0.0000000000000000e+00  1.8699937421997218e-55 9.5258637047281290e-55 0.0000000000000000e+00  -3.3092458487432595e-55 5.2983485349979664e-55 0.0000000000000000e+00  -1.5933678789455571e-56 4.8202619514614168e-56 0.0000000000000000e+00  -1.1364528327134656e-57 1.1331558504846059e-56 0.0000000000000000e+00  6.7646487878907483e-57 2.3558986694813897e-56 0.0000000000000000e+00  -9.0055817036973384e-57 1.5009091872648243e-56 0.0000000000000000e+00  1.7442773476860051e-57 2.8892486907065852e-57 0.0000000000000000e+00  -1.2458592632757485e-57 2.7227148243943407e-57 0.0000000000000000e+00  5.1827222953220541e-57 7.8156680694204207e-57 0.0000000000000000e+00  -4.5378844117713031e-57 1.1244861906923251e-56 0.0000000000000000e+00  -1.8156268679810497e-58 9.3926341144943846e-58 0.0000000000000000e+00  -2.3943592142759417e-58 4.6493578930146604e-58 0.0000000000000000e+00  -7.8844674897013209e-61 8.8102363763920968e-59 0.0000000000000000e+00  -2.4477239891106513e-59 6.4197574314743243e-59 0.0000000000000000e+00  -7.1203540674807148e-60 2.4988852005128527e-59 0.0000000000000000e+00  -4.3869411925525143e-60 2.2381793227750737e-59 0.0000000000000000e+00  -3.0642468640184621e-60 7.1647782413819421e-60 0.0000000000000000e+00  -8.5271963664611060e-62 4.4342983103080425e-61 0.0000000000000000e+00  -1.0762583933103704e-61 2.2330170450562343e-61 0.0000000000000000e+00  -3.5883109073030305e-62 5.6712625011028798e-62 0.0000000000000000e+00  -3.9109715125481796e-64 6.6946538296345873e-64 0.0000000000000000e+00  -2.4317387906697136e-65 5.1690568756450780e-65 0.0000000000000000e+00  3.7090955189843071e-66 1.0389369044815016e-65 0.0000000000000000e+00  -4.8431030536034597e-66 9.2589318193323145e-66 0.0000000000000000e+00  -6.7007695687175982e-68 2.7707328488276146e-67 0.0000000000000000e+00  -7.8544917824587599e-68 1.2914171276924338e-67 0.0000000000000000e+00  -8.0619054961988363e-69 1.1729011919872856e-68 0.0000000000000000e+00  -5.6339605601149247e-70 9.5184854015467918e-70 0.0000000000000000e+00  -3.7798045451212921e-71 6.8176563093946705e-71 0.0000000000000000e+00  -1.8785810048425527e-72 3.2023285625285755e-72 0.0000000000000000e+00  -1.2178043371739730e-73 2.7265964283768172e-73 0.0000000000000000e+00  -4.4213302507995281e-75 1.2911138188938448e-74 0.0000000000000000e+00  -2.5481735340970941e-75 4.2410953205076888e-75 0.0000000000000000e+00  -9.7687121016455476e-76 3.5584865315288917e-76 0.0000000000000000e+00  -1.6211666323073797e-75 -2.3928096214677738e-76 0.0000000000000000e+00  -2.4487561928001277e-74 1.1592310198810121e-74 0.0000000000000000e+00  -3.6791049000962344e-74 1.5506626599068866e-75 0.0000000000000000e+00  -3.8827380808344677e-73 1.4337704637181302e-73 0.0000000000000000e+00  -1.0235489814665374e-71 6.2403216896653267e-72 0.0000000000000000e+00  -6.7392638643686186e-71 3.7098325039785919e-71 0.0000000000000000e+00  -1.0610201970870002e-70 3.9050452115885545e-72 0.0000000000000000e+00  -8.8988401789179178e-70 3.3106627118842814e-70 0.0000000000000000e+00  -2.1278326608190122e-68 1.2873155129456771e-68 0.0000000000000000e+00  -1.0233859244159831e-67 5.1141578548822960e-68 0.0000000000000000e+00  -1.0140309358811310e-67 -6.0315073483390185e-68 0.0000000000000000e+00  -3.1643757087953501e-66 1.7476829518496667e-66 0.0000000000000000e+00  -3.1836162060539773e-65 1.8336430421699404e-65 0.0000000000000000e+00  -5.3854345798006421e-65 5.0517106639832033e-66 0.0000000000000000e+00  -4.4352637290444969e-64 1.4481251507453028e-64 0.0000000000000000e+00  -6.9886141306078221e-63 4.3646454639239803e-63 0.0000000000000000e+00  -1.5060422214779685e-62 3.7537585521941847e-63 0.0000000000000000e+00  -8.4313005046727799e-62 1.9691058999653787e-62 0.0000000000000000e+00  -1.3539340601915456e-60 8.5312827917543316e-61 0.0000000000000000e+00  -2.4164923789898247e-60 3.3876096275382952e-61 0.0000000000000000e+00  -2.1160729014508454e-59 7.4098189027094598e-60 0.0000000000000000e+00  -2.4151512500200171e-58 1.4972020758579463e-58 0.0000000000000000e+00  -2.5888223214155408e-58 -9.4358694639589263e-59 0.0000000000000000e+00  -5.9744866528189297e-57 2.7868771555576406e-57 0.0000000000000000e+00  -2.4818983014062902e-56 1.2415800668525218e-56 0.0000000000000000e+00  -5.5645581346208939e-56 -8.7050769770184775e-57 0.0000000000000000e+00  -1.0104512706738078e-54 6.4930647842417770e-55 0.0000000000000000e+00  -1.1210405774278529e-54 -3.4713274634737966e-55 0.0000000000000000e+00  -2.4063822017517204e-53 1.2719787139683345e-53 0.0000000000000000e+00  -6.5895761635189021e-53 2.9954894909230941e-53 0.0000000000000000e+00  -4.3550684111927532e-52 1.2268889346350843e-52 0.0000000000000000e+00  -2.6639634997164884e-51 1.6666307676214978e-51 0.0000000000000000e+00  -7.6659882367194713e-51 -2.1502555957512884e-52 0.0000000000000000e+00  -7.1921382328679622e-50 4.6070214652937509e-50 0.0000000000000000e+00  -1.6173148707195632e-49 -1.4816206538466822e-50 0.0000000000000000e+00  -1.7286573554329633e-48 1.0122984234012456e-48 0.0000000000000000e+00  -4.3412310318458513e-48 -2.0458480146308803e-49 0.0000000000000000e+00  -2.0129565739598135e-47 1.1122231188103421e-47 0.0000000000000000e+00  -1.1026052664976141e-46 1.8996757259632685e-47 0.0000000000000000e+00  -1.0246194611160588e-46 2.4655562615007655e-47 0.0000000000000000e+00  -1.2404363414325866e-45 5.2644116199545462e-46 0.0000000000000000e+00  -8.7394165807809972e-46 -5.6913420802767406e-46 0.0000000000000000e+00  -1.3427991967322230e-44 8.0881304216785752e-45 0.0000000000000000e+00  -5.7954693179582788e-44 1.3767002503930747e-44 0.0000000000000000e+00  -3.6155614351304038e-44 -1.7552016582531814e-44 0.0000000000000000e+00  -1.1424759498478947e-43 6.5147202834567820e-44 0.0000000000000000e+00  -8.4128603109487756e-43 2.3210509651658142e-43 0.0000000000000000e+00  -1.9290955177080484e-42 1.9797029008409212e-43 0.0000000000000000e+00  -2.5116827662283477e-42 6.1177948601355378e-44 0.0000000000000000e+00  -2.0144696362518645e-42 -1.9521221729013959e-43 0.0000000000000000e+00  -8.6135252686814125e-43 -2.5110763231348643e-43 0.0000000000000000e+00  -1.1324390279329436e-43 -6.4608090007251170e-44 0.0000000000000000e+00  -3.8715501943909906e-44 1.8543147195679418e-44 0.0000000000000000e+00  -6.3163805164806797e-44 -1.0844538840162569e-44 0.0000000000000000e+00  -1.4987675200639814e-44 -7.8836345239820405e-45 0.0000000000000000e+00  -9.9897129915371563e-46 5.6839281667193840e-46 0.0000000000000000e+00  -1.4038012903449239e-45 -5.3968048129150686e-46 0.0000000000000000e+00  -1.1207522161149731e-46 -2.8608927027608201e-47 0.0000000000000000e+00  -1.0180594933001916e-46 -2.1458816441236657e-47 0.0000000000000000e+00  -1.8605786894341445e-47 -1.1993610860132068e-47 0.0000000000000000e+00  -4.0856494291707080e-48 2.0372151786699620e-49 0.0000000000000000e+00  -1.4864502719990275e-48 -9.3733638661490069e-49 0.0000000000000000e+00  -1.6332649336916232e-49 2.4592448197923550e-50 0.0000000000000000e+00  -7.4561070504240331e-50 -4.4260161253548630e-50 0.0000000000000000e+00  -8.2464481203505495e-51 6.4169678029499282e-52 0.0000000000000000e+00  -3.1447716601007669e-51 -1.7853651418294315e-51 0.0000000000000000e+00  -5.1024220818553006e-52 -1.1475225971875422e-52 0.0000000000000000e+00  -8.2045680231998858e-53 -3.5499943380367001e-53 0.0000000000000000e+00  -2.6613462454427723e-53 -1.3166453415729161e-53 0.0000000000000000e+00  -1.1973272639801692e-54 3.2417585682400712e-55 0.0000000000000000e+00  -1.0634182387231458e-54 -6.8093977449534737e-55 0.0000000000000000e+00  -5.1527597622811658e-56 8.3568381424988768e-57 0.0000000000000000e+00  -2.3360306458543180e-56 -1.3245634324793932e-56 0.0000000000000000e+00  -4.8228359475300501e-57 -2.5225189849852722e-57 0.0000000000000000e+00  -2.4590443743144913e-58 8.5502310500562673e-59 0.0000000000000000e+00  -2.1577652783323250e-58 -1.3290919572502968e-58 0.0000000000000000e+00  -1.9908356561157641e-59 -6.1482125941075993e-60 0.0000000000000000e+00  -2.3747910041562814e-60 -3.3971222963991747e-61 0.0000000000000000e+00  -1.2905801710273220e-60 -7.6108834981704162e-61 0.0000000000000000e+00  -7.6900725317618023e-62 -2.1443035238682994e-62 0.0000000000000000e+00  -1.3592808469562851e-62 -2.9312105959794132e-63 0.0000000000000000e+00  -6.6379830138739638e-63 -3.7893299589634434e-63 0.0000000000000000e+00  -4.7825383391374710e-64 -1.8200143274175384e-64 0.0000000000000000e+00  -4.3638879932664420e-65 9.5828532664876091e-67 0.0000000000000000e+00  -2.9476928481197326e-65 -1.6624415756634427e-65 0.0000000000000000e+00  -3.4127222645897424e-66 -1.9891011767563793e-66 0.0000000000000000e+00  -8.9968411329833355e-68 5.4818302701423207e-68 0.0000000000000000e+00  -8.6356426771190394e-68 -4.1782717289511643e-68 0.0000000000000000e+00  -2.0679302321002832e-68 -1.2851812356112117e-68 0.0000000000000000e+00  -1.1325546097463256e-69 -5.1342679482041967e-70 0.0000000000000000e+00  -8.7946481943379027e-71 1.3791193506972679e-71 0.0000000000000000e+00  -6.9076627580909959e-71 -3.6576051953921667e-71 0.0000000000000000e+00  -1.2478152762682282e-71 -7.6630190438831661e-72 0.0000000000000000e+00  -5.9816952887666163e-73 -2.7512870971306296e-73 0.0000000000000000e+00  -3.9238176566268086e-74 7.4240663225345909e-75 0.0000000000000000e+00  -3.1564542251295943e-74 -1.4790965915654666e-74 0.0000000000000000e+00  -6.5905033588514395e-75 -3.3571981695529667e-75 0.0000000000000000e+00  -7.1798634580421498e-76 -3.1071866997169871e-76 0.0000000000000000e+00  -8.5520849633583970e-76 -1.6228323311262335e-75 0.0000000000000000e+00  -4.7736529621339979e-75 -1.3945826791808957e-74 0.0000000000000000e+00  4.3674156380425646e-75 -8.3091540115449888e-75 0.0000000000000000e+00  -1.6295704716369043e-73 -3.4270868696151834e-73 0.0000000000000000e+00  -9.2867270149914413e-71 -1.0068437776055375e-70 0.0000000000000000e+00  -7.5078638696483728e-70 -1.3176036954335080e-69 0.0000000000000000e+00  -1.0986867268021848e-69 -3.6510429351775153e-69 0.0000000000000000e+00  -7.7630038643229520e-68 -1.7112542413435171e-67 0.0000000000000000e+00  -6.5329904593394703e-68 -3.2597934734713224e-67 0.0000000000000000e+00  -6.7919649114590037e-66 -1.3498917942362734e-65 0.0000000000000000e+00  -4.5215529907678589e-66 -2.1314955120824442e-65 0.0000000000000000e+00  -9.0733334705842871e-65 -1.5572621250957546e-64 0.0000000000000000e+00  1.7227974870827051e-65 -2.1036278411264291e-64 0.0000000000000000e+00  -4.2778440963475589e-62 -6.4007986470602799e-62 0.0000000000000000e+00  -7.0026558350120945e-62 -1.7204039925769508e-61 0.0000000000000000e+00  -2.3274880703141023e-62 -2.7285261220677921e-61 0.0000000000000000e+00  -5.7441130857601571e-60 -1.1359803741692624e-59 0.0000000000000000e+00  4.7719147886974189e-60 -1.5023040547568278e-59 0.0000000000000000e+00  -2.9033473609210311e-59 -4.7473006984284423e-59 0.0000000000000000e+00  8.8296323106815755e-60 -6.0866488901863745e-59 0.0000000000000000e+00  2.3279252762226299e-59 -3.9733933224955026e-59 0.0000000000000000e+00  -5.6440314552271667e-58 -8.9438947422532647e-58 0.0000000000000000e+00  -1.3819015090422461e-59 -1.2602293024096412e-57 0.0000000000000000e+00  -4.6394311234389088e-57 -1.1634560184009840e-56 0.0000000000000000e+00  5.7575427855819845e-57 -8.6783225545527441e-57 0.0000000000000000e+00  -5.3415865331659066e-57 -7.3342985392821803e-57 0.0000000000000000e+00  -1.7698757984102844e-56 -3.7721348330297725e-56 0.0000000000000000e+00  2.1654878855606716e-56 -4.0727557343582314e-56 0.0000000000000000e+00  -5.0112177237771269e-57 -9.1970580098730380e-57 0.0000000000000000e+00  -8.1328136664386538e-56 -2.0304333809439891e-55 0.0000000000000000e+00  6.3880155470041828e-56 -5.0773876355885872e-55 0.0000000000000000e+00  -4.2984593728884815e-55 -7.2549012811885796e-55 0.0000000000000000e+00  -4.8859408399971140e-56 -1.8356970963929984e-54 0.0000000000000000e+00  1.6640458294157074e-55 -5.7408556130037306e-55 0.0000000000000000e+00  -5.1939374676006937e-55 -1.6756172628417387e-54 0.0000000000000000e+00  -2.2589954029567890e-54 -7.0703412177717150e-54 0.0000000000000000e+00  2.5889320719416570e-54 -6.0780729256978010e-54 0.0000000000000000e+00  -6.7372251659631543e-55 -2.3893316667783857e-54 0.0000000000000000e+00  5.3399908299127814e-55 -2.8193042423375332e-54 0.0000000000000000e+00  1.2861481166987664e-55 -1.4248271844079492e-54 0.0000000000000000e+00  -2.1863763374684388e-54 -3.4657736991803785e-54 0.0000000000000000e+00  5.7303953035167481e-55 -8.2270609385658833e-54 0.0000000000000000e+00  -3.9417963527534506e-54 -1.3556289713740173e-53 0.0000000000000000e+00  4.7063139109709818e-54 -7.7158361162429512e-54 0.0000000000000000e+00  2.0378778328562616e-55 -6.5063936135221545e-55 0.0000000000000000e+00  -4.8158592782951679e-54 -8.0079267637257162e-54 0.0000000000000000e+00  4.8419490685857562e-54 -7.8702304925583588e-54 0.0000000000000000e+00  -1.6671029200418942e-56 -1.3349730490892046e-55 0.0000000000000000e+00  1.1189088044821191e-56 -2.7679911648991097e-55 0.0000000000000000e+00  2.2138619073042721e-56 -9.8796619692228957e-56 0.0000000000000000e+00  -5.2210226902697048e-54 -9.3538452243690320e-54 0.0000000000000000e+00  5.5686015655336101e-54 -9.4072157134821813e-54 0.0000000000000000e+00  5.6931424378207448e-56 -1.0517867175852449e-55 0.0000000000000000e+00  -1.4375869622094325e-56 -6.2049031478784737e-56 0.0000000000000000e+00  -5.0152586634849132e-55 -9.0475502858943064e-55 0.0000000000000000e+00  -5.8331767252355382e-54 -1.0047370745513615e-53 0.0000000000000000e+00  4.5178228018371136e-54 -1.0490364520235836e-53 0.0000000000000000e+00  -3.0619801675176970e-54 -7.9864237564140232e-54 0.0000000000000000e+00  2.4463732177054636e-54 -8.5489212349266011e-54 0.0000000000000000e+00  2.2532006828752841e-54 -3.3052489854862026e-54 0.0000000000000000e+00  -5.4532083824193096e-55 -1.4800924293253281e-54 0.0000000000000000e+00  8.3808187803330042e-55 -1.5734229720676508e-54 0.0000000000000000e+00  -4.9377368728182015e-55 -9.8348625118283670e-55 0.0000000000000000e+00  5.1389949800458578e-55 -8.8521672130391051e-55 0.0000000000000000e+00  -1.5708514033403404e-56 -2.6929361626357016e-56 0.0000000000000000e+00  -4.4889750590795407e-56 -1.7220743230352754e-55 0.0000000000000000e+00  4.1823595144834780e-56 -1.7465192066111560e-55 0.0000000000000000e+00  4.8116482309793489e-57 -6.9026907788326286e-56 0.0000000000000000e+00  -2.7549606276543982e-56 -6.5444834666762632e-56 0.0000000000000000e+00  3.2950801036751833e-56 -6.4115020054454344e-56 0.0000000000000000e+00  -2.8646301411307192e-57 -2.8735450168981140e-56 0.0000000000000000e+00  1.2984608877022751e-56 -3.0011490053317510e-56 0.0000000000000000e+00  1.0042152637103916e-57 -2.3983795792349934e-57 0.0000000000000000e+00  -4.3904266916721914e-57 -7.6421562564174696e-57 0.0000000000000000e+00  4.2565367833278362e-57 -1.1003994693008304e-56 0.0000000000000000e+00  3.1294028184443087e-58 -1.0210833802004307e-57 0.0000000000000000e+00  1.4400504017334932e-58 -5.025173