<?xml version="1.0"?>
<VTKFile type="UnstructuredGrid"  version="0.1"  >
<UnstructuredGrid>
<Piece  NumberOfPoints="11902" NumberOfCells="23402">
<Points>
<DataArray  type="Float64"  NumberOfComponents="3"  format="ascii">-5 -5 0  5 -5 0  5 5 0  -5 5 0  1.265430703889391 0.001273709746145036 0  -4.9 -5 0  -4.8 -5 0  -4.7 -5 0  -4.6 -5 0  -4.5 -5 0  -4.4 -5 0  -4.3 -5 0  -4.2 -5 0  -4.1 -5 0  -4 -5 0  -3.9 -5 0  -3.8 -5 0  -3.7 -5 0  -3.6 -5 0  -3.5 -5 0  -3.4 -5 0  -3.3 -5 0  -3.2 -5 0  -3.1 -5 0  -3 -5 0  -2.9 -5 0  -2.8 -5 0  -2.7 -5 0  -2.6 -5 0  -2.5 -5 0  -2.4 -5 0  -2.3 -5 0  -2.2 -5 0  -2.1 -5 0  -2 -5 0  -1.9 -5 0  -1.8 -5 0  -1.7 -5 0  -1.6 -5 0  -1.5 -5 0  -1.4 -5 0  -1.3 -5 0  -1.2 -5 0  -1.1 -5 0  -1 -5 0  -0.9000000000000004 -5 0  -0.7999999999999998 -5 0  -0.7000000000000002 -5 0  -0.5999999999999996 -5 0  -0.5 -5 0  -0.4000000000000004 -5 0  -0.2999999999999998 -5 0  -0.2000000000000002 -5 0  -0.09999999999999964 -5 0  0 -5 0  0.09999999999999964 -5 0  0.2000000000000002 -5 0  0.2999999999999998 -5 0  0.4000000000000004 -5 0  0.5 -5 0  0.5999999999999996 -5 0  0.7000000000000002 -5 0  0.7999999999999998 -5 0  0.9000000000000004 -5 0  1 -5 0  1.1 -5 0  1.2 -5 0  1.3 -5 0  1.4 -5 0  1.5 -5 0  1.6 -5 0  1.7 -5 0  1.8 -5 0  1.9 -5 0  2 -5 0  2.1 -5 0  2.2 -5 0  2.3 -5 0  2.4 -5 0  2.5 -5 0  2.6 -5 0  2.7 -5 0  2.8 -5 0  2.9 -5 0  3 -5 0  3.1 -5 0  3.199999999999999 -5 0  3.300000000000001 -5 0  3.4 -5 0  3.5 -5 0  3.6 -5 0  3.699999999999999 -5 0  3.800000000000001 -5 0  3.9 -5 0  4 -5 0  4.1 -5 0  4.199999999999999 -5 0  4.300000000000001 -5 0  4.4 -5 0  4.5 -5 0  4.6 -5 0  4.699999999999999 -5 0  4.800000000000001 -5 0  4.9 -5 0  5 -4.9 0  5 -4.8 0  5 -4.7 0  5 -4.6 0  5 -4.5 0  5 -4.4 0  5 -4.3 0  5 -4.2 0  5 -4.1 0  5 -4 0  5 -3.9 0  5 -3.8 0  5 -3.7 0  5 -3.6 0  5 -3.5 0  5 -3.4 0  5 -3.3 0  5 -3.2 0  5 -3.1 0  5 -3 0  5 -2.9 0  5 -2.8 0  5 -2.7 0  5 -2.6 0  5 -2.5 0  5 -2.4 0  5 -2.3 0  5 -2.2 0  5 -2.1 0  5 -2 0  5 -1.9 0  5 -1.8 0  5 -1.7 0  5 -1.6 0  5 -1.5 0  5 -1.4 0  5 -1.3 0  5 -1.2 0  5 -1.1 0  5 -1 0  5 -0.9000000000000004 0  5 -0.7999999999999998 0  5 -0.7000000000000002 0  5 -0.5999999999999996 0  5 -0.5 0  5 -0.4000000000000004 0  5 -0.2999999999999998 0  5 -0.2000000000000002 0  5 -0.09999999999999964 0  5 0 0  5 0.09999999999999964 0  5 0.2000000000000002 0  5 0.2999999999999998 0  5 0.4000000000000004 0  5 0.5 0  5 0.5999999999999996 0  5 0.7000000000000002 0  5 0.7999999999999998 0  5 0.9000000000000004 0  5 1 0  5 1.1 0  5 1.2 0  5 1.3 0  5 1.4 0  5 1.5 0  5 1.6 0  5 1.7 0  5 1.8 0  5 1.9 0  5 2 0  5 2.1 0  5 2.2 0  5 2.3 0  5 2.4 0  5 2.5 0  5 2.6 0  5 2.7 0  5 2.8 0  5 2.9 0  5 3 0  5 3.1 0  5 3.199999999999999 0  5 3.300000000000001 0  5 3.4 0  5 3.5 0  5 3.6 0  5 3.699999999999999 0  5 3.800000000000001 0  5 3.9 0  5 4 0  5 4.1 0  5 4.199999999999999 0  5 4.300000000000001 0  5 4.4 0  5 4.5 0  5 4.6 0  5 4.699999999999999 0  5 4.800000000000001 0  5 4.9 0  4.9 5 0  4.8 5 0  4.7 5 0  4.6 5 0  4.5 5 0  4.4 5 0  4.3 5 0  4.2 5 0  4.1 5 0  4 5 0  3.9 5 0  3.8 5 0  3.7 5 0  3.6 5 0  3.5 5 0  3.4 5 0  3.3 5 0  3.2 5 0  3.1 5 0  3 5 0  2.9 5 0  2.8 5 0  2.7 5 0  2.6 5 0  2.5 5 0  2.4 5 0  2.3 5 0  2.2 5 0  2.1 5 0  2 5 0  1.9 5 0  1.8 5 0  1.7 5 0  1.6 5 0  1.5 5 0  1.4 5 0  1.3 5 0  1.2 5 0  1.1 5 0  1 5 0  0.9000000000000004 5 0  0.7999999999999998 5 0  0.7000000000000002 5 0  0.5999999999999996 5 0  0.5 5 0  0.4000000000000004 5 0  0.2999999999999998 5 0  0.2000000000000002 5 0  0.09999999999999964 5 0  0 5 0  -0.09999999999999964 5 0  -0.2000000000000002 5 0  -0.2999999999999998 5 0  -0.4000000000000004 5 0  -0.5 5 0  -0.5999999999999996 5 0  -0.7000000000000002 5 0  -0.7999999999999998 5 0  -0.9000000000000004 5 0  -1 5 0  -1.1 5 0  -1.2 5 0  -1.3 5 0  -1.4 5 0  -1.5 5 0  -1.6 5 0  -1.7 5 0  -1.8 5 0  -1.9 5 0  -2 5 0  -2.1 5 0  -2.2 5 0  -2.3 5 0  -2.4 5 0  -2.5 5 0  -2.6 5 0  -2.7 5 0  -2.8 5 0  -2.9 5 0  -3 5 0  -3.1 5 0  -3.199999999999999 5 0  -3.300000000000001 5 0  -3.4 5 0  -3.5 5 0  -3.6 5 0  -3.699999999999999 5 0  -3.800000000000001 5 0  -3.9 5 0  -4 5 0  -4.1 5 0  -4.199999999999999 5 0  -4.300000000000001 5 0  -4.4 5 0  -4.5 5 0  -4.6 5 0  -4.699999999999999 5 0  -4.800000000000001 5 0  -4.9 5 0  -5 4.9 0  -5 4.8 0  -5 4.7 0  -5 4.6 0  -5 4.5 0  -5 4.4 0  -5 4.3 0  -5 4.2 0  -5 4.1 0  -5 4 0  -5 3.9 0  -5 3.8 0  -5 3.7 0  -5 3.6 0  -5 3.5 0  -5 3.4 0  -5 3.3 0  -5 3.2 0  -5 3.1 0  -5 3 0  -5 2.9 0  -5 2.8 0  -5 2.7 0  -5 2.6 0  -5 2.5 0  -5 2.4 0  -5 2.3 0  -5 2.2 0  -5 2.1 0  -5 2 0  -5 1.9 0  -5 1.8 0  -5 1.7 0  -5 1.6 0  -5 1.5 0  -5 1.4 0  -5 1.3 0  -5 1.2 0  -5 1.1 0  -5 1 0  -5 0.9000000000000004 0  -5 0.7999999999999998 0  -5 0.7000000000000002 0  -5 0.5999999999999996 0  -5 0.5 0  -5 0.4000000000000004 0  -5 0.2999999999999998 0  -5 0.2000000000000002 0  -5 0.09999999999999964 0  -5 0 0  -5 -0.09999999999999964 0  -5 -0.2000000000000002 0  -5 -0.2999999999999998 0  -5 -0.4000000000000004 0  -5 -0.5 0  -5 -0.5999999999999996 0  -5 -0.7000000000000002 0  -5 -0.7999999999999998 0  -5 -0.9000000000000004 0  -5 -1 0  -5 -1.1 0  -5 -1.2 0  -5 -1.3 0  -5 -1.4 0  -5 -1.5 0  -5 -1.6 0  -5 -1.7 0  -5 -1.8 0  -5 -1.9 0  -5 -2 0  -5 -2.1 0  -5 -2.2 0  -5 -2.3 0  -5 -2.4 0  -5 -2.5 0  -5 -2.6 0  -5 -2.7 0  -5 -2.8 0  -5 -2.9 0  -5 -3 0  -5 -3.1 0  -5 -3.199999999999999 0  -5 -3.300000000000001 0  -5 -3.4 0  -5 -3.5 0  -5 -3.6 0  -5 -3.699999999999999 0  -5 -3.800000000000001 0  -5 -3.9 0  -5 -4 0  -5 -4.1 0  -5 -4.199999999999999 0  -5 -4.300000000000001 0  -5 -4.4 0  -5 -4.5 0  -5 -4.6 0  -5 -4.699999999999999 0  -5 -4.800000000000001 0  -5 -4.9 0  1.257577571097201 0.09216777224804876 0  1.235409576400663 0.1898406767370351 0  1.201370092576463 0.2868230402234908 0  1.158709906227795 0.3754994587581257 0  1.099836952381103 0.4667396042311966 0  1.032821100390342 0.5498941951906616 0  0.9544256280389403 0.6305366575668855 0  0.8672372815128808 0.7053249710444933 0  0.7754185328890119 0.7703369992840481 0  0.6739394584956121 0.8278313890653163 0  0.5600489357307059 0.8800894174777862 0  0.4459646134290983 0.9251934756840596 0  0.3362356875131443 0.9565355970015492 0  0.2088104091576916 0.9796260387231844 0  0.08686172544834904 0.9976346010366757 0  -0.02603882608656042 1.001291424199353 0  -0.1436973292144239 0.9878800192579743 0  -0.2747968130401474 0.9675859137166017 0  -0.395417677719298 0.9432266954073466 0  -0.5042749843892927 0.9085298424610156 0  -0.6134985936675631 0.8621986576475354 0  -0.7153630267224829 0.806870195962955 0  -0.8095872887315825 0.7427944386946698 0  -0.9013029286405817 0.6690823691032327 0  -0.9881293396877798 0.5885946038341825 0  -1.063107829806479 0.5066149260861648 0  -1.125561033947236 0.4226381830240192 0  -1.181723506119818 0.3277016274985665 0  -1.218771238898617 0.2417444786347582 0  -1.242937243702725 0.148421140530572 0  -1.252955197979815 0.05297013618538885 0  -1.252878326183736 -0.05067170118245184 0  -1.242736605814408 -0.1453825079229025 0  -1.218415238883985 -0.2352601366525818 0  -1.175854784766951 -0.3310268908426973 0  -1.125855930018862 -0.4238321152366518 0  -1.065513543146157 -0.5062973329386026 0  -0.9907505652893009 -0.5876047481019475 0  -0.904519825748531 -0.6670377735394953 0  -0.8139093055872697 -0.7379820476827761 0  -0.7189621372339786 -0.798339425547148 0  -0.6145929883763889 -0.8518859538138907 0  -0.4978372926439953 -0.9017097953654687 0  -0.3857271638638717 -0.9415418668991987 0  -0.2714988960211208 -0.9674524726613845 0  -0.1418422258718758 -0.9879900749143206 0  -0.02741481522076139 -1.000509005645219 0  0.08481674844758422 -0.9931569654083533 0  0.2158862960400194 -0.9750666245478365 0  0.3394058107709987 -0.9545316955578256 0  0.4502719795091796 -0.9238378286522104 0  0.5629904011129778 -0.8792719551223372 0  0.6753362154981254 -0.8275802291072311 0  0.7750275580087265 -0.7716431331483465 0  0.8658045720638468 -0.7073836030239133 0  0.9512108824079619 -0.6317149604957675 0  1.03055328455957 -0.5482520465748683 0  1.101983896635323 -0.464500014802088 0  1.159694139190928 -0.3755905343161722 0  1.203250297709675 -0.2849110140760385 0  1.236157090717518 -0.1893190551703098 0  1.257988564452473 -0.0924536023755583 0  -2.448508238543118 4.918020277238928 0  -2.448377230559086 -4.910389790926503 0  4.910309827461819 2.44782010344353 0  4.918446486073639 -2.449288763400063 0  2.446097665953527 -4.895603399973734 0  2.440533179987299 4.899369812554094 0  -4.910337120165844 -2.44784738956762 0  -4.91033444543281 2.447851632087232 0  -1.748460204133383 4.910865728337698 0  -1.744248661233341 -4.91431241225489 0  4.920457522795759 1.74400207444641 0  4.908966301037525 -1.747753756473745 0  -4.90926137879611 -1.747488812310253 0  -4.910085429332764 1.747234843084092 0  1.745728737777522 4.904710712122381 0  1.747134950734687 -4.892835708932198 0  -1.148782409159229 4.908616589589339 0  -1.129644122144504 -4.916549082759342 0  -4.908931721567758 -1.147831010506 0  -4.908749550717615 1.147631860662334 0  1.143780231807331 -4.912724821049549 0  1.148791660743139 4.908602474178087 0  4.909070933742218 1.146105538372005 0  4.919934087369299 -1.151899321606604 0  -0.5466376294074666 -4.909788216580919 0  -0.5464240458072095 4.918495501932832 0  -4.907626299476663 -0.5486546409944577 0  -4.907650292915864 0.5472131389992407 0  4.906942053297262 -0.5489725392956052 0  4.918638186506622 0.5457364657290272 0  0.5424169614258361 -4.896630266090506 0  0.5511507207282902 4.915309386902731 0  -4.911801933425714 -3.048218378867629 0  4.918379406508029 3.046239340276732 0  4.911309140385678 -3.048193130889775 0  -4.91265045196305 3.045310810656408 0  3.055240389838603 -4.917300972506093 0  -3.048566466401105 -4.911230626285521 0  3.052135245600227 4.913310045299697 0  -3.048012822969777 4.912121412221852 0  -4.906720224016468 -0.04990224634365002 0  0.04511784145232146 -4.911736310289307 0  0.04956451887275511 4.91878278123398 0  4.913798849813341 -0.05128515857293491 0  3.545571696324409 -4.918969839555827 0  -3.54884804836279 
[...]
<PointData  Vectors="f_7030"> 
<DataArray  type="Float64"  Name="f_7030"  NumberOfComponents="3" format="ascii">2.6559658580600297e-76 2.6559658580600297e-76 0.0000000000000000e+00  -2.8445085011138815e-76 2.8445085011138815e-76 0.0000000000000000e+00  -8.5659604779174651e-78 -8.5659604779174651e-78 0.0000000000000000e+00  3.0308186857311747e-76 -3.0308186857311747e-76 0.0000000000000000e+00  7.8261798930331450e-01 7.9930620342255291e-03 0.0000000000000000e+00  4.1660763631951385e-75 6.6060996015760065e-75 0.0000000000000000e+00  2.0822393836306772e-75 2.0880100163821433e-74 0.0000000000000000e+00  -3.4062994553556948e-75 6.7719654186389430e-75 0.0000000000000000e+00  4.0008539474802591e-72 6.6674833293039145e-72 0.0000000000000000e+00  5.3179541195453531e-71 1.3457309412887982e-70 0.0000000000000000e+00  -7.9223541473248740e-72 4.5554472630709388e-71 0.0000000000000000e+00  3.2354321112223487e-69 6.1614384573517308e-69 0.0000000000000000e+00  5.1634914456354096e-68 9.3971763103124018e-68 0.0000000000000000e+00  -3.0664448922739762e-68 1.5001894539336493e-67 0.0000000000000000e+00  1.2773934602926377e-67 3.9812238262193155e-67 0.0000000000000000e+00  1.2621413742894750e-68 8.7791379815414178e-67 0.0000000000000000e+00  5.4551177815707762e-64 8.8205522175448482e-64 0.0000000000000000e+00  4.7424623734208188e-65 2.4418726711390858e-63 0.0000000000000000e+00  1.3501779367409552e-62 2.1983067940335241e-62 0.0000000000000000e+00  8.0709060728283974e-63 8.3177660383460481e-62 0.0000000000000000e+00  6.9372751637538493e-61 1.1019013995881368e-60 0.0000000000000000e+00  4.0660419699839742e-60 7.0042898985364133e-60 0.0000000000000000e+00  -2.8497816797818064e-60 7.7007694923858431e-60 0.0000000000000000e+00  5.6678039067389545e-59 1.1364512464137976e-58 0.0000000000000000e+00  -1.7607254033203931e-59 1.1647541636197484e-58 0.0000000000000000e+00  -3.0066873771114322e-59 6.8404183346539550e-59 0.0000000000000000e+00  1.8042945670179955e-58 3.3030580315328413e-58 0.0000000000000000e+00  7.3069179166239694e-58 2.0889529685245034e-57 0.0000000000000000e+00  2.8640332981458905e-57 6.2309796944340877e-57 0.0000000000000000e+00  -3.4115938243940500e-57 5.7403833292136221e-57 0.0000000000000000e+00  -3.5270623040804679e-58 1.0980357262776385e-57 0.0000000000000000e+00  1.9111374424596202e-56 2.9306585447592074e-56 0.0000000000000000e+00  -1.4155702959036735e-56 3.5318574712401991e-56 0.0000000000000000e+00  1.1930341476253010e-56 2.8926020513642292e-56 0.0000000000000000e+00  8.7503567089176947e-56 2.0969463178827020e-55 0.0000000000000000e+00  -2.5165331506030919e-56 5.7435438602954573e-55 0.0000000000000000e+00  5.2185717884680422e-57 8.6088760671128386e-57 0.0000000000000000e+00  5.5535043491351132e-56 1.3813038888144468e-55 0.0000000000000000e+00  1.5514168523643807e-55 6.1684134542043746e-55 0.0000000000000000e+00  -2.2402199235856687e-55 3.5178004449729026e-55 0.0000000000000000e+00  9.8536140651300067e-55 1.7222663093264741e-54 0.0000000000000000e+00  -4.4296597357407449e-55 4.3616647143465365e-54 0.0000000000000000e+00  -2.2874870792819058e-55 2.6821025714663358e-54 0.0000000000000000e+00  -9.6378704237876556e-56 9.4400944090815074e-55 0.0000000000000000e+00  -1.1333491108120955e-55 1.8227298453170758e-55 0.0000000000000000e+00  2.7654477298932303e-54 5.2318769137768500e-54 0.0000000000000000e+00  -2.1643410938504662e-54 4.1400302028716722e-54 0.0000000000000000e+00  -7.2072153957971562e-55 8.0838353874935065e-55 0.0000000000000000e+00  -1.3233129767700907e-55 2.7135862825195977e-55 0.0000000000000000e+00  9.3231627401494139e-55 1.4448139128539081e-54 0.0000000000000000e+00  9.4751460477008427e-55 6.1540236056115754e-54 0.0000000000000000e+00  -1.1310483081112897e-54 5.8988747698672013e-54 0.0000000000000000e+00  5.1582177864704997e-55 4.6478385687761031e-54 0.0000000000000000e+00  1.9114060573734263e-56 5.7927744203101808e-54 0.0000000000000000e+00  3.0242448022116664e-55 6.1509276736409547e-54 0.0000000000000000e+00  -1.2644549574256621e-54 2.0440617053797988e-54 0.0000000000000000e+00  -6.4689315372209127e-55 1.4722458626615626e-53 0.0000000000000000e+00  4.4737263492541472e-54 7.4699731498664865e-54 0.0000000000000000e+00  -4.3569473048781360e-54 8.0946692605483035e-54 0.0000000000000000e+00  1.9261766751290312e-54 3.9574957622303147e-54 0.0000000000000000e+00  -7.3767004629930988e-55 9.4981355953762149e-54 0.0000000000000000e+00  1.3342387186541925e-54 9.3291560570357552e-54 0.0000000000000000e+00  -1.6886137907757474e-54 4.3955162721693707e-54 0.0000000000000000e+00  -9.2703460540154977e-55 2.4041314255496947e-54 0.0000000000000000e+00  3.3390049376197147e-55 1.2998034326333636e-54 0.0000000000000000e+00  2.6633577761742319e-55 2.5377416815437936e-54 0.0000000000000000e+00  -7.8391415667638705e-56 3.4896958588672874e-54 0.0000000000000000e+00  -7.1275525930655747e-55 1.4808827653843385e-54 0.0000000000000000e+00  2.3828272192758546e-55 4.4281581039144630e-55 0.0000000000000000e+00  -2.3142340267543962e-55 6.0211342379009765e-55 0.0000000000000000e+00  5.0440845247084827e-56 2.3985013220606390e-55 0.0000000000000000e+00  1.8702969331713167e-55 9.5259705031361251e-55 0.0000000000000000e+00  -3.3097219993369079e-55 5.2981420424234656e-55 0.0000000000000000e+00  -1.5935814623454101e-56 4.8201596840970485e-56 0.0000000000000000e+00  -1.1365800819240450e-57 1.1331482713749690e-56 0.0000000000000000e+00  6.7655778453927239e-57 2.3559418898500792e-56 0.0000000000000000e+00  -9.0066742912954383e-57 1.5008509403671696e-56 0.0000000000000000e+00  1.7444888286144084e-57 2.8893614968134555e-57 0.0000000000000000e+00  -1.2459995336439831e-57 2.7226348213109002e-57 0.0000000000000000e+00  5.1832893631752119e-57 7.8159992045496524e-57 0.0000000000000000e+00  -4.5383263560449887e-57 1.1244580866979121e-56 0.0000000000000000e+00  -1.8158033044160039e-58 9.3925219686558922e-58 0.0000000000000000e+00  -2.3945771351930428e-58 4.6492137061132190e-58 0.0000000000000000e+00  -7.8851507868628056e-61 8.8102317301717805e-59 0.0000000000000000e+00  -2.4479232581225817e-59 6.4196175431215274e-59 0.0000000000000000e+00  -7.1208979781707562e-60 2.4988458807522549e-59 0.0000000000000000e+00  -4.3872119027193508e-60 2.2381579094410759e-59 0.0000000000000000e+00  -3.0644410195106884e-60 7.1646272853330041e-60 0.0000000000000000e+00  -8.5277304219731631e-62 4.4342566948485722e-61 0.0000000000000000e+00  -1.0763203212765604e-61 2.2329675310980597e-61 0.0000000000000000e+00  -3.5884945328868778e-62 5.6711110256578963e-62 0.0000000000000000e+00  -3.9111602777057448e-64 6.6944962010327189e-64 0.0000000000000000e+00  -2.4318422144294007e-65 5.1689683199037338e-65 0.0000000000000000e+00  3.7092630773523347e-66 1.0389511089083931e-65 0.0000000000000000e+00  -4.8432691579674796e-66 9.2587850178725340e-66 0.0000000000000000e+00  -6.7009901290815022e-68 2.7707132843753082e-67 0.0000000000000000e+00  -7.8547143948914565e-68 1.2913970864752699e-67 0.0000000000000000e+00  -8.0621015423676704e-69 1.1728833366384102e-68 0.0000000000000000e+00  -5.6340768664474045e-70 9.5183785259254014e-70 0.0000000000000000e+00  -3.7798680139769697e-71 6.8175975100623973e-71 0.0000000000000000e+00  -1.8786057875366084e-72 3.2023054597961883e-72 0.0000000000000000e+00  -1.2178138444689570e-73 2.7265874932305745e-73 0.0000000000000000e+00  -4.4213605357910451e-75 1.2911109751043310e-74 0.0000000000000000e+00  -2.5481819549664854e-75 4.2410873954777278e-75 0.0000000000000000e+00  -9.7686978465018818e-76 3.5584999656972829e-76 0.0000000000000000e+00  -1.6211702133269904e-75 -2.3928435675198844e-76 0.0000000000000000e+00  -2.4487453791325551e-74 1.1592412531936686e-74 0.0000000000000000e+00  -3.6791027350285600e-74 1.5506832862912157e-75 0.0000000000000000e+00  -3.8827175802461918e-73 1.4337899567548861e-73 0.0000000000000000e+00  -1.0235364905918187e-71 6.2404421133856144e-72 0.0000000000000000e+00  -6.7391748235134113e-71 3.7099192737243659e-71 0.0000000000000000e+00  -1.0610190950192520e-70 3.9051540627764113e-72 0.0000000000000000e+00  -8.8987470330983552e-70 3.3107544360097233e-70 0.0000000000000000e+00  -2.1277889814991745e-68 1.2873595929035346e-68 0.0000000000000000e+00  -1.0233665694571298e-67 5.1143566757238300e-68 0.0000000000000000e+00  -1.0140567012833478e-67 -6.0317786782243220e-68 0.0000000000000000e+00  -3.1643001624060984e-66 1.7477626894949175e-66 0.0000000000000000e+00  -3.1835292586560684e-65 1.8337371953065445e-65 0.0000000000000000e+00  -5.3854086509083951e-65 5.0519989541927065e-66 0.0000000000000000e+00  -4.4351899102730115e-64 1.4482067252802134e-64 0.0000000000000000e+00  -6.9883676629475497e-63 4.3649304853946201e-63 0.0000000000000000e+00  -1.5060196970584626e-62 3.7540274406682345e-63 0.0000000000000000e+00  -8.4311857354514165e-62 1.9692394860828314e-62 0.0000000000000000e+00  -1.3538788624318606e-60 8.5319743419962363e-61 0.0000000000000000e+00  -2.4164693777374913e-60 3.3879095457870000e-61 0.0000000000000000e+00  -2.1160226625783239e-59 7.4104701054065722e-60 0.0000000000000000e+00  -2.4150440346545545e-58 1.4973498317933766e-58 0.0000000000000000e+00  -2.5888923415342168e-58 -9.4368844264125120e-59 0.0000000000000000e+00  -5.9742786955722610e-57 2.7871807359058148e-57 0.0000000000000000e+00  -2.4818030693651136e-56 1.2417274151717784e-56 0.0000000000000000e+00  -5.5646281475512037e-56 -8.7063440522917054e-57 0.0000000000000000e+00  -1.0104003257666427e-54 6.4939137218178486e-55 0.0000000000000000e+00  -1.1210680371001763e-54 -3.4718171248043990e-55 0.0000000000000000e+00  -2.4062814342780231e-53 1.2721601051210473e-53 0.0000000000000000e+00  -6.5893398399852362e-53 2.9959491706330567e-53 0.0000000000000000e+00  -4.3549708712760855e-52 1.2270737470563724e-52 0.0000000000000000e+00  -2.6638345326507167e-51 1.6669085595690864e-51 0.0000000000000000e+00  -7.6659986585616666e-51 -2.1508686480769348e-52 0.0000000000000000e+00  -7.1917959062699743e-50 4.6078516817721556e-50 0.0000000000000000e+00  -1.6173236573592771e-49 -1.4819466975441688e-50 0.0000000000000000e+00  -1.7285868817089769e-48 1.0124940524884893e-48 0.0000000000000000e+00  -4.3412384201242896e-48 -2.0463697032707663e-49 0.0000000000000000e+00  -2.0128866989474523e-47 1.1124525547354458e-47 0.0000000000000000e+00  -1.1025922348989951e-46 1.9000546811940769e-47 0.0000000000000000e+00  -1.0246064058811672e-46 2.4660974479852471e-47 0.0000000000000000e+00  -1.2404084242283337e-45 5.2655687520194456e-46 0.0000000000000000e+00  -8.7396502821775564e-46 -5.6926532681982375e-46 0.0000000000000000e+00  -1.3427664081923914e-44 8.0899974549137934e-45 0.0000000000000000e+00  -5.7954109299391240e-44 1.3770177033107227e-44 0.0000000000000000e+00  -3.6155991040157686e-44 -1.7556244471520563e-44 0.0000000000000000e+00  -1.1424615312571702e-43 6.5162873717066778e-44 0.0000000000000000e+00  -8.4128089437049053e-43 2.3216107363723443e-43 0.0000000000000000e+00  -1.9290889497658687e-42 1.9801806445805394e-43 0.0000000000000000e+00  -2.5116757490195917e-42 6.1192904576224043e-44 0.0000000000000000e+00  -2.0144629386538311e-42 -1.9525932613214337e-43 0.0000000000000000e+00  -8.6134708348942215e-43 -2.5116825321012279e-43 0.0000000000000000e+00  -1.1324245017985479e-43 -6.4623635652074035e-44 0.0000000000000000e+00  -3.8715909241899746e-44 1.8547613842661934e-44 0.0000000000000000e+00  -6.3163308980327093e-44 -1.0847023493715902e-44 0.0000000000000000e+00  -1.4987351363798716e-44 -7.8854542384629709e-45 0.0000000000000000e+00  -9.9899495714422688e-46 5.6852374440655714e-46 0.0000000000000000e+00  -1.4037724637629098e-45 -5.3979919359968298e-46 0.0000000000000000e+00  -1.1207367777966900e-46 -2.8615192034355320e-47 0.0000000000000000e+00  -1.0180451598290497e-46 -2.1463165492867626e-47 0.0000000000000000e+00  -1.8605028977380710e-47 -1.1996089731073750e-47 0.0000000000000000e+00  -4.0856565223252751e-48 2.0377408966308413e-49 0.0000000000000000e+00  -1.4863846029144271e-48 -9.3751786971628900e-49 0.0000000000000000e+00  -1.6332807830310953e-49 2.4597570697403794e-50 0.0000000000000000e+00  -7.4557757492607918e-50 -4.4268141315974676e-50 0.0000000000000000e+00  -8.2464912487222504e-51 6.4183248203254624e-52 0.0000000000000000e+00  -3.1446325899365373e-51 -1.7856632648661386e-51 0.0000000000000000e+00  -5.1023300349450267e-52 -1.1476941451740677e-52 0.0000000000000000e+00  -8.2042860100761335e-53 -3.5505393583175782e-53 0.0000000000000000e+00  -2.6612412223809440e-53 -1.3168334733932877e-53 0.0000000000000000e+00  -1.1973530825827749e-54 3.2422158673923311e-55 0.0000000000000000e+00  -1.0633644482522055e-54 -6.8102883583416197e-55 0.0000000000000000e+00  -5.1528273816140519e-56 8.3580511693120226e-57 0.0000000000000000e+00  -2.3359283811207300e-56 -1.3247205893368307e-56 0.0000000000000000e+00  -4.8226463930055197e-57 -2.5227941384385010e-57 0.0000000000000000e+00  -2.4591082866319280e-58 8.5511528649572757e-59 0.0000000000000000e+00  -2.1576693553206303e-58 -1.3292236371914539e-58 0.0000000000000000e+00  -1.9907937949403880e-59 -6.1487509492842722e-60 0.0000000000000000e+00  -2.3747677834674735e-60 -3.3974235567854910e-61 0.0000000000000000e+00  -1.2905305686483551e-60 -7.6115022118193630e-61 0.0000000000000000e+00  -7.6899446238477276e-62 -2.1444534596423005e-62 0.0000000000000000e+00  -1.3592630781157393e-62 -2.9314221264907079e-63 0.0000000000000000e+00  -6.6377671153967758e-63 -3.7895787922019905e-63 0.0000000000000000e+00  -4.7824434287428398e-64 -1.8201195151376841e-64 0.0000000000000000e+00  -4.3638929586619952e-65 9.5834034858771921e-67 0.0000000000000000e+00  -2.9476133913910985e-65 -1.6625272782387095e-65 0.0000000000000000e+00  -3.4126353555686179e-66 -1.9891926185000027e-66 0.0000000000000000e+00  -8.9970791922555021e-68 5.4820804419551924e-68 0.0000000000000000e+00  -8.6354833108218021e-68 -4.1784347996853357e-68 0.0000000000000000e+00  -2.0678862842921106e-68 -1.2852254171207758e-68 0.0000000000000000e+00  -1.1325396812599628e-69 -5.1344149267975980e-70 0.0000000000000000e+00  -8.7946876498140861e-71 1.3791581963186948e-71 0.0000000000000000e+00  -6.9075743175126455e-71 -3.6576910594505274e-71 0.0000000000000000e+00  -1.2477997915498519e-71 -7.6631678002585630e-72 0.0000000000000000e+00  -5.9816532549566835e-73 -2.7513270222410192e-73 0.0000000000000000e+00  -3.9238285516883118e-74 7.4241698362990691e-75 0.0000000000000000e+00  -3.1564391637616520e-74 -1.4791108092653307e-74 0.0000000000000000e+00  -6.5904827159851787e-75 -3.3572175808874749e-75 0.0000000000000000e+00  -7.1798576990484875e-76 -3.1071920998107454e-76 0.0000000000000000e+00  -8.5521077332757065e-76 -1.6228301952529730e-75 0.0000000000000000e+00  -4.7736677881945324e-75 -1.3945812816680241e-74 0.0000000000000000e+00  4.3674681518785835e-75 -8.3092028825593001e-75 0.0000000000000000e+00  -1.6295908289928470e-73 -3.4270679337928312e-73 0.0000000000000000e+00  -9.2868879367665479e-71 -1.0068289177414837e-70 0.0000000000000000e+00  -7.5080241759627266e-70 -1.3175890351607447e-69 0.0000000000000000e+00  -1.0987142128321962e-69 -3.6510180287543839e-69 0.0000000000000000e+00  -7.7632217867338776e-68 -1.7112346626463903e-67 0.0000000000000000e+00  -6.5332044831390066e-68 -3.2597745283471749e-67 0.0000000000000000e+00  -6.7921992440649392e-66 -1.3498711506231989e-65 0.0000000000000000e+00  -4.5217389802226154e-66 -2.1314795391546644e-65 0.0000000000000000e+00  -9.0737362014678590e-65 -1.5572279828489993e-64 0.0000000000000000e+00  1.7228834675391316e-65 -2.1036349593417445e-64 0.0000000000000000e+00  -4.2780656643251624e-62 -6.4006166281615794e-62 0.0000000000000000e+00  -7.0030632303018411e-62 -1.7203715395004083e-61 0.0000000000000000e+00  -2.3276350265481808e-62 -2.7285147014635312e-61 0.0000000000000000e+00  -5.7444848104631268e-60 -1.1359516926603050e-59 0.0000000000000000e+00  4.7722902716903981e-60 -1.5023309554199706e-59 0.0000000000000000e+00  -2.9035674753214879e-59 -4.7471408258390598e-59 0.0000000000000000e+00  8.8303639259558100e-60 -6.0866999109027248e-59 0.0000000000000000e+00  2.3281354629582214e-59 -3.9735335048658168e-59 0.0000000000000000e+00  -5.6445415124109136e-58 -8.9435547299397370e-58 0.0000000000000000e+00  -1.3820368635297283e-59 -1.2602284430679072e-57 0.0000000000000000e+00  -4.6398852557839896e-57 -1.1634271203783893e-56 0.0000000000000000e+00  5.7581819319925210e-57 -8.6786936537894096e-57 0.0000000000000000e+00  -5.3421855665531957e-57 -7.3339535575782837e-57 0.0000000000000000e+00  -1.7700857432609061e-56 -3.7720197077802364e-56 0.0000000000000000e+00  2.1657630130325136e-56 -4.0728967989541371e-56 0.0000000000000000e+00  -5.0118600014960450e-57 -9.1967317808898089e-57 0.0000000000000000e+00  -8.1338814389972862e-56 -2.0303805362092113e-55 0.0000000000000000e+00  6.3890615448840021e-56 -5.0774259026087607e-55 0.0000000000000000e+00  -4.2990825779130816e-55 -7.2546304228905607e-55 0.0000000000000000e+00  -4.8863083363853621e-56 -1.8356929946367298e-54 0.0000000000000000e+00  1.6643067759180499e-55 -5.7409548896785135e-55 0.0000000000000000e+00  -5.1947333517001636e-55 -1.6755854082369414e-54 0.0000000000000000e+00  -2.2593563366212805e-54 -7.0702083092896566e-54 0.0000000000000000e+00  2.5893843707915171e-54 -6.0782042478261278e-54 0.0000000000000000e+00  -6.7383604400090287e-55 -2.3892947298898000e-54 0.0000000000000000e+00  5.3409966765833126e-55 -2.8193255352038994e-54 0.0000000000000000e+00  1.2864071670413904e-55 -1.4248306323361552e-54 0.0000000000000000e+00  -2.1867820789111888e-54 -3.4656831759144723e-54 0.0000000000000000e+00  5.7316069028023301e-55 -8.2270660613574620e-54 0.0000000000000000e+00  -3.9425391355243914e-54 -1.3556136614941452e-53 0.0000000000000000e+00  4.7072348519484907e-54 -7.7159651973832777e-54 0.0000000000000000e+00  2.0382847096784182e-55 -6.5064321428601406e-55 0.0000000000000000e+00  -4.8168140666354401e-54 -8.0078214977866882e-54 0.0000000000000000e+00  4.8429216044693645e-54 -7.8702953020727148e-54 0.0000000000000000e+00  -1.6674385485998328e-56 -1.3349712494225349e-55 0.0000000000000000e+00  1.1191389206887008e-56 -2.7679864933165489e-55 0.0000000000000000e+00  2.2143093052320229e-56 -9.8796639047627962e-56 0.0000000000000000e+00  -5.2220775289768991e-54 -9.3538534072128240e-54 0.0000000000000000e+00  5.5697197859413544e-54 -9.4071576650490901e-54 0.0000000000000000e+00  5.6942796836271504e-56 -1.0517785461266171e-55 0.0000000000000000e+00  -1.4378764409475945e-56 -6.2049178756095732e-56 0.0000000000000000e+00  -5.0162490547545574e-55 -9.0476538614302854e-55 0.0000000000000000e+00  -5.8343148261586005e-54 -1.0047519706545821e-53 0.0000000000000000e+00  4.5186881430544594e-54 -1.0490222828925304e-53 0.0000000000000000e+00  -3.0625593233011151e-54 -7.9865297263513409e-54 0.0000000000000000e+00  2.4468275197444179e-54 -8.5488266487079094e-54 0.0000000000000000e+00  2.2536099104808118e-54 -3.3051525111826209e-54 0.0000000000000000e+00  -5.4541858625850864e-55 -1.4801168946639348e-54 0.0000000000000000e+00  8.3822543918934417e-55 -1.5733804003903997e-54 0.0000000000000000e+00  -4.9385908135863972e-55 -9.8351080633229403e-55 0.0000000000000000e+00  5.1398298823820671e-55 -8.8518810562386066e-55 0.0000000000000000e+00  -1.5711050939963897e-56 -2.6930242666737332e-56 0.0000000000000000e+00  -4.4897100610515854e-56 -1.7220992403455022e-55 0.0000000000000000e+00  4.1829494513838221e-56 -1.7464927863363350e-55 0.0000000000000000e+00  4.8121927148059107e-57 -6.9026573456311896e-56 0.0000000000000000e+00  -2.7553482250411940e-56 -6.5446562705384405e-56 0.0000000000000000e+00  3.2955196831291766e-56 -6.4112915471971788e-56 0.0000000000000000e+00  -2.8650009256963602e-57 -2.8735634225678340e-56 0.0000000000000000e+00  1.2986151471197640e-56 -3.0010650954912220e-56 0.0000000000000000e+00  1.0043294599057489e-57 -2.3983149605256600e-57 0.0000000000000000e+00  -4.3909314527013317e-57 -7.6424388316025124e-57 0.0000000000000000e+00  4.2569718021181577e-57 -1.1003726597134664e-56 0.0000000000000000e+00  3.1297210528448236e-58 -1.0210637369594709e-57 0.0000000000000000e+00  1.4401890286219016e-58 -5.025084