<?xml version="1.0"?>
<VTKFile type="UnstructuredGrid"  version="0.1"  >
<UnstructuredGrid>
<Piece  NumberOfPoints="11902" NumberOfCells="23402">
<Points>
<DataArray  type="Float64"  NumberOfComponents="3"  format="ascii">-5 -5 0  5 -5 0  5 5 0  -5 5 0  1.263013449392372 0.001286899505281089 0  -4.9 -5 0  -4.8 -5 0  -4.7 -5 0  -4.6 -5 0  -4.5 -5 0  -4.4 -5 0  -4.3 -5 0  -4.2 -5 0  -4.1 -5 0  -4 -5 0  -3.9 -5 0  -3.8 -5 0  -3.7 -5 0  -3.6 -5 0  -3.5 -5 0  -3.4 -5 0  -3.3 -5 0  -3.2 -5 0  -3.1 -5 0  -3 -5 0  -2.9 -5 0  -2.8 -5 0  -2.7 -5 0  -2.6 -5 0  -2.5 -5 0  -2.4 -5 0  -2.3 -5 0  -2.2 -5 0  -2.1 -5 0  -2 -5 0  -1.9 -5 0  -1.8 -5 0  -1.7 -5 0  -1.6 -5 0  -1.5 -5 0  -1.4 -5 0  -1.3 -5 0  -1.2 -5 0  -1.1 -5 0  -1 -5 0  -0.9000000000000004 -5 0  -0.7999999999999998 -5 0  -0.7000000000000002 -5 0  -0.5999999999999996 -5 0  -0.5 -5 0  -0.4000000000000004 -5 0  -0.2999999999999998 -5 0  -0.2000000000000002 -5 0  -0.09999999999999964 -5 0  0 -5 0  0.09999999999999964 -5 0  0.2000000000000002 -5 0  0.2999999999999998 -5 0  0.4000000000000004 -5 0  0.5 -5 0  0.5999999999999996 -5 0  0.7000000000000002 -5 0  0.7999999999999998 -5 0  0.9000000000000004 -5 0  1 -5 0  1.1 -5 0  1.2 -5 0  1.3 -5 0  1.4 -5 0  1.5 -5 0  1.6 -5 0  1.7 -5 0  1.8 -5 0  1.9 -5 0  2 -5 0  2.1 -5 0  2.2 -5 0  2.3 -5 0  2.4 -5 0  2.5 -5 0  2.6 -5 0  2.7 -5 0  2.8 -5 0  2.9 -5 0  3 -5 0  3.1 -5 0  3.199999999999999 -5 0  3.300000000000001 -5 0  3.4 -5 0  3.5 -5 0  3.6 -5 0  3.699999999999999 -5 0  3.800000000000001 -5 0  3.9 -5 0  4 -5 0  4.1 -5 0  4.199999999999999 -5 0  4.300000000000001 -5 0  4.4 -5 0  4.5 -5 0  4.6 -5 0  4.699999999999999 -5 0  4.800000000000001 -5 0  4.9 -5 0  5 -4.9 0  5 -4.8 0  5 -4.7 0  5 -4.6 0  5 -4.5 0  5 -4.4 0  5 -4.3 0  5 -4.2 0  5 -4.1 0  5 -4 0  5 -3.9 0  5 -3.8 0  5 -3.7 0  5 -3.6 0  5 -3.5 0  5 -3.4 0  5 -3.3 0  5 -3.2 0  5 -3.1 0  5 -3 0  5 -2.9 0  5 -2.8 0  5 -2.7 0  5 -2.6 0  5 -2.5 0  5 -2.4 0  5 -2.3 0  5 -2.2 0  5 -2.1 0  5 -2 0  5 -1.9 0  5 -1.8 0  5 -1.7 0  5 -1.6 0  5 -1.5 0  5 -1.4 0  5 -1.3 0  5 -1.2 0  5 -1.1 0  5 -1 0  5 -0.9000000000000004 0  5 -0.7999999999999998 0  5 -0.7000000000000002 0  5 -0.5999999999999996 0  5 -0.5 0  5 -0.4000000000000004 0  5 -0.2999999999999998 0  5 -0.2000000000000002 0  5 -0.09999999999999964 0  5 0 0  5 0.09999999999999964 0  5 0.2000000000000002 0  5 0.2999999999999998 0  5 0.4000000000000004 0  5 0.5 0  5 0.5999999999999996 0  5 0.7000000000000002 0  5 0.7999999999999998 0  5 0.9000000000000004 0  5 1 0  5 1.1 0  5 1.2 0  5 1.3 0  5 1.4 0  5 1.5 0  5 1.6 0  5 1.7 0  5 1.8 0  5 1.9 0  5 2 0  5 2.1 0  5 2.2 0  5 2.3 0  5 2.4 0  5 2.5 0  5 2.6 0  5 2.7 0  5 2.8 0  5 2.9 0  5 3 0  5 3.1 0  5 3.199999999999999 0  5 3.300000000000001 0  5 3.4 0  5 3.5 0  5 3.6 0  5 3.699999999999999 0  5 3.800000000000001 0  5 3.9 0  5 4 0  5 4.1 0  5 4.199999999999999 0  5 4.300000000000001 0  5 4.4 0  5 4.5 0  5 4.6 0  5 4.699999999999999 0  5 4.800000000000001 0  5 4.9 0  4.9 5 0  4.8 5 0  4.7 5 0  4.6 5 0  4.5 5 0  4.4 5 0  4.3 5 0  4.2 5 0  4.1 5 0  4 5 0  3.9 5 0  3.8 5 0  3.7 5 0  3.6 5 0  3.5 5 0  3.4 5 0  3.3 5 0  3.2 5 0  3.1 5 0  3 5 0  2.9 5 0  2.8 5 0  2.7 5 0  2.6 5 0  2.5 5 0  2.4 5 0  2.3 5 0  2.2 5 0  2.1 5 0  2 5 0  1.9 5 0  1.8 5 0  1.7 5 0  1.6 5 0  1.5 5 0  1.4 5 0  1.3 5 0  1.2 5 0  1.1 5 0  1 5 0  0.9000000000000004 5 0  0.7999999999999998 5 0  0.7000000000000002 5 0  0.5999999999999996 5 0  0.5 5 0  0.4000000000000004 5 0  0.2999999999999998 5 0  0.2000000000000002 5 0  0.09999999999999964 5 0  0 5 0  -0.09999999999999964 5 0  -0.2000000000000002 5 0  -0.2999999999999998 5 0  -0.4000000000000004 5 0  -0.5 5 0  -0.5999999999999996 5 0  -0.7000000000000002 5 0  -0.7999999999999998 5 0  -0.9000000000000004 5 0  -1 5 0  -1.1 5 0  -1.2 5 0  -1.3 5 0  -1.4 5 0  -1.5 5 0  -1.6 5 0  -1.7 5 0  -1.8 5 0  -1.9 5 0  -2 5 0  -2.1 5 0  -2.2 5 0  -2.3 5 0  -2.4 5 0  -2.5 5 0  -2.6 5 0  -2.7 5 0  -2.8 5 0  -2.9 5 0  -3 5 0  -3.1 5 0  -3.199999999999999 5 0  -3.300000000000001 5 0  -3.4 5 0  -3.5 5 0  -3.6 5 0  -3.699999999999999 5 0  -3.800000000000001 5 0  -3.9 5 0  -4 5 0  -4.1 5 0  -4.199999999999999 5 0  -4.300000000000001 5 0  -4.4 5 0  -4.5 5 0  -4.6 5 0  -4.699999999999999 5 0  -4.800000000000001 5 0  -4.9 5 0  -5 4.9 0  -5 4.8 0  -5 4.7 0  -5 4.6 0  -5 4.5 0  -5 4.4 0  -5 4.3 0  -5 4.2 0  -5 4.1 0  -5 4 0  -5 3.9 0  -5 3.8 0  -5 3.7 0  -5 3.6 0  -5 3.5 0  -5 3.4 0  -5 3.3 0  -5 3.2 0  -5 3.1 0  -5 3 0  -5 2.9 0  -5 2.8 0  -5 2.7 0  -5 2.6 0  -5 2.5 0  -5 2.4 0  -5 2.3 0  -5 2.2 0  -5 2.1 0  -5 2 0  -5 1.9 0  -5 1.8 0  -5 1.7 0  -5 1.6 0  -5 1.5 0  -5 1.4 0  -5 1.3 0  -5 1.2 0  -5 1.1 0  -5 1 0  -5 0.9000000000000004 0  -5 0.7999999999999998 0  -5 0.7000000000000002 0  -5 0.5999999999999996 0  -5 0.5 0  -5 0.4000000000000004 0  -5 0.2999999999999998 0  -5 0.2000000000000002 0  -5 0.09999999999999964 0  -5 0 0  -5 -0.09999999999999964 0  -5 -0.2000000000000002 0  -5 -0.2999999999999998 0  -5 -0.4000000000000004 0  -5 -0.5 0  -5 -0.5999999999999996 0  -5 -0.7000000000000002 0  -5 -0.7999999999999998 0  -5 -0.9000000000000004 0  -5 -1 0  -5 -1.1 0  -5 -1.2 0  -5 -1.3 0  -5 -1.4 0  -5 -1.5 0  -5 -1.6 0  -5 -1.7 0  -5 -1.8 0  -5 -1.9 0  -5 -2 0  -5 -2.1 0  -5 -2.2 0  -5 -2.3 0  -5 -2.4 0  -5 -2.5 0  -5 -2.6 0  -5 -2.7 0  -5 -2.8 0  -5 -2.9 0  -5 -3 0  -5 -3.1 0  -5 -3.199999999999999 0  -5 -3.300000000000001 0  -5 -3.4 0  -5 -3.5 0  -5 -3.6 0  -5 -3.699999999999999 0  -5 -3.800000000000001 0  -5 -3.9 0  -5 -4 0  -5 -4.1 0  -5 -4.199999999999999 0  -5 -4.300000000000001 0  -5 -4.4 0  -5 -4.5 0  -5 -4.6 0  -5 -4.699999999999999 0  -5 -4.800000000000001 0  -5 -4.9 0  1.254814941821269 0.09386636016639542 0  1.232768610694988 0.191651456482033 0  1.199180218940992 0.2882509935505097 0  1.156392448002781 0.3766333608241909 0  1.097994529806409 0.4676364175306422 0  1.031750369848716 0.551459128113524 0  0.9531254117172009 0.6317520971871925 0  0.8659258937919033 0.7066538862332351 0  0.7740845365679528 0.7720185830245239 0  0.6718690427446324 0.8294329258529315 0  0.5590511922785615 0.8816729113404702 0  0.4459520997362036 0.92649177664732 0  0.334392803813357 0.9583404126717465 0  0.2087695350492675 0.9803186673794813 0  0.08822773965989496 0.9991469771197677 0  -0.02664439080431361 1.002572982614818 0  -0.1443069461915678 0.9887819674658068 0  -0.2731107088480265 0.9693153277671657 0  -0.3928679853678338 0.9451961111444602 0  -0.5029325221730346 0.9096503489458948 0  -0.6125950740548212 0.8631841393531846 0  -0.7146665908783109 0.8082668867824815 0  -0.8092912102329435 0.7435321814996249 0  -0.9007596129858844 0.6697597884760761 0  -0.9870346737938369 0.5896405854977186 0  -1.061834728831108 0.5082564782183731 0  -1.123826769548471 0.4234680012202829 0  -1.178202001090052 0.330399001107016 0  -1.215881846232073 0.2426018529179547 0  -1.240312752266908 0.148643388900744 0  -1.250874878788112 0.05219287741276423 0  -1.250834572822139 -0.04992269246253789 0  -1.240270713122926 -0.1456488074066105 0  -1.215493032558331 -0.2371653223300396 0  -1.173558943062086 -0.3321511457661543 0  -1.12414537203645 -0.4243024043057239 0  -1.0637493438721 -0.5081533525583303 0  -0.9895487348981367 -0.5886529785632778 0  -0.9039000738822686 -0.6677129447841765 0  -0.813150877690308 -0.7393162013740779 0  -0.717514505011222 -0.8001797495827856 0  -0.6127629589193112 -0.8533993958216974 0  -0.4977292002829434 -0.9030593216018741 0  -0.3850598317534903 -0.942986505663753 0  -0.2697744214237403 -0.9691266402235931 0  -0.1426722879291576 -0.9887574207843486 0  -0.027676986897558 -1.001809214825957 0  0.08706722279368442 -0.9944165632988056 0  0.2148971651611055 -0.9765268433839119 0  0.3371903980428186 -0.9566345582561881 0  0.4501335996192047 -0.9251703610430403 0  0.56163786380631 -0.8809127069583904 0  0.673024154714333 -0.8293666663857687 0  0.7739724496557102 -0.7731619193998643 0  0.8656187648440425 -0.7079732621354903 0  0.9515598605186835 -0.632163492983378 0  1.029226420622681 -0.5502463898315155 0  1.099237626684377 -0.46629007207221 0  1.157194382314001 -0.3770503941299223 0  1.200946792962042 -0.286318349148617 0  1.233486871955261 -0.1908962435609527 0  1.25522058326231 -0.09379388252864278 0  -2.448533924529203 4.918064919662339 0  -2.448405472794243 -4.910438647794012 0  4.910361255882763 2.447854317665125 0  4.918493169012298 -2.449319671398634 0  2.446130390238611 -4.89566062318263 0  2.440564946249739 4.899425372273494 0  -4.910388558996985 -2.447881127561627 0  -4.91038583628699 2.447885202083215 0  -1.748486900456666 4.910930750771671 0  -1.744274558056146 -4.914375013377167 0  4.920522212554806 1.744032966211841 0  4.909040191101483 -1.747788887965567 0  -4.909335075803074 -1.747523554853036 0  -4.9101584180718 1.747269045582976 0  1.745757632673676 4.904780802186941 0  1.747167102740882 -4.892914178189767 0  -1.148803639702155 4.908696035661747 0  -1.129663620450221 -4.916621881672627 0  -4.909023710714613 -1.147859537230171 0  -4.908841690784135 1.147660185996964 0  1.143800549815382 -4.912800868291732 0  1.148813432075485 4.908682317239993 0  4.909162865071361 1.146134449731393 0  4.920014871772015 -1.151924622853573 0  -0.5466489411823872 -4.909875159625022 0  -0.5464338227199309 4.918574189233264 0  -4.907732952309898 -0.5486705013924366 0  -4.907756918477713 0.5472286866881836 0  4.907049572174265 -0.5489885171977925 0  4.918732229438242 0.5457505955058125 0  0.5424294905817469 -4.896730052380635 0  0.5511616097754926 4.915391298638212 0  -4.911836740817397 -3.048246343062839 0  4.918411639380502 3.046265570158539 0  4.911344070235666 -3.048221449860746 0  -4.912684947852663 3.045338421689724 0  3.055263212950718 -4.917333414592299 0  -3.048591136095718 -4.911265423356564 0  3.052159305042469 4.91334428553259 0  -3.048037154238635 4.912155806903726 0  -4.906832339704151 -0.04990388713698393 0  0.04511861889130307 -4.911824036495098 0  0.04956579122534304 4.918863701623686 0  4.913902549338152 -0.05128648210576889 0  3.545589667606517 -4.918992415993849 0  -3.548867578836485 4.911889
[...]
<PointData  Vectors="f_5678"> 
<DataArray  type="Float64"  Name="f_5678"  NumberOfComponents="3" format="ascii">2.6559658580600303e-76 2.6559658580600303e-76 0.0000000000000000e+00  -2.8445085011138821e-76 2.8445085011138821e-76 0.0000000000000000e+00  -8.5659604779174047e-78 -8.5659604779174047e-78 0.0000000000000000e+00  3.0308186857311735e-76 -3.0308186857311735e-76 0.0000000000000000e+00  7.8825388850781786e-01 8.5123360606025999e-03 0.0000000000000000e+00  4.1660096084694965e-75 6.6061623083469806e-75 0.0000000000000000e+00  2.0823050984113939e-75 2.0880039470611336e-74 0.0000000000000000e+00  -3.4061051491381668e-75 6.7717842036010366e-75 0.0000000000000000e+00  4.0006083875576314e-72 6.6677121515224731e-72 0.0000000000000000e+00  5.3176028620074904e-71 1.3457638522167056e-70 0.0000000000000000e+00  -7.9214745058288601e-72 4.5553669563896401e-71 0.0000000000000000e+00  3.2350498283622221e-69 6.1617862610303010e-69 0.0000000000000000e+00  5.1627713851842472e-68 9.3978233133611018e-68 0.0000000000000000e+00  -3.0658445345385831e-68 1.5001373665545884e-67 0.0000000000000000e+00  1.2771840453303727e-67 3.9814092966647897e-67 0.0000000000000000e+00  1.2627543955285134e-68 8.7790975653661512e-67 0.0000000000000000e+00  5.4539518302322463e-64 8.8215450498960722e-64 0.0000000000000000e+00  4.7435532769486349e-65 2.4418677939040365e-63 0.0000000000000000e+00  1.3498288581773628e-62 2.1985922984145276e-62 0.0000000000000000e+00  8.0693926340300022e-63 8.3179048486695051e-62 0.0000000000000000e+00  6.9351806537300201e-61 1.1020655160198648e-60 0.0000000000000000e+00  4.0647085755206463e-60 7.0053063052473192e-60 0.0000000000000000e+00  -2.8487637048153978e-60 7.7000183544201869e-60 0.0000000000000000e+00  5.6657492533879411e-59 1.1366020887813943e-58 0.0000000000000000e+00  -1.7600064517313092e-59 1.1647042117404707e-58 0.0000000000000000e+00  -3.0053837195120584e-59 6.8395404584814888e-59 0.0000000000000000e+00  1.8034868168486443e-58 3.3035922444587969e-58 0.0000000000000000e+00  7.3036324851316231e-58 2.0891703231522848e-57 0.0000000000000000e+00  2.8626015247473908e-57 6.2318627191421678e-57 0.0000000000000000e+00  -3.4097674191139825e-57 5.7393126033489580e-57 0.0000000000000000e+00  -3.5250834801092172e-58 1.0979240929810579e-57 0.0000000000000000e+00  1.9100380434068240e-56 2.9312653830854024e-56 0.0000000000000000e+00  -1.4146784550832760e-56 3.5314076744923215e-56 0.0000000000000000e+00  1.1922943991304535e-56 2.8929816360813058e-56 0.0000000000000000e+00  8.7447688835672696e-56 2.0972243864526712e-55 0.0000000000000000e+00  -2.5138994726994631e-56 5.7434825325765117e-55 0.0000000000000000e+00  5.2148623408179333e-57 8.6104779356838272e-57 0.0000000000000000e+00  5.5495117317514462e-56 1.3814736474833363e-55 0.0000000000000000e+00  1.5502914197144570e-55 6.1688877025870962e-55 0.0000000000000000e+00  -2.2384285228431535e-55 3.5171791673558522e-55 0.0000000000000000e+00  9.8457222509195716e-55 1.7225392039544432e-54 0.0000000000000000e+00  -4.4254286919048787e-55 4.3615821123287592e-54 0.0000000000000000e+00  -2.2852760667836044e-55 2.6820648189009108e-54 0.0000000000000000e+00  -9.6288210847895547e-56 9.4399223489804807e-55 0.0000000000000000e+00  -1.1323251656772695e-55 1.8224956341501645e-55 0.0000000000000000e+00  2.7629476524819601e-54 5.2324471052985999e-54 0.0000000000000000e+00  -2.1623266186887111e-54 4.1396486217140012e-54 0.0000000000000000e+00  -7.2004049565295630e-55 8.0826958668134112e-55 0.0000000000000000e+00  -1.3220342396877737e-55 2.7134264117396598e-55 0.0000000000000000e+00  9.3141694229385397e-55 1.4449290790969285e-54 0.0000000000000000e+00  9.4661046366068218e-55 6.1541727259463577e-54 0.0000000000000000e+00  -1.1299185516462468e-54 5.8988547019356754e-54 0.0000000000000000e+00  5.1532004741315809e-55 4.6479121673127262e-54 0.0000000000000000e+00  1.9100686716425972e-56 5.7928363439662732e-54 0.0000000000000000e+00  3.0212420645287122e-55 6.1509913497447704e-54 0.0000000000000000e+00  -1.2631999138045467e-54 2.0440952417670014e-54 0.0000000000000000e+00  -6.4629057386568870e-55 1.4722731959589119e-53 0.0000000000000000e+00  4.4693169002314366e-54 7.4696812031024561e-54 0.0000000000000000e+00  -4.3526936278916191e-54 8.0950827809697266e-54 0.0000000000000000e+00  1.9243068786243505e-54 3.9572864434948066e-54 0.0000000000000000e+00  -7.3701911778659438e-55 9.4983346435804467e-54 0.0000000000000000e+00  1.3329191959257458e-54 9.3290365346926741e-54 0.0000000000000000e+00  -1.6870428977166810e-54 4.3958123351078991e-54 0.0000000000000000e+00  -9.2620174347471759e-55 2.4043271825002831e-54 0.0000000000000000e+00  3.3359018685694809e-55 1.2997431015146704e-54 0.0000000000000000e+00  2.6608004042762908e-55 2.5376989330249497e-54 0.0000000000000000e+00  -7.8357648758790864e-56 3.4897387609603645e-54 0.0000000000000000e+00  -7.1216677133269913e-55 1.4810698404323568e-54 0.0000000000000000e+00  2.3808603810836596e-55 4.4275327770799928e-55 0.0000000000000000e+00  -2.3124493215368920e-55 6.0218005345276214e-55 0.0000000000000000e+00  5.0399759752853448e-56 2.3983645663430514e-55 0.0000000000000000e+00  1.8687985723970387e-55 9.5254492447663991e-55 0.0000000000000000e+00  -3.3073675566083728e-55 5.2991509752469318e-55 0.0000000000000000e+00  -1.5925250157839003e-56 4.8206596063887638e-56 0.0000000000000000e+00  -1.1359501630551003e-57 1.1331853562515445e-56 0.0000000000000000e+00  6.7609828851715866e-57 2.3557306422324762e-56 0.0000000000000000e+00  -9.0012680272705991e-57 1.5011358246695424e-56 0.0000000000000000e+00  1.7434423916046917e-57 2.8888097622822864e-57 0.0000000000000000e+00  -1.2453052850687398e-57 2.7230262428993855e-57 0.0000000000000000e+00  5.1804824894489790e-57 7.8143789104140673e-57 0.0000000000000000e+00  -4.5361380815422275e-57 1.1245956606491175e-56 0.0000000000000000e+00  -1.8149296870583190e-58 9.3930709427561472e-58 0.0000000000000000e+00  -2.3934979331812119e-58 4.6499196657591457e-58 0.0000000000000000e+00  -7.8817665381913505e-61 8.8102544816781881e-59 0.0000000000000000e+00  -2.4469361847239952e-59 6.4203026550576712e-59 0.0000000000000000e+00  -7.1182033987742179e-60 2.4990384795861369e-59 0.0000000000000000e+00  -4.3858702609250474e-60 2.2382628429937527e-59 0.0000000000000000e+00  -3.0634788585455310e-60 7.1653669731721666e-60 0.0000000000000000e+00  -8.5250838222478527e-62 4.4344606140153347e-61 0.0000000000000000e+00  -1.0760133930799973e-61 2.2332101844253969e-61 0.0000000000000000e+00  -3.5875843238996024e-62 5.6718534756019465e-62 0.0000000000000000e+00  -3.9102245419296945e-64 6.6952688584800325e-64 0.0000000000000000e+00  -2.4313294717559127e-65 5.1694024530666580e-65 0.0000000000000000e+00  3.7084324112290164e-66 1.0388814770059956e-65 0.0000000000000000e+00  -4.8424455505948361e-66 9.2595048068446179e-66 0.0000000000000000e+00  -6.6998964906523643e-68 2.7708092135751048e-67 0.0000000000000000e+00  -7.8536105079658376e-68 1.2914953607934323e-67 0.0000000000000000e+00  -8.0611293414564569e-69 1.1729708974714093e-68 0.0000000000000000e+00  -5.6335000743641387e-70 9.5189026581270003e-70 0.0000000000000000e+00  -3.7795532436825324e-71 6.8178858825963994e-71 0.0000000000000000e+00  -1.8784828753716410e-72 3.2024187675930364e-72 0.0000000000000000e+00  -1.2177666900819724e-73 2.7266313179373368e-73 0.0000000000000000e+00  -4.4212103284848174e-75 1.2911249231410063e-74 0.0000000000000000e+00  -2.5481401885221680e-75 4.2411262663336390e-75 0.0000000000000000e+00  -9.7687685504315673e-76 3.5584340732352060e-76 0.0000000000000000e+00  -1.6211524516453872e-75 -2.3926770648300895e-76 0.0000000000000000e+00  -2.4487990141440186e-74 1.1591910598935085e-74 0.0000000000000000e+00  -3.6791134737690954e-74 1.5505821141432506e-75 0.0000000000000000e+00  -3.8828192626470579e-73 1.4336943443280684e-73 0.0000000000000000e+00  -1.0235984474191440e-71 6.2398514125277745e-72 0.0000000000000000e+00  -6.7396164952126556e-71 3.7094936353481104e-71 0.0000000000000000e+00  -1.0610245618610262e-70 3.9046200799211860e-72 0.0000000000000000e+00  -8.8992090815598234e-70 3.3103044774974399e-70 0.0000000000000000e+00  -2.1280056687420366e-68 1.2871433357144890e-68 0.0000000000000000e+00  -1.0234625921714171e-67 5.1133811907461425e-68 0.0000000000000000e+00  -1.0139288654534635e-67 -6.0304473125920424e-68 0.0000000000000000e+00  -3.1646749908373267e-66 1.7473714282817243e-66 0.0000000000000000e+00  -3.1839606884547476e-65 1.8332751541683803e-65 0.0000000000000000e+00  -5.3855373195812859e-65 5.0505840759048090e-66 0.0000000000000000e+00  -4.4355562201283300e-64 1.4478063810445147e-64 0.0000000000000000e+00  -6.9895908708601437e-63 4.3635314445528318e-63 0.0000000000000000e+00  -1.5061314951595852e-62 3.7527074344809304e-63 0.0000000000000000e+00  -8.4317553456394322e-62 1.9685837579351025e-62 0.0000000000000000e+00  -1.3541528694680767e-60 8.5285788459726947e-61 0.0000000000000000e+00  -2.4165835704938886e-60 3.3864367460473708e-61 0.0000000000000000e+00  -2.1162720772281972e-59 7.4072723318312970e-60 0.0000000000000000e+00  -2.4155763948048785e-58 1.4966241140293726e-58 0.0000000000000000e+00  -2.5885446265142444e-58 -9.4318985064826693e-59 0.0000000000000000e+00  -5.9753114151678740e-57 2.7856893884809523e-57 0.0000000000000000e+00  -2.4822760522091549e-56 1.2410034306806498e-56 0.0000000000000000e+00  -5.5642803101182767e-56 -8.7001156236387013e-57 0.0000000000000000e+00  -1.0106533870194928e-54 6.4897416247676781e-55 0.0000000000000000e+00  -1.1209316197671293e-54 -3.4694102414543583e-55 0.0000000000000000e+00  -2.4067820472353452e-53 1.2712684720429612e-53 0.0000000000000000e+00  -6.5905140206147688e-53 2.9936891658503093e-53 0.0000000000000000e+00  -4.3554554921974844e-52 1.2261651766744998e-52 0.0000000000000000e+00  -2.6644753825814793e-51 1.6655424903293340e-51 0.0000000000000000e+00  -7.6659468097770520e-51 -2.1478500232143196e-52 0.0000000000000000e+00  -7.1934971195487714e-50 4.6037680777132820e-50 0.0000000000000000e+00  -1.6172799830374937e-49 -1.4803420353570695e-50 0.0000000000000000e+00  -1.7289371263244116e-48 1.0115315997343073e-48 0.0000000000000000e+00  -4.3412016987467679e-48 -2.0438010130321391e-49 0.0000000000000000e+00  -2.0132339736688225e-47 1.1113235423525679e-47 0.0000000000000000e+00  -1.1026570038878126e-46 1.8981901388015753e-47 0.0000000000000000e+00  -1.0246712853791861e-46 2.4634338177136664e-47 0.0000000000000000e+00  -1.2405471628881304e-45 5.2598735201970636e-46 0.0000000000000000e+00  -8.7384891241125123e-46 -5.6861987537732739e-46 0.0000000000000000e+00  -1.3429293177361073e-44 8.0808066494988675e-45 0.0000000000000000e+00  -5.7957010465196654e-44 1.3754549917811906e-44 0.0000000000000000e+00  -3.6154121353733940e-44 -1.7535428904111187e-44 0.0000000000000000e+00  -1.1425331023098952e-43 6.5085720132747564e-44 0.0000000000000000e+00  -8.4130639184394070e-43 2.3188547478391862e-43 0.0000000000000000e+00  -1.9291215726934625e-42 1.9778284893917183e-43 0.0000000000000000e+00  -2.5117106346913314e-42 6.1119262038849982e-44 0.0000000000000000e+00  -2.0144962892525837e-42 -1.9502739753480241e-43 0.0000000000000000e+00  -8.6137420787440737e-43 -2.5086979840656653e-43 0.0000000000000000e+00  -1.1324968773800227e-43 -6.4547100767583127e-44 0.0000000000000000e+00  -3.8713879786627309e-44 1.8525623388294208e-44 0.0000000000000000e+00  -6.3165778110966238e-44 -1.0834793373567012e-44 0.0000000000000000e+00  -1.4988963031262953e-44 -7.8764968287636645e-45 0.0000000000000000e+00  -9.9887721938585954e-46 5.6787926722544112e-46 0.0000000000000000e+00  -1.4039158611404722e-45 -5.3921494637452608e-46 0.0000000000000000e+00  -1.1208135729123772e-46 -2.8584359017519611e-47 0.0000000000000000e+00  -1.0181164280785212e-46 -2.1441767782104065e-47 0.0000000000000000e+00  -1.8608797786369180e-47 -1.1983892539837038e-47 0.0000000000000000e+00  -4.0856211661565540e-48 2.0351524294935813e-49 0.0000000000000000e+00  -1.4867110483430493e-48 -9.3662508337030823e-49 0.0000000000000000e+00  -1.6332019666245402e-49 2.4572365598531831e-50 0.0000000000000000e+00  -7.4574222053353980e-50 -4.4228893073309493e-50 0.0000000000000000e+00  -8.2462767602789335e-51 6.4116477467460174e-52 0.0000000000000000e+00  -3.1453235376238839e-51 -1.7841973441862039e-51 0.0000000000000000e+00  -5.1027872008133137e-52 -1.1468508859633574e-52 0.0000000000000000e+00  -8.2056867791309157e-53 -3.5478600308457553e-53 0.0000000000000000e+00  -2.6617627685222066e-53 -1.3159087917186111e-53 0.0000000000000000e+00  -1.1972248714951976e-54 3.2399682766567670e-55 0.0000000000000000e+00  -1.0636315103855074e-54 -6.8059118785248780e-55 0.0000000000000000e+00  -5.1524915718674556e-56 8.3520890323462703e-57 0.0000000000000000e+00  -2.3364359927285684e-56 -1.3239484906903954e-56 0.0000000000000000e+00  -4.8235871108421772e-57 -2.5214425761317600e-57 0.0000000000000000e+00  -2.4587911110805021e-58 8.5466249750255622e-59 0.0000000000000000e+00  -2.1581453091925167e-58 -1.3285769407902974e-58 0.0000000000000000e+00  -1.9910014562283214e-59 -6.1461076202855894e-60 0.0000000000000000e+00  -2.3748829777259087e-60 -3.3959443187851582e-61 0.0000000000000000e+00  -1.2907766035405460e-60 -7.6084646558382187e-61 0.0000000000000000e+00  -7.6905789227237110e-62 -2.1437175256519564e-62 0.0000000000000000e+00  -1.3593511989566679e-62 -2.9303838030207009e-63 0.0000000000000000e+00  -6.6388376899587160e-63 -3.7883575125652105e-63 0.0000000000000000e+00  -4.7829139915878310e-64 -1.8196033292374987e-64 0.0000000000000000e+00  -4.3638683404247546e-65 9.5807034042872708e-67 0.0000000000000000e+00  -2.9480072945322198e-65 -1.6621067560079563e-65 0.0000000000000000e+00  -3.4130661625547825e-66 -1.9887439797157034e-66 0.0000000000000000e+00  -8.9958991407175909e-68 5.4808530348248587e-68 0.0000000000000000e+00  -8.6362732046211921e-68 -4.1776348172888583e-68 0.0000000000000000e+00  -2.0681040957391609e-68 -1.2850086894249982e-68 0.0000000000000000e+00  -1.1326136632081537e-69 -5.1336939987132286e-70 0.0000000000000000e+00  -8.7944921180526707e-71 1.3789676589661744e-71 0.0000000000000000e+00  -6.9080125853795014e-71 -3.6572699201968734e-71 0.0000000000000000e+00  -1.2478765233230656e-71 -7.6624382212701432e-72 0.0000000000000000e+00  -5.9818615381662157e-73 -2.7511312167985474e-73 0.0000000000000000e+00  -3.9237745651152506e-74 7.4236621711161670e-75 0.0000000000000000e+00  -3.1565137935583903e-74 -1.4790410825201619e-74 0.0000000000000000e+00  -6.5905850014507761e-75 -3.3571223844025425e-75 0.0000000000000000e+00  -7.1798862348681749e-76 -3.1071656168728375e-76 0.0000000000000000e+00  -8.5519949086487509e-76 -1.6228406698931440e-75 0.0000000000000000e+00  -4.7735943233145064e-75 -1.3945881354713604e-74 0.0000000000000000e+00  4.3672079601842239e-75 -8.3089632250894873e-75 0.0000000000000000e+00  -1.6294899641515048e-73 -3.4271607924626899e-73 0.0000000000000000e+00  -9.2860906505047838e-71 -1.0069017850839532e-70 0.0000000000000000e+00  -7.5072299764777298e-70 -1.3176609201100265e-69 0.0000000000000000e+00  -1.0985780462311031e-69 -3.6511401483085830e-69 0.0000000000000000e+00  -7.7621422377396333e-68 -1.7113306552666771e-67 0.0000000000000000e+00  -6.5321443262093614e-68 -3.2598674070653661e-67 0.0000000000000000e+00  -6.7910385152678099e-66 -1.3499723535815696e-65 0.0000000000000000e+00  -4.5208178240090595e-66 -2.1315578340354715e-65 0.0000000000000000e+00  -9.0717417054392706e-65 -1.5573953271878644e-64 0.0000000000000000e+00  1.7224577031842054e-65 -2.1036000746271708e-64 0.0000000000000000e+00  -4.2769685275397527e-62 -6.4015086231070806e-62 0.0000000000000000e+00  -7.0010462182140971e-62 -1.7205305520312024e-61 0.0000000000000000e+00  -2.3269075290852379e-62 -2.7285706523949096e-61 0.0000000000000000e+00  -5.7426446703509600e-60 -1.1360922013800475e-59 0.0000000000000000e+00  4.7704321383894169e-60 -1.5021992236465237e-59 0.0000000000000000e+00  -2.9024781422533937e-59 -4.7479237768613490e-59 0.0000000000000000e+00  8.8267438489771066e-60 -6.0864500998901730e-59 0.0000000000000000e+00  2.3270956424510717e-59 -3.9728473014238094e-59 0.0000000000000000e+00  -5.6420181997704246e-58 -8.9452191116040741e-58 0.0000000000000000e+00  -1.3813673841520815e-59 -1.2602326484695962e-57 0.0000000000000000e+00  -4.6376390388638733e-57 -1.1635685416307428e-56 0.0000000000000000e+00  5.7550217463660314e-57 -8.6768784825702253e-57 0.0000000000000000e+00  -5.3392238060411797e-57 -7.3356409003444545e-57 0.0000000000000000e+00  -1.7690479132943733e-56 -3.7725826441658052e-56 0.0000000000000000e+00  2.1644032820475631e-56 -4.0722072876401599e-56 0.0000000000000000e+00  -5.0086858465209943e-57 -9.1983262716157311e-57 0.0000000000000000e+00  -8.1286049286740470e-56 -2.0306387838006309e-55 0.0000000000000000e+00  6.3838969947097154e-56 -5.0772392510524145e-55 0.0000000000000000e+00  -4.2960041599515840e-55 -7.2559530837625188e-55 0.0000000000000000e+00  -4.8844852269416919e-56 -1.8357130930748966e-54 0.0000000000000000e+00  1.6630182366526848e-55 -5.7404704888958327e-55 0.0000000000000000e+00  -5.1908028534371979e-55 -1.6757408812730171e-54 0.0000000000000000e+00  -2.2575742075027055e-54 -7.0708566676388934e-54 0.0000000000000000e+00  2.5871521376672662e-54 -6.0775646231899629e-54 0.0000000000000000e+00  -6.7327564262184052e-55 -2.3894747723558845e-54 0.0000000000000000e+00  5.3360345618448840e-55 -2.8192220824526108e-54 0.0000000000000000e+00  1.2851296799482238e-55 -1.4248139669113322e-54 0.0000000000000000e+00  -2.1847803055904941e-54 -3.4661232145183025e-54 0.0000000000000000e+00  5.7256339294481804e-55 -8.2270419951809650e-54 0.0000000000000000e+00  -3.9388748477878808e-54 -1.3556880315889155e-53 0.0000000000000000e+00  4.7026927926678152e-54 -7.7153405760905956e-54 0.0000000000000000e+00  2.0362782822380748e-55 -6.5062467408640885e-55 0.0000000000000000e+00  -4.8121055016399642e-54 -8.0083292734590859e-54 0.0000000000000000e+00  4.8381260006500988e-54 -7.8699856182656879e-54 0.0000000000000000e+00  -1.6657835879483062e-56 -1.3349797992218361e-55 0.0000000000000000e+00  1.1180045583318057e-56 -2.7680095081636780e-55 0.0000000000000000e+00  2.2121033373035133e-56 -9.8796577687658836e-56 0.0000000000000000e+00  -5.2168765087290651e-54 -9.3538055491395488e-54 0.0000000000000000e+00  5.5642062151632491e-54 -9.4074496968771311e-54 0.0000000000000000e+00  5.6886722085366951e-56 -1.0518193261907556e-55 0.0000000000000000e+00  -1.4364491385387901e-56 -6.2048437296519761e-56 0.0000000000000000e+00  -5.0113654654616107e-55 -9.0471403857509643e-55 0.0000000000000000e+00  -5.8287025971289312e-54 -1.0046783434334341e-53 0.0000000000000000e+00  4.5144206045339329e-54 -1.0490921475736539e-53 0.0000000000000000e+00  -3.0597029824333260e-54 -7.9860077491969270e-54 0.0000000000000000e+00  2.4445867596749442e-54 -8.5492920552638078e-54 0.0000000000000000e+00  2.2515912687287278e-54 -3.3056267751916427e-54 0.0000000000000000e+00  -5.4493638564929100e-55 -1.4799966723308241e-54 0.0000000000000000e+00  8.3751709587697593e-55 -1.5735893832064806e-54 0.0000000000000000e+00  -4.9343775693345120e-55 -9.8339024512694012e-55 0.0000000000000000e+00  5.1357094789030036e-55 -8.8532847556311458e-55 0.0000000000000000e+00  -1.5698530510797572e-56 -2.6925921071955120e-56 0.0000000000000000e+00  -4.4860827693243595e-56 -1.7219770062058323e-55 0.0000000000000000e+00  4.1800363679042892e-56 -1.7466222495307898e-55 0.0000000000000000e+00  4.8095015924603349e-57 -6.9028210293163603e-56 0.0000000000000000e+00  -2.7534342984941354e-56 -6.5438094829022044e-56 0.0000000000000000e+00  3.2933486731886251e-56 -6.4123226289893322e-56 0.0000000000000000e+00  -2.8631695074486660e-57 -2.8734732563138129e-56 0.0000000000000000e+00  1.2978530019461381e-56 -3.0014760615909002e-56 0.0000000000000000e+00  1.0037651832068621e-57 -2.3986314205014314e-57 0.0000000000000000e+00  -4.3884373675260923e-57 -7.6410549335363610e-57 0.0000000000000000e+00  4.2548216362850319e-57 -1.1005039378995008e-56 0.0000000000000000e+00  3.1281481091586125e-58 -1.0211599239286197e-57 0.0000000000000000e+00  1.4395037454872454e-58 -5.025519