<?xml version="1.0"?>
<VTKFile type="UnstructuredGrid"  version="0.1"  >
<UnstructuredGrid>
<Piece  NumberOfPoints="11902" NumberOfCells="23402">
<Points>
<DataArray  type="Float64"  NumberOfComponents="3"  format="ascii">-5 -5 0  5 -5 0  5 5 0  -5 5 0  1 0 0  -4.9 -5 0  -4.8 -5 0  -4.7 -5 0  -4.6 -5 0  -4.5 -5 0  -4.4 -5 0  -4.3 -5 0  -4.2 -5 0  -4.1 -5 0  -4 -5 0  -3.9 -5 0  -3.8 -5 0  -3.7 -5 0  -3.6 -5 0  -3.5 -5 0  -3.4 -5 0  -3.3 -5 0  -3.2 -5 0  -3.1 -5 0  -3 -5 0  -2.9 -5 0  -2.8 -5 0  -2.7 -5 0  -2.6 -5 0  -2.5 -5 0  -2.4 -5 0  -2.3 -5 0  -2.2 -5 0  -2.1 -5 0  -2 -5 0  -1.9 -5 0  -1.8 -5 0  -1.7 -5 0  -1.6 -5 0  -1.5 -5 0  -1.4 -5 0  -1.3 -5 0  -1.2 -5 0  -1.1 -5 0  -1 -5 0  -0.9000000000000004 -5 0  -0.7999999999999998 -5 0  -0.7000000000000002 -5 0  -0.5999999999999996 -5 0  -0.5 -5 0  -0.4000000000000004 -5 0  -0.2999999999999998 -5 0  -0.2000000000000002 -5 0  -0.09999999999999964 -5 0  0 -5 0  0.09999999999999964 -5 0  0.2000000000000002 -5 0  0.2999999999999998 -5 0  0.4000000000000004 -5 0  0.5 -5 0  0.5999999999999996 -5 0  0.7000000000000002 -5 0  0.7999999999999998 -5 0  0.9000000000000004 -5 0  1 -5 0  1.1 -5 0  1.2 -5 0  1.3 -5 0  1.4 -5 0  1.5 -5 0  1.6 -5 0  1.7 -5 0  1.8 -5 0  1.9 -5 0  2 -5 0  2.1 -5 0  2.2 -5 0  2.3 -5 0  2.4 -5 0  2.5 -5 0  2.6 -5 0  2.7 -5 0  2.8 -5 0  2.9 -5 0  3 -5 0  3.1 -5 0  3.199999999999999 -5 0  3.300000000000001 -5 0  3.4 -5 0  3.5 -5 0  3.6 -5 0  3.699999999999999 -5 0  3.800000000000001 -5 0  3.9 -5 0  4 -5 0  4.1 -5 0  4.199999999999999 -5 0  4.300000000000001 -5 0  4.4 -5 0  4.5 -5 0  4.6 -5 0  4.699999999999999 -5 0  4.800000000000001 -5 0  4.9 -5 0  5 -4.9 0  5 -4.8 0  5 -4.7 0  5 -4.6 0  5 -4.5 0  5 -4.4 0  5 -4.3 0  5 -4.2 0  5 -4.1 0  5 -4 0  5 -3.9 0  5 -3.8 0  5 -3.7 0  5 -3.6 0  5 -3.5 0  5 -3.4 0  5 -3.3 0  5 -3.2 0  5 -3.1 0  5 -3 0  5 -2.9 0  5 -2.8 0  5 -2.7 0  5 -2.6 0  5 -2.5 0  5 -2.4 0  5 -2.3 0  5 -2.2 0  5 -2.1 0  5 -2 0  5 -1.9 0  5 -1.8 0  5 -1.7 0  5 -1.6 0  5 -1.5 0  5 -1.4 0  5 -1.3 0  5 -1.2 0  5 -1.1 0  5 -1 0  5 -0.9000000000000004 0  5 -0.7999999999999998 0  5 -0.7000000000000002 0  5 -0.5999999999999996 0  5 -0.5 0  5 -0.4000000000000004 0  5 -0.2999999999999998 0  5 -0.2000000000000002 0  5 -0.09999999999999964 0  5 0 0  5 0.09999999999999964 0  5 0.2000000000000002 0  5 0.2999999999999998 0  5 0.4000000000000004 0  5 0.5 0  5 0.5999999999999996 0  5 0.7000000000000002 0  5 0.7999999999999998 0  5 0.9000000000000004 0  5 1 0  5 1.1 0  5 1.2 0  5 1.3 0  5 1.4 0  5 1.5 0  5 1.6 0  5 1.7 0  5 1.8 0  5 1.9 0  5 2 0  5 2.1 0  5 2.2 0  5 2.3 0  5 2.4 0  5 2.5 0  5 2.6 0  5 2.7 0  5 2.8 0  5 2.9 0  5 3 0  5 3.1 0  5 3.199999999999999 0  5 3.300000000000001 0  5 3.4 0  5 3.5 0  5 3.6 0  5 3.699999999999999 0  5 3.800000000000001 0  5 3.9 0  5 4 0  5 4.1 0  5 4.199999999999999 0  5 4.300000000000001 0  5 4.4 0  5 4.5 0  5 4.6 0  5 4.699999999999999 0  5 4.800000000000001 0  5 4.9 0  4.9 5 0  4.8 5 0  4.7 5 0  4.6 5 0  4.5 5 0  4.4 5 0  4.3 5 0  4.2 5 0  4.1 5 0  4 5 0  3.9 5 0  3.8 5 0  3.7 5 0  3.6 5 0  3.5 5 0  3.4 5 0  3.3 5 0  3.2 5 0  3.1 5 0  3 5 0  2.9 5 0  2.8 5 0  2.7 5 0  2.6 5 0  2.5 5 0  2.4 5 0  2.3 5 0  2.2 5 0  2.1 5 0  2 5 0  1.9 5 0  1.8 5 0  1.7 5 0  1.6 5 0  1.5 5 0  1.4 5 0  1.3 5 0  1.2 5 0  1.1 5 0  1 5 0  0.9000000000000004 5 0  0.7999999999999998 5 0  0.7000000000000002 5 0  0.5999999999999996 5 0  0.5 5 0  0.4000000000000004 5 0  0.2999999999999998 5 0  0.2000000000000002 5 0  0.09999999999999964 5 0  0 5 0  -0.09999999999999964 5 0  -0.2000000000000002 5 0  -0.2999999999999998 5 0  -0.4000000000000004 5 0  -0.5 5 0  -0.5999999999999996 5 0  -0.7000000000000002 5 0  -0.7999999999999998 5 0  -0.9000000000000004 5 0  -1 5 0  -1.1 5 0  -1.2 5 0  -1.3 5 0  -1.4 5 0  -1.5 5 0  -1.6 5 0  -1.7 5 0  -1.8 5 0  -1.9 5 0  -2 5 0  -2.1 5 0  -2.2 5 0  -2.3 5 0  -2.4 5 0  -2.5 5 0  -2.6 5 0  -2.7 5 0  -2.8 5 0  -2.9 5 0  -3 5 0  -3.1 5 0  -3.199999999999999 5 0  -3.300000000000001 5 0  -3.4 5 0  -3.5 5 0  -3.6 5 0  -3.699999999999999 5 0  -3.800000000000001 5 0  -3.9 5 0  -4 5 0  -4.1 5 0  -4.199999999999999 5 0  -4.300000000000001 5 0  -4.4 5 0  -4.5 5 0  -4.6 5 0  -4.699999999999999 5 0  -4.800000000000001 5 0  -4.9 5 0  -5 4.9 0  -5 4.8 0  -5 4.7 0  -5 4.6 0  -5 4.5 0  -5 4.4 0  -5 4.3 0  -5 4.2 0  -5 4.1 0  -5 4 0  -5 3.9 0  -5 3.8 0  -5 3.7 0  -5 3.6 0  -5 3.5 0  -5 3.4 0  -5 3.3 0  -5 3.2 0  -5 3.1 0  -5 3 0  -5 2.9 0  -5 2.8 0  -5 2.7 0  -5 2.6 0  -5 2.5 0  -5 2.4 0  -5 2.3 0  -5 2.2 0  -5 2.1 0  -5 2 0  -5 1.9 0  -5 1.8 0  -5 1.7 0  -5 1.6 0  -5 1.5 0  -5 1.4 0  -5 1.3 0  -5 1.2 0  -5 1.1 0  -5 1 0  -5 0.9000000000000004 0  -5 0.7999999999999998 0  -5 0.7000000000000002 0  -5 0.5999999999999996 0  -5 0.5 0  -5 0.4000000000000004 0  -5 0.2999999999999998 0  -5 0.2000000000000002 0  -5 0.09999999999999964 0  -5 0 0  -5 -0.09999999999999964 0  -5 -0.2000000000000002 0  -5 -0.2999999999999998 0  -5 -0.4000000000000004 0  -5 -0.5 0  -5 -0.5999999999999996 0  -5 -0.7000000000000002 0  -5 -0.7999999999999998 0  -5 -0.9000000000000004 0  -5 -1 0  -5 -1.1 0  -5 -1.2 0  -5 -1.3 0  -5 -1.4 0  -5 -1.5 0  -5 -1.6 0  -5 -1.7 0  -5 -1.8 0  -5 -1.9 0  -5 -2 0  -5 -2.1 0  -5 -2.2 0  -5 -2.3 0  -5 -2.4 0  -5 -2.5 0  -5 -2.6 0  -5 -2.7 0  -5 -2.8 0  -5 -2.9 0  -5 -3 0  -5 -3.1 0  -5 -3.199999999999999 0  -5 -3.300000000000001 0  -5 -3.4 0  -5 -3.5 0  -5 -3.6 0  -5 -3.699999999999999 0  -5 -3.800000000000001 0  -5 -3.9 0  -5 -4 0  -5 -4.1 0  -5 -4.199999999999999 0  -5 -4.300000000000001 0  -5 -4.4 0  -5 -4.5 0  -5 -4.6 0  -5 -4.699999999999999 0  -5 -4.800000000000001 0  -5 -4.9 0  0.9950307753654014 0.09956784659581641 0  0.9801724878485439 0.1981461431993971 0  0.955572805786141 0.2947551744109034 0  0.9214762118704081 0.3884347962746937 0  0.8782215733702291 0.4782539786213171 0  0.8262387743159958 0.5633200580636207 0  0.7660444431189791 0.642787609686538 0  0.6982368180860742 0.7158668492597171 0  0.6234898018587353 0.7818314824680284 0  0.5425462638657613 0.8400259231507702 0  0.4562106573531652 0.8898718088114674 0  0.3653410243663976 0.9308737486442032 0  0.2708404681430079 0.9626242469500113 0  0.1736481776669335 0.9848077530122075 0  0.07473009358642749 0.9972037971811799 0  -0.02493069173806936 0.9996891820008164 0  -0.1243437046474812 0.9922392066001726 0  -0.22252093395631 0.9749279121818246 0  -0.3184866502516801 0.9479273461671333 0  -0.4112871031306069 0.9115058523116752 0  -0.4999999999999956 0.8660254037844412 0  -0.5837436722347853 0.8119380057158597 0  -0.6616858375968552 0.7497812029677379 0  -0.7330518718298221 0.6801727377709239 0  -0.797132507222919 0.6038044103254819 0  -0.8532908816321524 0.5214352033795034 0  -0.9009688679024164 0.4338837391175638 0  -0.9396926207859061 0.3420201433256752 0  -0.9690772862290763 0.2467573976903003 0  -0.9888308262251275 0.1490422661761813 0  -0.998756921218922 0.04984588566070414 0  -0.9987569212189228 -0.0498458856606897 0  -0.9888308262251297 -0.1490422661761666 0  -0.96907728622908 -0.2467573976902858 0  -0.939692620785911 -0.3420201433256616 0  -0.9009688679024225 -0.4338837391175512 0  -0.8532908816321595 -0.5214352033794919 0  -0.7971325072229264 -0.6038044103254722 0  -0.7330518718298308 -0.6801727377709146 0  -0.6616858375968644 -0.7497812029677299 0  -0.5837436722347948 -0.8119380057158528 0  -0.500000000000005 -0.8660254037844357 0  -0.4112871031306164 -0.9115058523116709 0  -0.3184866502516892 -0.9479273461671301 0  -0.2225209339563189 -0.9749279121818226 0  -0.1243437046474902 -0.9922392066001714 0  -0.0249306917380776 -0.9996891820008161 0  0.07473009358641994 -0.9972037971811805 0  0.1736481776669265 -0.9848077530122088 0  0.2708404681430008 -0.9626242469500133 0  0.3653410243663913 -0.9308737486442057 0  0.4562106573531597 -0.8898718088114703 0  0.5425462638657567 -0.8400259231507732 0  0.6234898018587313 -0.7818314824680316 0  0.6982368180860711 -0.7158668492597202 0  0.7660444431189761 -0.6427876096865416 0  0.8262387743159935 -0.5633200580636242 0  0.8782215733702274 -0.4782539786213201 0  0.9214762118704073 -0.3884347962746956 0  0.9555728057861406 -0.2947551744109047 0  0.9801724878485438 -0.1981461431993977 0  0.9950307753654013 -0.09956784659581729 0  -2.449998658864481 4.920778405384746 0  -2.45 -4.913397459621556 0  4.913390249436301 2.449991278872393 0  4.921241841059507 -2.45126281762114 0  2.447985537477937 -4.899136462700148 0  2.442359973780398 4.902787943906695 0  -4.913392775092561 -2.44999478911229 0  -4.913397586235258 2.449998186285153 0  -1.749994680784746 4.914823892370101 0  -1.745716553790987 -4.918111605932221 0  4.924338796512414 1.745961773375498 0  4.913397459621557 -1.75 0  -4.91364481421298 -1.749701929732257 0  -4.914437307054341 1.749424050316321 0  1.747358710327851 4.908964334432811 0  1.7489603545361 -4.89761013719719 0  -1.15 4.913397459621557 0  -1.130738810679978 -4.920918844836693 0  -4.91440710852225 -1.149648021625244 0  -4.914242774271024 1.149445787907757 0  1.144918407670731 -4.9172991945343 0  1.149995831223957 4.913397616312334 0  4.91459027735465 1.147936738890088 0  4.924782858982709 -1.153518912617952 0  -0.5472708428414548 -4.914970810555997 0  -0.5469952110597515 4.923192385067424 0  -4.913977236983863 -0.5496632005068867 0  -4.914004571221953 0.5482101863479627 0  4.913397459621557 -0.5499999999999998 0  4.924285540704135 0.5466266203620586 0  0.5431100502161902 -4.902583880471643 0  0.5517336370721539 4.920194191617333 0  -4.913867247108992 -3.049996536692655 0  4.920306944860013 3.047903402089654 0  4.913397459621556 -3.05 0  -4.914705888637396 3.047074417188615 0  3.056573935894829 -4.919328034625738 0  -3.05 -4.913397459621556 0  3.053538639919232 4.915440634264215 0  -3.049437787257514 4.914271535215389 0  -4.913398616176713 -0.05000305088463643 0  0.04515664357183806 -4.916955698348546 0  0.04960905818453436 4.923598865925187 0  4.920025728373856 -0.05137916622276772 0  3.546630833645985 -4.920391952325502 0  -3.55 4.913397459621557 0  -3.549999282046433 -4.913397406208844 0  4.920363561957139 3.5485076
[...]
<PointData  Vectors="f_165"> 
<DataArray  type="Float64"  Name="f_165"  NumberOfComponents="3" format="ascii">2.6559658580597505e-76 2.6559658580597505e-76 0.0000000000000000e+00  -2.8445085011135661e-76 2.8445085011135661e-76 0.0000000000000000e+00  -8.5659604778757129e-78 -8.5659604778757129e-78 0.0000000000000000e+00  3.0308186857302770e-76 -3.0308186857302770e-76 0.0000000000000000e+00  -1.0396093891288474e+00 -2.2092712964953829e-02 0.0000000000000000e+00  4.1618256185874924e-75 6.6098253108492068e-75 0.0000000000000000e+00  2.0864109325764768e-75 2.0876505378035874e-74 0.0000000000000000e+00  -3.3939463197495625e-75 6.7612156653560798e-75 0.0000000000000000e+00  3.9852449171699216e-72 6.6810549104664877e-72 0.0000000000000000e+00  5.2956269577665975e-71 1.3476828400831390e-70 0.0000000000000000e+00  -7.8665678189842322e-72 4.5506951216488415e-71 0.0000000000000000e+00  3.2111967153744868e-69 6.1820122909127430e-69 0.0000000000000000e+00  5.1178969738737643e-68 9.4354031370352246e-68 0.0000000000000000e+00  -3.0285353425852040e-68 1.4971206208496856e-67 0.0000000000000000e+00  1.2641481672336483e-67 3.9921692915192829e-67 0.0000000000000000e+00  1.3001428506978186e-68 8.7768126614760552e-67 0.0000000000000000e+00  5.3816161637555861e-64 8.8789529154403109e-64 0.0000000000000000e+00  4.8088537608095321e-65 2.4416036621468310e-63 0.0000000000000000e+00  1.3282359663755273e-62 2.2150522257506196e-62 0.0000000000000000e+00  7.9749689508472138e-63 8.3259650516415336e-62 0.0000000000000000e+00  6.8060102808139994e-61 1.1114988885384335e-60 0.0000000000000000e+00  3.9826312196169687e-60 7.0636206940515947e-60 0.0000000000000000e+00  -2.7862356462888572e-60 7.6570142052247761e-60 0.0000000000000000e+00  5.5395812870919528e-59 1.1452352932975331e-58 0.0000000000000000e+00  -1.7160126375039373e-59 1.1618550432389162e-58 0.0000000000000000e+00  -2.9257556353213090e-59 6.7895596167603351e-59 0.0000000000000000e+00  1.7541997436071105e-58 3.3339757074304858e-58 0.0000000000000000e+00  7.1031949680439104e-58 2.1015304157229692e-57 0.0000000000000000e+00  2.7755884394481754e-57 6.2818878994509560e-57 0.0000000000000000e+00  -3.2990796745806416e-57 5.6788162514873344e-57 0.0000000000000000e+00  -3.4053985829803277e-58 1.0916278991284050e-57 0.0000000000000000e+00  1.8436138255316816e-56 2.9654492170095071e-56 0.0000000000000000e+00  -1.3610178445524584e-56 3.5061742297910381e-56 0.0000000000000000e+00  1.1477499902940524e-56 2.9142916110964544e-56 0.0000000000000000e+00  8.4088203719785678e-56 2.1128136796558060e-55 0.0000000000000000e+00  -2.3590857260766804e-56 5.7401729580661703e-55 0.0000000000000000e+00  4.9930963433639127e-57 8.6998012015710326e-57 0.0000000000000000e+00  5.3109660599368386e-56 1.3909338779633192e-55 0.0000000000000000e+00  1.4830769834413711e-55 6.1953002292902543e-55 0.0000000000000000e+00  -2.1320854809114576e-55 3.4827547175570802e-55 0.0000000000000000e+00  9.3772807185208602e-55 1.7376583974156086e-54 0.0000000000000000e+00  -4.1770847487437983e-55 4.3570639123619225e-54 0.0000000000000000e+00  -2.1556003878015688e-55 2.6800024461740013e-54 0.0000000000000000e+00  -9.0972705684211301e-56 9.4304830638749907e-55 0.0000000000000000e+00  -1.0720339879570641e-55 1.8096030083251224e-55 0.0000000000000000e+00  2.6157464810637185e-54 5.2638332931762085e-54 0.0000000000000000e+00  -2.0439635090835082e-54 4.1186675693391040e-54 0.0000000000000000e+00  -6.8007009178976732e-55 8.0200528414134878e-55 0.0000000000000000e+00  -1.2471026292719442e-55 2.7046346095025178e-55 0.0000000000000000e+00  8.7871129308736735e-55 1.4512610832311521e-54 0.0000000000000000e+00  8.9358273777476317e-55 6.1623585947667684e-54 0.0000000000000000e+00  -1.0638659029733225e-54 5.8977071812111906e-54 0.0000000000000000e+00  4.8593738776642017e-55 4.6519499996356575e-54 0.0000000000000000e+00  1.8306623810060905e-56 5.7962117714477751e-54 0.0000000000000000e+00  2.8457476066805926e-55 6.1544768545150050e-54 0.0000000000000000e+00  -1.1897701712947708e-54 2.0458615180461418e-54 0.0000000000000000e+00  -6.1078352416294794e-55 1.4737625448916884e-53 0.0000000000000000e+00  4.2111391019103463e-54 7.4539624228618765e-54 0.0000000000000000e+00  -4.1034101669458596e-54 8.1174681353942276e-54 0.0000000000000000e+00  1.8146720409435963e-54 3.9459334602920511e-54 0.0000000000000000e+00  -6.9852058732986489e-55 9.5092400386104104e-54 0.0000000000000000e+00  1.2556613157645182e-54 9.3225966675925897e-54 0.0000000000000000e+00  -1.5945978518296608e-54 4.4119887256546524e-54 0.0000000000000000e+00  -8.7705021989027614e-55 2.4150640430234458e-54 0.0000000000000000e+00  3.1532567797299993e-55 1.2964471380808311e-54 0.0000000000000000e+00  2.5106021724232422e-55 2.5353777839686678e-54 0.0000000000000000e+00  -7.6213542403408089e-56 3.4921494414689544e-54 0.0000000000000000e+00  -6.7721984938138996e-55 1.4914103043539446e-54 0.0000000000000000e+00  2.2640608322183303e-55 4.3929661640411502e-55 0.0000000000000000e+00  -2.2059775269761840e-55 6.0588245788064648e-55 0.0000000000000000e+00  4.7957151414358272e-56 2.3907982622664573e-55 0.0000000000000000e+00  1.7796003567198161e-55 9.4965742386306039e-55 0.0000000000000000e+00  -3.1662204765766084e-55 5.3555303786639447e-55 0.0000000000000000e+00  -1.5289316021467044e-56 4.8487167116953682e-56 0.0000000000000000e+00  -1.0976357366636760e-57 1.1352859862945994e-56 0.0000000000000000e+00  6.4847389958103022e-57 2.3438916511718446e-56 0.0000000000000000e+00  -8.6742228597265580e-57 1.5172136367256936e-56 0.0000000000000000e+00  1.6801376824350173e-57 2.8576705378654777e-57 0.0000000000000000e+00  -1.2031657022574440e-57 2.7451983673374554e-57 0.0000000000000000e+00  5.0099010048172758e-57 7.7224723546457287e-57 0.0000000000000000e+00  -4.4025091904885611e-57 1.1324387092282060e-56 0.0000000000000000e+00  -1.7615821830806614e-58 9.4243695151825282e-58 0.0000000000000000e+00  -2.3274390625419662e-58 4.6902707263251446e-58 0.0000000000000000e+00  -7.6742772490633563e-61 8.8115569003266390e-59 0.0000000000000000e+00  -2.3863024345017637e-59 6.4596123333643701e-59 0.0000000000000000e+00  -6.9523663121487551e-60 2.5101114287735041e-59 0.0000000000000000e+00  -4.3028177698251621e-60 2.2443318559878986e-59 0.0000000000000000e+00  -3.0039787096273754e-60 7.2081093249242239e-60 0.0000000000000000e+00  -8.3613916378086291e-62 4.4462463451799286e-61 0.0000000000000000e+00  -1.0569957430710538e-61 2.2472612411560989e-61 0.0000000000000000e+00  -3.5310684475679843e-62 5.7149419771202738e-62 0.0000000000000000e+00  -3.8520651463535518e-64 6.7401575155486272e-64 0.0000000000000000e+00  -2.3993985952902200e-65 5.1946752849115487e-65 0.0000000000000000e+00  3.6567420743363295e-66 1.0348311640732696e-65 0.0000000000000000e+00  -4.7910282526871258e-66 9.3015165797940966e-66 0.0000000000000000e+00  -6.6315980406603356e-68 2.7764103242069333e-67 0.0000000000000000e+00  -7.7845800607095383e-68 1.2972413606678622e-67 0.0000000000000000e+00  -8.0002704562977665e-69 1.1780960535023960e-68 0.0000000000000000e+00  -5.5973576319802887e-70 9.5496127908365006e-70 0.0000000000000000e+00  -3.7598097715142941e-71 6.8347995691892129e-71 0.0000000000000000e+00  -1.8707672181726586e-72 3.2090700025005155e-72 0.0000000000000000e+00  -1.2148027187700924e-73 2.7292073200217746e-73 0.0000000000000000e+00  -4.4117692612027101e-75 1.2919447429200817e-74 0.0000000000000000e+00  -2.5455131719253309e-75 4.2434125895791403e-75 0.0000000000000000e+00  -9.7732152429943660e-76 3.5545587325317590e-76 0.0000000000000000e+00  -1.6200359629859075e-75 -2.3828892973441273e-76 0.0000000000000000e+00  -2.4521707095519172e-74 1.1562402981074660e-74 0.0000000000000000e+00  -3.6797881795583583e-74 1.5446375245841472e-75 0.0000000000000000e+00  -3.8892082172152539e-73 1.4280761527975767e-73 0.0000000000000000e+00  -1.0274893966474616e-71 6.2051574822326969e-72 0.0000000000000000e+00  -6.7673475810259655e-71 3.6844991132947528e-71 0.0000000000000000e+00  -1.0613677438052108e-70 3.8732674986924092e-72 0.0000000000000000e+00  -8.9282139422264772e-70 3.2838859021381024e-70 0.0000000000000000e+00  -2.1416062019081195e-68 1.2744468026628751e-68 0.0000000000000000e+00  -1.0294892047086717e-67 5.0561096324846585e-68 0.0000000000000000e+00  -1.0059057063767868e-67 -5.9522762869829170e-68 0.0000000000000000e+00  -3.1881996363000889e-66 1.7243985214414450e-66 0.0000000000000000e+00  -3.2110396226452678e-65 1.8061420192035687e-65 0.0000000000000000e+00  -5.3936139795762384e-65 4.9674815443512163e-66 0.0000000000000000e+00  -4.4585498955308218e-64 1.4242924666834879e-64 0.0000000000000000e+00  -7.0663841481593302e-63 4.2813373028257970e-63 0.0000000000000000e+00  -1.5131513768654927e-62 3.6751356048097394e-63 0.0000000000000000e+00  -8.4675183525664017e-62 1.9300552576917740e-62 0.0000000000000000e+00  -1.3713621375768242e-60 8.3289620333713446e-61 0.0000000000000000e+00  -2.4237571722278327e-60 3.2998223399959643e-61 0.0000000000000000e+00  -2.1319400315218445e-59 7.2192200793701887e-60 0.0000000000000000e+00  -2.4490284232141906e-58 1.4539274704155292e-58 0.0000000000000000e+00  -2.5666892318085457e-58 -9.1384311241428178e-59 0.0000000000000000e+00  -6.0402248917215585e-57 2.6979045819064713e-57 0.0000000000000000e+00  -2.5120133644195026e-56 1.1983724534802533e-56 0.0000000000000000e+00  -5.5423976707015541e-56 -8.3330637311936195e-57 0.0000000000000000e+00  -1.0265682841357519e-54 6.2439748348805450e-55 0.0000000000000000e+00  -1.1123503376494177e-54 -3.3275772715925915e-55 0.0000000000000000e+00  -2.4382740559438316e-53 1.2187237209869493e-53 0.0000000000000000e+00  -6.6643958462544407e-53 2.8604603071214034e-53 0.0000000000000000e+00  -4.3859470198875050e-52 1.1726090584261373e-52 0.0000000000000000e+00  -2.7048107152762573e-51 1.5849822459786242e-51 0.0000000000000000e+00  -7.6626693990109775e-51 -1.9695218404063214e-52 0.0000000000000000e+00  -7.3006062616047762e-50 4.3628692365788379e-50 0.0000000000000000e+00  -1.6145268245888238e-49 -1.3855981195690916e-50 0.0000000000000000e+00  -1.7509966376578216e-48 9.5473846026827153e-49 0.0000000000000000e+00  -4.3388785425030950e-48 -1.8920963831614367e-49 0.0000000000000000e+00  -2.0351180692200532e-47 1.0446870240052700e-47 0.0000000000000000e+00  -1.1067367650665261e-46 1.7881528227039207e-47 0.0000000000000000e+00  -1.0287640231775537e-46 2.3061977681285282e-47 0.0000000000000000e+00  -1.2492992329158551e-45 4.9236830772225296e-46 0.0000000000000000e+00  -8.6651002383309797e-46 -5.3051428544920807e-46 0.0000000000000000e+00  -1.3532268446390122e-44 7.5382055462823843e-45 0.0000000000000000e+00  -5.8140330737777126e-44 1.2831986665013422e-44 0.0000000000000000e+00  -3.6035022437661538e-44 -1.6306385858060470e-44 0.0000000000000000e+00  -1.1470899047270251e-43 6.0530248530434214e-44 0.0000000000000000e+00  -8.4292973094897836e-43 2.1561287823161558e-43 0.0000000000000000e+00  -1.9311873342713855e-42 1.8389497958882657e-43 0.0000000000000000e+00  -2.5139026394974579e-42 5.6772279803254814e-44 0.0000000000000000e+00  -2.0165630956175165e-42 -1.8133145164883553e-43 0.0000000000000000e+00  -8.6304475886929913e-43 -2.3324587754768755e-43 0.0000000000000000e+00  -1.1369573002869716e-43 -6.0027680922840940e-44 0.0000000000000000e+00  -3.8588856800224607e-44 1.7227077193429323e-44 0.0000000000000000e+00  -6.3319257602504765e-44 -1.0112593882669481e-44 0.0000000000000000e+00  -1.5089052644262251e-44 -7.3475580594306210e-45 0.0000000000000000e+00  -9.9156437470826751e-46 5.2982269668809090e-46 0.0000000000000000e+00  -1.4128419431041725e-45 -5.0471666572097383e-46 0.0000000000000000e+00  -1.1255944238742088e-46 -2.6763787813081109e-47 0.0000000000000000e+00  -1.0225603638922059e-46 -2.0178510437439636e-47 0.0000000000000000e+00  -1.8843717922568733e-47 -1.1263788130416287e-47 0.0000000000000000e+00  -4.0834309890909748e-48 1.8822703590730034e-49 0.0000000000000000e+00  -1.5070750631088695e-48 -8.8392484038179832e-49 0.0000000000000000e+00  -1.6282887712410674e-49 2.3084207254104161e-50 0.0000000000000000e+00  -7.5601828416053358e-50 -4.1912587871752322e-50 0.0000000000000000e+00  -8.2329034415162043e-51 6.0173840495152647e-52 0.0000000000000000e+00  -3.1884631118162018e-51 -1.6977073793339415e-51 0.0000000000000000e+00  -5.1313397824475888e-52 -1.0971218393317425e-52 0.0000000000000000e+00  -8.2931647738853516e-53 -3.3898353424245757e-53 0.0000000000000000e+00  -2.6943369861997468e-53 -1.2613912402811323e-53 0.0000000000000000e+00  -1.1892171618002308e-54 3.1074642107592491e-55 0.0000000000000000e+00  -1.0803120496056485e-54 -6.5480044815169298e-55 0.0000000000000000e+00  -5.1315170045639764e-56 8.0005735086263850e-57 0.0000000000000000e+00  -2.3681407046085308e-56 -1.2784702637042928e-56 0.0000000000000000e+00  -4.8823405554699943e-57 -2.4418656454954655e-57 0.0000000000000000e+00  -2.4389817839752084e-58 8.2800461014159355e-59 0.0000000000000000e+00  -2.1878695363765779e-58 -1.2905173092538748e-58 0.0000000000000000e+00  -2.0039694769622979e-59 -5.9906181738857267e-60 0.0000000000000000e+00  -2.3820765751183682e-60 -3.3089267588345232e-61 0.0000000000000000e+00  -1.3061395502450330e-60 -7.4298465785766069e-61 0.0000000000000000e+00  -7.7301794854569487e-62 -2.1004712977945988e-62 0.0000000000000000e+00  -1.3648530655400535e-62 -2.8693559998149310e-63 0.0000000000000000e+00  -6.7056774261367223e-63 -3.7165964098181260e-63 0.0000000000000000e+00  -4.8122915546986187e-64 -1.7892839547439729e-64 0.0000000000000000e+00  -4.3623314087995861e-65 9.4221084576094919e-67 0.0000000000000000e+00  -2.9725983609222252e-65 -1.6374128521363628e-65 0.0000000000000000e+00  -3.4399609071059121e-66 -1.9624050950677566e-66 0.0000000000000000e+00  -8.9222295948049332e-68 5.4087942357305522e-68 0.0000000000000000e+00  -8.6855901014822103e-68 -4.1306761364287105e-68 0.0000000000000000e+00  -2.0817045158131972e-68 -1.2722876063287284e-68 0.0000000000000000e+00  -1.1372340998594883e-69 -5.0913781359873795e-70 0.0000000000000000e+00  -8.7822801187948880e-71 1.3677835058687163e-71 0.0000000000000000e+00  -6.9353910708329602e-71 -3.6325474907461677e-71 0.0000000000000000e+00  -1.2526711628065532e-71 -7.6196026901515790e-72 0.0000000000000000e+00  -5.9948818891725192e-73 -2.7396312501129134e-73 0.0000000000000000e+00  -3.9203996390648461e-74 7.3938454618209087e-75 0.0000000000000000e+00  -3.1611812955409848e-74 -1.4749442596303847e-74 0.0000000000000000e+00  -6.5969850128327190e-75 -3.3515267939097517e-75 0.0000000000000000e+00  -7.1816731716726528e-76 -3.1056077518421783e-76 0.0000000000000000e+00  -8.5449321819123601e-76 -1.6234566325834085e-75 0.0000000000000000e+00  -4.7689925145725823e-75 -1.3949914496899513e-74 0.0000000000000000e+00  4.3509494117233632e-75 -8.2948965024467455e-75 0.0000000000000000e+00  -1.6231877408544812e-73 -3.4326106838458406e-73 0.0000000000000000e+00  -9.2363378446140122e-71 -1.0111726736019943e-70 0.0000000000000000e+00  -7.4577102795981408e-70 -1.3218703615758642e-69 0.0000000000000000e+00  -1.0900958434729330e-69 -3.6582838078583043e-69 0.0000000000000000e+00  -7.6949428034063615e-68 -1.7169413741612839e-67 0.0000000000000000e+00  -6.4662457395844477e-68 -3.2652876274171361e-67 0.0000000000000000e+00  -6.7189175634382008e-66 -1.3558756236567843e-65 0.0000000000000000e+00  -4.4636970853235372e-66 -2.1361145046039312e-65 0.0000000000000000e+00  -8.9481859309805342e-65 -1.5671235513619388e-64 0.0000000000000000e+00  1.6961290832406697e-65 -2.1015762336025055e-64 0.0000000000000000e+00  -4.2091627833228046e-62 -6.4532229336854505e-62 0.0000000000000000e+00  -6.8766419267940118e-62 -1.7297274547223963e-61 0.0000000000000000e+00  -2.2821114576275655e-62 -2.7318004226424093e-61 0.0000000000000000e+00  -5.6293906921909172e-60 -1.1441983759268279e-59 0.0000000000000000e+00  4.6566060312557929e-60 -1.4946423820889796e-59 0.0000000000000000e+00  -2.8356913120453080e-59 -4.7928864932569512e-59 0.0000000000000000e+00  8.6053595664873995e-60 -6.0721476800770779e-59 0.0000000000000000e+00  2.2636703239411470e-59 -3.9336865148407734e-59 0.0000000000000000e+00  -5.4881093810908351e-58 -9.0401999838061663e-58 0.0000000000000000e+00  -1.3406450075413547e-59 -1.2604718144794135e-57 0.0000000000000000e+00  -4.5009891662109531e-57 -1.1716120987717947e-56 0.0000000000000000e+00  5.5637162555753181e-57 -8.5742753219099004e-57 0.0000000000000000e+00  -5.1600028931056563e-57 -7.4309664805456168e-57 0.0000000000000000e+00  -1.7063935907894509e-56 -3.8042853914664233e-56 0.0000000000000000e+00  2.0825706658358494e-56 -4.0335405285479876e-56 0.0000000000000000e+00  -4.8177347645655758e-57 -9.2876891533772106e-57 0.0000000000000000e+00  -7.8115412262420437e-56 -2.0450889753654186e-55 0.0000000000000000e+00  6.0769556169687276e-56 -5.0669906092641811e-55 0.0000000000000000e+00  -4.1119771938511625e-55 -7.3294091197121220e-55 0.0000000000000000e+00  -4.7697229787738753e-56 -1.8368630156979612e-54 0.0000000000000000e+00  1.5863365551921154e-55 -5.7137587731191997e-55 0.0000000000000000e+00  -4.9565609774090142e-55 -1.6843335171420782e-54 0.0000000000000000e+00  -2.1516265671156365e-54 -7.1065387749113207e-54 0.0000000000000000e+00  2.4552018291041023e-54 -6.0427535772327339e-54 0.0000000000000000e+00  -6.4006981586616817e-55 -2.3993223430128544e-54 0.0000000000000000e+00  5.0441925237206847e-55 -2.8136763757955334e-54 0.0000000000000000e+00  1.2103311566214344e-55 -1.4239464833880694e-54 0.0000000000000000e+00  -2.0669432335150425e-54 -3.4897981176043429e-54 0.0000000000000000e+00  5.3771056626163141e-55 -8.2259724889945221e-54 0.0000000000000000e+00  -3.7233977704459011e-54 -1.3596732194887407e-53 0.0000000000000000e+00  4.4363241815469030e-54 -7.6824667501618808e-54 0.0000000000000000e+00  1.9187812080748072e-55 -6.4967302648729349e-55 0.0000000000000000e+00  -4.5362321395543103e-54 -8.0346815896670741e-54 0.0000000000000000e+00  4.5574077537434683e-54 -7.8545696794284809e-54 0.0000000000000000e+00  -1.5689223840961227e-56 -1.3353943812565546e-55 0.0000000000000000e+00  1.0516730978994808e-56 -2.7693080727719453e-55 0.0000000000000000e+00  2.0830120764578773e-56 -9.8800414566090310e-56 0.0000000000000000e+00  -4.9124992324256832e-54 -9.3494879291322761e-54 0.0000000000000000e+00  5.2413341842545135e-54 -9.4252350122167365e-54 0.0000000000000000e+00  5.3601406033874797e-56 -1.0542348300668047e-55 0.0000000000000000e+00  -1.3528846643633318e-56 -6.2003215952883567e-56 0.0000000000000000e+00  -4.7249527908341770e-55 -9.0174225795598331e-55 0.0000000000000000e+00  -5.4992187207817592e-54 -1.0004599187001225e-53 0.0000000000000000e+00  4.2634954714688054e-54 -1.0530641806085374e-53 0.0000000000000000e+00  -2.8915830824846143e-54 -7.9564193470395927e-54 0.0000000000000000e+00  2.3125072848167593e-54 -8.5756014440700896e-54 0.0000000000000000e+00  2.1324022956401614e-54 -3.3323860358441612e-54 0.0000000000000000e+00  -5.1643726376069905e-55 -1.4732175881537736e-54 0.0000000000000000e+00  7.9551235214097388e-55 -1.5853607758706986e-54 0.0000000000000000e+00  -4.6847016881735057e-55 -9.7659894755773907e-55 0.0000000000000000e+00  4.8904802220850886e-55 -8.9323838363199781e-55 0.0000000000000000e+00  -1.4953075062161335e-56 -2.6682331414591258e-56 0.0000000000000000e+00  -4.2702806790234963e-56 -1.7150915627803265e-55 0.0000000000000000e+00  4.0051004280554400e-56 -1.7539427032266482e-55 0.0000000000000000e+00  4.6454984146125195e-57 -6.9121259638765714e-56 0.0000000000000000e+00  -2.6385104345052688e-56 -6.4959103063658560e-56 0.0000000000000000e+00  3.1626123881348649e-56 -6.4707458658751766e-56 0.0000000000000000e+00  -2.7527134563591560e-57 -2.8683578647510168e-56 0.0000000000000000e+00  1.2516835717217546e-56 -3.0248529491710915e-56 0.0000000000000000e+00  9.6951240413158758e-58 -2.4166589138619055e-57 0.0000000000000000e+00  -4.2371259464918309e-57 -7.5622470598804433e-57 0.0000000000000000e+00  4.1237109144062658e-57 -1.1080077311086985e-56 0.0000000000000000e+00  3.0322260522933486e-58 -1.0266587433125196e-57 0.0000000000000000e+00  1.3976268526011721e-58 -5.050424