<?xml version="1.0"?>
<VTKFile type="UnstructuredGrid"  version="0.1"  >
<UnstructuredGrid>
<Piece  NumberOfPoints="11902" NumberOfCells="23402">
<Points>
<DataArray  type="Float64"  NumberOfComponents="3"  format="ascii">-5 -5 0  5 -5 0  5 5 0  -5 5 0  1.158913888395423 0.001062399735512838 0  -4.9 -5 0  -4.8 -5 0  -4.7 -5 0  -4.6 -5 0  -4.5 -5 0  -4.4 -5 0  -4.3 -5 0  -4.2 -5 0  -4.1 -5 0  -4 -5 0  -3.9 -5 0  -3.8 -5 0  -3.7 -5 0  -3.6 -5 0  -3.5 -5 0  -3.4 -5 0  -3.3 -5 0  -3.2 -5 0  -3.1 -5 0  -3 -5 0  -2.9 -5 0  -2.8 -5 0  -2.7 -5 0  -2.6 -5 0  -2.5 -5 0  -2.4 -5 0  -2.3 -5 0  -2.2 -5 0  -2.1 -5 0  -2 -5 0  -1.9 -5 0  -1.8 -5 0  -1.7 -5 0  -1.6 -5 0  -1.5 -5 0  -1.4 -5 0  -1.3 -5 0  -1.2 -5 0  -1.1 -5 0  -1 -5 0  -0.9000000000000004 -5 0  -0.7999999999999998 -5 0  -0.7000000000000002 -5 0  -0.5999999999999996 -5 0  -0.5 -5 0  -0.4000000000000004 -5 0  -0.2999999999999998 -5 0  -0.2000000000000002 -5 0  -0.09999999999999964 -5 0  0 -5 0  0.09999999999999964 -5 0  0.2000000000000002 -5 0  0.2999999999999998 -5 0  0.4000000000000004 -5 0  0.5 -5 0  0.5999999999999996 -5 0  0.7000000000000002 -5 0  0.7999999999999998 -5 0  0.9000000000000004 -5 0  1 -5 0  1.1 -5 0  1.2 -5 0  1.3 -5 0  1.4 -5 0  1.5 -5 0  1.6 -5 0  1.7 -5 0  1.8 -5 0  1.9 -5 0  2 -5 0  2.1 -5 0  2.2 -5 0  2.3 -5 0  2.4 -5 0  2.5 -5 0  2.6 -5 0  2.7 -5 0  2.8 -5 0  2.9 -5 0  3 -5 0  3.1 -5 0  3.199999999999999 -5 0  3.300000000000001 -5 0  3.4 -5 0  3.5 -5 0  3.6 -5 0  3.699999999999999 -5 0  3.800000000000001 -5 0  3.9 -5 0  4 -5 0  4.1 -5 0  4.199999999999999 -5 0  4.300000000000001 -5 0  4.4 -5 0  4.5 -5 0  4.6 -5 0  4.699999999999999 -5 0  4.800000000000001 -5 0  4.9 -5 0  5 -4.9 0  5 -4.8 0  5 -4.7 0  5 -4.6 0  5 -4.5 0  5 -4.4 0  5 -4.3 0  5 -4.2 0  5 -4.1 0  5 -4 0  5 -3.9 0  5 -3.8 0  5 -3.7 0  5 -3.6 0  5 -3.5 0  5 -3.4 0  5 -3.3 0  5 -3.2 0  5 -3.1 0  5 -3 0  5 -2.9 0  5 -2.8 0  5 -2.7 0  5 -2.6 0  5 -2.5 0  5 -2.4 0  5 -2.3 0  5 -2.2 0  5 -2.1 0  5 -2 0  5 -1.9 0  5 -1.8 0  5 -1.7 0  5 -1.6 0  5 -1.5 0  5 -1.4 0  5 -1.3 0  5 -1.2 0  5 -1.1 0  5 -1 0  5 -0.9000000000000004 0  5 -0.7999999999999998 0  5 -0.7000000000000002 0  5 -0.5999999999999996 0  5 -0.5 0  5 -0.4000000000000004 0  5 -0.2999999999999998 0  5 -0.2000000000000002 0  5 -0.09999999999999964 0  5 0 0  5 0.09999999999999964 0  5 0.2000000000000002 0  5 0.2999999999999998 0  5 0.4000000000000004 0  5 0.5 0  5 0.5999999999999996 0  5 0.7000000000000002 0  5 0.7999999999999998 0  5 0.9000000000000004 0  5 1 0  5 1.1 0  5 1.2 0  5 1.3 0  5 1.4 0  5 1.5 0  5 1.6 0  5 1.7 0  5 1.8 0  5 1.9 0  5 2 0  5 2.1 0  5 2.2 0  5 2.3 0  5 2.4 0  5 2.5 0  5 2.6 0  5 2.7 0  5 2.8 0  5 2.9 0  5 3 0  5 3.1 0  5 3.199999999999999 0  5 3.300000000000001 0  5 3.4 0  5 3.5 0  5 3.6 0  5 3.699999999999999 0  5 3.800000000000001 0  5 3.9 0  5 4 0  5 4.1 0  5 4.199999999999999 0  5 4.300000000000001 0  5 4.4 0  5 4.5 0  5 4.6 0  5 4.699999999999999 0  5 4.800000000000001 0  5 4.9 0  4.9 5 0  4.8 5 0  4.7 5 0  4.6 5 0  4.5 5 0  4.4 5 0  4.3 5 0  4.2 5 0  4.1 5 0  4 5 0  3.9 5 0  3.8 5 0  3.7 5 0  3.6 5 0  3.5 5 0  3.4 5 0  3.3 5 0  3.2 5 0  3.1 5 0  3 5 0  2.9 5 0  2.8 5 0  2.7 5 0  2.6 5 0  2.5 5 0  2.4 5 0  2.3 5 0  2.2 5 0  2.1 5 0  2 5 0  1.9 5 0  1.8 5 0  1.7 5 0  1.6 5 0  1.5 5 0  1.4 5 0  1.3 5 0  1.2 5 0  1.1 5 0  1 5 0  0.9000000000000004 5 0  0.7999999999999998 5 0  0.7000000000000002 5 0  0.5999999999999996 5 0  0.5 5 0  0.4000000000000004 5 0  0.2999999999999998 5 0  0.2000000000000002 5 0  0.09999999999999964 5 0  0 5 0  -0.09999999999999964 5 0  -0.2000000000000002 5 0  -0.2999999999999998 5 0  -0.4000000000000004 5 0  -0.5 5 0  -0.5999999999999996 5 0  -0.7000000000000002 5 0  -0.7999999999999998 5 0  -0.9000000000000004 5 0  -1 5 0  -1.1 5 0  -1.2 5 0  -1.3 5 0  -1.4 5 0  -1.5 5 0  -1.6 5 0  -1.7 5 0  -1.8 5 0  -1.9 5 0  -2 5 0  -2.1 5 0  -2.2 5 0  -2.3 5 0  -2.4 5 0  -2.5 5 0  -2.6 5 0  -2.7 5 0  -2.8 5 0  -2.9 5 0  -3 5 0  -3.1 5 0  -3.199999999999999 5 0  -3.300000000000001 5 0  -3.4 5 0  -3.5 5 0  -3.6 5 0  -3.699999999999999 5 0  -3.800000000000001 5 0  -3.9 5 0  -4 5 0  -4.1 5 0  -4.199999999999999 5 0  -4.300000000000001 5 0  -4.4 5 0  -4.5 5 0  -4.6 5 0  -4.699999999999999 5 0  -4.800000000000001 5 0  -4.9 5 0  -5 4.9 0  -5 4.8 0  -5 4.7 0  -5 4.6 0  -5 4.5 0  -5 4.4 0  -5 4.3 0  -5 4.2 0  -5 4.1 0  -5 4 0  -5 3.9 0  -5 3.8 0  -5 3.7 0  -5 3.6 0  -5 3.5 0  -5 3.4 0  -5 3.3 0  -5 3.2 0  -5 3.1 0  -5 3 0  -5 2.9 0  -5 2.8 0  -5 2.7 0  -5 2.6 0  -5 2.5 0  -5 2.4 0  -5 2.3 0  -5 2.2 0  -5 2.1 0  -5 2 0  -5 1.9 0  -5 1.8 0  -5 1.7 0  -5 1.6 0  -5 1.5 0  -5 1.4 0  -5 1.3 0  -5 1.2 0  -5 1.1 0  -5 1 0  -5 0.9000000000000004 0  -5 0.7999999999999998 0  -5 0.7000000000000002 0  -5 0.5999999999999996 0  -5 0.5 0  -5 0.4000000000000004 0  -5 0.2999999999999998 0  -5 0.2000000000000002 0  -5 0.09999999999999964 0  -5 0 0  -5 -0.09999999999999964 0  -5 -0.2000000000000002 0  -5 -0.2999999999999998 0  -5 -0.4000000000000004 0  -5 -0.5 0  -5 -0.5999999999999996 0  -5 -0.7000000000000002 0  -5 -0.7999999999999998 0  -5 -0.9000000000000004 0  -5 -1 0  -5 -1.1 0  -5 -1.2 0  -5 -1.3 0  -5 -1.4 0  -5 -1.5 0  -5 -1.6 0  -5 -1.7 0  -5 -1.8 0  -5 -1.9 0  -5 -2 0  -5 -2.1 0  -5 -2.2 0  -5 -2.3 0  -5 -2.4 0  -5 -2.5 0  -5 -2.6 0  -5 -2.7 0  -5 -2.8 0  -5 -2.9 0  -5 -3 0  -5 -3.1 0  -5 -3.199999999999999 0  -5 -3.300000000000001 0  -5 -3.4 0  -5 -3.5 0  -5 -3.6 0  -5 -3.699999999999999 0  -5 -3.800000000000001 0  -5 -3.9 0  -5 -4 0  -5 -4.1 0  -5 -4.199999999999999 0  -5 -4.300000000000001 0  -5 -4.4 0  -5 -4.5 0  -5 -4.6 0  -5 -4.699999999999999 0  -5 -4.800000000000001 0  -5 -4.9 0  1.153286671802366 0.1000046560714058 0  1.135553154003156 0.1989022065844425 0  1.105668438148759 0.2965367095810185 0  1.066626526248496 0.3891293233931923 0  1.016214751578085 0.4800333911383652 0  0.9564571010463456 0.5654951195710671 0  0.8862997980877746 0.6452763843436446 0  0.8068206043136257 0.7181543302992254 0  0.720337174006049 0.7842087174504722 0  0.6264525899405651 0.8429757073457502 0  0.5256887752786918 0.8932383595762017 0  0.4201241657472489 0.9347470081172203 0  0.3119447731545983 0.9674000392682129 0  0.1993082412477015 0.9896982932864169 0  0.0865458377637108 1.003111035533403 0  -0.02742629009583867 1.005762051109656 0  -0.141283397026597 0.9971682633339357 0  -0.2547549009345356 0.9798987035109873 0  -0.3656412687782146 0.9532386362168035 0  -0.4722541712011976 0.9165696535170023 0  -0.5739236127484765 0.8712027233122582 0  -0.6704819248928207 0.8165313586310907 0  -0.7603082124569941 0.7539966732967293 0  -0.8430890929408924 0.6840240445005197 0  -0.9181622441038111 0.6062348100945861 0  -0.9834568203768765 0.5233281932905897 0  -1.039707694214244 0.4358432298145517 0  -1.084947072951556 0.3432552694816813 0  -1.1189692216653 0.2481795739648119 0  -1.142026978996486 0.1506453305704449 0  -1.153759804716243 0.05087431943849919 0  -1.153781095622894 -0.04949934397602383 0  -1.142048403879349 -0.1490349448624932 0  -1.120162954886253 -0.2465747857957346 0  -1.084740845596924 -0.3427561600958411 0  -1.040063153818166 -0.4345813873734858 0  -0.9842210591689473 -0.5223299940749127 0  -0.9192266868552689 -0.6048703365179143 0  -0.844242851676129 -0.6817236211271271 0  -0.7609467582560114 -0.7511223674625093 0  -0.6702396684352417 -0.8126819892829541 0  -0.5742821826955727 -0.8673247551284838 0  -0.4703297613697539 -0.9132839124714618 0  -0.3634991735032571 -0.9508969937333371 0  -0.2525720966584629 -0.978384953172197 0  -0.1399596920852124 -0.9961286901953602 0  -0.02671525586375149 -1.00509358763304 0  0.08709308239850175 -1.00154157776691 0  0.2012571575159947 -0.9879405579315539 0  0.3130022418244333 -0.9658603554991604 0  0.4227719191369211 -0.9334080446605862 0  0.5268762649510557 -0.8922432341472946 0  0.6270370255591811 -0.8423142966610623 0  0.7205696509773394 -0.7849037466029101 0  0.80696137488521 -0.7186733287396364 0  0.885886225397815 -0.644714973817306 0  0.955417837212996 -0.5647722849149716 0  1.016245866919601 -0.4795481474009047 0  1.067715974507532 -0.3892361731166471 0  1.10686882267211 -0.2955420385826808 0  1.135698069384185 -0.1982168306093808 0  1.153300301559681 -0.09961779039615712 0  -2.448964977554669 4.918857357252455 0  -2.448875085440231 -4.911303031419659 0  4.911246106125158 2.448474066502771 0  4.919296192245937 -2.449883053493028 0  2.446676683052469 -4.896675895667951 0  2.441093499409715 4.900407550702473 0  -4.911266459844427 -2.448494158350165 0  -4.91126568323532 2.448497953785139 0  -1.748933235605902 4.912074284512711 0  -1.74470182578341 -4.915472982809574 0  4.921640807351251 1.744594273020801 0  4.910317416690257 -1.748432061619603 0  -4.910598570979588 -1.748157458903347 0  -4.911412614436745 1.747896092432288 0  1.746231984433251 4.906009765250357 0  1.747698414282045 -4.894293828411708 0  -1.14915930829965 4.910082969165143 0  -1.129983657463645 -4.917890093393713 0  -4.91060637521313 -1.148381465913508 0  -4.910429349434445 1.148181249618267 0  1.144133340817707 -4.91412820942544 0  1.149165432459679 4.910073434812883 0  4.910758151490273 1.146660481795147 0  4.921416342849396 -1.152389629433885 0  -0.5468345423057788 -4.911383330664933 0  -0.5466011122353472 4.919940576403322 0  -4.90957253407967 -0.5489608074471154 0  -4.909597383500698 0.5475157284824307 0  4.908919412201939 -0.5492840291489816 0  4.920367956073291 0.54600692874005 0  0.5426328016495803 -4.898462537494793 0  0.5513325734002571 4.916812369169262 0  -4.912428692896788 -3.048752714511422 0  4.91896394870481 3.046739362856147 0  4.911942548810685 -3.048735870240507 0  -4.913273897017434 3.045840603594297 0  3.055647207044025 -4.917913135225863 0  -3.049004003517795 -4.911885275840015 0  3.052563358055933 4.913953592337708 0  -3.048447338140516 4.91277073860972 0  -4.908768087819074 -0.04993289611935206 0  0.0451300922209186 -4.913344199803768 0  0.04957897097459283 4.920266007663709 0  4.91570741651499 -0.05131338990791096 0  3.545893581784403 -4.9193977428573 0  -3.549198015350065 4.912326
[...]
<PointData  Vectors="f_1622"> 
<DataArray  type="Float64"  Name="f_1622"  NumberOfComponents="3" format="ascii">2.6559658580598536e-76 2.6559658580598536e-76 0.0000000000000000e+00  -2.8445085011137207e-76 2.8445085011137207e-76 0.0000000000000000e+00  -8.5659604778931143e-78 -8.5659604778931143e-78 0.0000000000000000e+00  3.0308186857306752e-76 -3.0308186857306752e-76 0.0000000000000000e+00  -5.3518471347343410e-01 -1.0684512167825276e-02 0.0000000000000000e+00  4.1648063078923552e-75 6.6072239676506428e-75 0.0000000000000000e+00  2.0834881789163979e-75 2.0879013184260662e-74 0.0000000000000000e+00  -3.4026047941560626e-75 6.7687180025247654e-75 0.0000000000000000e+00  3.9961850066505449e-72 6.6715836246791818e-72 0.0000000000000000e+00  5.3112749041194980e-71 1.3463207221275634e-70 0.0000000000000000e+00  -7.9056460718602133e-72 4.5540096709275632e-71 0.0000000000000000e+00  3.2281721452672933e-69 6.1676635859785853e-69 0.0000000000000000e+00  5.1498243963830092e-68 9.4087502618989227e-68 0.0000000000000000e+00  -3.0550658029377072e-68 1.4992589798977428e-67 0.0000000000000000e+00  1.2734209498041969e-67 3.9845397258942876e-67 0.0000000000000000e+00  1.2736506466386730e-68 8.7784245811125767e-67 0.0000000000000000e+00  5.4330363000788340e-64 8.8382742696301639e-64 0.0000000000000000e+00  4.7627435413336135e-65 2.4417884225948156e-63 0.0000000000000000e+00  1.3435769991244393e-62 2.2033954540317562e-62 0.0000000000000000e+00  8.0421565376675410e-63 8.3202493028416276e-62 0.0000000000000000e+00  6.8977315390900775e-61 1.1048220208159542e-60 0.0000000000000000e+00  4.0408930730315810e-60 7.0223605067172227e-60 0.0000000000000000e+00  -2.8306039271116059e-60 7.6874298277113313e-60 0.0000000000000000e+00  5.6291024363554089e-59 1.1391296264445049e-58 0.0000000000000000e+00  -1.7472089279424920e-59 1.1638688036926927e-58 0.0000000000000000e+00  -2.9822032313719337e-59 6.8248738781158453e-59 0.0000000000000000e+00  1.7891328803248804e-58 3.3125120457662458e-58 0.0000000000000000e+00  7.2452517321446926e-58 2.0927992629834779e-57 0.0000000000000000e+00  2.8372181561624203e-57 6.2465740196977120e-57 0.0000000000000000e+00  -3.3774405035703352e-57 5.7215010942112866e-57 0.0000000000000000e+00  -3.4901027364408484e-58 1.0960684530985688e-57 0.0000000000000000e+00  1.8906144199601247e-56 2.9413429183619397e-56 0.0000000000000000e+00  -1.3989613632330774e-56 3.5239553792096131e-56 0.0000000000000000e+00  1.1792513673112787e-56 2.8992729066429692e-56 0.0000000000000000e+00  8.6463342734787165e-56 2.1018296729346201e-55 0.0000000000000000e+00  -2.4681362352050128e-56 5.7424880393182726e-55 0.0000000000000000e+00  5.1497402255500994e-57 8.6369277676020038e-57 0.0000000000000000e+00  5.4794437808076412e-56 1.3842757200339164e-55 0.0000000000000000e+00  1.5305453580546464e-55 6.1767129795285147e-55 0.0000000000000000e+00  -2.2071125641292880e-55 3.5069563417969088e-55 0.0000000000000000e+00  9.7077706894044318e-55 1.7270292528678853e-54 0.0000000000000000e+00  -4.3519660353944299e-55 4.3602320924220999e-54 0.0000000000000000e+00  -2.2469097135341338e-55 2.6814479391362095e-54 0.0000000000000000e+00  -9.4716436757693198e-56 9.4371047721327278e-55 0.0000000000000000e+00  -1.1145136073540044e-55 1.8186543689309960e-55 0.0000000000000000e+00  2.7194598768051574e-54 5.2417985470831315e-54 0.0000000000000000e+00  -2.1273296414087404e-54 4.1333924841020881e-54 0.0000000000000000e+00  -7.0821674044216758e-55 8.0640110200647462e-55 0.0000000000000000e+00  -1.2998546736071274e-55 2.7108018601256377e-55 0.0000000000000000e+00  9.1581712703229823e-55 1.4468188166217718e-54 0.0000000000000000e+00  9.3092041740778545e-55 6.1566159578564173e-54 0.0000000000000000e+00  -1.1103484510776690e-54 5.8985126131375448e-54 0.0000000000000000e+00  5.0662113326571328e-55 4.6491179625267138e-54 0.0000000000000000e+00  1.8867932167523865e-56 5.7938448135722495e-54 0.0000000000000000e+00  2.9692511299455857e-55 6.1520324079334668e-54 0.0000000000000000e+00  -1.2414487813052445e-54 2.0446246188252558e-54 0.0000000000000000e+00  -6.3579484092715469e-55 1.4727181833583830e-53 0.0000000000000000e+00  4.3928578535750490e-54 7.4649789407066815e-54 0.0000000000000000e+00  -4.2788911379405260e-54 8.1017742070493309e-54 0.0000000000000000e+00  1.8918543292484700e-54 3.9538936988415886e-54 0.0000000000000000e+00  -7.2565789482712223e-55 9.5015866711330497e-54 0.0000000000000000e+00  1.3100382243936965e-54 9.3271085813428597e-54 0.0000000000000000e+00  -1.6597137457470020e-54 4.4006381261770154e-54 0.0000000000000000e+00  -9.1168599124309430e-55 2.4075266167359354e-54 0.0000000000000000e+00  3.2819103511855839e-55 1.2987596787592402e-54 0.0000000000000000e+00  2.6163642946681378e-55 2.5370049674124969e-54 0.0000000000000000e+00  -7.7740712924541027e-56 3.4904512931674408e-54 0.0000000000000000e+00  -7.0186987895150777e-55 1.4841434216168138e-54 0.0000000000000000e+00  2.3464462038144584e-55 4.4172582489635987e-55 0.0000000000000000e+00  -2.2811320560599467e-55 6.0327850709646384e-55 0.0000000000000000e+00  4.9680362994806817e-56 2.3961162325319000e-55 0.0000000000000000e+00  1.8425415808298688e-55 9.5168725142097123e-55 0.0000000000000000e+00  -3.2659277082858176e-55 5.3158436941377889e-55 0.0000000000000000e+00  -1.5738841264548457e-56 4.8289533481193956e-56 0.0000000000000000e+00  -1.1247637254064419e-57 1.1338041054395304e-56 0.0000000000000000e+00  6.6799676614220912e-57 2.3522290816414499e-56 0.0000000000000000e+00  -8.9055868768998700e-57 1.5058784689195004e-56 0.0000000000000000e+00  1.7249220018250059e-57 2.8796243163062944e-57 0.0000000000000000e+00  -1.2329931282134738e-57 2.7295571672509112e-57 0.0000000000000000e+00  5.1306669996057685e-57 7.7873206640234299e-57 0.0000000000000000e+00  -4.4971903384336515e-57 1.1269001500140509e-56 0.0000000000000000e+00  -1.7993809914413042e-58 9.4022670209448404e-58 0.0000000000000000e+00  -2.3742633113965251e-58 4.6617635574024427e-58 0.0000000000000000e+00  -7.8213858720222524e-61 8.8106364300286370e-59 0.0000000000000000e+00  -2.4293066978271226e-59 6.4318232893495797e-59 0.0000000000000000e+00  -7.0700247156058393e-60 2.5022810032847358e-59 0.0000000000000000e+00  -4.3618002716333829e-60 2.2400357528373124e-59 0.0000000000000000e+00  -3.0462281795926776e-60 7.1778572372503182e-60 0.0000000000000000e+00  -8.4776286541446007e-62 4.4379043521111456e-61 0.0000000000000000e+00  -1.0705044333484176e-61 2.2373125334721157e-61 0.0000000000000000e+00  -3.5712276473825638e-62 5.6844218934451396e-62 0.0000000000000000e+00  -3.8934003211926039e-64 6.7083560509412157e-64 0.0000000000000000e+00  -2.4221009013639805e-65 5.1767639995006856e-65 0.0000000000000000e+00  3.6934878259415367e-66 1.0377012652586868e-65 0.0000000000000000e+00  -4.8276022535340914e-66 9.2717276682572049e-66 0.0000000000000000e+00  -6.6801832971610730e-68 2.7724385049486316e-67 0.0000000000000000e+00  -7.8336992256748597e-68 1.2931656818132893e-67 0.0000000000000000e+00  -8.0435841493675965e-69 1.1744599629684698e-68 0.0000000000000000e+00  -5.6230859952093060e-70 9.5278204322435580e-70 0.0000000000000000e+00  -3.7738674764383603e-71 6.8227946708753160e-71 0.0000000000000000e+00  -1.8762619006099987e-72 3.2043482563317284e-72 0.0000000000000000e+00  -1.2169141660105302e-73 2.7273780207159509e-73 0.0000000000000000e+00  -4.4184947515602282e-75 1.2913625675941018e-74 0.0000000000000000e+00  -2.5473849096851730e-75 4.2417887121663514e-75 0.0000000000000000e+00  -9.7700471117755066e-76 3.5573111187058529e-76 0.0000000000000000e+00  -1.6208312768969793e-75 -2.3898395661782304e-76 0.0000000000000000e+00  -2.4497688565739145e-74 1.1583356916861213e-74 0.0000000000000000e+00  -3.6793076462666639e-74 1.5488580261792630e-75 0.0000000000000000e+00  -3.8846577980477540e-73 1.4320650415174626e-73 0.0000000000000000e+00  -1.0247188124252037e-71 6.2297839823412670e-72 0.0000000000000000e+00  -6.7476042578299324e-71 3.7022382266130244e-71 0.0000000000000000e+00  -1.0611234500981750e-70 3.8955157193933760e-72 0.0000000000000000e+00  -8.9075664894123956e-70 3.3026332534421657e-70 0.0000000000000000e+00  -2.1319266192995527e-68 1.2834546492305291e-68 0.0000000000000000e+00  -1.0252006492621420e-67 5.0967364212198269e-68 0.0000000000000000e+00  -1.0116139528919337e-67 -6.0077183799856719e-68 0.0000000000000000e+00  -3.1714628356876595e-66 1.7406915561181633e-66 0.0000000000000000e+00  -3.1917772614842573e-65 1.8253824878626796e-65 0.0000000000000000e+00  -5.3878696626696216e-65 5.0264010840688358e-66 0.0000000000000000e+00  -4.4421955783205593e-64 1.4409645985386543e-64 0.0000000000000000e+00  -7.0117798042739741e-63 4.3395990415685759e-63 0.0000000000000000e+00  -1.5081607098661726e-62 3.7301115061957126e-63 0.0000000000000000e+00  -8.4420898107070127e-62 1.9573650654345205e-62 0.0000000000000000e+00  -1.3591306845978762e-60 8.4703955506148973e-61 0.0000000000000000e+00  -2.4186595699403716e-60 3.3611786936989350e-61 0.0000000000000000e+00  -2.1208060078605637e-59 7.3524381923141114e-60 0.0000000000000000e+00  -2.4252638543185812e-58 1.4841646204924530e-58 0.0000000000000000e+00  -2.5822118315289373e-58 -9.3462133867599832e-59 0.0000000000000000e+00  -5.9941222714734314e-57 2.7600565268512755e-57 0.0000000000000000e+00  -2.4908991661040534e-56 1.2285468260384366e-56 0.0000000000000000e+00  -5.5579235737811744e-56 -8.5926823206247696e-57 0.0000000000000000e+00  -1.0152721019470246e-54 6.4178692631163382e-55 0.0000000000000000e+00  -1.1184394971778982e-54 -3.4279033608167340e-55 0.0000000000000000e+00  -2.4159287049925042e-53 1.2558900124934175e-53 0.0000000000000000e+00  -6.6119881516403529e-53 2.9546673497804020e-53 0.0000000000000000e+00  -4.3643164327805508e-52 1.2104828751859909e-52 0.0000000000000000e+00  -2.6762094682632337e-51 1.6419256361489026e-51 0.0000000000000000e+00  -7.6649819070043022e-51 -2.0952951305614497e-52 0.0000000000000000e+00  -7.2246849761629783e-50 4.5330811101517566e-50 0.0000000000000000e+00  -1.6164757739050539e-49 -1.4524754664140417e-50 0.0000000000000000e+00  -1.7353660733266972e-48 9.9485192155251294e-49 0.0000000000000000e+00  -4.3405199079081486e-48 -1.9990884989676715e-49 0.0000000000000000e+00  -2.0196173678040778e-47 1.0917350939012696e-47 0.0000000000000000e+00  -1.1038466865921411e-46 1.8658614372735098e-47 0.0000000000000000e+00  -1.0258660750905956e-46 2.4171686504158612e-47 0.0000000000000000e+00  -1.2431022238754029e-45 5.1609504180396906e-46 0.0000000000000000e+00  -8.7170520316828474e-46 -5.5739892705004529e-46 0.0000000000000000e+00  -1.3459373425796193e-44 7.9210219647951159e-45 0.0000000000000000e+00  -5.8010563557710612e-44 1.3482878289049296e-44 0.0000000000000000e+00  -3.6119324557099809e-44 -1.7173247108988214e-44 0.0000000000000000e+00  -1.1438644460401122e-43 6.3743316927549795e-44 0.0000000000000000e+00  -8.4178072429401634e-43 2.2709007217152637e-43 0.0000000000000000e+00  -1.9297254771119271e-42 1.9369015349855314e-43 0.0000000000000000e+00  -2.5123518409641595e-42 5.9837826688786312e-44 0.0000000000000000e+00  -2.0151014547938320e-42 -1.9099137714516615e-43 0.0000000000000000e+00  -8.6186352132513015e-43 -2.4567617647712762e-43 0.0000000000000000e+00  -1.1338031593979280e-43 -6.3215341914902771e-44 0.0000000000000000e+00  -3.8677263242087054e-44 1.8142967376337215e-44 0.0000000000000000e+00  -6.3210667385424826e-44 -1.0622162940677172e-44 0.0000000000000000e+00  -1.5018238098271857e-44 -7.7207440387306459e-45 0.0000000000000000e+00  -9.9673840654546508e-46 5.5667339759951707e-46 0.0000000000000000e+00  -1.4065241959095567e-45 -5.2906453100760161e-46 0.0000000000000000e+00  -1.1222104396577697e-46 -2.8048723022186784e-47 0.0000000000000000e+00  -1.0194133258950584e-46 -2.1070552079194369e-47 0.0000000000000000e+00  -1.8677369596038361e-47 -1.1772213530353145e-47 0.0000000000000000e+00  -4.0849770925997883e-48 1.9900830655148898e-49 0.0000000000000000e+00  -1.4926493990131244e-48 -9.2114807749255305e-49 0.0000000000000000e+00  -1.6317674528033700e-49 2.4134921420528529e-50 0.0000000000000000e+00  -7.4873591021579301e-50 -4.3549293576620642e-50 0.0000000000000000e+00  -8.2423705641756637e-51 6.2957658095969766e-52 0.0000000000000000e+00  -3.1578790864621638e-51 -1.7588453096370422e-51 0.0000000000000000e+00  -5.1110869378459185e-52 -1.1322930315626791e-52 0.0000000000000000e+00  -8.2311221517014830e-53 -3.5015828771342330e-53 0.0000000000000000e+00  -2.6712269913246142e-53 -1.2999550428172542e-53 0.0000000000000000e+00  -1.1948985769185126e-54 3.2011969558393685e-55 0.0000000000000000e+00  -1.0684738448649127e-54 -6.7304984406003714e-55 0.0000000000000000e+00  -5.1463968175984711e-56 8.2492200976164060e-57 0.0000000000000000e+00  -2.3456320454171601e-56 -1.3106612942884067e-56 0.0000000000000000e+00  -4.8406173525436281e-57 -2.4982081340449809e-57 0.0000000000000000e+00  -2.4530496736279831e-58 8.4687965517147008e-59 0.0000000000000000e+00  -2.1667551588377543e-58 -1.3174719967532210e-58 0.0000000000000000e+00  -1.9947545688315798e-59 -6.1007783849616284e-60 0.0000000000000000e+00  -2.3769651234764928e-60 -3.3705729254735762e-61 0.0000000000000000e+00  -1.2952210668909594e-60 -7.5564107346040588e-61 0.0000000000000000e+00  -7.7020261450160508e-62 -2.1311241536269561e-62 0.0000000000000000e+00  -1.3609418840155665e-62 -2.9126092099712187e-63 0.0000000000000000e+00  -6.6581530642762710e-63 -3.7674664553518025e-63 0.0000000000000000e+00  -4.7913986448674567e-64 -1.8107816879828455e-64 0.0000000000000000e+00  -4.3634244561526246e-65 9.5345589900154741e-67 0.0000000000000000e+00  -2.9551065551714393e-65 -1.6549246891764735e-65 0.0000000000000000e+00  -3.4208274258215241e-66 -1.9810863322239332e-66 0.0000000000000000e+00  -8.9746401480879658e-68 5.4599034588386815e-68 0.0000000000000000e+00  -8.6504976106736674e-68 -4.1639891062850602e-68 0.0000000000000000e+00  -2.0720254311992372e-68 -1.2813133581992081e-68 0.0000000000000000e+00  -1.1339452090621996e-69 -5.1214074548146227e-70 0.0000000000000000e+00  -8.7909728630474832e-71 1.3757203642390961e-71 0.0000000000000000e+00  -6.9158994220183929e-71 -3.6500945534751471e-71 0.0000000000000000e+00  -1.2492572121779043e-71 -7.6500100439908263e-72 0.0000000000000000e+00  -5.9856091067915168e-73 -2.7477962574838421e-73 0.0000000000000000e+00  -3.9228031921920178e-74 7.4150154958111258e-75 0.0000000000000000e+00  -3.1578566328929516e-74 -1.4778535178520455e-74 0.0000000000000000e+00  -6.5924255877847949e-75 -3.3555009707850882e-75 0.0000000000000000e+00  -7.1803998262285973e-76 -3.1067144755548722e-76 0.0000000000000000e+00  -8.5499644743876351e-76 -1.6230190904120621e-75 0.0000000000000000e+00  -4.7722718601908558e-75 -1.3947049168315736e-74 0.0000000000000000e+00  4.3625285737220941e-75 -8.3048840151323041e-75 0.0000000000000000e+00  -1.6276760301467695e-73 -3.4287412824216863e-73 0.0000000000000000e+00  -9.2717595723990760e-71 -1.0081413136526248e-70 0.0000000000000000e+00  -7.4929601667900124e-70 -1.3188831315498018e-69 0.0000000000000000e+00  -1.0961325331613535e-69 -3.6532153822880451e-69 0.0000000000000000e+00  -7.7427608118181466e-68 -1.7129611821912456e-67 0.0000000000000000e+00  -6.5131238635817745e-68 -3.2614437609782128e-67 0.0000000000000000e+00  -6.7702178351730206e-66 -1.3516895571869957e-65 0.0000000000000000e+00  -4.5043114411510906e-66 -2.1328846470755608e-65 0.0000000000000000e+00  -9.0360202578392517e-65 -1.5602293832464972e-64 0.0000000000000000e+00  1.7148393321481121e-65 -2.1030099739172167e-64 0.0000000000000000e+00  -4.2573429608993924e-62 -6.4165915461942388e-62 0.0000000000000000e+00  -6.9650062850146387e-62 -1.7232154471262218e-61 0.0000000000000000e+00  -2.3139203797035963e-62 -2.7295142657178680e-61 0.0000000000000000e+00  -5.7098033343977731e-60 -1.1384610581174405e-59 0.0000000000000000e+00  4.7373562359012745e-60 -1.4999860685936123e-59 0.0000000000000000e+00  -2.8830782573575433e-59 -4.7610864451497613e-59 0.0000000000000000e+00  8.7623652343570990e-60 -6.0822582997912745e-59 0.0000000000000000e+00  2.3086310766842725e-59 -3.9613563805052966e-59 0.0000000000000000e+00  -5.5972112905404236e-58 -8.9730896230584407e-58 0.0000000000000000e+00  -1.3694981084718429e-59 -1.2603029133679057e-57 0.0000000000000000e+00  -4.5978122664356019e-57 -1.1659316247608339e-56 0.0000000000000000e+00  5.6991487493926888e-57 -8.6466697529094752e-57 0.0000000000000000e+00  -5.2868715105878513e-57 -7.3637118912018194e-57 0.0000000000000000e+00  -1.7507284963786421e-56 -3.7819281530607242e-56 0.0000000000000000e+00  2.1404456143344315e-56 -4.0607929209073761e-56 0.0000000000000000e+00  -4.9527729884941440e-57 -9.2247101182080331e-57 0.0000000000000000e+00  -8.0357203545954787e-56 -2.0349074109209741e-55 0.0000000000000000e+00  6.2935737173021069e-56 -5.0741943447386266e-55 0.0000000000000000e+00  -4.2419787208580608e-55 -7.2777017073766713e-55 0.0000000000000000e+00  -4.8514588669298529e-56 -1.8360507361466458e-54 0.0000000000000000e+00  1.6404649466864615e-55 -5.7325461295365370e-55 0.0000000000000000e+00  -5.1219467692267808e-55 -1.6782885315384519e-54 0.0000000000000000e+00  -2.2264005853048924e-54 -7.0814481110317698e-54 0.0000000000000000e+00  2.5482382771769850e-54 -6.0672053814892187e-54 0.0000000000000000e+00  -6.6349225647205596e-55 -2.3924022472746983e-54 0.0000000000000000e+00  5.2497918712226851e-55 -2.8175672149163381e-54 0.0000000000000000e+00  1.2629859432708427e-55 -1.4245539165208334e-54 0.0000000000000000e+00  -2.1499704672059322e-54 -3.4731821447174518e-54 0.0000000000000000e+00  5.6223132276965374e-55 -8.2267150450266161e-54 0.0000000000000000e+00  -3.8751948644806674e-54 -1.3568770423538031e-53 0.0000000000000000e+00  4.6238856142512143e-54 -7.7055168931948554e-54 0.0000000000000000e+00  2.0014949366304737e-55 -6.5033985281771457e-55 0.0000000000000000e+00  -4.7304541273456453e-54 -8.0162107798275915e-54 0.0000000000000000e+00  4.7550077849634011e-54 -7.8653666028179596e-54 0.0000000000000000e+00  -1.6371019186573925e-56 -1.3351041277721968e-55 0.0000000000000000e+00  1.0983499786258440e-56 -2.7683970191932026e-55 0.0000000000000000e+00  2.1738734345651833e-56 -9.8797652820382611e-56 0.0000000000000000e+00  -5.1267367026191298e-54 -9.3525321792038439e-54 0.0000000000000000e+00  5.4686063702672410e-54 -9.4127440651480960e-54 0.0000000000000000e+00  5.5914120900449845e-56 -1.0525388472457484e-55 0.0000000000000000e+00  -1.4117044815782440e-56 -6.2034971246129345e-56 0.0000000000000000e+00  -4.9266034939235632e-55 -9.0382846096043240e-55 0.0000000000000000e+00  -5.7312280885153392e-54 -1.0034213702477351e-53 0.0000000000000000e+00  4.4402269126251690e-54 -1.0502753766255960e-53 0.0000000000000000e+00  -3.0100110812445100e-54 -7.9771959624423574e-54 0.0000000000000000e+00  2.4055676165996694e-54 -8.5571238930217190e-54 0.0000000000000000e+00  2.2164012688683337e-54 -3.3135878904210876e-54 0.0000000000000000e+00  -5.3652511228156221e-55 -1.4779804899428308e-54 0.0000000000000000e+00  8.2513490120577147e-55 -1.5770864009946752e-54 0.0000000000000000e+00  -4.8607597680525217e-55 -9.8137217926089176e-55 0.0000000000000000e+00  5.0635170308673232e-55 -8.8767523830770107e-55 0.0000000000000000e+00  -1.5479105285553926e-56 -2.6853648653244589e-56 0.0000000000000000e+00  -4.4225447026855556e-56 -1.7199334983111027e-55 0.0000000000000000e+00  4.1287092155834014e-56 -1.7487871204774974e-55 0.0000000000000000e+00  4.7616501258595827e-57 -6.9055623541592637e-56 0.0000000000000000e+00  -2.7197144053935557e-56 -6.5296457471970491e-56 0.0000000000000000e+00  3.2550305579965429e-56 -6.4295779542652584e-56 0.0000000000000000e+00  -2.8308171246910436e-57 -2.8719629801012936e-56 0.0000000000000000e+00  1.2843519147611036e-56 -3.0083648941161155e-56 0.0000000000000000e+00  9.9375695735936538e-58 -2.4039396012696408e-57 0.0000000000000000e+00  -4.3442163158760713e-57 -7.6178453208095483e-57 0.0000000000000000e+00  4.2165799938783463e-57 -1.1027094250568145e-56 0.0000000000000000e+00  3.1001712688104178e-58 -1.0227760013419271e-57 0.0000000000000000e+00  1.4272996873217544e-58 -5.0328