<?xml version="1.0"?>
<VTKFile type="UnstructuredGrid"  version="0.1"  >
<UnstructuredGrid>
<Piece  NumberOfPoints="11902" NumberOfCells="23402">
<Points>
<DataArray  type="Float64"  NumberOfComponents="3"  format="ascii">-5 -5 0  5 -5 0  5 5 0  -5 5 0  1.142669574321763 0.0009573965225310653 0  -4.9 -5 0  -4.8 -5 0  -4.7 -5 0  -4.6 -5 0  -4.5 -5 0  -4.4 -5 0  -4.3 -5 0  -4.2 -5 0  -4.1 -5 0  -4 -5 0  -3.9 -5 0  -3.8 -5 0  -3.7 -5 0  -3.6 -5 0  -3.5 -5 0  -3.4 -5 0  -3.3 -5 0  -3.2 -5 0  -3.1 -5 0  -3 -5 0  -2.9 -5 0  -2.8 -5 0  -2.7 -5 0  -2.6 -5 0  -2.5 -5 0  -2.4 -5 0  -2.3 -5 0  -2.2 -5 0  -2.1 -5 0  -2 -5 0  -1.9 -5 0  -1.8 -5 0  -1.7 -5 0  -1.6 -5 0  -1.5 -5 0  -1.4 -5 0  -1.3 -5 0  -1.2 -5 0  -1.1 -5 0  -1 -5 0  -0.9000000000000004 -5 0  -0.7999999999999998 -5 0  -0.7000000000000002 -5 0  -0.5999999999999996 -5 0  -0.5 -5 0  -0.4000000000000004 -5 0  -0.2999999999999998 -5 0  -0.2000000000000002 -5 0  -0.09999999999999964 -5 0  0 -5 0  0.09999999999999964 -5 0  0.2000000000000002 -5 0  0.2999999999999998 -5 0  0.4000000000000004 -5 0  0.5 -5 0  0.5999999999999996 -5 0  0.7000000000000002 -5 0  0.7999999999999998 -5 0  0.9000000000000004 -5 0  1 -5 0  1.1 -5 0  1.2 -5 0  1.3 -5 0  1.4 -5 0  1.5 -5 0  1.6 -5 0  1.7 -5 0  1.8 -5 0  1.9 -5 0  2 -5 0  2.1 -5 0  2.2 -5 0  2.3 -5 0  2.4 -5 0  2.5 -5 0  2.6 -5 0  2.7 -5 0  2.8 -5 0  2.9 -5 0  3 -5 0  3.1 -5 0  3.199999999999999 -5 0  3.300000000000001 -5 0  3.4 -5 0  3.5 -5 0  3.6 -5 0  3.699999999999999 -5 0  3.800000000000001 -5 0  3.9 -5 0  4 -5 0  4.1 -5 0  4.199999999999999 -5 0  4.300000000000001 -5 0  4.4 -5 0  4.5 -5 0  4.6 -5 0  4.699999999999999 -5 0  4.800000000000001 -5 0  4.9 -5 0  5 -4.9 0  5 -4.8 0  5 -4.7 0  5 -4.6 0  5 -4.5 0  5 -4.4 0  5 -4.3 0  5 -4.2 0  5 -4.1 0  5 -4 0  5 -3.9 0  5 -3.8 0  5 -3.7 0  5 -3.6 0  5 -3.5 0  5 -3.4 0  5 -3.3 0  5 -3.2 0  5 -3.1 0  5 -3 0  5 -2.9 0  5 -2.8 0  5 -2.7 0  5 -2.6 0  5 -2.5 0  5 -2.4 0  5 -2.3 0  5 -2.2 0  5 -2.1 0  5 -2 0  5 -1.9 0  5 -1.8 0  5 -1.7 0  5 -1.6 0  5 -1.5 0  5 -1.4 0  5 -1.3 0  5 -1.2 0  5 -1.1 0  5 -1 0  5 -0.9000000000000004 0  5 -0.7999999999999998 0  5 -0.7000000000000002 0  5 -0.5999999999999996 0  5 -0.5 0  5 -0.4000000000000004 0  5 -0.2999999999999998 0  5 -0.2000000000000002 0  5 -0.09999999999999964 0  5 0 0  5 0.09999999999999964 0  5 0.2000000000000002 0  5 0.2999999999999998 0  5 0.4000000000000004 0  5 0.5 0  5 0.5999999999999996 0  5 0.7000000000000002 0  5 0.7999999999999998 0  5 0.9000000000000004 0  5 1 0  5 1.1 0  5 1.2 0  5 1.3 0  5 1.4 0  5 1.5 0  5 1.6 0  5 1.7 0  5 1.8 0  5 1.9 0  5 2 0  5 2.1 0  5 2.2 0  5 2.3 0  5 2.4 0  5 2.5 0  5 2.6 0  5 2.7 0  5 2.8 0  5 2.9 0  5 3 0  5 3.1 0  5 3.199999999999999 0  5 3.300000000000001 0  5 3.4 0  5 3.5 0  5 3.6 0  5 3.699999999999999 0  5 3.800000000000001 0  5 3.9 0  5 4 0  5 4.1 0  5 4.199999999999999 0  5 4.300000000000001 0  5 4.4 0  5 4.5 0  5 4.6 0  5 4.699999999999999 0  5 4.800000000000001 0  5 4.9 0  4.9 5 0  4.8 5 0  4.7 5 0  4.6 5 0  4.5 5 0  4.4 5 0  4.3 5 0  4.2 5 0  4.1 5 0  4 5 0  3.9 5 0  3.8 5 0  3.7 5 0  3.6 5 0  3.5 5 0  3.4 5 0  3.3 5 0  3.2 5 0  3.1 5 0  3 5 0  2.9 5 0  2.8 5 0  2.7 5 0  2.6 5 0  2.5 5 0  2.4 5 0  2.3 5 0  2.2 5 0  2.1 5 0  2 5 0  1.9 5 0  1.8 5 0  1.7 5 0  1.6 5 0  1.5 5 0  1.4 5 0  1.3 5 0  1.2 5 0  1.1 5 0  1 5 0  0.9000000000000004 5 0  0.7999999999999998 5 0  0.7000000000000002 5 0  0.5999999999999996 5 0  0.5 5 0  0.4000000000000004 5 0  0.2999999999999998 5 0  0.2000000000000002 5 0  0.09999999999999964 5 0  0 5 0  -0.09999999999999964 5 0  -0.2000000000000002 5 0  -0.2999999999999998 5 0  -0.4000000000000004 5 0  -0.5 5 0  -0.5999999999999996 5 0  -0.7000000000000002 5 0  -0.7999999999999998 5 0  -0.9000000000000004 5 0  -1 5 0  -1.1 5 0  -1.2 5 0  -1.3 5 0  -1.4 5 0  -1.5 5 0  -1.6 5 0  -1.7 5 0  -1.8 5 0  -1.9 5 0  -2 5 0  -2.1 5 0  -2.2 5 0  -2.3 5 0  -2.4 5 0  -2.5 5 0  -2.6 5 0  -2.7 5 0  -2.8 5 0  -2.9 5 0  -3 5 0  -3.1 5 0  -3.199999999999999 5 0  -3.300000000000001 5 0  -3.4 5 0  -3.5 5 0  -3.6 5 0  -3.699999999999999 5 0  -3.800000000000001 5 0  -3.9 5 0  -4 5 0  -4.1 5 0  -4.199999999999999 5 0  -4.300000000000001 5 0  -4.4 5 0  -4.5 5 0  -4.6 5 0  -4.699999999999999 5 0  -4.800000000000001 5 0  -4.9 5 0  -5 4.9 0  -5 4.8 0  -5 4.7 0  -5 4.6 0  -5 4.5 0  -5 4.4 0  -5 4.3 0  -5 4.2 0  -5 4.1 0  -5 4 0  -5 3.9 0  -5 3.8 0  -5 3.7 0  -5 3.6 0  -5 3.5 0  -5 3.4 0  -5 3.3 0  -5 3.2 0  -5 3.1 0  -5 3 0  -5 2.9 0  -5 2.8 0  -5 2.7 0  -5 2.6 0  -5 2.5 0  -5 2.4 0  -5 2.3 0  -5 2.2 0  -5 2.1 0  -5 2 0  -5 1.9 0  -5 1.8 0  -5 1.7 0  -5 1.6 0  -5 1.5 0  -5 1.4 0  -5 1.3 0  -5 1.2 0  -5 1.1 0  -5 1 0  -5 0.9000000000000004 0  -5 0.7999999999999998 0  -5 0.7000000000000002 0  -5 0.5999999999999996 0  -5 0.5 0  -5 0.4000000000000004 0  -5 0.2999999999999998 0  -5 0.2000000000000002 0  -5 0.09999999999999964 0  -5 0 0  -5 -0.09999999999999964 0  -5 -0.2000000000000002 0  -5 -0.2999999999999998 0  -5 -0.4000000000000004 0  -5 -0.5 0  -5 -0.5999999999999996 0  -5 -0.7000000000000002 0  -5 -0.7999999999999998 0  -5 -0.9000000000000004 0  -5 -1 0  -5 -1.1 0  -5 -1.2 0  -5 -1.3 0  -5 -1.4 0  -5 -1.5 0  -5 -1.6 0  -5 -1.7 0  -5 -1.8 0  -5 -1.9 0  -5 -2 0  -5 -2.1 0  -5 -2.2 0  -5 -2.3 0  -5 -2.4 0  -5 -2.5 0  -5 -2.6 0  -5 -2.7 0  -5 -2.8 0  -5 -2.9 0  -5 -3 0  -5 -3.1 0  -5 -3.199999999999999 0  -5 -3.300000000000001 0  -5 -3.4 0  -5 -3.5 0  -5 -3.6 0  -5 -3.699999999999999 0  -5 -3.800000000000001 0  -5 -3.9 0  -5 -4 0  -5 -4.1 0  -5 -4.199999999999999 0  -5 -4.300000000000001 0  -5 -4.4 0  -5 -4.5 0  -5 -4.6 0  -5 -4.699999999999999 0  -5 -4.800000000000001 0  -5 -4.9 0  1.137135655427785 0.1002071197577191 0  1.119750540477035 0.1992936268924727 0  1.090426912716052 0.2970022909833946 0  1.051938790837881 0.3899418968467028 0  1.002373820198414 0.4808946854001174 0  0.9435045794128698 0.5664712905078215 0  0.874449685290934 0.6462697574218526 0  0.7961331040817159 0.7192318886484742 0  0.7108583733866639 0.7854051672979453 0  0.6183789737906115 0.8442198851393731 0  0.51914566448098 0.8943681497902369 0  0.4149901928068008 0.9357809458072459 0  0.3081426182866803 0.9683595734084064 0  0.1970831122903976 0.9905753290473513 0  0.08555927748374037 1.003722095485895 0  -0.02723517331886121 1.006341661486621 0  -0.139842920752447 0.9980183834719092 0  -0.2517176158634658 0.9808520382925262 0  -0.3610987003355179 0.9540821690646708 0  -0.4664308471042474 0.9173705582877834 0  -0.5668691390074855 0.8720112414435843 0  -0.662159029183623 0.817383572540316 0  -0.750835988591747 0.7549048568049176 0  -0.8324006437466166 0.6850223149488661 0  -0.9062022114820967 0.6073269922232019 0  -0.9704306636130203 0.5242998808902065 0  -1.025737197810535 0.4366441319020781 0  -1.070200447905896 0.3439448708067311 0  -1.103669049059948 0.2485960255314578 0  -1.126387188921196 0.1507980008516377 0  -1.137948402246756 0.05087003377168051 0  -1.137974217950807 -0.04964888451619193 0  -1.126426212946289 -0.1493714384274646 0  -1.104899737093893 -0.2471656841323671 0  -1.070061662320344 -0.3434270633274203 0  -1.026061537584956 -0.4354323249904272 0  -0.9711017631816978 -0.5233288601766074 0  -0.9071031124775396 -0.6060201970877026 0  -0.8333347631512786 -0.6828842301054306 0  -0.7512690662565964 -0.7523249695874061 0  -0.6618473731426125 -0.8139889492739983 0  -0.5672344430285987 -0.8687143680707075 0  -0.4647989702095082 -0.9144814555443963 0  -0.359308591522359 -0.9519573146786441 0  -0.2498047258528457 -0.9793696200681906 0  -0.1385944152170478 -0.9969924864300109 0  -0.02649340076758685 -1.005762125350492 0  0.08604452243827919 -1.002424563391584 0  0.1987221830251986 -0.989028451685001 0  0.3090009877271147 -0.9669187505223493 0  0.4173262253916754 -0.9345128110124632 0  0.5201470746630894 -0.8933830003112387 0  0.6189053600428716 -0.8434955522000185 0  0.7111020745777095 -0.7859845038272119 0  0.7962981234764588 -0.7196792382705026 0  0.8740697594596973 -0.6457416438384759 0  0.9425975988270208 -0.5657439541250948 0  1.002466207075559 -0.480426252483789 0  1.053017376475547 -0.3900472737077562 0  1.091532579488753 -0.2961753885942059 0  1.119866944911189 -0.1986786734296905 0  1.137155235427636 -0.09986679241632095 0  -2.449047100757027 4.919009366218626 0  -2.448964472695133 -4.911468761088969 0  4.911415784336548 2.448593613760116 0  4.919450161799551 -2.449991765691786 0  2.44678069317456 -4.896870641663713 0  2.441194136201169 4.900595951286067 0  -4.911434695626395 -2.448612371940997 0  -4.911434369444902 2.44861614590597 0  -1.749017961237889 4.912292879662154 0  -1.744782841600779 -4.9156827632739 0  4.92185510054908 1.744702408903772 0  4.910562066673887 -1.748556037688136 0  -4.910840469420247 -1.748279559793269 0  -4.911652816132168 1.748016894088581 0  1.746321931171434 4.906244691968031 0  1.747799165608595 -4.894557528247561 0  -1.149226648768806 4.910347385990184 0  -1.130044164473492 -4.918131746701074 0  -4.910909109925639 -1.148481897190321 0  -4.910733111302014 1.148281520163667 0  1.144196240978814 -4.914381215351807 0  1.149231949752347 4.910338653039082 0  4.911063473314684 1.146761698274348 0  4.921684554490659 -1.152479183244235 0  -0.546869578627872 -4.911670210667062 0  -0.5466327588156399 4.920200597886723 0  -4.909924170312228 -0.549016629400559 0  -4.909949229166872 0.547570912831705 0  4.909276997460394 -0.5493409256807636 0  4.920680784657083 0.5460561833115389 0  0.5426711284139918 -4.898792129184528 0  0.5513647710318115 4.917082800546353 0  -4.912542203778603 -3.04885043776137 0  4.919069929600798 3.046830835759363 0  4.912057370530623 -3.048835209460227 0  -4.913386893257958 3.045937550079761 0  3.055720554552356 -4.918024664154427 0  -3.049082832653568 -4.912004458138021 0  3.052640544163299 4.914070808220179 0  -3.048525718463329 4.912889028058001 0  -4.909138031344642 -0.04993848003468453 0  0.0451322277673449 -4.913633214331601 0  0.04958138308765885 4.920532710213402 0  4.916052498170667 -0.05131861843181594 0  3.545951762419098 -4.919475880796869 0  -3.54926129346105
[...]
<PointData  Vectors="f_1414"> 
<DataArray  type="Float64"  Name="f_1414"  NumberOfComponents="3" format="ascii">2.6559658580598223e-76 2.6559658580598223e-76 0.0000000000000000e+00  -2.8445085011136870e-76 2.8445085011136870e-76 0.0000000000000000e+00  -8.5659604778887306e-78 -8.5659604778887306e-78 0.0000000000000000e+00  3.0308186857305758e-76 -3.0308186857305758e-76 0.0000000000000000e+00  -5.9037385049131430e-01 -1.1953664128202136e-02 0.0000000000000000e+00  4.1645735633672471e-75 6.6074279530407465e-75 0.0000000000000000e+00  2.0837167928544320e-75 2.0878816191425449e-74 0.0000000000000000e+00  -3.4019280892444545e-75 6.7681291695116959e-75 0.0000000000000000e+00  3.9953299022654145e-72 6.6723270627364222e-72 0.0000000000000000e+00  5.3100516714216775e-71 1.3464276534187640e-70 0.0000000000000000e+00  -7.9025882172554811e-72 4.5537492101142027e-71 0.0000000000000000e+00  3.2268435991510830e-69 6.1687913144640206e-69 0.0000000000000000e+00  5.1473242922927200e-68 9.4108461704489813e-68 0.0000000000000000e+00  -3.0529859211655457e-68 1.4990906287993429e-67 0.0000000000000000e+00  1.2726944994868795e-67 3.9851399817835489e-67 0.0000000000000000e+00  1.2757430935621079e-68 8.7782964495527385e-67 0.0000000000000000e+00  5.4290022357251095e-64 8.8414790994503687e-64 0.0000000000000000e+00  4.7664114146659390e-65 2.4417734874640474e-63 0.0000000000000000e+00  1.3423720803883415e-62 2.2043148620227914e-62 0.0000000000000000e+00  8.0368961084878013e-63 8.3206989366243922e-62 0.0000000000000000e+00  6.8905194273174955e-61 1.1053492375497708e-60 0.0000000000000000e+00  4.0363087283531708e-60 7.0256207080420709e-60 0.0000000000000000e+00  -2.8271101180027263e-60 7.6850246814580777e-60 0.0000000000000000e+00  5.6220523459842994e-59 1.1396124926577299e-58 0.0000000000000000e+00  -1.7447490659269606e-59 1.1637093518945452e-58 0.0000000000000000e+00  -2.9777495618658004e-59 6.8220758827702972e-59 0.0000000000000000e+00  1.7863757375463433e-58 3.3142132400201898e-58 0.0000000000000000e+00  7.2340384517740964e-58 2.0934913443315936e-57 0.0000000000000000e+00  2.8323472273264786e-57 6.2493768007153940e-57 0.0000000000000000e+00  -3.3712413511725475e-57 5.7181101373124418e-57 0.0000000000000000e+00  -3.4833977934789120e-58 1.0957153716076480e-57 0.0000000000000000e+00  1.8868924125715248e-56 2.9432599189627572e-56 0.0000000000000000e+00  -1.3959525905685240e-56 3.5225393692076173e-56 0.0000000000000000e+00  1.1767540413640713e-56 2.9004685767841783e-56 0.0000000000000000e+00  8.6274945223885446e-56 2.1027045714670623e-55 0.0000000000000000e+00  -2.4594244592646854e-56 5.7423011381936884e-55 0.0000000000000000e+00  5.1372930012914460e-57 8.6419450704475593e-57 0.0000000000000000e+00  5.4660533184411090e-56 1.3848071555399233e-55 0.0000000000000000e+00  1.5267721131313708e-55 6.1781968607305271e-55 0.0000000000000000e+00  -2.2011371810281204e-55 3.5050207196928790e-55 0.0000000000000000e+00  9.6814487590554936e-55 1.7278793890217908e-54 0.0000000000000000e+00  -4.3379872394712468e-55 4.3599774846319470e-54 0.0000000000000000e+00  -2.2396102675252860e-55 2.6813316638770503e-54 0.0000000000000000e+00  -9.4417289920687069e-56 9.4365729973643307e-55 0.0000000000000000e+00  -1.1111216903568662e-55 1.8179285665653615e-55 0.0000000000000000e+00  2.7111784387003162e-54 5.2435654708847005e-54 0.0000000000000000e+00  -2.1206685041262098e-54 4.1322109630386651e-54 0.0000000000000000e+00  -7.0596690747854980e-55 8.0604828855011639e-55 0.0000000000000000e+00  -1.2956359496960193e-55 2.7103064562182288e-55 0.0000000000000000e+00  9.1284982181971586e-55 1.4471755465918787e-54 0.0000000000000000e+00  9.2793537139324562e-55 6.1570771005270332e-54 0.0000000000000000e+00  -1.1066281931040083e-54 5.8984478293751476e-54 0.0000000000000000e+00  5.0496675703295856e-55 4.6493454752586858e-54 0.0000000000000000e+00  1.8823455480387899e-56 5.7940349527823771e-54 0.0000000000000000e+00  2.9593678918722567e-55 6.1522287745259919e-54 0.0000000000000000e+00  -1.2373132751186512e-54 2.0447240307586930e-54 0.0000000000000000e+00  -6.3379626373523843e-55 1.4728020802546459e-53 0.0000000000000000e+00  4.3783184617727636e-54 7.4640936413075204e-54 0.0000000000000000e+00  -4.2648540194678555e-54 8.1030349508398560e-54 0.0000000000000000e+00  1.8856811710580652e-54 3.9532542884028060e-54 0.0000000000000000e+00  -7.2349242102113254e-55 9.5022006426407767e-54 0.0000000000000000e+00  1.3056872721162962e-54 9.3267457253755104e-54 0.0000000000000000e+00  -1.6545107742489405e-54 4.4015488582647252e-54 0.0000000000000000e+00  -9.0892063691796277e-55 2.4081309169300449e-54 0.0000000000000000e+00  3.2716309353631137e-55 1.2985740997347172e-54 0.0000000000000000e+00  2.6079084989008588e-55 2.5368741976502602e-54 0.0000000000000000e+00  -7.7621190646635146e-56 3.4905866359427386e-54 0.0000000000000000e+00  -6.9990535570036656e-55 1.4847249875118691e-54 0.0000000000000000e+00  2.3398803859215518e-55 4.4153141466535588e-55 0.0000000000000000e+00  -2.2751506031598011e-55 6.0348661450442949e-55 0.0000000000000000e+00  4.9543073926988071e-56 2.3956907238381800e-55 0.0000000000000000e+00  1.8375291063972276e-55 9.5152488570716431e-55 0.0000000000000000e+00  -3.2580037482235768e-55 5.3190105678444348e-55 0.0000000000000000e+00  -1.5703161927937143e-56 4.8305284840458673e-56 0.0000000000000000e+00  -1.1226173247137166e-57 1.1339218863190616e-56 0.0000000000000000e+00  6.6644658236053034e-57 2.3515643068104480e-56 0.0000000000000000e+00  -8.8872515508243676e-57 1.5067804277223406e-56 0.0000000000000000e+00  1.7213729258062226e-57 2.8778774082140583e-57 0.0000000000000000e+00  -1.2306318551557205e-57 2.7308003682116602e-57 0.0000000000000000e+00  5.1211103802590443e-57 7.7821682523062665e-57 0.0000000000000000e+00  -4.4897098497201002e-57 1.1273395248281782e-56 0.0000000000000000e+00  -1.7963946355676088e-58 9.4040203753341638e-58 0.0000000000000000e+00  -2.3705668674881659e-58 4.6640231914623214e-58 0.0000000000000000e+00  -7.8097778210470358e-61 8.8107093327452325e-59 0.0000000000000000e+00  -2.4259158215606169e-59 6.4340233579677552e-59 0.0000000000000000e+00  -7.0607536041954754e-60 2.5029005351916867e-59 0.0000000000000000e+00  -4.3571618744533434e-60 2.2403750016863341e-59 0.0000000000000000e+00  -3.0429046729354203e-60 7.1802467478913973e-60 0.0000000000000000e+00  -8.4684855865499190e-62 4.4385632083809299e-61 0.0000000000000000e+00  -1.0694425571896526e-61 2.2380977768180525e-61 0.0000000000000000e+00  -3.5680732005042779e-62 5.6868290145967776e-62 0.0000000000000000e+00  -3.8901548435817139e-64 6.7108632286483457e-64 0.0000000000000000e+00  -2.4203197682427540e-65 5.1781750378670188e-65 0.0000000000000000e+00  3.6906040502124822e-66 1.0374750936280332e-65 0.0000000000000000e+00  -4.8247356259123468e-66 9.2740721191068945e-66 0.0000000000000000e+00  -6.6763758120904383e-68 2.7727510482985277e-67 0.0000000000000000e+00  -7.8298521015687099e-68 1.2934862166450019e-67 0.0000000000000000e+00  -8.0401932376402755e-69 1.1747457991982762e-68 0.0000000000000000e+00  -5.6210727315514599e-70 9.5295327569361830e-70 0.0000000000000000e+00  -3.7727679826972148e-71 6.8237374982586977e-71 0.0000000000000000e+00  -1.8758323165052024e-72 3.2047189409937413e-72 0.0000000000000000e+00  -1.2167492042719079e-73 2.7275215321257396e-73 0.0000000000000000e+00  -4.4179692988274242e-75 1.2914082407777410e-74 0.0000000000000000e+00  -2.5472387337040414e-75 4.2419160573715361e-75 0.0000000000000000e+00  -9.7702945532074405e-76 3.5570952562283508e-76 0.0000000000000000e+00  -1.6207691326736427e-75 -2.3892942326696765e-76 0.0000000000000000e+00  -2.4499565181007990e-74 1.1581712949389857e-74 0.0000000000000000e+00  -3.6793452094775963e-74 1.5485267400459516e-75 0.0000000000000000e+00  -3.8850134784428316e-73 1.4317519592717430e-73 0.0000000000000000e+00  -1.0249355010864035e-71 6.2278499245793812e-72 0.0000000000000000e+00  -6.7491489396251434e-71 3.7008445736021394e-71 0.0000000000000000e+00  -1.0611425704113510e-70 3.8937671429769797e-72 0.0000000000000000e+00  -8.9091824405339546e-70 3.3011599049027714e-70 0.0000000000000000e+00  -2.1326846052453554e-68 1.2827463188142551e-68 0.0000000000000000e+00  -1.0255366017886260e-67 5.0935405187181198e-68 0.0000000000000000e+00  -1.0111665701815552e-67 -6.0033548732517497e-68 0.0000000000000000e+00  -3.1727746413578502e-66 1.7394091702168288e-66 0.0000000000000000e+00  -3.1932876752807958e-65 1.8238674380237919e-65 0.0000000000000000e+00  -5.3883202868913791e-65 5.0217595016766604e-66 0.0000000000000000e+00  -4.4434783911504078e-64 1.4396513656406876e-64 0.0000000000000000e+00  -7.0160660463135171e-63 4.3350062784864133e-63 0.0000000000000000e+00  -1.5085526417430704e-62 3.7257756791590764e-63 0.0000000000000000e+00  -8.4440860725893012e-62 1.9552121294155069e-62 0.0000000000000000e+00  -1.3600919292748707e-60 8.4592328832691787e-61 0.0000000000000000e+00  -2.4190603966328953e-60 3.3563334316715778e-61 0.0000000000000000e+00  -2.1216814213648005e-59 7.3419190742504464e-60 0.0000000000000000e+00  -2.4271338713543196e-58 1.4817749476510074e-58 0.0000000000000000e+00  -2.5809895986501032e-58 -9.3297816420531162e-59 0.0000000000000000e+00  -5.9977526814119048e-57 2.7551410301500619e-57 0.0000000000000000e+00  -2.4925630318458223e-56 1.2261585405146073e-56 0.0000000000000000e+00  -5.5566977230299362e-56 -8.5720944392204531e-57 0.0000000000000000e+00  -1.0161630656036221e-54 6.4040926431511471e-55 0.0000000000000000e+00  -1.1179588677053792e-54 -3.4199488680010644e-55 0.0000000000000000e+00  -2.4176926653311172e-53 1.2529429216180161e-53 0.0000000000000000e+00  -6.6161285086414373e-53 2.9471909838909864e-53 0.0000000000000000e+00  -4.3660249833757471e-52 1.2074779960862371e-52 0.0000000000000000e+00  -2.6784712125608747e-51 1.6374020294371096e-51 0.0000000000000000e+00  -7.6647966558236551e-51 -2.0852455311773633e-52 0.0000000000000000e+00  -7.2306946159555816e-50 4.5195455866181035e-50 0.0000000000000000e+00  -1.6163209725559680e-49 -1.4471434241685333e-50 0.0000000000000000e+00  -1.7366045154753340e-48 9.9165892014439961e-49 0.0000000000000000e+00  -4.3403888583544761e-48 -1.9905392071316392e-49 0.0000000000000000e+00  -2.0208466952510123e-47 1.0879863971413626e-47 0.0000000000000000e+00  -1.1040758151604363e-46 1.8596734434910087e-47 0.0000000000000000e+00  -1.0260961199341838e-46 2.4083176443472305e-47 0.0000000000000000e+00  -1.2435941708654193e-45 5.1420255814448440e-46 0.0000000000000000e+00  -8.7129248387617579e-46 -5.5525282157337878e-46 0.0000000000000000e+00  -1.3465164633248719e-44 7.8904620626129809e-45 0.0000000000000000e+00  -5.8020873417054164e-44 1.3430919102767461e-44 0.0000000000000000e+00  -3.6112622016743987e-44 -1.7103994016097210e-44 0.0000000000000000e+00  -1.1441208798592565e-43 6.3486632853621607e-44 0.0000000000000000e+00  -8.4187208345528850e-43 2.2617314581804403e-43 0.0000000000000000e+00  -1.9298417273855982e-42 1.9290759870197947e-43 0.0000000000000000e+00  -2.5124751769151943e-42 5.9592844691717521e-44 0.0000000000000000e+00  -2.0152177026631240e-42 -1.9021962769636579e-43 0.0000000000000000e+00  -8.6195746088242899e-43 -2.4468308703940183e-43 0.0000000000000000e+00  -1.1340539698139510e-43 -6.2960686621974741e-44 0.0000000000000000e+00  -3.8670233117979317e-44 1.8069797452834075e-44 0.0000000000000000e+00  -6.3219296019154073e-44 -1.0581491302121164e-44 0.0000000000000000e+00  -1.5023864912185715e-44 -7.6909534895948259e-45 0.0000000000000000e+00  -9.9632730387861933e-46 5.5453004574025249e-46 0.0000000000000000e+00  -1.4070257971314064e-45 -5.2712252629811378e-46 0.0000000000000000e+00  -1.1224790818543405e-46 -2.7946241848905598e-47 0.0000000000000000e+00  -1.0196628845477159e-46 -2.0999498537740753e-47 0.0000000000000000e+00  -1.8690563318102358e-47 -1.1731701462976172e-47 0.0000000000000000e+00  -4.0848535735745145e-48 1.9814660189411230e-49 0.0000000000000000e+00  -1.4937924690540418e-48 -9.1818506541286695e-49 0.0000000000000000e+00  -1.6314914670909128e-49 2.4051200123441145e-50 0.0000000000000000e+00  -7.4931239676718705e-50 -4.3419144961964645e-50 0.0000000000000000e+00  -8.2416191477842343e-51 6.2735863406614086e-52 0.0000000000000000e+00  -3.1602978093506478e-51 -1.7539887061707210e-51 0.0000000000000000e+00  -5.1126865891808838e-52 -1.1295030993610011e-52 0.0000000000000000e+00  -8.2360239042824106e-53 -3.4927151291868900e-53 0.0000000000000000e+00  -2.6730514002554947e-53 -1.2968972787584098e-53 0.0000000000000000e+00  -1.1944501188668360e-54 3.1937656669060791e-55 0.0000000000000000e+00  -1.0694075852310309e-54 -6.7160411294735709e-55 0.0000000000000000e+00  -5.1452219824702590e-56 8.2295039762579944e-57 0.0000000000000000e+00  -2.3474058448335456e-56 -1.3081134479719996e-56 0.0000000000000000e+00  -4.8439030397180804e-57 -2.4937520716644788e-57 0.0000000000000000e+00  -2.4519419314666632e-58 8.4538697723356811e-59 0.0000000000000000e+00  -2.1684166810840771e-58 -1.3153418184760657e-58 0.0000000000000000e+00  -1.9954790547442255e-59 -6.0920811189913908e-60 0.0000000000000000e+00  -2.3773670367709079e-60 -3.3657051538680158e-61 0.0000000000000000e+00  -1.2960791212310588e-60 -7.5464224142879542e-61 0.0000000000000000e+00  -7.7042367474762723e-62 -2.1287072304491890e-62 0.0000000000000000e+00  -1.3612490480718001e-62 -2.9091980416717286e-63 0.0000000000000000e+00  -6.6618835042411794e-63 -3.7634566948265910e-63 0.0000000000000000e+00  -4.7930376352542679e-64 -1.8090882413218084e-64 0.0000000000000000e+00  -4.3633387103175658e-65 9.5257008849318088e-67 0.0000000000000000e+00  -2.9564781246875687e-65 -1.6535458423347463e-65 0.0000000000000000e+00  -3.4223270968101854e-66 -1.9796160349412405e-66 0.0000000000000000e+00  -8.9705323409703152e-68 5.4558810330293800e-68 0.0000000000000000e+00  -8.6532466447693500e-68 -4.1613686828127006e-68 0.0000000000000000e+00  -2.0727833773729740e-68 -1.2806036559994487e-68 0.0000000000000000e+00  -1.1342026280966278e-69 -5.1190474108374047e-70 0.0000000000000000e+00  -8.7902925017780564e-71 1.3750966064887030e-71 0.0000000000000000e+00  -6.9174243878537408e-71 -3.6487160814605728e-71 0.0000000000000000e+00  -1.2495242155074674e-71 -7.6476221328924889e-72 0.0000000000000000e+00  -5.9863339797955337e-73 -2.7471553640098260e-73 0.0000000000000000e+00  -3.9226153033119602e-74 7.4133538169812237e-75 0.0000000000000000e+00  -3.1581164218097586e-74 -1.4776252563969333e-74 0.0000000000000000e+00  -6.5927817338150361e-75 -3.3551892670053398e-75 0.0000000000000000e+00  -7.1804992329271977e-76 -3.1066277223876003e-76 0.0000000000000000e+00  -8.5495715263486182e-76 -1.6230533960777015e-75 0.0000000000000000e+00  -4.7720158763618012e-75 -1.3947273752767198e-74 0.0000000000000000e+00  4.3616234859766589e-75 -8.3041001412542171e-75 0.0000000000000000e+00  -1.6273251871244735e-73 -3.4290449867976227e-73 0.0000000000000000e+00  -9.2689887943856092e-71 -1.0083794042411948e-70 0.0000000000000000e+00  -7.4902018453838922e-70 -1.3191178396714116e-69 0.0000000000000000e+00  -1.0956599476397408e-69 -3.6536137880133405e-69 0.0000000000000000e+00  -7.7390161667649854e-68 -1.7132741458696941e-67 0.0000000000000000e+00  -6.5094504194309414e-68 -3.2617461995930963e-67 0.0000000000000000e+00  -6.7661971543939486e-66 -1.3520189793562844e-65 0.0000000000000000e+00  -4.5011255978379719e-66 -2.1331390311561085e-65 0.0000000000000000e+00  -9.0291275912133212e-65 -1.5607725891172576e-64 0.0000000000000000e+00  1.7133700104079441e-65 -2.1028969262566916e-64 0.0000000000000000e+00  -4.2535584490126091e-62 -6.4194805455941960e-62 0.0000000000000000e+00  -6.9580600662019118e-62 -1.7237294191731987e-61 0.0000000000000000e+00  -2.3114183404602347e-62 -2.7296948175571111e-61 0.0000000000000000e+00  -5.7034770568204897e-60 -1.1389142538081890e-59 0.0000000000000000e+00  4.7309923562616448e-60 -1.4995632306228040e-59 0.0000000000000000e+00  -2.8793448788396701e-59 -4.7636019039456848e-59 0.0000000000000000e+00  8.7499839835373822e-60 -6.0814577963530571e-59 0.0000000000000000e+00  2.3050822833254141e-59 -3.9591636056048219e-59 0.0000000000000000e+00  -5.5885996946497899e-58 -8.9784080193376108e-58 0.0000000000000000e+00  -1.3672184823923397e-59 -1.2603163112214860e-57 0.0000000000000000e+00  -4.5901628235230031e-57 -1.1663822159643764e-56 0.0000000000000000e+00  5.6884305973220763e-57 -8.6409175949704763e-57 0.0000000000000000e+00  -5.2768297417783356e-57 -7.3690563658510027e-57 0.0000000000000000e+00  -1.7472166398054474e-56 -3.7837062302657303e-56 0.0000000000000000e+00  2.1358564446871010e-56 -4.0586232164227720e-56 0.0000000000000000e+00  -4.9420637776696359e-57 -9.2297247177593742e-57 0.0000000000000000e+00  -8.0179348897844059e-56 -2.0357184368946069e-55 0.0000000000000000e+00  6.2763258982016965e-56 -5.0736180552535872e-55 0.0000000000000000e+00  -4.2316472871680118e-55 -7.2818275387367780e-55 0.0000000000000000e+00  -4.8450638194497503e-56 -1.8361151547287206e-54 0.0000000000000000e+00  1.6361568882329809e-55 -5.7310448854964342e-55 0.0000000000000000e+00  -5.1087894900466335e-55 -1.6787713685963843e-54 0.0000000000000000e+00  -2.2204474006467639e-54 -7.0834538532837060e-54 0.0000000000000000e+00  2.5408175812069663e-54 -6.0652472228003117e-54 0.0000000000000000e+00  -6.6162548148453873e-55 -2.3929560354005872e-54 0.0000000000000000e+00  5.2333667305221318e-55 -2.8172550606564242e-54 0.0000000000000000e+00  1.2587734211890608e-55 -1.4245050424883073e-54 0.0000000000000000e+00  -2.1433393722573556e-54 -3.4745144486722084e-54 0.0000000000000000e+00  5.6026753988403803e-55 -8.2266546294953160e-54 0.0000000000000000e+00  -3.8630673683212951e-54 -1.3571013403652769e-53 0.0000000000000000e+00  4.6088878503136261e-54 -7.7036665270262670e-54 0.0000000000000000e+00  1.9948778896487551e-55 -6.5028629687907835e-55 0.0000000000000000e+00  -4.7149190110723683e-54 -8.0176939037574102e-54 0.0000000000000000e+00  4.7391976418310477e-54 -7.8644995353726266e-54 0.0000000000000000e+00  -1.6316465512962079e-56 -1.3351274324178480e-55 0.0000000000000000e+00  1.0946132982587992e-56 -2.7684702259553872e-55 0.0000000000000000e+00  2.1666025453541241e-56 -9.8797875928759209e-56 0.0000000000000000e+00  -5.1095931071492677e-54 -9.3522872271741429e-54 0.0000000000000000e+00  5.4504223548199541e-54 -9.4137478900851312e-54 0.0000000000000000e+00  5.5729104511448315e-56 -1.0526751119430122e-55 0.0000000000000000e+00  -1.4069980379116399e-56 -6.2032418463118871e-56 0.0000000000000000e+00  -4.9104759112015627e-55 -9.0366089629491382e-55 0.0000000000000000e+00  -5.7126776288139158e-54 -1.0031835910108512e-53 0.0000000000000000e+00  4.4261022824261678e-54 -1.0504991929241380e-53 0.0000000000000000e+00  -3.0005488489393509e-54 -7.9755290275457138e-54 0.0000000000000000e+00  2.3981352680939001e-54 -8.5586057139110126e-54 0.0000000000000000e+00  2.2096957740402354e-54 -3.3150946033589503e-54 0.0000000000000000e+00  -5.3492198126479800e-55 -1.4775988402016483e-54 0.0000000000000000e+00  8.2277314896198046e-55 -1.5777487819570037e-54 0.0000000000000000e+00  -4.8467202252367025e-55 -9.8098998732708379e-55 0.0000000000000000e+00  5.0497358213355486e-55 -8.8812009859449425e-55 0.0000000000000000e+00  -1.5437214585525783e-56 -2.6839948058790033e-56 0.0000000000000000e+00  -4.4104165803787636e-56 -1.7195461967794954e-55 0.0000000000000000e+00  4.1188909822927034e-56 -1.7491983164413943e-55 0.0000000000000000e+00  4.7524656488384437e-57 -6.9060842741712356e-56 0.0000000000000000e+00  -2.7132643202195202e-56 -6.5269552841382289e-56 0.0000000000000000e+00  3.2476960920074732e-56 -6.4328580086505140e-56 0.0000000000000000e+00  -2.8246222152121721e-57 -2.8716757928673685e-56 0.0000000000000000e+00  1.2817641144313161e-56 -3.0096762401275614e-56 0.0000000000000000e+00  9.9183772352245144e-58 -2.4049505589295003e-57 0.0000000000000000e+00  -4.3357373509728333e-57 -7.6134255285162841e-57 0.0000000000000000e+00  4.2092388867448560e-57 -1.1031299359333863e-56 0.0000000000000000e+00  3.0948005360069082e-58 -1.0230841452308923e-57 0.0000000000000000e+00  1.4249557444740216e-58 -5.0342