<?xml version="1.0"?>
<VTKFile type="UnstructuredGrid"  version="0.1"  >
<UnstructuredGrid>
<Piece  NumberOfPoints="11902" NumberOfCells="23402">
<Points>
<DataArray  type="Float64"  NumberOfComponents="3"  format="ascii">-5 -5 0  5 -5 0  5 5 0  -5 5 0  1.265375219643148 0.001271856390478365 0  -4.9 -5 0  -4.8 -5 0  -4.7 -5 0  -4.6 -5 0  -4.5 -5 0  -4.4 -5 0  -4.3 -5 0  -4.2 -5 0  -4.1 -5 0  -4 -5 0  -3.9 -5 0  -3.8 -5 0  -3.7 -5 0  -3.6 -5 0  -3.5 -5 0  -3.4 -5 0  -3.3 -5 0  -3.2 -5 0  -3.1 -5 0  -3 -5 0  -2.9 -5 0  -2.8 -5 0  -2.7 -5 0  -2.6 -5 0  -2.5 -5 0  -2.4 -5 0  -2.3 -5 0  -2.2 -5 0  -2.1 -5 0  -2 -5 0  -1.9 -5 0  -1.8 -5 0  -1.7 -5 0  -1.6 -5 0  -1.5 -5 0  -1.4 -5 0  -1.3 -5 0  -1.2 -5 0  -1.1 -5 0  -1 -5 0  -0.9000000000000004 -5 0  -0.7999999999999998 -5 0  -0.7000000000000002 -5 0  -0.5999999999999996 -5 0  -0.5 -5 0  -0.4000000000000004 -5 0  -0.2999999999999998 -5 0  -0.2000000000000002 -5 0  -0.09999999999999964 -5 0  0 -5 0  0.09999999999999964 -5 0  0.2000000000000002 -5 0  0.2999999999999998 -5 0  0.4000000000000004 -5 0  0.5 -5 0  0.5999999999999996 -5 0  0.7000000000000002 -5 0  0.7999999999999998 -5 0  0.9000000000000004 -5 0  1 -5 0  1.1 -5 0  1.2 -5 0  1.3 -5 0  1.4 -5 0  1.5 -5 0  1.6 -5 0  1.7 -5 0  1.8 -5 0  1.9 -5 0  2 -5 0  2.1 -5 0  2.2 -5 0  2.3 -5 0  2.4 -5 0  2.5 -5 0  2.6 -5 0  2.7 -5 0  2.8 -5 0  2.9 -5 0  3 -5 0  3.1 -5 0  3.199999999999999 -5 0  3.300000000000001 -5 0  3.4 -5 0  3.5 -5 0  3.6 -5 0  3.699999999999999 -5 0  3.800000000000001 -5 0  3.9 -5 0  4 -5 0  4.1 -5 0  4.199999999999999 -5 0  4.300000000000001 -5 0  4.4 -5 0  4.5 -5 0  4.6 -5 0  4.699999999999999 -5 0  4.800000000000001 -5 0  4.9 -5 0  5 -4.9 0  5 -4.8 0  5 -4.7 0  5 -4.6 0  5 -4.5 0  5 -4.4 0  5 -4.3 0  5 -4.2 0  5 -4.1 0  5 -4 0  5 -3.9 0  5 -3.8 0  5 -3.7 0  5 -3.6 0  5 -3.5 0  5 -3.4 0  5 -3.3 0  5 -3.2 0  5 -3.1 0  5 -3 0  5 -2.9 0  5 -2.8 0  5 -2.7 0  5 -2.6 0  5 -2.5 0  5 -2.4 0  5 -2.3 0  5 -2.2 0  5 -2.1 0  5 -2 0  5 -1.9 0  5 -1.8 0  5 -1.7 0  5 -1.6 0  5 -1.5 0  5 -1.4 0  5 -1.3 0  5 -1.2 0  5 -1.1 0  5 -1 0  5 -0.9000000000000004 0  5 -0.7999999999999998 0  5 -0.7000000000000002 0  5 -0.5999999999999996 0  5 -0.5 0  5 -0.4000000000000004 0  5 -0.2999999999999998 0  5 -0.2000000000000002 0  5 -0.09999999999999964 0  5 0 0  5 0.09999999999999964 0  5 0.2000000000000002 0  5 0.2999999999999998 0  5 0.4000000000000004 0  5 0.5 0  5 0.5999999999999996 0  5 0.7000000000000002 0  5 0.7999999999999998 0  5 0.9000000000000004 0  5 1 0  5 1.1 0  5 1.2 0  5 1.3 0  5 1.4 0  5 1.5 0  5 1.6 0  5 1.7 0  5 1.8 0  5 1.9 0  5 2 0  5 2.1 0  5 2.2 0  5 2.3 0  5 2.4 0  5 2.5 0  5 2.6 0  5 2.7 0  5 2.8 0  5 2.9 0  5 3 0  5 3.1 0  5 3.199999999999999 0  5 3.300000000000001 0  5 3.4 0  5 3.5 0  5 3.6 0  5 3.699999999999999 0  5 3.800000000000001 0  5 3.9 0  5 4 0  5 4.1 0  5 4.199999999999999 0  5 4.300000000000001 0  5 4.4 0  5 4.5 0  5 4.6 0  5 4.699999999999999 0  5 4.800000000000001 0  5 4.9 0  4.9 5 0  4.8 5 0  4.7 5 0  4.6 5 0  4.5 5 0  4.4 5 0  4.3 5 0  4.2 5 0  4.1 5 0  4 5 0  3.9 5 0  3.8 5 0  3.7 5 0  3.6 5 0  3.5 5 0  3.4 5 0  3.3 5 0  3.2 5 0  3.1 5 0  3 5 0  2.9 5 0  2.8 5 0  2.7 5 0  2.6 5 0  2.5 5 0  2.4 5 0  2.3 5 0  2.2 5 0  2.1 5 0  2 5 0  1.9 5 0  1.8 5 0  1.7 5 0  1.6 5 0  1.5 5 0  1.4 5 0  1.3 5 0  1.2 5 0  1.1 5 0  1 5 0  0.9000000000000004 5 0  0.7999999999999998 5 0  0.7000000000000002 5 0  0.5999999999999996 5 0  0.5 5 0  0.4000000000000004 5 0  0.2999999999999998 5 0  0.2000000000000002 5 0  0.09999999999999964 5 0  0 5 0  -0.09999999999999964 5 0  -0.2000000000000002 5 0  -0.2999999999999998 5 0  -0.4000000000000004 5 0  -0.5 5 0  -0.5999999999999996 5 0  -0.7000000000000002 5 0  -0.7999999999999998 5 0  -0.9000000000000004 5 0  -1 5 0  -1.1 5 0  -1.2 5 0  -1.3 5 0  -1.4 5 0  -1.5 5 0  -1.6 5 0  -1.7 5 0  -1.8 5 0  -1.9 5 0  -2 5 0  -2.1 5 0  -2.2 5 0  -2.3 5 0  -2.4 5 0  -2.5 5 0  -2.6 5 0  -2.7 5 0  -2.8 5 0  -2.9 5 0  -3 5 0  -3.1 5 0  -3.199999999999999 5 0  -3.300000000000001 5 0  -3.4 5 0  -3.5 5 0  -3.6 5 0  -3.699999999999999 5 0  -3.800000000000001 5 0  -3.9 5 0  -4 5 0  -4.1 5 0  -4.199999999999999 5 0  -4.300000000000001 5 0  -4.4 5 0  -4.5 5 0  -4.6 5 0  -4.699999999999999 5 0  -4.800000000000001 5 0  -4.9 5 0  -5 4.9 0  -5 4.8 0  -5 4.7 0  -5 4.6 0  -5 4.5 0  -5 4.4 0  -5 4.3 0  -5 4.2 0  -5 4.1 0  -5 4 0  -5 3.9 0  -5 3.8 0  -5 3.7 0  -5 3.6 0  -5 3.5 0  -5 3.4 0  -5 3.3 0  -5 3.2 0  -5 3.1 0  -5 3 0  -5 2.9 0  -5 2.8 0  -5 2.7 0  -5 2.6 0  -5 2.5 0  -5 2.4 0  -5 2.3 0  -5 2.2 0  -5 2.1 0  -5 2 0  -5 1.9 0  -5 1.8 0  -5 1.7 0  -5 1.6 0  -5 1.5 0  -5 1.4 0  -5 1.3 0  -5 1.2 0  -5 1.1 0  -5 1 0  -5 0.9000000000000004 0  -5 0.7999999999999998 0  -5 0.7000000000000002 0  -5 0.5999999999999996 0  -5 0.5 0  -5 0.4000000000000004 0  -5 0.2999999999999998 0  -5 0.2000000000000002 0  -5 0.09999999999999964 0  -5 0 0  -5 -0.09999999999999964 0  -5 -0.2000000000000002 0  -5 -0.2999999999999998 0  -5 -0.4000000000000004 0  -5 -0.5 0  -5 -0.5999999999999996 0  -5 -0.7000000000000002 0  -5 -0.7999999999999998 0  -5 -0.9000000000000004 0  -5 -1 0  -5 -1.1 0  -5 -1.2 0  -5 -1.3 0  -5 -1.4 0  -5 -1.5 0  -5 -1.6 0  -5 -1.7 0  -5 -1.8 0  -5 -1.9 0  -5 -2 0  -5 -2.1 0  -5 -2.2 0  -5 -2.3 0  -5 -2.4 0  -5 -2.5 0  -5 -2.6 0  -5 -2.7 0  -5 -2.8 0  -5 -2.9 0  -5 -3 0  -5 -3.1 0  -5 -3.199999999999999 0  -5 -3.300000000000001 0  -5 -3.4 0  -5 -3.5 0  -5 -3.6 0  -5 -3.699999999999999 0  -5 -3.800000000000001 0  -5 -3.9 0  -5 -4 0  -5 -4.1 0  -5 -4.199999999999999 0  -5 -4.300000000000001 0  -5 -4.4 0  -5 -4.5 0  -5 -4.6 0  -5 -4.699999999999999 0  -5 -4.800000000000001 0  -5 -4.9 0  1.257486607394642 0.09230466670189834 0  1.235311882079014 0.1900114255487476 0  1.201307633361044 0.2869617763615991 0  1.158645435142917 0.3755785258860867 0  1.09979426291772 0.4668104861384199 0  1.032836466598327 0.549999740222459 0  0.9543993586489057 0.6306257305208924 0  0.8671814553056305 0.7054442942636141 0  0.7753616140611773 0.770488749296017 0  0.6738226193443376 0.8279770083329484 0  0.5599891708105438 0.8802291187608914 0  0.4459845247953952 0.9253235840071584 0  0.3361140297006582 0.9566990752069717 0  0.2088127594923182 0.9796978522306072 0  0.08696460366770578 0.997780397664466 0  -0.0260725366793455 1.001425452651436 0  -0.1437351802543236 0.9879703922970299 0  -0.2746824694865001 0.9677337104027099 0  -0.3952350673590261 0.9434069643454789 0  -0.5041829633831701 0.9086469291135069 0  -0.6134698793487819 0.8623022013408106 0  -0.7153417418033494 0.8070022004808909 0  -0.8096009035491615 0.7428676173763079 0  -0.9013147131376532 0.6691360942521845 0  -0.9881282446593826 0.5886607628283027 0  -1.063123442291741 0.5067173864803981 0  -1.125536554006066 0.4226975737657677 0  -1.181563456682495 0.3279270205878629 0  -1.218657767155334 0.2418545233324758 0  -1.242853460263082 0.1484686347035837 0  -1.252901949905217 0.05293143764750852 0  -1.2528284378186 -0.05062979818186297 0  -1.242666021819409 -0.1454282929325603 0  -1.21830129717642 -0.2354325770769811 0  -1.17577821169574 -0.3311250569864043 0  -1.125832149494102 -0.4238761727437435 0  -1.065487765487778 -0.5064286537857632 0  -0.9907404664456591 -0.587673907309042 0  -0.9045230698186137 -0.6670981694382967 0  -0.813885754494249 -0.7381079908746887 0  -0.7188960931604399 -0.7985030615902633 0  -0.6144846958243951 -0.8520239440908076 0  -0.497838504822242 -0.9018377956567868 0  -0.3856895800070148 -0.9416863551932269 0  -0.2713797519257083 -0.9676014227429662 0  -0.1418965550593085 -0.988073716655445 0  -0.02742194732836507 -1.0006472312578 0  0.08499023119779033 -0.9932823615937997 0  0.2158159145279265 -0.975199784071465 0  0.3392484626942522 -0.9547198067826738 0  0.4502766393737209 -0.9239735275692084 0  0.5629039906550494 -0.8794192687138811 0  0.6752049253500795 -0.827736754913268 0  0.7749966269863152 -0.7717801587072154 0  0.8658451179466299 -0.7074412635379721 0  0.9513229909564139 -0.6317377928716993 0  1.030548570609485 -0.5483969643330888 0  1.101874709752685 -0.464651742433291 0  1.159610694210149 -0.3757051932599541 0  1.203179772917996 -0.2850497127538327 0  1.236057820362877 -0.1894745479696244 0  1.257899357301772 -0.09256608902002614 0  -2.448509953846617 4.918023228860529 0  -2.448379115098479 -4.910393021379971 0  4.91031324905433 2.447822354206538 0  4.918449591125085 -2.449290795235878 0  2.446099852847754 -4.895607175884862 0  2.44053530419931 4.899373483304918 0  -4.910340551606033 -2.447849611916888 0  -4.910337875908267 2.447853843968151 0  -1.748461985106688 4.910870031854142 0  -1.74425038791287 -4.914316555196951 0  4.920461822314272 1.744004104545487 0  4.908971210980345 -1.747756064691802 0  -4.909266293318858 -1.74749109840043 0  -4.910090299039997 1.747237095510369 0  1.745730674165002 4.904715348360102 0  1.747137103421677 -4.89284089326222 0  -1.148783822134804 4.908621851860172 0  -1.129645419695843 -4.91655390354236 0  -4.908937853873025 -1.147832885507021 0  -4.908755695131051 1.147633725953262 0  1.143781595740351 -4.912729850792839 0  1.148793124216551 4.908607760567048 0  4.909077039002322 1.146107436539595 0  4.919939451473187 -1.151900983648049 0  -0.5466383777048029 -4.909793975541584 0  -0.5464246913671414 4.918500716564651 0  -4.907633407642562 -0.5486556814805974 0  -4.907657400394024 0.5472141640501679 0  4.906949189020178 -0.5489735894677351 0  4.918644428415617 0.5457373922349592 0  0.5424178081408122 -4.896636871761102 0  0.551151458206818 4.915314814077079 0  -4.911804255860949 -3.048220222252869 0  4.918381552695358 3.046241067117361 0  4.911311465471189 -3.048194993531583 0  -4.912652755323117 3.045312630847992 0  3.055241913285622 -4.917303111228734 0  -3.048568112841206 -4.911232925368989 0  3.052136852356325 4.913312305376047 0  -3.048014448190837 4.912123684466475 0  -4.906727696003256 -0.04990235135971084 0  0.04511790179524087 -4.911742120270334 0  0.04956461332215886 4.918788144271433 0  4.913805731159727 -0.05128524685344007 0  3.545572895075123 -4.918971327021469 0  -3.548849352915924 4.911
[...]
<PointData  Vectors="f_6926"> 
<DataArray  type="Float64"  Name="f_6926"  NumberOfComponents="3" format="ascii">2.6559658580600303e-76 2.6559658580600303e-76 0.0000000000000000e+00  -2.8445085011138809e-76 2.8445085011138809e-76 0.0000000000000000e+00  -8.5659604779174651e-78 -8.5659604779174651e-78 0.0000000000000000e+00  3.0308186857311735e-76 -3.0308186857311735e-76 0.0000000000000000e+00  7.8323544734707307e-01 8.0331509682791073e-03 0.0000000000000000e+00  4.1660719583040672e-75 6.6061037859018363e-75 0.0000000000000000e+00  2.0822437203573544e-75 2.0880096113677141e-74 0.0000000000000000e+00  -3.4062866331938207e-75 6.7719533261626833e-75 0.0000000000000000e+00  4.0008377430252457e-72 6.6674985986431471e-72 0.0000000000000000e+00  5.3179309405750326e-71 1.3457331374432877e-70 0.0000000000000000e+00  -7.9222960937141390e-72 4.5554419040252291e-71 0.0000000000000000e+00  3.2354068812935723e-69 6.1614616671873814e-69 0.0000000000000000e+00  5.1634439200788914e-68 9.3972194871645468e-68 0.0000000000000000e+00  -3.0664052608384573e-68 1.5001859778398029e-67 0.0000000000000000e+00  1.2773796375145648e-67 3.9812362035071928e-67 0.0000000000000000e+00  1.2621818870075542e-68 8.7791352837047049e-67 0.0000000000000000e+00  5.4550408066029255e-64 8.8206184761343495e-64 0.0000000000000000e+00  4.7425345517895986e-65 2.4418723454916997e-63 0.0000000000000000e+00  1.3501548867104518e-62 2.1983258481683103e-62 0.0000000000000000e+00  8.0708061935504958e-63 8.3177753020441389e-62 0.0000000000000000e+00  6.9371368348918617e-61 1.1019123526437118e-60 0.0000000000000000e+00  4.0659538974392902e-60 7.0043577333840649e-60 0.0000000000000000e+00  -2.8497144319305155e-60 7.7007193615322944e-60 0.0000000000000000e+00  5.6676681727291648e-59 1.1364613136169857e-58 0.0000000000000000e+00  -1.7606778974761004e-59 1.1647508298869497e-58 0.0000000000000000e+00  -3.0066012254839733e-59 6.8403597471074155e-59 0.0000000000000000e+00  1.8042411835621385e-58 3.3030936833273773e-58 0.0000000000000000e+00  7.3067007851878252e-58 2.0889674742143904e-57 0.0000000000000000e+00  2.8639386492505347e-57 6.2310386213420615e-57 0.0000000000000000e+00  -3.4114730667116839e-57 5.7403118808073199e-57 0.0000000000000000e+00  -3.5269314518675960e-58 1.0980282776154037e-57 0.0000000000000000e+00  1.9110647385340589e-56 2.9306990347732079e-56 0.0000000000000000e+00  -1.4155113022775405e-56 3.5318274647032536e-56 0.0000000000000000e+00  1.1929852169998789e-56 2.8926273748867492e-56 0.0000000000000000e+00  8.7499870694564790e-56 2.0969648676996863e-55 0.0000000000000000e+00  -2.5163586905387774e-56 5.7435397809930713e-55 0.0000000000000000e+00  5.2183263199841458e-57 8.6089828863773965e-57 0.0000000000000000e+00  5.5532401326166150e-56 1.3813152085449213e-55 0.0000000000000000e+00  1.5513423735404503e-55 6.1684450770283663e-55 0.0000000000000000e+00  -2.2401013316242837e-55 3.5177590483082493e-55 0.0000000000000000e+00  9.8530916189446036e-55 1.7222844924848512e-54 0.0000000000000000e+00  -4.4293794727519073e-55 4.3616592288786984e-54 0.0000000000000000e+00  -2.2873406174246600e-55 2.6821000671938970e-54 0.0000000000000000e+00  -9.6372710318375699e-56 9.4400829854468723e-55 0.0000000000000000e+00  -1.1332812969711246e-55 1.8227142743873900e-55 0.0000000000000000e+00  2.7652821544181537e-54 5.2319148207628860e-54 0.0000000000000000e+00  -2.1642076678545685e-54 4.1400048692669387e-54 0.0000000000000000e+00  -7.2067642985188945e-55 8.0837598132300373e-55 0.0000000000000000e+00  -1.3232282750612121e-55 2.7135757116960823e-55 0.0000000000000000e+00  9.3225670376563932e-55 1.4448215299534256e-54 0.0000000000000000e+00  9.4745471473864053e-55 6.1540334935737883e-54 0.0000000000000000e+00  -1.1309734787828068e-54 5.8988735365677405e-54 0.0000000000000000e+00  5.1578854157733317e-55 4.6478434429124062e-54 0.0000000000000000e+00  1.9113167096656702e-56 5.7927785598267327e-54 0.0000000000000000e+00  3.0240458289479419e-55 6.1509319022546367e-54 0.0000000000000000e+00  -1.2643718420036801e-54 2.0440640669737608e-54 0.0000000000000000e+00  -6.4685330559057200e-55 1.4722476952174613e-53 0.0000000000000000e+00  4.4734343736181974e-54 7.4699532163453794e-54 0.0000000000000000e+00  -4.3566656810861264e-54 8.0946973012055290e-54 0.0000000000000000e+00  1.9260528898431093e-54 3.9574815964352020e-54 0.0000000000000000e+00  -7.3762699775188736e-55 9.4981489521841589e-54 0.0000000000000000e+00  1.3341513501349556e-54 9.3291479411654914e-54 0.0000000000000000e+00  -1.6885098377573491e-54 4.3955361987797916e-54 0.0000000000000000e+00  -9.2697950763782482e-55 2.4041445785222429e-54 0.0000000000000000e+00  3.3387995992957361e-55 1.2997993729348809e-54 0.0000000000000000e+00  2.6631885135243617e-55 2.5377388005504515e-54 0.0000000000000000e+00  -7.8389198467832005e-56 3.4896987232879141e-54 0.0000000000000000e+00  -7.1271635139024860e-55 1.4808953095802880e-54 0.0000000000000000e+00  2.3826971816982222e-55 4.4281161732364398e-55 0.0000000000000000e+00  -2.3141160808867332e-55 6.0211788730400530e-55 0.0000000000000000e+00  5.0438129177052634e-56 2.3984921543622224e-55 0.0000000000000000e+00  1.8701978914561248e-55 9.5259355684677028e-55 0.0000000000000000e+00  -3.3095664684056503e-55 5.2982095765280965e-55 0.0000000000000000e+00  -1.5935116995897140e-56 4.8201931285247985e-56 0.0000000000000000e+00  -1.1365385224810203e-57 1.1331507496046334e-56 0.0000000000000000e+00  6.7652743839060789e-57 2.3559277552112811e-56 0.0000000000000000e+00  -9.0063174349228800e-57 1.5008699872811610e-56 0.0000000000000000e+00  1.7444197556174879e-57 2.8893246088868555e-57 0.0000000000000000e+00  -1.2459537204541208e-57 2.7226609812704623e-57 0.0000000000000000e+00  5.1831041571514313e-57 7.8158909295465298e-57 0.0000000000000000e+00  -4.5381820213838017e-57 1.1244672756154946e-56 0.0000000000000000e+00  -1.8157456819877497e-58 9.3925586359972804e-58 0.0000000000000000e+00  -2.3945059656700444e-58 4.6492608482780860e-58 0.0000000000000000e+00  -7.8849276356478973e-61 8.8102332492322267e-59 0.0000000000000000e+00  -2.4478581818250942e-59 6.4196632779330685e-59 0.0000000000000000e+00  -7.1207203529886512e-60 2.4988587356041743e-59 0.0000000000000000e+00  -4.3871235006482954e-60 2.2381649096892460e-59 0.0000000000000000e+00  -3.0643776162831589e-60 7.1646766350116124e-60 0.0000000000000000e+00  -8.5275560215000806e-62 4.4342702995098831e-61 0.0000000000000000e+00  -1.0763000984137254e-61 2.2329837175906416e-61 0.0000000000000000e+00  -3.5884345700023428e-62 5.6711605430612557e-62 0.0000000000000000e+00  -3.9110986368754835e-64 6.6945477294466477e-64 0.0000000000000000e+00  -2.4318084420574321e-65 5.1689972680475554e-65 0.0000000000000000e+00  3.7092083619650166e-66 1.0389464655649641e-65 0.0000000000000000e+00  -4.8432149184876154e-66 9.2588330049838994e-66 0.0000000000000000e+00  -6.7009181077532160e-68 2.7707196796726392e-67 0.0000000000000000e+00  -7.8546417040368350e-68 1.2914036375485267e-67 0.0000000000000000e+00  -8.0620375267178982e-69 1.1728891731460019e-68 0.0000000000000000e+00  -5.6340388887156374e-70 9.5184134608973858e-70 0.0000000000000000e+00  -3.7798472894654829e-71 6.8176167299726469e-71 0.0000000000000000e+00  -1.8785976952627893e-72 3.2023130114165461e-72 0.0000000000000000e+00  -1.2178107400758044e-73 2.7265904138529681e-73 0.0000000000000000e+00  -4.4213506469050519e-75 1.2911119046515023e-74 0.0000000000000000e+00  -2.5481792053260558e-75 4.2410899859189804e-75 0.0000000000000000e+00  -9.7687025011889431e-76 3.5584955744953239e-76 0.0000000000000000e+00  -1.6211690440287111e-75 -2.3928324716572223e-76 0.0000000000000000e+00  -2.4487489100842851e-74 1.1592379082534828e-74 0.0000000000000000e+00  -3.6791034419804603e-74 1.5506765442062572e-75 0.0000000000000000e+00  -3.8827242742340050e-73 1.4337835851181434e-73 0.0000000000000000e+00  -1.0235405691821418e-71 6.2404027510468671e-72 0.0000000000000000e+00  -6.7392038975513605e-71 3.7098909118464778e-71 0.0000000000000000e+00  -1.0610194548702665e-70 3.9051184835098487e-72 0.0000000000000000e+00  -8.8987774474234167e-70 3.3107244548731510e-70 0.0000000000000000e+00  -2.1278032437364850e-68 1.2873451850144542e-68 0.0000000000000000e+00  -1.0233728892352676e-67 5.1142916901081054e-68 0.0000000000000000e+00  -1.0140482884283865e-67 -6.0316899937563768e-68 0.0000000000000000e+00  -3.1643248296087036e-66 1.7477366271879014e-66 0.0000000000000000e+00  -3.1835576482768426e-65 1.8337064216811650e-65 0.0000000000000000e+00  -5.3854171170151839e-65 5.0519047287718576e-66 0.0000000000000000e+00  -4.4352140130572353e-64 1.4481800631948007e-64 0.0000000000000000e+00  -6.9884481368494080e-63 4.3648373301165093e-63 0.0000000000000000e+00  -1.5060270514217793e-62 3.7539395595753451e-63 0.0000000000000000e+00  -8.4312232085328056e-62 1.9691958254626181e-62 0.0000000000000000e+00  -1.3538968846252789e-60 8.5317483270234286e-61 0.0000000000000000e+00  -2.4164768876275379e-60 3.3878115271909052e-61 0.0000000000000000e+00  -2.1160390655443144e-59 7.4102572802581146e-60 0.0000000000000000e+00  -2.4150790399588468e-58 1.4973015437005870e-58 0.0000000000000000e+00  -2.5888694805303758e-58 -9.4365527337273956e-59 0.0000000000000000e+00  -5.9743465918333372e-57 2.7870815252503136e-57 0.0000000000000000e+00  -2.4818341614998189e-56 1.2416792625477196e-56 0.0000000000000000e+00  -5.5646052897113517e-56 -8.7059300017517535e-57 0.0000000000000000e+00  -1.0104169584897113e-54 6.4936363011688196e-55 0.0000000000000000e+00  -1.1210590720173602e-54 -3.4716571141371092e-55 0.0000000000000000e+00  -2.4063143329803277e-53 1.2721008306219244e-53 0.0000000000000000e+00  -6.5894169946627725e-53 2.9957989612828581e-53 0.0000000000000000e+00  -4.3550027160407625e-52 1.2270133555429115e-52 0.0000000000000000e+00  -2.6638766374064190e-51 1.6668177880765829e-51 0.0000000000000000e+00  -7.6659952562374572e-51 -2.1506683566406279e-52 0.0000000000000000e+00  -7.1919076675032275e-50 4.6075804068816137e-50 0.0000000000000000e+00  -1.6173207887353964e-49 -1.4818401692106276e-50 0.0000000000000000e+00  -1.7286098896413479e-48 1.0124301318588102e-48 0.0000000000000000e+00  -4.3412360079256510e-48 -2.0461992597253278e-49 0.0000000000000000e+00  -2.0129095115233641e-47 1.1123775896417527e-47 0.0000000000000000e+00  -1.1025964893845388e-46 1.8999308611840627e-47 0.0000000000000000e+00  -1.0246106681739466e-46 2.4659206263285219e-47 0.0000000000000000e+00  -1.2404175386759128e-45 5.2651906828847966e-46 0.0000000000000000e+00  -8.7395739807266336e-46 -5.6922248706676493e-46 0.0000000000000000e+00  -1.3427771133809043e-44 8.0893874493286757e-45 0.0000000000000000e+00  -5.7954299930391551e-44 1.3769139837004665e-44 0.0000000000000000e+00  -3.6155868039866850e-44 -1.7554863128602472e-44 0.0000000000000000e+00  -1.1424662393268416e-43 6.5157753698940905e-44 0.0000000000000000e+00  -8.4128257165671319e-43 2.3214278471879544e-43 0.0000000000000000e+00  -1.9290910942353324e-42 1.9800245566889936e-43 0.0000000000000000e+00  -2.5116780399558406e-42 6.1188018463068095e-44 0.0000000000000000e+00  -2.0144651248591224e-42 -1.9524393411039329e-43 0.0000000000000000e+00  -8.6134886015903978e-43 -2.5114844651950037e-43 0.0000000000000000e+00  -1.1324292430563636e-43 -6.4618556405713956e-44 0.0000000000000000e+00  -3.8715776302710343e-44 1.8546154451286500e-44 0.0000000000000000e+00  -6.3163470954469119e-44 -1.0846211646296669e-44 0.0000000000000000e+00  -1.4987457075573193e-44 -7.8848596608195468e-45 0.0000000000000000e+00  -9.9898723432010427e-46 5.6848096472085763e-46 0.0000000000000000e+00  -1.4037818742329444e-45 -5.3976040397369331e-46 0.0000000000000000e+00  -1.1207418176695482e-46 -2.8613144918256785e-47 0.0000000000000000e+00  -1.0180498392282846e-46 -2.1461744352523753e-47 0.0000000000000000e+00  -1.8605276409722928e-47 -1.1995279721041716e-47 0.0000000000000000e+00  -4.0856542072200005e-48 2.0375691292433309e-49 0.0000000000000000e+00  -1.4864060421321476e-48 -9.3745856505928011e-49 0.0000000000000000e+00  -1.6332756088228653e-49 2.4595896839529618e-50 0.0000000000000000e+00  -7.4558839132997793e-50 -4.4265533510526814e-50 0.0000000000000000e+00  -8.2464771690522232e-51 6.4178813920092126e-52 0.0000000000000000e+00  -3.1446779950939106e-51 -1.7855658375426159e-51 0.0000000000000000e+00  -5.1023600884200021e-52 -1.1476380799350756e-52 0.0000000000000000e+00  -8.2043780871759048e-53 -3.5503612375602247e-53 0.0000000000000000e+00  -2.6612755130290358e-53 -1.3167719871971876e-53 0.0000000000000000e+00  -1.1973446526279870e-54 3.2420664098328078e-55 0.0000000000000000e+00  -1.0633820115592319e-54 -6.8099972733587626e-55 0.0000000000000000e+00  -5.1528053035781824e-56 8.3576547219079085e-57 0.0000000000000000e+00  -2.3359617726912115e-56 -1.3246692229078026e-56 0.0000000000000000e+00  -4.8227082876532699e-57 -2.5227042024431485e-57 0.0000000000000000e+00  -2.4590874174937375e-58 8.5508515617668674e-59 0.0000000000000000e+00  -2.1577006773617102e-58 -1.3291805953342763e-58 0.0000000000000000e+00  -1.9908074643098741e-59 -6.1485749722738439e-60 0.0000000000000000e+00  -2.3747753659429042e-60 -3.3973250815817421e-61 0.0000000000000000e+00  -1.2905467660232950e-60 -7.6112999637879459e-61 0.0000000000000000e+00  -7.6899863924031769e-62 -2.1444044461252737e-62 0.0000000000000000e+00  -1.3592688805308317e-62 -2.9313529785122148e-63 0.0000000000000000e+00  -6.6378376179076610e-63 -3.7894974486339127e-63 0.0000000000000000e+00  -4.7824744225733760e-64 -1.8200851284601497e-64 0.0000000000000000e+00  -4.3638913371677677e-65 9.5832236149071016e-67 0.0000000000000000e+00  -2.9476393389657260e-65 -1.6624992609386159e-65 0.0000000000000000e+00  -3.4126637370548001e-66 -1.9891627245277026e-66 0.0000000000000000e+00  -8.9970014502785773e-68 5.4819986561702971e-68 0.0000000000000000e+00  -8.6355353549103864e-68 -4.1783814879693284e-68 0.0000000000000000e+00  -2.0679006363792894e-68 -1.2852109729717110e-68 0.0000000000000000e+00  -1.1325445565111560e-69 -5.1343668748365968e-70 0.0000000000000000e+00  -8.7946747646931931e-71 1.3791454964547303e-71 0.0000000000000000e+00  -6.9076032000247736e-71 -3.6576629875317472e-71 0.0000000000000000e+00  -1.2478048484953610e-71 -7.6631191663695895e-72 0.0000000000000000e+00  -5.9816669822608294e-73 -2.7513139691812973e-73 0.0000000000000000e+00  -3.9238249936049502e-74 7.4241359936617937e-75 0.0000000000000000e+00  -3.1564440824752541e-74 -1.4791061609365526e-74 0.0000000000000000e+00  -6.5904894574978095e-75 -3.3572112345442364e-75 0.0000000000000000e+00  -7.1798595798097379e-76 -3.1071903343035591e-76 0.0000000000000000e+00  -8.5521002971147103e-76 -1.6228308935559465e-75 0.0000000000000000e+00  -4.7736629463406768e-75 -1.3945817385692080e-74 0.0000000000000000e+00  4.3674510018805296e-75 -8.3091869045137044e-75 0.0000000000000000e+00  -1.6295841806737001e-73 -3.4270741247341470e-73 0.0000000000000000e+00  -9.2868353825298050e-71 -1.0068337761116996e-70 0.0000000000000000e+00  -7.5079718224327018e-70 -1.3175938283142734e-69 0.0000000000000000e+00  -1.0987052362746082e-69 -3.6510261719368631e-69 0.0000000000000000e+00  -7.7631506159336180e-68 -1.7112410639692720e-67 0.0000000000000000e+00  -6.5331345849506150e-68 -3.2597807226012035e-67 0.0000000000000000e+00  -6.7921227129982267e-66 -1.3498779002390080e-65 0.0000000000000000e+00  -4.5216782367453148e-66 -2.1314847617593336e-65 0.0000000000000000e+00  -9.0736046700725099e-65 -1.5572391463251416e-64 0.0000000000000000e+00  1.7228553860584113e-65 -2.1036326318554464e-64 0.0000000000000000e+00  -4.2779932992323949e-62 -6.4006761443838438e-62 0.0000000000000000e+00  -7.0029301709694127e-62 -1.7203821512213679e-61 0.0000000000000000e+00  -2.3275870285475988e-62 -2.7285184359252901e-61 0.0000000000000000e+00  -5.7443633994145495e-60 -1.1359610713807875e-59 0.0000000000000000e+00  4.7721676283434542e-60 -1.5023221584775586e-59 0.0000000000000000e+00  -2.9034955802464696e-59 -4.7471931060833086e-59 0.0000000000000000e+00  8.8301249563585090e-60 -6.0866832259477366e-59 0.0000000000000000e+00  2.3280668075162793e-59 -3.9734876602571281e-59 0.0000000000000000e+00  -5.6443749071788562e-58 -8.9436659260776125e-58 0.0000000000000000e+00  -1.3819926502293345e-59 -1.2602287241149018e-57 0.0000000000000000e+00  -4.6397369144660760e-57 -1.1634365714371838e-56 0.0000000000000000e+00  5.7579731471163460e-57 -8.6785722768829217e-57 0.0000000000000000e+00  -5.3419898843518619e-57 -7.3340663929142900e-57 0.0000000000000000e+00  -1.7700171604949978e-56 -3.7720573640877577e-56 0.0000000000000000e+00  2.1656731344509258e-56 -4.0728506554809292e-56 0.0000000000000000e+00  -5.0116501815393616e-57 -9.1968384941262030e-57 0.0000000000000000e+00  -8.1335326142446041e-56 -2.0303978227200558e-55 0.0000000000000000e+00  6.3887197976479290e-56 -5.0774133811827661e-55 0.0000000000000000e+00  -4.2988789764693472e-55 -7.2547190357566224e-55 0.0000000000000000e+00  -4.8861883404490821e-56 -1.8356943358713752e-54 0.0000000000000000e+00  1.6642215208004236e-55 -5.7409224068850646e-55 0.0000000000000000e+00  -5.1944733284703879e-55 -1.6755958304534669e-54 0.0000000000000000e+00  -2.2592384130264633e-54 -7.0702517976298822e-54 0.0000000000000000e+00  2.5892365877122427e-54 -6.0781612689093320e-54 0.0000000000000000e+00  -6.7379895127981163e-55 -2.3893068172362002e-54 0.0000000000000000e+00  5.3406680102044519e-55 -2.8193185640461810e-54 0.0000000000000000e+00  1.2863225163843942e-55 -1.4248295026835180e-54 0.0000000000000000e+00  -2.1866495016910872e-54 -3.4657128105108836e-54 0.0000000000000000e+00  5.7312109653411583e-55 -8.2270643764382454e-54 0.0000000000000000e+00  -3.9422964261620830e-54 -1.3556186739837200e-53 0.0000000000000000e+00  4.7069339170792465e-54 -7.7159229133425598e-54 0.0000000000000000e+00  2.0381517520245207e-55 -6.5064195118110402e-55 0.0000000000000000e+00  -4.8165020669470799e-54 -8.0078559954768814e-54 0.0000000000000000e+00  4.8426037996656745e-54 -7.8702740353776668e-54 0.0000000000000000e+00  -1.6673288716010131e-56 -1.3349718404262719e-55 0.0000000000000000e+00  1.1190637176858191e-56 -2.7679880198249608e-55 0.0000000000000000e+00  2.2141631021277729e-56 -9.8796632406770171e-56 0.0000000000000000e+00  -5.2217328221748808e-54 -9.3538508034255770e-54 0.0000000000000000e+00  5.5693543646070725e-54 -9.4071765770543818e-54 0.0000000000000000e+00  5.6939080445550654e-56 -1.0517812114157205e-55 0.0000000000000000e+00  -1.4377818425516607e-56 -6.2049130778246034e-56 0.0000000000000000e+00  -5.0159254060330032e-55 -9.0476200462926516e-55 0.0000000000000000e+00  -5.8339429081906384e-54 -1.0047471053628749e-53 0.0000000000000000e+00  4.5184053608907105e-54 -1.0490269123114406e-53 0.0000000000000000e+00  -3.0623700634270898e-54 -7.9864950982985068e-54 0.0000000000000000e+00  2.4466790611100665e-54 -8.5488575614599927e-54 0.0000000000000000e+00  2.2534761823999354e-54 -3.3051840449756142e-54 0.0000000000000000e+00  -5.4538664413868081e-55 -1.4801088974263152e-54 0.0000000000000000e+00  8.3817852698197544e-55 -1.5733943181737174e-54 0.0000000000000000e+00  -4.9383117661016145e-55 -9.8350277880472200e-55 0.0000000000000000e+00  5.1395570621905999e-55 -8.8519746176467073e-55 0.0000000000000000e+00  -1.5710221959074129e-56 -2.6929954599833192e-56 0.0000000000000000e+00  -4.4894698847082583e-56 -1.7220910934557120e-55 0.0000000000000000e+00  4.1827566876883083e-56 -1.7465014258851062e-55 0.0000000000000000e+00  4.8120148176998295e-57 -6.9026682796863668e-56 0.0000000000000000e+00  -2.7552215763640923e-56 -6.5445997631063496e-56 0.0000000000000000e+00  3.2953760515202276e-56 -6.4113603696048060e-56 0.0000000000000000e+00  -2.8648797738026309e-57 -2.8735574036053253e-56 0.0000000000000000e+00  1.2985647448985547e-56 -3.0010925360926409e-56 0.0000000000000000e+00  1.0042921482444473e-57 -2.3983360926381149e-57 0.0000000000000000e+00  -4.3907665301108088e-57 -7.6423464219128936e-57 0.0000000000000000e+00  4.2568296708492674e-57 -1.1003814273258532e-56 0.0000000000000000e+00  3.1296170779386074e-58 -1.0210701609399574e-57 0.0000000000000000e+00  1.4401437363930450e-58 -5.025113