<?xml version="1.0"?>
<VTKFile type="UnstructuredGrid"  version="0.1"  >
<UnstructuredGrid>
<Piece  NumberOfPoints="11902" NumberOfCells="23402">
<Points>
<DataArray  type="Float64"  NumberOfComponents="3"  format="ascii">-5 -5 0  5 -5 0  5 5 0  -5 5 0  1.265499902688625 0.0012773273372568 0  -4.9 -5 0  -4.8 -5 0  -4.7 -5 0  -4.6 -5 0  -4.5 -5 0  -4.4 -5 0  -4.3 -5 0  -4.2 -5 0  -4.1 -5 0  -4 -5 0  -3.9 -5 0  -3.8 -5 0  -3.7 -5 0  -3.6 -5 0  -3.5 -5 0  -3.4 -5 0  -3.3 -5 0  -3.2 -5 0  -3.1 -5 0  -3 -5 0  -2.9 -5 0  -2.8 -5 0  -2.7 -5 0  -2.6 -5 0  -2.5 -5 0  -2.4 -5 0  -2.3 -5 0  -2.2 -5 0  -2.1 -5 0  -2 -5 0  -1.9 -5 0  -1.8 -5 0  -1.7 -5 0  -1.6 -5 0  -1.5 -5 0  -1.4 -5 0  -1.3 -5 0  -1.2 -5 0  -1.1 -5 0  -1 -5 0  -0.9000000000000004 -5 0  -0.7999999999999998 -5 0  -0.7000000000000002 -5 0  -0.5999999999999996 -5 0  -0.5 -5 0  -0.4000000000000004 -5 0  -0.2999999999999998 -5 0  -0.2000000000000002 -5 0  -0.09999999999999964 -5 0  0 -5 0  0.09999999999999964 -5 0  0.2000000000000002 -5 0  0.2999999999999998 -5 0  0.4000000000000004 -5 0  0.5 -5 0  0.5999999999999996 -5 0  0.7000000000000002 -5 0  0.7999999999999998 -5 0  0.9000000000000004 -5 0  1 -5 0  1.1 -5 0  1.2 -5 0  1.3 -5 0  1.4 -5 0  1.5 -5 0  1.6 -5 0  1.7 -5 0  1.8 -5 0  1.9 -5 0  2 -5 0  2.1 -5 0  2.2 -5 0  2.3 -5 0  2.4 -5 0  2.5 -5 0  2.6 -5 0  2.7 -5 0  2.8 -5 0  2.9 -5 0  3 -5 0  3.1 -5 0  3.199999999999999 -5 0  3.300000000000001 -5 0  3.4 -5 0  3.5 -5 0  3.6 -5 0  3.699999999999999 -5 0  3.800000000000001 -5 0  3.9 -5 0  4 -5 0  4.1 -5 0  4.199999999999999 -5 0  4.300000000000001 -5 0  4.4 -5 0  4.5 -5 0  4.6 -5 0  4.699999999999999 -5 0  4.800000000000001 -5 0  4.9 -5 0  5 -4.9 0  5 -4.8 0  5 -4.7 0  5 -4.6 0  5 -4.5 0  5 -4.4 0  5 -4.3 0  5 -4.2 0  5 -4.1 0  5 -4 0  5 -3.9 0  5 -3.8 0  5 -3.7 0  5 -3.6 0  5 -3.5 0  5 -3.4 0  5 -3.3 0  5 -3.2 0  5 -3.1 0  5 -3 0  5 -2.9 0  5 -2.8 0  5 -2.7 0  5 -2.6 0  5 -2.5 0  5 -2.4 0  5 -2.3 0  5 -2.2 0  5 -2.1 0  5 -2 0  5 -1.9 0  5 -1.8 0  5 -1.7 0  5 -1.6 0  5 -1.5 0  5 -1.4 0  5 -1.3 0  5 -1.2 0  5 -1.1 0  5 -1 0  5 -0.9000000000000004 0  5 -0.7999999999999998 0  5 -0.7000000000000002 0  5 -0.5999999999999996 0  5 -0.5 0  5 -0.4000000000000004 0  5 -0.2999999999999998 0  5 -0.2000000000000002 0  5 -0.09999999999999964 0  5 0 0  5 0.09999999999999964 0  5 0.2000000000000002 0  5 0.2999999999999998 0  5 0.4000000000000004 0  5 0.5 0  5 0.5999999999999996 0  5 0.7000000000000002 0  5 0.7999999999999998 0  5 0.9000000000000004 0  5 1 0  5 1.1 0  5 1.2 0  5 1.3 0  5 1.4 0  5 1.5 0  5 1.6 0  5 1.7 0  5 1.8 0  5 1.9 0  5 2 0  5 2.1 0  5 2.2 0  5 2.3 0  5 2.4 0  5 2.5 0  5 2.6 0  5 2.7 0  5 2.8 0  5 2.9 0  5 3 0  5 3.1 0  5 3.199999999999999 0  5 3.300000000000001 0  5 3.4 0  5 3.5 0  5 3.6 0  5 3.699999999999999 0  5 3.800000000000001 0  5 3.9 0  5 4 0  5 4.1 0  5 4.199999999999999 0  5 4.300000000000001 0  5 4.4 0  5 4.5 0  5 4.6 0  5 4.699999999999999 0  5 4.800000000000001 0  5 4.9 0  4.9 5 0  4.8 5 0  4.7 5 0  4.6 5 0  4.5 5 0  4.4 5 0  4.3 5 0  4.2 5 0  4.1 5 0  4 5 0  3.9 5 0  3.8 5 0  3.7 5 0  3.6 5 0  3.5 5 0  3.4 5 0  3.3 5 0  3.2 5 0  3.1 5 0  3 5 0  2.9 5 0  2.8 5 0  2.7 5 0  2.6 5 0  2.5 5 0  2.4 5 0  2.3 5 0  2.2 5 0  2.1 5 0  2 5 0  1.9 5 0  1.8 5 0  1.7 5 0  1.6 5 0  1.5 5 0  1.4 5 0  1.3 5 0  1.2 5 0  1.1 5 0  1 5 0  0.9000000000000004 5 0  0.7999999999999998 5 0  0.7000000000000002 5 0  0.5999999999999996 5 0  0.5 5 0  0.4000000000000004 5 0  0.2999999999999998 5 0  0.2000000000000002 5 0  0.09999999999999964 5 0  0 5 0  -0.09999999999999964 5 0  -0.2000000000000002 5 0  -0.2999999999999998 5 0  -0.4000000000000004 5 0  -0.5 5 0  -0.5999999999999996 5 0  -0.7000000000000002 5 0  -0.7999999999999998 5 0  -0.9000000000000004 5 0  -1 5 0  -1.1 5 0  -1.2 5 0  -1.3 5 0  -1.4 5 0  -1.5 5 0  -1.6 5 0  -1.7 5 0  -1.8 5 0  -1.9 5 0  -2 5 0  -2.1 5 0  -2.2 5 0  -2.3 5 0  -2.4 5 0  -2.5 5 0  -2.6 5 0  -2.7 5 0  -2.8 5 0  -2.9 5 0  -3 5 0  -3.1 5 0  -3.199999999999999 5 0  -3.300000000000001 5 0  -3.4 5 0  -3.5 5 0  -3.6 5 0  -3.699999999999999 5 0  -3.800000000000001 5 0  -3.9 5 0  -4 5 0  -4.1 5 0  -4.199999999999999 5 0  -4.300000000000001 5 0  -4.4 5 0  -4.5 5 0  -4.6 5 0  -4.699999999999999 5 0  -4.800000000000001 5 0  -4.9 5 0  -5 4.9 0  -5 4.8 0  -5 4.7 0  -5 4.6 0  -5 4.5 0  -5 4.4 0  -5 4.3 0  -5 4.2 0  -5 4.1 0  -5 4 0  -5 3.9 0  -5 3.8 0  -5 3.7 0  -5 3.6 0  -5 3.5 0  -5 3.4 0  -5 3.3 0  -5 3.2 0  -5 3.1 0  -5 3 0  -5 2.9 0  -5 2.8 0  -5 2.7 0  -5 2.6 0  -5 2.5 0  -5 2.4 0  -5 2.3 0  -5 2.2 0  -5 2.1 0  -5 2 0  -5 1.9 0  -5 1.8 0  -5 1.7 0  -5 1.6 0  -5 1.5 0  -5 1.4 0  -5 1.3 0  -5 1.2 0  -5 1.1 0  -5 1 0  -5 0.9000000000000004 0  -5 0.7999999999999998 0  -5 0.7000000000000002 0  -5 0.5999999999999996 0  -5 0.5 0  -5 0.4000000000000004 0  -5 0.2999999999999998 0  -5 0.2000000000000002 0  -5 0.09999999999999964 0  -5 0 0  -5 -0.09999999999999964 0  -5 -0.2000000000000002 0  -5 -0.2999999999999998 0  -5 -0.4000000000000004 0  -5 -0.5 0  -5 -0.5999999999999996 0  -5 -0.7000000000000002 0  -5 -0.7999999999999998 0  -5 -0.9000000000000004 0  -5 -1 0  -5 -1.1 0  -5 -1.2 0  -5 -1.3 0  -5 -1.4 0  -5 -1.5 0  -5 -1.6 0  -5 -1.7 0  -5 -1.8 0  -5 -1.9 0  -5 -2 0  -5 -2.1 0  -5 -2.2 0  -5 -2.3 0  -5 -2.4 0  -5 -2.5 0  -5 -2.6 0  -5 -2.7 0  -5 -2.8 0  -5 -2.9 0  -5 -3 0  -5 -3.1 0  -5 -3.199999999999999 0  -5 -3.300000000000001 0  -5 -3.4 0  -5 -3.5 0  -5 -3.6 0  -5 -3.699999999999999 0  -5 -3.800000000000001 0  -5 -3.9 0  -5 -4 0  -5 -4.1 0  -5 -4.199999999999999 0  -5 -4.300000000000001 0  -5 -4.4 0  -5 -4.5 0  -5 -4.6 0  -5 -4.699999999999999 0  -5 -4.800000000000001 0  -5 -4.9 0  1.257718910524792 0.09189091525598905 0  1.235569436941953 0.189483876238913 0  1.201460026651723 0.2865311414155474 0  1.158798607057069 0.3753412863653143 0  1.099890222686611 0.4665934289157885 0  1.032759812102702 0.5496858935875203 0  0.9544548934226408 0.6303581607662542 0  0.867336514845659 0.7050782807958432 0  0.7755182846483377 0.770023982092673 0  0.6741555072345237 0.8275311375808737 0  0.5601628571082929 0.8798032161700952 0  0.4459176581549822 0.9249214081306071 0  0.3364664932804728 0.9561993444959342 0  0.2088025005093661 0.9794743999834679 0  0.08666015160274725 0.9973341581994671 0  -0.02597638000452021 1.001009382143824 0  -0.1436243012941539 0.9876910398917517 0  -0.2750177535043166 0.9672851281926307 0  -0.3957765401003759 0.9428557464503331 0  -0.5044537589939636 0.908283982796282 0  -0.6135407777233342 0.8619799962314074 0  -0.7153970854320221 0.8065963272053468 0  -0.8095504427616745 0.7426403532708488 0  -0.901263776080897 0.6689717730897985 0  -0.9881057564515655 0.5884642376191438 0  -1.063040541273001 0.5064159814199791 0  -1.125575054609286 0.4225151839575114 0  -1.182006189475326 0.3272394790308805 0  -1.218963518068955 0.2415041663647645 0  -1.243065127690679 0.148313988612458 0  -1.253027698039718 0.05303758325823477 0  -1.252945005813067 -0.05074630819534692 0  -1.242838362873646 -0.1452795152332915 0  -1.218606922113531 -0.2349019699187365 0  -1.175976050811517 -0.3308216122517258 0  -1.125867743327772 -0.4237357855524662 0  -1.065529769109177 -0.5060366814428761 0  -0.9907457177638673 -0.5874674796806243 0  -0.9044996578833463 -0.6669108498272287 0  -0.8139485341301116 -0.7377194700377043 0  -0.719079469776828 -0.79800268346791 0  -0.6147969727067992 -0.8516009242467664 0  -0.4978336304821435 -0.9014441454442628 0  -0.3857964639626708 -0.9412397417982742 0  -0.2717291250096173 -0.9671476660744791 0  -0.1417379382904314 -0.9878134709081433 0  -0.02740689122178565 -1.000217842584948 0  0.084471198275301 -0.9928948839492712 0  0.2160256095088693 -0.9747920042220876 0  0.3397125572945931 -0.9541462138629054 0  0.4502578211353704 -0.9235531972146876 0  0.5631578724400763 -0.8789688800576002 0  0.6755811788615435 -0.8272592373371832 0  0.775074616336949 -0.7713598918941567 0  0.8657088859289503 -0.707260969464008 0  0.9509616832796804 -0.6316704850005433 0  1.030531553650415 -0.5479616897308758 0  1.102168410112915 -0.4641874535936826 0  1.159822525712066 -0.3753579029915234 0  1.203356271474399 -0.2846175274915435 0  1.236320085834092 -0.1889916122070053 0  1.258125704257101 -0.09222465179242244 0  -2.448504897069206 4.918014533099778 0  -2.448373561130729 -4.910383504553838 0  4.910303166708522 2.447815727293251 0  4.918440443297921 -2.449284813594313 0  2.446093406973162 -4.89559605645256 0  2.440529040876672 4.899362671446564 0  -4.910330437702076 -2.447843066096889 0  -4.91032776305044 2.447847328855198 0  -1.748456735365936 4.910857352463868 0  -1.744245299841956 -4.914304349751266 0  4.920449154598699 1.743998127815978 0  4.908956746924837 -1.747749269571336 0  -4.909251808223409 -1.74748436516497 0  -4.910075944155936 1.747230461057999 0  1.745724963119278 4.904701691172198 0  1.7471307570243 -4.892825624507052 0  -1.148779658324331 4.908606347034291 0  -1.129641597176887 -4.91653970092234 0  -4.908919779636502 -1.147827363382728 0  -4.90873758364385 1.147628231698374 0  1.143777573435466 -4.912715035757306 0  1.148788806332025 4.908592186672001 0  4.909059052842415 1.146101848640926 0  4.919923650410697 -1.151896090774525 0  -0.5466361749490568 -4.909777009158581 0  -0.5464227908458201 4.91848535184042 0  -4.907612457228879 -0.5486526174979898 0  -4.907636451150023 0.5472111444276275 0  4.906928169894734 -0.5489704976662234 0  4.918626041177511 0.5457346650449537 0  0.5424153090904364 -4.896617412987966 0  0.551149280350989 4.915298824125939 0  -4.911797410690265 -3.048214792483138 0  4.918375227948296 3.046235982478138 0  4.911304615044206 -3.048189509808397 0  -4.912645964948907 3.04530726934486 0  3.055237423489165 -4.917296813567371 0  -3.04856326035295 -4.911226152584172 0  3.052132115544525 4.913305649122354 0  -3.048009656841449 4.912116990568821 0  -4.90670567305383 -0.04990204268318429 0  0.0451177208654911 -4.911725004354929 0  0.04956433147078698 4.918772342576202 0  4.913785461206931 -0.05128498661330234 0  3.545569362461556 -4.918966947269508 0  -3.548845506930395 4.911862
[...]
<PointData  Vectors="f_7238"> 
<DataArray  type="Float64"  Name="f_7238"  NumberOfComponents="3" format="ascii">2.6559658580600291e-76 2.6559658580600291e-76 0.0000000000000000e+00  -2.8445085011138809e-76 2.8445085011138809e-76 0.0000000000000000e+00  -8.5659604779174651e-78 -8.5659604779174651e-78 0.0000000000000000e+00  3.0308186857311735e-76 -3.0308186857311735e-76 0.0000000000000000e+00  7.8140279358915699e-01 7.9099293624458975e-03 0.0000000000000000e+00  4.1660849335408299e-75 6.6060914533810071e-75 0.0000000000000000e+00  2.0822309458043267e-75 2.0880108050764086e-74 0.0000000000000000e+00  -3.4063244028594529e-75 6.7719889665559770e-75 0.0000000000000000e+00  4.0008854757805884e-72 6.6674535950101567e-72 0.0000000000000000e+00  5.3179992178166953e-71 1.3457266646658824e-70 0.0000000000000000e+00  -7.9224671009070926e-72 4.5554576988678403e-71 0.0000000000000000e+00  3.2354812006022032e-69 6.1613932602785418e-69 0.0000000000000000e+00  5.1635839157293735e-68 9.3970922309569373e-68 0.0000000000000000e+00  -3.0665220039632277e-68 1.5001962230090084e-67 0.0000000000000000e+00  1.2774203553212976e-67 3.9811997236299688e-67 0.0000000000000000e+00  1.2620625402170962e-68 8.7791432349826533e-67 0.0000000000000000e+00  5.4552675545778091e-64 8.8204231907999975e-64 0.0000000000000000e+00  4.7423219073013072e-65 2.4418733052184629e-63 0.0000000000000000e+00  1.3502227867243417e-62 2.1982696896673744e-62 0.0000000000000000e+00  8.0711004057874879e-63 8.3177479987389215e-62 0.0000000000000000e+00  6.9375443237008212e-61 1.1018800706880469e-60 0.0000000000000000e+00  4.0662133429892034e-60 7.0041578042755999e-60 0.0000000000000000e+00  -2.8499125332012022e-60 7.7008671111534556e-60 0.0000000000000000e+00  5.6680680235419765e-59 1.1364316427791027e-58 0.0000000000000000e+00  -1.7608178437776822e-59 1.1647606552319908e-58 0.0000000000000000e+00  -3.0068550189914759e-59 6.8405324182321404e-59 0.0000000000000000e+00  1.8043984460639936e-58 3.3029886095918425e-58 0.0000000000000000e+00  7.3073404336832889e-58 2.0889247227081097e-57 0.0000000000000000e+00  2.8642174793011208e-57 6.2308649534964325e-57 0.0000000000000000e+00  -3.4118288147141183e-57 5.7405224488287297e-57 0.0000000000000000e+00  -3.5273169401921524e-58 1.0980502295849178e-57 0.0000000000000000e+00  1.9112789237428122e-56 2.9305797074449723e-56 0.0000000000000000e+00  -1.4156850990496964e-56 3.5319158936196972e-56 0.0000000000000000e+00  1.1931293676052286e-56 2.8925527462756923e-56 0.0000000000000000e+00  8.7510760392730016e-56 2.0969102018685719e-55 0.0000000000000000e+00  -2.5168726818690839e-56 5.7435517971522038e-55 0.0000000000000000e+00  5.2190494877486904e-57 8.6086681116708943e-57 0.0000000000000000e+00  5.5540185345997293e-56 1.3812818518313042e-55 0.0000000000000000e+00  1.5515617941127782e-55 6.1683518920174815e-55 0.0000000000000000e+00  -2.2404507165121931e-55 3.5178810218244263e-55 0.0000000000000000e+00  9.8546308028157857e-55 1.7222309166747170e-54 0.0000000000000000e+00  -4.4302051666244806e-55 4.3616753841723944e-54 0.0000000000000000e+00  -2.2877721127628544e-55 2.6821074414805280e-54 0.0000000000000000e+00  -9.6390369127477242e-56 9.4401166285903541e-55 0.0000000000000000e+00  -1.1334810847368185e-55 1.8227601396873894e-55 0.0000000000000000e+00  2.7657699597667234e-54 5.2318031632833836e-54 0.0000000000000000e+00  -2.1646007557267630e-54 4.1400794779493119e-54 0.0000000000000000e+00  -7.2080932781355005e-55 8.0839823528869118e-55 0.0000000000000000e+00  -1.3234778131923359e-55 2.7136068271018991e-55 0.0000000000000000e+00  9.3243220265329943e-55 1.4447991080891286e-54 0.0000000000000000e+00  9.4763115762090529e-55 6.1540043778199859e-54 0.0000000000000000e+00  -1.1311939252774379e-54 5.8988771320191444e-54 0.0000000000000000e+00  5.1588646189719544e-55 4.6478290930368971e-54 0.0000000000000000e+00  1.9115803934213397e-56 5.7927663585138695e-54 0.0000000000000000e+00  3.0246320494599984e-55 6.1509194486494833e-54 0.0000000000000000e+00  -1.2646166938914001e-54 2.0440570622785352e-54 0.0000000000000000e+00  -6.4697067046699175e-55 1.4722422917924685e-53 0.0000000000000000e+00  4.4742944951603756e-54 7.4700121234308148e-54 0.0000000000000000e+00  -4.3574952932286703e-54 8.0946145056762193e-54 0.0000000000000000e+00  1.9264175355075737e-54 3.9575234136024989e-54 0.0000000000000000e+00  -7.3775379446454414e-55 9.4981095643662281e-54 0.0000000000000000e+00  1.3344087235375359e-54 9.3291719088367306e-54 0.0000000000000000e+00  -1.6888160467966278e-54 4.3954774154470183e-54 0.0000000000000000e+00  -9.2714180107688041e-55 2.4041057854963120e-54 0.0000000000000000e+00  3.3394044516806236e-55 1.2998113486802437e-54 0.0000000000000000e+00  2.6636871101635463e-55 2.5377473007962737e-54 0.0000000000000000e+00  -7.8395724394528071e-56 3.4896902815235119e-54 0.0000000000000000e+00  -7.1283094980381400e-55 1.4808583211122942e-54 0.0000000000000000e+00  2.3830801911545498e-55 4.4282398121619789e-55 0.0000000000000000e+00  -2.3144634613674390e-55 6.0210472745705914e-55 0.0000000000000000e+00  5.0446128933344431e-56 2.3985191858689601e-55 0.0000000000000000e+00  1.8704895998589646e-55 9.5260385722705549e-55 0.0000000000000000e+00  -3.3100245276764782e-55 5.2980104832562960e-55 0.0000000000000000e+00  -1.5937171534230867e-56 4.8200945392497226e-56 0.0000000000000000e+00  -1.1366609063384509e-57 1.1331434450623471e-56 0.0000000000000000e+00  6.7661680976656182e-57 2.3559694228415328e-56 0.0000000000000000e+00  -9.0073683499224886e-57 1.5008138436222867e-56 0.0000000000000000e+00  1.7446231703237970e-57 2.8894333415888181e-57 0.0000000000000000e+00  -1.2460886334335881e-57 2.7225838740812761e-57 0.0000000000000000e+00  5.1836495562243210e-57 7.8162100684372525e-57 0.0000000000000000e+00  -4.5386070471331295e-57 1.1244401928320274e-56 0.0000000000000000e+00  -1.8159153641919747e-58 9.3924505652059643e-58 0.0000000000000000e+00  -2.3947155369456242e-58 4.6491219081069466e-58 0.0000000000000000e+00  -7.8855847367785216e-61 8.8102287722410381e-59 0.0000000000000000e+00  -2.4480498059259785e-59 6.4195284904040718e-59 0.0000000000000000e+00  -7.1212433829233237e-60 2.4988208510471234e-59 0.0000000000000000e+00  -4.3873837969751906e-60 2.2381442803256636e-59 0.0000000000000000e+00  -3.0645643059321375e-60 7.1645312027898238e-60 0.0000000000000000e+00  -8.5280695400809859e-62 4.4342302069855601e-61 0.0000000000000000e+00  -1.0763596435727047e-61 2.2329360172191007e-61 0.0000000000000000e+00  -3.5886111253047595e-62 5.6710146216800362e-62 0.0000000000000000e+00  -3.9112801317696308e-64 6.6943958830162628e-64 0.0000000000000000e+00  -2.4319078801630805e-65 5.1689119635303562e-65 0.0000000000000000e+00  3.7093694645742742e-66 1.0389601486713878e-65 0.0000000000000000e+00  -4.8433746170358929e-66 9.2586915990189094e-66 0.0000000000000000e+00  -6.7011301614620545e-68 2.7707008343810076e-67 0.0000000000000000e+00  -7.8548557276399900e-68 1.2913843334005202e-67 0.0000000000000000e+00  -8.0622260069654254e-69 1.1728719747409672e-68 0.0000000000000000e+00  -5.6341507054616520e-70 9.5183105188015388e-70 0.0000000000000000e+00  -3.7799083078014808e-71 6.8175600954039335e-71 0.0000000000000000e+00  -1.8786215209396736e-72 3.2022907594419865e-72 0.0000000000000000e+00  -1.2178198801424698e-73 2.7265818078558775e-73 0.0000000000000000e+00  -4.4213797621305236e-75 1.2911091656175350e-74 0.0000000000000000e+00  -2.5481873009037621e-75 4.2410823528581888e-75 0.0000000000000000e+00  -9.7686887967148767e-76 3.5585085137192637e-76 0.0000000000000000e+00  -1.6211724867117248e-75 -2.3928651669555758e-76 0.0000000000000000e+00  -2.4487385141476731e-74 1.1592477645288339e-74 0.0000000000000000e+00  -3.6791013605520863e-74 1.5506964105510141e-75 0.0000000000000000e+00  -3.8827045655929651e-73 1.4338023599069195e-73 0.0000000000000000e+00  -1.0235285609021833e-71 6.2405187363316376e-72 0.0000000000000000e+00  -6.7391182972829634e-71 3.7099744827804804e-71 0.0000000000000000e+00  -1.0610183953939916e-70 3.9052233206149645e-72 0.0000000000000000e+00  -8.8986879012576516e-70 3.3108127967611147e-70 0.0000000000000000e+00  -2.1277612529470263e-68 1.2873876386321590e-68 0.0000000000000000e+00  -1.0233542826604964e-67 5.1144831723563064e-68 0.0000000000000000e+00  -1.0140730572587252e-67 -6.0319513028631436e-68 0.0000000000000000e+00  -3.1642522053408552e-66 1.7478134198021762e-66 0.0000000000000000e+00  -3.1834740650982152e-65 1.8337970952704943e-65 0.0000000000000000e+00  -5.3853921917128549e-65 5.0521823583325887e-66 0.0000000000000000e+00  -4.4351430512938203e-64 1.4482586216214256e-64 0.0000000000000000e+00  -6.9882112134256538e-63 4.3651118023895621e-63 0.0000000000000000e+00  -1.5060053995675126e-62 3.7541984888698605e-63 0.0000000000000000e+00  -8.4311128841747778e-62 1.9693244665920995e-62 0.0000000000000000e+00  -1.3538438263120121e-60 8.5324142364722958e-61 0.0000000000000000e+00  -2.4164547782707087e-60 3.3881003158876124e-61 0.0000000000000000e+00  -2.1159907746523426e-59 7.4108843207334435e-60 0.0000000000000000e+00  -2.4149759842097116e-58 1.4974438104765930e-58 0.0000000000000000e+00  -2.5889367828815830e-58 -9.4375299531047599e-59 0.0000000000000000e+00  -5.9741467067960138e-57 2.7873738149461101e-57 0.0000000000000000e+00  -2.4817426276752519e-56 1.2418211249728169e-56 0.0000000000000000e+00  -5.5646725809130665e-56 -8.7071497835333783e-57 0.0000000000000000e+00  -1.0103679929291066e-54 6.4944535927372243e-55 0.0000000000000000e+00  -1.1210854644244065e-54 -3.4721285031579920e-55 0.0000000000000000e+00  -2.4062174822171641e-53 1.2722754519865532e-53 0.0000000000000000e+00  -6.5891898595094411e-53 2.9962414667001220e-53 0.0000000000000000e+00  -4.3549089684044136e-52 1.2271912653634986e-52 0.0000000000000000e+00  -2.6637526860366911e-51 1.6670851884594835e-51 0.0000000000000000e+00  -7.6660052720687662e-51 -2.1512583207314939e-52 0.0000000000000000e+00  -7.1915786564294523e-50 4.6083795293481968e-50 0.0000000000000000e+00  -1.6173292336603339e-49 -1.4821539650709884e-50 0.0000000000000000e+00  -1.7285421570779575e-48 1.0126184260037794e-48 0.0000000000000000e+00  -4.3412431095310820e-48 -2.0467013111762167e-49 0.0000000000000000e+00  -2.0128423536629533e-47 1.1125984142987821e-47 0.0000000000000000e+00  -1.1025839647072360e-46 1.9002956008137762e-47 0.0000000000000000e+00  -1.0245981202430240e-46 2.4664414821084756e-47 0.0000000000000000e+00  -1.2403907063024789e-45 5.2663043440390457e-46 0.0000000000000000e+00  -8.7397986138919178e-46 -5.6934867702533223e-46 0.0000000000000000e+00  -1.3427455970167268e-44 8.0911842979366340e-45 0.0000000000000000e+00  -5.7953738710306888e-44 1.3772195026905801e-44 0.0000000000000000e+00  -3.6156230194608329e-44 -1.7558932035075824e-44 0.0000000000000000e+00  -1.1424523772616037e-43 6.5172835310034505e-44 0.0000000000000000e+00  -8.4127763317821726e-43 2.3219665680381748e-43 0.0000000000000000e+00  -1.9290847806018929e-42 1.9804843274313444e-43 0.0000000000000000e+00  -2.5116712956696180e-42 6.1202410018360521e-44 0.0000000000000000e+00  -2.0144586898877852e-42 -1.9528927492452803e-43 0.0000000000000000e+00  -8.6134363098891578e-43 -2.5120679122286671e-43 0.0000000000000000e+00  -1.1324152882261067e-43 -6.4633518406785313e-44 0.0000000000000000e+00  -3.8716167577212768e-44 1.8550453395478441e-44 0.0000000000000000e+00  -6.3162994161952349e-44 -1.0848603210181383e-44 0.0000000000000000e+00  -1.4987145902293626e-44 -7.8866111723534043e-45 0.0000000000000000e+00  -9.9900996728823207e-46 5.6860698562176058e-46 0.0000000000000000e+00  -1.4037541723561673e-45 -5.3987467428514279e-46 0.0000000000000000e+00  -1.1207269816042013e-46 -2.8619175528634560e-47 0.0000000000000000e+00  -1.0180360637575422e-46 -2.1465931085942383e-47 0.0000000000000000e+00  -1.8604548010760713e-47 -1.1997666011637967e-47 0.0000000000000000e+00  -4.0856610210441362e-48 2.0380751050951179e-49 0.0000000000000000e+00  -1.4863429269949671e-48 -9.3763328250503412e-49 0.0000000000000000e+00  -1.6332908407526443e-49 2.4600828029467084e-50 0.0000000000000000e+00  -7.4555654802494727e-50 -4.4273216624648084e-50 0.0000000000000000e+00  -8.2465186167746148e-51 6.4191877369577667e-52 0.0000000000000000e+00  -3.1445443200246379e-51 -1.7858528874998874e-51 0.0000000000000000e+00  -5.1022716069126946e-52 -1.1478032726081887e-52 0.0000000000000000e+00  -8.2041070014517394e-53 -3.5508860524034070e-53 0.0000000000000000e+00  -2.6611745555813555e-53 -1.3169531550993100e-53 0.0000000000000000e+00  -1.1973694719106009e-54 3.2425067855979710e-55 0.0000000000000000e+00  -1.0633303011869832e-54 -6.8108549765251435e-55 0.0000000000000000e+00  -5.1528703048481304e-56 8.3588228461460903e-57 0.0000000000000000e+00  -2.3358634583295436e-56 -1.3248205826544720e-56 0.0000000000000000e+00  -4.8225260491324235e-57 -2.5229692206843140e-57 0.0000000000000000e+00  -2.4591488633328171e-58 8.5517394273675096e-59 0.0000000000000000e+00  -2.1576084532726219e-58 -1.3293074319580183e-58 0.0000000000000000e+00  -1.9907672156583339e-59 -6.1490935616628933e-60 0.0000000000000000e+00  -2.3747530398430905e-60 -3.3976152783882594e-61 0.0000000000000000e+00  -1.2904990733261791e-60 -7.6118959809735524e-61 0.0000000000000000e+00  -7.6898634036775938e-62 -2.1445488918530722e-62 0.0000000000000000e+00  -1.3592517952307393e-62 -2.9315567599472419e-63 0.0000000000000000e+00  -6.6376300199906135e-63 -3.7897371750292484e-63 0.0000000000000000e+00  -4.7823831586237414e-64 -1.8201864710875263e-64 0.0000000000000000e+00  -4.3638961117951310e-65 9.5837537212908805e-67 0.0000000000000000e+00  -2.9475629334409333e-65 -1.6625818333077365e-65 0.0000000000000000e+00  -3.4125801639105551e-66 -1.9892508290395381e-66 0.0000000000000000e+00  -8.9972303721904072e-68 5.4822396981230672e-68 0.0000000000000000e+00  -8.6353821026030628e-68 -4.1785386124861047e-68 0.0000000000000000e+00  -2.0678583740735019e-68 -1.2852535443357377e-68 0.0000000000000000e+00  -1.1325302003600859e-69 -5.1345085004462785e-70 0.0000000000000000e+00  -8.7947127075045547e-71 1.3791829273068795e-71 0.0000000000000000e+00  -6.9075181493356746e-71 -3.6577457257332603e-71 0.0000000000000000e+00  -1.2477899571998722e-71 -7.6632625090213719e-72 0.0000000000000000e+00  -5.9816265590548173e-73 -2.7513524417575669e-73 0.0000000000000000e+00  -3.9238354711987506e-74 7.4242357413985134e-75 0.0000000000000000e+00  -3.1564295981746289e-74 -1.4791198614531278e-74 0.0000000000000000e+00  -6.5904696055321262e-75 -3.3572299398258174e-75 0.0000000000000000e+00  -7.1798540414709194e-76 -3.1071955379788240e-76 0.0000000000000000e+00  -8.5521221946325356e-76 -1.6228288353690997e-75 0.0000000000000000e+00  -4.7736772042715535e-75 -1.3945803918985460e-74 0.0000000000000000e+00  4.3675015043828998e-75 -8.3092339987921278e-75 0.0000000000000000e+00  -1.6296037583355703e-73 -3.4270558773180753e-73 0.0000000000000000e+00  -9.2869901425889369e-71 -1.0068194562676772e-70 0.0000000000000000e+00  -7.5081259922190565e-70 -1.3175797005888502e-69 0.0000000000000000e+00  -1.0987316704225567e-69 -3.6510021698889924e-69 0.0000000000000000e+00  -7.7633602004765242e-68 -1.7112221959312525e-67 0.0000000000000000e+00  -6.5333404235342717e-68 -3.2597624646866239e-67 0.0000000000000000e+00  -6.7923480848593934e-66 -1.3498580052890975e-65 0.0000000000000000e+00  -4.5218571189503575e-66 -2.1314693674762734e-65 0.0000000000000000e+00  -9.0739920166456338e-65 -1.5572062402484936e-64 0.0000000000000000e+00  1.7229380841326668e-65 -2.1036394926078926e-64 0.0000000000000000e+00  -4.2782064103821672e-62 -6.4005007068133223e-62 0.0000000000000000e+00  -7.0033220289997433e-62 -1.7203508700318661e-61 0.0000000000000000e+00  -2.3277283837107849e-62 -2.7285074272836038e-61 0.0000000000000000e+00  -5.7447209588153725e-60 -1.1359334241418719e-59 0.0000000000000000e+00  4.7725288293353290e-60 -1.5023480922099981e-59 0.0000000000000000e+00  -2.9037073195110291e-59 -4.7470389835593123e-59 0.0000000000000000e+00  8.8308287624731465e-60 -6.0867324148740554e-59 0.0000000000000000e+00  2.3282690134871326e-59 -3.9736228195121315e-59 0.0000000000000000e+00  -5.6448655977776750e-58 -8.9433380970583814e-58 0.0000000000000000e+00  -1.3821228713131788e-59 -1.2602278954988253e-57 0.0000000000000000e+00  -4.6401738224698572e-57 -1.1634087067459125e-56 0.0000000000000000e+00  5.7585881025879189e-57 -8.6789301601232424e-57 0.0000000000000000e+00  -5.3425662490657608e-57 -7.3337336925559645e-57 0.0000000000000000e+00  -1.7702191688940097e-56 -3.7719463283209667e-56 0.0000000000000000e+00  2.1659378757440017e-56 -4.0729867244632164e-56 0.0000000000000000e+00  -5.0122682175173085e-57 -9.1965238131781925e-57 0.0000000000000000e+00  -8.1345601059808420e-56 -2.0303468463562731e-55 0.0000000000000000e+00  6.3897265359206380e-56 -5.0774503157514102e-55 0.0000000000000000e+00  -4.2994787273110642e-55 -7.2544576963241599e-55 0.0000000000000000e+00  -4.8865416421925146e-56 -1.8356903821885148e-54 0.0000000000000000e+00  1.6644726674882287e-55 -5.7410182169221768e-55 0.0000000000000000e+00  -5.1952393009912693e-55 -1.6755650907281128e-54 0.0000000000000000e+00  -2.2595857984397129e-54 -7.0701235220981783e-54 0.0000000000000000e+00  2.5896719580895405e-54 -6.0782880694228697e-54 0.0000000000000000e+00  -6.7390822423803063e-55 -2.3892711597422257e-54 0.0000000000000000e+00  5.3416363136717037e-55 -2.8193391381208649e-54 0.0000000000000000e+00  1.2865719226187334e-55 -1.4248328390222738e-54 0.0000000000000000e+00  -2.1870400920971168e-54 -3.4656253557667212e-54 0.0000000000000000e+00  5.7323775700080111e-55 -8.2270693717184953e-54 0.0000000000000000e+00  -3.9430114884874411e-54 -1.3556038801787146e-53 0.0000000000000000e+00  4.7078205520899889e-54 -7.7160477759050585e-54 0.0000000000000000e+00  2.0385434893395449e-55 -6.5064568390453777e-55 0.0000000000000000e+00  -4.8174213147031720e-54 -8.0077540818023450e-54 0.0000000000000000e+00  4.8435401675306635e-54 -7.8703369420089245e-54 0.0000000000000000e+00  -1.6676520211259563e-56 -1.3349700909004913e-55 0.0000000000000000e+00  1.1192853107437529e-56 -2.7679835233004820e-55 0.0000000000000000e+00  2.2145938774721770e-56 -9.8796652899642067e-56 0.0000000000000000e+00  -5.2227484752476871e-54 -9.3538582668754246e-54 0.0000000000000000e+00  5.5704310600752471e-54 -9.4071210348350671e-54 0.0000000000000000e+00  5.6950030627755157e-56 -1.0517733747779759e-55 0.0000000000000000e+00  -1.4380605722537100e-56 -6.2049271669641707e-56 0.0000000000000000e+00  -5.0168790248927952e-55 -9.0477195653778639e-55 0.0000000000000000e+00  -5.8350387508971692e-54 -1.0047614300903728e-53 0.0000000000000000e+00  4.5192385670826752e-54 -1.0490132774444178e-53 0.0000000000000000e+00  -3.0629277090570660e-54 -7.9865971016910771e-54 0.0000000000000000e+00  2.4471164864120873e-54 -8.5487664886815460e-54 0.0000000000000000e+00  2.2538702032424383e-54 -3.3050911308147259e-54 0.0000000000000000e+00  -5.4548075919425526e-55 -1.4801324625670053e-54 0.0000000000000000e+00  8.3831674881521285e-55 -1.5733533014713160e-54 0.0000000000000000e+00  -4.9391339517110043e-55 -9.8352643595334641e-55 0.0000000000000000e+00  5.1403608873978026e-55 -8.8516988576578481e-55 0.0000000000000000e+00  -1.5712664428474226e-56 -2.6930803649903333e-56 0.0000000000000000e+00  -4.4901775306201833e-56 -1.7221151052387264e-55 0.0000000000000000e+00  4.1833246179167068e-56 -1.7464759582890565e-55 0.0000000000000000e+00  4.8125389151577248e-57 -6.9026360445350719e-56 0.0000000000000000e+00  -2.7555947151760057e-56 -6.5447663347341463e-56 0.0000000000000000e+00  3.2957992210747530e-56 -6.4111574903989609e-56 0.0000000000000000e+00  -2.8652367105204215e-57 -2.8735751470056298e-56 0.0000000000000000e+00  1.2987132368824642e-56 -3.0010116414879071e-56 0.0000000000000000e+00  1.0044020726285699e-57 -2.3982737947549717e-57 0.0000000000000000e+00  -4.3912524119371839e-57 -7.6426188467048573e-57 0.0000000000000000e+00  4.2572483972826957e-57 -1.1003555797694058e-56 0.0000000000000000e+00  3.1299233935382567e-58 -1.0210512225839552e-57 0.0000000000000000e+00  1.4402771684730983e-58 -5.025028