<?xml version="1.0"?>
<VTKFile type="UnstructuredGrid"  version="0.1"  >
<UnstructuredGrid>
<Piece  NumberOfPoints="11902" NumberOfCells="23402">
<Points>
<DataArray  type="Float64"  NumberOfComponents="3"  format="ascii">-5 -5 0  5 -5 0  5 5 0  -5 5 0  1.262165120669976 0.001303746374932397 0  -4.9 -5 0  -4.8 -5 0  -4.7 -5 0  -4.6 -5 0  -4.5 -5 0  -4.4 -5 0  -4.3 -5 0  -4.2 -5 0  -4.1 -5 0  -4 -5 0  -3.9 -5 0  -3.8 -5 0  -3.7 -5 0  -3.6 -5 0  -3.5 -5 0  -3.4 -5 0  -3.3 -5 0  -3.2 -5 0  -3.1 -5 0  -3 -5 0  -2.9 -5 0  -2.8 -5 0  -2.7 -5 0  -2.6 -5 0  -2.5 -5 0  -2.4 -5 0  -2.3 -5 0  -2.2 -5 0  -2.1 -5 0  -2 -5 0  -1.9 -5 0  -1.8 -5 0  -1.7 -5 0  -1.6 -5 0  -1.5 -5 0  -1.4 -5 0  -1.3 -5 0  -1.2 -5 0  -1.1 -5 0  -1 -5 0  -0.9000000000000004 -5 0  -0.7999999999999998 -5 0  -0.7000000000000002 -5 0  -0.5999999999999996 -5 0  -0.5 -5 0  -0.4000000000000004 -5 0  -0.2999999999999998 -5 0  -0.2000000000000002 -5 0  -0.09999999999999964 -5 0  0 -5 0  0.09999999999999964 -5 0  0.2000000000000002 -5 0  0.2999999999999998 -5 0  0.4000000000000004 -5 0  0.5 -5 0  0.5999999999999996 -5 0  0.7000000000000002 -5 0  0.7999999999999998 -5 0  0.9000000000000004 -5 0  1 -5 0  1.1 -5 0  1.2 -5 0  1.3 -5 0  1.4 -5 0  1.5 -5 0  1.6 -5 0  1.7 -5 0  1.8 -5 0  1.9 -5 0  2 -5 0  2.1 -5 0  2.2 -5 0  2.3 -5 0  2.4 -5 0  2.5 -5 0  2.6 -5 0  2.7 -5 0  2.8 -5 0  2.9 -5 0  3 -5 0  3.1 -5 0  3.199999999999999 -5 0  3.300000000000001 -5 0  3.4 -5 0  3.5 -5 0  3.6 -5 0  3.699999999999999 -5 0  3.800000000000001 -5 0  3.9 -5 0  4 -5 0  4.1 -5 0  4.199999999999999 -5 0  4.300000000000001 -5 0  4.4 -5 0  4.5 -5 0  4.6 -5 0  4.699999999999999 -5 0  4.800000000000001 -5 0  4.9 -5 0  5 -4.9 0  5 -4.8 0  5 -4.7 0  5 -4.6 0  5 -4.5 0  5 -4.4 0  5 -4.3 0  5 -4.2 0  5 -4.1 0  5 -4 0  5 -3.9 0  5 -3.8 0  5 -3.7 0  5 -3.6 0  5 -3.5 0  5 -3.4 0  5 -3.3 0  5 -3.2 0  5 -3.1 0  5 -3 0  5 -2.9 0  5 -2.8 0  5 -2.7 0  5 -2.6 0  5 -2.5 0  5 -2.4 0  5 -2.3 0  5 -2.2 0  5 -2.1 0  5 -2 0  5 -1.9 0  5 -1.8 0  5 -1.7 0  5 -1.6 0  5 -1.5 0  5 -1.4 0  5 -1.3 0  5 -1.2 0  5 -1.1 0  5 -1 0  5 -0.9000000000000004 0  5 -0.7999999999999998 0  5 -0.7000000000000002 0  5 -0.5999999999999996 0  5 -0.5 0  5 -0.4000000000000004 0  5 -0.2999999999999998 0  5 -0.2000000000000002 0  5 -0.09999999999999964 0  5 0 0  5 0.09999999999999964 0  5 0.2000000000000002 0  5 0.2999999999999998 0  5 0.4000000000000004 0  5 0.5 0  5 0.5999999999999996 0  5 0.7000000000000002 0  5 0.7999999999999998 0  5 0.9000000000000004 0  5 1 0  5 1.1 0  5 1.2 0  5 1.3 0  5 1.4 0  5 1.5 0  5 1.6 0  5 1.7 0  5 1.8 0  5 1.9 0  5 2 0  5 2.1 0  5 2.2 0  5 2.3 0  5 2.4 0  5 2.5 0  5 2.6 0  5 2.7 0  5 2.8 0  5 2.9 0  5 3 0  5 3.1 0  5 3.199999999999999 0  5 3.300000000000001 0  5 3.4 0  5 3.5 0  5 3.6 0  5 3.699999999999999 0  5 3.800000000000001 0  5 3.9 0  5 4 0  5 4.1 0  5 4.199999999999999 0  5 4.300000000000001 0  5 4.4 0  5 4.5 0  5 4.6 0  5 4.699999999999999 0  5 4.800000000000001 0  5 4.9 0  4.9 5 0  4.8 5 0  4.7 5 0  4.6 5 0  4.5 5 0  4.4 5 0  4.3 5 0  4.2 5 0  4.1 5 0  4 5 0  3.9 5 0  3.8 5 0  3.7 5 0  3.6 5 0  3.5 5 0  3.4 5 0  3.3 5 0  3.2 5 0  3.1 5 0  3 5 0  2.9 5 0  2.8 5 0  2.7 5 0  2.6 5 0  2.5 5 0  2.4 5 0  2.3 5 0  2.2 5 0  2.1 5 0  2 5 0  1.9 5 0  1.8 5 0  1.7 5 0  1.6 5 0  1.5 5 0  1.4 5 0  1.3 5 0  1.2 5 0  1.1 5 0  1 5 0  0.9000000000000004 5 0  0.7999999999999998 5 0  0.7000000000000002 5 0  0.5999999999999996 5 0  0.5 5 0  0.4000000000000004 5 0  0.2999999999999998 5 0  0.2000000000000002 5 0  0.09999999999999964 5 0  0 5 0  -0.09999999999999964 5 0  -0.2000000000000002 5 0  -0.2999999999999998 5 0  -0.4000000000000004 5 0  -0.5 5 0  -0.5999999999999996 5 0  -0.7000000000000002 5 0  -0.7999999999999998 5 0  -0.9000000000000004 5 0  -1 5 0  -1.1 5 0  -1.2 5 0  -1.3 5 0  -1.4 5 0  -1.5 5 0  -1.6 5 0  -1.7 5 0  -1.8 5 0  -1.9 5 0  -2 5 0  -2.1 5 0  -2.2 5 0  -2.3 5 0  -2.4 5 0  -2.5 5 0  -2.6 5 0  -2.7 5 0  -2.8 5 0  -2.9 5 0  -3 5 0  -3.1 5 0  -3.199999999999999 5 0  -3.300000000000001 5 0  -3.4 5 0  -3.5 5 0  -3.6 5 0  -3.699999999999999 5 0  -3.800000000000001 5 0  -3.9 5 0  -4 5 0  -4.1 5 0  -4.199999999999999 5 0  -4.300000000000001 5 0  -4.4 5 0  -4.5 5 0  -4.6 5 0  -4.699999999999999 5 0  -4.800000000000001 5 0  -4.9 5 0  -5 4.9 0  -5 4.8 0  -5 4.7 0  -5 4.6 0  -5 4.5 0  -5 4.4 0  -5 4.3 0  -5 4.2 0  -5 4.1 0  -5 4 0  -5 3.9 0  -5 3.8 0  -5 3.7 0  -5 3.6 0  -5 3.5 0  -5 3.4 0  -5 3.3 0  -5 3.2 0  -5 3.1 0  -5 3 0  -5 2.9 0  -5 2.8 0  -5 2.7 0  -5 2.6 0  -5 2.5 0  -5 2.4 0  -5 2.3 0  -5 2.2 0  -5 2.1 0  -5 2 0  -5 1.9 0  -5 1.8 0  -5 1.7 0  -5 1.6 0  -5 1.5 0  -5 1.4 0  -5 1.3 0  -5 1.2 0  -5 1.1 0  -5 1 0  -5 0.9000000000000004 0  -5 0.7999999999999998 0  -5 0.7000000000000002 0  -5 0.5999999999999996 0  -5 0.5 0  -5 0.4000000000000004 0  -5 0.2999999999999998 0  -5 0.2000000000000002 0  -5 0.09999999999999964 0  -5 0 0  -5 -0.09999999999999964 0  -5 -0.2000000000000002 0  -5 -0.2999999999999998 0  -5 -0.4000000000000004 0  -5 -0.5 0  -5 -0.5999999999999996 0  -5 -0.7000000000000002 0  -5 -0.7999999999999998 0  -5 -0.9000000000000004 0  -5 -1 0  -5 -1.1 0  -5 -1.2 0  -5 -1.3 0  -5 -1.4 0  -5 -1.5 0  -5 -1.6 0  -5 -1.7 0  -5 -1.8 0  -5 -1.9 0  -5 -2 0  -5 -2.1 0  -5 -2.2 0  -5 -2.3 0  -5 -2.4 0  -5 -2.5 0  -5 -2.6 0  -5 -2.7 0  -5 -2.8 0  -5 -2.9 0  -5 -3 0  -5 -3.1 0  -5 -3.199999999999999 0  -5 -3.300000000000001 0  -5 -3.4 0  -5 -3.5 0  -5 -3.6 0  -5 -3.699999999999999 0  -5 -3.800000000000001 0  -5 -3.9 0  -5 -4 0  -5 -4.1 0  -5 -4.199999999999999 0  -5 -4.300000000000001 0  -5 -4.4 0  -5 -4.5 0  -5 -4.6 0  -5 -4.699999999999999 0  -5 -4.800000000000001 0  -5 -4.9 0  1.253958859725109 0.0941166245886127 0  1.231987985299831 0.1918586741867062 0  1.198452933268289 0.2884159170419073 0  1.15563873154756 0.3768563284693633 0  1.097350959394581 0.4678092202554805 0  1.031230669062759 0.5517613720775567 0  0.9526563422347406 0.6319721933376684 0  0.865539671964027 0.7068235573840719 0  0.7737038571070401 0.7722212773914003 0  0.6714173368924308 0.8296214102134249 0  0.5588397236702617 0.8818651918257611 0  0.4458947663223873 0.9266004954877239 0  0.3340866834258075 0.9585399484279935 0  0.2087604393479544 0.9803873546687653 0  0.08842748378544166 0.9992776868900318 0  -0.02676539814732668 1.002670040155596 0  -0.1444317695216598 0.9888655750460574 0  -0.2728264769932263 0.9695363249304791 0  -0.3924501912081743 0.945408809583878 0  -0.5026937873201208 0.9097338563006766 0  -0.6123269824605053 0.8632591075701828 0  -0.7144307807926776 0.8084137511175681 0  -0.8090893873877903 0.7436178762069005 0  -0.9004581302060708 0.6698972915153726 0  -0.9865579110463065 0.589880807365972 0  -1.061242716507942 0.5085916409722171 0  -1.123178446845817 0.4236469203624542 0  -1.177265394170849 0.3308044469898569 0  -1.215036347814512 0.2426420118558918 0  -1.239484597420769 0.1486228950224259 0  -1.250166392507223 0.05203439679404474 0  -1.250125995193855 -0.04979849794709353 0  -1.239456564343256 -0.1456544561420741 0  -1.214647801787651 -0.2374226347505837 0  -1.172840166100553 -0.3323300440372751 0  -1.123511835819569 -0.4243803603140042 0  -1.063096407418622 -0.5084789533133729 0  -0.9890545295607487 -0.5888851504797229 0  -0.9035855239702406 -0.667832600674736 0  -0.8128745146031402 -0.7394761218901097 0  -0.7171319676554638 -0.8004069882212224 0  -0.6123741335351081 -0.8535806082327196 0  -0.4976643337217544 -0.9032030054577372 0  -0.3849230153323072 -0.9431122815812956 0  -0.2694924631696038 -0.9693228503644165 0  -0.1428339350435904 -0.9888071426072156 0  -0.02774234893860338 -1.001899619023716 0  0.08740502471835493 -0.9945305880016878 0  0.2147176769664717 -0.9767054989496263 0  0.3368291987885215 -0.9568711228609922 0  0.4500681340895178 -0.9252791474044949 0  0.5613689587066856 -0.8811056890624693 0  0.6725202836806345 -0.8295911257432148 0  0.7736195026999052 -0.7733480627131135 0  0.8653646057509342 -0.7080522481339959 0  0.9512888566782391 -0.6322945658821096 0  1.028671305934774 -0.5506064259913576 0  1.098456518004488 -0.4665555015820766 0  1.156437052597501 -0.3772785499955326 0  1.200205244827616 -0.2864803641332895 0  1.232697271975232 -0.1910652813482204 0  1.254355830415145 -0.09398356893913155 0  -2.448538832314939 4.918073595040192 0  -2.448410864849074 -4.910448139437141 0  4.910371127456421 2.447861007851488 0  4.918502124451633 -2.449325718337644 0  2.446136628522908 -4.895671751100289 0  2.440571007414426 4.899436162448628 0  -4.910398398637186 -2.447887729180535 0  -4.910395666873239 2.447891769676167 0  -1.748492006404434 4.910943362056338 0  -1.744279504516597 -4.91438715328067 0  4.920534644927208 1.744039016986112 0  4.909054385774868 -1.747795768137987 0  -4.909349184685098 -1.747530366011166 0  -4.910172391052927 1.747275745021199 0  1.745763132528276 4.904794389978487 0  1.747173218154372 -4.892929409162137 0  -1.148807710620169 4.908711420706132 0  -1.129667351130658 -4.916635980009412 0  -4.909041334230866 -1.147865140001205 0  -4.908859342775417 1.147665737161826 0  1.143804403041162 -4.912815606249009 0  1.148817561915844 4.908697774395836 0  4.909180549724783 1.146140121323044 0  4.920030408142151 -1.151929580032968 0  -0.5466511182098892 -4.909891983592825 0  -0.5464357134516206 4.918589410554934 0  -4.907753396116352 -0.5486736246032998 0  -4.907777356794368 0.5472317304054866 0  4.907070266700721 -0.5489916452878515 0  4.918750332232315 0.545753373078233 0  0.5424318498783822 -4.89674936842234 0  0.5511636580732142 4.915407141456969 0  -4.911843395479324 -3.048251807340855 0  4.918417820520392 3.046270692670239 0  4.911350763772411 -3.048226985084895 0  -4.912691543433534 3.045343817550693 0  3.055267570160136 -4.917339732432231 0  -3.048595846666413 -4.911272193289215 0  3.052163902604054 4.913350944883971 0  -3.048041802495643 4.912162500820548 0  -4.90685383440056 -0.04990421960818584 0  0.04511874255390419 -4.911841009938539 0  0.04956600474626065 4.918879348634364 0  4.913922514408921 -0.05128673491163817 0  3.545593101654495 -4.918996816562951 0  -3.548871
[...]
<PointData  Vectors="f_5470"> 
<DataArray  type="Float64"  Name="f_5470"  NumberOfComponents="3" format="ascii">2.6559658580600303e-76 2.6559658580600303e-76 0.0000000000000000e+00  -2.8445085011138821e-76 2.8445085011138821e-76 0.0000000000000000e+00  -8.5659604779173769e-78 -8.5659604779173769e-78 0.0000000000000000e+00  3.0308186857311760e-76 -3.0308186857311760e-76 0.0000000000000000e+00  7.8835444524924680e-01 8.6420705032671744e-03 0.0000000000000000e+00  4.1659965903403216e-75 6.6061742902227008e-75 0.0000000000000000e+00  2.0823179114519746e-75 2.0880027874481711e-74 0.0000000000000000e+00  -3.4060672597258365e-75 6.7717495788615871e-75 0.0000000000000000e+00  4.0005605041915345e-72 6.6677558723638537e-72 0.0000000000000000e+00  5.3175343652617877e-71 1.3457701405193275e-70 0.0000000000000000e+00  -7.9213030112058465e-72 4.5553516134231584e-71 0.0000000000000000e+00  3.2349753009594123e-69 6.1618527097446427e-69 0.0000000000000000e+00  5.1626310225083850e-68 9.3979469197461451e-68 0.0000000000000000e+00  -3.0657275408070757e-68 1.5001274165631970e-67 0.0000000000000000e+00  1.2771432287304417e-67 3.9814447282620290e-67 0.0000000000000000e+00  1.2628736117266838e-68 8.7790898513032418e-67 0.0000000000000000e+00  5.4537246546907807e-64 8.8217346955972105e-64 0.0000000000000000e+00  4.7437649692300109e-65 2.4418668642579849e-63 0.0000000000000000e+00  1.3497608661135014e-62 2.1986468285800678e-62 0.0000000000000000e+00  8.0690975527466515e-63 8.3179313667417191e-62 0.0000000000000000e+00  6.9347728368254548e-61 1.1020968586475870e-60 0.0000000000000000e+00  4.0644490110245360e-60 7.0055004061532696e-60 0.0000000000000000e+00  -2.8485655921326138e-60 7.6998749193522992e-60 0.0000000000000000e+00  5.6653494033546049e-59 1.1366308929203484e-58 0.0000000000000000e+00  -1.7598665978644024e-59 1.1646946738875895e-58 0.0000000000000000e+00  -3.0051301844220109e-59 6.8393728416974432e-59 0.0000000000000000e+00  1.8033297463051739e-58 3.3036942424695713e-58 0.0000000000000000e+00  7.3029936186941541e-58 2.0892118226197235e-57 0.0000000000000000e+00  2.8623232475621062e-57 6.2320313090912075e-57 0.0000000000000000e+00  -3.4094125628660374e-57 5.7391081784510978e-57 0.0000000000000000e+00  -3.5246991054415601e-58 1.0979027793888870e-57 0.0000000000000000e+00  1.9098245205425885e-56 2.9313812432915860e-56 0.0000000000000000e+00  -1.4145053353159630e-56 3.5313217911209339e-56 0.0000000000000000e+00  1.1921507883418798e-56 2.8930541110371020e-56 0.0000000000000000e+00  8.7436842874820692e-56 2.0972774807193984e-55 0.0000000000000000e+00  -2.5133897246191214e-56 5.7434707992223857e-55 0.0000000000000000e+00  5.2141428492101187e-57 8.6107838698861741e-57 0.0000000000000000e+00  5.5487373725958050e-56 1.3815060701580531e-55 0.0000000000000000e+00  1.5500731551287992e-55 6.1689782809891423e-55 0.0000000000000000e+00  -2.2380813583563328e-55 3.5170604342775030e-55 0.0000000000000000e+00  9.8441928736296994e-55 1.7225913575097345e-54 0.0000000000000000e+00  -4.4246098383804619e-55 4.3615662778003467e-54 0.0000000000000000e+00  -2.2848482135941963e-55 2.6820575738189151e-54 0.0000000000000000e+00  -9.6270696024957279e-56 9.4398893554862579e-55 0.0000000000000000e+00  -1.1321269239182184e-55 1.8224507799367717e-55 0.0000000000000000e+00  2.7624636253394671e-54 5.2325563056708863e-54 0.0000000000000000e+00  -2.1619366993852012e-54 4.1395754459587045e-54 0.0000000000000000e+00  -7.1990868960864289e-55 8.0824771125097787e-55 0.0000000000000000e+00  -1.3217868015945689e-55 2.7133956284128234e-55 0.0000000000000000e+00  9.3124291766267254e-55 1.4449512476046128e-54 0.0000000000000000e+00  9.4643549711372446e-55 6.1542013571154849e-54 0.0000000000000000e+00  -1.1296999840687934e-54 5.8988505655984417e-54 0.0000000000000000e+00  5.1522297121634226e-55 4.6479263155741722e-54 0.0000000000000000e+00  1.9098105257617320e-56 5.7928481353628698e-54 0.0000000000000000e+00  3.0206612728498288e-55 6.1510035564898391e-54 0.0000000000000000e+00  -1.2629570755311777e-54 2.0441012791630450e-54 0.0000000000000000e+00  -6.4617382519809406e-55 1.4722783852990130e-53 0.0000000000000000e+00  4.4684636032417304e-54 7.4696268238043484e-54 0.0000000000000000e+00  -4.3518703562993865e-54 8.0951603701353430e-54 0.0000000000000000e+00  1.9239449625783304e-54 3.9572470867341788e-54 0.0000000000000000e+00  -7.3689296418955051e-55 9.4983724041025976e-54 0.0000000000000000e+00  1.3326638410742756e-54 9.3290141425370342e-54 0.0000000000000000e+00  -1.6867386753467424e-54 4.3958683248760991e-54 0.0000000000000000e+00  -9.2604038561827291e-55 2.4043642703645160e-54 0.0000000000000000e+00  3.3353009034940925e-55 1.2997316894342777e-54 0.0000000000000000e+00  2.6603052668241082e-55 2.5376908605276995e-54 0.0000000000000000e+00  -7.8351038498891032e-56 3.4897469451900185e-54 0.0000000000000000e+00  -7.1205266235298239e-55 1.4811053619479243e-54 0.0000000000000000e+00  2.3804790070272367e-55 4.4274140400438134e-55 0.0000000000000000e+00  -2.3121030522467900e-55 6.0219271866853700e-55 0.0000000000000000e+00  5.0391791961003155e-56 2.3983385920791960e-55 0.0000000000000000e+00  1.8685079437849642e-55 9.5253502130273005e-55 0.0000000000000000e+00  -3.3069104564990755e-55 5.2993429351090761e-55 0.0000000000000000e+00  -1.5923198064659464e-56 4.8207547834269581e-56 0.0000000000000000e+00  -1.1358276406327082e-57 1.1331924258816710e-56 0.0000000000000000e+00  6.7600904788948171e-57 2.3556904320066807e-56 0.0000000000000000e+00  -9.0002172351508472e-57 1.5011901021647653e-56 0.0000000000000000e+00  1.7432389994639596e-57 2.8887046427233057e-57 0.0000000000000000e+00  -1.2451702902568598e-57 2.7231008529137036e-57 0.0000000000000000e+00  5.1799366173328822e-57 7.8140700104347596e-57 0.0000000000000000e+00  -4.5357122687356344e-57 1.1246219039176572e-56 0.0000000000000000e+00  -1.8147596920926892e-58 9.3931756639797103e-58 0.0000000000000000e+00  -2.3932878755202166e-58 4.6500543717091000e-58 0.0000000000000000e+00  -7.8811076935696392e-61 8.8102588237291782e-59 0.0000000000000000e+00  -2.4467439788293020e-59 6.4204334385319529e-59 0.0000000000000000e+00  -7.1176785907670985e-60 2.4990752533134690e-59 0.0000000000000000e+00  -4.3856087821048205e-60 2.2382828912243568e-59 0.0000000000000000e+00  -3.0632913637561156e-60 7.1655082799490616e-60 0.0000000000000000e+00  -8.5245680756783975e-62 4.4344995705885351e-61 0.0000000000000000e+00  -1.0759535701116864e-61 2.2332565495757988e-61 0.0000000000000000e+00  -3.5874068752425405e-62 5.6719953722916808e-62 0.0000000000000000e+00  -3.9100420997214625e-64 6.6954165422808551e-64 0.0000000000000000e+00  -2.4312294823119298e-65 5.1694854478499689e-65 0.0000000000000000e+00  3.7082704359776902e-66 1.0388681662335303e-65 0.0000000000000000e+00  -4.8422849012327529e-66 9.2596424444127519e-66 0.0000000000000000e+00  -6.6996831641459224e-68 2.7708275576271900e-67 0.0000000000000000e+00  -7.8533951576150880e-68 1.2915141554500896e-67 0.0000000000000000e+00  -8.0609396638970845e-69 1.1729876447109163e-68 0.0000000000000000e+00  -5.6333875334054524e-70 9.5190029130378819e-70 0.0000000000000000e+00  -3.7794918230287739e-71 6.8179410456320405e-71 0.0000000000000000e+00  -1.8784588904506462e-72 3.2024404434799954e-72 0.0000000000000000e+00  -1.2177574877610201e-73 2.7266397022606593e-73 0.0000000000000000e+00  -4.4211810152572899e-75 1.2911275915933323e-74 0.0000000000000000e+00  -2.5481320375096931e-75 4.2411337030633095e-75 0.0000000000000000e+00  -9.7687823488820483e-76 3.5584214666822452e-76 0.0000000000000000e+00  -1.6211489852211426e-75 -2.3926452087167389e-76 0.0000000000000000e+00  -2.4488094816252365e-74 1.1591814567490050e-74 0.0000000000000000e+00  -3.6791155696181946e-74 1.5505627569840496e-75 0.0000000000000000e+00  -3.8828391075042817e-73 1.4336760511010413e-73 0.0000000000000000e+00  -1.0236105401101240e-71 6.2397383872550820e-72 0.0000000000000000e+00  -6.7397027055142484e-71 3.7094121884012281e-71 0.0000000000000000e+00  -1.0610256290201904e-70 3.9045178931101396e-72 0.0000000000000000e+00  -8.8992992745572630e-70 3.3102183718047505e-70 0.0000000000000000e+00  -2.1280479725809391e-68 1.2871019459827084e-68 0.0000000000000000e+00  -1.0234813406010248e-67 5.1131944719383973e-68 0.0000000000000000e+00  -1.0139039019356512e-67 -6.0301924368045421e-68 0.0000000000000000e+00  -3.1647481875352127e-66 1.7472965244985956e-66 0.0000000000000000e+00  -3.1840449506671996e-65 1.8331866866617218e-65 0.0000000000000000e+00  -5.3855624535160424e-65 5.0503131254058994e-66 0.0000000000000000e+00  -4.4356277723473360e-64 1.4477297175980792e-64 0.0000000000000000e+00  -6.9898298626041233e-63 4.3632634653791572e-63 0.0000000000000000e+00  -1.5061533421653285e-62 3.7524545472893728e-63 0.0000000000000000e+00  -8.4318666422806699e-62 1.9684581522541514e-62 0.0000000000000000e+00  -1.3542064281214269e-60 8.5279281566108142e-61 0.0000000000000000e+00  -2.4166058956181480e-60 3.3861544456589962e-61 0.0000000000000000e+00  -2.1163208376803088e-59 7.4066594164113408e-60 0.0000000000000000e+00  -2.4156805009310152e-58 1.4964849694764604e-58 0.0000000000000000e+00  -2.5884766133838840e-58 -9.4309422820880568e-59 0.0000000000000000e+00  -5.9755134221441523e-57 2.7854033601233319e-57 0.0000000000000000e+00  -2.4823685928498821e-56 1.2408645356975943e-56 0.0000000000000000e+00  -5.5642122134323669e-56 -8.6989198570696593e-57 0.0000000000000000e+00  -1.0107029130692699e-54 6.4889409342838508e-55 0.0000000000000000e+00  -1.1209049158917945e-54 -3.4689481835519148e-55 0.0000000000000000e+00  -2.4068800462039886e-53 1.2710972951546600e-53 0.0000000000000000e+00  -6.5907439247852555e-53 2.9932551498124008e-53 0.0000000000000000e+00  -4.3555503769941416e-52 1.2259907106453862e-52 0.0000000000000000e+00  -2.6646008901637683e-51 1.6652800489819787e-51 0.0000000000000000e+00  -7.6659366292276081e-51 -2.1472688627766942e-52 0.0000000000000000e+00  -7.1938303614784433e-50 4.6029832615557662e-50 0.0000000000000000e+00  -1.6172714238002590e-49 -1.4800333353740773e-50 0.0000000000000000e+00  -1.7290057437795187e-48 1.0113465617625229e-48 0.0000000000000000e+00  -4.3411945013287320e-48 -2.0433064800232167e-49 0.0000000000000000e+00  -2.0133020139162391e-47 1.1111064046955287e-47 0.0000000000000000e+00  -1.1026696945853929e-46 1.8978316162649296e-47 0.0000000000000000e+00  -1.0246839960384430e-46 2.4629213511349300e-47 0.0000000000000000e+00  -1.2405743437995697e-45 5.2587777859030265e-46 0.0000000000000000e+00  -8.7382617177719533e-46 -5.6849565788720331e-46 0.0000000000000000e+00  -1.3429612219919578e-44 8.0790378528387768e-45 0.0000000000000000e+00  -5.7957578690502743e-44 1.3751542472266051e-44 0.0000000000000000e+00  -3.6153755847555960e-44 -1.7531421773329929e-44 0.0000000000000000e+00  -1.1425470954184792e-43 6.5070867704823715e-44 0.0000000000000000e+00  -8.4131137691926528e-43 2.3183241990202627e-43 0.0000000000000000e+00  -1.9291279586244627e-42 1.9773756873792594e-43 0.0000000000000000e+00  -2.5117174749663294e-42 6.1105086112547424e-44 0.0000000000000000e+00  -2.0145028480104585e-42 -1.9498274561668215e-43 0.0000000000000000e+00  -8.6137954909993140e-43 -2.5081233948809075e-43 0.0000000000000000e+00  -1.1325111264529756e-43 -6.4532366429745594e-44 0.0000000000000000e+00  -3.8713480192550150e-44 1.8521389808534368e-44 0.0000000000000000e+00  -6.3166263141960034e-44 -1.0832439431936543e-44 0.0000000000000000e+00  -1.4989279687469197e-44 -7.8747727223060744e-45 0.0000000000000000e+00  -9.9885408764778162e-46 5.6775522065638008e-46 0.0000000000000000e+00  -1.4039440122482906e-45 -5.3910251872756532e-46 0.0000000000000000e+00  -1.1208286480777096e-46 -2.8578425893670393e-47 0.0000000000000000e+00  -1.0181304074436630e-46 -2.1437651863774924e-47 0.0000000000000000e+00  -1.8609537158099368e-47 -1.1981546125073852e-47 0.0000000000000000e+00  -4.0856142001411747e-48 2.0346540223808307e-49 0.0000000000000000e+00  -1.4867750559126989e-48 -9.3645338740159442e-49 0.0000000000000000e+00  -1.6331865027968288e-49 2.4567516791772473e-50 0.0000000000000000e+00  -7.4577448696649318e-50 -4.4221347442817158e-50 0.0000000000000000e+00  -8.2462346712889196e-51 6.4103632730509401e-52 0.0000000000000000e+00  -3.1454588810535092e-51 -1.7839156058574151e-51 0.0000000000000000e+00  -5.1028766963771911e-52 -1.1466888918143865e-52 0.0000000000000000e+00  -8.2059610332141261e-53 -3.5473452559777783e-53 0.0000000000000000e+00  -2.6618648433142765e-53 -1.3157311821753185e-53 0.0000000000000000e+00  -1.1971997801508519e-54 3.2395365859283283e-55 0.0000000000000000e+00  -1.0636837567128481e-54 -6.8050715173553782e-55 0.0000000000000000e+00  -5.1524258447153534e-56 8.3509438416010149e-57 0.0000000000000000e+00  -2.3365352568514795e-56 -1.3238002803799405e-56 0.0000000000000000e+00  -4.8237710080557851e-57 -2.5211831989678225e-57 0.0000000000000000e+00  -2.4587291102779210e-58 8.5457560566013701e-59 0.0000000000000000e+00  -2.1582383194371216e-58 -1.3284528659122674e-58 0.0000000000000000e+00  -1.9910420206235992e-59 -6.1456006327238956e-60 0.0000000000000000e+00  -2.3749054807698273e-60 -3.3956605900594997e-61 0.0000000000000000e+00  -1.2908246538719007e-60 -7.6078821447887269e-61 0.0000000000000000e+00  -7.6907027504598270e-62 -2.1435764413368282e-62 0.0000000000000000e+00  -1.3593684035350976e-62 -2.9301847316720064e-63 0.0000000000000000e+00  -6.6390466621026790e-63 -3.7881234035302654e-63 0.0000000000000000e+00  -4.7830058195473137e-64 -1.8195044013214079e-64 0.0000000000000000e+00  -4.3638635363150180e-65 9.5801859291022439e-67 0.0000000000000000e+00  -2.9480841483956058e-65 -1.6620261738990070e-65 0.0000000000000000e+00  -3.4131502024502218e-66 -1.9886580213873444e-66 0.0000000000000000e+00  -8.9956689434683592e-68 5.4806178674909233e-68 0.0000000000000000e+00  -8.6364272643997975e-68 -4.1774815652378098e-68 0.0000000000000000e+00  -2.0681465723114747e-68 -1.2849671750234598e-68 0.0000000000000000e+00  -1.1326280888136667e-69 -5.1335559197443197e-70 0.0000000000000000e+00  -8.7944539916682273e-71 1.3789311654237910e-71 0.0000000000000000e+00  -6.9080980346021952e-71 -3.6571892655109698e-71 0.0000000000000000e+00  -1.2478914827285509e-71 -7.6622985031958871e-72 0.0000000000000000e+00  -5.9819021416378309e-73 -2.7510937211473106e-73 0.0000000000000000e+00  -3.9237640407563906e-74 7.4235649558625629e-75 0.0000000000000000e+00  -3.1565283416696910e-74 -1.4790277305815110e-74 0.0000000000000000e+00  -6.5906049403186939e-75 -3.3571041555177567e-75 0.0000000000000000e+00  -7.1798917974347700e-76 -3.1071605457381367e-76 0.0000000000000000e+00  -8.5519729155196074e-76 -1.6228426756401079e-75 0.0000000000000000e+00  -4.7735800020087814e-75 -1.3945894479301730e-74 0.0000000000000000e+00  4.3671572449365581e-75 -8.3089173376308160e-75 0.0000000000000000e+00  -1.6294703041827974e-73 -3.4271785721300480e-73 0.0000000000000000e+00  -9.2859352596964244e-71 -1.0069157360973032e-70 0.0000000000000000e+00  -7.5070751999137586e-70 -1.3176746820665853e-69 0.0000000000000000e+00  -1.0985515117145807e-69 -3.6511635257438210e-69 0.0000000000000000e+00  -7.7619318833205522e-68 -1.7113490300497715e-67 0.0000000000000000e+00  -6.5319377768899095e-68 -3.2598851837955676e-67 0.0000000000000000e+00  -6.7908123806663826e-66 -1.3499917228567136e-65 0.0000000000000000e+00  -4.5206384011318951e-66 -2.1315728161490878e-65 0.0000000000000000e+00  -9.0713532586701184e-65 -1.5574273463383528e-64 0.0000000000000000e+00  1.7223747976569877e-65 -2.1035934010449844e-64 0.0000000000000000e+00  -4.2767549046843476e-62 -6.4016792554964643e-62 0.0000000000000000e+00  -7.0006535829714647e-62 -1.7205609633165666e-61 0.0000000000000000e+00  -2.3267659407528848e-62 -2.7285813511484759e-61 0.0000000000000000e+00  -5.7422865552333730e-60 -1.1361190675742207e-59 0.0000000000000000e+00  4.7700707270739004e-60 -1.5021740492363875e-59 0.0000000000000000e+00  -2.9022662427785333e-59 -4.7480734169254709e-59 0.0000000000000000e+00  8.8260398793774737e-60 -6.0864023693110386e-59 0.0000000000000000e+00  2.3268935020445159e-59 -3.9727162332766478e-59 0.0000000000000000e+00  -5.6415276711991544e-58 -8.9455370153055628e-58 0.0000000000000000e+00  -1.3812372833972638e-59 -1.2602334514318773e-57 0.0000000000000000e+00  -4.6372025208799426e-57 -1.1635955444266220e-56 0.0000000000000000e+00  5.7544079929532401e-57 -8.6765321265566284e-57 0.0000000000000000e+00  -5.3386486198837624e-57 -7.3359628454836007e-57 0.0000000000000000e+00  -1.7688464242327143e-56 -3.7726900140514815e-56 0.0000000000000000e+00  2.1641394032259859e-56 -4.0720758410684097e-56 0.0000000000000000e+00  -5.0080698813486473e-57 -9.1986302181327044e-57 0.0000000000000000e+00  -8.1275811365597052e-56 -2.0306880022619990e-55 0.0000000000000000e+00  6.3828963514255841e-56 -5.0772037653464317e-55 0.0000000000000000e+00  -4.2954072575020662e-55 -7.2562049186817923e-55 0.0000000000000000e+00  -4.8841292016245173e-56 -1.8357169365673632e-54 0.0000000000000000e+00  1.6627685346058276e-55 -5.7403783537674625e-55 0.0000000000000000e+00  -5.1900410252105093e-55 -1.6757704637557285e-54 0.0000000000000000e+00  -2.2572289000770531e-54 -7.0709799532996229e-54 0.0000000000000000e+00  2.5867199387879713e-54 -6.0774432389983452e-54 0.0000000000000000e+00  -6.7316710523820538e-55 -2.3895089725272205e-54 0.0000000000000000e+00  5.3350744401794889e-55 -2.8192025118279420e-54 0.0000000000000000e+00  1.2848826421945757e-55 -1.4248108350767355e-54 0.0000000000000000e+00  -2.1843929367956123e-54 -3.4662065132417851e-54 0.0000000000000000e+00  5.7244794205659342e-55 -8.2270376404075795e-54 0.0000000000000000e+00  -3.9381658584956076e-54 -1.3557020972019117e-53 0.0000000000000000e+00  4.7018142785381756e-54 -7.7152230201333881e-54 0.0000000000000000e+00  2.0358902762823814e-55 -6.5062120976147686e-55 0.0000000000000000e+00  -4.8111948931984426e-54 -8.0084244526617179e-54 0.0000000000000000e+00  4.8371986678003141e-54 -7.8699282789244935e-54 0.0000000000000000e+00  -1.6654635721574374e-56 -1.3349813703246170e-55 0.0000000000000000e+00  1.1177852322268114e-56 -2.7680139380479158e-55 0.0000000000000000e+00  2.2116767816366045e-56 -9.8796573921254264e-56 0.0000000000000000e+00  -5.2158708077391561e-54 -9.3537945592820749e-54 0.0000000000000000e+00  5.5631399852380143e-54 -9.4075073284828143e-54 0.0000000000000000e+00  5.6875877487090070e-56 -1.0518272980727097e-55 0.0000000000000000e+00  -1.4361731306526413e-56 -6.2048290857408099e-56 0.0000000000000000e+00  -5.0104208725762866e-55 -9.0470408074145191e-55 0.0000000000000000e+00  -5.8276169193988772e-54 -1.0046641165923630e-53 0.0000000000000000e+00  4.5135948863541887e-54 -1.0491056075252899e-53 0.0000000000000000e+00  -3.0591502393097897e-54 -7.9859073127529557e-54 0.0000000000000000e+00  2.4441530563097679e-54 -8.5493814891214411e-54 0.0000000000000000e+00  2.2512004671442280e-54 -3.3057178089516921e-54 0.0000000000000000e+00  -5.4484302114700085e-55 -1.4799736072493700e-54 0.0000000000000000e+00  8.3737988485749644e-55 -1.5736294266688557e-54 0.0000000000000000e+00  -4.9335615081458805e-55 -9.8336713924708637e-55 0.0000000000000000e+00  5.1349109444706301e-55 -8.8535534791708587e-55 0.0000000000000000e+00  -1.5696103922399408e-56 -2.6925093761399696e-56 0.0000000000000000e+00  -4.4853798338528874e-56 -1.7219536041209777e-55 0.0000000000000000e+00  4.1794711468221412e-56 -1.7466470023043323e-55 0.0000000000000000e+00  4.8089784361181849e-57 -6.9028522924663700e-56 0.0000000000000000e+00  -2.7530629485983254e-56 -6.5436475743940600e-56 0.0000000000000000e+00  3.2929272818227850e-56 -6.4125197258705605e-56 0.0000000000000000e+00  -2.8628139598055616e-57 -2.8734560218654531e-56 0.0000000000000000e+00  1.2977049570125759e-56 -3.0015545933611142e-56 0.0000000000000000e+00  1.0036555457628509e-57 -2.3986918885612950e-57 0.0000000000000000e+00  -4.3879528077761496e-57 -7.6407904972753615e-57 0.0000000000000000e+00  4.2544036228397292e-57 -1.1005290189377203e-56 0.0000000000000000e+00  3.1278423103930200e-58 -1.0211783007691527e-57 0.0000000000000000e+00  1.4393704831695090e-58 -5.025602