<?xml version="1.0"?>
<VTKFile type="UnstructuredGrid"  version="0.1"  >
<UnstructuredGrid>
<Piece  NumberOfPoints="11902" NumberOfCells="23402">
<Points>
<DataArray  type="Float64"  NumberOfComponents="3"  format="ascii">-5 -5 0  5 -5 0  5 5 0  -5 5 0  1.191807431115274 0.001251170670461935 0  -4.9 -5 0  -4.8 -5 0  -4.7 -5 0  -4.6 -5 0  -4.5 -5 0  -4.4 -5 0  -4.3 -5 0  -4.2 -5 0  -4.1 -5 0  -4 -5 0  -3.9 -5 0  -3.8 -5 0  -3.7 -5 0  -3.6 -5 0  -3.5 -5 0  -3.4 -5 0  -3.3 -5 0  -3.2 -5 0  -3.1 -5 0  -3 -5 0  -2.9 -5 0  -2.8 -5 0  -2.7 -5 0  -2.6 -5 0  -2.5 -5 0  -2.4 -5 0  -2.3 -5 0  -2.2 -5 0  -2.1 -5 0  -2 -5 0  -1.9 -5 0  -1.8 -5 0  -1.7 -5 0  -1.6 -5 0  -1.5 -5 0  -1.4 -5 0  -1.3 -5 0  -1.2 -5 0  -1.1 -5 0  -1 -5 0  -0.9000000000000004 -5 0  -0.7999999999999998 -5 0  -0.7000000000000002 -5 0  -0.5999999999999996 -5 0  -0.5 -5 0  -0.4000000000000004 -5 0  -0.2999999999999998 -5 0  -0.2000000000000002 -5 0  -0.09999999999999964 -5 0  0 -5 0  0.09999999999999964 -5 0  0.2000000000000002 -5 0  0.2999999999999998 -5 0  0.4000000000000004 -5 0  0.5 -5 0  0.5999999999999996 -5 0  0.7000000000000002 -5 0  0.7999999999999998 -5 0  0.9000000000000004 -5 0  1 -5 0  1.1 -5 0  1.2 -5 0  1.3 -5 0  1.4 -5 0  1.5 -5 0  1.6 -5 0  1.7 -5 0  1.8 -5 0  1.9 -5 0  2 -5 0  2.1 -5 0  2.2 -5 0  2.3 -5 0  2.4 -5 0  2.5 -5 0  2.6 -5 0  2.7 -5 0  2.8 -5 0  2.9 -5 0  3 -5 0  3.1 -5 0  3.199999999999999 -5 0  3.300000000000001 -5 0  3.4 -5 0  3.5 -5 0  3.6 -5 0  3.699999999999999 -5 0  3.800000000000001 -5 0  3.9 -5 0  4 -5 0  4.1 -5 0  4.199999999999999 -5 0  4.300000000000001 -5 0  4.4 -5 0  4.5 -5 0  4.6 -5 0  4.699999999999999 -5 0  4.800000000000001 -5 0  4.9 -5 0  5 -4.9 0  5 -4.8 0  5 -4.7 0  5 -4.6 0  5 -4.5 0  5 -4.4 0  5 -4.3 0  5 -4.2 0  5 -4.1 0  5 -4 0  5 -3.9 0  5 -3.8 0  5 -3.7 0  5 -3.6 0  5 -3.5 0  5 -3.4 0  5 -3.3 0  5 -3.2 0  5 -3.1 0  5 -3 0  5 -2.9 0  5 -2.8 0  5 -2.7 0  5 -2.6 0  5 -2.5 0  5 -2.4 0  5 -2.3 0  5 -2.2 0  5 -2.1 0  5 -2 0  5 -1.9 0  5 -1.8 0  5 -1.7 0  5 -1.6 0  5 -1.5 0  5 -1.4 0  5 -1.3 0  5 -1.2 0  5 -1.1 0  5 -1 0  5 -0.9000000000000004 0  5 -0.7999999999999998 0  5 -0.7000000000000002 0  5 -0.5999999999999996 0  5 -0.5 0  5 -0.4000000000000004 0  5 -0.2999999999999998 0  5 -0.2000000000000002 0  5 -0.09999999999999964 0  5 0 0  5 0.09999999999999964 0  5 0.2000000000000002 0  5 0.2999999999999998 0  5 0.4000000000000004 0  5 0.5 0  5 0.5999999999999996 0  5 0.7000000000000002 0  5 0.7999999999999998 0  5 0.9000000000000004 0  5 1 0  5 1.1 0  5 1.2 0  5 1.3 0  5 1.4 0  5 1.5 0  5 1.6 0  5 1.7 0  5 1.8 0  5 1.9 0  5 2 0  5 2.1 0  5 2.2 0  5 2.3 0  5 2.4 0  5 2.5 0  5 2.6 0  5 2.7 0  5 2.8 0  5 2.9 0  5 3 0  5 3.1 0  5 3.199999999999999 0  5 3.300000000000001 0  5 3.4 0  5 3.5 0  5 3.6 0  5 3.699999999999999 0  5 3.800000000000001 0  5 3.9 0  5 4 0  5 4.1 0  5 4.199999999999999 0  5 4.300000000000001 0  5 4.4 0  5 4.5 0  5 4.6 0  5 4.699999999999999 0  5 4.800000000000001 0  5 4.9 0  4.9 5 0  4.8 5 0  4.7 5 0  4.6 5 0  4.5 5 0  4.4 5 0  4.3 5 0  4.2 5 0  4.1 5 0  4 5 0  3.9 5 0  3.8 5 0  3.7 5 0  3.6 5 0  3.5 5 0  3.4 5 0  3.3 5 0  3.2 5 0  3.1 5 0  3 5 0  2.9 5 0  2.8 5 0  2.7 5 0  2.6 5 0  2.5 5 0  2.4 5 0  2.3 5 0  2.2 5 0  2.1 5 0  2 5 0  1.9 5 0  1.8 5 0  1.7 5 0  1.6 5 0  1.5 5 0  1.4 5 0  1.3 5 0  1.2 5 0  1.1 5 0  1 5 0  0.9000000000000004 5 0  0.7999999999999998 5 0  0.7000000000000002 5 0  0.5999999999999996 5 0  0.5 5 0  0.4000000000000004 5 0  0.2999999999999998 5 0  0.2000000000000002 5 0  0.09999999999999964 5 0  0 5 0  -0.09999999999999964 5 0  -0.2000000000000002 5 0  -0.2999999999999998 5 0  -0.4000000000000004 5 0  -0.5 5 0  -0.5999999999999996 5 0  -0.7000000000000002 5 0  -0.7999999999999998 5 0  -0.9000000000000004 5 0  -1 5 0  -1.1 5 0  -1.2 5 0  -1.3 5 0  -1.4 5 0  -1.5 5 0  -1.6 5 0  -1.7 5 0  -1.8 5 0  -1.9 5 0  -2 5 0  -2.1 5 0  -2.2 5 0  -2.3 5 0  -2.4 5 0  -2.5 5 0  -2.6 5 0  -2.7 5 0  -2.8 5 0  -2.9 5 0  -3 5 0  -3.1 5 0  -3.199999999999999 5 0  -3.300000000000001 5 0  -3.4 5 0  -3.5 5 0  -3.6 5 0  -3.699999999999999 5 0  -3.800000000000001 5 0  -3.9 5 0  -4 5 0  -4.1 5 0  -4.199999999999999 5 0  -4.300000000000001 5 0  -4.4 5 0  -4.5 5 0  -4.6 5 0  -4.699999999999999 5 0  -4.800000000000001 5 0  -4.9 5 0  -5 4.9 0  -5 4.8 0  -5 4.7 0  -5 4.6 0  -5 4.5 0  -5 4.4 0  -5 4.3 0  -5 4.2 0  -5 4.1 0  -5 4 0  -5 3.9 0  -5 3.8 0  -5 3.7 0  -5 3.6 0  -5 3.5 0  -5 3.4 0  -5 3.3 0  -5 3.2 0  -5 3.1 0  -5 3 0  -5 2.9 0  -5 2.8 0  -5 2.7 0  -5 2.6 0  -5 2.5 0  -5 2.4 0  -5 2.3 0  -5 2.2 0  -5 2.1 0  -5 2 0  -5 1.9 0  -5 1.8 0  -5 1.7 0  -5 1.6 0  -5 1.5 0  -5 1.4 0  -5 1.3 0  -5 1.2 0  -5 1.1 0  -5 1 0  -5 0.9000000000000004 0  -5 0.7999999999999998 0  -5 0.7000000000000002 0  -5 0.5999999999999996 0  -5 0.5 0  -5 0.4000000000000004 0  -5 0.2999999999999998 0  -5 0.2000000000000002 0  -5 0.09999999999999964 0  -5 0 0  -5 -0.09999999999999964 0  -5 -0.2000000000000002 0  -5 -0.2999999999999998 0  -5 -0.4000000000000004 0  -5 -0.5 0  -5 -0.5999999999999996 0  -5 -0.7000000000000002 0  -5 -0.7999999999999998 0  -5 -0.9000000000000004 0  -5 -1 0  -5 -1.1 0  -5 -1.2 0  -5 -1.3 0  -5 -1.4 0  -5 -1.5 0  -5 -1.6 0  -5 -1.7 0  -5 -1.8 0  -5 -1.9 0  -5 -2 0  -5 -2.1 0  -5 -2.2 0  -5 -2.3 0  -5 -2.4 0  -5 -2.5 0  -5 -2.6 0  -5 -2.7 0  -5 -2.8 0  -5 -2.9 0  -5 -3 0  -5 -3.1 0  -5 -3.199999999999999 0  -5 -3.300000000000001 0  -5 -3.4 0  -5 -3.5 0  -5 -3.6 0  -5 -3.699999999999999 0  -5 -3.800000000000001 0  -5 -3.9 0  -5 -4 0  -5 -4.1 0  -5 -4.199999999999999 0  -5 -4.300000000000001 0  -5 -4.4 0  -5 -4.5 0  -5 -4.6 0  -5 -4.699999999999999 0  -5 -4.800000000000001 0  -5 -4.9 0  1.185911295724501 0.09930137972569485 0  1.167370415770933 0.1976225786212773 0  1.136290819322415 0.2949569348704149 0  1.096020822395469 0.386673238139932 0  1.043720202522054 0.4773930258728498 0  0.982041861525661 0.5625634779941741 0  0.9095453074033778 0.6423308686210686 0  0.8277476842393758 0.7151346925526921 0  0.7388994206839981 0.7808823282024087 0  0.6420546518594866 0.8394587429046079 0  0.5381340496147482 0.8901695133433934 0  0.4298965260289417 0.9319945198470136 0  0.3192545702793563 0.9647854632460499 0  0.2033086611517115 0.9871931201987522 0  0.08821494465451017 1.001537574306996 0  -0.02767902100605698 1.004286514574949 0  -0.1436967557642658 0.9947892098718003 0  -0.2606614803337005 0.9771883724645841 0  -0.3745135071113663 0.9509079603134737 0  -0.4834216259173323 0.9143617665671741 0  -0.5875111430390333 0.8688406287378233 0  -0.6865299612764488 0.8141135425638764 0  -0.7785003484367876 0.751289976305041 0  -0.8638241081004533 0.6808937050487702 0  -0.9417316600471327 0.6028650654150254 0  -1.009387714001449 0.5203454049218336 0  -1.06763944129062 0.4333150457740751 0  -1.114624717826982 0.3411073433557681 0  -1.149874823017155 0.2468373343473721 0  -1.173615519209268 0.1500743880536469 0  -1.185662488735981 0.05080632745358049 0  -1.185663345733032 -0.04911269494295699 0  -1.173569242447929 -0.1480692262216836 0  -1.150790275317796 -0.2448381359246382 0  -1.114176412149716 -0.3407134211917112 0  -1.068008927223825 -0.4320754633979426 0  -1.010342090525309 -0.5194053811918921 0  -0.9431717450727506 -0.601494442963746 0  -0.8655366732097483 -0.6783877268726324 0  -0.7797724847963904 -0.7478624695517984 0  -0.6865781624873548 -0.8091960033010922 0  -0.587755701926795 -0.8635886603516525 0  -0.4808237962958042 -0.9102236042274342 0  -0.3714469677563238 -0.9481806737720347 0  -0.2579176020380053 -0.9757891753538163 0  -0.1423017701426771 -0.9938416657288554 0  -0.02720400081244739 -1.003439686693461 0  0.08883066072710659 -0.9992103072543226 0  0.2060215455136961 -0.9849932182283698 0  0.3207747558838289 -0.963126860045482 0  0.4331657862775442 -0.9305765536680021 0  0.5397236507781951 -0.8892005508769898 0  0.6427567023062615 -0.839006490799483 0  0.7390829490578625 -0.7818152541101021 0  0.8278239102180653 -0.7158149482709532 0  0.9090600764419305 -0.641760644748787 0  0.9806851993362202 -0.561891152616231 0  1.043601937665076 -0.4768501573811877 0  1.097067795727124 -0.3867514208195931 0  1.137676390915727 -0.2935842162916299 0  1.167605511030635 -0.1968112617060576 0  1.185927705468466 -0.09884391343869973 0  -2.448813528026449 4.918577403161617 0  -2.448710221880281 -4.910997792825126 0  4.910933631497045 2.448254195762178 0  4.91901263652316 -2.449683112891581 0  2.446484844322428 -4.896317218759836 0  2.440907896592511 4.90006057107137 0  -4.910956625297612 -2.448276734411912 0  -4.910955031968411 2.448280565776873 0  -1.748776786116065 4.911671199128432 0  -1.744552208651098 -4.91508612780616 0  4.921245850209519 1.744395225628202 0  4.909866492004863 -1.748203865156539 0  -4.910152716864548 -1.747932704763006 0  -4.910969899844045 1.747673721751997 0  1.746065881456613 4.905576565268372 0  1.747512340357937 -4.893807548571708 0  -1.149034841595674 4.909594935749845 0  -1.129871806594442 -4.917444036064943 0  -4.910048008475481 -1.148196474177389 0  -4.909869097402283 1.147996541939918 0  1.144017051508168 -4.913661213534732 0  1.149042473280131 4.909583923913878 0  4.910195025294942 1.146474041180187 0  4.920921657453272 -1.15222468188709 0  -0.5467697410864512 -4.910853467080321 0  -0.5465425827713346 4.919460352189582 0  -4.9089236414957 -0.5488579362573682 0  -4.90894810893927 0.5474140170594674 0  4.908259545158131 -0.5491791848165111 0  4.919790687232614 0.5459161509565121 0  0.5425618871042002 -4.89785378833564 0  0.5512730113154686 4.916312920892065 0  -4.912219766557527 -3.048573084151607 0  4.918768896085431 3.046571229080752 0  4.911731212378494 -3.048553275757899 0  -4.913065928861532 3.045662400063606 0  3.055512072569887 -4.917707944273081 0  -3.048858768004366 -4.911665994841854 0  3.052421161325007 4.91373794387208 0  -3.048302943409868 4.912553107693155 0  -4.908085297506648 -0.04992261155338784 0  0.04512612737071339 -4.912810290166858 0  0.04957450163168057 4.919773346753272 0  4.9150705188119 -0.0513037607672933 0  3.545786474383311 -4.919254093681776 0  -3.549081533424022 4
[...]
<PointData  Vectors="f_2142"> 
<DataArray  type="Float64"  Name="f_2142"  NumberOfComponents="3" format="ascii">2.6559658580599263e-76 2.6559658580599263e-76 0.0000000000000000e+00  -2.8445085011137919e-76 2.8445085011137919e-76 0.0000000000000000e+00  -8.5659604779028788e-78 -8.5659604779028788e-78 0.0000000000000000e+00  3.0308186857308876e-76 -3.0308186857308876e-76 0.0000000000000000e+00  -4.2263527595966377e-01 -8.1698342115820062e-03 0.0000000000000000e+00  4.1652335276709219e-75 6.6068490362703172e-75 0.0000000000000000e+00  2.0830683654711352e-75 2.0879375417334392e-74 0.0000000000000000e+00  -3.4038472106270824e-75 6.7698005357844244e-75 0.0000000000000000e+00  3.9977549964067598e-72 6.6702168284775141e-72 0.0000000000000000e+00  5.3135208483673193e-71 1.3461241255755772e-70 0.0000000000000000e+00  -7.9112618982396482e-72 4.5544886556918957e-71 0.0000000000000000e+00  3.2306121564545601e-69 6.1655896163234137e-69 0.0000000000000000e+00  5.1544167198943161e-68 9.4048952137978519e-68 0.0000000000000000e+00  -3.0588873420953879e-68 1.4995687239969703e-67 0.0000000000000000e+00  1.2747554873759153e-67 3.9834355275709854e-67 0.0000000000000000e+00  1.2697988023476955e-68 8.7786609085324911e-67 0.0000000000000000e+00  5.4404497707320114e-64 8.8323767498621242e-64 0.0000000000000000e+00  4.7559795040605411e-65 2.4418160874872581e-63 0.0000000000000000e+00  1.3457919372583211e-62 2.2017030652392000e-62 0.0000000000000000e+00  8.0518186935785939e-63 8.3194222170529212e-62 0.0000000000000000e+00  6.9109929871878124e-61 1.1038512693701649e-60 0.0000000000000000e+00  4.0493241417371861e-60 7.0163564999652278e-60 0.0000000000000000e+00  -2.8370306594588584e-60 7.6918600517236635e-60 0.0000000000000000e+00  5.6420711437317923e-59 1.1382401714487324e-58 0.0000000000000000e+00  -1.7517353156966818e-59 1.1641626137428226e-58 0.0000000000000000e+00  -2.9903997196410736e-59 6.8300304107422463e-59 0.0000000000000000e+00  1.7942075524349533e-58 3.3093765538657599e-58 0.0000000000000000e+00  7.2658909546069641e-58 2.0915236531194435e-57 0.0000000000000000e+00  2.8461865920586588e-57 6.2414062863641882e-57 0.0000000000000000e+00  -3.3888573146937496e-57 5.7277548705855446e-57 0.0000000000000000e+00  -3.5024529296087716e-58 1.0967197888402622e-57 0.0000000000000000e+00  1.8974709680154352e-56 2.9378065119692219e-56 0.0000000000000000e+00  -1.4045059680437409e-56 3.5265685849599586e-56 0.0000000000000000e+00  1.1838531816011532e-56 2.8970665214529911e-56 0.0000000000000000e+00  8.6810551959574142e-56 2.1002149839171713e-55 0.0000000000000000e+00  -2.4842222007693562e-56 5.7428342417832162e-55 0.0000000000000000e+00  5.1726908625888565e-57 8.6276632739389367e-57 0.0000000000000000e+00  5.5041350139440218e-56 1.3832943609354341e-55 0.0000000000000000e+00  1.5375032441240594e-55 6.1739726666399753e-55 0.0000000000000000e+00  -2.2181369085001195e-55 3.5105326875392720e-55 0.0000000000000000e+00  9.7563339512256809e-55 1.7254584890294806e-54 0.0000000000000000e+00  -4.3777815880302209e-55 4.3607031328171790e-54 0.0000000000000000e+00  -2.2603905687010896e-55 2.6816631049098283e-54 0.0000000000000000e+00  -9.5268843516259751e-56 9.4380883774071881e-55 0.0000000000000000e+00  -1.1207759093334428e-55 1.8199963305888853e-55 0.0000000000000000e+00  2.7347494810158359e-54 5.2385316096555158e-54 0.0000000000000000e+00  -2.1396299743722897e-54 4.1355773976524860e-54 0.0000000000000000e+00  -7.1237166419412899e-55 8.0705358142414999e-55 0.0000000000000000e+00  -1.3076467589347037e-55 2.7117182284656784e-55 0.0000000000000000e+00  9.2129773211345782e-55 1.4461590306807539e-54 0.0000000000000000e+00  9.3643339638015026e-55 6.1557630270341003e-54 0.0000000000000000e+00  -1.1172212912960095e-54 5.8986323509223320e-54 0.0000000000000000e+00  5.0967693375594202e-55 4.6486971139357558e-54 0.0000000000000000e+00  1.8949901645090521e-56 5.7934930530743307e-54 0.0000000000000000e+00  2.9875090563048843e-55 6.1516691687344873e-54 0.0000000000000000e+00  -1.2490884109981878e-54 2.0444404971821361e-54 0.0000000000000000e+00  -6.3948522927309666e-55 1.4725629615162716e-53 0.0000000000000000e+00  4.4197155361310673e-54 7.4666176036916954e-54 0.0000000000000000e+00  -4.3048193082518541e-54 8.0994411554428742e-54 0.0000000000000000e+00  1.9032564221146673e-54 3.9550768816570297e-54 0.0000000000000000e+00  -7.2965500578153081e-55 9.5004511654833765e-54 0.0000000000000000e+00  1.3180755517275339e-54 9.3277802962986844e-54 0.0000000000000000e+00  -1.6693212047788276e-54 4.3989535962761948e-54 0.0000000000000000e+00  -9.1679119882176355e-55 2.4064091663858349e-54 0.0000000000000000e+00  3.3008913985689767e-55 1.2991029490787585e-54 0.0000000000000000e+00  2.6319807510234296e-55 2.5372469625704573e-54 0.0000000000000000e+00  -7.7960134543014621e-56 3.4902014717079348e-54 0.0000000000000000e+00  -7.0549483624428775e-55 1.4830685992705438e-54 0.0000000000000000e+00  2.3585615034049600e-55 4.4208512622597678e-55 0.0000000000000000e+00  -2.2921649970335211e-55 6.0289404818323938e-55 0.0000000000000000e+00  4.9933667013004938e-56 2.3969025886927779e-55 0.0000000000000000e+00  1.8517887627770123e-55 9.5198728259141347e-55 0.0000000000000000e+00  -3.2805378461745956e-55 5.3099957918841494e-55 0.0000000000000000e+00  -1.5804604010303008e-56 4.8260457406959660e-56 0.0000000000000000e+00  -1.1287165164585664e-57 1.1335868587591879e-56 0.0000000000000000e+00  6.7085431373525372e-57 2.3534563660988827e-56 0.0000000000000000e+00  -8.9393678761791757e-57 1.5042142597019616e-56 0.0000000000000000e+00  1.7314608046422503e-57 2.8828475509241148e-57 0.0000000000000000e+00  -1.2373423041574373e-57 2.7272640504602324e-57 0.0000000000000000e+00  5.1482672862865767e-57 7.7968234563945070e-57 0.0000000000000000e+00  -4.5109612558039853e-57 1.1260901411961323e-56 0.0000000000000000e+00  -1.8048786009072823e-58 9.3990346451326368e-58 0.0000000000000000e+00  -2.3810666922418359e-58 4.6575987394092450e-58 0.0000000000000000e+00  -7.8427483141243614e-61 8.8105020910406239e-59 0.0000000000000000e+00  -2.4355457483342419e-59 6.4277695850324474e-59 0.0000000000000000e+00  -7.0870801499498835e-60 2.5011396953630822e-59 0.0000000000000000e+00  -4.3703288085143595e-60 2.2394111091441205e-59 0.0000000000000000e+00  -3.0523395404151364e-60 7.1734572276684047e-60 0.0000000000000000e+00  -8.4944409216957196e-62 4.4366911677589792e-61 0.0000000000000000e+00  -1.0724566799678762e-61 2.2358668767142607e-61 0.0000000000000000e+00  -3.5770259537221024e-62 5.6799911937856471e-62 0.0000000000000000e+00  -3.8993653322831139e-64 6.7037416620528471e-64 0.0000000000000000e+00  -2.4253738919553555e-65 5.1741675324271282e-65 0.0000000000000000e+00  3.6987874159959111e-66 1.0381174783557667e-65 0.0000000000000000e+00  -4.8328686267149180e-66 9.2674147167904454e-66 0.0000000000000000e+00  -6.6871778880365039e-68 2.7718635591040474e-67 0.0000000000000000e+00  -7.8407656243098814e-68 1.2925761204108535e-67 0.0000000000000000e+00  -8.0498118820170954e-69 1.1739342825089060e-68 0.0000000000000000e+00  -5.6267831185514411e-70 9.5246716681396508e-70 0.0000000000000000e+00  -3.7758863272259899e-71 6.8210611301406119e-71 0.0000000000000000e+00  -1.8770506103144417e-72 3.2036667598247775e-72 0.0000000000000000e+00  -1.2172169815908976e-73 2.7271142229035399e-73 0.0000000000000000e+00  -4.4194593141320531e-75 1.2912786123815915e-74 0.0000000000000000e+00  -2.5476532151267501e-75 4.2415546530523740e-75 0.0000000000000000e+00  -9.7695929245309299e-76 3.5577078798278260e-76 0.0000000000000000e+00  -1.6209453567551319e-75 -2.3908420084617932e-76 0.0000000000000000e+00  -2.4494243673507218e-74 1.1586378835896768e-74 0.0000000000000000e+00  -3.6792386837915728e-74 1.5494670613821073e-75 0.0000000000000000e+00  -3.8840048134686520e-73 1.4326406008923645e-73 0.0000000000000000e+00  -1.0243209444545741e-71 6.2333399744841784e-72 0.0000000000000000e+00  -6.7447677931136607e-71 3.7048008290172384e-71 0.0000000000000000e+00  -1.0610883368541826e-70 3.8987312182653055e-72 0.0000000000000000e+00  -8.9045989294013944e-70 3.3053425976680863e-70 0.0000000000000000e+00  -2.1305344645089267e-68 1.2847573638482406e-68 0.0000000000000000e+00  -1.0245835700008589e-67 5.1026146043350772e-68 0.0000000000000000e+00  -1.0124357968217573e-67 -6.0157449826505131e-68 0.0000000000000000e+00  -3.1690530173585460e-66 1.7430505095336992e-66 0.0000000000000000e+00  -3.1890023254946177e-65 1.8281696939305955e-65 0.0000000000000000e+00  -5.3870416941102386e-65 5.0349409282229016e-66 0.0000000000000000e+00  -4.4398386175459985e-64 1.4433806896919182e-64 0.0000000000000000e+00  -7.0039032378988178e-63 4.3480502457496962e-63 0.0000000000000000e+00  -1.5074404059247591e-62 3.7380907329832845e-63 0.0000000000000000e+00  -8.4384213171560050e-62 1.9613267471450411e-62 0.0000000000000000e+00  -1.3573638056141596e-60 8.4909414055533733e-61 0.0000000000000000e+00  -2.4179227154836589e-60 3.3700978735560969e-61 0.0000000000000000e+00  -2.1191967278091052e-59 7.3718014258389561e-60 0.0000000000000000e+00  -2.4218255582281718e-58 1.4885642794088858e-58 0.0000000000000000e+00  -2.5844593996331955e-58 -9.3764702171322803e-59 0.0000000000000000e+00  -5.9874461594195114e-57 2.7691079137618420e-57 0.0000000000000000e+00  -2.4878389164600218e-56 1.2329453478772650e-56 0.0000000000000000e+00  -5.5601791899409067e-56 -8.6306149393141514e-57 0.0000000000000000e+00  -1.0136330774139091e-54 6.4432469760204068e-55 0.0000000000000000e+00  -1.1193238171391879e-54 -3.4425587392434398e-55 0.0000000000000000e+00  -2.4126830762501144e-53 1.2613198651553278e-53 0.0000000000000000e+00  -6.6043686707548567e-53 2.9684446777297540e-53 0.0000000000000000e+00  -4.3611723326193809e-52 1.2160198795703073e-52 0.0000000000000000e+00  -2.6720462814418037e-51 1.6502635122864039e-51 0.0000000000000000e+00  -7.6653239013064569e-51 -2.1138423824885874e-52 0.0000000000000000e+00  -7.2136205658198835e-50 4.5580353565859820e-50 0.0000000000000000e+00  -1.6167610037978977e-49 -1.4623113847201246e-50 0.0000000000000000e+00  -1.7330854646911060e-48 1.0007398605014424e-48 0.0000000000000000e+00  -4.3407616579417465e-48 -2.0148671446304585e-49 0.0000000000000000e+00  -2.0173530504537951e-47 1.0986492820480917e-47 0.0000000000000000e+00  -1.1034246830131646e-46 1.8772731893853018e-47 0.0000000000000000e+00  -1.0254422630123254e-46 2.4334974542681561e-47 0.0000000000000000e+00  -1.2421959021350111e-45 5.1958641550251247e-46 0.0000000000000000e+00  -8.7246568192957281e-46 -5.6135892741686374e-46 0.0000000000000000e+00  -1.3448702426948635e-44 7.9774116192226425e-45 0.0000000000000000e+00  -5.7991566185308643e-44 1.3578753917360251e-44 0.0000000000000000e+00  -3.6131676326285077e-44 -1.7301055920869382e-44 0.0000000000000000e+00  -1.1433918799869682e-43 6.4217033027842309e-44 0.0000000000000000e+00  -8.4161236003835227e-43 2.2878229759843171e-43 0.0000000000000000e+00  -1.9295112271064485e-42 1.9513439585156975e-43 0.0000000000000000e+00  -2.5121245152204840e-42 6.0289988074823917e-44 0.0000000000000000e+00  -2.0148871728028464e-42 -1.9241566397356209e-43 0.0000000000000000e+00  -8.6169035669598191e-43 -2.4750896045041244e-43 0.0000000000000000e+00  -1.1333408391100577e-43 -6.3685311266146072e-44 0.0000000000000000e+00  -3.8690222050916433e-44 1.8278003961559874e-44 0.0000000000000000e+00  -6.3194765865041653e-44 -1.0697207064807774e-44 0.0000000000000000e+00  -1.5007868563701788e-44 -7.7757131585136669e-45 0.0000000000000000e+00  -9.9749601029686773e-46 5.6062824919222103e-46 0.0000000000000000e+00  -1.4055999946579246e-45 -5.3264719665829883e-46 0.0000000000000000e+00  -1.1217154798443528e-46 -2.8237780598395690e-47 0.0000000000000000e+00  -1.0189536508228543e-46 -2.1201592827815818e-47 0.0000000000000000e+00  -1.8653066289131184e-47 -1.1846934283491060e-47 0.0000000000000000e+00  -4.0852050159475520e-48 2.0059875403469513e-49 0.0000000000000000e+00  -1.4905443048011265e-48 -9.2661181984824636e-49 0.0000000000000000e+00  -1.6322758612661170e-49 2.4289336865682062e-50 0.0000000000000000e+00  -7.4767448932095862e-50 -4.3789228815702418e-50 0.0000000000000000e+00  -8.2437549255292115e-51 6.3366725792491081e-52 0.0000000000000000e+00  -3.1534267873879714e-51 -1.7677966138512793e-51 0.0000000000000000e+00  -5.1081432343161642e-52 -1.1374335792896061e-52 0.0000000000000000e+00  -8.2221012721089696e-53 -3.5179234436600526e-53 0.0000000000000000e+00  -2.6678700724080048e-53 -1.3055885618705871e-53 0.0000000000000000e+00  -1.1957237163446363e-54 3.2148877525844538e-55 0.0000000000000000e+00  -1.0667561081888736e-54 -6.7571288964653148e-55 0.0000000000000000e+00  -5.1485585813217153e-56 8.2855446549888066e-57 0.0000000000000000e+00  -2.3423695759408901e-56 -1.3153534928163543e-56 0.0000000000000000e+00  -4.8345751101971226e-57 -2.5064132336243066e-57 0.0000000000000000e+00  -2.4550867241167196e-58 8.4962812297513599e-59 0.0000000000000000e+00  -2.1637002016902149e-58 -1.3213937113772197e-58 0.0000000000000000e+00  -1.9934227641843123e-59 -6.1167868810877860e-60 0.0000000000000000e+00  -2.3762262769254002e-60 -3.3795330204725306e-61 0.0000000000000000e+00  -1.2936438786898825e-60 -7.5747940083297081e-61 0.0000000000000000e+00  -7.6979636222778532e-62 -2.1355715927283553e-62 0.0000000000000000e+00  -1.3603773711113804e-62 -2.9188864679865821e-63 0.0000000000000000e+00  -6.6512979574308744e-63 -3.7748444098765998e-63 0.0000000000000000e+00  -4.7883872294236390e-64 -1.8138972002932309e-64 0.0000000000000000e+00  -4.3635820018567408e-65 9.5508556621937076e-67 0.0000000000000000e+00  -2.9525867412587635e-65 -1.6574611744159935e-65 0.0000000000000000e+00  -3.4180725253045162e-66 -1.9837908001589815e-66 0.0000000000000000e+00  -8.9821861610444098e-68 5.4673022773244381e-68 0.0000000000000000e+00  -8.6454482477905793e-68 -4.1688085354171671e-68 0.0000000000000000e+00  -2.0706333709760126e-68 -1.2826185190577723e-68 0.0000000000000000e+00  -1.1334724807078607e-69 -5.1257471552082368e-70 0.0000000000000000e+00  -8.7922222833054371e-71 1.3768673389664169e-71 0.0000000000000000e+00  -6.9130992182719866e-71 -3.6526290803042193e-71 0.0000000000000000e+00  -1.2487669697288831e-71 -7.6544002227229074e-72 0.0000000000000000e+00  -5.9842783226698791e-73 -2.7489744102400090e-73 0.0000000000000000e+00  -3.9231481338502805e-74 7.4180701487959439e-75 0.0000000000000000e+00  -3.1573797365151314e-74 -1.4782730898394232e-74 0.0000000000000000e+00  -6.5917718634385748e-75 -3.3560738714038951e-75 0.0000000000000000e+00  -7.1802173851390621e-76 -3.1068739030165888e-76 0.0000000000000000e+00  -8.5506856916794726e-76 -1.6229560429452331e-75 0.0000000000000000e+00  -4.7727416550763482e-75 -1.3946636456855984e-74 0.0000000000000000e+00  4.3641901854677500e-75 -8.3063249899400588e-75 0.0000000000000000e+00  -1.6283201344699742e-73 -3.4281829847837135e-73 0.0000000000000000e+00  -9.2768472355046671e-71 -1.0077035594074246e-70 0.0000000000000000e+00  -7.4980254074377129e-70 -1.3184515571525660e-69 0.0000000000000000e+00  -1.0970004611913348e-69 -3.6524827234778990e-69 0.0000000000000000e+00  -7.7496385916349820e-68 -1.7123856028141454e-67 0.0000000000000000e+00  -6.5198719657422433e-68 -3.2608874477930490e-67 0.0000000000000000e+00  -6.7776041351484641e-66 -1.3510835820444647e-65 0.0000000000000000e+00  -4.5101653160148722e-66 -2.1324166051043145e-65 0.0000000000000000e+00  -9.0486865985727310e-65 -1.5592298323047636e-64 0.0000000000000000e+00  1.7175399317780560e-65 -2.1032180309248116e-64 0.0000000000000000e+00  -4.2642992795456330e-62 -6.4112741990568008e-62 0.0000000000000000e+00  -6.9777766204915018e-62 -1.7222692656675267e-61 0.0000000000000000e+00  -2.3185210161082007e-62 -2.7291818293037048e-61 0.0000000000000000e+00  -5.7214363452361561e-60 -1.1376265821382099e-59 0.0000000000000000e+00  4.7490636179271726e-60 -1.5007650082838585e-59 0.0000000000000000e+00  -2.8899458600217987e-59 -4.7564529495698076e-59 0.0000000000000000e+00  8.7851462142515472e-60 -6.0837331946390462e-59 0.0000000000000000e+00  2.3151622617644814e-59 -3.9653974901157429e-59 0.0000000000000000e+00  -5.6130600768357827e-58 -8.9632882168681108e-58 0.0000000000000000e+00  -1.3736945916106043e-59 -1.2602782157677793e-57 0.0000000000000000e+00  -4.6118936823878228e-57 -1.1651010074416976e-56 0.0000000000000000e+00  5.7188880625856846e-57 -8.6572781357187712e-57 0.0000000000000000e+00  -5.3053658104392664e-57 -7.3538550237515682e-57 0.0000000000000000e+00  -1.7571977374694411e-56 -3.7786480940869198e-56 0.0000000000000000e+00  2.1489017244119817e-56 -4.0647966168054792e-56 0.0000000000000000e+00  -4.9725067160287262e-57 -9.2154565719812301e-57 0.0000000000000000e+00  -8.0684968188234817e-56 -2.0334106315754051e-55 0.0000000000000000e+00  6.3253901377755499e-56 -5.0752592006428859e-55 0.0000000000000000e+00  -4.2610270174969802e-55 -7.2700836638320155e-55 0.0000000000000000e+00  -4.8631990537087113e-56 -1.8359320006150476e-54 0.0000000000000000e+00  1.6484109850721390e-55 -5.7353192201284058e-55 0.0000000000000000e+00  -5.1462119396274907e-55 -1.6773967449052056e-54 0.0000000000000000e+00  -2.2373819631891947e-54 -7.0777426817687120e-54 0.0000000000000000e+00  2.5619334866230739e-54 -6.0708248128118804e-54 0.0000000000000000e+00  -6.6693674688572073e-55 -2.3913788495591725e-54 0.0000000000000000e+00  5.2801185407329927e-55 -2.8181445169325591e-54 0.0000000000000000e+00  1.2707668203442278e-55 -1.4246443865616185e-54 0.0000000000000000e+00  -2.1622128901845241e-54 -3.4707185833911514e-54 0.0000000000000000e+00  5.6585967104357327e-55 -8.2268272895073609e-54 0.0000000000000000e+00  -3.8975868624178639e-54 -1.3564622387234882e-53 0.0000000000000000e+00  4.6515839316685815e-54 -7.7089397857090414e-54 0.0000000000000000e+00  2.0137171124891005e-55 -6.5043894542281300e-55 0.0000000000000000e+00  -4.7591473241844624e-54 -8.0134668937066745e-54 0.0000000000000000e+00  4.7842115053737565e-54 -7.8669710551135960e-54 0.0000000000000000e+00  -1.6471789559420082e-56 -1.3350610016256977e-55 0.0000000000000000e+00  1.1052533547584441e-56 -2.7682615939034675e-55 0.0000000000000000e+00  2.1873044341121317e-56 -9.8797242062743594e-56 0.0000000000000000e+00  -5.1584048387149005e-54 -9.3529849228508145e-54 0.0000000000000000e+00  5.5021951486861177e-54 -9.4108874635752053e-54 0.0000000000000000e+00  5.6255864114931612e-56 -1.0522868162441861e-55 0.0000000000000000e+00  -1.4203981768576859e-56 -6.2039693081704468e-56 0.0000000000000000e+00  -4.9563905190200563e-55 -9.0413837936915306e-55 0.0000000000000000e+00  -5.7654875051416742e-54 -1.0038611249809501e-53 0.0000000000000000e+00  4.4663095816220084e-54 -1.0498614862316631e-53 0.0000000000000000e+00  -3.0274827709426071e-54 -7.9802783025106778e-54 0.0000000000000000e+00  2.4192896711051787e-54 -8.5543841570219013e-54 0.0000000000000000e+00  2.2287797759174242e-54 -3.3108025265615497e-54 0.0000000000000000e+00  -5.3948430771136272e-55 -1.4786859688496037e-54 0.0000000000000000e+00  8.2949327470443140e-55 -1.5758623145590616e-54 0.0000000000000000e+00  -4.8866696844982364e-55 -9.8207851697541367e-55 0.0000000000000000e+00  5.0889415421836639e-55 -8.8685337545337077e-55 0.0000000000000000e+00  -1.5556386231198861e-56 -2.6878960997332481e-56 0.0000000000000000e+00  -4.4449201209358031e-56 -1.7206490859112355e-55 0.0000000000000000e+00  4.1468095606422698e-56 -1.7480279973626812e-55 0.0000000000000000e+00  4.7785617703152209e-57 -6.9045996215350876e-56 0.0000000000000000e+00  -2.7316054615195179e-56 -6.5346126182349093e-56 0.0000000000000000e+00  3.2685488830547158e-56 -6.4235242500141473e-56 0.0000000000000000e+00  -2.8422333267803908e-57 -2.8724929984727143e-56 0.0000000000000000e+00  1.2891192121465342e-56 -3.0059458358292360e-56 0.0000000000000000e+00  9.9729198942637462e-58 -2.4020749974950180e-57 0.0000000000000000e+00  -4.3598344447308673e-57 -7.6259975218896812e-57 0.0000000000000000e+00  4.2300964823053051e-57 -1.1019341418696362e-56 0.0000000000000000e+00  3.1100598025800251e-58 -1.0222078944678299e-57 0.0000000000000000e+00  1.4316145868326959e-58 -5.0302