<?xml version="1.0"?>
<VTKFile type="UnstructuredGrid"  version="0.1"  >
<UnstructuredGrid>
<Piece  NumberOfPoints="11902" NumberOfCells="23402">
<Points>
<DataArray  type="Float64"  NumberOfComponents="3"  format="ascii">-5 -5 0  5 -5 0  5 5 0  -5 5 0  1.202267350705759 0.001299808911788001 0  -4.9 -5 0  -4.8 -5 0  -4.7 -5 0  -4.6 -5 0  -4.5 -5 0  -4.4 -5 0  -4.3 -5 0  -4.2 -5 0  -4.1 -5 0  -4 -5 0  -3.9 -5 0  -3.8 -5 0  -3.7 -5 0  -3.6 -5 0  -3.5 -5 0  -3.4 -5 0  -3.3 -5 0  -3.2 -5 0  -3.1 -5 0  -3 -5 0  -2.9 -5 0  -2.8 -5 0  -2.7 -5 0  -2.6 -5 0  -2.5 -5 0  -2.4 -5 0  -2.3 -5 0  -2.2 -5 0  -2.1 -5 0  -2 -5 0  -1.9 -5 0  -1.8 -5 0  -1.7 -5 0  -1.6 -5 0  -1.5 -5 0  -1.4 -5 0  -1.3 -5 0  -1.2 -5 0  -1.1 -5 0  -1 -5 0  -0.9000000000000004 -5 0  -0.7999999999999998 -5 0  -0.7000000000000002 -5 0  -0.5999999999999996 -5 0  -0.5 -5 0  -0.4000000000000004 -5 0  -0.2999999999999998 -5 0  -0.2000000000000002 -5 0  -0.09999999999999964 -5 0  0 -5 0  0.09999999999999964 -5 0  0.2000000000000002 -5 0  0.2999999999999998 -5 0  0.4000000000000004 -5 0  0.5 -5 0  0.5999999999999996 -5 0  0.7000000000000002 -5 0  0.7999999999999998 -5 0  0.9000000000000004 -5 0  1 -5 0  1.1 -5 0  1.2 -5 0  1.3 -5 0  1.4 -5 0  1.5 -5 0  1.6 -5 0  1.7 -5 0  1.8 -5 0  1.9 -5 0  2 -5 0  2.1 -5 0  2.2 -5 0  2.3 -5 0  2.4 -5 0  2.5 -5 0  2.6 -5 0  2.7 -5 0  2.8 -5 0  2.9 -5 0  3 -5 0  3.1 -5 0  3.199999999999999 -5 0  3.300000000000001 -5 0  3.4 -5 0  3.5 -5 0  3.6 -5 0  3.699999999999999 -5 0  3.800000000000001 -5 0  3.9 -5 0  4 -5 0  4.1 -5 0  4.199999999999999 -5 0  4.300000000000001 -5 0  4.4 -5 0  4.5 -5 0  4.6 -5 0  4.699999999999999 -5 0  4.800000000000001 -5 0  4.9 -5 0  5 -4.9 0  5 -4.8 0  5 -4.7 0  5 -4.6 0  5 -4.5 0  5 -4.4 0  5 -4.3 0  5 -4.2 0  5 -4.1 0  5 -4 0  5 -3.9 0  5 -3.8 0  5 -3.7 0  5 -3.6 0  5 -3.5 0  5 -3.4 0  5 -3.3 0  5 -3.2 0  5 -3.1 0  5 -3 0  5 -2.9 0  5 -2.8 0  5 -2.7 0  5 -2.6 0  5 -2.5 0  5 -2.4 0  5 -2.3 0  5 -2.2 0  5 -2.1 0  5 -2 0  5 -1.9 0  5 -1.8 0  5 -1.7 0  5 -1.6 0  5 -1.5 0  5 -1.4 0  5 -1.3 0  5 -1.2 0  5 -1.1 0  5 -1 0  5 -0.9000000000000004 0  5 -0.7999999999999998 0  5 -0.7000000000000002 0  5 -0.5999999999999996 0  5 -0.5 0  5 -0.4000000000000004 0  5 -0.2999999999999998 0  5 -0.2000000000000002 0  5 -0.09999999999999964 0  5 0 0  5 0.09999999999999964 0  5 0.2000000000000002 0  5 0.2999999999999998 0  5 0.4000000000000004 0  5 0.5 0  5 0.5999999999999996 0  5 0.7000000000000002 0  5 0.7999999999999998 0  5 0.9000000000000004 0  5 1 0  5 1.1 0  5 1.2 0  5 1.3 0  5 1.4 0  5 1.5 0  5 1.6 0  5 1.7 0  5 1.8 0  5 1.9 0  5 2 0  5 2.1 0  5 2.2 0  5 2.3 0  5 2.4 0  5 2.5 0  5 2.6 0  5 2.7 0  5 2.8 0  5 2.9 0  5 3 0  5 3.1 0  5 3.199999999999999 0  5 3.300000000000001 0  5 3.4 0  5 3.5 0  5 3.6 0  5 3.699999999999999 0  5 3.800000000000001 0  5 3.9 0  5 4 0  5 4.1 0  5 4.199999999999999 0  5 4.300000000000001 0  5 4.4 0  5 4.5 0  5 4.6 0  5 4.699999999999999 0  5 4.800000000000001 0  5 4.9 0  4.9 5 0  4.8 5 0  4.7 5 0  4.6 5 0  4.5 5 0  4.4 5 0  4.3 5 0  4.2 5 0  4.1 5 0  4 5 0  3.9 5 0  3.8 5 0  3.7 5 0  3.6 5 0  3.5 5 0  3.4 5 0  3.3 5 0  3.2 5 0  3.1 5 0  3 5 0  2.9 5 0  2.8 5 0  2.7 5 0  2.6 5 0  2.5 5 0  2.4 5 0  2.3 5 0  2.2 5 0  2.1 5 0  2 5 0  1.9 5 0  1.8 5 0  1.7 5 0  1.6 5 0  1.5 5 0  1.4 5 0  1.3 5 0  1.2 5 0  1.1 5 0  1 5 0  0.9000000000000004 5 0  0.7999999999999998 5 0  0.7000000000000002 5 0  0.5999999999999996 5 0  0.5 5 0  0.4000000000000004 5 0  0.2999999999999998 5 0  0.2000000000000002 5 0  0.09999999999999964 5 0  0 5 0  -0.09999999999999964 5 0  -0.2000000000000002 5 0  -0.2999999999999998 5 0  -0.4000000000000004 5 0  -0.5 5 0  -0.5999999999999996 5 0  -0.7000000000000002 5 0  -0.7999999999999998 5 0  -0.9000000000000004 5 0  -1 5 0  -1.1 5 0  -1.2 5 0  -1.3 5 0  -1.4 5 0  -1.5 5 0  -1.6 5 0  -1.7 5 0  -1.8 5 0  -1.9 5 0  -2 5 0  -2.1 5 0  -2.2 5 0  -2.3 5 0  -2.4 5 0  -2.5 5 0  -2.6 5 0  -2.7 5 0  -2.8 5 0  -2.9 5 0  -3 5 0  -3.1 5 0  -3.199999999999999 5 0  -3.300000000000001 5 0  -3.4 5 0  -3.5 5 0  -3.6 5 0  -3.699999999999999 5 0  -3.800000000000001 5 0  -3.9 5 0  -4 5 0  -4.1 5 0  -4.199999999999999 5 0  -4.300000000000001 5 0  -4.4 5 0  -4.5 5 0  -4.6 5 0  -4.699999999999999 5 0  -4.800000000000001 5 0  -4.9 5 0  -5 4.9 0  -5 4.8 0  -5 4.7 0  -5 4.6 0  -5 4.5 0  -5 4.4 0  -5 4.3 0  -5 4.2 0  -5 4.1 0  -5 4 0  -5 3.9 0  -5 3.8 0  -5 3.7 0  -5 3.6 0  -5 3.5 0  -5 3.4 0  -5 3.3 0  -5 3.2 0  -5 3.1 0  -5 3 0  -5 2.9 0  -5 2.8 0  -5 2.7 0  -5 2.6 0  -5 2.5 0  -5 2.4 0  -5 2.3 0  -5 2.2 0  -5 2.1 0  -5 2 0  -5 1.9 0  -5 1.8 0  -5 1.7 0  -5 1.6 0  -5 1.5 0  -5 1.4 0  -5 1.3 0  -5 1.2 0  -5 1.1 0  -5 1 0  -5 0.9000000000000004 0  -5 0.7999999999999998 0  -5 0.7000000000000002 0  -5 0.5999999999999996 0  -5 0.5 0  -5 0.4000000000000004 0  -5 0.2999999999999998 0  -5 0.2000000000000002 0  -5 0.09999999999999964 0  -5 0 0  -5 -0.09999999999999964 0  -5 -0.2000000000000002 0  -5 -0.2999999999999998 0  -5 -0.4000000000000004 0  -5 -0.5 0  -5 -0.5999999999999996 0  -5 -0.7000000000000002 0  -5 -0.7999999999999998 0  -5 -0.9000000000000004 0  -5 -1 0  -5 -1.1 0  -5 -1.2 0  -5 -1.3 0  -5 -1.4 0  -5 -1.5 0  -5 -1.6 0  -5 -1.7 0  -5 -1.8 0  -5 -1.9 0  -5 -2 0  -5 -2.1 0  -5 -2.2 0  -5 -2.3 0  -5 -2.4 0  -5 -2.5 0  -5 -2.6 0  -5 -2.7 0  -5 -2.8 0  -5 -2.9 0  -5 -3 0  -5 -3.1 0  -5 -3.199999999999999 0  -5 -3.300000000000001 0  -5 -3.4 0  -5 -3.5 0  -5 -3.6 0  -5 -3.699999999999999 0  -5 -3.800000000000001 0  -5 -3.9 0  -5 -4 0  -5 -4.1 0  -5 -4.199999999999999 0  -5 -4.300000000000001 0  -5 -4.4 0  -5 -4.5 0  -5 -4.6 0  -5 -4.699999999999999 0  -5 -4.800000000000001 0  -5 -4.9 0  1.19624302521231 0.09896721548515094 0  1.177398505311457 0.1970529939387497 0  1.145917965502256 0.2942526019256366 0  1.105218803263576 0.3856389337225692 0  1.052247826976805 0.4762865879459741 0  0.9899272742234395 0.5613623818550665 0  0.9166447283159167 0.6411328653773829 0  0.8341159791053856 0.7139773421544782 0  0.744575851159898 0.7796175117128047 0  0.6467561489447861 0.8380921854171002 0  0.5418036080959523 0.8890295255797401 0  0.4327893134141043 0.9310043013953581 0  0.3214750977587491 0.9638360201084198 0  0.2044123689951999 0.9862190978166402 0  0.08862788131142164 1.001027153778421 0  -0.02771384856039806 1.003817952469532 0  -0.1442739765677492 0.9938889671643212 0  -0.2624773091803185 0.9761555759883545 0  -0.3772330804037947 0.9500574509638875 0  -0.4867432250634142 0.913557959499993 0  -0.5915963805865063 0.8679315107604327 0  -0.6913437287908659 0.8132152033095038 0  -0.7839101048827761 0.7502189213024819 0  -0.8700713908971193 0.6795830366365636 0  -0.9489804328918459 0.6014444198670238 0  -1.017462561140846 0.51909617425384 0  -1.076371390952339 0.4322347502415346 0  -1.123985360000098 0.34018658781036 0  -1.159664819002455 0.2462630022219864 0  -1.183613112428381 0.1498245133270421 0  -1.195738934523504 0.05076890511169885 0  -1.195730470300441 -0.04897430297854323 0  -1.183537763612482 -0.1476840867267826 0  -1.160425018677601 -0.2441123445167513 0  -1.123405798038997 -0.3398477357642453 0  -1.076723534476049 -0.4310547887871526 0  -1.018479281471153 -0.5182152093512207 0  -0.9505523804611495 -0.6001066781789407 0  -0.87199132167413 -0.6770558758744997 0  -0.7854599779141634 -0.7466440688881316 0  -0.6915467034159923 -0.8078982968260228 0  -0.5917633650068661 -0.8621796553945338 0  -0.483912531710433 -0.9091375563268747 0  -0.373791609150431 -0.9472314778067462 0  -0.2595638158276053 -0.9748508062762928 0  -0.1428790727096489 -0.9930059713145399 0  -0.0273694308537014 -1.00292712535825 0  0.0892346929177044 -0.9983804868206791 0  0.2074161762407323 -0.9838798927361985 0  0.3231543155058558 -0.9621654696300052 0  0.4362451149065545 -0.9295811716903026 0  0.5435233859347267 -0.8880756958090434 0  0.6474946105600351 -0.8377234461279047 0  0.7447376767529839 -0.7806208556234705 0  0.8341743959116185 -0.714713273449886 0  0.9161348513734856 -0.6405883788250502 0  0.9884426443446528 -0.5607099460114537 0  1.052089610239794 -0.4757071256242693 0  1.1062422631919 -0.3857019004948991 0  1.14736333541506 -0.2927541969159294 0  1.177675185742672 -0.1962101785344921 0  1.196269689442234 -0.09849997260634931 0  -2.44876935743649 4.918495875700705 0  -2.448662131875087 -4.910908894579167 0  4.910842644733843 2.448190260066799 0  4.918930065809158 -2.449624973273921 0  2.446428884234406 -4.896212762940712 0  2.440853761686734 4.899959526547537 0  -4.91086639678687 -2.448213505214218 0  -4.910864572984343 2.448217346408055 0  -1.748731102509919 4.911553680685294 0  -1.744508513327143 -4.914973330205975 0  4.921130777819045 1.74433730831799 0  4.909735106058609 -1.748137469179409 0  -4.910022801717441 -1.747867304641512 0  -4.910840907310956 1.747609011908617 0  1.746017374361019 4.905450269795821 0  1.747457993267392 -4.893665768666522 0  -1.148998464218472 4.909452528850543 0  -1.129839111384321 -4.917313861846415 0  -4.909885226064914 -1.148142617059817 0  -4.909705771922495 1.147942761451754 0  1.143983051835735 -4.913524937025884 0  1.149006530715758 4.909441088435836 0  4.910030868997717 1.146419762162661 0  4.920777449050995 -1.152176664436036 0  -0.546750790590027 -4.910698747913377 0  -0.5465254670557064 4.919320141882354 0  -4.908734395370465 -0.5488279775573126 0  -4.908758755009197 0.5473843876536557 0  4.908067108638909 -0.5491486539600305 0  4.919622341709272 0.5458897100323307 0  0.5425411362628003 -4.89767603786602 0  0.5512555875194162 4.916167099287589 0  -4.912158949524582 -3.048520868650888 0  4.918712125125866 3.046522360346817 0  4.911669696931257 -3.048500203235005 0  -4.913005396589007 3.045610599926827 0  3.05547269410312 -4.917648245453597 0  -3.048816445075699 -4.911602190934453 0  3.052379729157764 4.913675204958905 0  -3.048260871375442 4.912489788140454 0  -4.907886140890042 -0.04991962029909135 0  0.04512496121621715 -4.912654362303716 0  0.04957319104268487 4.919629479187734 0  4.914884758289445 -0.05130095947943948 0  3.545755285562835 -4.919212328471843 0  -3.549047618466831 4.9
[...]
<PointData  Vectors="f_2350"> 
<DataArray  type="Float64"  Name="f_2350"  NumberOfComponents="3" format="ascii">2.6559658580599500e-76 2.6559658580599500e-76 0.0000000000000000e+00  -2.8445085011138134e-76 2.8445085011138134e-76 0.0000000000000000e+00  -8.5659604779059882e-78 -8.5659604779059882e-78 0.0000000000000000e+00  3.0308186857309526e-76 -3.0308186857309526e-76 0.0000000000000000e+00  -3.8672645641541370e-01 -7.3965378961757811e-03 0.0000000000000000e+00  4.1653575793819480e-75 6.6067400094456561e-75 0.0000000000000000e+00  2.0829464210042717e-75 2.0879480789872381e-74 0.0000000000000000e+00  -3.4042080383529612e-75 6.7701153865332875e-75 0.0000000000000000e+00  3.9982109680639646e-72 6.6698192932102345e-72 0.0000000000000000e+00  5.3141731513073997e-71 1.3460669439034883e-70 0.0000000000000000e+00  -7.9128932868774907e-72 4.5546280028865329e-71 0.0000000000000000e+00  3.2313210017183839e-69 6.1649862304822429e-69 0.0000000000000000e+00  5.1557509892882017e-68 9.4037735185956639e-68 0.0000000000000000e+00  -3.0599979468413774e-68 1.4996588735479531e-67 0.0000000000000000e+00  1.2751432681639478e-67 3.9831142062677724e-67 0.0000000000000000e+00  1.2686775364527642e-68 8.7787298424205008e-67 0.0000000000000000e+00  5.4426045952150704e-64 8.8306600340180363e-64 0.0000000000000000e+00  4.7540073697019675e-65 2.4418241881428430e-63 0.0000000000000000e+00  1.3464359032107842e-62 2.2012102955636693e-62 0.0000000000000000e+00  8.0546258186968420e-63 8.3191815472645241e-62 0.0000000000000000e+00  6.9148495757543295e-61 1.1035685426127168e-60 0.0000000000000000e+00  4.0517763855655478e-60 7.0146075762825074e-60 0.0000000000000000e+00  -2.8389002566865404e-60 7.6931507810573053e-60 0.0000000000000000e+00  5.6458439497071031e-59 1.1379810249146481e-58 0.0000000000000000e+00  -1.7530524938571858e-59 1.1642482418618770e-58 0.0000000000000000e+00  -2.9927852394755335e-59 6.8315334673902364e-59 0.0000000000000000e+00  1.7956846137219342e-58 3.3084625223631075e-58 0.0000000000000000e+00  7.2718984538933562e-58 2.0911517917601360e-57 0.0000000000000000e+00  2.8487978426391807e-57 6.2398993238314407e-57 0.0000000000000000e+00  -3.3921821811771025e-57 5.7295789574042451e-57 0.0000000000000000e+00  -3.5060501432011509e-58 1.0969098082144840e-57 0.0000000000000000e+00  1.8994682550482375e-56 2.9367747564341402e-56 0.0000000000000000e+00  -1.4061216123697344e-56 3.5273312671393240e-56 0.0000000000000000e+00  1.1851940277340649e-56 2.8964226222971699e-56 0.0000000000000000e+00  8.6911732592507335e-56 2.0997437011318347e-55 0.0000000000000000e+00  -2.4889180307743432e-56 5.7429356318430748e-55 0.0000000000000000e+00  5.1793818566064823e-57 8.6249579492291269e-57 0.0000000000000000e+00  5.5113338342936439e-56 1.3830077783428455e-55 0.0000000000000000e+00  1.5395319057033278e-55 6.1731723825442720e-55 0.0000000000000000e+00  -2.2213527311651047e-55 3.5115776151166653e-55 0.0000000000000000e+00  9.7705000423544277e-55 1.7249995436865822e-54 0.0000000000000000e+00  -4.3853188215759771e-55 4.3608409268879354e-54 0.0000000000000000e+00  -2.2643266612423335e-55 2.6817260596178526e-54 0.0000000000000000e+00  -9.5430114914653266e-56 9.4383760502672684e-55 0.0000000000000000e+00  -1.1226038089588821e-55 1.8203886720585459e-55 0.0000000000000000e+00  2.7392123705205172e-54 5.2375764715714787e-54 0.0000000000000000e+00  -2.1432209205037242e-54 4.1362162784500016e-54 0.0000000000000000e+00  -7.1358476179735869e-55 8.0724437997516431e-55 0.0000000000000000e+00  -1.3099220738644630e-55 2.7119862297681408e-55 0.0000000000000000e+00  9.2289806690186499e-55 1.4459660832453995e-54 0.0000000000000000e+00  9.3804307952884322e-55 6.1555135808311936e-54 0.0000000000000000e+00  -1.1192285667792216e-54 5.8986673174386486e-54 0.0000000000000000e+00  5.1056927390116163e-55 4.6485740230364864e-54 0.0000000000000000e+00  1.8973792711207241e-56 5.7933901429247089e-54 0.0000000000000000e+00  2.9928413811897700e-55 6.1515629195210781e-54 0.0000000000000000e+00  -1.2513195344086314e-54 2.0443865408046577e-54 0.0000000000000000e+00  -6.4056251597592703e-55 1.4725175467113761e-53 0.0000000000000000e+00  4.4275588368658428e-54 7.4670973346737016e-54 0.0000000000000000e+00  -4.3123906846456643e-54 8.0987583377646465e-54 0.0000000000000000e+00  1.9065858648468896e-54 3.9554231352090461e-54 0.0000000000000000e+00  -7.3082144656665814e-55 9.5001190645952490e-54 0.0000000000000000e+00  1.3204227283581374e-54 9.3279769564038938e-54 0.0000000000000000e+00  -1.6721258715969997e-54 4.3984608538349427e-54 0.0000000000000000e+00  -9.1828123425029102e-55 2.4060823874128715e-54 0.0000000000000000e+00  3.3064323919361567e-55 1.2992033624120672e-54 0.0000000000000000e+00  2.6365402939271838e-55 2.5373177822577498e-54 0.0000000000000000e+00  -7.8023837670274065e-56 3.4901285457533804e-54 0.0000000000000000e+00  -7.0655234218693008e-55 1.4827544595019911e-54 0.0000000000000000e+00  2.3620958879950291e-55 4.4219013987124165e-55 0.0000000000000000e+00  -2.2953825135674620e-55 6.0278172631580904e-55 0.0000000000000000e+00  5.0007556883467590e-56 2.3971324032227573e-55 0.0000000000000000e+00  1.8544859245687621e-55 9.5207495964681256e-55 0.0000000000000000e+00  -3.2847970004863481e-55 5.3082880282827058e-55 0.0000000000000000e+00  -1.5823769129053733e-56 4.8251969161877177e-56 0.0000000000000000e+00  -1.1298675607563501e-57 1.1335234837164720e-56 0.0000000000000000e+00  6.7168716676533971e-57 2.3538146909751969e-56 0.0000000000000000e+00  -8.9492088647536435e-57 1.5037286331939666e-56 0.0000000000000000e+00  1.7333656669271457e-57 2.8837881100970992e-57 0.0000000000000000e+00  -1.2386089640680786e-57 2.7265951017037868e-57 0.0000000000000000e+00  5.1533927276286567e-57 7.7995953354691774e-57 0.0000000000000000e+00  -4.5149699970948352e-57 1.1258539639578048e-56 0.0000000000000000e+00  -1.8064789648562822e-58 9.3980921742408599e-58 0.0000000000000000e+00  -2.3830467891390082e-58 4.6563846408976703e-58 0.0000000000000000e+00  -7.8489650750219293e-61 8.8104629365074775e-59 0.0000000000000000e+00  -2.4373610895881728e-59 6.4265882386973829e-59 0.0000000000000000e+00  -7.0920418956225821e-60 2.5008071453896703e-59 0.0000000000000000e+00  -4.3728087607163762e-60 2.2392291904177364e-59 0.0000000000000000e+00  -3.0541167512872459e-60 7.1721757001591551e-60 0.0000000000000000e+00  -8.4993299341639976e-62 4.4363378272762339e-61 0.0000000000000000e+00  -1.0730243079056694e-61 2.2354458953329919e-61 0.0000000000000000e+00  -3.5787115586249475e-62 5.6787011917956868e-62 0.0000000000000000e+00  -3.9010992401216615e-64 6.7023983047397118e-64 0.0000000000000000e+00  -2.4263251206544880e-65 5.1734117735310775e-65 0.0000000000000000e+00  3.7003277368124419e-66 1.0382386348218584e-65 0.0000000000000000e+00  -4.8343988555016365e-66 9.2661596253406168e-66 0.0000000000000000e+00  -6.6892102118196531e-68 2.7716962525741943e-67 0.0000000000000000e+00  -7.8428185553434673e-68 1.2924045828994159e-67 0.0000000000000000e+00  -8.0516209872395028e-69 1.1737813470708441e-68 0.0000000000000000e+00  -5.6278569952992627e-70 9.5237556961570533e-70 0.0000000000000000e+00  -3.7764726680270896e-71 6.8205568977554479e-71 0.0000000000000000e+00  -1.8772796583655838e-72 3.2034685509265495e-72 0.0000000000000000e+00  -1.2173049090520723e-73 2.7270375102712378e-73 0.0000000000000000e+00  -4.4197393917059664e-75 1.2912541980459989e-74 0.0000000000000000e+00  -2.5477311157444494e-75 4.2414865939759396e-75 0.0000000000000000e+00  -9.7694610521926007e-76 3.5578232508711478e-76 0.0000000000000000e+00  -1.6209784824513191e-75 -2.3911335252634008e-76 0.0000000000000000e+00  -2.4493243384678138e-74 1.1587257617730209e-74 0.0000000000000000e+00  -3.6792186573810083e-74 1.5496441866527396e-75 0.0000000000000000e+00  -3.8838151919858146e-73 1.4328079881819458e-73 0.0000000000000000e+00  -1.0242053940771461e-71 6.2343742587049627e-72 0.0000000000000000e+00  -6.7439439627499501e-71 3.7055462255756147e-71 0.0000000000000000e+00  -1.0610781377822461e-70 3.8996665864790857e-72 0.0000000000000000e+00  -8.9037369720842721e-70 3.3061307222601564e-70 0.0000000000000000e+00  -2.1301300600029921e-68 1.2851363473639283e-68 0.0000000000000000e+00  -1.0244043042612896e-67 5.1043247793351527e-68 0.0000000000000000e+00  -1.0126745676412447e-67 -6.0180803907597431e-68 0.0000000000000000e+00  -3.1683528856838655e-66 1.7437368722394766e-66 0.0000000000000000e+00  -3.1881960567674428e-65 1.8289807160901278e-65 0.0000000000000000e+00  -5.3868011071390955e-65 5.0374260233345874e-66 0.0000000000000000e+00  -4.4391537558999562e-64 1.4440837577394140e-64 0.0000000000000000e+00  -7.0016142663621954e-63 4.3505097890356650e-63 0.0000000000000000e+00  -1.5072310658727848e-62 3.7404130820953798e-63 0.0000000000000000e+00  -8.4373552163218764e-62 1.9624797157320331e-62 0.0000000000000000e+00  -1.3568502431777570e-60 8.4969219140423904e-61 0.0000000000000000e+00  -2.4177085218506072e-60 3.3726942912294306e-61 0.0000000000000000e+00  -2.1187289372405283e-59 7.3774380745044376e-60 0.0000000000000000e+00  -2.4208259683615641e-58 1.4898451935815247e-58 0.0000000000000000e+00  -2.5851128860666198e-58 -9.3852800098740897e-59 0.0000000000000000e+00  -5.9855050321523735e-57 2.7717434131977726e-57 0.0000000000000000e+00  -2.4869490191589818e-56 1.2342262223622755e-56 0.0000000000000000e+00  -5.5608353194699913e-56 -8.6416644403573980e-57 0.0000000000000000e+00  -1.0131563902371468e-54 6.4506382037017837e-55 0.0000000000000000e+00  -1.1195810418002380e-54 -3.4468276297348212e-55 0.0000000000000000e+00  -2.4117389930830411e-53 1.2629015253953240e-53 0.0000000000000000e+00  -6.6021520304965985e-53 2.9724584084507957e-53 0.0000000000000000e+00  -4.3602576893539369e-52 1.2176328950389276e-52 0.0000000000000000e+00  -2.6708349378319174e-51 1.6526929679024700e-51 0.0000000000000000e+00  -7.6654236310740542e-51 -2.1192517445385715e-52 0.0000000000000000e+00  -7.2104006571756237e-50 4.5653076389608576e-50 0.0000000000000000e+00  -1.6168440594178391e-49 -1.4651790409722268e-50 0.0000000000000000e+00  -1.7324216630632498e-48 1.0024560281899004e-48 0.0000000000000000e+00  -4.3408321150996329e-48 -2.0194691401925281e-49 0.0000000000000000e+00  -2.0166938819184417e-47 1.1006649070926350e-47 0.0000000000000000e+00  -1.1033018398511666e-46 1.8805996088585335e-47 0.0000000000000000e+00  -1.0253188672709038e-46 2.4382584605594763e-47 0.0000000000000000e+00  -1.2419320189816019e-45 5.2060440346451296e-46 0.0000000000000000e+00  -8.7268712615274358e-46 -5.6251371392584406e-46 0.0000000000000000e+00  -1.3445595114876223e-44 7.9938556545365162e-45 0.0000000000000000e+00  -5.7986034241072889e-44 1.3606712563788615e-44 0.0000000000000000e+00  -3.6135273254902298e-44 -1.7338331581376720e-44 0.0000000000000000e+00  -1.1432542654105381e-43 6.4355192573022012e-44 0.0000000000000000e+00  -8.4156333025740432e-43 2.2927583995164975e-43 0.0000000000000000e+00  -1.9294488297865552e-42 1.9555561491794886e-43 0.0000000000000000e+00  -2.5120583032782411e-42 6.0421872015234834e-44 0.0000000000000000e+00  -2.0148247507233151e-42 -1.9283105662164765e-43 0.0000000000000000e+00  -8.6163990983916010e-43 -2.4804349360661654e-43 0.0000000000000000e+00  -1.1332061583287653e-43 -6.3822376782250834e-44 0.0000000000000000e+00  -3.8693997185809640e-44 1.8317387223741310e-44 0.0000000000000000e+00  -6.3190134590645364e-44 -1.0719089912232320e-44 0.0000000000000000e+00  -1.5004848449098045e-44 -7.7917425817805110e-45 0.0000000000000000e+00  -9.9771665936081546e-46 5.6178150743141745e-46 0.0000000000000000e+00  -1.4053308691192328e-45 -5.3369177371667496e-46 0.0000000000000000e+00  -1.1215713518466980e-46 -2.8292902448377590e-47 0.0000000000000000e+00  -1.0188198271190093e-46 -2.1239790525928705e-47 0.0000000000000000e+00  -1.8645990678760411e-47 -1.1868716389519605e-47 0.0000000000000000e+00  -4.0852714658143910e-48 2.0106263766966795e-49 0.0000000000000000e+00  -1.4899315447586998e-48 -9.2820429595143651e-49 0.0000000000000000e+00  -1.6324238854747429e-49 2.4334350829430620e-50 0.0000000000000000e+00  -7.4736558272583633e-50 -4.3859148522492660e-50 0.0000000000000000e+00  -8.2441580147748890e-51 6.3485971431282301e-52 0.0000000000000000e+00  -3.1521312640052099e-51 -1.7704046673136939e-51 0.0000000000000000e+00  -5.1072868787444808e-52 -1.1389309771813202e-52 0.0000000000000000e+00  -8.2194768633918694e-53 -3.5226836226209009e-53 0.0000000000000000e+00  -2.6668935942580289e-53 -1.3072294491777800e-53 0.0000000000000000e+00  -1.1959637316613007e-54 3.2188754265184420e-55 0.0000000000000000e+00  -1.0662565216929475e-54 -6.7648845096099664e-55 0.0000000000000000e+00  -5.1491874199238023e-56 8.2961250398982378e-57 0.0000000000000000e+00  -2.3414208666657815e-56 -1.3167198060596029e-56 0.0000000000000000e+00  -4.8328182720312045e-57 -2.5088021831735577e-57 0.0000000000000000e+00  -2.4556790064324523e-58 8.5042834041631975e-59 0.0000000000000000e+00  -2.1628120570907646e-58 -1.3225353984340972e-58 0.0000000000000000e+00  -1.9930356381203655e-59 -6.1214465523342496e-60 0.0000000000000000e+00  -2.3760115063588584e-60 -3.3821411437060583e-61 0.0000000000000000e+00  -1.2931854579164732e-60 -7.5801445980906869e-61 0.0000000000000000e+00  -7.6967829908787676e-62 -2.1368658795595416e-62 0.0000000000000000e+00  -1.3602133098831856e-62 -2.9207133229182710e-63 0.0000000000000000e+00  -6.6493058658175476e-63 -3.7769914239623466e-63 0.0000000000000000e+00  -4.7875122035589443e-64 -1.8148037385259759e-64 0.0000000000000000e+00  -4.3636277797971785e-65 9.5555975986512186e-67 0.0000000000000000e+00  -2.9518546149140991e-65 -1.6581991798075587e-65 0.0000000000000000e+00  -3.4172721513526414e-66 -1.9845776301454658e-66 0.0000000000000000e+00  -8.9843784748577146e-68 5.4694548593925719e-68 0.0000000000000000e+00  -8.6439814071750239e-68 -4.1702105625809925e-68 0.0000000000000000e+00  -2.0702290035297405e-68 -1.2829981820447770e-68 0.0000000000000000e+00  -1.1333351738581920e-69 -5.1270094419963506e-70 0.0000000000000000e+00  -8.7925851836743941e-71 1.3772009578813942e-71 0.0000000000000000e+00  -6.9122859429139755e-71 -3.6533662443042450e-71 0.0000000000000000e+00  -1.2486245956309862e-71 -7.6556770216821728e-72 0.0000000000000000e+00  -5.9838918766804798e-73 -2.7493170233656457e-73 0.0000000000000000e+00  -3.9232483011279718e-74 7.4189584564635365e-75 0.0000000000000000e+00  -3.1572412616929175e-74 -1.4783950941669053e-74 0.0000000000000000e+00  -6.5915820568723630e-75 -3.3562404496268004e-75 0.0000000000000000e+00  -7.1801644200277614e-76 -3.1069202533668100e-76 0.0000000000000000e+00  -8.5508950804377741e-76 -1.6229377123107225e-75 0.0000000000000000e+00  -4.7728780396774213e-75 -1.3946516472073524e-74 0.0000000000000000e+00  4.3646726973942696e-75 -8.3067440327918517e-75 0.0000000000000000e+00  -1.6285071762156775e-73 -3.4280206275139418e-73 0.0000000000000000e+00  -9.2783248562091525e-71 -1.0075762386590994e-70 0.0000000000000000e+00  -7.4994966301107531e-70 -1.3183260236975882e-69 0.0000000000000000e+00  -1.0972525790522532e-69 -3.6522695917000243e-69 0.0000000000000000e+00  -7.7516366038217934e-68 -1.7122181537156348e-67 0.0000000000000000e+00  -6.5218325828572553e-68 -3.2607255804071728e-67 0.0000000000000000e+00  -6.7797502590870426e-66 -1.3509072576231581e-65 0.0000000000000000e+00  -4.5118665022243230e-66 -2.1322803898769443e-65 0.0000000000000000e+00  -9.0523678806821559e-65 -1.5589389034694013e-64 0.0000000000000000e+00  1.7183249472732592e-65 -2.1032785979937967e-64 0.0000000000000000e+00  -4.2663214635522356e-62 -6.4097261904661014e-62 0.0000000000000000e+00  -6.9814895678841571e-62 -1.7219937586332109e-61 0.0000000000000000e+00  -2.3198588333639419e-62 -2.7290850165927751e-61 0.0000000000000000e+00  -5.7248192434194636e-60 -1.1373835536601127e-59 0.0000000000000000e+00  4.7524695067515217e-60 -1.5009919596023866e-59 0.0000000000000000e+00  -2.8919436265130720e-59 -4.7551030470733960e-59 0.0000000000000000e+00  8.7917745732073642e-60 -6.0841629811426852e-59 0.0000000000000000e+00  2.3170629859469224e-59 -3.9665753491609876e-59 0.0000000000000000e+00  -5.6176724464564682e-58 -8.9604314017502256e-58 0.0000000000000000e+00  -1.3749161460848426e-59 -1.2602710154248611e-57 0.0000000000000000e+00  -4.6159925954762855e-57 -1.1648588500105816e-56 0.0000000000000000e+00  5.7246362661508324e-57 -8.6603722260742178e-57 0.0000000000000000e+00  -5.3107516353612177e-57 -7.3509800244706999e-57 0.0000000000000000e+00  -1.7590820337473037e-56 -3.7776911823796727e-56 0.0000000000000000e+00  2.1513653597596699e-56 -4.0659649668510604e-56 0.0000000000000000e+00  -4.9782562017169344e-57 -9.2127561429910863e-57 0.0000000000000000e+00  -8.0780472534672831e-56 -2.0329737843194769e-55 0.0000000000000000e+00  6.3346691025830990e-56 -5.0755703459769293e-55 0.0000000000000000e+00  -4.2665796639132863e-55 -7.2678592584345005e-55 0.0000000000000000e+00  -4.8666076347020007e-56 -1.8358973888850197e-54 0.0000000000000000e+00  1.6507281379028931e-55 -5.7361292623087570e-55 0.0000000000000000e+00  -5.1532871396320138e-55 -1.6771362768245214e-54 0.0000000000000000e+00  -2.2405845168548944e-54 -7.0766601745653677e-54 0.0000000000000000e+00  2.5659293420977029e-54 -6.0718827379684413e-54 0.0000000000000000e+00  -6.6794155039909498e-55 -2.3910797817938374e-54 0.0000000000000000e+00  5.2889706100435868e-55 -2.8183133491125429e-54 0.0000000000000000e+00  1.2730388219759586e-55 -1.4246708682952196e-54 0.0000000000000000e+00  -2.1657860816936609e-54 -3.4699982324532170e-54 0.0000000000000000e+00  5.6691944178053947e-55 -8.2268602663325359e-54 0.0000000000000000e+00  -3.9041229647118981e-54 -1.3563409334097518e-53 0.0000000000000000e+00  4.6596707657280995e-54 -7.7099410645035467e-54 0.0000000000000000e+00  2.0172859594639027e-55 -6.5046793970829337e-55 0.0000000000000000e+00  -4.7675253088085969e-54 -8.0126641287671371e-54 0.0000000000000000e+00  4.7927392638921879e-54 -7.8674405818220939e-54 0.0000000000000000e+00  -1.6501215888404739e-56 -1.3350483797410121e-55 0.0000000000000000e+00  1.1072695396288522e-56 -2.7682219819979043e-55 0.0000000000000000e+00  2.1912265754779425e-56 -9.8797122792564840e-56 0.0000000000000000e+00  -5.1676526139074513e-54 -9.3531171667372993e-54 0.0000000000000000e+00  5.5120034620535806e-54 -9.4103445696345321e-54 0.0000000000000000e+00  5.6355653994429667e-56 -1.0522131145735799e-55 0.0000000000000000e+00  -1.4229368761532643e-56 -6.2041073912735705e-56 0.0000000000000000e+00  -4.9650878166171954e-55 -9.0422901071144933e-55 0.0000000000000000e+00  -5.7754899684100090e-54 -1.0039897193571339e-53 0.0000000000000000e+00  4.4739239237625824e-54 -1.0497404650434471e-53 0.0000000000000000e+00  -3.0325829341544575e-54 -7.9811795173342281e-54 0.0000000000000000e+00  2.4232948651988803e-54 -8.5535831937566891e-54 0.0000000000000000e+00  2.2323923844455143e-54 -3.3099883294098591e-54 0.0000000000000000e+00  -5.4034787425155106e-55 -1.4788921746145499e-54 0.0000000000000000e+00  8.3076484624562938e-55 -1.5755046114217796e-54 0.0000000000000000e+00  -4.8942293683681177e-55 -9.8228493482662701e-55 0.0000000000000000e+00  5.0963572687453689e-55 -8.8661327724896609e-55 0.0000000000000000e+00  -1.5578926720095676e-56 -2.6886355871451721e-56 0.0000000000000000e+00  -4.4514466703095808e-56 -1.7208581525910916e-55 0.0000000000000000e+00  4.1520855144167249e-56 -1.7478063773691746e-55 0.0000000000000000e+00  4.7834858098435902e-57 -6.9043187796555245e-56 0.0000000000000000e+00  -2.7350715230891758e-56 -6.5360626297990754e-56 0.0000000000000000e+00  3.2724884322827796e-56 -6.4217573820786317e-56 0.0000000000000000e+00  -2.8455598208942666e-57 -2.8726476824647927e-56 0.0000000000000000e+00  1.2905078902923127e-56 -3.0052401196951223e-56 0.0000000000000000e+00  9.9832155484472786e-58 -2.4015311213643774e-57 0.0000000000000000e+00  -4.3643833651485850e-57 -7.6283754903578344e-57 0.0000000000000000e+00  4.2340317677531478e-57 -1.1017080862809224e-56 0.0000000000000000e+00  3.1129387971208941e-58 -1.0220422492780124e-57 0.0000000000000000e+00  1.4328706509785563e-58 -5.0295