<?xml version="1.0"?>
<VTKFile type="UnstructuredGrid"  version="0.1"  >
<UnstructuredGrid>
<Piece  NumberOfPoints="11902" NumberOfCells="23402">
<Points>
<DataArray  type="Float64"  NumberOfComponents="3"  format="ascii">-5 -5 0  5 -5 0  5 5 0  -5 5 0  1.265515895604602 0.001279147315371278 0  -4.9 -5 0  -4.8 -5 0  -4.7 -5 0  -4.6 -5 0  -4.5 -5 0  -4.4 -5 0  -4.3 -5 0  -4.2 -5 0  -4.1 -5 0  -4 -5 0  -3.9 -5 0  -3.8 -5 0  -3.7 -5 0  -3.6 -5 0  -3.5 -5 0  -3.4 -5 0  -3.3 -5 0  -3.2 -5 0  -3.1 -5 0  -3 -5 0  -2.9 -5 0  -2.8 -5 0  -2.7 -5 0  -2.6 -5 0  -2.5 -5 0  -2.4 -5 0  -2.3 -5 0  -2.2 -5 0  -2.1 -5 0  -2 -5 0  -1.9 -5 0  -1.8 -5 0  -1.7 -5 0  -1.6 -5 0  -1.5 -5 0  -1.4 -5 0  -1.3 -5 0  -1.2 -5 0  -1.1 -5 0  -1 -5 0  -0.9000000000000004 -5 0  -0.7999999999999998 -5 0  -0.7000000000000002 -5 0  -0.5999999999999996 -5 0  -0.5 -5 0  -0.4000000000000004 -5 0  -0.2999999999999998 -5 0  -0.2000000000000002 -5 0  -0.09999999999999964 -5 0  0 -5 0  0.09999999999999964 -5 0  0.2000000000000002 -5 0  0.2999999999999998 -5 0  0.4000000000000004 -5 0  0.5 -5 0  0.5999999999999996 -5 0  0.7000000000000002 -5 0  0.7999999999999998 -5 0  0.9000000000000004 -5 0  1 -5 0  1.1 -5 0  1.2 -5 0  1.3 -5 0  1.4 -5 0  1.5 -5 0  1.6 -5 0  1.7 -5 0  1.8 -5 0  1.9 -5 0  2 -5 0  2.1 -5 0  2.2 -5 0  2.3 -5 0  2.4 -5 0  2.5 -5 0  2.6 -5 0  2.7 -5 0  2.8 -5 0  2.9 -5 0  3 -5 0  3.1 -5 0  3.199999999999999 -5 0  3.300000000000001 -5 0  3.4 -5 0  3.5 -5 0  3.6 -5 0  3.699999999999999 -5 0  3.800000000000001 -5 0  3.9 -5 0  4 -5 0  4.1 -5 0  4.199999999999999 -5 0  4.300000000000001 -5 0  4.4 -5 0  4.5 -5 0  4.6 -5 0  4.699999999999999 -5 0  4.800000000000001 -5 0  4.9 -5 0  5 -4.9 0  5 -4.8 0  5 -4.7 0  5 -4.6 0  5 -4.5 0  5 -4.4 0  5 -4.3 0  5 -4.2 0  5 -4.1 0  5 -4 0  5 -3.9 0  5 -3.8 0  5 -3.7 0  5 -3.6 0  5 -3.5 0  5 -3.4 0  5 -3.3 0  5 -3.2 0  5 -3.1 0  5 -3 0  5 -2.9 0  5 -2.8 0  5 -2.7 0  5 -2.6 0  5 -2.5 0  5 -2.4 0  5 -2.3 0  5 -2.2 0  5 -2.1 0  5 -2 0  5 -1.9 0  5 -1.8 0  5 -1.7 0  5 -1.6 0  5 -1.5 0  5 -1.4 0  5 -1.3 0  5 -1.2 0  5 -1.1 0  5 -1 0  5 -0.9000000000000004 0  5 -0.7999999999999998 0  5 -0.7000000000000002 0  5 -0.5999999999999996 0  5 -0.5 0  5 -0.4000000000000004 0  5 -0.2999999999999998 0  5 -0.2000000000000002 0  5 -0.09999999999999964 0  5 0 0  5 0.09999999999999964 0  5 0.2000000000000002 0  5 0.2999999999999998 0  5 0.4000000000000004 0  5 0.5 0  5 0.5999999999999996 0  5 0.7000000000000002 0  5 0.7999999999999998 0  5 0.9000000000000004 0  5 1 0  5 1.1 0  5 1.2 0  5 1.3 0  5 1.4 0  5 1.5 0  5 1.6 0  5 1.7 0  5 1.8 0  5 1.9 0  5 2 0  5 2.1 0  5 2.2 0  5 2.3 0  5 2.4 0  5 2.5 0  5 2.6 0  5 2.7 0  5 2.8 0  5 2.9 0  5 3 0  5 3.1 0  5 3.199999999999999 0  5 3.300000000000001 0  5 3.4 0  5 3.5 0  5 3.6 0  5 3.699999999999999 0  5 3.800000000000001 0  5 3.9 0  5 4 0  5 4.1 0  5 4.199999999999999 0  5 4.300000000000001 0  5 4.4 0  5 4.5 0  5 4.6 0  5 4.699999999999999 0  5 4.800000000000001 0  5 4.9 0  4.9 5 0  4.8 5 0  4.7 5 0  4.6 5 0  4.5 5 0  4.4 5 0  4.3 5 0  4.2 5 0  4.1 5 0  4 5 0  3.9 5 0  3.8 5 0  3.7 5 0  3.6 5 0  3.5 5 0  3.4 5 0  3.3 5 0  3.2 5 0  3.1 5 0  3 5 0  2.9 5 0  2.8 5 0  2.7 5 0  2.6 5 0  2.5 5 0  2.4 5 0  2.3 5 0  2.2 5 0  2.1 5 0  2 5 0  1.9 5 0  1.8 5 0  1.7 5 0  1.6 5 0  1.5 5 0  1.4 5 0  1.3 5 0  1.2 5 0  1.1 5 0  1 5 0  0.9000000000000004 5 0  0.7999999999999998 5 0  0.7000000000000002 5 0  0.5999999999999996 5 0  0.5 5 0  0.4000000000000004 5 0  0.2999999999999998 5 0  0.2000000000000002 5 0  0.09999999999999964 5 0  0 5 0  -0.09999999999999964 5 0  -0.2000000000000002 5 0  -0.2999999999999998 5 0  -0.4000000000000004 5 0  -0.5 5 0  -0.5999999999999996 5 0  -0.7000000000000002 5 0  -0.7999999999999998 5 0  -0.9000000000000004 5 0  -1 5 0  -1.1 5 0  -1.2 5 0  -1.3 5 0  -1.4 5 0  -1.5 5 0  -1.6 5 0  -1.7 5 0  -1.8 5 0  -1.9 5 0  -2 5 0  -2.1 5 0  -2.2 5 0  -2.3 5 0  -2.4 5 0  -2.5 5 0  -2.6 5 0  -2.7 5 0  -2.8 5 0  -2.9 5 0  -3 5 0  -3.1 5 0  -3.199999999999999 5 0  -3.300000000000001 5 0  -3.4 5 0  -3.5 5 0  -3.6 5 0  -3.699999999999999 5 0  -3.800000000000001 5 0  -3.9 5 0  -4 5 0  -4.1 5 0  -4.199999999999999 5 0  -4.300000000000001 5 0  -4.4 5 0  -4.5 5 0  -4.6 5 0  -4.699999999999999 5 0  -4.800000000000001 5 0  -4.9 5 0  -5 4.9 0  -5 4.8 0  -5 4.7 0  -5 4.6 0  -5 4.5 0  -5 4.4 0  -5 4.3 0  -5 4.2 0  -5 4.1 0  -5 4 0  -5 3.9 0  -5 3.8 0  -5 3.7 0  -5 3.6 0  -5 3.5 0  -5 3.4 0  -5 3.3 0  -5 3.2 0  -5 3.1 0  -5 3 0  -5 2.9 0  -5 2.8 0  -5 2.7 0  -5 2.6 0  -5 2.5 0  -5 2.4 0  -5 2.3 0  -5 2.2 0  -5 2.1 0  -5 2 0  -5 1.9 0  -5 1.8 0  -5 1.7 0  -5 1.6 0  -5 1.5 0  -5 1.4 0  -5 1.3 0  -5 1.2 0  -5 1.1 0  -5 1 0  -5 0.9000000000000004 0  -5 0.7999999999999998 0  -5 0.7000000000000002 0  -5 0.5999999999999996 0  -5 0.5 0  -5 0.4000000000000004 0  -5 0.2999999999999998 0  -5 0.2000000000000002 0  -5 0.09999999999999964 0  -5 0 0  -5 -0.09999999999999964 0  -5 -0.2000000000000002 0  -5 -0.2999999999999998 0  -5 -0.4000000000000004 0  -5 -0.5 0  -5 -0.5999999999999996 0  -5 -0.7000000000000002 0  -5 -0.7999999999999998 0  -5 -0.9000000000000004 0  -5 -1 0  -5 -1.1 0  -5 -1.2 0  -5 -1.3 0  -5 -1.4 0  -5 -1.5 0  -5 -1.6 0  -5 -1.7 0  -5 -1.8 0  -5 -1.9 0  -5 -2 0  -5 -2.1 0  -5 -2.2 0  -5 -2.3 0  -5 -2.4 0  -5 -2.5 0  -5 -2.6 0  -5 -2.7 0  -5 -2.8 0  -5 -2.9 0  -5 -3 0  -5 -3.1 0  -5 -3.199999999999999 0  -5 -3.300000000000001 0  -5 -3.4 0  -5 -3.5 0  -5 -3.6 0  -5 -3.699999999999999 0  -5 -3.800000000000001 0  -5 -3.9 0  -5 -4 0  -5 -4.1 0  -5 -4.199999999999999 0  -5 -4.300000000000001 0  -5 -4.4 0  -5 -4.5 0  -5 -4.6 0  -5 -4.699999999999999 0  -5 -4.800000000000001 0  -5 -4.9 0  1.257771166815677 0.09175148054544628 0  1.235633446825716 0.1892978888807411 0  1.201489410964583 0.2863784742521591 0  1.158824814404569 0.3752619885031647 0  1.09990236306579 0.4665176565213448 0  1.032715415239369 0.5495832389348624 0  0.9544589746603215 0.6302688948446477 0  0.8673807622529822 0.7049512105115826 0  0.7755619727588273 0.7698630333831825 0  0.6742551981686736 0.8273768893149629 0  0.5602173681703387 0.8796569894751778 0  0.4458910434888719 0.9247798634037093 0  0.3365755827450291 0.9560269620965577 0  0.2087969415125834 0.9793950008818577 0  0.08656145422786382 0.9971799926403325 0  -0.02594788870324442 1.000861971737895 0  -0.1435889374176564 0.9875927905600133 0  -0.275124299385504 0.9671325126119757 0  -0.3959529512866809 0.9426656464597742 0  -0.5045406414181128 0.9081556699443606 0  -0.6135548454594397 0.8618652455835765 0  -0.715410584000529 0.8064548368692246 0  -0.8095279494247808 0.7425596963943878 0  -0.9012373657751765 0.6689149385498508 0  -0.9880825297225484 0.5883997870371609 0  -1.062990781721534 0.5063192232409622 0  -1.125566090886128 0.4224515304817033 0  -1.182130389129293 0.3270031363139571 0  -1.219044045646857 0.2413748916672492 0  -1.243110942445163 0.148255154768868 0  -1.253048844896242 0.05306652077688726 0  -1.252963517347343 -0.05077947756893218 0  -1.242871132539516 -0.1452234383256064 0  -1.218686527932274 -0.2347175449890421 0  -1.176022041640194 -0.3307147072701628 0  -1.125857472970861 -0.4236834865774918 0  -1.0655222556658 -0.5059070246824315 0  -0.9907323991523443 -0.5873989576513011 0  -0.9044838045997295 -0.6668442999828819 0  -0.813965080595042 -0.737583058698333 0  -0.7191315879315506 -0.797829829021681 0  -0.6148930593311197 -0.8514541518829513 0  -0.4978315866567317 -0.9013067872128718 0  -0.385828427222707 -0.9410825372594424 0  -0.2718402174942854 -0.9669921740991456 0  -0.1416880115174315 -0.9877208390277536 0  -0.02740616472129401 -1.000065476028557 0  0.08429934669780323 -0.9927585489800298 0  0.2160945973968338 -0.9746509246799957 0  0.3398619901339751 -0.9539492351487578 0  0.4502487636017377 -0.9234046801344129 0  0.5632393227801081 -0.8788133958040522 0  0.6756954510219786 -0.8270950297398655 0  0.7750917570675431 -0.7712138848680491 0  0.8656549217550115 -0.7071960315556122 0  0.9508262392022437 -0.6316485616347501 0  1.030506784016745 -0.5478161087476258 0  1.102244957346995 -0.4640268669765749 0  1.159869017058126 -0.3752404857401826 0  1.203393373662144 -0.2844631077180063 0  1.236385643327011 -0.1888197869538461 0  1.258175562386635 -0.09210873834769839 0  -2.448503267318792 4.918011733847042 0  -2.448371772404409 -4.910380441169742 0  4.910299920143376 2.447813596434838 0  4.918437498933304 -2.449282890799129 0  2.446091330446893 -4.895592480033786 0  2.440527021500487 4.89935919262351 0  -4.910327179436864 -2.447840959753969 0  -4.910324503796438 2.447845232264618 0  -1.748455043870771 4.910853270380739 0  -1.744243661629318 -4.914300420679503 0  4.920445076550461 1.743996206262127 0  4.908952092132029 -1.747747085425791 0  -4.909247141686145 -1.747482198746063 0  -4.910071318178201 1.74722832606347 0  1.745723120793303 4.904697295900637 0  1.747128711703031 -4.892820712418 0  -1.148778317533793 4.908601354944712 0  -1.129640367121737 -4.91653512886037 0  -4.908913956799638 -1.147825586893418 0  -4.90873174764607 1.1476264634968 0  1.1437762763242 -4.91271026865792 0  1.148787412346289 4.908587173634642 0  4.90905326382179 1.14610005227433 0  4.91991856584606 -1.151894518104078 0  -0.5466354672297493 -4.909771547586583 0  -0.5464221801027475 4.918480404736187 0  -4.907605707718642 -0.5486516321329558 0  -4.907629701378493 0.5472101723397936 0  4.906921406537912 -0.5489695038858174 0  4.918620124022163 0.5457337883955991 0  0.5424145018708267 -4.896611150476334 0  0.5511485759252688 4.91529367637533 0  -4.911795205527703 -3.048213045157901 0  4.918373190955099 3.046234347368721 0  4.911302409861115 -3.048187746948001 0  -4.912643776388742 3.04530554394458 0  3.055235977457243 -4.917294788332609 0  -3.048561697373214 -4.91122397262766 0  3.052130588840044 4.913303507755268 0  -3.048008112527215 4.912114835936026 0  -4.906698577803441 -0.04990194392524927 0  0.04511766057894182 -4.911719495174415 0  0.04956423832797456 4.918767254987812 0  4.913778938792595 -0.05128490295664723 0  3.545568224868831 -4.918965538946243 0  -3.548844267307042 4.911860
[...]
<PointData  Vectors="f_7342"> 
<DataArray  type="Float64"  Name="f_7342"  NumberOfComponents="3" format="ascii">2.6559658580600297e-76 2.6559658580600297e-76 0.0000000000000000e+00  -2.8445085011138821e-76 2.8445085011138821e-76 0.0000000000000000e+00  -8.5659604779174680e-78 -8.5659604779174680e-78 0.0000000000000000e+00  3.0308186857311735e-76 -3.0308186857311735e-76 0.0000000000000000e+00  7.8081451074478780e-01 7.8679906554745462e-03 0.0000000000000000e+00  4.1660891092965111e-75 6.6060874808450961e-75 0.0000000000000000e+00  2.0822268345684495e-75 2.0880111895943535e-74 0.0000000000000000e+00  -3.4063365581788835e-75 6.7720004470326763e-75 0.0000000000000000e+00  4.0009008375099907e-72 6.6674390984438922e-72 0.0000000000000000e+00  5.3180211913124147e-71 1.3457245796499461e-70 0.0000000000000000e+00  -7.9225221365278643e-72 4.5554627867030050e-71 0.0000000000000000e+00  3.2355051190007759e-69 6.1613712250443836e-69 0.0000000000000000e+00  5.1636289712707417e-68 9.3970512392167801e-68 0.0000000000000000e+00  -3.0665595767046134e-68 1.5001995231638994e-67 0.0000000000000000e+00  1.2774334598461948e-67 3.9811879727635468e-67 0.0000000000000000e+00  1.2620241248768981e-68 8.7791457960815954e-67 0.0000000000000000e+00  5.4553405321660845e-64 8.8203602860199839e-64 0.0000000000000000e+00  4.7422534531934368e-65 2.4418736142981012e-63 0.0000000000000000e+00  1.3502446403898357e-62 2.1982516002108062e-62 0.0000000000000000e+00  8.0711950929317627e-63 8.3177392036825813e-62 0.0000000000000000e+00  6.9376754767879396e-61 1.1018696723329631e-60 0.0000000000000000e+00  4.0662968483254437e-60 7.0040934055925618e-60 0.0000000000000000e+00  -2.8499762950765404e-60 7.7009147018697329e-60 0.0000000000000000e+00  5.6681967217909622e-59 1.1364220857069746e-58 0.0000000000000000e+00  -1.7608628886471716e-59 1.1647638199340066e-58 0.0000000000000000e+00  -3.0069367090425569e-59 6.8405880340472551e-59 0.0000000000000000e+00  1.8044490654046183e-58 3.3029547665940404e-58 0.0000000000000000e+00  7.3075463226500799e-58 2.0889109529426557e-57 0.0000000000000000e+00  2.8643072306035663e-57 6.2308090192888409e-57 0.0000000000000000e+00  -3.4119433264860726e-57 5.7405902655717046e-57 0.0000000000000000e+00  -3.5274410263002219e-58 1.0980572993886340e-57 0.0000000000000000e+00  1.9113478689298446e-56 2.9305412777771108e-56 0.0000000000000000e+00  -1.4157410444898698e-56 3.5319443704089940e-56 0.0000000000000000e+00  1.1931757697363028e-56 2.8925287132636413e-56 0.0000000000000000e+00  8.7514265815635155e-56 2.0968925980044830e-55 0.0000000000000000e+00  -2.5170381506363429e-56 5.7435556629232680e-55 0.0000000000000000e+00  5.2192822824353780e-57 8.6085667588753208e-57 0.0000000000000000e+00  5.5542691103362164e-56 1.3812711116270350e-55 0.0000000000000000e+00  1.5516324280521578e-55 6.1683218885529618e-55 0.0000000000000000e+00  -2.2405631890056970e-55 3.5179202859558691e-55 0.0000000000000000e+00  9.8551262904596065e-55 1.7222136703096785e-54 0.0000000000000000e+00  -4.4304709728437722e-55 4.3616805797367913e-54 0.0000000000000000e+00  -2.2879110178040482e-55 2.6821098123618027e-54 0.0000000000000000e+00  -9.6396053753172900e-56 9.4401274478691334e-55 0.0000000000000000e+00  -1.1335453994969721e-55 1.8227748948979087e-55 0.0000000000000000e+00  2.7659269918181346e-54 5.2317672424279747e-54 0.0000000000000000e+00  -2.1647272956550494e-54 4.1401034713837651e-54 0.0000000000000000e+00  -7.2085210906775194e-55 8.0840538996901828e-55 0.0000000000000000e+00  -1.3235581407165228e-55 2.7136168229167459e-55 0.0000000000000000e+00  9.3248869665177118e-55 1.4447919045495938e-54 0.0000000000000000e+00  9.4768795679614900e-55 6.1539950176179312e-54 0.0000000000000000e+00  -1.1312648833811290e-54 5.8988782643124672e-54 0.0000000000000000e+00  5.1591798369466561e-55 4.6478244813404515e-54 0.0000000000000000e+00  1.9116655787776044e-56 5.7927624280210503e-54 0.0000000000000000e+00  3.0248207753226876e-55 6.1509154436222517e-54 0.0000000000000000e+00  -1.2646955042087837e-54 2.0440547771865985e-54 0.0000000000000000e+00  -6.4700843056025078e-55 1.4722405498888261e-53 0.0000000000000000e+00  4.4745713308557153e-54 7.4700311992171484e-54 0.0000000000000000e+00  -4.3577623001384176e-54 8.0945877394017958e-54 0.0000000000000000e+00  1.9265348930636242e-54 3.9575369257429378e-54 0.0000000000000000e+00  -7.3779459297603724e-55 9.4980968640089730e-54 0.0000000000000000e+00  1.3344915590664907e-54 9.3291796596991680e-54 0.0000000000000000e+00  -1.6889145876689281e-54 4.3954584468854065e-54 0.0000000000000000e+00  -9.2719402531963495e-55 2.4040932727900428e-54 0.0000000000000000e+00  3.3395990973627364e-55 1.2998152128690354e-54 0.0000000000000000e+00  2.6638475683368868e-55 2.5377500445628082e-54 0.0000000000000000e+00  -7.8397821267688403e-56 3.4896875627899414e-54 0.0000000000000000e+00  -7.1286782196285927e-55 1.4808463962745513e-54 0.0000000000000000e+00  2.3832034248433329e-55 4.4282796725043026e-55 0.0000000000000000e+00  -2.3145752224522325e-55 6.0210048576509315e-55 0.0000000000000000e+00  5.0448702807575889e-56 2.3985279001050690e-55 0.0000000000000000e+00  1.8705834532129797e-55 9.5260717759325058e-55 0.0000000000000000e+00  -3.3101718852672788e-55 5.2979463230712247e-55 0.0000000000000000e+00  -1.5937832436870451e-56 4.8200627715989469e-56 0.0000000000000000e+00  -1.1367002683690012e-57 1.1331410919495291e-56 0.0000000000000000e+00  6.7664555923895816e-57 2.3559828495662879e-56 0.0000000000000000e+00  -9.0077063828408696e-57 1.5007957552876942e-56 0.0000000000000000e+00  1.7446885998215914e-57 2.8894683730099353e-57 0.0000000000000000e+00  -1.2461320268680908e-57 2.7225590337375339e-57 0.0000000000000000e+00  5.1838249754234687e-57 7.8163128772713305e-57 0.0000000000000000e+00  -4.5387437411746306e-57 1.1244314691297355e-56 0.0000000000000000e+00  -1.8159699363213808e-58 9.3924157542597873e-58 0.0000000000000000e+00  -2.3947829358347260e-58 4.6490771558296549e-58 0.0000000000000000e+00  -7.8857960584392248e-61 8.8102273302583722e-59 0.0000000000000000e+00  -2.4481114300790056e-59 6.4194850786218660e-59 0.0000000000000000e+00  -7.1214115794922710e-60 2.4988086497624368e-59 0.0000000000000000e+00  -4.3874674972337889e-60 2.2381376369904203e-59 0.0000000000000000e+00  -3.0646243382803253e-60 7.1644843680194854e-60 0.0000000000000000e+00  -8.5282346680099415e-62 4.4342172956863050e-61 0.0000000000000000e+00  -1.0763787906164118e-61 2.2329206563514922e-61 0.0000000000000000e+00  -3.5886678961280411e-62 5.6709676324899142e-62 0.0000000000000000e+00  -3.9113384902962795e-64 6.6943469865503054e-64 0.0000000000000000e+00  -2.4319398531840233e-65 5.1688844951748441e-65 0.0000000000000000e+00  3.7094212654321422e-66 1.0389645547294146e-65 0.0000000000000000e+00  -4.8434259646679994e-66 9.2586460674145121e-66 0.0000000000000000e+00  -6.7011983425524143e-68 2.7706947663722182e-67 0.0000000000000000e+00  -7.8549245412217723e-68 1.2913781177504808e-67 0.0000000000000000e+00  -8.0622866071583327e-69 1.1728664371826159e-68 0.0000000000000000e+00  -5.6341866564938812e-70 9.5182773737726599e-70 0.0000000000000000e+00  -3.7799279261026815e-71 6.8175418605404209e-71 0.0000000000000000e+00  -1.8786291812007691e-72 3.2022835949402150e-72 0.0000000000000000e+00  -1.2178228187641839e-73 2.7265790370018596e-73 0.0000000000000000e+00  -4.4213891229690530e-75 1.2911082837360217e-74 0.0000000000000000e+00  -2.5481899037035524e-75 4.2410798952672929e-75 0.0000000000000000e+00  -9.7686843906063253e-76 3.5585126797151088e-76 0.0000000000000000e+00  -1.6211735935637827e-75 -2.3928756937202800e-76 0.0000000000000000e+00  -2.4487351717633587e-74 1.1592509379145725e-74 0.0000000000000000e+00  -3.6791006913553641e-74 1.5507028068206604e-75 0.0000000000000000e+00  -3.8826982290947195e-73 1.4338084047413034e-73 0.0000000000000000e+00  -1.0235247001541990e-71 6.2405560792763793e-72 0.0000000000000000e+00  -6.7390907762992385e-71 3.7100013893175580e-71 0.0000000000000000e+00  -1.0610180547681343e-70 3.9052570737021220e-72 0.0000000000000000e+00  -8.8986591117678645e-70 3.3108412391565480e-70 0.0000000000000000e+00  -2.1277477528684528e-68 1.2874013066800949e-68 0.0000000000000000e+00  -1.0233483006768299e-67 5.1145448197501824e-68 0.0000000000000000e+00  -1.0140810203079868e-67 -6.0320354293828755e-68 0.0000000000000000e+00  -3.1642288570431725e-66 1.7478381425723091e-66 0.0000000000000000e+00  -3.1834471938839131e-65 1.8338262863650503e-65 0.0000000000000000e+00  -5.3853841785543460e-65 5.0522717355942317e-66 0.0000000000000000e+00  -4.4351202379639339e-64 1.4482839120389427e-64 0.0000000000000000e+00  -6.9881350469451177e-63 4.3652001607827235e-63 0.0000000000000000e+00  -1.5059984389917085e-62 3.7542818418134160e-63 0.0000000000000000e+00  -8.4310774170910932e-62 1.9693658786876367e-62 0.0000000000000000e+00  -1.3538267696099771e-60 8.5326285950361497e-61 0.0000000000000000e+00  -2.4164476708645341e-60 3.3881932755478339e-61 0.0000000000000000e+00  -2.1159752507494621e-59 7.4110861627432525e-60 0.0000000000000000e+00  -2.4149428559416773e-58 1.4974896038750668e-58 0.0000000000000000e+00  -2.5889584175180631e-58 -9.4378444948936656e-59 0.0000000000000000e+00  -5.9740824530301282e-57 2.7874678950959378e-57 0.0000000000000000e+00  -2.4817132042850430e-56 1.2418667851839509e-56 0.0000000000000000e+00  -5.5646942106700067e-56 -8.7075423554898612e-57 0.0000000000000000e+00  -1.0103522533309994e-54 6.4947166383627665e-55 0.0000000000000000e+00  -1.1210939479347182e-54 -3.4722802150927905e-55 0.0000000000000000e+00  -2.4061863508154908e-53 1.2723316519194667e-53 0.0000000000000000e+00  -6.5891168508765977e-53 2.9963838775298907e-53 0.0000000000000000e+00  -4.3548788347946987e-52 1.2272485223586093e-52 0.0000000000000000e+00  -2.6637128445882501e-51 1.6671712423208364e-51 0.0000000000000000e+00  -7.6660084909720859e-51 -2.1514481429848589e-52 0.0000000000000000e+00  -7.1914729042400066e-50 4.6086366909830042e-50 0.0000000000000000e+00  -1.6173319479958160e-49 -1.4822549373802628e-50 0.0000000000000000e+00  -1.7285203863480065e-48 1.0126790180683569e-48 0.0000000000000000e+00  -4.3412453920768010e-48 -2.0468628507769503e-49 0.0000000000000000e+00  -2.0128207677450861e-47 1.1126694724616857e-47 0.0000000000000000e+00  -1.1025799390233741e-46 1.9004129703396315e-47 0.0000000000000000e+00  -1.0245940870784916e-46 2.4666090817806560e-47 0.0000000000000000e+00  -1.2403820818259206e-45 5.2666626948575953e-46 0.0000000000000000e+00  -8.7398708160803295e-46 -5.6938928150777135e-46 0.0000000000000000e+00  -1.3427354669392669e-44 8.0917624744163355e-45 0.0000000000000000e+00  -5.7953558321514788e-44 1.3773178101142912e-44 0.0000000000000000e+00  -3.6156346601848818e-44 -1.7560241294739879e-44 0.0000000000000000e+00  -1.1424479215901845e-43 6.5177688148368043e-44 0.0000000000000000e+00  -8.4127604580247905e-43 2.3221399129011780e-43 0.0000000000000000e+00  -1.9290827512040505e-42 1.9806322657373499e-43 0.0000000000000000e+00  -2.5116691278279927e-42 6.1207040083369370e-44 0.0000000000000000e+00  -2.0144566214585025e-42 -1.9530386560012433e-43 0.0000000000000000e+00  -8.6134195013901008e-43 -2.5122556616406623e-43 0.0000000000000000e+00  -1.1324108025942453e-43 -6.4638333099591290e-44 0.0000000000000000e+00  -3.8716293347995085e-44 1.8551836770588061e-44 0.0000000000000000e+00  -6.3162840895746802e-44 -1.0849372864374957e-44 0.0000000000000000e+00  -1.4987045874922932e-44 -7.8871748362795501e-45 0.0000000000000000e+00  -9.9901727486609729e-46 5.6864754123256848e-46 0.0000000000000000e+00  -1.4037452672459145e-45 -5.3991145053102507e-46 0.0000000000000000e+00  -1.1207222123519216e-46 -2.8621116401940634e-47 0.0000000000000000e+00  -1.0180316352771616e-46 -2.1467278651919900e-47 0.0000000000000000e+00  -1.8604313849762499e-47 -1.1998434057769357e-47 0.0000000000000000e+00  -4.0856632109623324e-48 2.0382379247830705e-49 0.0000000000000000e+00  -1.4863226364961961e-48 -9.3768952039733653e-49 0.0000000000000000e+00  -1.6332957373731375e-49 2.4602415172885105e-50 0.0000000000000000e+00  -7.4554631058500395e-50 -4.4275689823053715e-50 0.0000000000000000e+00  -8.2465319408175211e-51 6.4196081971606873e-52 0.0000000000000000e+00  -3.1445013428615721e-51 -1.7859452951766840e-51 0.0000000000000000e+00  -5.1022431584805189e-52 -1.1478564566871673e-52 0.0000000000000000e+00  -8.2040198432125008e-53 -3.5510550132402371e-53 0.0000000000000000e+00  -2.6611420953339140e-53 -1.3170114841666632e-53 0.0000000000000000e+00  -1.1973774519446291e-54 3.2426485708104578e-55 0.0000000000000000e+00  -1.0633136745369152e-54 -6.8111311409121202e-55 0.0000000000000000e+00  -5.1528912042122083e-56 8.3591989367201351e-57 0.0000000000000000e+00  -2.3358318458894751e-56 -1.3248693207323450e-56 0.0000000000000000e+00  -4.8224674498218024e-57 -2.5230545613424317e-57 0.0000000000000000e+00  -2.4591686214814408e-58 8.5520253377904098e-59 0.0000000000000000e+00  -2.1575787975472789e-58 -1.3293482777781198e-58 0.0000000000000000e+00  -1.9907542728181702e-59 -6.1492605762589304e-60 0.0000000000000000e+00  -2.3747458604210538e-60 -3.3977087370506665e-61 0.0000000000000000e+00  -1.2904837364293452e-60 -7.6120879375950605e-61 0.0000000000000000e+00  -7.6898238519628898e-62 -2.1445954159120747e-62 0.0000000000000000e+00  -1.3592463008438775e-62 -2.9316223941383565e-63 0.0000000000000000e+00  -6.6375632582987134e-63 -3.7898143890812290e-63 0.0000000000000000e+00  -4.7823538082894385e-64 -1.8202191141740065e-64 0.0000000000000000e+00  -4.3638976473077842e-65 9.5839244718446077e-67 0.0000000000000000e+00  -2.9475383611686540e-65 -1.6626084311757335e-65 0.0000000000000000e+00  -3.4125532861280173e-66 -1.9892792096895629e-66 0.0000000000000000e+00  -8.9973039953337434e-68 5.4823173438223374e-68 0.0000000000000000e+00  -8.6353328146808783e-68 -4.1785892277715928e-68 0.0000000000000000e+00  -2.0678447818367443e-68 -1.2852672583289621e-68 0.0000000000000000e+00  -1.1325255831390824e-69 -5.1345541249672274e-70 0.0000000000000000e+00  -8.7947249106593508e-71 1.3791949856094906e-71 0.0000000000000000e+00  -6.9074907951633021e-71 -3.6577723801522391e-71 0.0000000000000000e+00  -1.2477851678072002e-71 -7.6633086879131643e-72 0.0000000000000000e+00  -5.9816135579331868e-73 -2.7513648361252707e-73 0.0000000000000000e+00  -3.9238388410560875e-74 7.4242678762258157e-75 0.0000000000000000e+00  -3.1564249396507537e-74 -1.4791242752503615e-74 0.0000000000000000e+00  -6.5904632206264558e-75 -3.3572359659887476e-75 0.0000000000000000e+00  -7.1798522602009457e-76 -3.1071972144141771e-76 0.0000000000000000e+00  -8.5521292374371039e-76 -1.6228281722953346e-75 0.0000000000000000e+00  -4.7736817899638489e-75 -1.3945799580532891e-74 0.0000000000000000e+00  4.3675177474767127e-75 -8.3092491711256177e-75 0.0000000000000000e+00  -1.6296100550926794e-73 -3.4270499985544080e-73 0.0000000000000000e+00  -9.2870399184843668e-71 -1.0068148427847638e-70 0.0000000000000000e+00  -7.5081755787077220e-70 -1.3175751489337880e-69 0.0000000000000000e+00  -1.0987401726635553e-69 -3.6509944368203464e-69 0.0000000000000000e+00  -7.7634276114819208e-68 -1.7112161168760400e-67 0.0000000000000000e+00  -6.5334066306489789e-68 -3.2597565820658083e-67 0.0000000000000000e+00  -6.7924205750919312e-66 -1.3498515951740733e-65 0.0000000000000000e+00  -4.5219146572528073e-66 -2.1314644072720320e-65 0.0000000000000000e+00  -9.0741166099513413e-65 -1.5571956373421650e-64 0.0000000000000000e+00  1.7229646852361711e-65 -2.1036417033423587e-64 0.0000000000000000e+00  -4.2782749613262963e-62 -6.4004441750239815e-62 0.0000000000000000e+00  -7.0034480803642945e-62 -1.7203407897212936e-61 0.0000000000000000e+00  -2.3277738552624935e-62 -2.7285038796310076e-61 0.0000000000000000e+00  -5.7448359802957969e-60 -1.1359245144218123e-59 0.0000000000000000e+00  4.7726450295364981e-60 -1.5023564507035121e-59 0.0000000000000000e+00  -2.9037754363473752e-59 -4.7469893106656477e-59 0.0000000000000000e+00  8.8310551856691463e-60 -6.0867482692298997e-59 0.0000000000000000e+00  2.3283340680232740e-59 -3.9736663865327061e-59 0.0000000000000000e+00  -5.6450234648358802e-58 -8.9432324250862202e-58 0.0000000000000000e+00  -1.3821647682258845e-59 -1.2602276283829620e-57 0.0000000000000000e+00  -4.6403143915451700e-57 -1.1633997242038463e-56 0.0000000000000000e+00  5.7587859699567417e-57 -8.6790455454265627e-57 0.0000000000000000e+00  -5.3427517006325647e-57 -7.3336264250459632e-57 0.0000000000000000e+00  -1.7702841695753168e-56 -3.7719105258887348e-56 0.0000000000000000e+00  2.1660230661090309e-56 -4.0730306035081895e-56 0.0000000000000000e+00  -5.0124670948509724e-57 -9.1964223344096606e-57 0.0000000000000000e+00  -8.1348907475017619e-56 -2.0303304066998291e-55 0.0000000000000000e+00  6.3900505549616453e-56 -5.0774622336111159e-55 0.0000000000000000e+00  -4.2996717395977494e-55 -7.2543733969111482e-55 0.0000000000000000e+00  -4.8866552397817595e-56 -1.8356891081380044e-54 0.0000000000000000e+00  1.6645534975806146e-55 -5.7410491292922480e-55 0.0000000000000000e+00  -5.1954858184658735e-55 -1.6755551736265305e-54 0.0000000000000000e+00  -2.2596976042430078e-54 -7.0700821323565277e-54 0.0000000000000000e+00  2.5898120958369872e-54 -6.0783290016602945e-54 0.0000000000000000e+00  -6.7394339566060528e-55 -2.3892596517217105e-54 0.0000000000000000e+00  5.3419480225199447e-55 -2.8193457843544949e-54 0.0000000000000000e+00  1.2866522168100583e-55 -1.4248339183859624e-54 0.0000000000000000e+00  -2.1871658260636317e-54 -3.4655971086201690e-54 0.0000000000000000e+00  5.7327531815717779e-55 -8.2270710005574997e-54 0.0000000000000000e+00  -3.9432416770732020e-54 -1.3555991009432384e-53 0.0000000000000000e+00  4.7081059911009262e-54 -7.7160881579548592e-54 0.0000000000000000e+00  2.0386696085102700e-55 -6.5064689302482555e-55 0.0000000000000000e+00  -4.8177172608219211e-54 -8.0077210921797052e-54 0.0000000000000000e+00  4.8438416356227013e-54 -7.8703573590447180e-54 0.0000000000000000e+00  -1.6677560615685895e-56 -1.3349695221660599e-55 0.0000000000000000e+00  1.1193566650653439e-56 -2.7679820766189338e-55 0.0000000000000000e+00  2.2147325728392540e-56 -9.8796660123044159e-56 0.0000000000000000e+00  -5.2230754837815631e-54 -9.3538605284974431e-54 0.0000000000000000e+00  5.5707777281154054e-54 -9.4071032770763547e-54 0.0000000000000000e+00  5.6953556320679484e-56 -1.0517708631582478e-55 0.0000000000000000e+00  -1.4381503161797211e-56 -6.2049316705657893e-56 0.0000000000000000e+00  -5.0171860687318237e-55 -9.0477515245087631e-55 0.0000000000000000e+00  -5.8353915882421215e-54 -1.0047660343428594e-53 0.0000000000000000e+00  4.5195068409641738e-54 -1.0490088918042254e-53 0.0000000000000000e+00  -3.0631072581724895e-54 -7.9866299208406434e-54 0.0000000000000000e+00  2.4472573267118294e-54 -8.5487371772681473e-54 0.0000000000000000e+00  2.2539970675217463e-54 -3.3050612188201949e-54 0.0000000000000000e+00  -5.4551106161232786e-55 -1.4801400498171233e-54 0.0000000000000000e+00  8.3836125160885679e-55 -1.5733400914531790e-54 0.0000000000000000e+00  -4.9393986689050866e-55 -9.8353405469972130e-55 0.0000000000000000e+00  5.1406196864410978e-55 -8.8516100262713332e-55 0.0000000000000000e+00  -1.5713450802508080e-56 -2.6931077161957728e-56 0.0000000000000000e+00  -4.4904053644841888e-56 -1.7221228401295276e-55 0.0000000000000000e+00  4.1835074571942714e-56 -1.7464677518231019e-55 0.0000000000000000e+00  4.8127076249713121e-57 -6.9026256546927285e-56 0.0000000000000000e+00  -2.7557148433771816e-56 -6.5448200090001842e-56 0.0000000000000000e+00  3.2959354532393902e-56 -6.4110921127266223e-56 0.0000000000000000e+00  -2.8653516187419508e-57 -2.8735808649755692e-56 0.0000000000000000e+00  1.2987610391828675e-56 -3.0009855708693301e-56 0.0000000000000000e+00  1.0044374587571198e-57 -2.3982537170128828e-57 0.0000000000000000e+00  -4.3914088244576437e-57 -7.6427066448637916e-57 0.0000000000000000e+00  4.2573831861703723e-57 -1.1003472491188669e-56 0.0000000000000000e+00  3.1300219970843264e-58 -1.0210451187656936e-57 0.0000000000000000e+00  1.4403201198017190e-58 -5.025000