<?xml version="1.0"?>
<VTKFile type="UnstructuredGrid"  version="0.1"  >
<UnstructuredGrid>
<Piece  NumberOfPoints="11902" NumberOfCells="23402">
<Points>
<DataArray  type="Float64"  NumberOfComponents="3"  format="ascii">-5 -5 0  5 -5 0  5 5 0  -5 5 0  1.197211427963226 0.001277235513226914 0  -4.9 -5 0  -4.8 -5 0  -4.7 -5 0  -4.6 -5 0  -4.5 -5 0  -4.4 -5 0  -4.3 -5 0  -4.2 -5 0  -4.1 -5 0  -4 -5 0  -3.9 -5 0  -3.8 -5 0  -3.7 -5 0  -3.6 -5 0  -3.5 -5 0  -3.4 -5 0  -3.3 -5 0  -3.2 -5 0  -3.1 -5 0  -3 -5 0  -2.9 -5 0  -2.8 -5 0  -2.7 -5 0  -2.6 -5 0  -2.5 -5 0  -2.4 -5 0  -2.3 -5 0  -2.2 -5 0  -2.1 -5 0  -2 -5 0  -1.9 -5 0  -1.8 -5 0  -1.7 -5 0  -1.6 -5 0  -1.5 -5 0  -1.4 -5 0  -1.3 -5 0  -1.2 -5 0  -1.1 -5 0  -1 -5 0  -0.9000000000000004 -5 0  -0.7999999999999998 -5 0  -0.7000000000000002 -5 0  -0.5999999999999996 -5 0  -0.5 -5 0  -0.4000000000000004 -5 0  -0.2999999999999998 -5 0  -0.2000000000000002 -5 0  -0.09999999999999964 -5 0  0 -5 0  0.09999999999999964 -5 0  0.2000000000000002 -5 0  0.2999999999999998 -5 0  0.4000000000000004 -5 0  0.5 -5 0  0.5999999999999996 -5 0  0.7000000000000002 -5 0  0.7999999999999998 -5 0  0.9000000000000004 -5 0  1 -5 0  1.1 -5 0  1.2 -5 0  1.3 -5 0  1.4 -5 0  1.5 -5 0  1.6 -5 0  1.7 -5 0  1.8 -5 0  1.9 -5 0  2 -5 0  2.1 -5 0  2.2 -5 0  2.3 -5 0  2.4 -5 0  2.5 -5 0  2.6 -5 0  2.7 -5 0  2.8 -5 0  2.9 -5 0  3 -5 0  3.1 -5 0  3.199999999999999 -5 0  3.300000000000001 -5 0  3.4 -5 0  3.5 -5 0  3.6 -5 0  3.699999999999999 -5 0  3.800000000000001 -5 0  3.9 -5 0  4 -5 0  4.1 -5 0  4.199999999999999 -5 0  4.300000000000001 -5 0  4.4 -5 0  4.5 -5 0  4.6 -5 0  4.699999999999999 -5 0  4.800000000000001 -5 0  4.9 -5 0  5 -4.9 0  5 -4.8 0  5 -4.7 0  5 -4.6 0  5 -4.5 0  5 -4.4 0  5 -4.3 0  5 -4.2 0  5 -4.1 0  5 -4 0  5 -3.9 0  5 -3.8 0  5 -3.7 0  5 -3.6 0  5 -3.5 0  5 -3.4 0  5 -3.3 0  5 -3.2 0  5 -3.1 0  5 -3 0  5 -2.9 0  5 -2.8 0  5 -2.7 0  5 -2.6 0  5 -2.5 0  5 -2.4 0  5 -2.3 0  5 -2.2 0  5 -2.1 0  5 -2 0  5 -1.9 0  5 -1.8 0  5 -1.7 0  5 -1.6 0  5 -1.5 0  5 -1.4 0  5 -1.3 0  5 -1.2 0  5 -1.1 0  5 -1 0  5 -0.9000000000000004 0  5 -0.7999999999999998 0  5 -0.7000000000000002 0  5 -0.5999999999999996 0  5 -0.5 0  5 -0.4000000000000004 0  5 -0.2999999999999998 0  5 -0.2000000000000002 0  5 -0.09999999999999964 0  5 0 0  5 0.09999999999999964 0  5 0.2000000000000002 0  5 0.2999999999999998 0  5 0.4000000000000004 0  5 0.5 0  5 0.5999999999999996 0  5 0.7000000000000002 0  5 0.7999999999999998 0  5 0.9000000000000004 0  5 1 0  5 1.1 0  5 1.2 0  5 1.3 0  5 1.4 0  5 1.5 0  5 1.6 0  5 1.7 0  5 1.8 0  5 1.9 0  5 2 0  5 2.1 0  5 2.2 0  5 2.3 0  5 2.4 0  5 2.5 0  5 2.6 0  5 2.7 0  5 2.8 0  5 2.9 0  5 3 0  5 3.1 0  5 3.199999999999999 0  5 3.300000000000001 0  5 3.4 0  5 3.5 0  5 3.6 0  5 3.699999999999999 0  5 3.800000000000001 0  5 3.9 0  5 4 0  5 4.1 0  5 4.199999999999999 0  5 4.300000000000001 0  5 4.4 0  5 4.5 0  5 4.6 0  5 4.699999999999999 0  5 4.800000000000001 0  5 4.9 0  4.9 5 0  4.8 5 0  4.7 5 0  4.6 5 0  4.5 5 0  4.4 5 0  4.3 5 0  4.2 5 0  4.1 5 0  4 5 0  3.9 5 0  3.8 5 0  3.7 5 0  3.6 5 0  3.5 5 0  3.4 5 0  3.3 5 0  3.2 5 0  3.1 5 0  3 5 0  2.9 5 0  2.8 5 0  2.7 5 0  2.6 5 0  2.5 5 0  2.4 5 0  2.3 5 0  2.2 5 0  2.1 5 0  2 5 0  1.9 5 0  1.8 5 0  1.7 5 0  1.6 5 0  1.5 5 0  1.4 5 0  1.3 5 0  1.2 5 0  1.1 5 0  1 5 0  0.9000000000000004 5 0  0.7999999999999998 5 0  0.7000000000000002 5 0  0.5999999999999996 5 0  0.5 5 0  0.4000000000000004 5 0  0.2999999999999998 5 0  0.2000000000000002 5 0  0.09999999999999964 5 0  0 5 0  -0.09999999999999964 5 0  -0.2000000000000002 5 0  -0.2999999999999998 5 0  -0.4000000000000004 5 0  -0.5 5 0  -0.5999999999999996 5 0  -0.7000000000000002 5 0  -0.7999999999999998 5 0  -0.9000000000000004 5 0  -1 5 0  -1.1 5 0  -1.2 5 0  -1.3 5 0  -1.4 5 0  -1.5 5 0  -1.6 5 0  -1.7 5 0  -1.8 5 0  -1.9 5 0  -2 5 0  -2.1 5 0  -2.2 5 0  -2.3 5 0  -2.4 5 0  -2.5 5 0  -2.6 5 0  -2.7 5 0  -2.8 5 0  -2.9 5 0  -3 5 0  -3.1 5 0  -3.199999999999999 5 0  -3.300000000000001 5 0  -3.4 5 0  -3.5 5 0  -3.6 5 0  -3.699999999999999 5 0  -3.800000000000001 5 0  -3.9 5 0  -4 5 0  -4.1 5 0  -4.199999999999999 5 0  -4.300000000000001 5 0  -4.4 5 0  -4.5 5 0  -4.6 5 0  -4.699999999999999 5 0  -4.800000000000001 5 0  -4.9 5 0  -5 4.9 0  -5 4.8 0  -5 4.7 0  -5 4.6 0  -5 4.5 0  -5 4.4 0  -5 4.3 0  -5 4.2 0  -5 4.1 0  -5 4 0  -5 3.9 0  -5 3.8 0  -5 3.7 0  -5 3.6 0  -5 3.5 0  -5 3.4 0  -5 3.3 0  -5 3.2 0  -5 3.1 0  -5 3 0  -5 2.9 0  -5 2.8 0  -5 2.7 0  -5 2.6 0  -5 2.5 0  -5 2.4 0  -5 2.3 0  -5 2.2 0  -5 2.1 0  -5 2 0  -5 1.9 0  -5 1.8 0  -5 1.7 0  -5 1.6 0  -5 1.5 0  -5 1.4 0  -5 1.3 0  -5 1.2 0  -5 1.1 0  -5 1 0  -5 0.9000000000000004 0  -5 0.7999999999999998 0  -5 0.7000000000000002 0  -5 0.5999999999999996 0  -5 0.5 0  -5 0.4000000000000004 0  -5 0.2999999999999998 0  -5 0.2000000000000002 0  -5 0.09999999999999964 0  -5 0 0  -5 -0.09999999999999964 0  -5 -0.2000000000000002 0  -5 -0.2999999999999998 0  -5 -0.4000000000000004 0  -5 -0.5 0  -5 -0.5999999999999996 0  -5 -0.7000000000000002 0  -5 -0.7999999999999998 0  -5 -0.9000000000000004 0  -5 -1 0  -5 -1.1 0  -5 -1.2 0  -5 -1.3 0  -5 -1.4 0  -5 -1.5 0  -5 -1.6 0  -5 -1.7 0  -5 -1.8 0  -5 -1.9 0  -5 -2 0  -5 -2.1 0  -5 -2.2 0  -5 -2.3 0  -5 -2.4 0  -5 -2.5 0  -5 -2.6 0  -5 -2.7 0  -5 -2.8 0  -5 -2.9 0  -5 -3 0  -5 -3.1 0  -5 -3.199999999999999 0  -5 -3.300000000000001 0  -5 -3.4 0  -5 -3.5 0  -5 -3.6 0  -5 -3.699999999999999 0  -5 -3.800000000000001 0  -5 -3.9 0  -5 -4 0  -5 -4.1 0  -5 -4.199999999999999 0  -5 -4.300000000000001 0  -5 -4.4 0  -5 -4.5 0  -5 -4.6 0  -5 -4.699999999999999 0  -5 -4.800000000000001 0  -5 -4.9 0  1.191252969315409 0.09913703392926262 0  1.172559132749819 0.1973392874042279 0  1.141273666711512 0.2946060307848732 0  1.100784473592248 0.3861551920825379 0  1.048142930649958 0.4768378742926173 0  0.9861341453426818 0.5619588067565436 0  0.9132347889667148 0.6417275475225844 0  0.831059445711171 0.7145464375272255 0  0.7418479106534576 0.7802385830865444 0  0.6445012209334512 0.8387658671129684 0  0.5400500698368852 0.8895878538908399 0  0.431405721828501 0.9314863499808747 0  0.3204074712549516 0.9642986785409284 0  0.2038900322578934 0.9866994166763474 0  0.08843655738045574 1.001270625436163 0  -0.02770000193039553 1.004040538623792 0  -0.1440086319421875 0.9943309474419549 0  -0.2616029311229622 0.9766627431485334 0  -0.375924955466006 0.950472026300591 0  -0.4851540212818369 0.9139496808889762 0  -0.5896374183510236 0.8683781119272611 0  -0.6890372934444672 0.8136538177075412 0  -0.7813224360820317 0.7507474154646577 0  -0.867076925541432 0.6802353483644391 0  -0.9454946293265134 0.6021530381277528 0  -1.013571990746874 0.5197184711537767 0  -1.072162587685438 0.4327743195021722 0  -1.119466737692335 0.3406472733848226 0  -1.154935900399427 0.2465495419251126 0  -1.178785081600327 0.1499488318880328 0  -1.190874912585881 0.05078742111898203 0  -1.19087107532758 -0.04904139672548943 0  -1.17872400182527 -0.1478745288587526 0  -1.155775493408097 -0.2444746853906975 0  -1.118955524008984 -0.3402803058038994 0  -1.072524718370831 -0.4315612856298185 0  -1.014558270998448 -0.5188061554756463 0  -0.9470020810055764 -0.6007972809985819 0  -0.8688951547080966 -0.6777154228996964 0  -0.7827329709788835 -0.7472411134303717 0  -0.6891605446151168 -0.8085342678193314 0  -0.5898449479360817 -0.8628720675496366 0  -0.4824368246221503 -0.9096662174739779 0  -0.3726706428048833 -0.9476917802899848 0  -0.2587700786392184 -0.9753086011852162 0  -0.1426124471635725 -0.9934146815688034 0  -0.02728902861106011 -1.003169506234097 0  0.08905037328245807 -0.9987838804084161 0  0.2067498933529305 -0.9844272367257273 0  0.32200936961026 -0.9626322636636293 0  0.4347724424909838 -0.9300644354057185 0  0.5417070138318768 -0.8886265891780034 0  0.6452222080001325 -0.8383560451051388 0  0.7420205558309717 -0.7812085446317197 0  0.8311259053781553 -0.7152552697847362 0  0.9127369057066151 -0.6411682155373457 0  0.9847138278645143 -0.5612970232569451 0  1.048002495580657 -0.4762778052630646 0  1.101819487799095 -0.3862255469706914 0  1.142690012417752 -0.2931684024243928 0  1.172814765152311 -0.1965109920688516 0  1.19127382210305 -0.09867344974834276 0  -2.448790475850735 4.918534846152168 0  -2.448685124770027 -4.910951388939243 0  4.910886135789021 2.448220814927444 0  4.918969534431005 -2.449652758148995 0  2.446455640090591 -4.896262693383404 0  2.440879644380352 4.900007825986787 0  -4.910909526354196 -2.448243722910365 0  -4.91090781205763 2.44824755942664 0  -1.748752947738688 4.911609863132475 0  -1.74452940830763 -4.915027256675564 0  4.921185784859416 1.7443649888435 0  4.909797911883309 -1.748169201714863 0  -4.910084905187492 -1.747898561736375 0  -4.910902569021959 1.747639939353654 0  1.74604057008906 4.905510648017354 0  1.747483982276322 -4.8937335502982 0  -1.14901586140542 4.909520617361372 0  -1.129854747967554 -4.917376102854825 0  -4.90996304509791 -1.148168358653799 0  -4.909783849951828 1.147968466943654 0  1.14399931287457 -4.913590095059209 0  1.149023720406264 4.909509381612979 0  4.910109343471451 1.146445705391617 0  4.920846387789684 -1.152199614552874 0  -0.5467598541966812 -4.910772730173046 0  -0.5465336530882769 4.919387185247778 0  -4.908824869065976 -0.5488422970367743 0  -4.90884927989462 0.5473985504914707 0  4.908159106491932 -0.5491632467449958 0  4.919702822178476 0.5459023484499623 0  0.5425510619691756 -4.897761032712449 0  0.5512639213874759 4.916236825625871 0  -4.912188019139447 -3.048545821728126 0  4.918739260128781 3.046545713606819 0  4.91169910006005 -3.048525565445582 0  -4.913034329579909 3.045635354423168 0  3.055491519339256 -4.917676778270143 0  -3.048836678028387 -4.911632686271084 0  3.05239953584172 4.913705190577445 0  -3.048280983909591 4.912520051597297 0  -4.907981353688202 -0.04992104967812306 0  0.04512551950566249 -4.912728924179338 0  0.04957381815202459 4.91969827292943 0  4.91497356564636 -0.05130229817638356 0  3.545770194274368 -4.9192322882685 0  -3.54906383003043 4.912148
[...]
<PointData  Vectors="f_2246"> 
<DataArray  type="Float64"  Name="f_2246"  NumberOfComponents="3" format="ascii">2.6559658580599389e-76 2.6559658580599389e-76 0.0000000000000000e+00  -2.8445085011138036e-76 2.8445085011138036e-76 0.0000000000000000e+00  -8.5659604779044992e-78 -8.5659604779044992e-78 0.0000000000000000e+00  3.0308186857309219e-76 -3.0308186857309219e-76 0.0000000000000000e+00  -4.0408870619989024e-01 -7.7682727690589421e-03 0.0000000000000000e+00  4.1652983035189093e-75 6.6067921170705745e-75 0.0000000000000000e+00  2.0830046924373563e-75 2.0879430426555880e-74 0.0000000000000000e+00  -3.4040356195100726e-75 6.7699649052616069e-75 0.0000000000000000e+00  3.9979930849020999e-72 6.6700092935580518e-72 0.0000000000000000e+00  5.3138614517831678e-71 1.3460942737071695e-70 0.0000000000000000e+00  -7.9121137157487319e-72 4.5545614005009683e-71 0.0000000000000000e+00  3.2309822732559710e-69 6.1652746261032208e-69 0.0000000000000000e+00  5.1551133866951430e-68 9.4043096544896263e-68 0.0000000000000000e+00  -3.0594672093772783e-68 1.4996157833910148e-67 0.0000000000000000e+00  1.2749579583767848e-67 3.9832677900950195e-67 0.0000000000000000e+00  1.2692134791439533e-68 8.7786968838733954e-67 0.0000000000000000e+00  5.4415748242530620e-64 8.8314806150282026e-64 0.0000000000000000e+00  4.7549501986840034e-65 2.4418203131804809e-63 0.0000000000000000e+00  1.3461281479157375e-62 2.2014458447326781e-62 0.0000000000000000e+00  8.0532843982706080e-63 8.3192965807685565e-62 0.0000000000000000e+00  6.9130064291152956e-61 1.1037036935822030e-60 0.0000000000000000e+00  4.0506043821518300e-60 7.0154436261081678e-60 0.0000000000000000e+00  -2.8380066981868688e-60 7.6925337504423280e-60 0.0000000000000000e+00  5.6440407630900353e-59 1.1381049098445601e-58 0.0000000000000000e+00  -1.7524229346801977e-59 1.1642073058072582e-58 0.0000000000000000e+00  -2.9916450341972015e-59 6.8308148897516802e-59 0.0000000000000000e+00  1.7949786164134856e-58 3.3088995052489285e-58 0.0000000000000000e+00  7.2690270161463764e-58 2.0913295727214313e-57 0.0000000000000000e+00  2.8475496802935101e-57 6.2406198084653157e-57 0.0000000000000000e+00  -3.3905928690949516e-57 5.7287068282264573e-57 0.0000000000000000e+00  -3.5043306136205687e-58 1.0968189543664263e-57 0.0000000000000000e+00  1.8985135065311093e-56 2.9372680740694898e-56 0.0000000000000000e+00  -1.4053492656001412e-56 3.5269665857401641e-56 0.0000000000000000e+00  1.1845530510733258e-56 2.8967305038854912e-56 0.0000000000000000e+00  8.6863363511382510e-56 2.0999690496017420e-55 0.0000000000000000e+00  -2.4866726966515627e-56 5.7428871298287585e-55 0.0000000000000000e+00  5.1761830674682765e-57 8.6262516062358043e-57 0.0000000000000000e+00  5.5078922438032555e-56 1.3831448200240824e-55 0.0000000000000000e+00  1.5385620453236188e-55 6.1735550750641656e-55 0.0000000000000000e+00  -2.2198152193405540e-55 3.5110779047956269e-55 0.0000000000000000e+00  9.7637271094085121e-55 1.7252190229835341e-54 0.0000000000000000e+00  -4.3817147873935260e-55 4.3607750199961627e-54 0.0000000000000000e+00  -2.2624445522594237e-55 2.6816959477148986e-54 0.0000000000000000e+00  -9.5353001427598502e-56 9.4382384605092629e-55 0.0000000000000000e+00  -1.1217298020250643e-55 1.8202010292225719e-55 0.0000000000000000e+00  2.7370784469103572e-54 5.2380332799993819e-54 0.0000000000000000e+00  -2.1415038782946418e-54 4.1359107194219419e-54 0.0000000000000000e+00  -7.1300470160459231e-55 8.0715312578553028e-55 0.0000000000000000e+00  -1.3088340812630512e-55 2.7118580500580401e-55 0.0000000000000000e+00  9.2213283227184400e-55 1.4460583657271919e-54 0.0000000000000000e+00  9.3727338120199087e-55 6.1556328867752677e-54 0.0000000000000000e+00  -1.1182687196462462e-54 5.8986505981753813e-54 0.0000000000000000e+00  5.1014257921130904e-55 4.6486328959921077e-54 0.0000000000000000e+00  1.8962371202921782e-56 5.7934393660525334e-54 0.0000000000000000e+00  2.9902915498030422e-55 6.1516137381990383e-54 0.0000000000000000e+00  -1.2502526533138851e-54 2.0444123560406254e-54 0.0000000000000000e+00  -6.4004740908102133e-55 1.4725392693658535e-53 0.0000000000000000e+00  4.4238083430548198e-54 7.4668678488199909e-54 0.0000000000000000e+00  -4.3087702495995077e-54 8.0990849579615653e-54 0.0000000000000000e+00  1.9049938198064350e-54 3.9552575101850404e-54 0.0000000000000000e+00  -7.3026373375928266e-55 9.5002779057217981e-54 0.0000000000000000e+00  1.3193003591153324e-54 9.3278828812583072e-54 0.0000000000000000e+00  -1.6707848062554970e-54 4.3986965337111422e-54 0.0000000000000000e+00  -9.1756878584690069e-55 2.4062386807822086e-54 0.0000000000000000e+00  3.3037829428686285e-55 1.2991553343346316e-54 0.0000000000000000e+00  2.6343600826128079e-55 2.5372839068700745e-54 0.0000000000000000e+00  -7.7993399815620266e-56 3.4901634166514405e-54 0.0000000000000000e+00  -7.0604673525765344e-55 1.4829046962649229e-54 0.0000000000000000e+00  2.3604060542303323e-55 4.4213991729778904e-55 0.0000000000000000e+00  -2.2938442479253119e-55 6.0283544116153608e-55 0.0000000000000000e+00  4.9972229599104516e-56 2.3970224958583976e-55 0.0000000000000000e+00  1.8531964093077049e-55 9.5203302915254692e-55 0.0000000000000000e+00  -3.2827608351589082e-55 5.3091046721725325e-55 0.0000000000000000e+00  -1.5814607274876908e-56 4.8256028016368643e-56 0.0000000000000000e+00  -1.1293173624341043e-57 1.1335537851077627e-56 0.0000000000000000e+00  6.7128901758738183e-57 2.3536433469383069e-56 0.0000000000000000e+00  -8.9445046277090872e-57 1.5039608336149488e-56 0.0000000000000000e+00  1.7324550956830006e-57 2.8833383855403931e-57 0.0000000000000000e+00  -1.2380034895334083e-57 2.7269149446422728e-57 0.0000000000000000e+00  5.1509427519145239e-57 7.7982700415308695e-57 0.0000000000000000e+00  -4.5130539012536144e-57 1.1259668793269753e-56 0.0000000000000000e+00  -1.8057140238374675e-58 9.3985427654197659e-58 0.0000000000000000e+00  -2.3821003667454306e-58 4.6569650806205277e-58 0.0000000000000000e+00  -7.8459937097175174e-61 8.8104816552624439e-59 0.0000000000000000e+00  -2.4364934462105124e-59 6.4271529976117037e-59 0.0000000000000000e+00  -7.0896704735962375e-60 2.5009661221145425e-59 0.0000000000000000e+00  -4.3716235602274693e-60 2.2393161518852473e-59 0.0000000000000000e+00  -3.0532673915425646e-60 7.1727883062017325e-60 0.0000000000000000e+00  -8.4969933948774087e-62 4.4365067335422701e-61 0.0000000000000000e+00  -1.0727530343758876e-61 2.2356471316651949e-61 0.0000000000000000e+00  -3.5779060132370114e-62 5.6793178203179934e-62 0.0000000000000000e+00  -3.9002706203517081e-64 6.7030404298092631e-64 0.0000000000000000e+00  -2.4258705463094845e-65 5.1737730183108799e-65 0.0000000000000000e+00  3.6995916403173233e-66 1.0381807227936356e-65 0.0000000000000000e+00  -4.8336676079070448e-66 9.2667595283690722e-66 0.0000000000000000e+00  -6.6882390329105316e-68 2.7717762206641787e-67 0.0000000000000000e+00  -7.8418375440657648e-68 1.2924865719661629e-67 0.0000000000000000e+00  -8.0507565006814544e-69 1.1738544440610495e-68 0.0000000000000000e+00  -5.6273438461981662e-70 9.5241934884399990e-70 0.0000000000000000e+00  -3.7761924901521238e-71 6.8207978944489385e-71 0.0000000000000000e+00  -1.8771702108505141e-72 3.2035632834165485e-72 0.0000000000000000e+00  -1.2172628948369451e-73 2.7270741738592311e-73 0.0000000000000000e+00  -4.4196055626959582e-75 1.2912658664966820e-74 0.0000000000000000e+00  -2.5476938929910415e-75 4.2415191214213111e-75 0.0000000000000000e+00  -9.7695240640290735e-76 3.5577681115347376e-76 0.0000000000000000e+00  -1.6209626540262819e-75 -2.3909941991786815e-76 0.0000000000000000e+00  -2.4493721351121402e-74 1.1586837617760987e-74 0.0000000000000000e+00  -3.6792282266711710e-74 1.5495595315356757e-75 0.0000000000000000e+00  -3.8839057993549355e-73 1.4327279873433061e-73 0.0000000000000000e+00  -1.0242606085179529e-71 6.2338799285885594e-72 0.0000000000000000e+00  -6.7443376235535123e-71 3.7051899652715110e-71 0.0000000000000000e+00  -1.0610830113633658e-70 3.8992195267125060e-72 0.0000000000000000e+00  -8.9041488542221158e-70 3.3057540379544270e-70 0.0000000000000000e+00  -2.1303233047257312e-68 1.2849552104214808e-68 0.0000000000000000e+00  -1.0244899669831666e-67 5.1035073882688285e-68 0.0000000000000000e+00  -1.0125604692559609e-67 -6.0169641563784638e-68 0.0000000000000000e+00  -3.1686874490166886e-66 1.7434088172739457e-66 0.0000000000000000e+00  -3.1885813413356913e-65 1.8285930762312263e-65 0.0000000000000000e+00  -5.3869160751659528e-65 5.0362382283357588e-66 0.0000000000000000e+00  -4.4394810265146239e-64 1.4437477146727541e-64 0.0000000000000000e+00  -7.0027080965867168e-63 4.3493341960713983e-63 0.0000000000000000e+00  -1.5073311039064883e-62 3.7393030568682375e-63 0.0000000000000000e+00  -8.4378646744237429e-62 1.9619286288601069e-62 0.0000000000000000e+00  -1.3570956637999499e-60 8.4940633505614685e-61 0.0000000000000000e+00  -2.4178108813542271e-60 3.3714532461286016e-61 0.0000000000000000e+00  -2.1189524861555417e-59 7.3747438527435645e-60 0.0000000000000000e+00  -2.4213036613189383e-58 1.4892329308044715e-58 0.0000000000000000e+00  -2.5848005888823981e-58 -9.3810689898376519e-59 0.0000000000000000e+00  -5.9864326864655721e-57 2.7704836612139764e-57 0.0000000000000000e+00  -2.4873743015197492e-56 1.2336139654775100e-56 0.0000000000000000e+00  -5.5605217444783426e-56 -8.6363826356187041e-57 0.0000000000000000e+00  -1.0133842027366682e-54 6.4471051527546355e-55 0.0000000000000000e+00  -1.1194581105486720e-54 -3.4447870500876643e-55 0.0000000000000000e+00  -2.4121901844616070e-53 1.2621454720717376e-53 0.0000000000000000e+00  -6.6032114104272847e-53 2.9705397699650147e-53 0.0000000000000000e+00  -4.3606948154855683e-52 1.2168618468881713e-52 0.0000000000000000e+00  -2.6714138747534371e-51 1.6515316240296266e-51 0.0000000000000000e+00  -7.6653759563395935e-51 -2.1166656808570854e-52 0.0000000000000000e+00  -7.2119395737313764e-50 4.5618312380528227e-50 0.0000000000000000e+00  -1.6168043615294234e-49 -1.4638081440200322e-50 0.0000000000000000e+00  -1.7327389245270254e-48 1.0016356277417443e-48 0.0000000000000000e+00  -4.3407984358032114e-48 -2.0172690482815120e-49 0.0000000000000000e+00  -2.0170089343752473e-47 1.0997013371589070e-47 0.0000000000000000e+00  -1.1033605529421548e-46 1.8790094298528699e-47 0.0000000000000000e+00  -1.0253778457252378e-46 2.4359824197906134e-47 0.0000000000000000e+00  -1.2420581451265037e-45 5.2011774516750461e-46 0.0000000000000000e+00  -8.7258128311689046e-46 -5.6196164999319190e-46 0.0000000000000000e+00  -1.3447080308371339e-44 7.9859943190486684e-45 0.0000000000000000e+00  -5.7988678332802516e-44 1.3593346485978972e-44 0.0000000000000000e+00  -3.6133554040654740e-44 -1.7320511119255415e-44 0.0000000000000000e+00  -1.1433200406892999e-43 6.4289142344437683e-44 0.0000000000000000e+00  -8.4158676493988712e-43 2.2903989090912777e-43 0.0000000000000000e+00  -1.9294786540958520e-42 1.9535424153565878e-43 0.0000000000000000e+00  -2.5120899513756916e-42 6.0358821339441045e-44 0.0000000000000000e+00  -2.0148545880975932e-42 -1.9263246920798241e-43 0.0000000000000000e+00  -8.6166402336645896e-43 -2.4778794832890990e-43 0.0000000000000000e+00  -1.1332705353243532e-43 -6.3756849686881481e-44 0.0000000000000000e+00  -3.8692192680388299e-44 1.8298559207394758e-44 0.0000000000000000e+00  -6.3192348255878931e-44 -1.0708628534869669e-44 0.0000000000000000e+00  -1.5006292010909621e-44 -7.7840794864294949e-45 0.0000000000000000e+00  -9.9761119309873851e-46 5.6123017618250453e-46 0.0000000000000000e+00  -1.4054595037509275e-45 -5.3319240659270719e-46 0.0000000000000000e+00  -1.1216402409022376e-46 -2.8266551103300504e-47 0.0000000000000000e+00  -1.0188837894074243e-46 -2.1221530313110937e-47 0.0000000000000000e+00  -1.8649372547553117e-47 -1.1858303495665509e-47 0.0000000000000000e+00  -4.0852397004312327e-48 2.0084086670109155e-49 0.0000000000000000e+00  -1.4902244144821958e-48 -9.2744302963623208e-49 0.0000000000000000e+00  -1.6323531352494252e-49 2.4312832005179903e-50 0.0000000000000000e+00  -7.4751322222842083e-50 -4.3825724759922199e-50 0.0000000000000000e+00  -8.2439653512459264e-51 6.3428966464711214e-52 0.0000000000000000e+00  -3.1527504372378259e-51 -1.7691579598853659e-51 0.0000000000000000e+00  -5.1076961490736304e-52 -1.1382152047702367e-52 0.0000000000000000e+00  -8.2207311304834955e-53 -3.5204081904501449e-53 0.0000000000000000e+00  -2.6673602693700570e-53 -1.3064450923209132e-53 0.0000000000000000e+00  -1.1958490246362681e-54 3.2169692908720787e-55 0.0000000000000000e+00  -1.0664952784797676e-54 -6.7611773176041477e-55 0.0000000000000000e+00  -5.1488868868811305e-56 8.2910675314575653e-57 0.0000000000000000e+00  -2.3418742558686536e-56 -1.3160667160802512e-56 0.0000000000000000e+00  -4.8336578563176402e-57 -2.5076602917425976e-57 0.0000000000000000e+00  -2.4553959580818883e-58 8.5004584582737802e-59 0.0000000000000000e+00  -2.1632364914802775e-58 -1.3219896909528922e-58 0.0000000000000000e+00  -1.9932206384256027e-59 -6.1192193396474900e-60 0.0000000000000000e+00  -2.3761141414085061e-60 -3.3808945193873431e-61 0.0000000000000000e+00  -1.2934045270483901e-60 -7.5775871566513958e-61 0.0000000000000000e+00  -7.6973471802991762e-62 -2.1362472521356949e-62 0.0000000000000000e+00  -1.3602917102190040e-62 -2.9198401426309170e-63 0.0000000000000000e+00  -6.6502578231582351e-63 -3.7759652254275510e-63 0.0000000000000000e+00  -4.7879303462357138e-64 -1.8143704485804277e-64 0.0000000000000000e+00  -4.3636059042058178e-65 9.5533311377267822e-67 0.0000000000000000e+00  -2.9522044684830927e-65 -1.6578464442547360e-65 0.0000000000000000e+00  -3.4176546149405562e-66 -1.9842015608048779e-66 0.0000000000000000e+00  -8.9833308647626004e-68 5.4684260223968854e-68 0.0000000000000000e+00  -8.6446823390754673e-68 -4.1695404624875296e-68 0.0000000000000000e+00  -2.0704222297740455e-68 -1.2828167229060122e-68 0.0000000000000000e+00  -1.1334007850783944e-69 -5.1264061397385938e-70 0.0000000000000000e+00  -8.7924117740788028e-71 1.3770415068231801e-71 0.0000000000000000e+00  -6.9126745582842445e-71 -3.6530139239348899e-71 0.0000000000000000e+00  -1.2486926271664939e-71 -7.6550667920750155e-72 0.0000000000000000e+00  -5.9840765328179621e-73 -2.7491532774034759e-73 0.0000000000000000e+00  -3.9232004380422210e-74 7.4185339054283367e-75 0.0000000000000000e+00  -3.1573074287529735e-74 -1.4783367848370802e-74 0.0000000000000000e+00  -6.5916727509189299e-75 -3.3561608377909379e-75 0.0000000000000000e+00  -7.1801897276703921e-76 -3.1068981016828674e-76 0.0000000000000000e+00  -8.5507950303420761e-76 -1.6229464729048703e-75 0.0000000000000000e+00  -4.7728128729603735e-75 -1.3946573814828076e-74 0.0000000000000000e+00  4.3644421378645749e-75 -8.3065437583438245e-75 0.0000000000000000e+00  -1.6284178016318569e-73 -3.4280982235110112e-73 0.0000000000000000e+00  -9.2776187892036103e-71 -1.0076370905876117e-70 0.0000000000000000e+00  -7.4987936136208443e-70 -1.3183860220079251e-69 0.0000000000000000e+00  -1.0971321043709529e-69 -3.6523714585802538e-69 0.0000000000000000e+00  -7.7506818443000018e-68 -1.7122981871599647e-67 0.0000000000000000e+00  -6.5208956765623441e-68 -3.2608029474132527e-67 0.0000000000000000e+00  -6.7787247010877685e-66 -1.3509915350202364e-65 0.0000000000000000e+00  -4.5110535457970342e-66 -2.1323454979423551e-65 0.0000000000000000e+00  -9.0506086636358415e-65 -1.5590779631019276e-64 0.0000000000000000e+00  1.7179497952608281e-65 -2.1032496472292217e-64 0.0000000000000000e+00  -4.2653550731582894e-62 -6.4104661362593049e-62 0.0000000000000000e+00  -6.9797151323957128e-62 -1.7221254536945464e-61 0.0000000000000000e+00  -2.3192194724864931e-62 -2.7291312949124179e-61 0.0000000000000000e+00  -5.7232025024527777e-60 -1.1374997265709831e-59 0.0000000000000000e+00  4.7508416958489420e-60 -1.5008834659476149e-59 0.0000000000000000e+00  -2.8909888224078879e-59 -4.7557483586945561e-59 0.0000000000000000e+00  8.7886065564555248e-60 -6.0839575186581542e-59 0.0000000000000000e+00  2.3161545120540196e-59 -3.9660122482756156e-59 0.0000000000000000e+00  -5.6154679085064343e-58 -8.9617971641874899e-58 0.0000000000000000e+00  -1.3743322722985215e-59 -1.2602744578135726e-57 0.0000000000000000e+00  -4.6140334161029224e-57 -1.1649746222063634e-56 0.0000000000000000e+00  5.7218886229222268e-57 -8.6588929001392559e-57 0.0000000000000000e+00  -5.3081771983894640e-57 -7.3523546064584809e-57 0.0000000000000000e+00  -1.7581813139202113e-56 -3.7781487094227946e-56 0.0000000000000000e+00  2.1501876694121168e-56 -4.0654063245400510e-56 0.0000000000000000e+00  -4.9755077663838333e-57 -9.2140473489537371e-57 0.0000000000000000e+00  -8.0734817894884839e-56 -2.0331826650903514e-55 0.0000000000000000e+00  6.3302329001188496e-56 -5.0754215475651763e-55 0.0000000000000000e+00  -4.2639251475255514e-55 -7.2689229337121285e-55 0.0000000000000000e+00  -4.8649789735697458e-56 -1.8359139359887604e-54 0.0000000000000000e+00  1.6496203393539066e-55 -5.7357418925103322e-55 0.0000000000000000e+00  -5.1499046346083699e-55 -1.6772608332135865e-54 0.0000000000000000e+00  -2.2390534042116328e-54 -7.0771778474510804e-54 0.0000000000000000e+00  2.5640188434342689e-54 -6.0713767858762425e-54 0.0000000000000000e+00  -6.6746114593843194e-55 -2.3912228068140448e-54 0.0000000000000000e+00  5.2847380303031623e-55 -2.8182325992412042e-54 0.0000000000000000e+00  1.2719524215571803e-55 -1.4246582009388774e-54 0.0000000000000000e+00  -2.1640775911704175e-54 -3.4703427577994418e-54 0.0000000000000000e+00  5.6641267343259599e-55 -8.2268444841037412e-54 0.0000000000000000e+00  -3.9009977491631264e-54 -1.3563989516508586e-53 0.0000000000000000e+00  4.6558039569172190e-54 -7.7094621507859852e-54 0.0000000000000000e+00  2.0155794479041596e-55 -6.5045407117282169e-55 0.0000000000000000e+00  -4.7635192400799411e-54 -8.0130481007747413e-54 0.0000000000000000e+00  4.7886615335569566e-54 -7.8672159926283017e-54 0.0000000000000000e+00  -1.6487145030280471e-56 -1.3350544173034615e-55 0.0000000000000000e+00  1.1063054360180546e-56 -2.7682409280599848e-55 0.0000000000000000e+00  2.1893511089574848e-56 -9.8797179769010436e-56 0.0000000000000000e+00  -5.1632305672307240e-54 -9.3530539303013589e-54 0.0000000000000000e+00  5.5073134007432775e-54 -9.4106042188180419e-54 0.0000000000000000e+00  5.6307937455033987e-56 -1.0522483641930432e-55 0.0000000000000000e+00  -1.4217229386337748e-56 -6.2040413497790581e-56 0.0000000000000000e+00  -4.9609290651928914e-55 -9.0418566384631756e-55 0.0000000000000000e+00  -5.7707071744581625e-54 -1.0039282159293701e-53 0.0000000000000000e+00  4.4702830884369920e-54 -1.0497983458468771e-53 0.0000000000000000e+00  -3.0301442886646750e-54 -7.9807484968824552e-54 0.0000000000000000e+00  2.4213798053617705e-54 -8.5539662623737763e-54 0.0000000000000000e+00  2.2306650639294189e-54 -3.3103777207771569e-54 0.0000000000000000e+00  -5.3993497521647965e-55 -1.4787935572440293e-54 0.0000000000000000e+00  8.3015688603391641e-55 -1.5756756766032557e-54 0.0000000000000000e+00  -4.8906149305544627e-55 -9.8218621845060186e-55 0.0000000000000000e+00  5.0928118042381534e-55 -8.8672809573937722e-55 0.0000000000000000e+00  -1.5568150129978444e-56 -2.6882819532793828e-56 0.0000000000000000e+00  -4.4483263114596262e-56 -1.7207581729511584e-55 0.0000000000000000e+00  4.1495632922064567e-56 -1.7479123499465774e-55 0.0000000000000000e+00  4.7811321572542046e-57 -6.9044530566598936e-56 0.0000000000000000e+00  -2.7334145368569155e-56 -6.5353692761432349e-56 0.0000000000000000e+00  3.2706051418780283e-56 -6.4226022210496697e-56 0.0000000000000000e+00  -2.8439696256045003e-57 -2.8725737203142830e-56 0.0000000000000000e+00  1.2898440747238610e-56 -3.0055775418695494e-56 0.0000000000000000e+00  9.9782941216619469e-58 -2.4017911579181114e-57 0.0000000000000000e+00  -4.3622089232435818e-57 -7.6272385366770992e-57 0.0000000000000000e+00  4.2321507436013529e-57 -1.1018161622158482e-56 0.0000000000000000e+00  3.1115626699936759e-58 -1.0221214431898965e-57 0.0000000000000000e+00  1.4322702783748227e-58 -5.0298