<?xml version="1.0"?>
<VTKFile type="UnstructuredGrid"  version="0.1"  >
<UnstructuredGrid>
<Piece  NumberOfPoints="11902" NumberOfCells="23402">
<Points>
<DataArray  type="Float64"  NumberOfComponents="3"  format="ascii">-5 -5 0  5 -5 0  5 5 0  -5 5 0  1.234976191288194 0.001382241688373977 0  -4.9 -5 0  -4.8 -5 0  -4.7 -5 0  -4.6 -5 0  -4.5 -5 0  -4.4 -5 0  -4.3 -5 0  -4.2 -5 0  -4.1 -5 0  -4 -5 0  -3.9 -5 0  -3.8 -5 0  -3.7 -5 0  -3.6 -5 0  -3.5 -5 0  -3.4 -5 0  -3.3 -5 0  -3.2 -5 0  -3.1 -5 0  -3 -5 0  -2.9 -5 0  -2.8 -5 0  -2.7 -5 0  -2.6 -5 0  -2.5 -5 0  -2.4 -5 0  -2.3 -5 0  -2.2 -5 0  -2.1 -5 0  -2 -5 0  -1.9 -5 0  -1.8 -5 0  -1.7 -5 0  -1.6 -5 0  -1.5 -5 0  -1.4 -5 0  -1.3 -5 0  -1.2 -5 0  -1.1 -5 0  -1 -5 0  -0.9000000000000004 -5 0  -0.7999999999999998 -5 0  -0.7000000000000002 -5 0  -0.5999999999999996 -5 0  -0.5 -5 0  -0.4000000000000004 -5 0  -0.2999999999999998 -5 0  -0.2000000000000002 -5 0  -0.09999999999999964 -5 0  0 -5 0  0.09999999999999964 -5 0  0.2000000000000002 -5 0  0.2999999999999998 -5 0  0.4000000000000004 -5 0  0.5 -5 0  0.5999999999999996 -5 0  0.7000000000000002 -5 0  0.7999999999999998 -5 0  0.9000000000000004 -5 0  1 -5 0  1.1 -5 0  1.2 -5 0  1.3 -5 0  1.4 -5 0  1.5 -5 0  1.6 -5 0  1.7 -5 0  1.8 -5 0  1.9 -5 0  2 -5 0  2.1 -5 0  2.2 -5 0  2.3 -5 0  2.4 -5 0  2.5 -5 0  2.6 -5 0  2.7 -5 0  2.8 -5 0  2.9 -5 0  3 -5 0  3.1 -5 0  3.199999999999999 -5 0  3.300000000000001 -5 0  3.4 -5 0  3.5 -5 0  3.6 -5 0  3.699999999999999 -5 0  3.800000000000001 -5 0  3.9 -5 0  4 -5 0  4.1 -5 0  4.199999999999999 -5 0  4.300000000000001 -5 0  4.4 -5 0  4.5 -5 0  4.6 -5 0  4.699999999999999 -5 0  4.800000000000001 -5 0  4.9 -5 0  5 -4.9 0  5 -4.8 0  5 -4.7 0  5 -4.6 0  5 -4.5 0  5 -4.4 0  5 -4.3 0  5 -4.2 0  5 -4.1 0  5 -4 0  5 -3.9 0  5 -3.8 0  5 -3.7 0  5 -3.6 0  5 -3.5 0  5 -3.4 0  5 -3.3 0  5 -3.2 0  5 -3.1 0  5 -3 0  5 -2.9 0  5 -2.8 0  5 -2.7 0  5 -2.6 0  5 -2.5 0  5 -2.4 0  5 -2.3 0  5 -2.2 0  5 -2.1 0  5 -2 0  5 -1.9 0  5 -1.8 0  5 -1.7 0  5 -1.6 0  5 -1.5 0  5 -1.4 0  5 -1.3 0  5 -1.2 0  5 -1.1 0  5 -1 0  5 -0.9000000000000004 0  5 -0.7999999999999998 0  5 -0.7000000000000002 0  5 -0.5999999999999996 0  5 -0.5 0  5 -0.4000000000000004 0  5 -0.2999999999999998 0  5 -0.2000000000000002 0  5 -0.09999999999999964 0  5 0 0  5 0.09999999999999964 0  5 0.2000000000000002 0  5 0.2999999999999998 0  5 0.4000000000000004 0  5 0.5 0  5 0.5999999999999996 0  5 0.7000000000000002 0  5 0.7999999999999998 0  5 0.9000000000000004 0  5 1 0  5 1.1 0  5 1.2 0  5 1.3 0  5 1.4 0  5 1.5 0  5 1.6 0  5 1.7 0  5 1.8 0  5 1.9 0  5 2 0  5 2.1 0  5 2.2 0  5 2.3 0  5 2.4 0  5 2.5 0  5 2.6 0  5 2.7 0  5 2.8 0  5 2.9 0  5 3 0  5 3.1 0  5 3.199999999999999 0  5 3.300000000000001 0  5 3.4 0  5 3.5 0  5 3.6 0  5 3.699999999999999 0  5 3.800000000000001 0  5 3.9 0  5 4 0  5 4.1 0  5 4.199999999999999 0  5 4.300000000000001 0  5 4.4 0  5 4.5 0  5 4.6 0  5 4.699999999999999 0  5 4.800000000000001 0  5 4.9 0  4.9 5 0  4.8 5 0  4.7 5 0  4.6 5 0  4.5 5 0  4.4 5 0  4.3 5 0  4.2 5 0  4.1 5 0  4 5 0  3.9 5 0  3.8 5 0  3.7 5 0  3.6 5 0  3.5 5 0  3.4 5 0  3.3 5 0  3.2 5 0  3.1 5 0  3 5 0  2.9 5 0  2.8 5 0  2.7 5 0  2.6 5 0  2.5 5 0  2.4 5 0  2.3 5 0  2.2 5 0  2.1 5 0  2 5 0  1.9 5 0  1.8 5 0  1.7 5 0  1.6 5 0  1.5 5 0  1.4 5 0  1.3 5 0  1.2 5 0  1.1 5 0  1 5 0  0.9000000000000004 5 0  0.7999999999999998 5 0  0.7000000000000002 5 0  0.5999999999999996 5 0  0.5 5 0  0.4000000000000004 5 0  0.2999999999999998 5 0  0.2000000000000002 5 0  0.09999999999999964 5 0  0 5 0  -0.09999999999999964 5 0  -0.2000000000000002 5 0  -0.2999999999999998 5 0  -0.4000000000000004 5 0  -0.5 5 0  -0.5999999999999996 5 0  -0.7000000000000002 5 0  -0.7999999999999998 5 0  -0.9000000000000004 5 0  -1 5 0  -1.1 5 0  -1.2 5 0  -1.3 5 0  -1.4 5 0  -1.5 5 0  -1.6 5 0  -1.7 5 0  -1.8 5 0  -1.9 5 0  -2 5 0  -2.1 5 0  -2.2 5 0  -2.3 5 0  -2.4 5 0  -2.5 5 0  -2.6 5 0  -2.7 5 0  -2.8 5 0  -2.9 5 0  -3 5 0  -3.1 5 0  -3.199999999999999 5 0  -3.300000000000001 5 0  -3.4 5 0  -3.5 5 0  -3.6 5 0  -3.699999999999999 5 0  -3.800000000000001 5 0  -3.9 5 0  -4 5 0  -4.1 5 0  -4.199999999999999 5 0  -4.300000000000001 5 0  -4.4 5 0  -4.5 5 0  -4.6 5 0  -4.699999999999999 5 0  -4.800000000000001 5 0  -4.9 5 0  -5 4.9 0  -5 4.8 0  -5 4.7 0  -5 4.6 0  -5 4.5 0  -5 4.4 0  -5 4.3 0  -5 4.2 0  -5 4.1 0  -5 4 0  -5 3.9 0  -5 3.8 0  -5 3.7 0  -5 3.6 0  -5 3.5 0  -5 3.4 0  -5 3.3 0  -5 3.2 0  -5 3.1 0  -5 3 0  -5 2.9 0  -5 2.8 0  -5 2.7 0  -5 2.6 0  -5 2.5 0  -5 2.4 0  -5 2.3 0  -5 2.2 0  -5 2.1 0  -5 2 0  -5 1.9 0  -5 1.8 0  -5 1.7 0  -5 1.6 0  -5 1.5 0  -5 1.4 0  -5 1.3 0  -5 1.2 0  -5 1.1 0  -5 1 0  -5 0.9000000000000004 0  -5 0.7999999999999998 0  -5 0.7000000000000002 0  -5 0.5999999999999996 0  -5 0.5 0  -5 0.4000000000000004 0  -5 0.2999999999999998 0  -5 0.2000000000000002 0  -5 0.09999999999999964 0  -5 0 0  -5 -0.09999999999999964 0  -5 -0.2000000000000002 0  -5 -0.2999999999999998 0  -5 -0.4000000000000004 0  -5 -0.5 0  -5 -0.5999999999999996 0  -5 -0.7000000000000002 0  -5 -0.7999999999999998 0  -5 -0.9000000000000004 0  -5 -1 0  -5 -1.1 0  -5 -1.2 0  -5 -1.3 0  -5 -1.4 0  -5 -1.5 0  -5 -1.6 0  -5 -1.7 0  -5 -1.8 0  -5 -1.9 0  -5 -2 0  -5 -2.1 0  -5 -2.2 0  -5 -2.3 0  -5 -2.4 0  -5 -2.5 0  -5 -2.6 0  -5 -2.7 0  -5 -2.8 0  -5 -2.9 0  -5 -3 0  -5 -3.1 0  -5 -3.199999999999999 0  -5 -3.300000000000001 0  -5 -3.4 0  -5 -3.5 0  -5 -3.6 0  -5 -3.699999999999999 0  -5 -3.800000000000001 0  -5 -3.9 0  -5 -4 0  -5 -4.1 0  -5 -4.199999999999999 0  -5 -4.300000000000001 0  -5 -4.4 0  -5 -4.5 0  -5 -4.6 0  -5 -4.699999999999999 0  -5 -4.800000000000001 0  -5 -4.9 0  1.228177890583559 0.09731260507028723 0  1.208072804321173 0.1946543302144632 0  1.175320698328696 0.2913867949353224 0  1.133196958844845 0.3815169486594792 0  1.077724564747284 0.4720132041543767 0  1.013425778511633 0.5568450023079599 0  0.9374363056010607 0.6366018671235318 0  0.8525728962204222 0.7100491573276381 0  0.7613538667506878 0.7754211105410552 0  0.6604922888235965 0.8333247829030986 0  0.5520548085641426 0.8852305858572483 0  0.440962503524279 0.9280245526023642 0  0.3281984286136955 0.960884396743549 0  0.2072570728445057 0.9827923211279342 0  0.08939990075152759 0.9998267367834107 0  -0.02764585375741507 1.002795314107229 0  -0.1452475725512012 0.9908636803210282 0  -0.2680107007553648 0.9726726596059392 0  -0.3854088393286673 0.9474391923327571 0  -0.4961406012867431 0.9110757603446742 0  -0.6035007602308458 0.864933786947285 0  -0.7051342504820401 0.8104272596420821 0  -0.7991299638407549 0.7464781182202066 0  -0.8880117198453786 0.6745890183267609 0  -0.970481314530855 0.5958439980039323 0  -1.041928129110678 0.5142536496961501 0  -1.102788486218441 0.4279667116837659 0  -1.152854890167847 0.3363799927191727 0  -1.190030414936936 0.2440828674581504 0  -1.214475021420199 0.1489471470457072 0  -1.226600697664988 0.05074122308931018 0  -1.226561867523744 -0.04867518234661975 0  -1.214344319808971 -0.1463520880951182 0  -1.190100300733405 -0.2411706431061671 0  -1.151380900818624 -0.3363437913009555 0  -1.103023508516835 -0.427310008539772 0  -1.043189630091754 -0.5137150241222105 0  -0.9725091867678824 -0.5946980532891998 0  -0.8906131495407026 -0.6721628873972316 0  -0.8017988040746236 -0.7426447600340924 0  -0.7061812986328724 -0.8036442224449755 0  -0.6032696604395045 -0.8573565984596315 0  -0.4925099713703017 -0.9057403293075855 0  -0.3804158425720272 -0.9444731237577624 0  -0.2647170616784114 -0.9718575014930764 0  -0.1438944535439512 -0.990276110166509 0  -0.02786526844448589 -1.001893179106602 0  0.08974083246201812 -0.9958949315496392 0  0.2113736870520164 -0.9800204104856236 0  0.3303753175543681 -0.959261990171003 0  0.4449138831662097 -0.9266515582127082 0  0.5541637862763743 -0.884319055140271 0  0.6613351676525536 -0.8332346334798241 0  0.7614270154910923 -0.7765805401634095 0  0.8526323687325424 -0.7109523481775873 0  0.9368515239731209 -0.636315079718753 0  1.011338106219313 -0.5561821821998207 0  1.077667420807344 -0.4711982594035857 0  1.134150550326452 -0.3815846823208139 0  1.176952737643042 -0.2895195618729675 0  1.208538719477339 -0.1937614428038505 0  1.228307928884961 -0.09689284693481008 0  -2.448642404145076 4.918262106513946 0  -2.448523874796407 -4.910653943035975 0  4.910581825858037 2.448007356986305 0  4.918693346293683 -2.44945865366105 0  2.446267995527374 -4.895913245871773 0  2.440698154886238 4.899669816373715 0  -4.910607679394526 -2.448032586559692 0  -4.910605245202412 2.448036456602156 0  -1.748599617652947 4.911216287504783 0  -1.744382716948371 -4.91464942276946 0  4.920800833466582 1.74417156359875 0  4.909358350297113 -1.747947474052623 0  -4.909650200387806 -1.747680121392469 0  -4.910471008429832 1.747423786710139 0  1.745877740315918 4.90508770108066 0  1.747301503306045 -4.893258698209515 0  -1.148893653669747 4.909043283963082 0  -1.129744887778694 -4.916939682847421 0  -4.909418248693186 -1.147988434571884 0  -4.909237286160409 1.147788759627836 0  1.143885025141935 -4.913133269681886 0  1.14890294289126 4.909030631018334 0  4.909560059158414 1.146264374812494 0  4.920363828780166 -1.152039223773069 0  -0.5466961566173986 -4.910253730449257 0  -0.5464761234294204 4.918916939289159 0  -4.908191397620916 -0.5487422079518229 0  -4.908215476272325 0.5472995036077493 0  4.907515048928479 -0.5490612552236089 0  4.919139409414171 0.5458139875551796 0  0.5424812365317616 -4.897164802892155 0  0.5512053224580122 4.915747770832914 0  -4.911984590509924 -3.048371492585235 0  4.918549413565987 3.046382592119486 0  4.911493362269889 -3.048348408672115 0  -4.912831892409406 3.045462420338171 0  3.05535961504887 -4.917477247744559 0  -3.048694903529644 -4.911419395543776 0  3.05226077587721 4.913495512327073 0  -3.048140083553266 4.912308409546835 0  -4.907314677777113 -0.04991108521297714 0  0.04512155995641518 -4.912205784417125 0  0.04956939336465156 4.919215674964051 0  4.914351819629406 -0.05129295615685341 0  3.545665796817213 -4.919092786373085 0  -3.548950326197
[...]
<PointData  Vectors="f_3286"> 
<DataArray  type="Float64"  Name="f_3286"  NumberOfComponents="3" format="ascii">2.6559658580600089e-76 2.6559658580600089e-76 0.0000000000000000e+00  -2.8445085011138686e-76 2.8445085011138686e-76 0.0000000000000000e+00  -8.5659604779142694e-78 -8.5659604779142694e-78 0.0000000000000000e+00  3.0308186857311195e-76 -3.0308186857311195e-76 0.0000000000000000e+00  -2.7376592879802863e-01 -5.1335325379474293e-03 0.0000000000000000e+00  4.1657122356241769e-75 6.6064276056012169e-75 0.0000000000000000e+00  2.0825976752780968e-75 2.0879782824872416e-74 0.0000000000000000e+00  -3.4052397985096482e-75 6.7710177116563526e-75 0.0000000000000000e+00  3.9995148081673058e-72 6.6686799835313155e-72 0.0000000000000000e+00  5.3160384193078750e-71 1.3459030632199365e-70 0.0000000000000000e+00  -7.9175592679879027e-72 4.5550274572752667e-71 0.0000000000000000e+00  3.2333484623159716e-69 6.1632564931092858e-69 0.0000000000000000e+00  5.1595677523424855e-68 9.4005575432424214e-68 0.0000000000000000e+00  -3.0631757263531331e-68 1.4999174104030559e-67 0.0000000000000000e+00  1.2762526562041000e-67 3.9821928511289356e-67 0.0000000000000000e+00  1.2654637624518429e-68 8.7789279994311105e-67 0.0000000000000000e+00  5.4487711895178705e-64 8.8257359228239401e-64 0.0000000000000000e+00  4.7483453376772797e-65 2.4418475713248469e-63 0.0000000000000000e+00  1.3482792727029123e-62 2.1997964660275956e-62 0.0000000000000000e+00  8.0626551295252853e-63 8.3184915050222856e-62 0.0000000000000000e+00  6.9258921437135474e-61 1.1027571233198434e-60 0.0000000000000000e+00  4.0587990738113400e-60 7.0095873064475549e-60 0.0000000000000000e+00  -2.8442553887141101e-60 7.6968565621470060e-60 0.0000000000000000e+00  5.6566507611955426e-59 1.1372369725856622e-58 0.0000000000000000e+00  -1.7568265855671624e-59 1.1644941753600712e-58 0.0000000000000000e+00  -2.9996215194281724e-59 6.8358511761471586e-59 0.0000000000000000e+00  1.7999178675880356e-58 3.3058365972547907e-58 0.0000000000000000e+00  7.2891162604883745e-58 2.0900834516153789e-57 0.0000000000000000e+00  2.8562843418097459e-57 6.2355683072752376e-57 0.0000000000000000e+00  -3.4017169792752124e-57 5.7348227672928209e-57 0.0000000000000000e+00  -3.5163678082932221e-58 1.0974561557805471e-57 0.0000000000000000e+00  1.9051974690470811e-56 2.9338078325706590e-56 0.0000000000000000e+00  -1.4107577678850623e-56 3.5295253366360805e-56 0.0000000000000000e+00  1.1890413775009652e-56 2.8945704075820659e-56 0.0000000000000000e+00  8.7202095863005102e-56 2.0983878373110944e-55 0.0000000000000000e+00  -2.5024206270962561e-56 5.7432284580622360e-55 0.0000000000000000e+00  5.1985928459352862e-57 8.6171706085971159e-57 0.0000000000000000e+00  5.5320040534110058e-56 1.3821827920703749e-55 0.0000000000000000e+00  1.5453570743095036e-55 6.1708684631758683e-55 0.0000000000000000e+00  -2.2305917301831285e-55 3.5145874296510830e-55 0.0000000000000000e+00  9.8111992692802088e-55 1.7236775814920760e-54 0.0000000000000000e+00  -4.4069951773330774e-55 4.3612383729569262e-54 0.0000000000000000e+00  -2.2756471638644507e-55 2.6819076724162173e-54 0.0000000000000000e+00  -9.5893882144062249e-56 9.4392055591327792e-55 0.0000000000000000e+00  -1.1278591660561677e-55 1.8215195711399016e-55 0.0000000000000000e+00  2.7520435847658505e-54 5.2348233366592650e-54 0.0000000000000000e+00  -2.1535471634192648e-54 4.1380580615567052e-54 0.0000000000000000e+00  -7.1707354992306039e-55 8.0779443716196158e-55 0.0000000000000000e+00  -1.3164666559043150e-55 2.7127588516274611e-55 0.0000000000000000e+00  9.2750112388567738e-55 1.4454098213226194e-54 0.0000000000000000e+00  9.4267269324035182e-55 6.1547943311947678e-54 0.0000000000000000e+00  -1.1250034029277737e-54 5.8987677771583024e-54 0.0000000000000000e+00  5.1313608011264084e-55 4.6482190720535075e-54 0.0000000000000000e+00  1.9042394925384262e-56 5.7930931970454201e-54 0.0000000000000000e+00  3.0081823952137635e-55 6.1512564521445899e-54 0.0000000000000000e+00  -1.2577379963617524e-54 2.0442303300623934e-54 0.0000000000000000e+00  -6.4365984998881489e-55 1.4723864911146029e-53 0.0000000000000000e+00  4.4501209468422431e-54 7.4684832762040484e-54 0.0000000000000000e+00  -4.3341688890281334e-54 8.0967866714721674e-54 0.0000000000000000e+00  1.9161622043960054e-54 3.9564227747631100e-54 0.0000000000000000e+00  -7.3417392141651603e-55 9.4991611769565736e-54 0.0000000000000000e+00  1.3271746734794599e-54 9.3285450674706888e-54 0.0000000000000000e+00  -1.6801902748917824e-54 4.3970392703134100e-54 0.0000000000000000e+00  -9.2256455592654678e-55 2.4051399529914882e-54 0.0000000000000000e+00  3.3223644501083812e-55 1.2994930622115909e-54 0.0000000000000000e+00  2.6496528892260329e-55 2.5375222206217798e-54 0.0000000000000000e+00  -7.8205815174322449e-56 3.4899187050830455e-54 0.0000000000000000e+00  -7.0959063617601796e-55 1.4818491384004123e-54 0.0000000000000000e+00  2.3722504401685841e-55 4.4249277733951282e-55 0.0000000000000000e+00  -2.3046229677930609e-55 6.0245818683508111e-55 0.0000000000000000e+00  5.0219826964938639e-56 2.3977946467514767e-55 0.0000000000000000e+00  1.8622333872646050e-55 9.5232758467206762e-55 0.0000000000000000e+00  -3.2970237525510753e-55 5.3033714789409462e-55 0.0000000000000000e+00  -1.5878766635339590e-56 4.8227541952959843e-56 0.0000000000000000e+00  -1.1331676802499953e-57 1.1333412582947164e-56 0.0000000000000000e+00  6.7407744660088027e-57 2.3548460028946157e-56 0.0000000000000000e+00  -8.9774370243234112e-57 1.5023318418902973e-56 0.0000000000000000e+00  1.7388296112949928e-57 2.8864933931560772e-57 0.0000000000000000e+00  -1.2422412159915849e-57 2.7246716838096465e-57 0.0000000000000000e+00  5.1680887777975585e-57 7.8075642368757754e-57 0.0000000000000000e+00  -4.5264592827218118e-57 1.1251752953091800e-56 0.0000000000000000e+00  -1.8110657040084065e-58 9.3953839457194980e-58 0.0000000000000000e+00  -2.3887206700967221e-58 4.6528967040470307e-58 0.0000000000000000e+00  -7.8667763084222489e-61 8.8103504640615760e-59 0.0000000000000000e+00  -2.4425612582740297e-59 6.4231955982435703e-59 0.0000000000000000e+00  -7.1062527480550179e-60 2.4998522928583302e-59 0.0000000000000000e+00  -4.3799079235090447e-60 2.2387071345064608e-59 0.0000000000000000e+00  -3.0592046700027980e-60 7.1684977741318243e-60 0.0000000000000000e+00  -8.5133263223773896e-62 4.4353237755704778e-61 0.0000000000000000e+00  -1.0746490657732755e-61 2.2342379349419931e-61 0.0000000000000000e+00  -3.5835354821482130e-62 5.6750004358369619e-62 0.0000000000000000e+00  -3.9060609338284939e-64 6.6985448690394066e-64 0.0000000000000000e+00  -2.4290466412794618e-65 5.1712442860745853e-65 0.0000000000000000e+00  3.7047349874041347e-66 1.0385861333068555e-65 0.0000000000000000e+00  -4.8387759354189034e-66 9.2625609599139742e-66 0.0000000000000000e+00  -6.6950233003539624e-68 2.7712165592394123e-67 0.0000000000000000e+00  -7.8486898501280343e-68 1.2919128245420135e-67 0.0000000000000000e+00  -8.0567944446302727e-69 1.1733429624707155e-68 0.0000000000000000e+00  -5.6309276392943952e-70 9.5211303583046805e-70 0.0000000000000000e+00  -3.7781490864891191e-71 6.8191118270019675e-71 0.0000000000000000e+00  -1.8779344818125103e-72 3.2029005549359791e-72 0.0000000000000000e+00  -1.2175562501060391e-73 2.7268177098992731e-73 0.0000000000000000e+00  -4.4205399981178844e-75 1.2911842447242354e-74 0.0000000000000000e+00  -2.5479537791587677e-75 4.2412916022632567e-75 0.0000000000000000e+00  -9.7690841163796350e-76 3.5581537971995313e-76 0.0000000000000000e+00  -1.6210731733523029e-75 -2.3919687957779880e-76 0.0000000000000000e+00  -2.4490384056300674e-74 1.1589775529504711e-74 0.0000000000000000e+00  -3.6791614076241853e-74 1.5501517267831012e-75 0.0000000000000000e+00  -3.8832731236110994e-73 1.4332876206209028e-73 0.0000000000000000e+00  -1.0238750453082934e-71 6.2373381199194404e-72 0.0000000000000000e+00  -6.7415885975472802e-71 3.7076823281588502e-71 0.0000000000000000e+00  -1.0610489769408260e-70 3.9023471945111413e-72 0.0000000000000000e+00  -8.9012725020608731e-70 3.3083893487649569e-70 0.0000000000000000e+00  -2.1289737382466347e-68 1.2862224969299228e-68 0.0000000000000000e+00  -1.0238917076161079e-67 5.1092261989211530e-68 0.0000000000000000e+00  -1.0133573445223970e-67 -6.0247739658988689e-68 0.0000000000000000e+00  -3.1663508157335792e-66 1.7457040813727170e-66 0.0000000000000000e+00  -3.1858903999786474e-65 1.8313052701273094e-65 0.0000000000000000e+00  -5.3861130856036012e-65 5.0445489730152749e-66 0.0000000000000000e+00  -4.4371952334368145e-64 1.4460989202738491e-64 0.0000000000000000e+00  -6.9950680298047224e-63 4.3575597341962541e-63 0.0000000000000000e+00  -1.5066323534647902e-62 3.7470699135424744e-63 0.0000000000000000e+00  -8.4343062557487561e-62 1.9657845297527787e-62 0.0000000000000000e+00  -1.3553813791917378e-60 8.5140651434962433e-61 0.0000000000000000e+00  -2.4170958731092069e-60 3.3801371359382881e-61 0.0000000000000000e+00  -2.1173909436809512e-59 7.3935958966416051e-60 0.0000000000000000e+00  -2.4179667247449049e-58 1.4935171791703126e-58 0.0000000000000000e+00  -2.5869822150872139e-58 -9.4105356315323461e-59 0.0000000000000000e+00  -5.9799523076943907e-57 2.7792988015249980e-57 0.0000000000000000e+00  -2.4844032624846150e-56 1.2378983631004523e-56 0.0000000000000000e+00  -5.5627126240420608e-56 -8.6733459095839251e-57 0.0000000000000000e+00  -1.0117926181326645e-54 6.4718293295194518e-55 0.0000000000000000e+00  -1.1203169910653291e-54 -3.4590673984880517e-55 0.0000000000000000e+00  -2.4090378378948066e-53 1.2674364922825671e-53 0.0000000000000000e+00  -6.5958094822011590e-53 2.9839672846830486e-53 0.0000000000000000e+00  -4.3576406349165901e-52 1.2222579242527574e-52 0.0000000000000000e+00  -2.6673685870531232e-51 1.6596596128040928e-51 0.0000000000000000e+00  -7.6657093454346587e-51 -2.1347701946970361e-52 0.0000000000000000e+00  -7.2011858316264135e-50 4.5861630147713077e-50 0.0000000000000000e+00  -1.6170818259483186e-49 -1.4734044696629129e-50 0.0000000000000000e+00  -1.7305218097918932e-48 1.0073780036845692e-48 0.0000000000000000e+00  -4.3410339070555990e-48 -2.0326718419071695e-49 0.0000000000000000e+00  -2.0148071269394576e-47 1.1064461952272841e-47 0.0000000000000000e+00  -1.1029502319379167e-46 1.8901400773645072e-47 0.0000000000000000e+00  -1.0249656427334350e-46 2.4519153721624230e-47 0.0000000000000000e+00  -1.2411766426902889e-45 5.2352450278935287e-46 0.0000000000000000e+00  -8.7332104159009729e-46 -5.6582645591149955e-46 0.0000000000000000e+00  -1.3436699978919825e-44 8.0410288829150688e-45 0.0000000000000000e+00  -5.7970198089418777e-44 1.3686917902776718e-44 0.0000000000000000e+00  -3.6145569144912448e-44 -1.7445271674483129e-44 0.0000000000000000e+00  -1.1428603533857675e-43 6.4751557479187378e-44 0.0000000000000000e+00  -8.4142298443903059e-43 2.3069176617874697e-43 0.0000000000000000e+00  -1.9292701979171233e-42 1.9676405907168380e-43 0.0000000000000000e+00  -2.5118687195008989e-42 6.0800261972443355e-44 0.0000000000000000e+00  -2.0146459674228337e-42 -1.9402275095545853e-43 0.0000000000000000e+00  -8.6149540763321328e-43 -2.4957699283934377e-43 0.0000000000000000e+00  -1.1328203836787481e-43 -6.4215595669689061e-44 0.0000000000000000e+00  -3.8704810681398262e-44 1.8430371706722782e-44 0.0000000000000000e+00  -6.3176872568438570e-44 -1.0781862000096924e-44 0.0000000000000000e+00  -1.4996199968145529e-44 -7.8377246126227500e-45 0.0000000000000000e+00  -9.9834851082800174e-46 5.6508973392510140e-46 0.0000000000000000e+00  -1.4045603056121652e-45 -5.3668799124726268e-46 0.0000000000000000e+00  -1.1211586895727546e-46 -2.8451010657812704e-47 0.0000000000000000e+00  -1.0184367298128544e-46 -2.1349340696505741e-47 0.0000000000000000e+00  -1.8625734731247341e-47 -1.1931189269241207e-47 0.0000000000000000e+00  -4.0854618760142528e-48 2.0239347807351803e-49 0.0000000000000000e+00  -1.4881775600839062e-48 -9.3277122205420212e-49 0.0000000000000000e+00  -1.6328476582004959e-49 2.4463453796518510e-50 0.0000000000000000e+00  -7.4648146098844488e-50 -4.4059646821055915e-50 0.0000000000000000e+00  -8.2453120438377808e-51 6.3827969524124525e-52 0.0000000000000000e+00  -3.1484237565816853e-51 -1.7778827524976194e-51 0.0000000000000000e+00  -5.1048365121740279e-52 -1.1432239985303545e-52 0.0000000000000000e+00  -8.2119671722887992e-53 -3.5363314275310617e-53 0.0000000000000000e+00  -2.6640996456572082e-53 -1.3119337326664439e-53 0.0000000000000000e+00  -1.1966504669913504e-54 3.2303076674205908e-55 0.0000000000000000e+00  -1.0648272009734752e-54 -6.7871179303117931e-55 0.0000000000000000e+00  -5.1509867016266960e-56 8.3264581635303832e-57 0.0000000000000000e+00  -2.3387068257117512e-56 -1.3206364594928289e-56 0.0000000000000000e+00  -4.8277926759960288e-57 -2.5156500057772801e-57 0.0000000000000000e+00  -2.4573732710683444e-58 8.5272211859066964e-59 0.0000000000000000e+00  -2.1602716015009911e-58 -1.3258078495992256e-58 0.0000000000000000e+00  -1.9919283862538159e-59 -6.1348019169945605e-60 0.0000000000000000e+00  -2.3753972163076631e-60 -3.3896165269322617e-61 0.0000000000000000e+00  -1.2918743335960233e-60 -7.5954800006561055e-61 0.0000000000000000e+00  -7.6934065073693691e-62 -2.1405753044361015e-62 0.0000000000000000e+00  -1.3597441052695126e-62 -2.9259491270302510e-63 0.0000000000000000e+00  -6.6436088549757447e-63 -3.7831446275823073e-63 0.0000000000000000e+00  -4.7850099209659539e-64 -1.8174017298385099e-64 0.0000000000000000e+00  -4.3637586893940557e-65 9.5691872233408057e-67 0.0000000000000000e+00  -2.9497610558764670e-65 -1.6603141337979127e-65 0.0000000000000000e+00  -3.4149835158275991e-66 -1.9868324519522886e-66 0.0000000000000000e+00  -8.9906472884457920e-68 5.4756235110617381e-68 0.0000000000000000e+00  -8.6397872578290992e-68 -4.1742282010777483e-68 0.0000000000000000e+00  -2.0690728360998587e-68 -1.2840861097909387e-68 0.0000000000000000e+00  -1.1329426069874580e-69 -5.1306263804203669e-70 0.0000000000000000e+00  -8.7936227298457627e-71 1.3781569018703411e-71 0.0000000000000000e+00  -6.9099608662235407e-71 -3.6554784130531351e-71 0.0000000000000000e+00  -1.2482175797842579e-71 -7.6593352434320307e-72 0.0000000000000000e+00  -5.9827871861160057e-73 -2.7502986027801742e-73 0.0000000000000000e+00  -3.9235346376512319e-74 7.4215034338604329e-75 0.0000000000000000e+00  -3.1568454435751950e-74 -1.4787446134951131e-74 0.0000000000000000e+00  -6.5910395420072841e-75 -3.3567176388517920e-75 0.0000000000000000e+00  -7.1800130469063550e-76 -3.1070530186493704e-76 0.0000000000000000e+00  -8.5514935325868329e-76 -1.6228852042319234e-75 0.0000000000000000e+00  -4.7732678137489636e-75 -1.3946172798916081e-74 0.0000000000000000e+00  4.3660520236099268e-75 -8.3079446150884024e-75 0.0000000000000000e+00  -1.6290418649609735e-73 -3.4275554604812250e-73 0.0000000000000000e+00  -9.2825494304314372e-71 -1.0072114045291866e-70 0.0000000000000000e+00  -7.5037032394743924e-70 -1.3179662809134400e-69 0.0000000000000000e+00  -1.0979735168775175e-69 -3.6516587572572838e-69 0.0000000000000000e+00  -7.7573503689113068e-68 -1.7117382098047543e-67 0.0000000000000000e+00  -6.5274401862821518e-68 -3.2602615670479552e-67 0.0000000000000000e+00  -6.7858886714604341e-66 -1.3504017799765465e-65 0.0000000000000000e+00  -4.5167332095597365e-66 -2.1318898158614553e-65 0.0000000000000000e+00  -9.0629001747169657e-65 -1.5581046304538999e-64 0.0000000000000000e+00  1.7205712814714200e-65 -2.1034523123933824e-64 0.0000000000000000e+00  -4.2721082920911947e-62 -6.4052860309749839e-62 0.0000000000000000e+00  -6.9921167699350156e-62 -1.7212033589405412e-61 0.0000000000000000e+00  -2.3236885180265940e-62 -2.7288072250101381e-61 0.0000000000000000e+00  -5.7345036741407570e-60 -1.1366861800632089e-59 0.0000000000000000e+00  4.7622239399511223e-60 -1.5016435122613172e-59 0.0000000000000000e+00  -2.8976647709351071e-59 -4.7512279766044081e-59 0.0000000000000000e+00  8.8107610883226231e-60 -6.0853970539778610e-59 0.0000000000000000e+00  2.3225087709472999e-59 -3.9699583104982743e-59 0.0000000000000000e+00  -5.6308874281750599e-58 -8.9522262406892606e-58 0.0000000000000000e+00  -1.3784169214799889e-59 -1.2602503292604112e-57 0.0000000000000000e+00  -4.6277392551834935e-57 -1.1641631504179300e-56 0.0000000000000000e+00  5.7411168898931745e-57 -8.6692657336676647e-57 0.0000000000000000e+00  -5.3261938539081842e-57 -7.3427159024478878e-57 0.0000000000000000e+00  -1.7644858217281956e-56 -3.7749398834158452e-56 0.0000000000000000e+00  2.1584325850684332e-56 -4.0693252866866432e-56 0.0000000000000000e+00  -4.9947498934852083e-57 -9.2049890047553266e-57 0.0000000000000000e+00  -8.1054476721458600e-56 -2.0317171455236922e-55 0.0000000000000000e+00  6.3613175494470458e-56 -5.0764666157919431e-55 0.0000000000000000e+00  -4.2825179073085275e-55 -7.2614570284310641e-55 0.0000000000000000e+00  -4.8763459443485447e-56 -1.8357979691956921e-54 0.0000000000000000e+00  1.6573820432784526e-55 -5.7384618236261069e-55 0.0000000000000000e+00  -5.1736015206661013e-55 -1.6763863475430712e-54 0.0000000000000000e+00  -2.2497817878834633e-54 -7.0735426106133483e-54 0.0000000000000000e+00  2.5774109864196108e-54 -6.0749314219870559e-54 0.0000000000000000e+00  -6.7082808909168851e-55 -2.3902181603240871e-54 0.0000000000000000e+00  5.3144181794903932e-55 -2.8188002157856855e-54 0.0000000000000000e+00  1.2795730791714474e-55 -1.4247473211971288e-54 0.0000000000000000e+00  -2.1760572977623017e-54 -3.4679213511417000e-54 0.0000000000000000e+00  5.6996836461507037e-55 -8.2269559237576192e-54 0.0000000000000000e+00  -3.9229129995689226e-54 -1.3559911343427741e-53 0.0000000000000000e+00  4.6829250867199977e-54 -7.7128295025384458e-54 0.0000000000000000e+00  2.0275499656014930e-55 -6.5055161189164260e-55 0.0000000000000000e+00  -4.7916191716765065e-54 -8.0103478741367881e-54 0.0000000000000000e+00  4.8172662769872922e-54 -7.8687959093731375e-54 0.0000000000000000e+00  -1.6585851665348797e-56 -1.3350119376330555e-55 0.0000000000000000e+00  1.1130695679280987e-56 -2.7681077455154615e-55 0.0000000000000000e+00  2.2025077870074541e-56 -9.8796783574327203e-56 0.0000000000000000e+00  -5.1942518867900198e-54 -9.3534975337946191e-54 0.0000000000000000e+00  5.5402139554929629e-54 -9.4087797754118574e-54 0.0000000000000000e+00  5.6642657780400264e-56 -1.0520006523010200e-55 0.0000000000000000e+00  -1.4302387697286278e-56 -6.2045054282625533e-56 0.0000000000000000e+00  -4.9901000248999498e-55 -9.0449029710296422e-55 0.0000000000000000e+00  -5.8042533581074090e-54 -1.0043604427841496e-53 0.0000000000000000e+00  4.4958172734105789e-54 -1.0493916005951485e-53 0.0000000000000000e+00  -3.0472461160999204e-54 -7.9837772421977182e-54 0.0000000000000000e+00  2.4348086071893336e-54 -8.5512746943057371e-54 0.0000000000000000e+00  2.2427761304765141e-54 -3.3076420268626607e-54 0.0000000000000000e+00  -5.4282982935947801e-55 -1.4794863540928028e-54 0.0000000000000000e+00  8.3441842773846720e-55 -1.5744741796830138e-54 0.0000000000000000e+00  -4.9159516780238017e-55 -9.8287959653644507e-55 0.0000000000000000e+00  5.1176583109882382e-55 -8.8592185635632635e-55 0.0000000000000000e+00  -1.5643670325561919e-56 -2.6907650549705856e-56 0.0000000000000000e+00  -4.4701941947814814e-56 -1.7214602492191704e-55 0.0000000000000000e+00  4.1672289326513099e-56 -1.7471686697017946e-55 0.0000000000000000e+00  4.7976017547091591e-57 -6.9035114070260264e-56 0.0000000000000000e+00  -2.7450201247128365e-56 -6.5402348882972049e-56 0.0000000000000000e+00  3.2837933922078487e-56 -6.4166747511001077e-56 0.0000000000000000e+00  -2.8551043507937162e-57 -2.8730925717677492e-56 0.0000000000000000e+00  1.2944908682171492e-56 -3.0032111381373701e-56 0.0000000000000000e+00  1.0012740237825587e-57 -2.3999677337466636e-57 0.0000000000000000e+00  -4.3774288494306749e-57 -7.6352113396119151e-57 0.0000000000000000e+00  4.2453126748222857e-57 -1.1010585558389978e-56 0.0000000000000000e+00  3.1211916721182770e-58 -1.0215663048457746e-57 0.0000000000000000e+00  1.4364706416747306e-58 -5.0273