<?xml version="1.0"?>
<VTKFile type="UnstructuredGrid"  version="0.1"  >
<UnstructuredGrid>
<Piece  NumberOfPoints="11902" NumberOfCells="23402">
<Points>
<DataArray  type="Float64"  NumberOfComponents="3"  format="ascii">-5 -5 0  5 -5 0  5 5 0  -5 5 0  1.232286746863327 0.001381057301809249 0  -4.9 -5 0  -4.8 -5 0  -4.7 -5 0  -4.6 -5 0  -4.5 -5 0  -4.4 -5 0  -4.3 -5 0  -4.2 -5 0  -4.1 -5 0  -4 -5 0  -3.9 -5 0  -3.8 -5 0  -3.7 -5 0  -3.6 -5 0  -3.5 -5 0  -3.4 -5 0  -3.3 -5 0  -3.2 -5 0  -3.1 -5 0  -3 -5 0  -2.9 -5 0  -2.8 -5 0  -2.7 -5 0  -2.6 -5 0  -2.5 -5 0  -2.4 -5 0  -2.3 -5 0  -2.2 -5 0  -2.1 -5 0  -2 -5 0  -1.9 -5 0  -1.8 -5 0  -1.7 -5 0  -1.6 -5 0  -1.5 -5 0  -1.4 -5 0  -1.3 -5 0  -1.2 -5 0  -1.1 -5 0  -1 -5 0  -0.9000000000000004 -5 0  -0.7999999999999998 -5 0  -0.7000000000000002 -5 0  -0.5999999999999996 -5 0  -0.5 -5 0  -0.4000000000000004 -5 0  -0.2999999999999998 -5 0  -0.2000000000000002 -5 0  -0.09999999999999964 -5 0  0 -5 0  0.09999999999999964 -5 0  0.2000000000000002 -5 0  0.2999999999999998 -5 0  0.4000000000000004 -5 0  0.5 -5 0  0.5999999999999996 -5 0  0.7000000000000002 -5 0  0.7999999999999998 -5 0  0.9000000000000004 -5 0  1 -5 0  1.1 -5 0  1.2 -5 0  1.3 -5 0  1.4 -5 0  1.5 -5 0  1.6 -5 0  1.7 -5 0  1.8 -5 0  1.9 -5 0  2 -5 0  2.1 -5 0  2.2 -5 0  2.3 -5 0  2.4 -5 0  2.5 -5 0  2.6 -5 0  2.7 -5 0  2.8 -5 0  2.9 -5 0  3 -5 0  3.1 -5 0  3.199999999999999 -5 0  3.300000000000001 -5 0  3.4 -5 0  3.5 -5 0  3.6 -5 0  3.699999999999999 -5 0  3.800000000000001 -5 0  3.9 -5 0  4 -5 0  4.1 -5 0  4.199999999999999 -5 0  4.300000000000001 -5 0  4.4 -5 0  4.5 -5 0  4.6 -5 0  4.699999999999999 -5 0  4.800000000000001 -5 0  4.9 -5 0  5 -4.9 0  5 -4.8 0  5 -4.7 0  5 -4.6 0  5 -4.5 0  5 -4.4 0  5 -4.3 0  5 -4.2 0  5 -4.1 0  5 -4 0  5 -3.9 0  5 -3.8 0  5 -3.7 0  5 -3.6 0  5 -3.5 0  5 -3.4 0  5 -3.3 0  5 -3.2 0  5 -3.1 0  5 -3 0  5 -2.9 0  5 -2.8 0  5 -2.7 0  5 -2.6 0  5 -2.5 0  5 -2.4 0  5 -2.3 0  5 -2.2 0  5 -2.1 0  5 -2 0  5 -1.9 0  5 -1.8 0  5 -1.7 0  5 -1.6 0  5 -1.5 0  5 -1.4 0  5 -1.3 0  5 -1.2 0  5 -1.1 0  5 -1 0  5 -0.9000000000000004 0  5 -0.7999999999999998 0  5 -0.7000000000000002 0  5 -0.5999999999999996 0  5 -0.5 0  5 -0.4000000000000004 0  5 -0.2999999999999998 0  5 -0.2000000000000002 0  5 -0.09999999999999964 0  5 0 0  5 0.09999999999999964 0  5 0.2000000000000002 0  5 0.2999999999999998 0  5 0.4000000000000004 0  5 0.5 0  5 0.5999999999999996 0  5 0.7000000000000002 0  5 0.7999999999999998 0  5 0.9000000000000004 0  5 1 0  5 1.1 0  5 1.2 0  5 1.3 0  5 1.4 0  5 1.5 0  5 1.6 0  5 1.7 0  5 1.8 0  5 1.9 0  5 2 0  5 2.1 0  5 2.2 0  5 2.3 0  5 2.4 0  5 2.5 0  5 2.6 0  5 2.7 0  5 2.8 0  5 2.9 0  5 3 0  5 3.1 0  5 3.199999999999999 0  5 3.300000000000001 0  5 3.4 0  5 3.5 0  5 3.6 0  5 3.699999999999999 0  5 3.800000000000001 0  5 3.9 0  5 4 0  5 4.1 0  5 4.199999999999999 0  5 4.300000000000001 0  5 4.4 0  5 4.5 0  5 4.6 0  5 4.699999999999999 0  5 4.800000000000001 0  5 4.9 0  4.9 5 0  4.8 5 0  4.7 5 0  4.6 5 0  4.5 5 0  4.4 5 0  4.3 5 0  4.2 5 0  4.1 5 0  4 5 0  3.9 5 0  3.8 5 0  3.7 5 0  3.6 5 0  3.5 5 0  3.4 5 0  3.3 5 0  3.2 5 0  3.1 5 0  3 5 0  2.9 5 0  2.8 5 0  2.7 5 0  2.6 5 0  2.5 5 0  2.4 5 0  2.3 5 0  2.2 5 0  2.1 5 0  2 5 0  1.9 5 0  1.8 5 0  1.7 5 0  1.6 5 0  1.5 5 0  1.4 5 0  1.3 5 0  1.2 5 0  1.1 5 0  1 5 0  0.9000000000000004 5 0  0.7999999999999998 5 0  0.7000000000000002 5 0  0.5999999999999996 5 0  0.5 5 0  0.4000000000000004 5 0  0.2999999999999998 5 0  0.2000000000000002 5 0  0.09999999999999964 5 0  0 5 0  -0.09999999999999964 5 0  -0.2000000000000002 5 0  -0.2999999999999998 5 0  -0.4000000000000004 5 0  -0.5 5 0  -0.5999999999999996 5 0  -0.7000000000000002 5 0  -0.7999999999999998 5 0  -0.9000000000000004 5 0  -1 5 0  -1.1 5 0  -1.2 5 0  -1.3 5 0  -1.4 5 0  -1.5 5 0  -1.6 5 0  -1.7 5 0  -1.8 5 0  -1.9 5 0  -2 5 0  -2.1 5 0  -2.2 5 0  -2.3 5 0  -2.4 5 0  -2.5 5 0  -2.6 5 0  -2.7 5 0  -2.8 5 0  -2.9 5 0  -3 5 0  -3.1 5 0  -3.199999999999999 5 0  -3.300000000000001 5 0  -3.4 5 0  -3.5 5 0  -3.6 5 0  -3.699999999999999 5 0  -3.800000000000001 5 0  -3.9 5 0  -4 5 0  -4.1 5 0  -4.199999999999999 5 0  -4.300000000000001 5 0  -4.4 5 0  -4.5 5 0  -4.6 5 0  -4.699999999999999 5 0  -4.800000000000001 5 0  -4.9 5 0  -5 4.9 0  -5 4.8 0  -5 4.7 0  -5 4.6 0  -5 4.5 0  -5 4.4 0  -5 4.3 0  -5 4.2 0  -5 4.1 0  -5 4 0  -5 3.9 0  -5 3.8 0  -5 3.7 0  -5 3.6 0  -5 3.5 0  -5 3.4 0  -5 3.3 0  -5 3.2 0  -5 3.1 0  -5 3 0  -5 2.9 0  -5 2.8 0  -5 2.7 0  -5 2.6 0  -5 2.5 0  -5 2.4 0  -5 2.3 0  -5 2.2 0  -5 2.1 0  -5 2 0  -5 1.9 0  -5 1.8 0  -5 1.7 0  -5 1.6 0  -5 1.5 0  -5 1.4 0  -5 1.3 0  -5 1.2 0  -5 1.1 0  -5 1 0  -5 0.9000000000000004 0  -5 0.7999999999999998 0  -5 0.7000000000000002 0  -5 0.5999999999999996 0  -5 0.5 0  -5 0.4000000000000004 0  -5 0.2999999999999998 0  -5 0.2000000000000002 0  -5 0.09999999999999964 0  -5 0 0  -5 -0.09999999999999964 0  -5 -0.2000000000000002 0  -5 -0.2999999999999998 0  -5 -0.4000000000000004 0  -5 -0.5 0  -5 -0.5999999999999996 0  -5 -0.7000000000000002 0  -5 -0.7999999999999998 0  -5 -0.9000000000000004 0  -5 -1 0  -5 -1.1 0  -5 -1.2 0  -5 -1.3 0  -5 -1.4 0  -5 -1.5 0  -5 -1.6 0  -5 -1.7 0  -5 -1.8 0  -5 -1.9 0  -5 -2 0  -5 -2.1 0  -5 -2.2 0  -5 -2.3 0  -5 -2.4 0  -5 -2.5 0  -5 -2.6 0  -5 -2.7 0  -5 -2.8 0  -5 -2.9 0  -5 -3 0  -5 -3.1 0  -5 -3.199999999999999 0  -5 -3.300000000000001 0  -5 -3.4 0  -5 -3.5 0  -5 -3.6 0  -5 -3.699999999999999 0  -5 -3.800000000000001 0  -5 -3.9 0  -5 -4 0  -5 -4.1 0  -5 -4.199999999999999 0  -5 -4.300000000000001 0  -5 -4.4 0  -5 -4.5 0  -5 -4.6 0  -5 -4.699999999999999 0  -5 -4.800000000000001 0  -5 -4.9 0  1.225589313720288 0.09750040461417263 0  1.205614797422744 0.1948877976280935 0  1.172962154661077 0.2916564599424687 0  1.130952928776618 0.3819086999247293 0  1.075719868011898 0.4724046241214437 0  1.011573714197914 0.5572559661335751 0  0.9358276707816681 0.6370168038521042 0  0.851162995039396 0.7103753214250677 0  0.7600417850750266 0.7757591209398204 0  0.6594177399819292 0.83372829235123 0  0.5512936459042849 0.8855487172063261 0  0.4403489933053503 0.9282389274523055 0  0.3276512262540689 0.9611132727442132 0  0.2070582237727707 0.9830847050695929 0  0.08937385225580506 0.9998895446603489 0  -0.02766468018521743 1.00283833989742 0  -0.1452225210701571 0.9911119460896868 0  -0.2675627021822949 0.9729632092340219 0  -0.3847540904154931 0.9476365167155623 0  -0.4954324957505621 0.9112639479989139 0  -0.6025744530663966 0.8651702344402834 0  -0.7040884030783404 0.8106386998489896 0  -0.7979941531688169 0.7467948248211811 0  -0.8866471677387234 0.6750429093740312 0  -0.9687975422876899 0.5963705709195782 0  -1.039969843190975 0.5147038090986543 0  -1.10068936773676 0.4283642076766448 0  -1.150508989742667 0.3367574658069236 0  -1.187554493073196 0.2442731217844085 0  -1.211974692630831 0.149017200506284 0  -1.224129609252333 0.05072501974388534 0  -1.224093049332157 -0.04867556423956709 0  -1.211841993314595 -0.1464592791025259 0  -1.187688037370882 -0.2414563109569248 0  -1.149160196526206 -0.3366813675880673 0  -1.10093324529753 -0.4276352166026759 0  -1.04120497418524 -0.5141277680577633 0  -0.9707849903990265 -0.5952061323275262 0  -0.8891941527465144 -0.6725980553044056 0  -0.8005600651314915 -0.7429680271855282 0  -0.7050369827117902 -0.8039844730089895 0  -0.6023813481722199 -0.8577626555759412 0  -0.4918765958962776 -0.9060080192078197 0  -0.379915528976712 -0.9446653646581707 0  -0.2642851064741772 -0.9720971564231479 0  -0.1438656026263398 -0.9904954736380756 0  -0.02783112478750534 -1.001927260978508 0  0.0897599207184217 -0.9960756070550489 0  0.211069011245772 -0.9803514538659013 0  0.3297889909910723 -0.9594820921362088 0  0.4442670567665923 -0.9268585025339444 0  0.5533723541662044 -0.8846340160746577 0  0.660252550535315 -0.8336154721584127 0  0.7601240422034649 -0.7769118827897997 0  0.8512175673377363 -0.7112666133817791 0  0.9352493632975458 -0.6366952828227501 0  1.009552009198477 -0.5566037906170342 0  1.07562765695532 -0.4716171503680539 0  1.131912389102241 -0.381967952737958 0  1.174579547727274 -0.289816135957101 0  1.206061127046702 -0.1939955348934861 0  1.225704522895281 -0.09707053386218178 0  -2.448652285098727 4.918280256358494 0  -2.448534638725711 -4.910673741671801 0  4.910602069162438 2.448021523040298 0  4.918711721156447 -2.449471535110435 0  2.446280521796257 -4.89593650013424 0  2.440710267114415 4.899692307317021 0  -4.91062776608664 -2.448046602371822 0  -4.910625374755918 2.448050469974004 0  -1.74860986373502 4.911242510920832 0  -1.744392522448731 -4.914674603895535 0  4.920826440618783 1.74418440155294 0  4.909387593229354 -1.747962189338105 0  -4.909679127204591 -1.747694622358638 0  -4.910499720299206 1.747438137436175 0  1.745888623312239 4.90511587902616 0  1.747313703778535 -4.89329033849978 0  -1.148901828653853 4.909075118615905 0  -1.129752238610287 -4.916968797159464 0  -4.90945450209989 -1.148000378863559 0  -4.909273652088899 1.147800693330316 0  1.143892676658762 -4.9131637399171 0  1.148911025043301 4.909062558210633 0  4.909596599858827 1.146276411938791 0  4.920395932677105 -1.152049869017845 0  -0.5467004199077539 -4.910288375645962 0  -0.5464799740328046 4.918948322132104 0  -4.908233553200381 -0.5487488513069396 0  -4.908257651014744 0.5473060835113387 0  4.907557898947141 -0.5490680242017799 0  4.919176892689053 0.5458198546344015 0  0.542485917532687 -4.897204600506535 0  0.5512092478138363 4.915780407851189 0  -4.911998128741137 -3.048383065089525 0  4.918562043240258 3.046393417200593 0  4.911507051266662 -3.048360165397432 0  -4.912845360859607 3.045473899297221 0  3.055368409695572 -4.917490511797458 0  -3.048704357037078 -4.911433578428113 0  3.052270025530996 4.913509449866802 0  -3.048149475650003 4.912322479874038 0  -4.907359042788971 -0.04991174366702848 0  0.04512182889054185 -4.912240712123281 0  0.04956969136414931 4.919247888586199 0  4.914393185536995 -0.0512935747604569 0  3.54567275185646 -4.919102053393777 0  -3.548957886280234 4.91200
[...]
<PointData  Vectors="f_3182"> 
<DataArray  type="Float64"  Name="f_3182"  NumberOfComponents="3" format="ascii">2.6559658580600061e-76 2.6559658580600061e-76 0.0000000000000000e+00  -2.8445085011138637e-76 2.8445085011138637e-76 0.0000000000000000e+00  -8.5659604779137267e-78 -8.5659604779137267e-78 0.0000000000000000e+00  3.0308186857311097e-76 -3.0308186857311097e-76 0.0000000000000000e+00  -2.8315380364156634e-01 -5.3054788402172506e-03 0.0000000000000000e+00  4.1656847647203696e-75 6.6064518603447236e-75 0.0000000000000000e+00  2.0826246948078280e-75 2.0879759369328151e-74 0.0000000000000000e+00  -3.4051598707803536e-75 6.7709476471546128e-75 0.0000000000000000e+00  3.9994138018339910e-72 6.6687684507734538e-72 0.0000000000000000e+00  5.3158939195921722e-71 1.3459157885572745e-70 0.0000000000000000e+00  -7.9171977390877934e-72 4.5549964340116570e-71 0.0000000000000000e+00  3.2331913665875763e-69 6.1633908354845482e-69 0.0000000000000000e+00  5.1592719873756994e-68 9.4008073403106108e-68 0.0000000000000000e+00  -3.0629294254482167e-68 1.4998973242883213e-67 0.0000000000000000e+00  1.2761666812827991e-67 3.9822644229884161e-67 0.0000000000000000e+00  1.2657131995735181e-68 8.7789125745457789e-67 0.0000000000000000e+00  5.4482931735470098e-64 8.8261185343635034e-64 0.0000000000000000e+00  4.7487854063323202e-65 2.4418457448176367e-63 0.0000000000000000e+00  1.3481363488826351e-62 2.1999063489563302e-62 0.0000000000000000e+00  8.0620329811080704e-63 8.3185451040348596e-62 0.0000000000000000e+00  6.9250357780292066e-61 1.1028202021642116e-60 0.0000000000000000e+00  4.0582543791148989e-60 7.0099776356958086e-60 0.0000000000000000e+00  -2.8438399673763401e-60 7.6965683855046648e-60 0.0000000000000000e+00  5.6558124107803180e-59 1.1372948346758859e-58 0.0000000000000000e+00  -1.7565337299614759e-59 1.1644750446820685e-58 0.0000000000000000e+00  -2.9990909775709940e-59 6.8355152591625063e-59 0.0000000000000000e+00  1.7995893131216151e-58 3.3060409113048548e-58 0.0000000000000000e+00  7.2877799224445757e-58 2.0901665764752037e-57 0.0000000000000000e+00  2.8557031193072806e-57 6.2359053992872475e-57 0.0000000000000000e+00  -3.4009765802456868e-57 5.7344145387221526e-57 0.0000000000000000e+00  -3.5155664875429560e-58 1.0974136185574339e-57 0.0000000000000000e+00  1.9047524797746117e-56 2.9340388654570912e-56 0.0000000000000000e+00  -1.4103975641239076e-56 3.5293544255431956e-56 0.0000000000000000e+00  1.1887424775383882e-56 2.8947146807435034e-56 0.0000000000000000e+00  8.7179534892517298e-56 2.0984934608924219e-55 0.0000000000000000e+00  -2.5013696905321831e-56 5.7432055707511841e-55 0.0000000000000000e+00  5.1970995316205824e-57 8.6177775360253189e-57 0.0000000000000000e+00  5.5303972333940391e-56 1.3822470930117778e-55 0.0000000000000000e+00  1.5449042356337808e-55 6.1710480444089205e-55 0.0000000000000000e+00  -2.2298731734363852e-55 3.5143527206252459e-55 0.0000000000000000e+00  9.8080338940555703e-55 1.7237806707507731e-54 0.0000000000000000e+00  -4.4053078438055500e-55 4.3612073437741224e-54 0.0000000000000000e+00  -2.2747658988489031e-55 2.6818934921642233e-54 0.0000000000000000e+00  -9.5857783551066056e-56 9.4391408157954183e-55 0.0000000000000000e+00  -1.1274501772259020e-55 1.8214313306873579e-55 0.0000000000000000e+00  2.7510450149134361e-54 5.2350381557998881e-54 0.0000000000000000e+00  -2.1527434092110764e-54 4.1379143389896008e-54 0.0000000000000000e+00  -7.1680197227277096e-55 8.0775151334819382e-55 0.0000000000000000e+00  -1.3159571450249813e-55 2.7126985663628986e-55 0.0000000000000000e+00  9.2714276802689852e-55 1.4454532283022945e-54 0.0000000000000000e+00  9.4231229150709026e-55 6.1548504662458110e-54 0.0000000000000000e+00  -1.1245537380322580e-54 5.8987599707811641e-54 0.0000000000000000e+00  5.1293623882314802e-55 4.6482467767604197e-54 0.0000000000000000e+00  1.9037060354406712e-56 5.7931163920599089e-54 0.0000000000000000e+00  3.0069878161506436e-55 6.1512803806732674e-54 0.0000000000000000e+00  -1.2572382421577032e-54 2.0442425783939035e-54 0.0000000000000000e+00  -6.4341881668854799e-55 1.4723967289838296e-53 0.0000000000000000e+00  4.4483643155518211e-54 7.4683748721421419e-54 0.0000000000000000e+00  -4.3324734098594628e-54 8.0969408051571375e-54 0.0000000000000000e+00  1.9154166957680692e-54 3.9563446448541946e-54 0.0000000000000000e+00  -7.3391310936511211e-55 9.4992359718023390e-54 0.0000000000000000e+00  1.3266489825137204e-54 9.3285006381092142e-54 0.0000000000000000e+00  -1.6795626460167852e-54 4.3971503021426937e-54 0.0000000000000000e+00  -9.2223127060441310e-55 2.4052135360254101e-54 0.0000000000000000e+00  3.3211245224180178e-55 1.2994704355321330e-54 0.0000000000000000e+00  2.6486322176392416e-55 2.5375062445285299e-54 0.0000000000000000e+00  -7.8191734370214922e-56 3.4899350543851041e-54 0.0000000000000000e+00  -7.0935433985637106e-55 1.4819197750611016e-54 0.0000000000000000e+00  2.3714606929719095e-55 4.4246916462309167e-55 0.0000000000000000e+00  -2.3039045656378146e-55 6.0248341908518133e-55 0.0000000000000000e+00  5.0203319584246598e-56 2.3977429804955116e-55 0.0000000000000000e+00  1.8616309601346206e-55 9.5230787772589359e-55 0.0000000000000000e+00  -3.2960735328763564e-55 5.3037547274595860e-55 0.0000000000000000e+00  -1.5874493756681785e-56 4.8229445375237595e-56 0.0000000000000000e+00  -1.1329114892020094e-57 1.1333554472317535e-56 0.0000000000000000e+00  6.7389172241238093e-57 2.3547656315441320e-56 0.0000000000000000e+00  -8.9752447365510522e-57 1.5024406320717518e-56 0.0000000000000000e+00  1.7384052652077809e-57 2.8862826916855237e-57 0.0000000000000000e+00  -1.2419591956949308e-57 2.7248214458559372e-57 0.0000000000000000e+00  5.1669478322220495e-57 7.8069438336405302e-57 0.0000000000000000e+00  -4.5255676213610275e-57 1.1252281098465802e-56 0.0000000000000000e+00  -1.8107097355258697e-58 9.3955947012678406e-58 0.0000000000000000e+00  -2.3882804093472581e-58 4.6531680805470534e-58 0.0000000000000000e+00  -7.8653944490530585e-61 8.8103592143848012e-59 0.0000000000000000e+00  -2.4421578616133354e-59 6.4234594781907402e-59 0.0000000000000000e+00  -7.1051505154514316e-60 2.4999265493454585e-59 0.0000000000000000e+00  -4.3793575314274617e-60 2.2387477139744775e-59 0.0000000000000000e+00  -3.0588101779614368e-60 7.1687836808020097e-60 0.0000000000000000e+00  -8.5122411245897491e-62 4.4354026024620657e-61 0.0000000000000000e+00  -1.0745231084455946e-61 2.2343318210301617e-61 0.0000000000000000e+00  -3.5831615715686641e-62 5.6752880178319863e-62 0.0000000000000000e+00  -3.9056763734003726e-64 6.6988442907828056e-64 0.0000000000000000e+00  -2.4288357379907112e-65 5.1714126783355643e-65 0.0000000000000000e+00  3.7043934298559370e-66 1.0385591344033808e-65 0.0000000000000000e+00  -4.8384367977138378e-66 9.2628404829525747e-66 0.0000000000000000e+00  -6.6945729116672510e-68 2.7712538179206613e-67 0.0000000000000000e+00  -7.8482349969730296e-68 1.2919510161823249e-67 0.0000000000000000e+00  -8.0563936844872686e-69 1.1733770060271269e-68 0.0000000000000000e+00  -5.6306897905656133e-70 9.5213342174483345e-70 0.0000000000000000e+00  -3.7780192426467276e-71 6.8192240287267870e-71 0.0000000000000000e+00  -1.8778837667514344e-72 3.2029446538422484e-72 0.0000000000000000e+00  -1.2175367860744023e-73 2.7268347732985798e-73 0.0000000000000000e+00  -4.4204779983541310e-75 1.2911896753165223e-74 0.0000000000000000e+00  -2.5479365368045069e-75 4.2413067389614536e-75 0.0000000000000000e+00  -9.7691133053300319e-76 3.5581281375719506e-76 0.0000000000000000e+00  -1.6210658404282927e-75 -2.3919039530354232e-76 0.0000000000000000e+00  -2.4490605483257001e-74 1.1589580062811438e-74 0.0000000000000000e+00  -3.6791658412520513e-74 1.5501123246221671e-75 0.0000000000000000e+00  -3.8833151031521101e-73 1.4332503851714769e-73 0.0000000000000000e+00  -1.0239006296693581e-71 6.2371080177370628e-72 0.0000000000000000e+00  -6.7417710160720612e-71 3.7075164874843549e-71 0.0000000000000000e+00  -1.0610512354316183e-70 3.9021390780291704e-72 0.0000000000000000e+00  -8.9014633738952211e-70 3.3082139936991125e-70 0.0000000000000000e+00  -2.1290632962452579e-68 1.2861381702773288e-68 0.0000000000000000e+00  -1.0239314089612347e-67 5.1088456621729053e-68 0.0000000000000000e+00  -1.0133044620699591e-67 -6.0242542926489706e-68 0.0000000000000000e+00  -3.1665058802620887e-66 1.7455513519600105e-66 0.0000000000000000e+00  -3.1860689781801943e-65 1.8311247995705654e-65 0.0000000000000000e+00  -5.3861663744120325e-65 5.0439959784526336e-66 0.0000000000000000e+00  -4.4373469251186988e-64 1.4459424718419321e-64 0.0000000000000000e+00  -6.9955750501958158e-63 4.3570124180119951e-63 0.0000000000000000e+00  -1.5066787248681202e-62 3.7465531264575749e-63 0.0000000000000000e+00  -8.4345424035134031e-62 1.9655279657846874e-62 0.0000000000000000e+00  -1.3554951449009165e-60 8.5127343053622632e-61 0.0000000000000000e+00  -2.4171433233848678e-60 3.3795593576868042e-61 0.0000000000000000e+00  -2.1174945726529046e-59 7.3923415837463169e-60 0.0000000000000000e+00  -2.4181881750114559e-58 1.4932321352942099e-58 0.0000000000000000e+00  -2.5868374352616521e-58 -9.4085751769293574e-59 0.0000000000000000e+00  -5.9803823666788560e-57 2.7787123206671864e-57 0.0000000000000000e+00  -2.4846004312711373e-56 1.2376133218122981e-56 0.0000000000000000e+00  -5.5625672267921679e-56 -8.6708868096927973e-57 0.0000000000000000e+00  -1.0118982422669867e-54 6.4701844509546499e-55 0.0000000000000000e+00  -1.1202599917322877e-54 -3.4581173500382504e-55 0.0000000000000000e+00  -2.4092470426226834e-53 1.2670844898719079e-53 0.0000000000000000e+00  -6.5963007150647615e-53 2.9830739820878873e-53 0.0000000000000000e+00  -4.3578433264135565e-52 1.2218989353052489e-52 0.0000000000000000e+00  -2.6676370591875250e-51 1.6591188783008201e-51 0.0000000000000000e+00  -7.6656872136899550e-51 -2.1335657296183226e-52 0.0000000000000000e+00  -7.2018995355158412e-50 4.5845442820317875e-50 0.0000000000000000e+00  -1.6170634096507069e-49 -1.4727660468528965e-50 0.0000000000000000e+00  -1.7306689583874757e-48 1.0069959759755819e-48 0.0000000000000000e+00  -4.3410182764583269e-48 -2.0316470816353246e-49 0.0000000000000000e+00  -2.0149532625351542e-47 1.1059974695797988e-47 0.0000000000000000e+00  -1.1029774651740034e-46 1.8893995786917998e-47 0.0000000000000000e+00  -1.0249930011350339e-46 2.4508553558534555e-47 0.0000000000000000e+00  -1.2412351490243093e-45 5.2329785152272457e-46 0.0000000000000000e+00  -8.7327194391112493e-46 -5.6556932679534434e-46 0.0000000000000000e+00  -1.3437388919264165e-44 8.0373673800102787e-45 0.0000000000000000e+00  -5.7971424627900806e-44 1.3680692496458773e-44 0.0000000000000000e+00  -3.6144771827719645e-44 -1.7436971131539405e-44 0.0000000000000000e+00  -1.1428908583531534e-43 6.4720792185542173e-44 0.0000000000000000e+00  -8.4143385299980003e-43 2.3058186386636745e-43 0.0000000000000000e+00  -1.9292840329738484e-42 1.9667026080377788e-43 0.0000000000000000e+00  -2.5118834051264780e-42 6.0770890376281286e-44 0.0000000000000000e+00  -2.0146598204015267e-42 -1.9393025542830690e-43 0.0000000000000000e+00  -8.6150660576818514e-43 -2.4945796681620350e-43 0.0000000000000000e+00  -1.1328502785153714e-43 -6.4185075142151062e-44 0.0000000000000000e+00  -3.8703972702503037e-44 1.8421602168113137e-44 0.0000000000000000e+00  -6.3177900057149475e-44 -1.0776989951976379e-44 0.0000000000000000e+00  -1.4996870030584535e-44 -7.8341557026412861e-45 0.0000000000000000e+00  -9.9829955680321884e-46 5.6483296509272630e-46 0.0000000000000000e+00  -1.4046200019526597e-45 -5.3645544354334337e-46 0.0000000000000000e+00  -1.1211906586977464e-46 -2.8438739286985071e-47 0.0000000000000000e+00  -1.0184664062674018e-46 -2.1340838296819041e-47 0.0000000000000000e+00  -1.8627303871907562e-47 -1.1926340590338152e-47 0.0000000000000000e+00  -4.0854471203649117e-48 2.0229018333652611e-49 0.0000000000000000e+00  -1.4883134272444283e-48 -9.3241677607098666e-49 0.0000000000000000e+00  -1.6328148302213005e-49 2.4453433842536225e-50 0.0000000000000000e+00  -7.4654994416092125e-50 -4.4044085995262393e-50 0.0000000000000000e+00  -8.2452226458090694e-51 6.3801426621555481e-52 0.0000000000000000e+00  -3.1487109269842556e-51 -1.7773023743879819e-51 0.0000000000000000e+00  -5.1050263021115679e-52 -1.1428908136444935e-52 0.0000000000000000e+00  -8.2125488308079231e-53 -3.5352722100579183e-53 0.0000000000000000e+00  -2.6643160455621998e-53 -1.3115686260231923e-53 0.0000000000000000e+00  -1.1965972773281539e-54 3.2294203910766539e-55 0.0000000000000000e+00  -1.0649379047708001e-54 -6.7853923319198124e-55 0.0000000000000000e+00  -5.1508473419052434e-56 8.3241039634421273e-57 0.0000000000000000e+00  -2.3389170315943866e-56 -1.3203324716838097e-56 0.0000000000000000e+00  -4.8281819125391890e-57 -2.5151185088810727e-57 0.0000000000000000e+00  -2.4572420489335279e-58 8.5254408556873859e-59 0.0000000000000000e+00  -2.1604683610655752e-58 -1.3255538521938354e-58 0.0000000000000000e+00  -1.9920141429766203e-59 -6.1337652947221706e-60 0.0000000000000000e+00  -2.3754447931958740e-60 -3.3890362999603850e-61 0.0000000000000000e+00  -1.2919758804631038e-60 -7.5942896693045680e-61 0.0000000000000000e+00  -7.6936680174459663e-62 -2.1402873695858078e-62 0.0000000000000000e+00  -1.3597804452961970e-62 -2.9255427151686726e-63 0.0000000000000000e+00  -6.6440500888415988e-63 -3.7826669996856309e-63 0.0000000000000000e+00  -4.7852037224294426e-64 -1.8172000633964305e-64 0.0000000000000000e+00  -4.3637485504619501e-65 9.5681323421827067e-67 0.0000000000000000e+00  -2.9499232013943785e-65 -1.6601499605826686e-65 0.0000000000000000e+00  -3.4151607694285747e-66 -1.9866574196224887e-66 0.0000000000000000e+00  -8.9901617724607798e-68 5.4751446645658457e-68 0.0000000000000000e+00  -8.6401120887530013e-68 -4.1739163275932904e-68 0.0000000000000000e+00  -2.0691623787063289e-68 -1.2840016582824103e-68 0.0000000000000000e+00  -1.1329730098763084e-69 -5.1303456136585031e-70 0.0000000000000000e+00  -8.7935423758089787e-71 1.3780826963658053e-71 0.0000000000000000e+00  -6.9101409311127987e-71 -3.6553144570909986e-71 0.0000000000000000e+00  -1.2482491003458877e-71 -7.6590512801856037e-72 0.0000000000000000e+00  -5.9828727337874538e-73 -2.7502224115031537e-73 0.0000000000000000e+00  -3.9235124636771488e-74 7.4213058902590714e-75 0.0000000000000000e+00  -3.1568760947538038e-74 -1.4787174843191288e-74 0.0000000000000000e+00  -6.5910815515492992e-75 -3.3566806013376172e-75 0.0000000000000000e+00  -7.1800247677205747e-76 -3.1070427145703255e-76 0.0000000000000000e+00  -8.5514471932246239e-76 -1.6228892795573649e-75 0.0000000000000000e+00  -4.7732376342356972e-75 -1.3946199471158056e-74 0.0000000000000000e+00  4.3659452049136702e-75 -8.3078514206856125e-75 0.0000000000000000e+00  -1.6290004569903394e-73 -3.4275915689922615e-73 0.0000000000000000e+00  -9.2822222344611538e-71 -1.0072397275767651e-70 0.0000000000000000e+00  -7.5033774147404166e-70 -1.3179942106038160e-69 0.0000000000000000e+00  -1.0979176723164964e-69 -3.6517061848606128e-69 0.0000000000000000e+00  -7.7569077506563215e-68 -1.7117754768040601e-67 0.0000000000000000e+00  -6.5270057448702003e-68 -3.2602976012593761e-67 0.0000000000000000e+00  -6.7854130917817164e-66 -1.3504410355569603e-65 0.0000000000000000e+00  -4.5163560991057668e-66 -2.1319201530635175e-65 0.0000000000000000e+00  -9.0620839888597033e-65 -1.5581694366644396e-64 0.0000000000000000e+00  1.7203971813128678e-65 -2.1034388162678730e-64 0.0000000000000000e+00  -4.2716597691258973e-62 -6.4056310106047799e-62 0.0000000000000000e+00  -6.9912929545380458e-62 -1.7212647800296346e-61 0.0000000000000000e+00  -2.3233916053015137e-62 -2.7288288149606757e-61 0.0000000000000000e+00  -5.7337528199675498e-60 -1.1367403822072482e-59 0.0000000000000000e+00  4.7614673866395447e-60 -1.5015928505926435e-59 0.0000000000000000e+00  -2.8972210678466205e-59 -4.7515292602472576e-59 0.0000000000000000e+00  8.8092883030604566e-60 -6.0853010847082947e-59 0.0000000000000000e+00  2.3220862567839544e-59 -3.9696951692341117e-59 0.0000000000000000e+00  -5.6298621345556481e-58 -8.9528644750082544e-58 0.0000000000000000e+00  -1.3781452534717860e-59 -1.2602519387188737e-57 0.0000000000000000e+00  -4.6268276985602551e-57 -1.1642172779958935e-56 0.0000000000000000e+00  5.7398374803397531e-57 -8.6685734907617280e-57 0.0000000000000000e+00  -5.3249950189866560e-57 -7.3433591815393753e-57 0.0000000000000000e+00  -1.7640662298398635e-56 -3.7751540908145539e-56 0.0000000000000000e+00  2.1578836967899232e-56 -4.0690635881304035e-56 0.0000000000000000e+00  -4.9934688398533537e-57 -9.2055939318605416e-57 0.0000000000000000e+00  -8.1033193129482926e-56 -2.0318150262302646e-55 0.0000000000000000e+00  6.3592457939368454e-56 -5.0763967199579932e-55 0.0000000000000000e+00  -4.2812793781554437e-55 -7.2619559443840564e-55 0.0000000000000000e+00  -4.8755923106719472e-56 -1.8358057031023624e-54 0.0000000000000000e+00  1.6568647948377459e-55 -5.7382799731223350e-55 0.0000000000000000e+00  -5.1720225438200400e-55 -1.6764448062056509e-54 0.0000000000000000e+00  -2.2490667700521452e-54 -7.0737856908515590e-54 0.0000000000000000e+00  2.5765179610101878e-54 -6.0746935779742560e-54 0.0000000000000000e+00  -6.7060362260424589e-55 -2.3902853645289002e-54 0.0000000000000000e+00  5.3124380799706789e-55 -2.8187622090741485e-54 0.0000000000000000e+00  1.2790644516975879e-55 -1.4247413467807777e-54 0.0000000000000000e+00  -2.1752581423408689e-54 -3.4680834513505969e-54 0.0000000000000000e+00  5.6973096455157544e-55 -8.2269484158517593e-54 0.0000000000000000e+00  -3.9214509071964794e-54 -1.3560184401849277e-53 0.0000000000000000e+00  4.6811151919221483e-54 -7.7126039430424270e-54 0.0000000000000000e+00  2.0267510096334105e-55 -6.5054507547791892e-55 0.0000000000000000e+00  -4.7897437760992125e-54 -8.0105287887125242e-54 0.0000000000000000e+00  4.8153569990922088e-54 -7.8686900019089196e-54 0.0000000000000000e+00  -1.6579263178581148e-56 -1.3350147859150999e-55 0.0000000000000000e+00  1.1126179857424348e-56 -2.7681166629445197e-55 0.0000000000000000e+00  2.2016295718513079e-56 -9.8796809648198033e-56 0.0000000000000000e+00  -5.1921811965924292e-54 -9.3534679286167366e-54 0.0000000000000000e+00  5.5380179044074344e-54 -9.4089018524802909e-54 0.0000000000000000e+00  5.6620316586057624e-56 -1.0520172302372525e-55 0.0000000000000000e+00  -1.4296703434409095e-56 -6.2044743728909481e-56 0.0000000000000000e+00  -4.9881531321650345e-55 -9.0446990739868432e-55 0.0000000000000000e+00  -5.8020146365361613e-54 -1.0043315131795011e-53 0.0000000000000000e+00  4.4941134436429143e-54 -1.0494188229506660e-53 0.0000000000000000e+00  -3.0461050485907990e-54 -7.9835745498479093e-54 0.0000000000000000e+00  2.4339127160389294e-54 -8.5514548029630728e-54 0.0000000000000000e+00  2.2419682618452366e-54 -3.3078250626445710e-54 0.0000000000000000e+00  -5.4263674363695748e-55 -1.4794400055263608e-54 0.0000000000000000e+00  8.3413426216652814e-55 -1.5745545387505964e-54 0.0000000000000000e+00  -4.9142620939744903e-55 -9.8283321901991451e-55 0.0000000000000000e+00  5.1160020050761482e-55 -8.8597576183697807e-55 0.0000000000000000e+00  -1.5638636205836764e-56 -2.6905990441504526e-56 0.0000000000000000e+00  -4.4687364040615178e-56 -1.7214133057702140e-55 0.0000000000000000e+00  4.1660521825645083e-56 -1.7472183535411477e-55 0.0000000000000000e+00  4.7965060016970608e-57 -6.9035742585341698e-56 0.0000000000000000e+00  -2.7442470431673438e-56 -6.5399098373786782e-56 0.0000000000000000e+00  3.2829150906806779e-56 -6.4170706391671450e-56 0.0000000000000000e+00  -2.8543628895696728e-57 -2.8730579265717513e-56 0.0000000000000000e+00  1.2941815556049927e-56 -3.0033691002166248e-56 0.0000000000000000e+00  1.0010447724185178e-57 -2.4000894280747997e-57 0.0000000000000000e+00  -4.3764158619154009e-57 -7.6346792154858703e-57 0.0000000000000000e+00  4.2444370234884024e-57 -1.1011090969410244e-56 0.0000000000000000e+00  3.1205510678522361e-58 -1.0216033384167885e-57 0.0000000000000000e+00  1.4361912444492539e-58 -5.0275