<?xml version="1.0"?>
<VTKFile type="UnstructuredGrid"  version="0.1"  >
<UnstructuredGrid>
<Piece  NumberOfPoints="11902" NumberOfCells="23402">
<Points>
<DataArray  type="Float64"  NumberOfComponents="3"  format="ascii">-5 -5 0  5 -5 0  5 5 0  -5 5 0  1.264463944122226 0.001265767845663221 0  -4.9 -5 0  -4.8 -5 0  -4.7 -5 0  -4.6 -5 0  -4.5 -5 0  -4.4 -5 0  -4.3 -5 0  -4.2 -5 0  -4.1 -5 0  -4 -5 0  -3.9 -5 0  -3.8 -5 0  -3.7 -5 0  -3.6 -5 0  -3.5 -5 0  -3.4 -5 0  -3.3 -5 0  -3.2 -5 0  -3.1 -5 0  -3 -5 0  -2.9 -5 0  -2.8 -5 0  -2.7 -5 0  -2.6 -5 0  -2.5 -5 0  -2.4 -5 0  -2.3 -5 0  -2.2 -5 0  -2.1 -5 0  -2 -5 0  -1.9 -5 0  -1.8 -5 0  -1.7 -5 0  -1.6 -5 0  -1.5 -5 0  -1.4 -5 0  -1.3 -5 0  -1.2 -5 0  -1.1 -5 0  -1 -5 0  -0.9000000000000004 -5 0  -0.7999999999999998 -5 0  -0.7000000000000002 -5 0  -0.5999999999999996 -5 0  -0.5 -5 0  -0.4000000000000004 -5 0  -0.2999999999999998 -5 0  -0.2000000000000002 -5 0  -0.09999999999999964 -5 0  0 -5 0  0.09999999999999964 -5 0  0.2000000000000002 -5 0  0.2999999999999998 -5 0  0.4000000000000004 -5 0  0.5 -5 0  0.5999999999999996 -5 0  0.7000000000000002 -5 0  0.7999999999999998 -5 0  0.9000000000000004 -5 0  1 -5 0  1.1 -5 0  1.2 -5 0  1.3 -5 0  1.4 -5 0  1.5 -5 0  1.6 -5 0  1.7 -5 0  1.8 -5 0  1.9 -5 0  2 -5 0  2.1 -5 0  2.2 -5 0  2.3 -5 0  2.4 -5 0  2.5 -5 0  2.6 -5 0  2.7 -5 0  2.8 -5 0  2.9 -5 0  3 -5 0  3.1 -5 0  3.199999999999999 -5 0  3.300000000000001 -5 0  3.4 -5 0  3.5 -5 0  3.6 -5 0  3.699999999999999 -5 0  3.800000000000001 -5 0  3.9 -5 0  4 -5 0  4.1 -5 0  4.199999999999999 -5 0  4.300000000000001 -5 0  4.4 -5 0  4.5 -5 0  4.6 -5 0  4.699999999999999 -5 0  4.800000000000001 -5 0  4.9 -5 0  5 -4.9 0  5 -4.8 0  5 -4.7 0  5 -4.6 0  5 -4.5 0  5 -4.4 0  5 -4.3 0  5 -4.2 0  5 -4.1 0  5 -4 0  5 -3.9 0  5 -3.8 0  5 -3.7 0  5 -3.6 0  5 -3.5 0  5 -3.4 0  5 -3.3 0  5 -3.2 0  5 -3.1 0  5 -3 0  5 -2.9 0  5 -2.8 0  5 -2.7 0  5 -2.6 0  5 -2.5 0  5 -2.4 0  5 -2.3 0  5 -2.2 0  5 -2.1 0  5 -2 0  5 -1.9 0  5 -1.8 0  5 -1.7 0  5 -1.6 0  5 -1.5 0  5 -1.4 0  5 -1.3 0  5 -1.2 0  5 -1.1 0  5 -1 0  5 -0.9000000000000004 0  5 -0.7999999999999998 0  5 -0.7000000000000002 0  5 -0.5999999999999996 0  5 -0.5 0  5 -0.4000000000000004 0  5 -0.2999999999999998 0  5 -0.2000000000000002 0  5 -0.09999999999999964 0  5 0 0  5 0.09999999999999964 0  5 0.2000000000000002 0  5 0.2999999999999998 0  5 0.4000000000000004 0  5 0.5 0  5 0.5999999999999996 0  5 0.7000000000000002 0  5 0.7999999999999998 0  5 0.9000000000000004 0  5 1 0  5 1.1 0  5 1.2 0  5 1.3 0  5 1.4 0  5 1.5 0  5 1.6 0  5 1.7 0  5 1.8 0  5 1.9 0  5 2 0  5 2.1 0  5 2.2 0  5 2.3 0  5 2.4 0  5 2.5 0  5 2.6 0  5 2.7 0  5 2.8 0  5 2.9 0  5 3 0  5 3.1 0  5 3.199999999999999 0  5 3.300000000000001 0  5 3.4 0  5 3.5 0  5 3.6 0  5 3.699999999999999 0  5 3.800000000000001 0  5 3.9 0  5 4 0  5 4.1 0  5 4.199999999999999 0  5 4.300000000000001 0  5 4.4 0  5 4.5 0  5 4.6 0  5 4.699999999999999 0  5 4.800000000000001 0  5 4.9 0  4.9 5 0  4.8 5 0  4.7 5 0  4.6 5 0  4.5 5 0  4.4 5 0  4.3 5 0  4.2 5 0  4.1 5 0  4 5 0  3.9 5 0  3.8 5 0  3.7 5 0  3.6 5 0  3.5 5 0  3.4 5 0  3.3 5 0  3.2 5 0  3.1 5 0  3 5 0  2.9 5 0  2.8 5 0  2.7 5 0  2.6 5 0  2.5 5 0  2.4 5 0  2.3 5 0  2.2 5 0  2.1 5 0  2 5 0  1.9 5 0  1.8 5 0  1.7 5 0  1.6 5 0  1.5 5 0  1.4 5 0  1.3 5 0  1.2 5 0  1.1 5 0  1 5 0  0.9000000000000004 5 0  0.7999999999999998 5 0  0.7000000000000002 5 0  0.5999999999999996 5 0  0.5 5 0  0.4000000000000004 5 0  0.2999999999999998 5 0  0.2000000000000002 5 0  0.09999999999999964 5 0  0 5 0  -0.09999999999999964 5 0  -0.2000000000000002 5 0  -0.2999999999999998 5 0  -0.4000000000000004 5 0  -0.5 5 0  -0.5999999999999996 5 0  -0.7000000000000002 5 0  -0.7999999999999998 5 0  -0.9000000000000004 5 0  -1 5 0  -1.1 5 0  -1.2 5 0  -1.3 5 0  -1.4 5 0  -1.5 5 0  -1.6 5 0  -1.7 5 0  -1.8 5 0  -1.9 5 0  -2 5 0  -2.1 5 0  -2.2 5 0  -2.3 5 0  -2.4 5 0  -2.5 5 0  -2.6 5 0  -2.7 5 0  -2.8 5 0  -2.9 5 0  -3 5 0  -3.1 5 0  -3.199999999999999 5 0  -3.300000000000001 5 0  -3.4 5 0  -3.5 5 0  -3.6 5 0  -3.699999999999999 5 0  -3.800000000000001 5 0  -3.9 5 0  -4 5 0  -4.1 5 0  -4.199999999999999 5 0  -4.300000000000001 5 0  -4.4 5 0  -4.5 5 0  -4.6 5 0  -4.699999999999999 5 0  -4.800000000000001 5 0  -4.9 5 0  -5 4.9 0  -5 4.8 0  -5 4.7 0  -5 4.6 0  -5 4.5 0  -5 4.4 0  -5 4.3 0  -5 4.2 0  -5 4.1 0  -5 4 0  -5 3.9 0  -5 3.8 0  -5 3.7 0  -5 3.6 0  -5 3.5 0  -5 3.4 0  -5 3.3 0  -5 3.2 0  -5 3.1 0  -5 3 0  -5 2.9 0  -5 2.8 0  -5 2.7 0  -5 2.6 0  -5 2.5 0  -5 2.4 0  -5 2.3 0  -5 2.2 0  -5 2.1 0  -5 2 0  -5 1.9 0  -5 1.8 0  -5 1.7 0  -5 1.6 0  -5 1.5 0  -5 1.4 0  -5 1.3 0  -5 1.2 0  -5 1.1 0  -5 1 0  -5 0.9000000000000004 0  -5 0.7999999999999998 0  -5 0.7000000000000002 0  -5 0.5999999999999996 0  -5 0.5 0  -5 0.4000000000000004 0  -5 0.2999999999999998 0  -5 0.2000000000000002 0  -5 0.09999999999999964 0  -5 0 0  -5 -0.09999999999999964 0  -5 -0.2000000000000002 0  -5 -0.2999999999999998 0  -5 -0.4000000000000004 0  -5 -0.5 0  -5 -0.5999999999999996 0  -5 -0.7000000000000002 0  -5 -0.7999999999999998 0  -5 -0.9000000000000004 0  -5 -1 0  -5 -1.1 0  -5 -1.2 0  -5 -1.3 0  -5 -1.4 0  -5 -1.5 0  -5 -1.6 0  -5 -1.7 0  -5 -1.8 0  -5 -1.9 0  -5 -2 0  -5 -2.1 0  -5 -2.2 0  -5 -2.3 0  -5 -2.4 0  -5 -2.5 0  -5 -2.6 0  -5 -2.7 0  -5 -2.8 0  -5 -2.9 0  -5 -3 0  -5 -3.1 0  -5 -3.199999999999999 0  -5 -3.300000000000001 0  -5 -3.4 0  -5 -3.5 0  -5 -3.6 0  -5 -3.699999999999999 0  -5 -3.800000000000001 0  -5 -3.9 0  -5 -4 0  -5 -4.1 0  -5 -4.199999999999999 0  -5 -4.300000000000001 0  -5 -4.4 0  -5 -4.5 0  -5 -4.6 0  -5 -4.699999999999999 0  -5 -4.800000000000001 0  -5 -4.9 0  1.256357008537924 0.09322659562157518 0  1.234198401409191 0.1910539894410109 0  1.200446413152161 0.2877866479146006 0  1.157726536363338 0.3761545385928692 0  1.099099946258972 0.4672745627552918 0  1.032555616848013 0.5507893514191256 0  0.953922199821059 0.6312566038829269 0  0.8666196165055083 0.7061977480012924 0  0.7747831115331455 0.7714493298262343 0  0.6728193256014238 0.8288964759696488 0  0.5594994064113697 0.8811304477918764 0  0.4460305115864577 0.9261046505285222 0  0.3351502244205649 0.95773883311004 0  0.2087996662862063 0.9801118487755913 0  0.08771345605343019 0.998686389583088 0  -0.02635654717591698 1.002206836667503 0  -0.1440336670748761 0.9885100793343142 0  -0.273807144206028 0.968705464200836 0  -0.3938933507625099 0.9445463789549868 0  -0.5034878867975193 0.9093328387471639 0  -0.6130960662291357 0.8629035390184959 0  -0.7150707639718166 0.8078182929083183 0  -0.8095612613014783 0.7433004038168841 0  -0.9011935253642033 0.6694887234610304 0  -0.9877940438272172 0.5891651719218333 0  -1.062776369976331 0.5075256929678037 0  -1.124926544698172 0.4231071977141402 0  -1.179996868854491 0.329399861616081 0  -1.21743107908988 0.242415697618128 0  -1.241793056299171 0.1486550836870582 0  -1.252102454676635 0.05255981550877796 0  -1.252053930601153 -0.05024835064541683 0  -1.241692208888411 -0.1456175728352029 0  -1.217056561993275 -0.2365082009866695 0  -1.174845327118333 -0.3317416802378935 0  -1.125225908733424 -0.4241313969348315 0  -1.064864908157214 -0.5073880815665578 0  -0.9903490195827441 -0.588186988874616 0  -0.9043576075997315 -0.6674660740216681 0  -0.8135969034276872 -0.7388793318141805 0  -0.7182509413120503 -0.7995479818881824 0  -0.6135879003298745 -0.8528921579587913 0  -0.4978126121113801 -0.9026282866330295 0  -0.3853612960662258 -0.9425524450033879 0  -0.270474781550145 -0.9685591500788325 0  -0.1423170386613306 -0.9885536649161207 0  -0.02753069977671188 -1.00144875290089 0  0.08620601408787661 -0.9940351048290051 0  0.2153044117844476 -0.9760348972931879 0  0.3380759847427992 -0.9559266642606784 0  0.4502417134694384 -0.9247787399844364 0  0.5622266222377261 -0.8803577673271115 0  0.6740881442508578 -0.8287461968081098 0  0.7745836866006783 -0.772644803610667 0  0.8659231421924839 -0.7077775583241279 0  0.951780740505599 -0.6319289134692077 0  1.03012901736489 -0.5494231803816133 0  1.100697356322564 -0.4656363208126026 0  1.15857580412395 -0.3764890268285781 0  1.202258487705813 -0.2858655067483182 0  1.234930409921351 -0.1903997842371943 0  1.256773663709843 -0.09330492294560018 0  -2.448523011767725 4.918045810842465 0  -2.448393473420388 -4.910417738017999 0  4.910339356458215 2.447839624544448 0  4.918473292634781 -2.449306393093474 0  2.446116500742422 -4.895636106916475 0  2.440551463126927 4.899401586790242 0  -4.910366695056618 -2.447866645314617 0  -4.91036399789405 2.447870793345783 0  -1.748475550499928 4.910902940696581 0  -1.744263550356075 -4.914348240590496 0  4.920494648576393 1.744019689590081 0  4.909008709474861 -1.747773788787448 0  -4.909303741964956 -1.747508629170569 0  -4.910127391274844 1.747254358717422 0  1.745745385542044 4.904750821037888 0  1.747153472594472 -4.892880589089993 0  -1.148794598990565 4.908662077724267 0  -1.12965532287627 -4.91659076361189 0  -4.90898458914425 -1.147847271886739 0  -4.90880251019563 1.147648021187518 0  1.143791950765709 -4.912768340377605 0  1.148804222975896 4.908648186527307 0  4.909123674389934 1.146122015354984 0  4.919980434676407 -1.151913746924646 0  -0.5466441098188081 -4.909838005460044 0  -0.5464296374244355 4.918540569840609 0  -4.907687585658469 -0.5486636733203052 0  -4.907711566316086 0.5472220139115891 0  4.907003721579521 -0.5489816518645658 0  4.918692124837541 0.5457445124991807 0  0.5424242103755628 -4.896687395893726 0  0.5511570271725779 4.915356299877377 0  -4.911821948630164 -3.048234346239406 0  4.918397920728387 3.046254312308227 0  4.911329205798379 -3.048209288810222 0  -4.912670291722026 3.045326575751463 0  3.055253518572477 -4.917319506170823 0  -3.048580655308534 -4.91125052211578 0  3.052149084494832 4.913329617317251 0  -3.048026818846327 4.912141075435943 0  -4.906784647064673 -0.04990316997977062 0  0.04511832222795208 -4.911786546134297 0  0.04956529102559357 4.918829132100584 0  4.913858322102343 -0.0512859201301462 0  3.545582030607774 -4.918982733087758 0  -3.548859282820961 4.9
[...]
<PointData  Vectors="f_6198"> 
<DataArray  type="Float64"  Name="f_6198"  NumberOfComponents="3" format="ascii">2.6559658580600303e-76 2.6559658580600303e-76 0.0000000000000000e+00  -2.8445085011138821e-76 2.8445085011138821e-76 0.0000000000000000e+00  -8.5659604779174517e-78 -8.5659604779174517e-78 0.0000000000000000e+00  3.0308186857311747e-76 -3.0308186857311747e-76 0.0000000000000000e+00  7.8683536332968040e-01 8.2676951183170214e-03 0.0000000000000000e+00  4.1660382232356844e-75 6.6061356631788459e-75 0.0000000000000000e+00  2.0822769315865491e-75 2.0880065259356360e-74 0.0000000000000000e+00  -3.4061884365800525e-75 6.7718612036988809e-75 0.0000000000000000e+00  4.0007136439764248e-72 6.6676149228193502e-72 0.0000000000000000e+00  5.3177534268937164e-71 1.3457498680500229e-70 0.0000000000000000e+00  -7.9218515236347675e-72 4.5554010785999693e-71 0.0000000000000000e+00  3.2352136741216409e-69 6.1616384802515503e-69 0.0000000000000000e+00  5.1630799872783519e-68 9.3975484071675025e-68 0.0000000000000000e+00  -3.0661018023070042e-68 1.5001594973945241e-67 0.0000000000000000e+00  1.2772737913380305e-67 3.9813304928051972e-67 0.0000000000000000e+00  1.2624919269425294e-68 8.7791147335136675e-67 0.0000000000000000e+00  5.4544514340101740e-64 8.8211232225058360e-64 0.0000000000000000e+00  4.7430866207102751e-65 2.4418698650419453e-63 0.0000000000000000e+00  1.3499784154276723e-62 2.1984709983671572e-62 0.0000000000000000e+00  8.0700413176354172e-63 8.3178458707416952e-62 0.0000000000000000e+00  6.9360778828582162e-61 1.1019957905338388e-60 0.0000000000000000e+00  4.0652797116821850e-60 7.0048744851266908e-60 0.0000000000000000e+00  -2.8491996902302018e-60 7.7003374727604388e-60 0.0000000000000000e+00  5.6666292207360646e-59 1.1365380040177211e-58 0.0000000000000000e+00  -1.7603143107228071e-59 1.1647254335321632e-58 0.0000000000000000e+00  -3.0059418998718752e-59 6.8399134207112843e-59 0.0000000000000000e+00  1.8038326485253483e-58 3.3033652854249202e-58 0.0000000000000000e+00  7.3050391152383277e-58 2.0890779809358420e-57 0.0000000000000000e+00  2.8632144031562818e-57 6.2314875595003110e-57 0.0000000000000000e+00  -3.4105491134364497e-57 5.7397675222103122e-57 0.0000000000000000e+00  -3.5259303202512318e-58 1.0979715247200301e-57 0.0000000000000000e+00  1.9105085089543552e-56 2.9310075442136767e-56 0.0000000000000000e+00  -1.4150600194220497e-56 3.5315988059008265e-56 0.0000000000000000e+00  1.1926109046150548e-56 2.8928203427333351e-56 0.0000000000000000e+00  8.7471594966669723e-56 2.0971062254265362e-55 0.0000000000000000e+00  -2.5150249667201068e-56 5.7435086363316604e-55 0.0000000000000000e+00  5.2164488898052899e-57 8.6097970976107748e-57 0.0000000000000000e+00  5.5512193438315439e-56 1.3814014936834253e-55 0.0000000000000000e+00  1.5507727491109839e-55 6.1686861269410741e-55 0.0000000000000000e+00  -2.2391944578381052e-55 3.5174433507066404e-55 0.0000000000000000e+00  9.8490964772869329e-55 1.7224231612249371e-54 0.0000000000000000e+00  -4.4272368171272817e-55 4.3616173081243689e-54 0.0000000000000000e+00  -2.2862209002192771e-55 2.6820809159477371e-54 0.0000000000000000e+00  -9.6326884367706985e-56 9.4399956730346217e-55 0.0000000000000000e+00  -1.1327628088453493e-55 1.8225953625978320e-55 0.0000000000000000e+00  2.7640162056308954e-54 5.2322043116318527e-54 0.0000000000000000e+00  -2.1631875528153596e-54 4.1398112381770460e-54 0.0000000000000000e+00  -7.2033154477030616e-55 8.0831818050952679e-55 0.0000000000000000e+00  -1.3225806911966126e-55 2.7134947137083846e-55 0.0000000000000000e+00  9.3180126139002989e-55 1.4448798850502627e-54 0.0000000000000000e+00  9.4699683924375806e-55 6.1541091279293469e-54 0.0000000000000000e+00  -1.1304013322930252e-54 5.8988636469359096e-54 0.0000000000000000e+00  5.1553444306520478e-55 4.6478807545678790e-54 0.0000000000000000e+00  1.9106378122289397e-56 5.7928100674079496e-54 0.0000000000000000e+00  3.0225249341199653e-55 6.1509642183327319e-54 0.0000000000000000e+00  -1.2637362808328405e-54 2.0440814863468834e-54 0.0000000000000000e+00  -6.4654832193470050e-55 1.4722616187856979e-53 0.0000000000000000e+00  4.4712015222484217e-54 7.4698034302820152e-54 0.0000000000000000e+00  -4.3545118240898934e-54 8.0949088872420050e-54 0.0000000000000000e+00  1.9251061421535373e-54 3.9573745776305867e-54 0.0000000000000000e+00  -7.3729755309675057e-55 9.4982503818689629e-54 0.0000000000000000e+00  1.3334831832147539e-54 9.3290867522040622e-54 0.0000000000000000e+00  -1.6877145804184960e-54 4.3956872419626754e-54 0.0000000000000000e+00  -9.2655793054994792e-55 2.4042443814092338e-54 0.0000000000000000e+00  3.3372287024514778e-55 1.2997685963876369e-54 0.0000000000000000e+00  2.6618937502518574e-55 2.5377169800945917e-54 0.0000000000000000e+00  -7.8372163818193704e-56 3.4897205417369057e-54 0.0000000000000000e+00  -7.1241855185777827e-55 1.4809906099935925e-54 0.0000000000000000e+00  2.3817018794052516e-55 4.4277976180588423e-55 0.0000000000000000e+00  -2.3132131205270352e-55 6.0215181706462261e-55 0.0000000000000000e+00  5.0417339232230892e-56 2.3984224949124505e-55 0.0000000000000000e+00  1.8694397362795776e-55 9.5256700812620549e-55 0.0000000000000000e+00  -3.3083754907556064e-55 5.2987231896528585e-55 0.0000000000000000e+00  -1.5929773909921499e-56 4.8204475654926987e-56 0.0000000000000000e+00  -1.1362200678789118e-57 1.1331696156950035e-56 0.0000000000000000e+00  6.7629503215575275e-57 2.3558202329966782e-56 0.0000000000000000e+00  -9.0035836909622052e-57 1.5010149440692372e-56 0.0000000000000000e+00  1.7438906124527609e-57 2.8890438721351598e-57 0.0000000000000000e+00  -1.2456027109020588e-57 2.7228601166201912e-57 0.0000000000000000e+00  5.1816850785698131e-57 7.8150666520396813e-57 0.0000000000000000e+00  -4.5370758855897079e-57 1.1245372487405764e-56 0.0000000000000000e+00  -1.8153040824742632e-58 9.3928378560544458e-58 0.0000000000000000e+00  -2.3939604932601890e-58 4.6496198811834677e-58 0.0000000000000000e+00  -7.8832172019330841e-61 8.8102448193775445e-59 0.0000000000000000e+00  -2.4473593390903328e-59 6.4200116603114961e-59 0.0000000000000000e+00  -7.1193586673361772e-60 2.4989566662084712e-59 0.0000000000000000e+00  -4.3864456510970178e-60 2.2382182542209885e-59 0.0000000000000000e+00  -3.0638914750505558e-60 7.1650526795439804e-60 0.0000000000000000e+00  -8.5262188073212099e-62 4.4343739678766493e-61 0.0000000000000000e+00  -1.0761450297424605e-61 2.2331070701156167e-61 0.0000000000000000e+00  -3.5879747395981079e-62 5.6715379389777517e-62 0.0000000000000000e+00  -3.9106259239994196e-64 6.6949404684804356e-64 0.0000000000000000e+00  -2.4315494309213927e-65 5.1692179231700728e-65 0.0000000000000000e+00  3.7087887427191194e-66 1.0389110731884452e-65 0.0000000000000000e+00  -4.8427989049644553e-66 9.2591988214979502e-66 0.0000000000000000e+00  -6.7003657032062565e-68 2.7707684330772424e-67 0.0000000000000000e+00  -7.8540841424377552e-68 1.2914535809834128e-67 0.0000000000000000e+00  -8.0615464917386800e-69 1.1729336706807276e-68 0.0000000000000000e+00  -5.6337475715066422e-70 9.5186798135404267e-70 0.0000000000000000e+00  -3.7796883134347888e-71 6.8177632715332120e-71 0.0000000000000000e+00  -1.8785356189572300e-72 3.2023705898116397e-72 0.0000000000000000e+00  -1.2177869254692729e-73 2.7266126832676034e-73 0.0000000000000000e+00  -4.4212747868446768e-75 1.2911189923248878e-74 0.0000000000000000e+00  -2.5481581119476849e-75 4.2411097379224817e-75 0.0000000000000000e+00  -9.7687382088470749e-76 3.5584620916851269e-76 0.0000000000000000e+00  -1.6211600739015728e-75 -2.3927478651322272e-76 0.0000000000000000e+00  -2.4487759972806144e-74 1.1592124030035263e-74 0.0000000000000000e+00  -3.6791088652991301e-74 1.5506251350363787e-75 0.0000000000000000e+00  -3.8827756264188121e-73 1.4337350008731633e-73 0.0000000000000000e+00  -1.0235718582558168e-71 6.2401026009778554e-72 0.0000000000000000e+00  -6.7394269439783145e-71 3.7096746383577993e-71 0.0000000000000000e+00  -1.0610222155889569e-70 3.9048471651823439e-72 0.0000000000000000e+00  -8.8990107800240822e-70 3.3104958282130322e-70 0.0000000000000000e+00  -2.1279126652440662e-68 1.2872353084645323e-68 0.0000000000000000e+00  -1.0234213767415465e-67 5.1137960794747824e-68 0.0000000000000000e+00  -1.0139837394142910e-67 -6.0310136038046632e-68 0.0000000000000000e+00  -3.1645140935131249e-66 1.7475378508030185e-66 0.0000000000000000e+00  -3.1837754825117744e-65 1.8334716975776325e-65 0.0000000000000000e+00  -5.3854820804845937e-65 5.0511859839653632e-66 0.0000000000000000e+00  -4.4353989607613809e-64 1.4479766897274812e-64 0.0000000000000000e+00  -6.9890656810536860e-63 4.3641266821058437e-63 0.0000000000000000e+00  -1.5060834904690501e-62 3.7532690965109317e-63 0.0000000000000000e+00  -8.4315107754519200e-62 1.9688627495216559e-62 0.0000000000000000e+00  -1.3540352010712396e-60 8.5300238218319112e-61 0.0000000000000000e+00  -2.4165345276996584e-60 3.3870635739537025e-61 0.0000000000000000e+00  -2.1161649611994159e-59 7.4086332911157428e-60 0.0000000000000000e+00  -2.4153477334085093e-58 1.4969330266807965e-58 0.0000000000000000e+00  -2.5886939932169438e-58 -9.4340211120933089e-59 0.0000000000000000e+00  -5.9748677869535756e-57 2.7863242959679038e-57 0.0000000000000000e+00  -2.4820728507512774e-56 1.2413116941494943e-56 0.0000000000000000e+00  -5.5644297857943865e-56 -8.7027685211433271e-57 0.0000000000000000e+00  -1.0105446545965530e-54 6.4915183516672406e-55 0.0000000000000000e+00  -1.1209902395309594e-54 -3.4704353836044215e-55 0.0000000000000000e+00  -2.4065669262142517e-53 1.2716482446642084e-53 0.0000000000000000e+00  -6.5900094123658558e-53 2.9946519134399670e-53 0.0000000000000000e+00  -4.3552472279641423e-52 1.2265522031985662e-52 0.0000000000000000e+00  -2.6641999486663608e-51 1.6661245311101383e-51 0.0000000000000000e+00  -7.6659691165077980e-51 -2.1491374703076231e-52 0.0000000000000000e+00  -7.1927658893452814e-50 4.6055082907934501e-50 0.0000000000000000e+00  -1.6172987586542396e-49 -1.4810261748665107e-50 0.0000000000000000e+00  -1.7287865734475807e-48 1.0119418155320462e-48 0.0000000000000000e+00  -4.3412174844670969e-48 -2.0448965505726244e-49 0.0000000000000000e+00  -2.0130846953068556e-47 1.1118048296910152e-47 0.0000000000000000e+00  -1.1026291615076553e-46 1.8989848972308246e-47 0.0000000000000000e+00  -1.0246433980600677e-46 2.4645694872513322e-47 0.0000000000000000e+00  -1.2404875281648530e-45 5.2623017542524099e-46 0.0000000000000000e+00  -8.7389881352902969e-46 -5.6889510829576845e-46 0.0000000000000000e+00  -1.3428593076489170e-44 8.0847258072564474e-45 0.0000000000000000e+00  -5.7955763632460905e-44 1.3761213623805098e-44 0.0000000000000000e+00  -3.6154924136762113e-44 -1.7544306219007547e-44 0.0000000000000000e+00  -1.1425023702322074e-43 6.5118624059480514e-44 0.0000000000000000e+00  -8.4129544348177865e-43 2.3200301114086327e-43 0.0000000000000000e+00  -1.9291075565898355e-42 1.9788316270405185e-43 0.0000000000000000e+00  -2.5116956344178073e-42 6.1150669403220802e-44 0.0000000000000000e+00  -2.0144819284356315e-42 -1.9512631090758232e-43 0.0000000000000000e+00  -8.6136252074742129e-43 -2.5099708384022937e-43 0.0000000000000000e+00  -1.1324656958293161e-43 -6.4579741179302773e-44 0.0000000000000000e+00  -3.8714754180296006e-44 1.8535001851223533e-44 0.0000000000000000e+00  -6.3164715487653263e-44 -1.0840008555597206e-44 0.0000000000000000e+00  -1.4988269360701518e-44 -7.8803165393884399e-45 0.0000000000000000e+00  -9.9892789324148572e-46 5.6815409034214646e-46 0.0000000000000000e+00  -1.4038541665509485e-45 -5.3946405561934086e-46 0.0000000000000000e+00  -1.1207805338800114e-46 -2.8597505348738982e-47 0.0000000000000000e+00  -1.0180857781149748e-46 -2.1450889343833075e-47 0.0000000000000000e+00  -1.8607176834486663e-47 -1.1989092323196579e-47 0.0000000000000000e+00  -4.0856364033535149e-48 2.0362564367731220e-49 0.0000000000000000e+00  -1.4865706813170232e-48 -9.3700562742779258e-49 0.0000000000000000e+00  -1.6332358667463233e-49 2.4583110799573500e-50 0.0000000000000000e+00  -7.4567144185679247e-50 -4.4245619653986266e-50 0.0000000000000000e+00  -8.2463690210235762e-51 6.4144942298137864e-52 0.0000000000000000e+00  -3.1450265755473826e-51 -1.7848219781146925e-51 0.0000000000000000e+00  -5.1025907707357404e-52 -1.1472101177097217e-52 0.0000000000000000e+00  -8.2050848742529047e-53 -3.5490015068974609e-53 0.0000000000000000e+00  -2.6615387002804156e-53 -1.3163026796223827e-53 0.0000000000000000e+00  -1.1972799523420410e-54 3.2409256647464383e-55 0.0000000000000000e+00  -1.0635167963736902e-54 -6.8077758380589780e-55 0.0000000000000000e+00  -5.1526358473456042e-56 8.3546287388211139e-57 0.0000000000000000e+00  -2.3362179948534786e-56 -1.3242772771879453e-56 0.0000000000000000e+00  -4.8231831735495647e-57 -2.5220180424706491e-57 0.0000000000000000e+00  -2.4589273013251928e-58 8.5485528246193344e-59 0.0000000000000000e+00  -2.1579409702449132e-58 -1.3288522530212629e-58 0.0000000000000000e+00  -1.9909123185171197e-59 -6.1472327539133440e-60 0.0000000000000000e+00  -2.3748335300003040e-60 -3.3965739713512144e-61 0.0000000000000000e+00  -1.2906710040600447e-60 -7.6097574880670933e-61 0.0000000000000000e+00  -7.6903067283882534e-62 -2.1440306974517900e-62 0.0000000000000000e+00  -1.3593133823445492e-62 -2.9308256740929348e-63 0.0000000000000000e+00  -6.6383783034948695e-63 -3.7888771963477592e-63 0.0000000000000000e+00  -4.7827120959223576e-64 -1.8198229543468849e-64 0.0000000000000000e+00  -4.3638789029001044e-65 9.5818522260837786e-67 0.0000000000000000e+00  -2.9478383041578256e-65 -1.6622856645215475e-65 0.0000000000000000e+00  -3.4128813540899288e-66 -1.9889348364224841e-66 0.0000000000000000e+00  -8.9964053597355860e-68 5.4813751877854536e-68 0.0000000000000000e+00  -8.6359343834887014e-68 -4.1779751124731853e-68 0.0000000000000000e+00  -2.0680106716298878e-68 -1.2851008759223962e-68 0.0000000000000000e+00  -1.1325819327321182e-69 -5.1340006313225497e-70 0.0000000000000000e+00  -8.7945759806197083e-71 1.3790487003153347e-71 0.0000000000000000e+00  -6.9078246223569094e-71 -3.6574490363563078e-71 0.0000000000000000e+00  -1.2478436158356626e-71 -7.6627485117150810e-72 0.0000000000000000e+00  -5.9817722158205027e-73 -2.7512144904267255e-73 0.0000000000000000e+00  -3.9237977173048189e-74 7.4238780750617495e-75 0.0000000000000000e+00  -3.1564817890173380e-74 -1.4790707360068560e-74 0.0000000000000000e+00  -6.5905411372896822e-75 -3.3571628693811197e-75 0.0000000000000000e+00  -7.1798739975668817e-76 -3.1071768794717988e-76 0.0000000000000000e+00  -8.5520432922666718e-76 -1.6228362152728597e-75 0.0000000000000000e+00  -4.7736258285902942e-75 -1.3945852206485870e-74 0.0000000000000000e+00  4.3673195360488382e-75 -8.3090651416994755e-75 0.0000000000000000e+00  -1.6295332170950236e-73 -3.4271213035219894e-73 0.0000000000000000e+00  -9.2864325318185310e-71 -1.0068707986809207e-70 0.0000000000000000e+00  -7.5075705214096338e-70 -1.3176303526101189e-69 0.0000000000000000e+00  -1.0986364309665793e-69 -3.6510882215804747e-69 0.0000000000000000e+00  -7.7626051052628672e-68 -1.7112898393965826e-67 0.0000000000000000e+00  -6.5325988524072818e-68 -3.2598279175774674e-67 0.0000000000000000e+00  -6.7915361509998530e-66 -1.3499293256742925e-65 0.0000000000000000e+00  -4.5212127102284352e-66 -2.1315245491349273e-65 0.0000000000000000e+00  -9.0725966750227806e-65 -1.5573241889791432e-64 0.0000000000000000e+00  1.7226401970019023e-65 -2.1036149027680373e-64 0.0000000000000000e+00  -4.2774387757220435e-62 -6.4011294822622891e-62 0.0000000000000000e+00  -7.0019106408714347e-62 -1.7204629721138082e-61 0.0000000000000000e+00  -2.3272192817667447e-62 -2.7285468757018345e-61 0.0000000000000000e+00  -5.7434332008389478e-60 -1.1360324930516894e-59 0.0000000000000000e+00  4.7712281713947632e-60 -1.5022551857450564e-59 0.0000000000000000e+00  -2.9029448395083300e-59 -4.7475911460849904e-59 0.0000000000000000e+00  8.8282945610767318e-60 -6.0865562129463515e-59 0.0000000000000000e+00  2.3275409978934442e-59 -3.9731387299605686e-59 0.0000000000000000e+00  -5.6430989336141286e-58 -8.9445122551844529e-58 0.0000000000000000e+00  -1.3816540760999007e-59 -1.2602308628072733e-57 0.0000000000000000e+00  -4.6386009471821330e-57 -1.1635084920165484e-56 0.0000000000000000e+00  5.7563746611911568e-57 -8.6776489433798035e-57 0.0000000000000000e+00  -5.3404917418552050e-57 -7.3349247220801152e-57 0.0000000000000000e+00  -1.7694921475009469e-56 -3.7723437591406820e-56 0.0000000000000000e+00  2.1649851955058833e-56 -4.0724998023715110e-56 0.0000000000000000e+00  -5.0100442308499753e-57 -9.1976498615359928e-57 0.0000000000000000e+00  -8.1308628669743408e-56 -2.0305292429479601e-55 0.0000000000000000e+00  6.3861055592930619e-56 -5.0773183098019575e-55 0.0000000000000000e+00  -4.2973210767138534e-55 -7.2553923688662593e-55 0.0000000000000000e+00  -4.8852677441335562e-56 -1.8357045508406026e-54 0.0000000000000000e+00  1.6635693117052273e-55 -5.7406757165172540e-55 0.0000000000000000e+00  -5.1924839816830252e-55 -1.6756749971655220e-54 0.0000000000000000e+00  -2.2583363309741495e-54 -7.0705820211650459e-54 0.0000000000000000e+00  2.5881064105815182e-54 -6.0778352500239932e-54 0.0000000000000000e+00  -6.7351524841625254e-55 -2.3893985521480427e-54 0.0000000000000000e+00  5.3381551805027047e-55 -2.8192657703286783e-54 0.0000000000000000e+00  1.2856754737347510e-55 -1.4248209765910879e-54 0.0000000000000000e+00  -2.1856358338923169e-54 -3.4659373144133743e-54 0.0000000000000000e+00  5.7281852145622484e-55 -8.2270518901775760e-54 0.0000000000000000e+00  -3.9404408060265242e-54 -1.3556566298659653e-53 0.0000000000000000e+00  4.7046335193484543e-54 -7.7156035276784823e-54 0.0000000000000000e+00  2.0371355004884143e-55 -6.5063244502082670e-55 0.0000000000000000e+00  -4.8141172406539736e-54 -8.0081160370596572e-54 0.0000000000000000e+00  4.8401747846387766e-54 -7.8701147002537512e-54 0.0000000000000000e+00  -1.6664906126109003e-56 -1.3349762519466118e-55 0.0000000000000000e+00  1.1184890995587824e-56 -2.7679996849977899e-55 0.0000000000000000e+00  2.2130457334191998e-56 -9.8796592912013401e-56 0.0000000000000000e+00  -5.2190983972633528e-54 -9.3538284063779347e-54 0.0000000000000000e+00  5.5665616701692256e-54 -9.4073231045123035e-54 0.0000000000000000e+00  5.6910678280070721e-56 -1.0518017523893236e-55 0.0000000000000000e+00  -1.4370588896847778e-56 -6.2048758876174076e-56 0.0000000000000000e+00  -5.0134519225639905e-55 -9.0473605745035670e-55 0.0000000000000000e+00  -5.8311004752552149e-54 -1.0047098456917676e-53 0.0000000000000000e+00  4.5162440888444492e-54 -1.0490623096145239e-53 0.0000000000000000e+00  -3.0609235362174408e-54 -7.9862305034030701e-54 0.0000000000000000e+00  2.4455443385223725e-54 -8.5490936034714522e-54 0.0000000000000000e+00  2.2524540032219198e-54 -3.3054246867373916e-54 0.0000000000000000e+00  -5.4514248092621493e-55 -1.4800478845712342e-54 0.0000000000000000e+00  8.3781989871964427e-55 -1.5735004304343371e-54 0.0000000000000000e+00  -4.9361785838076953e-55 -9.8344156839501092e-55 0.0000000000000000e+00  5.1374712105771572e-55 -8.8526876134421828e-55 0.0000000000000000e+00  -1.5703883895248072e-56 -2.6927759447674549e-56 0.0000000000000000e+00  -4.4876336340555376e-56 -1.7220290074393421e-55 0.0000000000000000e+00  4.1812824906236281e-56 -1.7465672202294943e-55 0.0000000000000000e+00  4.8106536707761179e-57 -6.9027515019104571e-56 0.0000000000000000e+00  -2.7542530091186141e-56 -6.5441694239754525e-56 0.0000000000000000e+00  3.2942775003564956e-56 -6.4118844242391307e-56 0.0000000000000000e+00  -2.8639531104674851e-57 -2.8735115740943507e-56 0.0000000000000000e+00  1.2981791744934427e-56 -3.0013014452740082e-56 0.0000000000000000e+00  1.0040067002025592e-57 -2.3984969670684769e-57 0.0000000000000000e+00  -4.3895048338754962e-57 -7.6416429164876632e-57 0.0000000000000000e+00  4.2557421526755793e-57 -1.1004481680509011e-56 0.0000000000000000e+00  3.1288215113159222e-58 -1.0211190615556186e-57 0.0000000000000000e+00  1.4397971581949672e-58 -5.025334