<?xml version="1.0"?>
<VTKFile type="UnstructuredGrid"  version="0.1"  >
<UnstructuredGrid>
<Piece  NumberOfPoints="11902" NumberOfCells="23402">
<Points>
<DataArray  type="Float64"  NumberOfComponents="3"  format="ascii">-5 -5 0  5 -5 0  5 5 0  -5 5 0  1.029565873914105 0.00019088809368002 0  -4.9 -5 0  -4.8 -5 0  -4.7 -5 0  -4.6 -5 0  -4.5 -5 0  -4.4 -5 0  -4.3 -5 0  -4.2 -5 0  -4.1 -5 0  -4 -5 0  -3.9 -5 0  -3.8 -5 0  -3.7 -5 0  -3.6 -5 0  -3.5 -5 0  -3.4 -5 0  -3.3 -5 0  -3.2 -5 0  -3.1 -5 0  -3 -5 0  -2.9 -5 0  -2.8 -5 0  -2.7 -5 0  -2.6 -5 0  -2.5 -5 0  -2.4 -5 0  -2.3 -5 0  -2.2 -5 0  -2.1 -5 0  -2 -5 0  -1.9 -5 0  -1.8 -5 0  -1.7 -5 0  -1.6 -5 0  -1.5 -5 0  -1.4 -5 0  -1.3 -5 0  -1.2 -5 0  -1.1 -5 0  -1 -5 0  -0.9000000000000004 -5 0  -0.7999999999999998 -5 0  -0.7000000000000002 -5 0  -0.5999999999999996 -5 0  -0.5 -5 0  -0.4000000000000004 -5 0  -0.2999999999999998 -5 0  -0.2000000000000002 -5 0  -0.09999999999999964 -5 0  0 -5 0  0.09999999999999964 -5 0  0.2000000000000002 -5 0  0.2999999999999998 -5 0  0.4000000000000004 -5 0  0.5 -5 0  0.5999999999999996 -5 0  0.7000000000000002 -5 0  0.7999999999999998 -5 0  0.9000000000000004 -5 0  1 -5 0  1.1 -5 0  1.2 -5 0  1.3 -5 0  1.4 -5 0  1.5 -5 0  1.6 -5 0  1.7 -5 0  1.8 -5 0  1.9 -5 0  2 -5 0  2.1 -5 0  2.2 -5 0  2.3 -5 0  2.4 -5 0  2.5 -5 0  2.6 -5 0  2.7 -5 0  2.8 -5 0  2.9 -5 0  3 -5 0  3.1 -5 0  3.199999999999999 -5 0  3.300000000000001 -5 0  3.4 -5 0  3.5 -5 0  3.6 -5 0  3.699999999999999 -5 0  3.800000000000001 -5 0  3.9 -5 0  4 -5 0  4.1 -5 0  4.199999999999999 -5 0  4.300000000000001 -5 0  4.4 -5 0  4.5 -5 0  4.6 -5 0  4.699999999999999 -5 0  4.800000000000001 -5 0  4.9 -5 0  5 -4.9 0  5 -4.8 0  5 -4.7 0  5 -4.6 0  5 -4.5 0  5 -4.4 0  5 -4.3 0  5 -4.2 0  5 -4.1 0  5 -4 0  5 -3.9 0  5 -3.8 0  5 -3.7 0  5 -3.6 0  5 -3.5 0  5 -3.4 0  5 -3.3 0  5 -3.2 0  5 -3.1 0  5 -3 0  5 -2.9 0  5 -2.8 0  5 -2.7 0  5 -2.6 0  5 -2.5 0  5 -2.4 0  5 -2.3 0  5 -2.2 0  5 -2.1 0  5 -2 0  5 -1.9 0  5 -1.8 0  5 -1.7 0  5 -1.6 0  5 -1.5 0  5 -1.4 0  5 -1.3 0  5 -1.2 0  5 -1.1 0  5 -1 0  5 -0.9000000000000004 0  5 -0.7999999999999998 0  5 -0.7000000000000002 0  5 -0.5999999999999996 0  5 -0.5 0  5 -0.4000000000000004 0  5 -0.2999999999999998 0  5 -0.2000000000000002 0  5 -0.09999999999999964 0  5 0 0  5 0.09999999999999964 0  5 0.2000000000000002 0  5 0.2999999999999998 0  5 0.4000000000000004 0  5 0.5 0  5 0.5999999999999996 0  5 0.7000000000000002 0  5 0.7999999999999998 0  5 0.9000000000000004 0  5 1 0  5 1.1 0  5 1.2 0  5 1.3 0  5 1.4 0  5 1.5 0  5 1.6 0  5 1.7 0  5 1.8 0  5 1.9 0  5 2 0  5 2.1 0  5 2.2 0  5 2.3 0  5 2.4 0  5 2.5 0  5 2.6 0  5 2.7 0  5 2.8 0  5 2.9 0  5 3 0  5 3.1 0  5 3.199999999999999 0  5 3.300000000000001 0  5 3.4 0  5 3.5 0  5 3.6 0  5 3.699999999999999 0  5 3.800000000000001 0  5 3.9 0  5 4 0  5 4.1 0  5 4.199999999999999 0  5 4.300000000000001 0  5 4.4 0  5 4.5 0  5 4.6 0  5 4.699999999999999 0  5 4.800000000000001 0  5 4.9 0  4.9 5 0  4.8 5 0  4.7 5 0  4.6 5 0  4.5 5 0  4.4 5 0  4.3 5 0  4.2 5 0  4.1 5 0  4 5 0  3.9 5 0  3.8 5 0  3.7 5 0  3.6 5 0  3.5 5 0  3.4 5 0  3.3 5 0  3.2 5 0  3.1 5 0  3 5 0  2.9 5 0  2.8 5 0  2.7 5 0  2.6 5 0  2.5 5 0  2.4 5 0  2.3 5 0  2.2 5 0  2.1 5 0  2 5 0  1.9 5 0  1.8 5 0  1.7 5 0  1.6 5 0  1.5 5 0  1.4 5 0  1.3 5 0  1.2 5 0  1.1 5 0  1 5 0  0.9000000000000004 5 0  0.7999999999999998 5 0  0.7000000000000002 5 0  0.5999999999999996 5 0  0.5 5 0  0.4000000000000004 5 0  0.2999999999999998 5 0  0.2000000000000002 5 0  0.09999999999999964 5 0  0 5 0  -0.09999999999999964 5 0  -0.2000000000000002 5 0  -0.2999999999999998 5 0  -0.4000000000000004 5 0  -0.5 5 0  -0.5999999999999996 5 0  -0.7000000000000002 5 0  -0.7999999999999998 5 0  -0.9000000000000004 5 0  -1 5 0  -1.1 5 0  -1.2 5 0  -1.3 5 0  -1.4 5 0  -1.5 5 0  -1.6 5 0  -1.7 5 0  -1.8 5 0  -1.9 5 0  -2 5 0  -2.1 5 0  -2.2 5 0  -2.3 5 0  -2.4 5 0  -2.5 5 0  -2.6 5 0  -2.7 5 0  -2.8 5 0  -2.9 5 0  -3 5 0  -3.1 5 0  -3.199999999999999 5 0  -3.300000000000001 5 0  -3.4 5 0  -3.5 5 0  -3.6 5 0  -3.699999999999999 5 0  -3.800000000000001 5 0  -3.9 5 0  -4 5 0  -4.1 5 0  -4.199999999999999 5 0  -4.300000000000001 5 0  -4.4 5 0  -4.5 5 0  -4.6 5 0  -4.699999999999999 5 0  -4.800000000000001 5 0  -4.9 5 0  -5 4.9 0  -5 4.8 0  -5 4.7 0  -5 4.6 0  -5 4.5 0  -5 4.4 0  -5 4.3 0  -5 4.2 0  -5 4.1 0  -5 4 0  -5 3.9 0  -5 3.8 0  -5 3.7 0  -5 3.6 0  -5 3.5 0  -5 3.4 0  -5 3.3 0  -5 3.2 0  -5 3.1 0  -5 3 0  -5 2.9 0  -5 2.8 0  -5 2.7 0  -5 2.6 0  -5 2.5 0  -5 2.4 0  -5 2.3 0  -5 2.2 0  -5 2.1 0  -5 2 0  -5 1.9 0  -5 1.8 0  -5 1.7 0  -5 1.6 0  -5 1.5 0  -5 1.4 0  -5 1.3 0  -5 1.2 0  -5 1.1 0  -5 1 0  -5 0.9000000000000004 0  -5 0.7999999999999998 0  -5 0.7000000000000002 0  -5 0.5999999999999996 0  -5 0.5 0  -5 0.4000000000000004 0  -5 0.2999999999999998 0  -5 0.2000000000000002 0  -5 0.09999999999999964 0  -5 0 0  -5 -0.09999999999999964 0  -5 -0.2000000000000002 0  -5 -0.2999999999999998 0  -5 -0.4000000000000004 0  -5 -0.5 0  -5 -0.5999999999999996 0  -5 -0.7000000000000002 0  -5 -0.7999999999999998 0  -5 -0.9000000000000004 0  -5 -1 0  -5 -1.1 0  -5 -1.2 0  -5 -1.3 0  -5 -1.4 0  -5 -1.5 0  -5 -1.6 0  -5 -1.7 0  -5 -1.8 0  -5 -1.9 0  -5 -2 0  -5 -2.1 0  -5 -2.2 0  -5 -2.3 0  -5 -2.4 0  -5 -2.5 0  -5 -2.6 0  -5 -2.7 0  -5 -2.8 0  -5 -2.9 0  -5 -3 0  -5 -3.1 0  -5 -3.199999999999999 0  -5 -3.300000000000001 0  -5 -3.4 0  -5 -3.5 0  -5 -3.6 0  -5 -3.699999999999999 0  -5 -3.800000000000001 0  -5 -3.9 0  -5 -4 0  -5 -4.1 0  -5 -4.199999999999999 0  -5 -4.300000000000001 0  -5 -4.4 0  -5 -4.5 0  -5 -4.6 0  -5 -4.699999999999999 0  -5 -4.800000000000001 0  -5 -4.9 0  1.024486383471829 0.09997399707308173 0  1.009151658657815 0.1989285003198306 0  0.9835793759821283 0.2959904429627659 0  0.9485871899792008 0.3898392040778113 0  0.9041221277402692 0.4801208792199751 0  0.850779422774912 0.5655233746997008 0  0.7888375831216535 0.6451775197540325 0  0.7188327684206232 0.7183954442171907 0  0.6419224484576675 0.7845938552114546 0  0.5586490745187749 0.8430739792384349 0  0.4697142643801611 0.8930010762681757 0  0.3760304338322366 0.9341075219377541 0  0.2789529045022577 0.9660528029597115 0  0.178859152671645 0.9881805309006424 0  0.07715040239936896 1.000661468636039 0  -0.02541979604969719 1.003175016263124 0  -0.1277529356828785 0.9956073730152775 0  -0.2288161767166405 0.9783887008216995 0  -0.3275663663436006 0.9513799365115213 0  -0.4230366808128548 0.9147975889082662 0  -0.5142644386720167 0.8692773733612654 0  -0.6004235141512607 0.815015804586419 0  -0.6806288385336233 0.7527085331903607 0  -0.7540705500873861 0.6829883433857491 0  -0.8200619485488055 0.6062254613466284 0  -0.8777930894236217 0.5234822630139596 0  -0.926996415059841 0.435682015468905 0  -0.9668176352070227 0.3434179856815022 0  -0.9969789937428341 0.2478294948594589 0  -1.017349477819104 0.1497963681103573 0  -1.027624594264406 0.05018279578840548 0  -1.027631005564283 -0.04994925244788221 0  -1.017364917665666 -0.1495296725727163 0  -0.9973603345291049 -0.2475365264427256 0  -0.9668227154483994 -0.3432324092982388 0  -0.9270474638656387 -0.4353619499487357 0  -0.8779037178334699 -0.5232210900837178 0  -0.8201844548797772 -0.6058846288580075 0  -0.7541776353388221 -0.6824926990363814 0  -0.6806117177384101 -0.7521815852869435 0  -0.6002791438332883 -0.8143402712689461 0  -0.5143544156397359 -0.868776636631578 0  -0.4227953231022566 -0.9142668417184879 0  -0.3272979681996506 -0.9509322947146479 0  -0.2284712232762088 -0.9779938819458102 0  -0.1274571258749251 -0.9953241879170537 0  -0.02521766054528785 -1.003053517932522 0  0.07720604445056614 -1.00045491666605 0  0.1790815391761451 -0.9878834528567003 0  0.2790212580733953 -0.9657134879101887 0  0.3764383967857486 -0.933774938148021 0  0.4698265629593757 -0.8926778608063738 0  0.5587651530417286 -0.8427587141215096 0  0.6420078797388417 -0.7846309199190615 0  0.7189091742650739 -0.71845609175775 0  0.7887462601282792 -0.6450532108698924 0  0.8506279391724951 -0.565272549050011 0  0.9042217017450395 -0.4799542355828755 0  0.9489156710845817 -0.3898375418904019 0  0.9838396165473037 -0.2959008575262201 0  1.009170299800094 -0.1988087947004754 0  1.024508816312396 -0.09992834140112765 0  -2.449765319165442 4.920343357203961 0  -2.449746096328361 -4.912923139966454 0  4.912904748296264 2.449646521488587 0  4.920801273848859 -2.450949280648304 0  2.4476901291065 -4.898579354528178 0  2.442074128440004 4.902249000212365 0  -4.912911202722028 -2.449653712264465 0  -4.912914781528015 2.449657224552594 0  -1.749756006725952 4.914203635432177 0  -1.745488423680946 -4.917516392252551 0  4.92372980956934 1.745651973987537 0  4.912702250415248 -1.749644772875656 0  -4.912957039398813 -1.749351951292414 0  -4.913754447359531 1.749077824281062 0  1.747105374024933 4.908297955848419 0  1.748676629597873 -4.896862175470707 0  -1.149811516712419 4.912651928390468 0  -1.1305695426652 -4.92023764420754 0  -4.913551234723674 -1.149361756936595 0  -4.913384093812991 1.149159967573375 0  1.144742409247036 -4.91658603169864 0  1.149809641617763 4.912649994926351 0  4.913727597084662 1.147648326099714 0  4.92402495451948 -1.15326370487862 0  -0.5471732311545682 -4.914165464541815 0  -0.5469070436752348 4.922462373519191 0  -4.912987288140992 -0.5495047575651087 0  -4.913014097366815 0.5480535026186232 0  4.912391299550775 -0.5498384894934017 0  4.923405310797481 0.5464868393301366 0  0.5430032567623858 -4.901658747577632 0  0.551643867643648 4.919435037748917 0  -4.913540682317963 -3.049713190882473 0  4.920002116220318 3.047638292616086 0  4.913067242706383 -3.049712095742164 0  -4.914380831150888 3.04679337738015 0  3.056364074014708 -4.919006592673473 0  -3.049774449671842 -4.913053862827797 0  3.053317780869428 4.91510280955089 0  -3.049213476302059 4.913930544296663 0  -4.912358593275423 -0.04998725322044432 0  0.04515069831284529 -4.916145464223059 0  0.04960230338842678 4.92285113280259 0  4.919056070744126 -0.05136433797755102 0  3.546463474369135 -4.920165530839665 0  -3.5498179
[...]
<PointData  Vectors="f_374"> 
<DataArray  type="Float64"  Name="f_374"  NumberOfComponents="3" format="ascii">2.6559658580597370e-76 2.6559658580597370e-76 0.0000000000000000e+00  -2.8445085011135630e-76 2.8445085011135630e-76 0.0000000000000000e+00  -8.5659604778747416e-78 -8.5659604778747416e-78 0.0000000000000000e+00  3.0308186857302555e-76 -3.0308186857302555e-76 0.0000000000000000e+00  -9.5402754833743131e-01 -2.0301046134266417e-02 0.0000000000000000e+00  4.1625081641800650e-75 6.6092316463543715e-75 0.0000000000000000e+00  2.0857426161360098e-75 2.0877076862805987e-74 0.0000000000000000e+00  -3.3959275109019083e-75 6.7629265078005697e-75 0.0000000000000000e+00  3.9877479827239500e-72 6.6788952341450902e-72 0.0000000000000000e+00  5.2992068001464485e-71 1.3473722778281366e-70 0.0000000000000000e+00  -7.8755005293754464e-72 4.5514502163748932e-71 0.0000000000000000e+00  3.2150764949688589e-69 6.1787439457559162e-69 0.0000000000000000e+00  5.1251907332804105e-68 9.4293349079890904e-68 0.0000000000000000e+00  -3.0345903670289839e-68 1.4976070007897000e-67 0.0000000000000000e+00  1.2662656969528120e-67 3.9904329152038815e-67 0.0000000000000000e+00  1.2941342730900386e-68 8.7771763505440364e-67 0.0000000000000000e+00  5.3933446345269242e-64 8.8697057451099219e-64 0.0000000000000000e+00  4.7984582808224504e-65 2.4416447531093248e-63 0.0000000000000000e+00  1.3317318074632128e-62 2.2124048758351375e-62 0.0000000000000000e+00  7.9903194641517547e-63 8.3246641190873772e-62 0.0000000000000000e+00  6.8268916803591738e-61 1.1099839294853871e-60 0.0000000000000000e+00  3.9958875597778235e-60 7.0542642178658626e-60 0.0000000000000000e+00  -2.7963243211048319e-60 7.6639071054821763e-60 0.0000000000000000e+00  5.5599353795286960e-59 1.1438517345826407e-58 0.0000000000000000e+00  -1.7230983001269013e-59 1.1623109051457016e-58 0.0000000000000000e+00  -2.9385701569248650e-59 6.7975496152692797e-59 0.0000000000000000e+00  1.7621278664327281e-58 3.3291208908396751e-58 0.0000000000000000e+00  7.1354318998141746e-58 2.0995556706792715e-57 0.0000000000000000e+00  2.7895593057662317e-57 6.2739094096662694e-57 0.0000000000000000e+00  -3.3168293023745971e-57 5.6884526060186744e-57 0.0000000000000000e+00  -3.4245752775887147e-58 1.0926296984073175e-57 0.0000000000000000e+00  1.8542510034907103e-56 2.9600117011591607e-56 0.0000000000000000e+00  -1.3695957075880377e-56 3.5101803079591415e-56 0.0000000000000000e+00  1.1548729567008112e-56 2.9109071284494212e-56 0.0000000000000000e+00  8.4625011505116285e-56 2.1103394295374474e-55 0.0000000000000000e+00  -2.3835859391013866e-56 5.7406885853144797e-55 0.0000000000000000e+00  5.0284471393083281e-57 8.6856602248981444e-57 0.0000000000000000e+00  5.3489806337587415e-56 1.3894366444727664e-55 0.0000000000000000e+00  1.4937863512128500e-55 6.1911211846644514e-55 0.0000000000000000e+00  -2.1489852428693882e-55 3.4881878331004038e-55 0.0000000000000000e+00  9.4517214958787608e-55 1.7352722888504440e-54 0.0000000000000000e+00  -4.2163572290348934e-55 4.3577722972041973e-54 0.0000000000000000e+00  -2.1761035254470654e-55 2.6803253886244483e-54 0.0000000000000000e+00  -9.1813661557446829e-56 9.4319644861362006e-55 0.0000000000000000e+00  -1.0815819897207134e-55 1.8116305659414277e-55 0.0000000000000000e+00  2.6390575110352954e-54 5.2588974352346727e-54 0.0000000000000000e+00  -2.0626908606331299e-54 4.1219642022135573e-54 0.0000000000000000e+00  -6.8639094651513728e-55 8.0298920672152558e-55 0.0000000000000000e+00  -1.2589441523507289e-55 2.7060141276320818e-55 0.0000000000000000e+00  8.8704095828711097e-55 1.4502672432869672e-54 0.0000000000000000e+00  9.0196632774327419e-55 6.1610737749561215e-54 0.0000000000000000e+00  -1.0742931926573395e-54 5.8978870079264881e-54 0.0000000000000000e+00  4.9057981353447300e-55 4.6513166174222239e-54 0.0000000000000000e+00  1.8433622175820839e-56 5.7956823625997013e-54 0.0000000000000000e+00  2.8734563520296461e-55 6.1539301674517259e-54 0.0000000000000000e+00  -1.2013645061753104e-54 2.0455847963685374e-54 0.0000000000000000e+00  -6.1640159627272257e-55 1.4735289417275991e-53 0.0000000000000000e+00  4.2519140045011742e-54 7.4564265651931038e-54 0.0000000000000000e+00  -4.1427927706366226e-54 8.1139571454594514e-54 0.0000000000000000e+00  1.8319957070805271e-54 3.9477144344402320e-54 0.0000000000000000e+00  -7.0462322750281214e-55 9.5075261076929109e-54 0.0000000000000000e+00  1.2678620908677115e-54 9.3236051812797873e-54 0.0000000000000000e+00  -1.6092250434187239e-54 4.4094470897715757e-54 0.0000000000000000e+00  -8.8483559861580880e-55 2.4133752020147640e-54 0.0000000000000000e+00  3.1821576085091916e-55 1.2969649054603138e-54 0.0000000000000000e+00  2.5343479944435691e-55 2.5357416686991308e-54 0.0000000000000000e+00  -7.6562447329257876e-56 3.4917671224092609e-54 0.0000000000000000e+00  -6.8276897285167840e-55 1.4897796882223029e-54 0.0000000000000000e+00  2.2826071436920816e-55 4.3984170702798769e-55 0.0000000000000000e+00  -2.2229150584144499e-55 6.0529749786061309e-55 0.0000000000000000e+00  4.8345179288527355e-56 2.3919917640275979e-55 0.0000000000000000e+00  1.7937781728976303e-55 9.5011308252445141e-55 0.0000000000000000e+00  -3.1887187893520789e-55 5.3466037146911794e-55 0.0000000000000000e+00  -1.5390855878232014e-56 4.8442669187934048e-56 0.0000000000000000e+00  -1.1037794992516202e-57 1.1349515875149395e-56 0.0000000000000000e+00  6.5288227584287718e-57 2.3457682031073483e-56 0.0000000000000000e+00  -8.7265509757582117e-57 1.5146580852995457e-56 0.0000000000000000e+00  1.6902667224876858e-57 2.8626200894454770e-57 0.0000000000000000e+00  -1.2099178119482650e-57 2.7416687581933679e-57 0.0000000000000000e+00  5.0372480429353375e-57 7.7371106446328590e-57 0.0000000000000000e+00  -4.4239778712423312e-57 1.1311868815248726e-56 0.0000000000000000e+00  -1.7701530050577290e-58 9.4193738006824594e-58 0.0000000000000000e+00  -2.3380635094953473e-58 4.6838231648390971e-58 0.0000000000000000e+00  -7.7076691773236467e-61 8.8113485905289388e-59 0.0000000000000000e+00  -2.3960697106044343e-59 6.4533209415115664e-59 0.0000000000000000e+00  -6.9791042140426566e-60 2.5083376719080037e-59 0.0000000000000000e+00  -4.3162437295494193e-60 2.2433571482027744e-59 0.0000000000000000e+00  -3.0135934047245481e-60 7.2012471032662444e-60 0.0000000000000000e+00  -8.3878450654261892e-62 4.4443539731101515e-61 0.0000000000000000e+00  -1.0600717642578486e-61 2.2450031661497613e-61 0.0000000000000000e+00  -3.5402186199516336e-62 5.7080104767941890e-62 0.0000000000000000e+00  -3.8614864995296575e-64 6.7329325880101100e-64 0.0000000000000000e+00  -2.4045763333082102e-65 5.1906035088029420e-65 0.0000000000000000e+00  3.6651206603254729e-66 1.0354834638790973e-65 0.0000000000000000e+00  -4.7993765606215841e-66 9.2947391422613624e-66 0.0000000000000000e+00  -6.6426893994480553e-68 2.7755065600172721e-67 0.0000000000000000e+00  -7.7957986478221723e-68 1.2963135272973560e-67 0.0000000000000000e+00  -8.0101667813919463e-69 1.1772679870984135e-68 0.0000000000000000e+00  -5.6032383439088465e-70 9.5446479868659165e-70 0.0000000000000000e+00  -3.7630242266803229e-71 6.8320634810636229e-71 0.0000000000000000e+00  -1.8720240570432553e-72 3.2079934936262276e-72 0.0000000000000000e+00  -1.2152859663577208e-73 2.7287900177767496e-73 0.0000000000000000e+00  -4.4133085067398661e-75 1.2918119377461407e-74 0.0000000000000000e+00  -2.5459416988917401e-75 4.2430420252833711e-75 0.0000000000000000e+00  -9.7724899652225769e-76 3.5551867726949755e-76 0.0000000000000000e+00  -1.6202179659332578e-75 -2.3844746196779023e-76 0.0000000000000000e+00  -2.4516210241630845e-74 1.1567182777094053e-74 0.0000000000000000e+00  -3.6796782498497653e-74 1.5455998672649375e-75 0.0000000000000000e+00  -3.8881671739895994e-73 1.4289857417797922e-73 0.0000000000000000e+00  -1.0268558572218226e-71 6.2107702389320722e-72 0.0000000000000000e+00  -6.7628342921986473e-71 3.6885408994821324e-71 0.0000000000000000e+00  -1.0613119164402525e-70 3.8783350175744576e-72 0.0000000000000000e+00  -8.9234952781335139e-70 3.2881562207565555e-70 0.0000000000000000e+00  -2.1393951219734161e-68 1.2764976306068409e-68 0.0000000000000000e+00  -1.0285098911947131e-67 5.0653561715906417e-68 0.0000000000000000e+00  -1.0072086819396449e-67 -5.9648894175743216e-68 0.0000000000000000e+00  -3.1843794143617888e-66 1.7281050520426584e-66 0.0000000000000000e+00  -3.2066445572226072e-65 1.8105173903826119e-65 0.0000000000000000e+00  -5.3923037919248671e-65 4.9808749609960830e-66 0.0000000000000000e+00  -4.4548194066718163e-64 1.4280827435932749e-64 0.0000000000000000e+00  -7.0539364049203841e-63 4.2945737825951410e-63 0.0000000000000000e+00  -1.5120141419387596e-62 3.6876204232424593e-63 0.0000000000000000e+00  -8.4617221292981069e-62 1.9362594952043849e-62 0.0000000000000000e+00  -1.3685765827569349e-60 8.3610610166387682e-61 0.0000000000000000e+00  -2.4225967924450755e-60 3.3137407837654122e-61 0.0000000000000000e+00  -2.1294054201094177e-59 7.2494425531486535e-60 0.0000000000000000e+00  -2.4436222727689242e-58 1.4607820445478494e-58 0.0000000000000000e+00  -2.5702185412748175e-58 -9.1855082036829540e-59 0.0000000000000000e+00  -6.0297435621657405e-57 2.7119852583867633e-57 0.0000000000000000e+00  -2.5072160430846662e-56 1.2052040066380009e-56 0.0000000000000000e+00  -5.5459195030029338e-56 -8.3917459082698991e-57 0.0000000000000000e+00  -1.0240036297511262e-54 6.2833131730510392e-55 0.0000000000000000e+00  -1.1137319244598161e-54 -3.3502576841415142e-55 0.0000000000000000e+00  -2.4332045385023809e-53 1.2271250312543651e-53 0.0000000000000000e+00  -6.6525139950225394e-53 2.8817402075471545e-53 0.0000000000000000e+00  -4.3810421432249438e-52 1.1811661754630321e-52 0.0000000000000000e+00  -2.6983315392974904e-51 1.5978338234549362e-51 0.0000000000000000e+00  -7.6631874513932871e-51 -1.9977659708914474e-52 0.0000000000000000e+00  -7.2834218446048940e-50 4.4012507150571798e-50 0.0000000000000000e+00  -1.6149666676113703e-49 -1.4006447011237598e-50 0.0000000000000000e+00  -1.7474616276866046e-48 9.6377615314006285e-49 0.0000000000000000e+00  -4.3392473134874792e-48 -1.9161222946754167e-49 0.0000000000000000e+00  -2.0316152935094318e-47 1.0552780942748645e-47 0.0000000000000000e+00  -1.1060834895441319e-46 1.8056548613254525e-47 0.0000000000000000e+00  -1.0281096833718554e-46 2.3311566021717522e-47 0.0000000000000000e+00  -1.2479000238030612e-45 4.9770465627583373e-46 0.0000000000000000e+00  -8.6768228832642814e-46 -5.3655664873264004e-46 0.0000000000000000e+00  -1.3515820633578606e-44 7.6242416164287685e-45 0.0000000000000000e+00  -5.8111051380583379e-44 1.2978273597532686e-44 0.0000000000000000e+00  -3.6054031114099931e-44 -1.6501081600750084e-44 0.0000000000000000e+00  -1.1463625931693273e-43 6.1251914145091875e-44 0.0000000000000000e+00  -8.4267066377974476e-43 2.1819059222112116e-43 0.0000000000000000e+00  -1.9308577595606802e-42 1.8609490661272191e-43 0.0000000000000000e+00  -2.5135530328131127e-42 5.7460618018312489e-44 0.0000000000000000e+00  -2.0162335751880512e-42 -1.8350098877025731e-43 0.0000000000000000e+00  -8.6277842964505181e-43 -2.3603759719382787e-43 0.0000000000000000e+00  -1.1362460850399660e-43 -6.0743634510412170e-44 0.0000000000000000e+00  -3.8608790699885743e-44 1.7432784044254823e-44 0.0000000000000000e+00  -6.3294757957314636e-44 -1.0227132415017541e-44 0.0000000000000000e+00  -1.5073075359138959e-44 -7.4314303874319400e-45 0.0000000000000000e+00  -9.9273179008023480e-46 5.3585748690765120e-46 0.0000000000000000e+00  -1.4114155788515945e-45 -5.1019270262450209e-46 0.0000000000000000e+00  -1.1248303431593132e-46 -2.7052795626674440e-47 0.0000000000000000e+00  -1.0218491279212768e-46 -2.0379371481326258e-47 0.0000000000000000e+00  -1.8806128600184913e-47 -1.1378234969577299e-47 0.0000000000000000e+00  -4.0837782071724185e-48 1.9064751142122900e-49 0.0000000000000000e+00  -1.5038127133302757e-48 -8.9231106223206773e-49 0.0000000000000000e+00  -1.6290746495573862e-49 2.3320725977818639e-50 0.0000000000000000e+00  -7.5437002945800121e-50 -4.2281658069412236e-50 0.0000000000000000e+00  -8.2350413754485852e-51 6.0800534802654794e-52 0.0000000000000000e+00  -3.1815351395406894e-51 -1.7115058977482466e-51 0.0000000000000000e+00  -5.1267471088650721e-52 -1.1050694422016275e-52 0.0000000000000000e+00  -8.2790989055037181e-53 -3.4150784372726339e-53 0.0000000000000000e+00  -2.6890941810814443e-53 -1.2701086163504537e-53 0.0000000000000000e+00  -1.1905062090405042e-54 3.1286547190156217e-55 0.0000000000000000e+00  -1.0776243923501116e-54 -6.5892887733376513e-55 0.0000000000000000e+00  -5.1348923051146482e-56 8.0567785813976856e-57 0.0000000000000000e+00  -2.3630266593800204e-56 -1.2857583701088659e-56 0.0000000000000000e+00  -4.8728552283026325e-57 -2.4546298198740081e-57 0.0000000000000000e+00  -2.4421802120445328e-58 8.3228099251607319e-59 0.0000000000000000e+00  -2.1830664006928341e-58 -1.2966278095503003e-58 0.0000000000000000e+00  -2.0018716627354303e-59 -6.0156118219372100e-60 0.0000000000000000e+00  -2.3809130420171211e-60 -3.3229115056690542e-61 0.0000000000000000e+00  -1.3036530040578496e-60 -7.4585720358376005e-61 0.0000000000000000e+00  -7.7237632671260537e-62 -2.1074337327603732e-62 0.0000000000000000e+00  -1.3639618392948353e-62 -2.8791786556059248e-63 0.0000000000000000e+00  -6.6948436124540182e-63 -3.7281540207321443e-63 0.0000000000000000e+00  -4.8075262648003579e-64 -1.7941708817262838e-64 0.0000000000000000e+00  -4.3625807145517501e-65 9.4476710179722957e-67 0.0000000000000000e+00  -2.9686072900356094e-65 -1.6413952187490720e-65 0.0000000000000000e+00  -3.4355937180683159e-66 -1.9666549398402602e-66 0.0000000000000000e+00  -8.9341924754481775e-68 5.4204214554609392e-68 0.0000000000000000e+00  -8.6775766157546734e-68 -4.1382581840544531e-68 0.0000000000000000e+00  -2.0794935701998849e-68 -1.2743425375822098e-68 0.0000000000000000e+00  -1.1364825244904389e-69 -5.0982179570086622e-70 0.0000000000000000e+00  -8.7842666122211030e-71 1.3695913209873849e-71 0.0000000000000000e+00  -6.9309353009759578e-71 -3.6365456229169509e-71 0.0000000000000000e+00  -1.2518905077584664e-71 -7.6265331436219292e-72 0.0000000000000000e+00  -5.9927606672377180e-73 -2.7414929818284508e-73 0.0000000000000000e+00  -3.9209494755143035e-74 7.3986725494268654e-75 0.0000000000000000e+00  -3.1604204905623315e-74 -1.4756078398351302e-74 0.0000000000000000e+00  -6.5959413373797132e-75 -3.3524335468057505e-75 0.0000000000000000e+00  -7.1813815570807390e-76 -3.1058603845305954e-76 0.0000000000000000e+00  -8.5460844287860916e-76 -1.6233567737175977e-75 0.0000000000000000e+00  -4.7697435955857812e-75 -1.3949260375253032e-74 0.0000000000000000e+00  4.3535984350960294e-75 -8.2971739762387293e-75 0.0000000000000000e+00  -1.6242145130533534e-73 -3.4317283672821589e-73 0.0000000000000000e+00  -9.2444364955429748e-71 -1.0104818462950509e-70 0.0000000000000000e+00  -7.4657672416763993e-70 -1.3211897932744836e-69 0.0000000000000000e+00  -1.0914751167456765e-69 -3.6571295174284850e-69 0.0000000000000000e+00  -7.7058654592678735e-68 -1.7160351585013146e-67 0.0000000000000000e+00  -6.4769478704590693e-68 -3.2644129190367340e-67 0.0000000000000000e+00  -6.7306275319850738e-66 -1.3549231865190140e-65 0.0000000000000000e+00  -4.4729613652519747e-66 -2.1353801358832996e-65 0.0000000000000000e+00  -8.9682144103471206e-65 -1.5655565612246496e-64 0.0000000000000000e+00  1.7003929288012068e-65 -2.1019019191094073e-64 0.0000000000000000e+00  -4.2201402857296560e-62 -6.4449034644986086e-62 0.0000000000000000e+00  -6.8967623753271296e-62 -1.7282494264432609e-61 0.0000000000000000e+00  -2.2893505062349229e-62 -2.7312818033696067e-61 0.0000000000000000e+00  -5.6476881710761383e-60 -1.1428970555623504e-59 0.0000000000000000e+00  4.6749537631690568e-60 -1.4958526704073949e-59 0.0000000000000000e+00  -2.8464611712662075e-59 -4.7856821414077472e-59 0.0000000000000000e+00  8.6410152521858107e-60 -6.0744365262283926e-59 0.0000000000000000e+00  2.2738730385251579e-59 -3.9399456316073280e-59 0.0000000000000000e+00  -5.5128671253103952e-58 -9.0250192725529335e-58 0.0000000000000000e+00  -1.3471871742647660e-59 -1.2604336382662900e-57 0.0000000000000000e+00  -4.5229437458190029e-57 -1.1703281446058834e-56 0.0000000000000000e+00  5.5943816010571151e-57 -8.5906159665383711e-57 0.0000000000000000e+00  -5.1887259099335046e-57 -7.4157876890969025e-57 0.0000000000000000e+00  -1.7164245638876767e-56 -3.7992429006561256e-56 0.0000000000000000e+00  2.0956537768505569e-56 -4.0396816811231598e-56 0.0000000000000000e+00  -4.8482578945753638e-57 -9.2734985687406457e-57 0.0000000000000000e+00  -7.8621968191250366e-56 -2.0427956119751097e-55 0.0000000000000000e+00  6.1257555797197957e-56 -5.0686074949860730e-55 0.0000000000000000e+00  -4.1413106655892313e-55 -7.3177785038106252e-55 0.0000000000000000e+00  -4.7884029574989160e-56 -1.8366793954097005e-54 0.0000000000000000e+00  1.5985349943617569e-55 -5.7179796409104459e-55 0.0000000000000000e+00  -4.9938459467742646e-55 -1.6829749586946841e-54 0.0000000000000000e+00  -2.1684731382612304e-54 -7.1009036765346048e-54 0.0000000000000000e+00  2.4761311697272794e-54 -6.0482372207607681e-54 0.0000000000000000e+00  -6.4534223300337700e-55 -2.3977695332040443e-54 0.0000000000000000e+00  5.0903823774347861e-55 -2.8145476695071738e-54 0.0000000000000000e+00  1.2221466086756009e-55 -1.4240821945428842e-54 0.0000000000000000e+00  -2.0856004860010710e-54 -3.4860754904022523e-54 0.0000000000000000e+00  5.4320812749221533e-55 -8.2261369283596761e-54 0.0000000000000000e+00  -3.7574991479902923e-54 -1.3590469784931021e-53 0.0000000000000000e+00  4.4784299695891750e-54 -7.6876262557422143e-54 0.0000000000000000e+00  1.9373424845198599e-55 -6.4982224107045980e-55 0.0000000000000000e+00  -4.5798221346649836e-54 -8.0305477602963526e-54 0.0000000000000000e+00  4.6017447676271821e-54 -7.8569861456166786e-54 0.0000000000000000e+00  -1.5842197287133244e-56 -1.3353294040214885e-55 0.0000000000000000e+00  1.0621418209230482e-56 -2.7691043561857176e-55 0.0000000000000000e+00  2.1033970875211682e-56 -9.8799803635530056e-56 0.0000000000000000e+00  -4.9605642556319605e-54 -9.3501670570922753e-54 0.0000000000000000e+00  5.2923298941383372e-54 -9.4224428942221688e-54 0.0000000000000000e+00  5.4120392571212567e-56 -1.0538556214612041e-55 0.0000000000000000e+00  -1.3660821018133132e-56 -6.2010312412732624e-56 0.0000000000000000e+00  -4.7702147282202750e-55 -9.0220887625397300e-55 0.0000000000000000e+00  -5.5513069536886932e-54 -1.0011225235785668e-53 0.0000000000000000e+00  4.3031874922452370e-54 -1.0524399540441950e-53 0.0000000000000000e+00  -2.9181871056211046e-54 -7.9610710547972888e-54 0.0000000000000000e+00  2.3334197784448763e-54 -8.5714629068669815e-54 0.0000000000000000e+00  2.1512859445086499e-54 -3.3281737489460414e-54 0.0000000000000000e+00  -5.2095422827982223e-55 -1.4742851178421380e-54 0.0000000000000000e+00  8.0217870920013272e-55 -1.5835047083650846e-54 0.0000000000000000e+00  -4.7243158996310167e-55 -9.7766946131057479e-55 0.0000000000000000e+00  4.9294556016345332e-55 -8.9198935373686443e-55 0.0000000000000000e+00  -1.5071569954765571e-56 -2.6720794927568423e-56 0.0000000000000000e+00  -4.3045739451439217e-56 -1.7161784270914448e-55 0.0000000000000000e+00  4.0330047611446304e-56 -1.7527826676513223e-55 0.0000000000000000e+00  4.6718173275157326e-57 -6.9106454141904662e-56 0.0000000000000000e+00  -2.6568418581913636e-56 -6.5035014717343728e-56 0.0000000000000000e+00  3.1834904278859731e-56 -6.4614749413607947e-56 0.0000000000000000e+00  -2.7703657454826971e-57 -2.8691699134869619e-56 0.0000000000000000e+00  1.2590750727078095e-56 -3.0211343353238494e-56 0.0000000000000000e+00  9.7500099608736368e-58 -2.4137887470102119e-57 0.0000000000000000e+00  -4.2613659007913537e-57 -7.5747913516977953e-57 0.0000000000000000e+00  4.1447601922525863e-57 -1.1068107054725137e-56 0.0000000000000000e+00  3.0476266685393827e-58 -1.0257814879815748e-57 0.0000000000000000e+00  1.4043562682149798e-58 -5.046447