<?xml version="1.0"?>
<VTKFile type="UnstructuredGrid"  version="0.1"  >
<UnstructuredGrid>
<Piece  NumberOfPoints="11902" NumberOfCells="23402">
<Points>
<DataArray  type="Float64"  NumberOfComponents="3"  format="ascii">-5 -5 0  5 -5 0  5 5 0  -5 5 0  1.265109057194955 0.001266451646062672 0  -4.9 -5 0  -4.8 -5 0  -4.7 -5 0  -4.6 -5 0  -4.5 -5 0  -4.4 -5 0  -4.3 -5 0  -4.2 -5 0  -4.1 -5 0  -4 -5 0  -3.9 -5 0  -3.8 -5 0  -3.7 -5 0  -3.6 -5 0  -3.5 -5 0  -3.4 -5 0  -3.3 -5 0  -3.2 -5 0  -3.1 -5 0  -3 -5 0  -2.9 -5 0  -2.8 -5 0  -2.7 -5 0  -2.6 -5 0  -2.5 -5 0  -2.4 -5 0  -2.3 -5 0  -2.2 -5 0  -2.1 -5 0  -2 -5 0  -1.9 -5 0  -1.8 -5 0  -1.7 -5 0  -1.6 -5 0  -1.5 -5 0  -1.4 -5 0  -1.3 -5 0  -1.2 -5 0  -1.1 -5 0  -1 -5 0  -0.9000000000000004 -5 0  -0.7999999999999998 -5 0  -0.7000000000000002 -5 0  -0.5999999999999996 -5 0  -0.5 -5 0  -0.4000000000000004 -5 0  -0.2999999999999998 -5 0  -0.2000000000000002 -5 0  -0.09999999999999964 -5 0  0 -5 0  0.09999999999999964 -5 0  0.2000000000000002 -5 0  0.2999999999999998 -5 0  0.4000000000000004 -5 0  0.5 -5 0  0.5999999999999996 -5 0  0.7000000000000002 -5 0  0.7999999999999998 -5 0  0.9000000000000004 -5 0  1 -5 0  1.1 -5 0  1.2 -5 0  1.3 -5 0  1.4 -5 0  1.5 -5 0  1.6 -5 0  1.7 -5 0  1.8 -5 0  1.9 -5 0  2 -5 0  2.1 -5 0  2.2 -5 0  2.3 -5 0  2.4 -5 0  2.5 -5 0  2.6 -5 0  2.7 -5 0  2.8 -5 0  2.9 -5 0  3 -5 0  3.1 -5 0  3.199999999999999 -5 0  3.300000000000001 -5 0  3.4 -5 0  3.5 -5 0  3.6 -5 0  3.699999999999999 -5 0  3.800000000000001 -5 0  3.9 -5 0  4 -5 0  4.1 -5 0  4.199999999999999 -5 0  4.300000000000001 -5 0  4.4 -5 0  4.5 -5 0  4.6 -5 0  4.699999999999999 -5 0  4.800000000000001 -5 0  4.9 -5 0  5 -4.9 0  5 -4.8 0  5 -4.7 0  5 -4.6 0  5 -4.5 0  5 -4.4 0  5 -4.3 0  5 -4.2 0  5 -4.1 0  5 -4 0  5 -3.9 0  5 -3.8 0  5 -3.7 0  5 -3.6 0  5 -3.5 0  5 -3.4 0  5 -3.3 0  5 -3.2 0  5 -3.1 0  5 -3 0  5 -2.9 0  5 -2.8 0  5 -2.7 0  5 -2.6 0  5 -2.5 0  5 -2.4 0  5 -2.3 0  5 -2.2 0  5 -2.1 0  5 -2 0  5 -1.9 0  5 -1.8 0  5 -1.7 0  5 -1.6 0  5 -1.5 0  5 -1.4 0  5 -1.3 0  5 -1.2 0  5 -1.1 0  5 -1 0  5 -0.9000000000000004 0  5 -0.7999999999999998 0  5 -0.7000000000000002 0  5 -0.5999999999999996 0  5 -0.5 0  5 -0.4000000000000004 0  5 -0.2999999999999998 0  5 -0.2000000000000002 0  5 -0.09999999999999964 0  5 0 0  5 0.09999999999999964 0  5 0.2000000000000002 0  5 0.2999999999999998 0  5 0.4000000000000004 0  5 0.5 0  5 0.5999999999999996 0  5 0.7000000000000002 0  5 0.7999999999999998 0  5 0.9000000000000004 0  5 1 0  5 1.1 0  5 1.2 0  5 1.3 0  5 1.4 0  5 1.5 0  5 1.6 0  5 1.7 0  5 1.8 0  5 1.9 0  5 2 0  5 2.1 0  5 2.2 0  5 2.3 0  5 2.4 0  5 2.5 0  5 2.6 0  5 2.7 0  5 2.8 0  5 2.9 0  5 3 0  5 3.1 0  5 3.199999999999999 0  5 3.300000000000001 0  5 3.4 0  5 3.5 0  5 3.6 0  5 3.699999999999999 0  5 3.800000000000001 0  5 3.9 0  5 4 0  5 4.1 0  5 4.199999999999999 0  5 4.300000000000001 0  5 4.4 0  5 4.5 0  5 4.6 0  5 4.699999999999999 0  5 4.800000000000001 0  5 4.9 0  4.9 5 0  4.8 5 0  4.7 5 0  4.6 5 0  4.5 5 0  4.4 5 0  4.3 5 0  4.2 5 0  4.1 5 0  4 5 0  3.9 5 0  3.8 5 0  3.7 5 0  3.6 5 0  3.5 5 0  3.4 5 0  3.3 5 0  3.2 5 0  3.1 5 0  3 5 0  2.9 5 0  2.8 5 0  2.7 5 0  2.6 5 0  2.5 5 0  2.4 5 0  2.3 5 0  2.2 5 0  2.1 5 0  2 5 0  1.9 5 0  1.8 5 0  1.7 5 0  1.6 5 0  1.5 5 0  1.4 5 0  1.3 5 0  1.2 5 0  1.1 5 0  1 5 0  0.9000000000000004 5 0  0.7999999999999998 5 0  0.7000000000000002 5 0  0.5999999999999996 5 0  0.5 5 0  0.4000000000000004 5 0  0.2999999999999998 5 0  0.2000000000000002 5 0  0.09999999999999964 5 0  0 5 0  -0.09999999999999964 5 0  -0.2000000000000002 5 0  -0.2999999999999998 5 0  -0.4000000000000004 5 0  -0.5 5 0  -0.5999999999999996 5 0  -0.7000000000000002 5 0  -0.7999999999999998 5 0  -0.9000000000000004 5 0  -1 5 0  -1.1 5 0  -1.2 5 0  -1.3 5 0  -1.4 5 0  -1.5 5 0  -1.6 5 0  -1.7 5 0  -1.8 5 0  -1.9 5 0  -2 5 0  -2.1 5 0  -2.2 5 0  -2.3 5 0  -2.4 5 0  -2.5 5 0  -2.6 5 0  -2.7 5 0  -2.8 5 0  -2.9 5 0  -3 5 0  -3.1 5 0  -3.199999999999999 5 0  -3.300000000000001 5 0  -3.4 5 0  -3.5 5 0  -3.6 5 0  -3.699999999999999 5 0  -3.800000000000001 5 0  -3.9 5 0  -4 5 0  -4.1 5 0  -4.199999999999999 5 0  -4.300000000000001 5 0  -4.4 5 0  -4.5 5 0  -4.6 5 0  -4.699999999999999 5 0  -4.800000000000001 5 0  -4.9 5 0  -5 4.9 0  -5 4.8 0  -5 4.7 0  -5 4.6 0  -5 4.5 0  -5 4.4 0  -5 4.3 0  -5 4.2 0  -5 4.1 0  -5 4 0  -5 3.9 0  -5 3.8 0  -5 3.7 0  -5 3.6 0  -5 3.5 0  -5 3.4 0  -5 3.3 0  -5 3.2 0  -5 3.1 0  -5 3 0  -5 2.9 0  -5 2.8 0  -5 2.7 0  -5 2.6 0  -5 2.5 0  -5 2.4 0  -5 2.3 0  -5 2.2 0  -5 2.1 0  -5 2 0  -5 1.9 0  -5 1.8 0  -5 1.7 0  -5 1.6 0  -5 1.5 0  -5 1.4 0  -5 1.3 0  -5 1.2 0  -5 1.1 0  -5 1 0  -5 0.9000000000000004 0  -5 0.7999999999999998 0  -5 0.7000000000000002 0  -5 0.5999999999999996 0  -5 0.5 0  -5 0.4000000000000004 0  -5 0.2999999999999998 0  -5 0.2000000000000002 0  -5 0.09999999999999964 0  -5 0 0  -5 -0.09999999999999964 0  -5 -0.2000000000000002 0  -5 -0.2999999999999998 0  -5 -0.4000000000000004 0  -5 -0.5 0  -5 -0.5999999999999996 0  -5 -0.7000000000000002 0  -5 -0.7999999999999998 0  -5 -0.9000000000000004 0  -5 -1 0  -5 -1.1 0  -5 -1.2 0  -5 -1.3 0  -5 -1.4 0  -5 -1.5 0  -5 -1.6 0  -5 -1.7 0  -5 -1.8 0  -5 -1.9 0  -5 -2 0  -5 -2.1 0  -5 -2.2 0  -5 -2.3 0  -5 -2.4 0  -5 -2.5 0  -5 -2.6 0  -5 -2.7 0  -5 -2.8 0  -5 -2.9 0  -5 -3 0  -5 -3.1 0  -5 -3.199999999999999 0  -5 -3.300000000000001 0  -5 -3.4 0  -5 -3.5 0  -5 -3.6 0  -5 -3.699999999999999 0  -5 -3.800000000000001 0  -5 -3.9 0  -5 -4 0  -5 -4.1 0  -5 -4.199999999999999 0  -5 -4.300000000000001 0  -5 -4.4 0  -5 -4.5 0  -5 -4.6 0  -5 -4.699999999999999 0  -5 -4.800000000000001 0  -5 -4.9 0  1.257119583245178 0.09270655417818818 0  1.234935680616446 0.1904905702480698 0  1.201039519059609 0.2873447917797939 0  1.158361338094577 0.3758185325278954 0  1.09959033968717 0.4670133386729227 0  1.032809042097942 0.5503249408693001 0  0.954264761681783 0.6308933432975298 0  0.8669824345741677 0.7057851320191362 0  0.7751565026819079 0.7709233981726578 0  0.6734336213864566 0.8283937157965563 0  0.5597962417551011 0.8806331065804941 0  0.4460266505778633 0.9256877437915507 0  0.3357237996031314 0.9571687855537734 0  0.2088134737421363 0.9798950524187318 0  0.0872810804892101 0.9981967213829404 0  -0.0261825845855463 1.001796106100079 0  -0.1438551602470067 0.9882229157810826 0  -0.274324056638875 0.9681646087250386 0  -0.3946740916869885 0.9439233928490069 0  -0.5038956401862138 0.9089720449823933 0  -0.6133492937167793 0.8625876961434006 0  -0.7152557391274745 0.8073764697073447 0  -0.8096171572253978 0.7430706466199984 0  -0.9013120261695234 0.6692914588060156 0  -0.9880631778109642 0.5888657052772608 0  -1.063083823357101 0.5070406714270262 0  -1.125380421155271 0.422870262696258 0  -1.180997333798607 0.3285795537332543 0  -1.218234600672383 0.2421414795836523 0  -1.242511749403026 0.1485806157684524 0  -1.252661211422404 0.05279338326686719 0  -1.252599068310903 -0.05048473766947873 0  -1.242363369763289 -0.1455377784514438 0  -1.217873101906485 -0.2359223163801628 0  -1.17547325050612 -0.3314036200823601 0  -1.125676877710245 -0.4239940011095955 0  -1.065326835685845 -0.5068282324748532 0  -0.9906502487986194 -0.5878849984974974 0  -0.9044986228585896 -0.6672668336226217 0  -0.8137935882124951 -0.7384628091228643 0  -0.7186631059072316 -0.7989732592213221 0  -0.6141321077241716 -0.8524179606877853 0  -0.4978369171911475 -0.9022004499392269 0  -0.3855635898550321 -0.9420906170233968 0  -0.2710064200974073 -0.9680318371400723 0  -0.1420680363047718 -0.9883037327257842 0  -0.02745564717739179 -1.001028661666223 0  0.08551190376968931 -0.9936335235229807 0  0.2156015241530762 -0.9755800215858781 0  0.3387603153462359 -0.95526283881222 0  0.4502779118993585 -0.9243513319474778 0  0.562631310563187 -0.879842356249471 0  0.6747718229773843 -0.8281886384834699 0  0.7748673737059122 -0.7721713306475769 0  0.8659296067118151 -0.7075990662758513 0  0.9515988162297622 -0.6318103682871389 0  1.03046102178949 -0.5488317275595862 0  1.101467349733288 -0.4650887398672786 0  1.159272923047632 -0.376043040650167 0  1.202887075351595 -0.2854305171889503 0  1.235676322963231 -0.1899063157026049 0  1.257535985616997 -0.09289323875118041 0  -2.448515303015337 4.918032451605073 0  -2.448384995434811 -4.910403115814713 0  4.910323930882575 2.44782939584551 0  4.918459287770774 -2.449297153526204 0  2.446106674231324 -4.895618982942727 0  2.440541926406621 4.899384957393277 0  -4.910351257711571 -2.447856560791503 0  -4.910348575373229 2.447860759227875 0  -1.748467540407062 4.910883476285813 0  -1.744255777069206 -4.914329499072871 0  4.920475248788321 1.744010456979948 0  4.908986547399357 -1.747763288556103 0  -4.909281627373089 -1.747498247981454 0  -4.910105489454723 1.747244137792216 0  1.745736707309012 4.904729836539726 0  1.74714381475504 -4.892857099883448 0  -1.148788232179005 4.908638289291505 0  -1.12964947180488 -4.916568963938575 0  -4.908956988517832 -1.14783875081692 0  -4.908774864379757 1.147639557431036 0  1.143785844969922 -4.912745570287059 0  1.148797680248213 4.908624276805713 0  4.909096108797582 1.146113377058018 0  4.919956209124058 -1.151906185381893 0  -0.5466407185082752 -4.909811966630701 0  -0.5464267103174405 4.918517004018468 0  -4.907655587892707 -0.5486589379181691 0  -4.907679576754436 0.5472173673802462 0  4.906971483325987 -0.5489768759948409 0  4.918663928493696 0.5457402923549044 0  0.5424204411445763 -4.896657512095365 0  0.5511537496820993 4.915331767183715 0  -4.91181150173681 -3.048225985447395 0  4.918388251366616 3.046246468874207 0  4.91131872510037 -3.048200821788619 0  -4.912659938816405 3.045318321152746 0  3.055246666672844 -4.917309800241081 0  -3.048573249825118 -4.911240110416627 0  3.052141863198402 4.913319371409839 0  -3.048019516192287 4.912130785448117 0  -4.906751011245604 -0.04990268247876661 0  0.04511808272899545 -4.911760272066457 0  0.04956490026748094 4.918804895556928 0  4.913827230794161 -0.05128552268400279 0  3.545576636027595 -4.918975979764922 0  -3.548853420992867
[...]
<PointData  Vectors="f_6650"> 
<DataArray  type="Float64"  Name="f_6650"  NumberOfComponents="3" format="ascii">1.6780788853210922e-40 1.2523055804466338e-40 0.0000000000000000e+00  -1.1130121750804393e-40 9.1258718179277325e-41 0.0000000000000000e+00  -3.7692774195996312e-41 -1.2718083102260513e-41 0.0000000000000000e+00  1.3452221699891403e-40 -1.1935453515004022e-40 0.0000000000000000e+00  1.0843319727659967e+01 -3.7611723450344608e-03 0.0000000000000000e+00  -3.0354245716105100e-40 -2.3216977465228612e-40 0.0000000000000000e+00  6.1847365520612612e-40 3.8342688591027184e-40 0.0000000000000000e+00  -1.9459919673398232e-39 -1.2658204164372109e-39 0.0000000000000000e+00  -4.7919808392011452e-39 -4.3419734218194296e-39 0.0000000000000000e+00  1.4019996592239677e-39 2.8545798716811066e-39 0.0000000000000000e+00  -1.0264999612139181e-37 -6.9404784147089865e-38 0.0000000000000000e+00  1.4216416765231223e-37 8.8457405696369428e-38 0.0000000000000000e+00  -1.6678724127064496e-36 -1.5311621046808558e-36 0.0000000000000000e+00  1.4079585554214588e-35 1.3847564891233434e-35 0.0000000000000000e+00  -4.5138299355155030e-35 -4.7716756196690878e-35 0.0000000000000000e+00  6.6139792540253974e-35 9.0616153686682047e-35 0.0000000000000000e+00  -1.0200503291545662e-34 -1.8915036271966952e-34 0.0000000000000000e+00  -6.2504378598727918e-34 -7.0546236548006870e-34 0.0000000000000000e+00  2.3824414751495151e-33 2.9869910221141148e-33 0.0000000000000000e+00  -4.5236693869105126e-33 -7.7705756937615896e-33 0.0000000000000000e+00  3.1930756446429852e-32 4.7469895004835245e-32 0.0000000000000000e+00  -8.8562168884797848e-32 -1.2727759084556784e-31 0.0000000000000000e+00  -8.2787672753848771e-32 -7.1135888830992607e-32 0.0000000000000000e+00  6.1834366266420598e-31 6.0044883869069428e-31 0.0000000000000000e+00  7.7790889422172978e-32 3.7070743141650806e-31 0.0000000000000000e+00  -1.3887633024866036e-31 5.8356724523813072e-31 0.0000000000000000e+00  -8.2250180855242082e-31 -2.0311910469023583e-30 0.0000000000000000e+00  1.3923457272970066e-30 9.0430047459076553e-30 0.0000000000000000e+00  -6.3658954541722637e-30 -2.3632973199535379e-29 0.0000000000000000e+00  -4.2214209833554246e-30 -1.6635385926563559e-29 0.0000000000000000e+00  3.9987846420228615e-29 1.1938533762661682e-28 0.0000000000000000e+00  1.1612952062735284e-29 4.3609732661006475e-29 0.0000000000000000e+00  -1.5084820917209745e-30 -3.2411076214665359e-30 0.0000000000000000e+00  -2.1739056024597742e-29 -5.3948206759829230e-29 0.0000000000000000e+00  -5.0937608741094840e-29 6.9505528879081099e-30 0.0000000000000000e+00  -3.0257953477762033e-29 -2.7612425112485966e-28 0.0000000000000000e+00  -3.8122500413586861e-29 -2.3855860973330481e-28 0.0000000000000000e+00  -3.1468933268983101e-30 -5.6371678371990008e-29 0.0000000000000000e+00  6.3273796801658989e-29 4.4440955998901351e-28 0.0000000000000000e+00  9.1173131142167110e-29 6.3917163105703804e-28 0.0000000000000000e+00  9.9522983603781815e-29 5.7604979471072125e-28 0.0000000000000000e+00  3.6573201801609927e-29 -1.3588330609623513e-28 0.0000000000000000e+00  4.4488123736474721e-29 1.0276042413168126e-30 0.0000000000000000e+00  7.3222115673527801e-29 3.9219046069120513e-28 0.0000000000000000e+00  1.2638292898198209e-29 -4.9656779066028684e-29 0.0000000000000000e+00  -1.5304326001849466e-28 -9.8462860739727310e-28 0.0000000000000000e+00  -7.5055265512806719e-29 -7.4109450682344692e-28 0.0000000000000000e+00  6.8293618263083595e-29 6.1205193871486954e-28 0.0000000000000000e+00  5.5926623902720634e-30 -9.7087492067663197e-28 0.0000000000000000e+00  -6.3445841638829197e-29 -2.9561975599295623e-28 0.0000000000000000e+00  -1.6018684991104355e-28 5.3798298733868363e-29 0.0000000000000000e+00  -1.7231225657855891e-28 -2.2728113619931381e-28 0.0000000000000000e+00  -1.1733700330911407e-28 -1.4664234520350050e-28 0.0000000000000000e+00  -2.2114349534008795e-29 5.4575085817292310e-28 0.0000000000000000e+00  -1.1524701993879003e-29 6.7897795196028402e-28 0.0000000000000000e+00  -4.7696634973472404e-29 6.1933354895429355e-29 0.0000000000000000e+00  -9.5959680171195005e-29 1.3725960012503872e-29 0.0000000000000000e+00  -1.1028124604807999e-28 -3.6449071643197368e-28 0.0000000000000000e+00  -9.3859640290079967e-29 -1.6825753098905057e-28 0.0000000000000000e+00  -1.1472497111378701e-28 -3.0345351199104690e-28 0.0000000000000000e+00  -1.6775743875190262e-28 -4.3547039643194005e-28 0.0000000000000000e+00  -1.6465001696964095e-28 -4.5729666095483487e-28 0.0000000000000000e+00  -7.9461762670044420e-29 -7.3878344068591187e-29 0.0000000000000000e+00  -3.9038594734899606e-29 2.2064093688891422e-28 0.0000000000000000e+00  3.3749757870947242e-30 1.4309317574667908e-28 0.0000000000000000e+00  9.8818084444449574e-29 1.2998994414700475e-28 0.0000000000000000e+00  6.7483933160937233e-29 2.8495985931355107e-28 0.0000000000000000e+00  4.1292844107085786e-29 1.0398706345732201e-28 0.0000000000000000e+00  8.0999756948069040e-30 -2.2733290725570833e-28 0.0000000000000000e+00  -4.1539530519113291e-29 -1.7028132046132801e-28 0.0000000000000000e+00  -2.9655831723896606e-29 1.2400933040528347e-28 0.0000000000000000e+00  -8.8077145436290791e-29 1.1420366984005710e-28 0.0000000000000000e+00  -4.1582562314288340e-29 8.0111221058624011e-29 0.0000000000000000e+00  3.0258873305776395e-29 -3.9369813701207016e-29 0.0000000000000000e+00  3.9130639080670947e-29 -2.6556321570386995e-28 0.0000000000000000e+00  1.6584679684043695e-29 -7.8062859715542488e-29 0.0000000000000000e+00  -3.6542290157581204e-30 8.8475395623789203e-30 0.0000000000000000e+00  -1.0919313574019640e-29 5.9006459973446122e-29 0.0000000000000000e+00  -1.6314037358067586e-29 8.0528203641253108e-29 0.0000000000000000e+00  3.3304832608769701e-30 -3.7112314883290002e-30 0.0000000000000000e+00  1.4546419750699552e-29 -5.0228444988884543e-29 0.0000000000000000e+00  -2.4775894891877143e-30 8.2499739970154776e-30 0.0000000000000000e+00  -7.9790810433644995e-31 2.5344012479338649e-30 0.0000000000000000e+00  3.5644245653171365e-30 -6.9189717652864178e-30 0.0000000000000000e+00  4.5718620715562944e-31 -5.3494787743330794e-31 0.0000000000000000e+00  -4.7870314701423820e-31 7.4742349670674016e-31 0.0000000000000000e+00  1.9055878516465144e-31 -3.2123310722562895e-31 0.0000000000000000e+00  -5.5003385499175130e-32 6.8789227045034392e-32 0.0000000000000000e+00  5.2628861289667215e-33 -7.0222259330393066e-33 0.0000000000000000e+00  3.5691073629440704e-33 -3.0753043903468948e-33 0.0000000000000000e+00  -4.9924988195614964e-33 5.0019714689731942e-33 0.0000000000000000e+00  1.4896754357262214e-34 -8.0808549278884717e-35 0.0000000000000000e+00  1.8920547749226288e-34 -2.1705679436246756e-34 0.0000000000000000e+00  -2.3392754815483479e-35 3.2194709034723402e-35 0.0000000000000000e+00  1.8455127031174208e-35 -1.9128599497123265e-35 0.0000000000000000e+00  -2.7010997903075264e-36 2.7699108692019003e-36 0.0000000000000000e+00  -2.4472494972521492e-37 2.1200068817828898e-37 0.0000000000000000e+00  4.0863611631064128e-38 -3.9962257944008846e-38 0.0000000000000000e+00  -2.6114270208879569e-38 2.4134224313103390e-38 0.0000000000000000e+00  7.4828244405469145e-39 -6.9176884401605741e-39 0.0000000000000000e+00  1.1833104608619089e-39 -1.0203376370806169e-39 0.0000000000000000e+00  -5.6063450721122096e-40 4.4265763992034077e-40 0.0000000000000000e+00  -1.5040696795632930e-40 1.3887931420617004e-40 0.0000000000000000e+00  1.7278327622877067e-40 -1.4517345389663623e-40 0.0000000000000000e+00  2.8943013980904460e-41 -2.5264420241229141e-41 0.0000000000000000e+00  1.4965430051567695e-40 -1.0519831129177213e-40 0.0000000000000000e+00  -2.8195594261460028e-40 1.7912730737971548e-40 0.0000000000000000e+00  -2.6443984837838564e-40 2.6096447775869450e-40 0.0000000000000000e+00  2.4214001065306436e-39 -1.6986169918553087e-39 0.0000000000000000e+00  -6.2668909841272980e-39 3.7478006902007422e-39 0.0000000000000000e+00  5.5513047942059055e-39 -1.8315008052129821e-39 0.0000000000000000e+00  2.0931281322018921e-38 -1.6178945001138773e-38 0.0000000000000000e+00  -1.0072234985499772e-37 5.9975208910691114e-38 0.0000000000000000e+00  1.9077634065417464e-37 -9.1079339170283089e-38 0.0000000000000000e+00  5.6714362629604355e-38 -8.4962760264689671e-38 0.0000000000000000e+00  -1.2886454341929905e-36 7.4422191990008260e-37 0.0000000000000000e+00  3.1641699549313591e-36 -1.5406692311843424e-36 0.0000000000000000e+00  -1.5042921058780456e-36 3.0322267719718433e-37 0.0000000000000000e+00  -1.4936466861892921e-35 7.9990118982369858e-36 0.0000000000000000e+00  4.6724806333290044e-35 -2.2591983096447229e-35 0.0000000000000000e+00  -2.7281940066142887e-35 1.1936393469285521e-35 0.0000000000000000e+00  -1.9415874333201888e-34 9.3971818804758353e-35 0.0000000000000000e+00  6.0018625282182261e-34 -2.9304827659193158e-34 0.0000000000000000e+00  -1.5949343437679575e-34 1.0790194834582844e-34 0.0000000000000000e+00  -3.0039767879239145e-33 1.4131258602213329e-33 0.0000000000000000e+00  6.4160187393801330e-33 -3.2813789498294596e-33 0.0000000000000000e+00  4.9214929184928054e-33 -1.9055379195062051e-33 0.0000000000000000e+00  -4.3108560843049540e-32 2.1154769761303331e-32 0.0000000000000000e+00  4.0113819092501834e-32 -2.1102631054994146e-32 0.0000000000000000e+00  1.6301296592574058e-31 -8.0239805495680078e-32 0.0000000000000000e+00  -3.9125830451067246e-31 1.8706943839493905e-31 0.0000000000000000e+00  -3.2306759876870324e-31 1.9281714004412084e-31 0.0000000000000000e+00  2.2121441693940203e-30 -1.0238051050287545e-30 0.0000000000000000e+00  -6.6899939701698193e-31 -1.2140564711860451e-31 0.0000000000000000e+00  -9.3814977816455526e-30 4.3088936152576122e-30 0.0000000000000000e+00  1.0495286147465991e-29 -1.5625252218421425e-30 0.0000000000000000e+00  3.2637019490354450e-29 -1.4764477957166338e-29 0.0000000000000000e+00  -6.9088283717400629e-29 1.2120181739316714e-29 0.0000000000000000e+00  -1.0584834094251447e-28 3.9964014499607728e-29 0.0000000000000000e+00  3.8494464077966290e-28 -8.6733834413488072e-29 0.0000000000000000e+00  3.7226021476100460e-28 -8.7258544737350545e-29 0.0000000000000000e+00  -1.9727028357909936e-27 6.0364452363407808e-28 0.0000000000000000e+00  -2.9390615125967621e-27 9.6750082275215769e-28 0.0000000000000000e+00  7.6398812914194617e-27 -2.5102177610656412e-27 0.0000000000000000e+00  1.7894618007583130e-26 -6.6334449731906232e-27 0.0000000000000000e+00  -3.3042821689082352e-28 -3.2696601484856402e-27 0.0000000000000000e+00  -5.1137289346290826e-26 1.0751568483529231e-26 0.0000000000000000e+00  -5.9633143056144537e-26 1.6181830797918418e-26 0.0000000000000000e+00  5.5438159578339482e-26 -9.1123919397692336e-27 0.0000000000000000e+00  2.6156874777062646e-25 -5.4739693821986479e-26 0.0000000000000000e+00  3.6122049217735869e-25 -7.0704935828257995e-26 0.0000000000000000e+00  2.6820602635238925e-25 -4.2337654403876545e-26 0.0000000000000000e+00  8.1247155071804083e-26 -7.0097344821653492e-27 0.0000000000000000e+00  -3.0183295770022562e-26 -2.8823940071723588e-27 0.0000000000000000e+00  -2.4711107664859462e-26 -2.0346256611432853e-26 0.0000000000000000e+00  1.5986754031706264e-26 -2.7671507157460870e-26 0.0000000000000000e+00  1.7510082463321881e-26 -2.1528497679045903e-26 0.0000000000000000e+00  -1.9407353424732024e-26 -1.7546264094721274e-26 0.0000000000000000e+00  -4.3842319165271269e-26 -1.7294717266936193e-26 0.0000000000000000e+00  -2.9836094549342348e-26 -9.8699240281725810e-27 0.0000000000000000e+00  3.7021123601739848e-27 3.5004265684471497e-27 0.0000000000000000e+00  2.0668652529039503e-26 1.0127316885586721e-26 0.0000000000000000e+00  1.3564675684097047e-26 6.5707951990182039e-27 0.0000000000000000e+00  1.3159369127972835e-27 9.7745852860179807e-28 0.0000000000000000e+00  -2.4154218082542543e-27 -8.4137917895426073e-28 0.0000000000000000e+00  -7.1198848875351643e-28 -3.0787959641548136e-28 0.0000000000000000e+00  4.5035552226315702e-28 1.1205018856529007e-28 0.0000000000000000e+00  1.2758026177173999e-28 2.2587949391314268e-29 0.0000000000000000e+00  -1.1753019099431389e-28 -3.6729893081716555e-29 0.0000000000000000e+00  -1.4285441443322360e-29 3.9247033018850038e-30 0.0000000000000000e+00  3.1894704569013829e-29 1.2032277254621118e-29 0.0000000000000000e+00  -2.0354016760004066e-30 -2.8636982900113325e-30 0.0000000000000000e+00  -7.5129682683208289e-30 -3.0429675632147345e-30 0.0000000000000000e+00  1.7102968247718071e-30 1.0318886146971676e-30 0.0000000000000000e+00  1.2826252852090792e-30 5.4731936286257714e-31 0.0000000000000000e+00  -6.4139096349980336e-31 -3.1791303148366286e-31 0.0000000000000000e+00  -1.2909441690781222e-31 -6.3820068640403211e-32 0.0000000000000000e+00  1.5803957549858007e-31 7.8075042060262673e-32 0.0000000000000000e+00  -1.5801727478019142e-32 -4.6959032367371997e-33 0.0000000000000000e+00  -2.5871210431720556e-32 -1.4362567160510748e-32 0.0000000000000000e+00  9.7892192242085972e-33 4.4105727784553276e-33 0.0000000000000000e+00  2.0761118482167427e-33 1.6626006099684096e-33 0.0000000000000000e+00  -2.3820840200131294e-33 -1.3251395964253470e-33 0.0000000000000000e+00  3.3132908765346805e-34 8.1655060522125981e-35 0.0000000000000000e+00  2.8859243407333739e-34 2.0602953658646272e-34 0.0000000000000000e+00  -1.5029609833019211e-34 -8.5755831400317954e-35 0.0000000000000000e+00  1.3793548188769550e-37 -6.8492303367591119e-36 0.0000000000000000e+00  2.5672958167453459e-35 1.7769372753253035e-35 0.0000000000000000e+00  -9.0776300185176080e-36 -5.6928593843572346e-36 0.0000000000000000e+00  -9.3245322419467053e-37 -6.8303477642043325e-37 0.0000000000000000e+00  1.8555243913304792e-36 1.2091477116068336e-36 0.0000000000000000e+00  -5.9001726323509510e-37 -4.0591349578148488e-37 0.0000000000000000e+00  -6.5682622439287546e-38 -1.5488254098965366e-38 0.0000000000000000e+00  1.2848880211180162e-37 7.1457145856571227e-38 0.0000000000000000e+00  -4.8270569207387065e-38 -3.1400262346659388e-38 0.0000000000000000e+00  1.9338092995799329e-39 4.4024540457243635e-39 0.0000000000000000e+00  6.9255225631680645e-39 2.6059487636622636e-39 0.0000000000000000e+00  -3.9870139557981487e-39 -2.0974920701024748e-39 0.0000000000000000e+00  9.7009048191805078e-40 7.3469836309775957e-40 0.0000000000000000e+00  1.0304641506212137e-40 -8.4179486894509748e-41 0.0000000000000000e+00  -2.1488111277548826e-40 -7.1783228142384899e-41 0.0000000000000000e+00  9.1666205160505325e-41 4.4198634155651970e-41 0.0000000000000000e+00  -3.8501803830076572e-41 -3.1602921802075532e-41 0.0000000000000000e+00  7.6853647023181479e-41 3.2312588415785648e-41 0.0000000000000000e+00  9.3292240406024367e-41 9.2188385094053099e-41 0.0000000000000000e+00  -3.6104118590474435e-40 -2.9410758258021987e-40 0.0000000000000000e+00  4.9235619511107403e-39 3.6074539613416094e-39 0.0000000000000000e+00  -2.0825776172741392e-38 -1.7634963341175874e-38 0.0000000000000000e+00  8.1166993573123600e-38 7.1601155904245122e-38 0.0000000000000000e+00  -2.1013983411451749e-37 -1.8865851524728986e-37 0.0000000000000000e+00  1.4343168807282753e-36 1.3788742346563470e-36 0.0000000000000000e+00  -2.5756283942935627e-36 -3.0053900219445997e-36 0.0000000000000000e+00  1.8397151254352477e-36 4.8114505640306432e-36 0.0000000000000000e+00  2.4163015169397543e-35 1.7264671043602240e-35 0.0000000000000000e+00  -2.1833192876020677e-34 -2.0325203188803651e-34 0.0000000000000000e+00  5.7908875139664758e-34 6.0080813041645089e-34 0.0000000000000000e+00  -1.8215877304471492e-33 -2.1071389955057283e-33 0.0000000000000000e+00  3.6436359120821985e-33 3.7641775201456963e-33 0.0000000000000000e+00  1.8731941720459969e-33 9.3991925070983258e-34 0.0000000000000000e+00  -2.9957151237536479e-32 -2.5497111563930792e-32 0.0000000000000000e+00  -4.4344699953063846e-32 -5.4222017314061231e-32 0.0000000000000000e+00  5.9948381084240027e-32 1.2134774588604582e-31 0.0000000000000000e+00  -1.2184649479227535e-31 -2.9533187595807769e-31 0.0000000000000000e+00  -4.7158358890855000e-31 -1.0681158877732904e-30 0.0000000000000000e+00  3.1276394089122864e-30 6.3994001086958466e-30 0.0000000000000000e+00  2.6733780519066559e-30 7.7003455458571202e-30 0.0000000000000000e+00  -1.6721680156030846e-29 -4.4802744087610338e-29 0.0000000000000000e+00  7.5229588420553523e-31 9.9464049617841590e-30 0.0000000000000000e+00  1.8716879771708401e-29 9.6707603125516492e-29 0.0000000000000000e+00  -9.5221530715288955e-31 -3.3386208029671691e-29 0.0000000000000000e+00  2.3804225255393450e-30 -1.1808483009106855e-28 0.0000000000000000e+00  2.9938501006121578e-30 -3.0086235103086438e-29 0.0000000000000000e+00  6.0367787469749178e-30 1.8752196094807708e-28 0.0000000000000000e+00  -2.4185433010664158e-29 -2.5804778379482177e-28 0.0000000000000000e+00  -2.7762119066605339e-31 8.5338376430416156e-29 0.0000000000000000e+00  -1.6408115418071787e-29 1.4203873558523295e-29 0.0000000000000000e+00  2.2302756664920922e-30 3.0838154692801699e-28 0.0000000000000000e+00  3.8267259915050402e-29 2.9535377050888474e-28 0.0000000000000000e+00  6.3231726486236623e-29 -4.9460607635108260e-28 0.0000000000000000e+00  5.3081533752493180e-29 -8.1334808685741149e-29 0.0000000000000000e+00  4.6523320711977482e-29 -1.8110322557064324e-28 0.0000000000000000e+00  7.1127552785780537e-29 -4.8134109704838973e-28 0.0000000000000000e+00  9.0754291939813597e-29 -5.4203341528364251e-28 0.0000000000000000e+00  1.0771439688207836e-28 -2.4442868229443417e-28 0.0000000000000000e+00  -2.9196009344591075e-29 5.9895506543585757e-28 0.0000000000000000e+00  -2.1558240946429942e-28 1.6785132863660947e-27 0.0000000000000000e+00  -2.3021493508066571e-29 7.5850068911610206e-28 0.0000000000000000e+00  2.7478252082831663e-28 -7.9118673697478412e-28 0.0000000000000000e+00  -1.3731472702372928e-28 1.5631669786959041e-27 0.0000000000000000e+00  -1.3049702373374686e-28 1.5615285187102923e-27 0.0000000000000000e+00  1.9425840406531412e-28 2.5326248862068246e-28 0.0000000000000000e+00  5.9086845113257105e-29 9.2154430100644869e-28 0.0000000000000000e+00  1.4528258704880967e-28 3.7301670664685125e-28 0.0000000000000000e+00  -9.9726325652134993e-29 2.1662085356268583e-27 0.0000000000000000e+00  -1.1967077559244312e-28 2.0287977666253824e-27 0.0000000000000000e+00  9.7892013306567610e-29 1.1090106099658194e-28 0.0000000000000000e+00  4.2172306502988238e-30 7.3267997138830235e-28 0.0000000000000000e+00  2.5489021216990149e-29 -5.7465763351410044e-28 0.0000000000000000e+00  -8.2035500217143767e-29 1.8522091970362243e-27 0.0000000000000000e+00  -6.5285546440586112e-29 1.2734895442922019e-27 0.0000000000000000e+00  -1.2929806614547182e-28 5.8998893260082619e-28 0.0000000000000000e+00  -8.8373221680898832e-29 7.1940595121669757e-28 0.0000000000000000e+00  -4.0039441674934349e-29 -7.7200735947899937e-28 0.0000000000000000e+00  -1.2069400242588633e-28 -2.4759447979026363e-28 0.0000000000000000e+00  -4.5895118432365490e-29 -8.3156702266283054e-28 0.0000000000000000e+00  2.6307477857772796e-29 -2.4420476144292209e-28 0.0000000000000000e+00  8.1388376262632535e-29 -8.6464028236759763e-29 0.0000000000000000e+00  -2.4647614524853210e-29 2.0755568335724694e-28 0.0000000000000000e+00  -5.1386973862394813e-29 2.1840438149671318e-28 0.0000000000000000e+00  -1.6102595374246441e-29 9.9786584738231588e-29 0.0000000000000000e+00  1.3379094053120195e-29 -6.4761152221936383e-31 0.0000000000000000e+00  1.3514487817525464e-30 -3.9031385217548232e-29 0.0000000000000000e+00  2.1204669153413622e-29 -1.7099943210913930e-28 0.0000000000000000e+00  -1.6102186075500581e-30 -1.1204695969735609e-29 0.0000000000000000e+00  -1.3673326211465184e-29 6.2270078387983912e-29 0.0000000000000000e+00  1.3576021161642386e-29 -5.4589425354868038e-29 0.0000000000000000e+00  -2.4681190911619904e-30 1.0233619479052108e-29 0.0000000000000000e+00  -6.1148850653461113e-30 2.5794399059718560e-29 0.0000000000000000e+00  2.4191757963126862e-30 -7.3768492764578766e-30 0.0000000000000000e+00  3.0824713047527467e-30 -8.6494070525369619e-30 0.0000000000000000e+00  