<?xml version="1.0"?>
<VTKFile type="UnstructuredGrid"  version="0.1"  >
<UnstructuredGrid>
<Piece  NumberOfPoints="11902" NumberOfCells="23402">
<Points>
<DataArray  type="Float64"  NumberOfComponents="3"  format="ascii">-5 -5 0  5 -5 0  5 5 0  -5 5 0  1.250644270111807 0.001363865970397424 0  -4.9 -5 0  -4.8 -5 0  -4.7 -5 0  -4.6 -5 0  -4.5 -5 0  -4.4 -5 0  -4.3 -5 0  -4.2 -5 0  -4.1 -5 0  -4 -5 0  -3.9 -5 0  -3.8 -5 0  -3.7 -5 0  -3.6 -5 0  -3.5 -5 0  -3.4 -5 0  -3.3 -5 0  -3.2 -5 0  -3.1 -5 0  -3 -5 0  -2.9 -5 0  -2.8 -5 0  -2.7 -5 0  -2.6 -5 0  -2.5 -5 0  -2.4 -5 0  -2.3 -5 0  -2.2 -5 0  -2.1 -5 0  -2 -5 0  -1.9 -5 0  -1.8 -5 0  -1.7 -5 0  -1.6 -5 0  -1.5 -5 0  -1.4 -5 0  -1.3 -5 0  -1.2 -5 0  -1.1 -5 0  -1 -5 0  -0.9000000000000004 -5 0  -0.7999999999999998 -5 0  -0.7000000000000002 -5 0  -0.5999999999999996 -5 0  -0.5 -5 0  -0.4000000000000004 -5 0  -0.2999999999999998 -5 0  -0.2000000000000002 -5 0  -0.09999999999999964 -5 0  0 -5 0  0.09999999999999964 -5 0  0.2000000000000002 -5 0  0.2999999999999998 -5 0  0.4000000000000004 -5 0  0.5 -5 0  0.5999999999999996 -5 0  0.7000000000000002 -5 0  0.7999999999999998 -5 0  0.9000000000000004 -5 0  1 -5 0  1.1 -5 0  1.2 -5 0  1.3 -5 0  1.4 -5 0  1.5 -5 0  1.6 -5 0  1.7 -5 0  1.8 -5 0  1.9 -5 0  2 -5 0  2.1 -5 0  2.2 -5 0  2.3 -5 0  2.4 -5 0  2.5 -5 0  2.6 -5 0  2.7 -5 0  2.8 -5 0  2.9 -5 0  3 -5 0  3.1 -5 0  3.199999999999999 -5 0  3.300000000000001 -5 0  3.4 -5 0  3.5 -5 0  3.6 -5 0  3.699999999999999 -5 0  3.800000000000001 -5 0  3.9 -5 0  4 -5 0  4.1 -5 0  4.199999999999999 -5 0  4.300000000000001 -5 0  4.4 -5 0  4.5 -5 0  4.6 -5 0  4.699999999999999 -5 0  4.800000000000001 -5 0  4.9 -5 0  5 -4.9 0  5 -4.8 0  5 -4.7 0  5 -4.6 0  5 -4.5 0  5 -4.4 0  5 -4.3 0  5 -4.2 0  5 -4.1 0  5 -4 0  5 -3.9 0  5 -3.8 0  5 -3.7 0  5 -3.6 0  5 -3.5 0  5 -3.4 0  5 -3.3 0  5 -3.2 0  5 -3.1 0  5 -3 0  5 -2.9 0  5 -2.8 0  5 -2.7 0  5 -2.6 0  5 -2.5 0  5 -2.4 0  5 -2.3 0  5 -2.2 0  5 -2.1 0  5 -2 0  5 -1.9 0  5 -1.8 0  5 -1.7 0  5 -1.6 0  5 -1.5 0  5 -1.4 0  5 -1.3 0  5 -1.2 0  5 -1.1 0  5 -1 0  5 -0.9000000000000004 0  5 -0.7999999999999998 0  5 -0.7000000000000002 0  5 -0.5999999999999996 0  5 -0.5 0  5 -0.4000000000000004 0  5 -0.2999999999999998 0  5 -0.2000000000000002 0  5 -0.09999999999999964 0  5 0 0  5 0.09999999999999964 0  5 0.2000000000000002 0  5 0.2999999999999998 0  5 0.4000000000000004 0  5 0.5 0  5 0.5999999999999996 0  5 0.7000000000000002 0  5 0.7999999999999998 0  5 0.9000000000000004 0  5 1 0  5 1.1 0  5 1.2 0  5 1.3 0  5 1.4 0  5 1.5 0  5 1.6 0  5 1.7 0  5 1.8 0  5 1.9 0  5 2 0  5 2.1 0  5 2.2 0  5 2.3 0  5 2.4 0  5 2.5 0  5 2.6 0  5 2.7 0  5 2.8 0  5 2.9 0  5 3 0  5 3.1 0  5 3.199999999999999 0  5 3.300000000000001 0  5 3.4 0  5 3.5 0  5 3.6 0  5 3.699999999999999 0  5 3.800000000000001 0  5 3.9 0  5 4 0  5 4.1 0  5 4.199999999999999 0  5 4.300000000000001 0  5 4.4 0  5 4.5 0  5 4.6 0  5 4.699999999999999 0  5 4.800000000000001 0  5 4.9 0  4.9 5 0  4.8 5 0  4.7 5 0  4.6 5 0  4.5 5 0  4.4 5 0  4.3 5 0  4.2 5 0  4.1 5 0  4 5 0  3.9 5 0  3.8 5 0  3.7 5 0  3.6 5 0  3.5 5 0  3.4 5 0  3.3 5 0  3.2 5 0  3.1 5 0  3 5 0  2.9 5 0  2.8 5 0  2.7 5 0  2.6 5 0  2.5 5 0  2.4 5 0  2.3 5 0  2.2 5 0  2.1 5 0  2 5 0  1.9 5 0  1.8 5 0  1.7 5 0  1.6 5 0  1.5 5 0  1.4 5 0  1.3 5 0  1.2 5 0  1.1 5 0  1 5 0  0.9000000000000004 5 0  0.7999999999999998 5 0  0.7000000000000002 5 0  0.5999999999999996 5 0  0.5 5 0  0.4000000000000004 5 0  0.2999999999999998 5 0  0.2000000000000002 5 0  0.09999999999999964 5 0  0 5 0  -0.09999999999999964 5 0  -0.2000000000000002 5 0  -0.2999999999999998 5 0  -0.4000000000000004 5 0  -0.5 5 0  -0.5999999999999996 5 0  -0.7000000000000002 5 0  -0.7999999999999998 5 0  -0.9000000000000004 5 0  -1 5 0  -1.1 5 0  -1.2 5 0  -1.3 5 0  -1.4 5 0  -1.5 5 0  -1.6 5 0  -1.7 5 0  -1.8 5 0  -1.9 5 0  -2 5 0  -2.1 5 0  -2.2 5 0  -2.3 5 0  -2.4 5 0  -2.5 5 0  -2.6 5 0  -2.7 5 0  -2.8 5 0  -2.9 5 0  -3 5 0  -3.1 5 0  -3.199999999999999 5 0  -3.300000000000001 5 0  -3.4 5 0  -3.5 5 0  -3.6 5 0  -3.699999999999999 5 0  -3.800000000000001 5 0  -3.9 5 0  -4 5 0  -4.1 5 0  -4.199999999999999 5 0  -4.300000000000001 5 0  -4.4 5 0  -4.5 5 0  -4.6 5 0  -4.699999999999999 5 0  -4.800000000000001 5 0  -4.9 5 0  -5 4.9 0  -5 4.8 0  -5 4.7 0  -5 4.6 0  -5 4.5 0  -5 4.4 0  -5 4.3 0  -5 4.2 0  -5 4.1 0  -5 4 0  -5 3.9 0  -5 3.8 0  -5 3.7 0  -5 3.6 0  -5 3.5 0  -5 3.4 0  -5 3.3 0  -5 3.2 0  -5 3.1 0  -5 3 0  -5 2.9 0  -5 2.8 0  -5 2.7 0  -5 2.6 0  -5 2.5 0  -5 2.4 0  -5 2.3 0  -5 2.2 0  -5 2.1 0  -5 2 0  -5 1.9 0  -5 1.8 0  -5 1.7 0  -5 1.6 0  -5 1.5 0  -5 1.4 0  -5 1.3 0  -5 1.2 0  -5 1.1 0  -5 1 0  -5 0.9000000000000004 0  -5 0.7999999999999998 0  -5 0.7000000000000002 0  -5 0.5999999999999996 0  -5 0.5 0  -5 0.4000000000000004 0  -5 0.2999999999999998 0  -5 0.2000000000000002 0  -5 0.09999999999999964 0  -5 0 0  -5 -0.09999999999999964 0  -5 -0.2000000000000002 0  -5 -0.2999999999999998 0  -5 -0.4000000000000004 0  -5 -0.5 0  -5 -0.5999999999999996 0  -5 -0.7000000000000002 0  -5 -0.7999999999999998 0  -5 -0.9000000000000004 0  -5 -1 0  -5 -1.1 0  -5 -1.2 0  -5 -1.3 0  -5 -1.4 0  -5 -1.5 0  -5 -1.6 0  -5 -1.7 0  -5 -1.8 0  -5 -1.9 0  -5 -2 0  -5 -2.1 0  -5 -2.2 0  -5 -2.3 0  -5 -2.4 0  -5 -2.5 0  -5 -2.6 0  -5 -2.7 0  -5 -2.8 0  -5 -2.9 0  -5 -3 0  -5 -3.1 0  -5 -3.199999999999999 0  -5 -3.300000000000001 0  -5 -3.4 0  -5 -3.5 0  -5 -3.6 0  -5 -3.699999999999999 0  -5 -3.800000000000001 0  -5 -3.9 0  -5 -4 0  -5 -4.1 0  -5 -4.199999999999999 0  -5 -4.300000000000001 0  -5 -4.4 0  -5 -4.5 0  -5 -4.6 0  -5 -4.699999999999999 0  -5 -4.800000000000001 0  -5 -4.9 0  1.243035784687355 0.09588517671104667 0  1.222003091336897 0.1932034843258128 0  1.188756399091765 0.2897522391307131 0  1.14606594451743 0.37903965768698 0  1.089034295121354 0.4696736222791724 0  1.023876285742123 0.554286349477823 0  0.9463725917052194 0.6340681322050074 0  0.8603004732669898 0.7082160286668137 0  0.7686839508107165 0.7735966858826246 0  0.6666435519221855 0.8310845081586069 0  0.5561699597688017 0.8833620775161917 0  0.4442659440209523 0.927051880783865 0  0.331443616435001 0.959627794574165 0  0.2083117096979428 0.9811892201296961 0  0.08934603351646296 0.9995959113165335 0  -0.02742880980288672 1.002743308415953 0  -0.1451738182425359 0.9895441435486719 0  -0.2706025433436204 0.9710026645687897 0  -0.3891992304903785 0.9464086517818083 0  -0.5000545809238657 0.9101368261116701 0  -0.6087148925325261 0.8637571631201379 0  -0.7108246028172208 0.8093080503197888 0  -0.8052834984075657 0.7446933416157108 0  -0.8955062793714296 0.6718596644659166 0  -0.979921551075028 0.5925646933401624 0  -1.053134488977106 0.5114075667803101 0  -1.11465043138114 0.4255647147550044 0  -1.166495883741975 0.3338085379644369 0  -1.204356127636831 0.2430848905854695 0  -1.228858182923688 0.1485952246665426 0  -1.240524993708314 0.05106950473799433 0  -1.24047503537411 -0.04895803550561639 0  -1.228786036275997 -0.1458206956039124 0  -1.204111817637878 -0.2393174702302643 0  -1.16385776293006 -0.334193461112763 0  -1.114903828893564 -0.4255006829138559 0  -1.054606817665918 -0.5111129134438845 0  -0.9821983927337101 -0.5915153039429637 0  -0.8984022731464363 -0.6695950298555455 0  -0.808535305439437 -0.7408483765439613 0  -0.7125965010240713 -0.8018219035718749 0  -0.6083419187712495 -0.8550801481007536 0  -0.4958622805294677 -0.9042590177008745 0  -0.3831638133864798 -0.943616957211198 0  -0.267309485630049 -0.9705072272315399 0  -0.1438113564912397 -0.9891606614669664 0  -0.027974913554215 -1.001910499916796 0  0.0892166953037609 -0.9950415824330189 0  0.2131232442504201 -0.9781160406085441 0  0.3338301312915296 -0.9580637727997089 0  0.4483644258983749 -0.9257200981784055 0  0.5584510500335413 -0.882489353466259 0  0.6675348887739366 -0.8311173213659198 0  0.7686883975334864 -0.7747528990505033 0  0.8604033917084234 -0.7091795815413999 0  0.9456951408203261 -0.6340342488388905 0  1.021373469468039 -0.5534697860399004 0  1.089383765664299 -0.4686820733493167 0  1.146965425944899 -0.3792251605871235 0  1.190473409061835 -0.2877583192125813 0  1.222599262850848 -0.19231969876289 0  1.243289966280827 -0.09555975487104873 0  -2.448585709769788 4.918158243674046 0  -2.44846209374654 -4.910540619207361 0  4.910466029496518 2.447926512504615 0  4.918588227231071 -2.449385141575232 0  2.446196096956224 -4.895780186426105 0  2.440628650948984 4.899541131091921 0  -4.910492731088067 -2.447952571136626 0  -4.910490083138467 2.447956457598823 0  -1.748540765928911 4.911066084317238 0  -1.744326379442577 -4.914505154714512 0  4.920654409190265 1.744098317211532 0  4.909191122755461 -1.747863520710957 0  -4.909484725813016 -1.747597363136089 0  -4.910306799808771 1.7473418777748 0  1.745815216902772 4.904926322103018 0  1.747231385506588 -4.893077474829243 0  -1.148846660744124 4.908860807865557 0  -1.129702624043977 -4.916772757668016 0  -4.909210918712106 -1.147920286322673 0  -4.909029345469838 1.147720650604665 0  1.143841000386538 -4.912958608348224 0  1.148856464676354 4.908847639999612 0  4.909351166202875 1.146195707831176 0  4.920180290386496 -1.151978503060931 0  -0.5466716444160672 -4.91005500170187 0  -0.5464539808786508 4.918736962313247 0  -4.907950358267051 -0.5487043187540884 0  -4.90797434652962 0.5472619432711238 0  4.907270116519046 -0.549022652119032 0  4.918925159196773 0.5457805189311569 0  0.5424542685140535 -4.89693654208267 0  0.5511827282167081 4.915560609520877 0  -4.911907092063882 -3.048305408742486 0  4.918477146017716 3.046320800235878 0  4.911415023146223 -3.04828129861255 0  -4.91275481684792 3.045396877002598 0  3.055309183652709 -4.91740141094485 0  -3.048640688391643 -4.911338275311766 0  3.05220774673643 4.913415827861584 0  -3.048086238821956 4.912227949765712 0  -4.90706102530378 -0.04990734717763824 0  0.04511998587650405 -4.912005412420782 0  0.04956766725568517 4.919030906856308 0  4.914115384278734 -0.0512894331114341 0  3.545625939028433 -4.919039829843742 0  -3.548907009117716 4.911940866807
[...]
<PointData  Vectors="f_4154"> 
<DataArray  type="Float64"  Name="f_4154"  NumberOfComponents="3" format="ascii">-8.2557947113161955e-41 -1.1811471964087390e-40 0.0000000000000000e+00  8.4962876868973311e-41 -1.1507321411098373e-40 0.0000000000000000e+00  -1.8091521074122359e-40 -1.7425472072011935e-40 0.0000000000000000e+00  -1.8979590144499570e-40 1.9262785965961722e-40 0.0000000000000000e+00  1.6366307539772443e+01 1.5335726665178490e-01 0.0000000000000000e+00  2.1480919101962998e-40 2.6274506484183771e-40 0.0000000000000000e+00  7.9839575467498376e-40 7.6182258381759846e-40 0.0000000000000000e+00  -2.0893244598341482e-39 -2.1633494923548951e-39 0.0000000000000000e+00  1.5320402196362565e-38 1.7920936366913953e-38 0.0000000000000000e+00  -5.4870955362470734e-38 -6.3503189195870260e-38 0.0000000000000000e+00  2.0189840855924053e-37 2.6712792855304315e-37 0.0000000000000000e+00  -7.7754196302959655e-37 -1.0754968793099695e-36 0.0000000000000000e+00  3.9320029179195669e-36 5.3771092728591918e-36 0.0000000000000000e+00  -2.1712801904390048e-35 -2.7895175261905695e-35 0.0000000000000000e+00  9.4567611947387677e-35 1.2131909205623165e-34 0.0000000000000000e+00  -2.0898415748141425e-34 -2.4966485735459677e-34 0.0000000000000000e+00  3.9161477823655409e-34 4.2170926483120699e-34 0.0000000000000000e+00  1.7060257883545392e-33 1.9169798439490118e-33 0.0000000000000000e+00  -6.9271914136059706e-33 -8.8285329856224093e-33 0.0000000000000000e+00  1.6750282771388235e-32 2.4774247430960972e-32 0.0000000000000000e+00  -1.0442498504174928e-31 -1.4678652967303689e-31 0.0000000000000000e+00  2.8429450082635870e-31 4.0053372866827940e-31 0.0000000000000000e+00  2.1879722791946955e-31 2.3895645011709232e-31 0.0000000000000000e+00  -1.7200946514137149e-30 -2.0524753598889857e-30 0.0000000000000000e+00  -4.5456931846904393e-31 -1.1119547218123360e-30 0.0000000000000000e+00  -4.7699044600283124e-31 -1.8828037272404583e-30 0.0000000000000000e+00  3.4569154227827691e-30 7.2547213873741277e-30 0.0000000000000000e+00  -8.3579356365045268e-30 -3.0645924933682492e-29 0.0000000000000000e+00  2.9734353764593272e-29 8.2887866694987574e-29 0.0000000000000000e+00  1.6635784793465136e-29 5.0916683442652066e-29 0.0000000000000000e+00  -1.4882335061042763e-28 -3.9541264092073090e-28 0.0000000000000000e+00  -6.1549030894400581e-29 -1.7346850873409567e-28 0.0000000000000000e+00  -8.9393195462724909e-29 -3.4233862557797344e-28 0.0000000000000000e+00  1.4142653629200841e-28 4.7342837696136041e-28 0.0000000000000000e+00  3.6390219512544789e-28 1.4307578503783855e-27 0.0000000000000000e+00  6.9182045864985534e-29 -4.5190212580978295e-29 0.0000000000000000e+00  1.7784117295079459e-28 4.4212081197727276e-28 0.0000000000000000e+00  -4.1353305184102944e-29 -2.4425915218628540e-28 0.0000000000000000e+00  -4.4892604461603030e-28 -1.4207761978612117e-27 0.0000000000000000e+00  -4.4947271905810012e-28 -1.3342490013756356e-27 0.0000000000000000e+00  -5.8223496393574205e-29 -1.3741728510999679e-28 0.0000000000000000e+00  3.7818620887914562e-28 1.2991422314917793e-27 0.0000000000000000e+00  2.5567298363481522e-28 7.1110822039087869e-28 0.0000000000000000e+00  4.6215327509658241e-30 -2.0332726008011810e-28 0.0000000000000000e+00  1.3666992205671663e-28 2.6383214319028325e-28 0.0000000000000000e+00  -2.9219348697238778e-28 1.0114158160280078e-27 0.0000000000000000e+00  -1.7606037918674814e-28 1.4680839335843357e-27 0.0000000000000000e+00  1.8744254362087704e-28 -8.7553283110899539e-28 0.0000000000000000e+00  -7.6564902176974402e-29 4.4153911805643618e-27 0.0000000000000000e+00  -2.9076085920878322e-28 4.1489551039466129e-29 0.0000000000000000e+00  -5.6174762365852595e-28 -3.6752351242745822e-27 0.0000000000000000e+00  -6.6579682984261990e-28 -2.0103282956306261e-27 0.0000000000000000e+00  -4.1882465399441420e-28 -3.2243895755506288e-27 0.0000000000000000e+00  1.3858578415621588e-28 -8.4682663239505049e-27 0.0000000000000000e+00  2.8802349163198919e-28 -9.7140940169492568e-27 0.0000000000000000e+00  -4.6017403839940281e-29 -1.6315257123644341e-27 0.0000000000000000e+00  -6.5402017313242248e-29 -5.2485870611087666e-27 0.0000000000000000e+00  -1.3370627514972549e-28 -1.9431964172858737e-27 0.0000000000000000e+00  4.4847396522255842e-30 -3.4132705956031879e-27 0.0000000000000000e+00  -1.2523047048603978e-28 1.6616979869017100e-27 0.0000000000000000e+00  2.2967388641893310e-28 -4.6078484276494729e-27 0.0000000000000000e+00  3.9295299686880728e-28 -4.2359503740343134e-27 0.0000000000000000e+00  -2.5444182378509748e-29 9.8541053654892516e-28 0.0000000000000000e+00  -4.7121952722467701e-28 6.5355343671346844e-27 0.0000000000000000e+00  -2.6964176347442454e-28 2.6182439185724572e-27 0.0000000000000000e+00  -2.8187411529194120e-28 1.3830488874447412e-27 0.0000000000000000e+00  -5.2838475514793991e-28 3.7758869541538015e-27 0.0000000000000000e+00  -3.0704230548664216e-28 1.9928246000631948e-27 0.0000000000000000e+00  3.0429939458194336e-28 -2.3681973590425826e-27 0.0000000000000000e+00  2.3496759604097382e-28 -1.1083721191110489e-27 0.0000000000000000e+00  4.8290341360842090e-29 -1.3533076389741189e-28 0.0000000000000000e+00  2.5450988721162587e-28 -7.8651130924256852e-28 0.0000000000000000e+00  1.5734005681846449e-28 -6.2147122283160158e-28 0.0000000000000000e+00  -1.4089551214008768e-28 5.5343656322949956e-28 0.0000000000000000e+00  -7.8190277865967848e-29 2.6958857171693698e-28 0.0000000000000000e+00  -5.8005265593800980e-29 2.3116474455500080e-28 0.0000000000000000e+00  2.1256301461702610e-29 -6.1975082837940893e-29 0.0000000000000000e+00  3.7601371706645181e-29 -1.4275630290625408e-28 0.0000000000000000e+00  5.9932762996923980e-29 -2.0222899033576038e-28 0.0000000000000000e+00  -9.4398577724506120e-30 1.5154428910025726e-29 0.0000000000000000e+00  -5.4910779160275455e-29 1.4942392249608549e-28 0.0000000000000000e+00  8.9370181893645407e-30 -2.3733810183652402e-29 0.0000000000000000e+00  3.2511706548261666e-30 -8.3116413500465515e-30 0.0000000000000000e+00  -1.1500498687656393e-29 2.1991796584838286e-29 0.0000000000000000e+00  -1.2795517897443114e-30 1.6371598996874691e-30 0.0000000000000000e+00  1.4706764199925805e-30 -2.3460188424805838e-30 0.0000000000000000e+00  -6.8693831974619843e-31 1.0673905028573831e-30 0.0000000000000000e+00  1.1145604745140505e-31 -1.7465485670774297e-31 0.0000000000000000e+00  -1.1257685744688530e-32 1.7968197404938493e-32 0.0000000000000000e+00  -3.6334719548971573e-33 4.6235678465100364e-33 0.0000000000000000e+00  6.6828192945609815e-33 -8.1911705835027742e-33 0.0000000000000000e+00  -2.0652940948273156e-34 3.4351400888024345e-34 0.0000000000000000e+00  -1.9131323869561986e-34 1.9464356095669088e-34 0.0000000000000000e+00  5.0345176931720788e-36 6.5482114698707968e-36 0.0000000000000000e+00  -2.7816513287963621e-36 3.3280607710111788e-36 0.0000000000000000e+00  2.5201344303432730e-36 -2.8569461905385386e-36 0.0000000000000000e+00  -1.8075984272714717e-36 1.9001200529116014e-36 0.0000000000000000e+00  5.3858737635073104e-37 -6.1294623173612179e-37 0.0000000000000000e+00  -2.5788009966078421e-37 2.7355362480085340e-37 0.0000000000000000e+00  8.3173106600240414e-38 -8.4693384365383316e-38 0.0000000000000000e+00  -1.4863841637607152e-38 1.5501165362568782e-38 0.0000000000000000e+00  5.5829443892815862e-39 -5.6206540940742922e-39 0.0000000000000000e+00  -4.6954265860219265e-40 4.0011089481632329e-40 0.0000000000000000e+00  -1.5307063996500658e-40 2.0273600124839851e-40 0.0000000000000000e+00  1.0134781642764756e-41 -4.5374484921854121e-42 0.0000000000000000e+00  3.8270899526530648e-40 -3.1354795005866612e-40 0.0000000000000000e+00  -8.3911108894954553e-40 6.8259410721815110e-40 0.0000000000000000e+00  2.3101716540606103e-39 -2.2214393401463044e-39 0.0000000000000000e+00  1.5204783673708987e-40 7.3288555865138370e-40 0.0000000000000000e+00  -1.5669502666512888e-38 1.1852251545328720e-38 0.0000000000000000e+00  4.7583362254153630e-38 -4.0478419118178542e-38 0.0000000000000000e+00  -4.2764101728245202e-38 4.5784645342175580e-38 0.0000000000000000e+00  -1.8213290747056716e-37 1.2090424823274082e-37 0.0000000000000000e+00  8.1487306549733806e-37 -6.3177917130779178e-37 0.0000000000000000e+00  -1.1028783317995326e-36 9.6355871885226302e-37 0.0000000000000000e+00  -2.0584253839409784e-36 1.2531525302451180e-36 0.0000000000000000e+00  1.1782555122611930e-35 -8.6296196178389044e-36 0.0000000000000000e+00  -1.8734995652959694e-35 1.4750025716299666e-35 0.0000000000000000e+00  -2.5950665176865646e-35 1.5951662006551301e-35 0.0000000000000000e+00  1.7207970046546782e-34 -1.2100807970210155e-34 0.0000000000000000e+00  -2.3171844877691223e-34 1.7026294708501321e-34 0.0000000000000000e+00  -4.6116695387861171e-34 3.0074151689832836e-34 0.0000000000000000e+00  2.2931750838593266e-33 -1.5499290838367035e-33 0.0000000000000000e+00  -1.8384928510686248e-33 1.2565361682165347e-33 0.0000000000000000e+00  -9.0987853946572154e-33 5.9253806085072604e-33 0.0000000000000000e+00  2.5608976144711613e-32 -1.6397464315983424e-32 0.0000000000000000e+00  6.8618597152097754e-33 -4.8265086877049042e-33 0.0000000000000000e+00  -1.4714894585699352e-31 9.1138809760164656e-32 0.0000000000000000e+00  1.7513944132858693e-31 -1.0047565274135682e-31 0.0000000000000000e+00  5.1631301065178267e-31 -3.1603809791292784e-31 0.0000000000000000e+00  -1.4169293674531090e-30 7.9354606304987342e-31 0.0000000000000000e+00  -9.8916990854837145e-31 6.6323080471052088e-31 0.0000000000000000e+00  7.8404131426949646e-30 -4.2497243134490121e-30 0.0000000000000000e+00  -1.8590030545331167e-30 2.3762162348875477e-31 0.0000000000000000e+00  -3.5429022371286273e-29 1.8658121898432507e-29 0.0000000000000000e+00  2.8322042631128455e-29 -9.6934187804824345e-30 0.0000000000000000e+00  1.4694489512078150e-28 -7.5637791247852983e-29 0.0000000000000000e+00  -1.6728949778320046e-28 5.3404932100787891e-29 0.0000000000000000e+00  -6.2225726891254013e-28 3.0646849787574671e-28 0.0000000000000000e+00  6.8588089144488900e-28 -1.5857865623292126e-28 0.0000000000000000e+00  2.6281511592927573e-27 -1.1849545988694493e-27 0.0000000000000000e+00  -2.1661957080041590e-27 1.5719913764597666e-28 0.0000000000000000e+00  -1.0363391386312305e-26 3.6481855926351376e-27 0.0000000000000000e+00  3.4997714207612278e-27 1.3772755092713385e-27 0.0000000000000000e+00  3.3711440255290498e-26 -8.3758177784151249e-27 0.0000000000000000e+00  1.5868485856883678e-26 -9.5647549280313387e-27 0.0000000000000000e+00  -9.2114852080593911e-26 1.1624947146118280e-26 0.0000000000000000e+00  -1.2974374782612411e-25 2.0425432505624726e-26 0.0000000000000000e+00  1.8490445247996390e-25 -4.7978245449917944e-26 0.0000000000000000e+00  9.4297692109824454e-25 -2.1166865876980445e-25 0.0000000000000000e+00  1.6470171085180832e-24 -3.5089394323849842e-25 0.0000000000000000e+00  1.9230726001714785e-24 -3.5760683793886151e-25 0.0000000000000000e+00  1.7952755442282589e-24 -2.0088200974735434e-25 0.0000000000000000e+00  1.7663244600294090e-24 2.5754273270096933e-26 0.0000000000000000e+00  1.9032485244557489e-24 2.2232598635972720e-25 0.0000000000000000e+00  1.8004032510258878e-24 2.9290900948690157e-25 0.0000000000000000e+00  1.2135390292240536e-24 2.1796510987026199e-25 0.0000000000000000e+00  3.9549056949063473e-25 6.9449439515449332e-26 0.0000000000000000e+00  -1.2040686010921346e-25 -3.0921645108135550e-26 0.0000000000000000e+00  -1.8834240440655915e-25 -3.8888770242757796e-26 0.0000000000000000e+00  -3.2302061692183692e-26 1.4009519169970689e-27 0.0000000000000000e+00  5.7013483556521844e-26 2.1634607085019348e-26 0.0000000000000000e+00  3.4872746260750729e-26 1.1274198254722665e-26 0.0000000000000000e+00  -3.9487273249487986e-27 -1.7579330081225760e-27 0.0000000000000000e+00  -9.2150288479784088e-27 -3.0979131612065312e-27 0.0000000000000000e+00  -3.8999607769162908e-28 8.5387499728121985e-29 0.0000000000000000e+00  2.3450112256742825e-27 9.1061856515501401e-28 0.0000000000000000e+00  2.1930327565558110e-28 3.4571796165436632e-29 0.0000000000000000e+00  -5.7479017885999260e-28 -2.4126320458334480e-28 0.0000000000000000e+00  -4.1941104356122572e-29 -4.6717321060680199e-30 0.0000000000000000e+00  1.3506376547692649e-28 5.9739945052881159e-29 0.0000000000000000e+00  -3.1373399833503194e-30 -5.1331754107642734e-30 0.0000000000000000e+00  -2.9687634196084222e-29 -1.3654984616122290e-29 0.0000000000000000e+00  4.3529351690834077e-30 3.0253648070215967e-30 0.0000000000000000e+00  5.4279805317344009e-30 2.5354452985393956e-30 0.0000000000000000e+00  -1.9550359813798326e-30 -1.1980825804559010e-30 0.0000000000000000e+00  -7.4438386087204519e-31 -3.2801437274093220e-31 0.0000000000000000e+00  5.6958625743035600e-31 3.4127878264476254e-31 0.0000000000000000e+00  6.9039959345484644e-33 -1.5672426327208366e-32 0.0000000000000000e+00  -1.1753850995688663e-31 -7.0281314250727077e-32 0.0000000000000000e+00  3.0196380073061067e-32 2.2401875331750224e-32 0.0000000000000000e+00  1.5534885238161915e-32 8.8035527926744708e-33 0.0000000000000000e+00  -1.0944126182781714e-32 -7.4804054238177880e-33 0.0000000000000000e+00  4.6607318064583839e-34 5.5512396211896502e-34 0.0000000000000000e+00  1.8354953457100960e-33 1.2452616880036227e-33 0.0000000000000000e+00  -7.5210620758325944e-34 -5.5659718257286503e-34 0.0000000000000000e+00  -6.9798755616703209e-35 -4.1809416702059325e-35 0.0000000000000000e+00  1.6508572893422332e-34 1.2252298701831804e-34 0.0000000000000000e+00  -5.1726514621233985e-35 -3.9546557009038538e-35 0.0000000000000000e+00  -7.9413751417572421e-36 -6.4127137399492261e-36 0.0000000000000000e+00  1.1836178045491349e-35 9.4245905325742507e-36 0.0000000000000000e+00  -3.5652151324646080e-36 -2.7683446392291112e-36 0.0000000000000000e+00  -4.6617969490213753e-37 -4.6487341846702173e-37 0.0000000000000000e+00  7.8172657965779480e-37 6.6894485388037264e-37 0.0000000000000000e+00  -2.6606017185243009e-37 -2.1424152418998092e-37 0.0000000000000000e+00  -5.6056105808344012e-39 -1.5076630873058928e-38 0.0000000000000000e+00  4.4165649328399173e-38 4.1755836102128437e-38 0.0000000000000000e+00  -1.9985179831324943e-38 -1.7357147081639366e-38 0.0000000000000000e+00  2.3290584484802541e-39 1.2454320816914906e-39 0.0000000000000000e+00  1.9375489590609255e-39 2.1525757665290152e-39 0.0000000000000000e+00  -1.2791613274222118e-39 -1.2351128443991989e-39 0.0000000000000000e+00  3.4932886550889067e-40 2.9795722810998387e-40 0.0000000000000000e+00  7.0512716630029798e-41 1.0968164742580220e-40 0.0000000000000000e+00  3.0182671378029026e-40 2.7988618187068406e-40 0.0000000000000000e+00  -6.0424523458919522e-40 -7.3132654124899386e-40 0.0000000000000000e+00  1.2916306855585634e-39 1.5519685230017940e-39 0.0000000000000000e+00  -8.0651305919836773e-39 -1.0304942611768258e-38 0.0000000000000000e+00  7.3100132778674659e-38 7.8671419618440713e-38 0.0000000000000000e+00  -2.0855610821882491e-37 -2.0524404068433733e-37 0.0000000000000000e+00  2.7705291136558872e-37 2.9123497256813497e-37 0.0000000000000000e+00  -3.3432665602539340e-36 -3.9388844291268699e-36 0.0000000000000000e+00  8.7769599961071450e-36 1.2121355669426747e-35 0.0000000000000000e+00  -3.1774937628336103e-35 -4.9380872028383764e-35 0.0000000000000000e+00  6.7423652701394298e-35 1.0128956818701259e-34 0.0000000000000000e+00  -5.9995875567901382e-35 -1.2864295853876542e-34 0.0000000000000000e+00  5.3745304398698005e-34 8.2407004016968256e-34 0.0000000000000000e+00  5.3572241230460970e-34 6.7143091950981650e-34 0.0000000000000000e+00  1.4599906304859801e-34 1.2720677520590947e-33 0.0000000000000000e+00  3.4061272365649956e-32 4.5318664571863938e-32 0.0000000000000000e+00  -1.2469824450206683e-31 -1.7148747815901697e-31 0.0000000000000000e+00  -5.3051778588896702e-31 -7.4803790585284267e-31 0.0000000000000000e+00  1.3017024025144033e-30 1.8607895037301740e-30 0.0000000000000000e+00  -9.4749817197790259e-31 -1.4631367376497375e-30 0.0000000000000000e+00  -3.0070353349511170e-30 -5.8987889356886111e-30 0.0000000000000000e+00  1.0023244162405167e-29 2.3286934860754147e-29 0.0000000000000000e+00  1.1670453312100434e-29 2.7358471397550900e-29 0.0000000000000000e+00  -6.6831524415042774e-29 -1.6746048779726141e-28 0.0000000000000000e+00  1.8740999119521568e-29 4.1945987327401938e-29 0.0000000000000000e+00  8.3917060020922666e-29 1.7938656914663742e-28 0.0000000000000000e+00  1.4917812900090896e-29 6.5802576319138947e-29 0.0000000000000000e+00  1.4272299767983719e-28 5.0200647401720247e-28 0.0000000000000000e+00  6.8694596425072703e-29 2.1830349774349137e-28 0.0000000000000000e+00  -1.1232316765955151e-28 -3.5532569347347762e-28 0.0000000000000000e+00  -3.3298583661408928e-28 -1.2176410210100013e-27 0.0000000000000000e+00  1.9280634617398082e-28 7.8427448238187318e-28 0.0000000000000000e+00  2.7840511110033103e-28 1.1757945171960156e-27 0.0000000000000000e+00  2.7491728947851837e-28 1.2372223958992139e-27 0.0000000000000000e+00  2.7793815006028193e-28 1.0744947994099147e-27 0.0000000000000000e+00  -3.1667589833754731e-28 -1.6909548504733911e-27 0.0000000000000000e+00  2.5947004387383888e-29 1.5190632753555973e-29 0.0000000000000000e+00  7.2393754981350195e-29 1.3612816958313526e-28 0.0000000000000000e+00  -1.3044102808674416e-28 -1.0583725554066948e-27 0.0000000000000000e+00  -9.2391730977787763e-29 -1.0672056695573204e-27 0.0000000000000000e+00  -3.4516321413366800e-28 -2.8104263214403389e-27 0.0000000000000000e+00  -3.2010193281996139e-28 -1.8272815562095249e-27 0.0000000000000000e+00  -1.5989005824204481e-28 4.0728081878888007e-28 0.0000000000000000e+00  -1.6922596154289652e-28 -9.1628362112102989e-28 0.0000000000000000e+00  2.4436488007622713e-30 -2.1032362822303150e-27 0.0000000000000000e+00  -1.7435094743902460e-28 4.6909649533977890e-30 0.0000000000000000e+00  -1.6803002117408401e-28 -1.2340222028818837e-28 0.0000000000000000e+00  5.8604418421303035e-29 -1.6825328451706474e-27 0.0000000000000000e+00  -6.5943285336825478e-30 -9.0045324322896210e-28 0.0000000000000000e+00  1.6811466913629993e-28 -1.8411506755137388e-27 0.0000000000000000e+00  -2.1553681645878129e-28 1.0042671818257953e-27 0.0000000000000000e+00  -2.0534743324010889e-28 9.3107245899844801e-28 0.0000000000000000e+00  3.3068287368042933e-28 -1.8734884143808000e-27 0.0000000000000000e+00  1.6893703224368346e-28 -7.5274936435832810e-28 0.0000000000000000e+00  3.1896707483169382e-28 -2.0467665955192435e-27 0.0000000000000000e+00  1.3256934798590658e-28 2.1226922130656685e-28 0.0000000000000000e+00  1.1313406521037313e-28 -2.2225770080618630e-28 0.0000000000000000e+00  4.1151800889134911e-28 -1.6513006938944182e-27 0.0000000000000000e+00  2.4271059225686796e-28 -9.7308741351149970e-28 0.0000000000000000e+00  4.0879871700639633e-28 -2.4662464612119246e-27 0.0000000000000000e+00  6.7142949294006466e-28 -3.6771962871210343e-27 0.0000000000000000e+00  7.3778788253859851e-28 -4.3369309255646611e-27 0.0000000000000000e+00  1.6883216061911629e-28 -9.7518158873490547e-28 0.0000000000000000e+00  -3.5532624177811691e-28 1.7731986668438065e-27 0.0000000000000000e+00  -4.6097450381903163e-28 2.3185936997561954e-27 0.0000000000000000e+00  -4.9029626421052539e-28 2.3593186512893035e-27 0.0000000000000000e+00  -8.6069557801402870e-29 4.5018429264691408e-28 0.0000000000000000e+00  1.3705588294047191e-28 -5.7393162746193306e-28 0.0000000000000000e+00  6.8125644473211729e-29 -3.4086716272748143e-28 0.0000000000000000e+00  2.9646274136423524e-28 -1.3260106570940921e-27 0.0000000000000000e+00  1.3557559483889474e-28 -5.6053890327406139e-28 0.0000000000000000e+00  -1.1758701577340488e-28 4.7528133704643625e-28 0.0000000000000000e+00  -1.0097254244598372e-29 1.0880292153705885e-29 0.0000000000000000e+00  1.7844171600320429e-29 -5.2917683150067011e-29 0.0000000000000000e+00  3.6480506306418888e-29 -1.1367725279333393e-28 0.0000000000000000e+00  -8.6536990168782530e-30 2.3689997865564344e-29 0.0000000000000000e+00  -1.2924330692225913e-29 3.4173682837313051e-29 0.0000000000000000e+00  6.11589683066