<?xml version="1.0"?>
<VTKFile type="UnstructuredGrid"  version="0.1"  >
<UnstructuredGrid>
<Piece  NumberOfPoints="11902" NumberOfCells="23402">
<Points>
<DataArray  type="Float64"  NumberOfComponents="3"  format="ascii">-5 -5 0  5 -5 0  5 5 0  -5 5 0  1.237476877751236 0.001382190325102846 0  -4.9 -5 0  -4.8 -5 0  -4.7 -5 0  -4.6 -5 0  -4.5 -5 0  -4.4 -5 0  -4.3 -5 0  -4.2 -5 0  -4.1 -5 0  -4 -5 0  -3.9 -5 0  -3.8 -5 0  -3.7 -5 0  -3.6 -5 0  -3.5 -5 0  -3.4 -5 0  -3.3 -5 0  -3.2 -5 0  -3.1 -5 0  -3 -5 0  -2.9 -5 0  -2.8 -5 0  -2.7 -5 0  -2.6 -5 0  -2.5 -5 0  -2.4 -5 0  -2.3 -5 0  -2.2 -5 0  -2.1 -5 0  -2 -5 0  -1.9 -5 0  -1.8 -5 0  -1.7 -5 0  -1.6 -5 0  -1.5 -5 0  -1.4 -5 0  -1.3 -5 0  -1.2 -5 0  -1.1 -5 0  -1 -5 0  -0.9000000000000004 -5 0  -0.7999999999999998 -5 0  -0.7000000000000002 -5 0  -0.5999999999999996 -5 0  -0.5 -5 0  -0.4000000000000004 -5 0  -0.2999999999999998 -5 0  -0.2000000000000002 -5 0  -0.09999999999999964 -5 0  0 -5 0  0.09999999999999964 -5 0  0.2000000000000002 -5 0  0.2999999999999998 -5 0  0.4000000000000004 -5 0  0.5 -5 0  0.5999999999999996 -5 0  0.7000000000000002 -5 0  0.7999999999999998 -5 0  0.9000000000000004 -5 0  1 -5 0  1.1 -5 0  1.2 -5 0  1.3 -5 0  1.4 -5 0  1.5 -5 0  1.6 -5 0  1.7 -5 0  1.8 -5 0  1.9 -5 0  2 -5 0  2.1 -5 0  2.2 -5 0  2.3 -5 0  2.4 -5 0  2.5 -5 0  2.6 -5 0  2.7 -5 0  2.8 -5 0  2.9 -5 0  3 -5 0  3.1 -5 0  3.199999999999999 -5 0  3.300000000000001 -5 0  3.4 -5 0  3.5 -5 0  3.6 -5 0  3.699999999999999 -5 0  3.800000000000001 -5 0  3.9 -5 0  4 -5 0  4.1 -5 0  4.199999999999999 -5 0  4.300000000000001 -5 0  4.4 -5 0  4.5 -5 0  4.6 -5 0  4.699999999999999 -5 0  4.800000000000001 -5 0  4.9 -5 0  5 -4.9 0  5 -4.8 0  5 -4.7 0  5 -4.6 0  5 -4.5 0  5 -4.4 0  5 -4.3 0  5 -4.2 0  5 -4.1 0  5 -4 0  5 -3.9 0  5 -3.8 0  5 -3.7 0  5 -3.6 0  5 -3.5 0  5 -3.4 0  5 -3.3 0  5 -3.2 0  5 -3.1 0  5 -3 0  5 -2.9 0  5 -2.8 0  5 -2.7 0  5 -2.6 0  5 -2.5 0  5 -2.4 0  5 -2.3 0  5 -2.2 0  5 -2.1 0  5 -2 0  5 -1.9 0  5 -1.8 0  5 -1.7 0  5 -1.6 0  5 -1.5 0  5 -1.4 0  5 -1.3 0  5 -1.2 0  5 -1.1 0  5 -1 0  5 -0.9000000000000004 0  5 -0.7999999999999998 0  5 -0.7000000000000002 0  5 -0.5999999999999996 0  5 -0.5 0  5 -0.4000000000000004 0  5 -0.2999999999999998 0  5 -0.2000000000000002 0  5 -0.09999999999999964 0  5 0 0  5 0.09999999999999964 0  5 0.2000000000000002 0  5 0.2999999999999998 0  5 0.4000000000000004 0  5 0.5 0  5 0.5999999999999996 0  5 0.7000000000000002 0  5 0.7999999999999998 0  5 0.9000000000000004 0  5 1 0  5 1.1 0  5 1.2 0  5 1.3 0  5 1.4 0  5 1.5 0  5 1.6 0  5 1.7 0  5 1.8 0  5 1.9 0  5 2 0  5 2.1 0  5 2.2 0  5 2.3 0  5 2.4 0  5 2.5 0  5 2.6 0  5 2.7 0  5 2.8 0  5 2.9 0  5 3 0  5 3.1 0  5 3.199999999999999 0  5 3.300000000000001 0  5 3.4 0  5 3.5 0  5 3.6 0  5 3.699999999999999 0  5 3.800000000000001 0  5 3.9 0  5 4 0  5 4.1 0  5 4.199999999999999 0  5 4.300000000000001 0  5 4.4 0  5 4.5 0  5 4.6 0  5 4.699999999999999 0  5 4.800000000000001 0  5 4.9 0  4.9 5 0  4.8 5 0  4.7 5 0  4.6 5 0  4.5 5 0  4.4 5 0  4.3 5 0  4.2 5 0  4.1 5 0  4 5 0  3.9 5 0  3.8 5 0  3.7 5 0  3.6 5 0  3.5 5 0  3.4 5 0  3.3 5 0  3.2 5 0  3.1 5 0  3 5 0  2.9 5 0  2.8 5 0  2.7 5 0  2.6 5 0  2.5 5 0  2.4 5 0  2.3 5 0  2.2 5 0  2.1 5 0  2 5 0  1.9 5 0  1.8 5 0  1.7 5 0  1.6 5 0  1.5 5 0  1.4 5 0  1.3 5 0  1.2 5 0  1.1 5 0  1 5 0  0.9000000000000004 5 0  0.7999999999999998 5 0  0.7000000000000002 5 0  0.5999999999999996 5 0  0.5 5 0  0.4000000000000004 5 0  0.2999999999999998 5 0  0.2000000000000002 5 0  0.09999999999999964 5 0  0 5 0  -0.09999999999999964 5 0  -0.2000000000000002 5 0  -0.2999999999999998 5 0  -0.4000000000000004 5 0  -0.5 5 0  -0.5999999999999996 5 0  -0.7000000000000002 5 0  -0.7999999999999998 5 0  -0.9000000000000004 5 0  -1 5 0  -1.1 5 0  -1.2 5 0  -1.3 5 0  -1.4 5 0  -1.5 5 0  -1.6 5 0  -1.7 5 0  -1.8 5 0  -1.9 5 0  -2 5 0  -2.1 5 0  -2.2 5 0  -2.3 5 0  -2.4 5 0  -2.5 5 0  -2.6 5 0  -2.7 5 0  -2.8 5 0  -2.9 5 0  -3 5 0  -3.1 5 0  -3.199999999999999 5 0  -3.300000000000001 5 0  -3.4 5 0  -3.5 5 0  -3.6 5 0  -3.699999999999999 5 0  -3.800000000000001 5 0  -3.9 5 0  -4 5 0  -4.1 5 0  -4.199999999999999 5 0  -4.300000000000001 5 0  -4.4 5 0  -4.5 5 0  -4.6 5 0  -4.699999999999999 5 0  -4.800000000000001 5 0  -4.9 5 0  -5 4.9 0  -5 4.8 0  -5 4.7 0  -5 4.6 0  -5 4.5 0  -5 4.4 0  -5 4.3 0  -5 4.2 0  -5 4.1 0  -5 4 0  -5 3.9 0  -5 3.8 0  -5 3.7 0  -5 3.6 0  -5 3.5 0  -5 3.4 0  -5 3.3 0  -5 3.2 0  -5 3.1 0  -5 3 0  -5 2.9 0  -5 2.8 0  -5 2.7 0  -5 2.6 0  -5 2.5 0  -5 2.4 0  -5 2.3 0  -5 2.2 0  -5 2.1 0  -5 2 0  -5 1.9 0  -5 1.8 0  -5 1.7 0  -5 1.6 0  -5 1.5 0  -5 1.4 0  -5 1.3 0  -5 1.2 0  -5 1.1 0  -5 1 0  -5 0.9000000000000004 0  -5 0.7999999999999998 0  -5 0.7000000000000002 0  -5 0.5999999999999996 0  -5 0.5 0  -5 0.4000000000000004 0  -5 0.2999999999999998 0  -5 0.2000000000000002 0  -5 0.09999999999999964 0  -5 0 0  -5 -0.09999999999999964 0  -5 -0.2000000000000002 0  -5 -0.2999999999999998 0  -5 -0.4000000000000004 0  -5 -0.5 0  -5 -0.5999999999999996 0  -5 -0.7000000000000002 0  -5 -0.7999999999999998 0  -5 -0.9000000000000004 0  -5 -1 0  -5 -1.1 0  -5 -1.2 0  -5 -1.3 0  -5 -1.4 0  -5 -1.5 0  -5 -1.6 0  -5 -1.7 0  -5 -1.8 0  -5 -1.9 0  -5 -2 0  -5 -2.1 0  -5 -2.2 0  -5 -2.3 0  -5 -2.4 0  -5 -2.5 0  -5 -2.6 0  -5 -2.7 0  -5 -2.8 0  -5 -2.9 0  -5 -3 0  -5 -3.1 0  -5 -3.199999999999999 0  -5 -3.300000000000001 0  -5 -3.4 0  -5 -3.5 0  -5 -3.6 0  -5 -3.699999999999999 0  -5 -3.800000000000001 0  -5 -3.9 0  -5 -4 0  -5 -4.1 0  -5 -4.199999999999999 0  -5 -4.300000000000001 0  -5 -4.4 0  -5 -4.5 0  -5 -4.6 0  -5 -4.699999999999999 0  -5 -4.800000000000001 0  -5 -4.9 0  1.230575499955356 0.09712562618350039 0  1.210342754954911 0.1944321665901001 0  1.177500745700923 0.2911320840567902 0  1.135273314821901 0.3811440079030803 0  1.079571106294984 0.4716449822063497 0  1.015133017668446 0.556456657930935 0  0.9389127547675032 0.6362100139074855 0  0.8538626961970316 0.7097479001465964 0  0.7625607368310422 0.7751118249013481 0  0.6614840891867184 0.8329517067597095 0  0.5527479129878432 0.8849343716009251 0  0.4415218428894646 0.9278350664519462 0  0.3287081378687012 0.960675225911987 0  0.2074367240296783 0.982521903014973 0  0.08941630519501245 0.9997752710861469 0  -0.02762500231476429 1.002764086266129 0  -0.1452611428219622 0.9906359588674318 0  -0.2684262376223054 0.9724032247543675 0  -0.3860154706140685 0.9472609645418131 0  -0.4967882348500575 0.9109059839636682 0  -0.6043535117721045 0.8647198955130163 0  -0.7060896597268317 0.8102357057918478 0  -0.8001651165167069 0.7461848137109952 0  -0.8892600904678084 0.6741619535282358 0  -0.9720306072418127 0.5953442810339014 0  -1.043739514191027 0.513826485730397 0  -1.104724570814223 0.4275914919873002 0  -1.15503208614668 0.3360154496679896 0  -1.192328067041825 0.2439078448917745 0  -1.216791464383189 0.1488837746201563 0  -1.228880839310555 0.05076335231322535 0  -1.228839960239424 -0.0486835827879002 0  -1.216664591325008 -0.1462551057686604 0  -1.192339633870653 -0.2408971290053329 0  -1.153426959105357 -0.336021574402973 0  -1.104953143545639 -0.4270087248466759 0  -1.04502739227871 -0.5133240072652456 0  -0.9740966390470276 -0.5942153741600579 0  -0.8919112990008705 -0.6717551854812696 0  -0.8029301439429624 -0.742347568848168 0  -0.7072345094852067 -0.8033333988595185 0  -0.6040881747653042 -0.85698072468338 0  -0.4930847087947139 -0.9054946990700737 0  -0.3808735612217996 -0.9443042958642635 0  -0.2651214410186902 -0.9716368207081638 0  -0.1439112014184785 -0.9900761417828301 0  -0.02789431209654811 -1.001871777263901 0  0.08970897084794449 -0.9957340926911941 0  0.2116547691054678 -0.9797121768099591 0  0.3309207846730628 -0.9590616665546078 0  0.4455025297209729 -0.9264692413055741 0  0.5548847457897987 -0.8840260527577483 0  0.6623344750676188 -0.832882404743558 0  0.7626249267976274 -0.7762759335688508 0  0.8539276073882729 -0.7106616307278952 0  0.9383211743460168 -0.6359580475219138 0  1.012981249082281 -0.5557809415693737 0  1.079553969115927 -0.4708033924124923 0  1.13622099046023 -0.3812220619292793 0  1.179146235783293 -0.2892408324157838 0  1.210827602695062 -0.19353932675185 0  1.230720800988144 -0.09671661679679523 0  -2.448633282645739 4.918245361863011 0  -2.44851393749463 -4.910635676264945 0  4.91056315149279 2.447994295712788 0  4.918676395168543 -2.449446776856811 0  2.446256431153305 -4.895891792251735 0  2.440686973352114 4.899649067317999 0  -4.910589147921047 -2.448019662897901 0  -4.910586675257917 2.448023535268117 0  -1.748590156627226 4.911192088846432 0  -1.74437366218802 -4.914626184572877 0  4.92077721250633 1.74415972728327 0  4.909331375046104 -1.747933907077974 0  -4.909623515002903 -1.747666751110985 0  -4.910444522572154 1.747410554637435 0  1.745867690722684 4.905061699402058 0  1.747290236305655 -4.893229500863328 0  -1.148886103570369 4.909013902079779 0  -1.129738098541615 -4.916912810053312 0  -4.909384805922902 -1.147977422125147 0  -4.909203740704642 1.147777756149205 0  1.143877957163296 -4.913105146608087 0  1.148895477902097 4.909001164202854 0  4.909526353979648 1.146253277009337 0  4.920334215754667 -1.152029409550617 0  -0.5466922189287317 -4.910221748890958 0  -0.5464725668151533 4.918887970818001 0  -4.908152511401731 -0.5487360833439912 0  -4.908176573026375 0.5472934362731283 0  4.907475524588587 -0.5490550149067048 0  4.919104835517896 0.5458085782352254 0  0.5424769112923319 -4.897128065785658 0  0.5512016960865745 4.915717644928546 0  -4.911972099762075 -3.048360821363572 0  4.918537762074496 3.04637261090169 0  4.91148073313634 -3.048337568411448 0  -4.91281946684048 3.045451835601176 0  3.055351497610259 -4.917465013110376 0  -3.048686177777462 -4.911406312410358 0  3.052252238850014 4.913482656646043 0  -3.048131415103691 4.912295430870051 0  -4.907273754026107 -0.04991047881229978 0  0.04512131066386271 -4.912173541101151 0  0.04956911770869317 4.919185938545123 0  4.914313664576683 -0.05129238611160621 0  3.545659378294057 -4.919084239653377 0  -3.548943349590257 4.9
[...]
<PointData  Vectors="f_3426"> 
<DataArray  type="Float64"  Name="f_3426"  NumberOfComponents="3" format="ascii">-9.6760768658047096e-41 -1.2512715384116993e-40 0.0000000000000000e+00  1.0934020377008438e-40 -1.3371490289970636e-40 0.0000000000000000e+00  -1.8728523004443128e-40 -1.7966245118291762e-40 0.0000000000000000e+00  -2.0433035877868256e-40 2.0598095885319710e-40 0.0000000000000000e+00  1.6244913627955995e+01 3.5478413265586088e-02 0.0000000000000000e+00  2.3897872441952766e-40 2.7757398461115992e-40 0.0000000000000000e+00  7.2106238769415243e-40 6.9870846996966391e-40 0.0000000000000000e+00  -1.7387122628407616e-39 -1.8463278992827703e-39 0.0000000000000000e+00  1.4605125582395287e-38 1.7048810814124954e-38 0.0000000000000000e+00  -4.9389401396080777e-38 -5.7389705723272981e-38 0.0000000000000000e+00  1.7961701194389219e-37 2.3576536183990255e-37 0.0000000000000000e+00  -6.5838952377733038e-37 -9.1054492601792698e-37 0.0000000000000000e+00  3.7102036879332790e-36 4.9825446527746167e-36 0.0000000000000000e+00  -2.2497743514891344e-35 -2.8371624734977084e-35 0.0000000000000000e+00  9.4520283903555578e-35 1.2056589934042073e-34 0.0000000000000000e+00  -2.1067979105745538e-34 -2.5685860009314648e-34 0.0000000000000000e+00  4.2016001239085318e-34 4.7816680944078714e-34 0.0000000000000000e+00  1.6397575237251663e-33 1.9240795249736504e-33 0.0000000000000000e+00  -6.8468311631026313e-33 -8.9108150802227513e-33 0.0000000000000000e+00  1.7746083984038324e-32 2.5941431716348081e-32 0.0000000000000000e+00  -1.0689501464034667e-31 -1.5142817011762904e-31 0.0000000000000000e+00  2.8624009352173862e-31 4.0731378683266908e-31 0.0000000000000000e+00  2.0548780541466636e-31 2.4788538040194436e-31 0.0000000000000000e+00  -1.6270683725843300e-30 -2.0874970082083912e-30 0.0000000000000000e+00  -5.1062394241815096e-31 -1.0934710204581079e-30 0.0000000000000000e+00  -8.3669065203877745e-31 -2.1291775412508305e-30 0.0000000000000000e+00  3.6669516014168242e-30 7.2882263745850952e-30 0.0000000000000000e+00  -8.2253251159648135e-30 -2.6945856180189171e-29 0.0000000000000000e+00  3.0195938150934345e-29 7.7360883860148417e-29 0.0000000000000000e+00  1.6972753783791530e-29 4.6684555051003467e-29 0.0000000000000000e+00  -1.5226287955300521e-28 -3.7551871628106192e-28 0.0000000000000000e+00  -5.9231458490438734e-29 -1.6288924567833588e-28 0.0000000000000000e+00  -9.2985837004453712e-29 -3.5009958795329199e-28 0.0000000000000000e+00  1.5044614245660594e-28 4.7939136115614650e-28 0.0000000000000000e+00  4.1033190421739979e-28 1.4843935472560127e-27 0.0000000000000000e+00  3.2436668941573792e-29 -9.0171701683117644e-29 0.0000000000000000e+00  1.6404561408981626e-28 4.3584145620442878e-28 0.0000000000000000e+00  -5.8972122019952085e-29 -2.7285124402911389e-28 0.0000000000000000e+00  -4.5928032844658347e-28 -1.5136067627206263e-27 0.0000000000000000e+00  -4.4186620848049149e-28 -1.4440006176867356e-27 0.0000000000000000e+00  -1.9920989469919897e-29 -5.5175463253898666e-29 0.0000000000000000e+00  4.2928644414753062e-28 1.6764361052583737e-27 0.0000000000000000e+00  2.7829152919179809e-28 9.8707432374675642e-28 0.0000000000000000e+00  1.2645485029036176e-29 -1.2962023061922650e-28 0.0000000000000000e+00  1.3454875386058287e-28 3.9238473298120773e-28 0.0000000000000000e+00  -2.1295776315073741e-28 8.8513062583632992e-28 0.0000000000000000e+00  -7.7594862088680521e-29 1.5562314937024597e-27 0.0000000000000000e+00  1.1505812487808229e-28 -9.2243638801350507e-28 0.0000000000000000e+00  1.1489457851798129e-28 5.0553689970793924e-27 0.0000000000000000e+00  -2.3400449570269512e-28 -2.7945785255152253e-29 0.0000000000000000e+00  -5.5136982214642002e-28 -4.3676777099117511e-27 0.0000000000000000e+00  -5.5797571389438307e-28 -2.4795894888855163e-27 0.0000000000000000e+00  -3.6253738441576060e-28 -3.6370404548097791e-27 0.0000000000000000e+00  1.8407884257303350e-29 -9.3307577715570839e-27 0.0000000000000000e+00  1.6533466014588943e-28 -1.0688997459741665e-26 0.0000000000000000e+00  -3.6506637152972853e-29 -1.8261503049780675e-27 0.0000000000000000e+00  -1.1644713878893465e-29 -5.7530663168085385e-27 0.0000000000000000e+00  -2.8581378524398254e-29 -2.0488994200473167e-27 0.0000000000000000e+00  1.0362554639715636e-28 -3.7007762344638239e-27 0.0000000000000000e+00  -1.1273209536340971e-28 1.7964045779731890e-27 0.0000000000000000e+00  3.7878155761864926e-28 -4.9375257918231991e-27 0.0000000000000000e+00  5.2631745089404540e-28 -4.5138925736870390e-27 0.0000000000000000e+00  -3.8906696129004810e-29 1.0157495055565665e-27 0.0000000000000000e+00  -6.8980751948388537e-28 6.9117182986718754e-27 0.0000000000000000e+00  -3.5632293499195389e-28 2.7618124336752327e-27 0.0000000000000000e+00  -3.2133799560130711e-28 1.5100749769962888e-27 0.0000000000000000e+00  -6.5805758553003891e-28 3.9928474322568172e-27 0.0000000000000000e+00  -3.8345505396173434e-28 2.1121934939301211e-27 0.0000000000000000e+00  3.9194394344831084e-28 -2.4691337784252200e-27 0.0000000000000000e+00  2.6827964757132017e-28 -1.1663475406877752e-27 0.0000000000000000e+00  5.8779853217190731e-29 -1.6292817972743814e-28 0.0000000000000000e+00  2.7859452218075701e-28 -8.4028848942941299e-28 0.0000000000000000e+00  1.8283798380118073e-28 -6.5732093369586314e-28 0.0000000000000000e+00  -1.5936544014615753e-28 5.7655225461528068e-28 0.0000000000000000e+00  -9.2893111996018870e-29 2.9852388651372171e-28 0.0000000000000000e+00  -7.3115609070996163e-29 2.4675806385886220e-28 0.0000000000000000e+00  1.8422808306589223e-29 -6.0115485601941737e-29 0.0000000000000000e+00  4.9956497555483019e-29 -1.5478897041861872e-28 0.0000000000000000e+00  7.5318429552495163e-29 -2.1526349839125323e-28 0.0000000000000000e+00  -8.3580670533976929e-30 1.4062269750130543e-29 0.0000000000000000e+00  -6.2104512370439405e-29 1.5347147839436442e-28 0.0000000000000000e+00  1.0088043734196148e-29 -2.4510809136549257e-29 0.0000000000000000e+00  3.5886398957043163e-30 -8.3287925553176488e-30 0.0000000000000000e+00  -1.1561905317295271e-29 2.1681492300694778e-29 0.0000000000000000e+00  -1.1740144255120378e-30 1.5346480326438750e-30 0.0000000000000000e+00  1.4321357772746856e-30 -2.2874589258253418e-30 0.0000000000000000e+00  -6.9515470548466968e-31 1.0801366856053566e-30 0.0000000000000000e+00  1.0113495160692109e-31 -1.5987731497692597e-31 0.0000000000000000e+00  -1.0802344131611262e-32 1.7101042418848971e-32 0.0000000000000000e+00  -2.3738257672346518e-33 3.0587106374479276e-33 0.0000000000000000e+00  6.3423368221988781e-33 -7.9634981740271080e-33 0.0000000000000000e+00  4.3101273056092399e-36 6.7501901417221983e-35 0.0000000000000000e+00  -2.6693229427637228e-34 3.0225603972568141e-34 0.0000000000000000e+00  2.1563261298380684e-35 -1.7052890892428821e-35 0.0000000000000000e+00  -7.7379583462020388e-36 9.6101348150744345e-36 0.0000000000000000e+00  2.9776518833154475e-36 -3.4664955448898110e-36 0.0000000000000000e+00  -1.6454303682324501e-36 1.7444705189122145e-36 0.0000000000000000e+00  4.9576608746522888e-37 -5.5946459619942450e-37 0.0000000000000000e+00  -2.4263159286430738e-37 2.5756161569298489e-37 0.0000000000000000e+00  7.9707325994338345e-38 -8.1794417897319801e-38 0.0000000000000000e+00  -1.4743553627994554e-38 1.5505282409142391e-38 0.0000000000000000e+00  5.7530473478200572e-39 -5.8175782540310387e-39 0.0000000000000000e+00  -4.4428636391983106e-40 3.8932780525707950e-40 0.0000000000000000e+00  -1.9409177273624160e-40 2.3350020400134164e-40 0.0000000000000000e+00  5.1181805445564501e-42 -1.3238444592077238e-43 0.0000000000000000e+00  3.7473586193350595e-40 -3.1048467501838535e-40 0.0000000000000000e+00  -8.3549444405183451e-40 6.8772731078879793e-40 0.0000000000000000e+00  2.5984805844905204e-39 -2.4017630495357831e-39 0.0000000000000000e+00  -6.7304448895819129e-40 1.1831732973742987e-39 0.0000000000000000e+00  -1.4867213116115456e-38 1.1546540323305132e-38 0.0000000000000000e+00  5.0193594616862160e-38 -4.2180495016241258e-38 0.0000000000000000e+00  -5.6042367186711809e-38 5.2837180671271452e-38 0.0000000000000000e+00  -1.5704963949793987e-37 1.0933630841437622e-37 0.0000000000000000e+00  8.1682149538370628e-37 -6.3657984311701247e-37 0.0000000000000000e+00  -1.2575732706039299e-36 1.0445989993096949e-36 0.0000000000000000e+00  -1.6413744903714388e-36 1.0497385666983638e-36 0.0000000000000000e+00  1.1530078522669407e-35 -8.5166549747550403e-36 0.0000000000000000e+00  -2.0261757266032467e-35 1.5514268273578966e-35 0.0000000000000000e+00  -2.0768654699936065e-35 1.3245740279490524e-35 0.0000000000000000e+00  1.6744653470353042e-34 -1.1806510043370281e-34 0.0000000000000000e+00  -2.4668970976799655e-34 1.7753205148952129e-34 0.0000000000000000e+00  -4.0720496040721553e-34 2.6817597129689242e-34 0.0000000000000000e+00  2.2486441034420471e-33 -1.5095394676020009e-33 0.0000000000000000e+00  -2.0029602009954020e-33 1.3455298588898553e-33 0.0000000000000000e+00  -8.5763633740575949e-33 5.5125014657839731e-33 0.0000000000000000e+00  2.5442050449464800e-32 -1.6083077618198178e-32 0.0000000000000000e+00  4.9151806238609416e-33 -3.2435787486099294e-33 0.0000000000000000e+00  -1.4327514893632687e-31 8.6585198342280930e-32 0.0000000000000000e+00  1.7762987248954536e-31 -1.0138064738491331e-31 0.0000000000000000e+00  4.9781274047409656e-31 -2.9165685514219724e-31 0.0000000000000000e+00  -1.4020885350586761e-30 7.6674995842420955e-31 0.0000000000000000e+00  -9.4049579952130162e-31 5.7748811745530646e-31 0.0000000000000000e+00  7.7126155449503721e-30 -4.0224181443644262e-30 0.0000000000000000e+00  -1.8664808371840449e-30 4.4056981849014036e-31 0.0000000000000000e+00  -3.4827122380187240e-29 1.7371623957333653e-29 0.0000000000000000e+00  2.7464797271985159e-29 -9.8597900308397737e-30 0.0000000000000000e+00  1.4460436603047459e-28 -6.9348375897444882e-29 0.0000000000000000e+00  -1.6006967134430697e-28 5.2401382248692473e-29 0.0000000000000000e+00  -6.1181734877847527e-28 2.7694593164237485e-28 0.0000000000000000e+00  6.4218114443861105e-28 -1.5919200543556625e-28 0.0000000000000000e+00  2.5733513264430306e-27 -1.0595383590054860e-27 0.0000000000000000e+00  -1.9553965793883741e-27 2.0539474335137667e-28 0.0000000000000000e+00  -9.9813067285015346e-27 3.2560914550318525e-27 0.0000000000000000e+00  2.7321745607277544e-27 1.0698499667592073e-27 0.0000000000000000e+00  3.1653765279043706e-26 -7.3690028911405441e-27 0.0000000000000000e+00  1.5824976701211515e-26 -7.5856065657377470e-27 0.0000000000000000e+00  -8.7192612377757626e-26 1.1948344748007508e-26 0.0000000000000000e+00  -1.3015339989046521e-25 2.0685105005371670e-26 0.0000000000000000e+00  1.5454837883453837e-25 -3.5600180432813593e-26 0.0000000000000000e+00  8.6349468762133388e-25 -1.6792879734376971e-25 0.0000000000000000e+00  1.5449551849144209e-24 -2.7727396203996363e-25 0.0000000000000000e+00  1.8437293919869589e-24 -2.8026638230517731e-25 0.0000000000000000e+00  1.7612005144194115e-24 -1.5718146931451610e-25 0.0000000000000000e+00  1.7541707231985266e-24 1.9043597840593024e-26 0.0000000000000000e+00  1.8790927728905013e-24 1.7578128360751901e-25 0.0000000000000000e+00  1.7588571799225339e-24 2.3709394516779014e-25 0.0000000000000000e+00  1.1731864999354760e-24 1.7990285579216618e-25 0.0000000000000000e+00  3.7199008147290837e-25 5.7102025574117423e-26 0.0000000000000000e+00  -1.2960859426006959e-25 -2.9023204390388261e-26 0.0000000000000000e+00  -1.9136447340563918e-25 -3.6382128935477408e-26 0.0000000000000000e+00  -3.3611915905317544e-26 -2.3121992694478197e-28 0.0000000000000000e+00  5.6579632442535903e-26 1.8881805031548035e-26 0.0000000000000000e+00  3.4712039181833662e-26 1.0083348696724383e-26 0.0000000000000000e+00  -4.3717834971112634e-27 -1.8307897333662357e-27 0.0000000000000000e+00  -9.6326245783829267e-27 -3.0974057028640647e-27 0.0000000000000000e+00  -4.6722687157095147e-28 1.0807598734171464e-29 0.0000000000000000e+00  2.4628409367534546e-27 9.0665689414618560e-28 0.0000000000000000e+00  2.7173149882440601e-28 6.7160950054789256e-29 0.0000000000000000e+00  -5.9874552204751260e-28 -2.3912287799967844e-28 0.0000000000000000e+00  -5.7995379879300628e-29 -1.5572120278553805e-29 0.0000000000000000e+00  1.3983751509784299e-28 5.9505752051018731e-29 0.0000000000000000e+00  6.0232066511719609e-31 -1.8978268207157072e-30 0.0000000000000000e+00  -3.0799054289840555e-29 -1.3835300831170816e-29 0.0000000000000000e+00  3.6570108705005676e-30 2.2563967237191647e-30 0.0000000000000000e+00  5.6977554263676996e-30 2.6742256338064059e-30 0.0000000000000000e+00  -1.8535345163204478e-30 -1.0447408789760272e-30 0.0000000000000000e+00  -8.0545457618415710e-31 -3.7949348185388760e-31 0.0000000000000000e+00  5.5954325135139396e-31 3.1877956974398621e-31 0.0000000000000000e+00  1.9760639889255663e-32 -6.9604792910818158e-34 0.0000000000000000e+00  -1.1789737035956094e-31 -6.8845797179291636e-32 0.0000000000000000e+00  2.7740827043253157e-32 1.9053441016177128e-32 0.0000000000000000e+00  1.6238102950783979e-32 9.4291680731289805e-33 0.0000000000000000e+00  -1.0654950233033833e-32 -7.0294688942369116e-33 0.0000000000000000e+00  2.5007560481865804e-34 3.1738084092835706e-34 0.0000000000000000e+00  1.8519301956676193e-33 1.2445506549261289e-33 0.0000000000000000e+00  -7.1494017941056065e-34 -5.1388993844108354e-34 0.0000000000000000e+00  -8.7901611944999895e-35 -5.7165187218231754e-35 0.0000000000000000e+00  1.6509061009263127e-34 1.2091304198596308e-34 0.0000000000000000e+00  -4.8239348458195220e-35 -3.6431535296376623e-35 0.0000000000000000e+00  -9.5258063335026226e-36 -7.4369291779376944e-36 0.0000000000000000e+00  1.1897007400935761e-35 9.3543927095919274e-36 0.0000000000000000e+00  -3.3033990608908483e-36 -2.5745248241540458e-36 0.0000000000000000e+00  -6.0533908507948151e-37 -5.4361145130669890e-37 0.0000000000000000e+00  8.0355845084363298e-37 6.7596626560521704e-37 0.0000000000000000e+00  -2.5195624011046527e-37 -2.0493769749064898e-37 0.0000000000000000e+00  -1.6874987961154314e-38 -2.1134573971346889e-38 0.0000000000000000e+00  4.7468443502204904e-38 4.3387729097683691e-38 0.0000000000000000e+00  -1.9777296354767672e-38 -1.7209154911417410e-38 0.0000000000000000e+00  1.6245109531272509e-39 8.6744088887823687e-40 0.0000000000000000e+00  2.2740708936538992e-39 2.3357937651414543e-39 0.0000000000000000e+00  -1.3433550836687367e-39 -1.2732765550330755e-39 0.0000000000000000e+00  3.3329912339758445e-40 2.8995819936817797e-40 0.0000000000000000e+00  9.9339692346021133e-41 1.2646003728283343e-40 0.0000000000000000e+00  3.0143344695259061e-40 2.8400865576528522e-40 0.0000000000000000e+00  -6.9428332492283285e-40 -7.9465665387816261e-40 0.0000000000000000e+00  1.4375437615905283e-39 1.6573509850472829e-39 0.0000000000000000e+00  -9.3968111844660285e-39 -1.1190629322440692e-38 0.0000000000000000e+00  7.8498075993552059e-38 8.2759496180715605e-38 0.0000000000000000e+00  -2.1274818386442055e-37 -2.0780280879141618e-37 0.0000000000000000e+00  2.7162825274200802e-37 2.7966720411089416e-37 0.0000000000000000e+00  -3.4208273206396244e-36 -3.9699673032473414e-36 0.0000000000000000e+00  9.1619367207765924e-36 1.2318190359447880e-35 0.0000000000000000e+00  -3.4602234850812889e-35 -5.1604757437640676e-35 0.0000000000000000e+00  7.5842067391213227e-35 1.1075763503498536e-34 0.0000000000000000e+00  -1.0025772941358080e-34 -1.8113550353739267e-34 0.0000000000000000e+00  7.1607942404845762e-34 1.0582139393891749e-33 0.0000000000000000e+00  2.1901362807563518e-35 -2.9417305941636457e-35 0.0000000000000000e+00  1.5959688701534778e-33 3.1849544748933656e-33 0.0000000000000000e+00  3.3971984844598802e-32 4.6323311617682750e-32 0.0000000000000000e+00  -1.3719534718420331e-31 -1.9400471529701453e-31 0.0000000000000000e+00  -5.0029853452232483e-31 -7.1339685860242492e-31 0.0000000000000000e+00  1.1435267664954919e-30 1.6298199526772778e-30 0.0000000000000000e+00  -6.3263426186485039e-31 -9.0212688896463135e-31 0.0000000000000000e+00  -2.8643010393101563e-30 -5.5548598999959860e-30 0.0000000000000000e+00  9.0806130950154190e-30 2.0565857594743462e-29 0.0000000000000000e+00  1.1742997345575762e-29 2.6825178178058958e-29 0.0000000000000000e+00  -7.0748847442921222e-29 -1.6982544782308963e-28 0.0000000000000000e+00  2.1422080412271349e-29 4.7376680512975092e-29 0.0000000000000000e+00  8.7332602969240373e-29 1.7959893361231018e-28 0.0000000000000000e+00  1.8368071298856753e-29 7.5519330355683276e-29 0.0000000000000000e+00  1.7249592948304151e-28 6.0344091671197141e-28 0.0000000000000000e+00  8.0137903661855077e-29 2.6563730639445803e-28 0.0000000000000000e+00  -1.5546756992391792e-28 -5.5985410770147971e-28 0.0000000000000000e+00  -3.6006326781889206e-28 -1.2506670248564412e-27 0.0000000000000000e+00  2.3908907273457023e-28 9.5580936978466191e-28 0.0000000000000000e+00  3.7395640431513077e-28 1.6473804924341738e-27 0.0000000000000000e+00  3.1022062634676114e-28 1.3096946988279975e-27 0.0000000000000000e+00  2.4977798030426853e-28 8.2202085811464446e-28 0.0000000000000000e+00  -4.4210541237735040e-28 -2.3707561385923390e-27 0.0000000000000000e+00  -4.1158916675049752e-29 -5.1565288310764613e-28 0.0000000000000000e+00  2.6159345694681037e-29 -1.5613778182513167e-28 0.0000000000000000e+00  -2.0820647465352569e-28 -1.4740121317141743e-27 0.0000000000000000e+00  -1.7282235698597402e-28 -1.4063450045605362e-27 0.0000000000000000e+00  -3.8708140804820430e-28 -2.5381820341919276e-27 0.0000000000000000e+00  -2.6439653593065837e-28 -1.1738847701125976e-27 0.0000000000000000e+00  -1.3727467807860408e-29 1.2045352721118435e-27 0.0000000000000000e+00  -1.2189457274124820e-28 -4.4655568114927902e-28 0.0000000000000000e+00  -9.1355691394128454e-29 -2.3465433012375850e-27 0.0000000000000000e+00  -9.7784553986904611e-29 5.1244373005981634e-28 0.0000000000000000e+00  -9.7984589319766859e-29 3.7248381857387735e-28 0.0000000000000000e+00  2.1806578166301023e-29 -1.6306636631648282e-27 0.0000000000000000e+00  -4.6000587634255898e-30 -6.7241597488097790e-28 0.0000000000000000e+00  1.4649390987939422e-28 -1.7493153653752092e-27 0.0000000000000000e+00  -1.9767238826438447e-28 1.5180904119891123e-27 0.0000000000000000e+00  -1.9372966829325008e-28 1.4174714574251025e-27 0.0000000000000000e+00  3.0409588733926436e-28 -1.8160550999804665e-27 0.0000000000000000e+00  1.4800620312832949e-28 -5.3305141524778640e-28 0.0000000000000000e+00  3.3347969799300009e-28 -2.1837350810015935e-27 0.0000000000000000e+00  6.6697965155516987e-29 8.6227953885746677e-28 0.0000000000000000e+00  7.2878982515748002e-29 1.8728504110231609e-28 0.0000000000000000e+00  3.8411757300378969e-28 -1.2282434304083040e-27 0.0000000000000000e+00  2.1667507794445552e-28 -6.4955995601733158e-28 0.0000000000000000e+00  4.6833362253531064e-28 -2.6158448555104498e-27 0.0000000000000000e+00  7.2666248116497502e-28 -3.5792388015641538e-27 0.0000000000000000e+00  8.5685944452425605e-28 -4.5556918644132023e-27 0.0000000000000000e+00  2.1306725579943046e-28 -1.1397051594281840e-27 0.0000000000000000e+00  -3.7175382019898866e-28 1.5676795014195032e-27 0.0000000000000000e+00  -5.3290035399754415e-28 2.4685244868275358e-27 0.0000000000000000e+00  -5.8026096728765557e-28 2.5985251430796795e-27 0.0000000000000000e+00  -1.1802668505832880e-28 5.5557008480441487e-28 0.0000000000000000e+00  1.4708233025671166e-28 -5.6510957797740673e-28 0.0000000000000000e+00  9.0606339477640398e-29 -4.0146493960290862e-28 0.0000000000000000e+00  3.8466438607288921e-28 -1.5405722379746754e-27 0.0000000000000000e+00  1.7144369658953206e-28 -6.2471936773699832e-28 0.0000000000000000e+00  -1.4568347960375048e-28 5.2992910214775072e-28 0.0000000000000000e+00  -1.0863453148194500e-29 5.0609927900658543e-30 0.0000000000000000e+00  2.0548505107025372e-29 -5.5848038055405423e-29 0.0000000000000000e+00  4.4154017283790342e-29 -1.2110168956550622e-28 0.0000000000000000e+00  -1.0204100411331975e-29 2.5335198844826128e-29 0.0000000000000000e+00  -1.5115721855707988e-29 3.6396934748740131e-29 0.0000000000000000e+00  8.6310649