<?xml version="1.0"?>
<VTKFile type="UnstructuredGrid"  version="0.1"  >
<UnstructuredGrid>
<Piece  NumberOfPoints="11902" NumberOfCells="23402">
<Points>
<DataArray  type="Float64"  NumberOfComponents="3"  format="ascii">-5 -5 0  5 -5 0  5 5 0  -5 5 0  1.029565873914105 0.00019088809368002 0  -4.9 -5 0  -4.8 -5 0  -4.7 -5 0  -4.6 -5 0  -4.5 -5 0  -4.4 -5 0  -4.3 -5 0  -4.2 -5 0  -4.1 -5 0  -4 -5 0  -3.9 -5 0  -3.8 -5 0  -3.7 -5 0  -3.6 -5 0  -3.5 -5 0  -3.4 -5 0  -3.3 -5 0  -3.2 -5 0  -3.1 -5 0  -3 -5 0  -2.9 -5 0  -2.8 -5 0  -2.7 -5 0  -2.6 -5 0  -2.5 -5 0  -2.4 -5 0  -2.3 -5 0  -2.2 -5 0  -2.1 -5 0  -2 -5 0  -1.9 -5 0  -1.8 -5 0  -1.7 -5 0  -1.6 -5 0  -1.5 -5 0  -1.4 -5 0  -1.3 -5 0  -1.2 -5 0  -1.1 -5 0  -1 -5 0  -0.9000000000000004 -5 0  -0.7999999999999998 -5 0  -0.7000000000000002 -5 0  -0.5999999999999996 -5 0  -0.5 -5 0  -0.4000000000000004 -5 0  -0.2999999999999998 -5 0  -0.2000000000000002 -5 0  -0.09999999999999964 -5 0  0 -5 0  0.09999999999999964 -5 0  0.2000000000000002 -5 0  0.2999999999999998 -5 0  0.4000000000000004 -5 0  0.5 -5 0  0.5999999999999996 -5 0  0.7000000000000002 -5 0  0.7999999999999998 -5 0  0.9000000000000004 -5 0  1 -5 0  1.1 -5 0  1.2 -5 0  1.3 -5 0  1.4 -5 0  1.5 -5 0  1.6 -5 0  1.7 -5 0  1.8 -5 0  1.9 -5 0  2 -5 0  2.1 -5 0  2.2 -5 0  2.3 -5 0  2.4 -5 0  2.5 -5 0  2.6 -5 0  2.7 -5 0  2.8 -5 0  2.9 -5 0  3 -5 0  3.1 -5 0  3.199999999999999 -5 0  3.300000000000001 -5 0  3.4 -5 0  3.5 -5 0  3.6 -5 0  3.699999999999999 -5 0  3.800000000000001 -5 0  3.9 -5 0  4 -5 0  4.1 -5 0  4.199999999999999 -5 0  4.300000000000001 -5 0  4.4 -5 0  4.5 -5 0  4.6 -5 0  4.699999999999999 -5 0  4.800000000000001 -5 0  4.9 -5 0  5 -4.9 0  5 -4.8 0  5 -4.7 0  5 -4.6 0  5 -4.5 0  5 -4.4 0  5 -4.3 0  5 -4.2 0  5 -4.1 0  5 -4 0  5 -3.9 0  5 -3.8 0  5 -3.7 0  5 -3.6 0  5 -3.5 0  5 -3.4 0  5 -3.3 0  5 -3.2 0  5 -3.1 0  5 -3 0  5 -2.9 0  5 -2.8 0  5 -2.7 0  5 -2.6 0  5 -2.5 0  5 -2.4 0  5 -2.3 0  5 -2.2 0  5 -2.1 0  5 -2 0  5 -1.9 0  5 -1.8 0  5 -1.7 0  5 -1.6 0  5 -1.5 0  5 -1.4 0  5 -1.3 0  5 -1.2 0  5 -1.1 0  5 -1 0  5 -0.9000000000000004 0  5 -0.7999999999999998 0  5 -0.7000000000000002 0  5 -0.5999999999999996 0  5 -0.5 0  5 -0.4000000000000004 0  5 -0.2999999999999998 0  5 -0.2000000000000002 0  5 -0.09999999999999964 0  5 0 0  5 0.09999999999999964 0  5 0.2000000000000002 0  5 0.2999999999999998 0  5 0.4000000000000004 0  5 0.5 0  5 0.5999999999999996 0  5 0.7000000000000002 0  5 0.7999999999999998 0  5 0.9000000000000004 0  5 1 0  5 1.1 0  5 1.2 0  5 1.3 0  5 1.4 0  5 1.5 0  5 1.6 0  5 1.7 0  5 1.8 0  5 1.9 0  5 2 0  5 2.1 0  5 2.2 0  5 2.3 0  5 2.4 0  5 2.5 0  5 2.6 0  5 2.7 0  5 2.8 0  5 2.9 0  5 3 0  5 3.1 0  5 3.199999999999999 0  5 3.300000000000001 0  5 3.4 0  5 3.5 0  5 3.6 0  5 3.699999999999999 0  5 3.800000000000001 0  5 3.9 0  5 4 0  5 4.1 0  5 4.199999999999999 0  5 4.300000000000001 0  5 4.4 0  5 4.5 0  5 4.6 0  5 4.699999999999999 0  5 4.800000000000001 0  5 4.9 0  4.9 5 0  4.8 5 0  4.7 5 0  4.6 5 0  4.5 5 0  4.4 5 0  4.3 5 0  4.2 5 0  4.1 5 0  4 5 0  3.9 5 0  3.8 5 0  3.7 5 0  3.6 5 0  3.5 5 0  3.4 5 0  3.3 5 0  3.2 5 0  3.1 5 0  3 5 0  2.9 5 0  2.8 5 0  2.7 5 0  2.6 5 0  2.5 5 0  2.4 5 0  2.3 5 0  2.2 5 0  2.1 5 0  2 5 0  1.9 5 0  1.8 5 0  1.7 5 0  1.6 5 0  1.5 5 0  1.4 5 0  1.3 5 0  1.2 5 0  1.1 5 0  1 5 0  0.9000000000000004 5 0  0.7999999999999998 5 0  0.7000000000000002 5 0  0.5999999999999996 5 0  0.5 5 0  0.4000000000000004 5 0  0.2999999999999998 5 0  0.2000000000000002 5 0  0.09999999999999964 5 0  0 5 0  -0.09999999999999964 5 0  -0.2000000000000002 5 0  -0.2999999999999998 5 0  -0.4000000000000004 5 0  -0.5 5 0  -0.5999999999999996 5 0  -0.7000000000000002 5 0  -0.7999999999999998 5 0  -0.9000000000000004 5 0  -1 5 0  -1.1 5 0  -1.2 5 0  -1.3 5 0  -1.4 5 0  -1.5 5 0  -1.6 5 0  -1.7 5 0  -1.8 5 0  -1.9 5 0  -2 5 0  -2.1 5 0  -2.2 5 0  -2.3 5 0  -2.4 5 0  -2.5 5 0  -2.6 5 0  -2.7 5 0  -2.8 5 0  -2.9 5 0  -3 5 0  -3.1 5 0  -3.199999999999999 5 0  -3.300000000000001 5 0  -3.4 5 0  -3.5 5 0  -3.6 5 0  -3.699999999999999 5 0  -3.800000000000001 5 0  -3.9 5 0  -4 5 0  -4.1 5 0  -4.199999999999999 5 0  -4.300000000000001 5 0  -4.4 5 0  -4.5 5 0  -4.6 5 0  -4.699999999999999 5 0  -4.800000000000001 5 0  -4.9 5 0  -5 4.9 0  -5 4.8 0  -5 4.7 0  -5 4.6 0  -5 4.5 0  -5 4.4 0  -5 4.3 0  -5 4.2 0  -5 4.1 0  -5 4 0  -5 3.9 0  -5 3.8 0  -5 3.7 0  -5 3.6 0  -5 3.5 0  -5 3.4 0  -5 3.3 0  -5 3.2 0  -5 3.1 0  -5 3 0  -5 2.9 0  -5 2.8 0  -5 2.7 0  -5 2.6 0  -5 2.5 0  -5 2.4 0  -5 2.3 0  -5 2.2 0  -5 2.1 0  -5 2 0  -5 1.9 0  -5 1.8 0  -5 1.7 0  -5 1.6 0  -5 1.5 0  -5 1.4 0  -5 1.3 0  -5 1.2 0  -5 1.1 0  -5 1 0  -5 0.9000000000000004 0  -5 0.7999999999999998 0  -5 0.7000000000000002 0  -5 0.5999999999999996 0  -5 0.5 0  -5 0.4000000000000004 0  -5 0.2999999999999998 0  -5 0.2000000000000002 0  -5 0.09999999999999964 0  -5 0 0  -5 -0.09999999999999964 0  -5 -0.2000000000000002 0  -5 -0.2999999999999998 0  -5 -0.4000000000000004 0  -5 -0.5 0  -5 -0.5999999999999996 0  -5 -0.7000000000000002 0  -5 -0.7999999999999998 0  -5 -0.9000000000000004 0  -5 -1 0  -5 -1.1 0  -5 -1.2 0  -5 -1.3 0  -5 -1.4 0  -5 -1.5 0  -5 -1.6 0  -5 -1.7 0  -5 -1.8 0  -5 -1.9 0  -5 -2 0  -5 -2.1 0  -5 -2.2 0  -5 -2.3 0  -5 -2.4 0  -5 -2.5 0  -5 -2.6 0  -5 -2.7 0  -5 -2.8 0  -5 -2.9 0  -5 -3 0  -5 -3.1 0  -5 -3.199999999999999 0  -5 -3.300000000000001 0  -5 -3.4 0  -5 -3.5 0  -5 -3.6 0  -5 -3.699999999999999 0  -5 -3.800000000000001 0  -5 -3.9 0  -5 -4 0  -5 -4.1 0  -5 -4.199999999999999 0  -5 -4.300000000000001 0  -5 -4.4 0  -5 -4.5 0  -5 -4.6 0  -5 -4.699999999999999 0  -5 -4.800000000000001 0  -5 -4.9 0  1.024486383471829 0.09997399707308173 0  1.009151658657815 0.1989285003198306 0  0.9835793759821283 0.2959904429627659 0  0.9485871899792008 0.3898392040778113 0  0.9041221277402692 0.4801208792199751 0  0.850779422774912 0.5655233746997008 0  0.7888375831216535 0.6451775197540325 0  0.7188327684206232 0.7183954442171907 0  0.6419224484576675 0.7845938552114546 0  0.5586490745187749 0.8430739792384349 0  0.4697142643801611 0.8930010762681757 0  0.3760304338322366 0.9341075219377541 0  0.2789529045022577 0.9660528029597115 0  0.178859152671645 0.9881805309006424 0  0.07715040239936896 1.000661468636039 0  -0.02541979604969719 1.003175016263124 0  -0.1277529356828785 0.9956073730152775 0  -0.2288161767166405 0.9783887008216995 0  -0.3275663663436006 0.9513799365115213 0  -0.4230366808128548 0.9147975889082662 0  -0.5142644386720167 0.8692773733612654 0  -0.6004235141512607 0.815015804586419 0  -0.6806288385336233 0.7527085331903607 0  -0.7540705500873861 0.6829883433857491 0  -0.8200619485488055 0.6062254613466284 0  -0.8777930894236217 0.5234822630139596 0  -0.926996415059841 0.435682015468905 0  -0.9668176352070227 0.3434179856815022 0  -0.9969789937428341 0.2478294948594589 0  -1.017349477819104 0.1497963681103573 0  -1.027624594264406 0.05018279578840548 0  -1.027631005564283 -0.04994925244788221 0  -1.017364917665666 -0.1495296725727163 0  -0.9973603345291049 -0.2475365264427256 0  -0.9668227154483994 -0.3432324092982388 0  -0.9270474638656387 -0.4353619499487357 0  -0.8779037178334699 -0.5232210900837178 0  -0.8201844548797772 -0.6058846288580075 0  -0.7541776353388221 -0.6824926990363814 0  -0.6806117177384101 -0.7521815852869435 0  -0.6002791438332883 -0.8143402712689461 0  -0.5143544156397359 -0.868776636631578 0  -0.4227953231022566 -0.9142668417184879 0  -0.3272979681996506 -0.9509322947146479 0  -0.2284712232762088 -0.9779938819458102 0  -0.1274571258749251 -0.9953241879170537 0  -0.02521766054528785 -1.003053517932522 0  0.07720604445056614 -1.00045491666605 0  0.1790815391761451 -0.9878834528567003 0  0.2790212580733953 -0.9657134879101887 0  0.3764383967857486 -0.933774938148021 0  0.4698265629593757 -0.8926778608063738 0  0.5587651530417286 -0.8427587141215096 0  0.6420078797388417 -0.7846309199190615 0  0.7189091742650739 -0.71845609175775 0  0.7887462601282792 -0.6450532108698924 0  0.8506279391724951 -0.565272549050011 0  0.9042217017450395 -0.4799542355828755 0  0.9489156710845817 -0.3898375418904019 0  0.9838396165473037 -0.2959008575262201 0  1.009170299800094 -0.1988087947004754 0  1.024508816312396 -0.09992834140112765 0  -2.449765319165442 4.920343357203961 0  -2.449746096328361 -4.912923139966454 0  4.912904748296264 2.449646521488587 0  4.920801273848859 -2.450949280648304 0  2.4476901291065 -4.898579354528178 0  2.442074128440004 4.902249000212365 0  -4.912911202722028 -2.449653712264465 0  -4.912914781528015 2.449657224552594 0  -1.749756006725952 4.914203635432177 0  -1.745488423680946 -4.917516392252551 0  4.92372980956934 1.745651973987537 0  4.912702250415248 -1.749644772875656 0  -4.912957039398813 -1.749351951292414 0  -4.913754447359531 1.749077824281062 0  1.747105374024933 4.908297955848419 0  1.748676629597873 -4.896862175470707 0  -1.149811516712419 4.912651928390468 0  -1.1305695426652 -4.92023764420754 0  -4.913551234723674 -1.149361756936595 0  -4.913384093812991 1.149159967573375 0  1.144742409247036 -4.91658603169864 0  1.149809641617763 4.912649994926351 0  4.913727597084662 1.147648326099714 0  4.92402495451948 -1.15326370487862 0  -0.5471732311545682 -4.914165464541815 0  -0.5469070436752348 4.922462373519191 0  -4.912987288140992 -0.5495047575651087 0  -4.913014097366815 0.5480535026186232 0  4.912391299550775 -0.5498384894934017 0  4.923405310797481 0.5464868393301366 0  0.5430032567623858 -4.901658747577632 0  0.551643867643648 4.919435037748917 0  -4.913540682317963 -3.049713190882473 0  4.920002116220318 3.047638292616086 0  4.913067242706383 -3.049712095742164 0  -4.914380831150888 3.04679337738015 0  3.056364074014708 -4.919006592673473 0  -3.049774449671842 -4.913053862827797 0  3.053317780869428 4.91510280955089 0  -3.049213476302059 4.913930544296663 0  -4.912358593275423 -0.04998725322044432 0  0.04515069831284529 -4.916145464223059 0  0.04960230338842678 4.92285113280259 0  4.919056070744126 -0.05136433797755102 0  3.546463474369135 -4.920165530839665 0  -3.5498179
[...]
<PointData  Vectors="f_410"> 
<DataArray  type="Float64"  Name="f_410"  NumberOfComponents="3" format="ascii">-1.6178739467141480e-40 -1.6611007537575416e-40 0.0000000000000000e+00  2.1639582236674504e-40 -2.1686234850979982e-40 0.0000000000000000e+00  -2.4743554376495576e-40 -2.5475769752727455e-40 0.0000000000000000e+00  -3.1619344782688816e-40 3.3747459428397513e-40 0.0000000000000000e+00  1.1933692062556315e+01 -7.2636912440760371e-01 0.0000000000000000e+00  3.5735038009299433e-40 3.6787548221693485e-40 0.0000000000000000e+00  8.0835324437566988e-40 9.2387850049836468e-40 0.0000000000000000e+00  -1.7984970609721046e-39 -2.1553419385572097e-39 0.0000000000000000e+00  1.8480764055488551e-38 2.0853320052854292e-38 0.0000000000000000e+00  -5.9682601754611867e-38 -6.4920010041416482e-38 0.0000000000000000e+00  2.3377517831852341e-37 2.4664546955343132e-37 0.0000000000000000e+00  -8.6395011832120837e-37 -9.2633089455842902e-37 0.0000000000000000e+00  5.0273871920397699e-36 6.0789348883208602e-36 0.0000000000000000e+00  -3.0098587269809415e-35 -3.9271810592631370e-35 0.0000000000000000e+00  1.2098326504910205e-34 1.6040359122911601e-34 0.0000000000000000e+00  -2.5178930331930852e-34 -3.5122357211629942e-34 0.0000000000000000e+00  4.7776882226239924e-34 7.0406985826442764e-34 0.0000000000000000e+00  1.7575399680947274e-33 2.6418458283787016e-33 0.0000000000000000e+00  -8.0970596686533820e-33 -1.2111751120840428e-32 0.0000000000000000e+00  2.3881181333142952e-32 3.6032842511324773e-32 0.0000000000000000e+00  -1.3306032782951846e-31 -2.0803678687569354e-31 0.0000000000000000e+00  3.4901637537881678e-31 5.5005201210568368e-31 0.0000000000000000e+00  1.8660242206596008e-31 3.6513813151261651e-31 0.0000000000000000e+00  -1.5869551493559359e-30 -2.9376592918061954e-30 0.0000000000000000e+00  -8.4004280373521475e-31 -1.3017272639897144e-30 0.0000000000000000e+00  -2.1829439042834193e-30 -3.4342714139634924e-30 0.0000000000000000e+00  5.3872627550383852e-30 9.5563137460348991e-30 0.0000000000000000e+00  -1.4348289240810279e-29 -2.1389106044549126e-29 0.0000000000000000e+00  4.6055550961250942e-29 7.8796006260913897e-29 0.0000000000000000e+00  2.8207233455839087e-29 5.1722538035014337e-29 0.0000000000000000e+00  -2.2875040187502965e-28 -4.4087171263094763e-28 0.0000000000000000e+00  -7.2352782755228523e-29 -1.4643749774667700e-28 0.0000000000000000e+00  -1.1379367372496847e-28 -2.1562363604218671e-28 0.0000000000000000e+00  2.1318235040064330e-28 4.3250313255105144e-28 0.0000000000000000e+00  6.5494959807864787e-28 1.4183104605459608e-27 0.0000000000000000e+00  -9.1050423365050303e-29 -1.2671669904819529e-28 0.0000000000000000e+00  1.1638477171789867e-28 3.6414177195610335e-28 0.0000000000000000e+00  -1.1153133217493284e-28 -2.5261529475106478e-28 0.0000000000000000e+00  -4.4049783492859115e-28 -1.3050027428597665e-27 0.0000000000000000e+00  -3.9894028923121088e-28 -1.3214501770507246e-27 0.0000000000000000e+00  -4.4212881116674725e-29 -1.9826236362432452e-28 0.0000000000000000e+00  4.3727852630512504e-28 1.5881843675214006e-27 0.0000000000000000e+00  2.2768165256512801e-28 9.7700646173289486e-28 0.0000000000000000e+00  -6.9324632905668574e-29 -1.9760239840208034e-28 0.0000000000000000e+00  6.6094940462966429e-29 3.9648285756294569e-28 0.0000000000000000e+00  3.9385684349146947e-28 1.1102194147294033e-27 0.0000000000000000e+00  4.7839671633255606e-28 1.8457598593784393e-27 0.0000000000000000e+00  -2.6235805997983551e-28 -1.0268148159925539e-27 0.0000000000000000e+00  9.4446449986078807e-28 5.9633538312184717e-27 0.0000000000000000e+00  3.3269382933838793e-29 -5.5544070519028852e-29 0.0000000000000000e+00  -4.1055813616450461e-28 -5.2243870696064374e-27 0.0000000000000000e+00  -2.4832328885679030e-29 -3.1089632340492219e-27 0.0000000000000000e+00  -1.4409298994797200e-28 -4.4201138041230133e-27 0.0000000000000000e+00  -4.3840234529273902e-28 -1.0843313588570716e-26 0.0000000000000000e+00  -2.6019964318900439e-28 -1.2425391748577312e-26 0.0000000000000000e+00  2.1205070117052845e-29 -2.1645376582003511e-27 0.0000000000000000e+00  1.8543417942802719e-28 -6.8790388861356154e-27 0.0000000000000000e+00  2.2955312949482276e-28 -2.5792297698737653e-27 0.0000000000000000e+00  4.5895713584695318e-28 -4.5062939825347958e-27 0.0000000000000000e+00  -2.5897163667758192e-28 1.8926449451113880e-27 0.0000000000000000e+00  7.6718429829989703e-28 -6.1215877451375424e-27 0.0000000000000000e+00  8.3230837133719615e-28 -5.5441298828039680e-27 0.0000000000000000e+00  -1.9641474157208048e-28 1.0364599188710461e-27 0.0000000000000000e+00  -1.7378392656416007e-27 8.0003880017820779e-27 0.0000000000000000e+00  -7.5619194145325220e-28 3.1663097374489763e-27 0.0000000000000000e+00  -3.8621443286725484e-28 1.9211374236922308e-27 0.0000000000000000e+00  -1.2203326140391463e-27 4.5548053893119097e-27 0.0000000000000000e+00  -7.2297434571979163e-28 2.4025821670183629e-27 0.0000000000000000e+00  8.5801899645348144e-28 -2.6372374652140503e-27 0.0000000000000000e+00  4.0899917797232291e-28 -1.2330213302475998e-27 0.0000000000000000e+00  8.7346957004520217e-29 -3.0398103416923936e-28 0.0000000000000000e+00  3.1507302206633664e-28 -9.5754917713096460e-28 0.0000000000000000e+00  3.0007723296956747e-28 -7.5122506798962883e-28 0.0000000000000000e+00  -2.5204156958075603e-28 6.0921826401640243e-28 0.0000000000000000e+00  -2.2324618619967725e-28 4.8827890245015515e-28 0.0000000000000000e+00  -1.5702593975858355e-28 3.3123142974898237e-28 0.0000000000000000e+00  1.5841747603557515e-29 -3.4924176575278162e-29 0.0000000000000000e+00  1.1501968377491093e-28 -2.3220852966879456e-28 0.0000000000000000e+00  1.6177517165603956e-28 -3.0084255181445085e-28 0.0000000000000000e+00  -4.7280069517396156e-30 1.5555831072401580e-29 0.0000000000000000e+00  -1.0935196459198185e-28 1.9215861583906115e-28 0.0000000000000000e+00  1.7850512406348166e-29 -3.1924918414683357e-29 0.0000000000000000e+00  5.9800132852542308e-30 -9.3830966054887873e-30 0.0000000000000000e+00  -1.4740868461752226e-29 2.5673582696560620e-29 0.0000000000000000e+00  -9.8174834227805362e-31 1.7394260789966595e-30 0.0000000000000000e+00  1.6047646434703764e-30 -2.7311621140682998e-30 0.0000000000000000e+00  -8.3780194367710611e-31 1.4022317625650681e-30 0.0000000000000000e+00  1.0434877551578260e-31 -1.7084556943360309e-31 0.0000000000000000e+00  -1.2858705867960314e-32 1.9779445878363539e-32 0.0000000000000000e+00  -2.8576467636348182e-34 7.0895162672076404e-34 0.0000000000000000e+00  6.8215034766287084e-33 -1.0461351280747305e-32 0.0000000000000000e+00  4.1710151600484712e-34 -5.3092677755547600e-34 0.0000000000000000e+00  -4.6838752024931102e-34 6.6906520434744798e-34 0.0000000000000000e+00  5.2663629572565374e-35 -8.0530776233572635e-35 0.0000000000000000e+00  -2.1798154772547745e-35 2.9293618226233634e-35 0.0000000000000000e+00  4.8495759472203764e-36 -6.2951157603993892e-36 0.0000000000000000e+00  -1.4830691844170411e-36 1.9024888286408464e-36 0.0000000000000000e+00  4.9402127594218792e-37 -5.9928929296687287e-37 0.0000000000000000e+00  -2.4587666529951649e-37 2.9526798038908101e-37 0.0000000000000000e+00  8.3296454728583910e-38 -9.8931323350088323e-38 0.0000000000000000e+00  -1.7545297800143532e-38 2.0095699885343338e-38 0.0000000000000000e+00  7.1472859203603873e-39 -8.0243667538968174e-39 0.0000000000000000e+00  -4.0328577261306913e-40 4.8239688667561948e-40 0.0000000000000000e+00  -3.6809148640703511e-40 3.7499132959879336e-40 0.0000000000000000e+00  -1.6961963087766893e-41 9.4632491105065168e-42 0.0000000000000000e+00  3.8522610514875178e-40 -3.9628834217661400e-40 0.0000000000000000e+00  -9.0290635948994732e-40 8.8298281715464439e-40 0.0000000000000000e+00  3.6474942028632451e-39 -3.4033736885090645e-39 0.0000000000000000e+00  -2.7354929196787148e-39 2.3793615614781847e-39 0.0000000000000000e+00  -1.5085640917808658e-38 1.3738610609372959e-38 0.0000000000000000e+00  6.3007271867090501e-38 -5.5035807522516840e-38 0.0000000000000000e+00  -9.1577117426055467e-38 7.6966462198929475e-38 0.0000000000000000e+00  -1.3238161585587516e-37 1.1236425864161799e-37 0.0000000000000000e+00  9.5030268980552277e-37 -7.7003035350091637e-37 0.0000000000000000e+00  -1.7419653903819653e-36 1.3702662846295669e-36 0.0000000000000000e+00  -1.1898139367607357e-36 9.1133481246534674e-37 0.0000000000000000e+00  1.3075415164899113e-35 -9.7402452652137556e-36 0.0000000000000000e+00  -2.6312580427194894e-35 1.9035407492319990e-35 0.0000000000000000e+00  -1.5990083829673952e-35 1.0929530597629516e-35 0.0000000000000000e+00  1.8999461955773217e-34 -1.2865732087725397e-34 0.0000000000000000e+00  -3.1601094353593251e-34 2.1081707216164353e-34 0.0000000000000000e+00  -3.9148261060674141e-34 2.4194278622112761e-34 0.0000000000000000e+00  2.5885115270788253e-33 -1.5837449660432602e-33 0.0000000000000000e+00  -2.6825871232232315e-33 1.6398620346490620e-33 0.0000000000000000e+00  -9.1439599746086504e-33 5.0861187728007324e-33 0.0000000000000000e+00  2.9840015378576047e-32 -1.6563086739573267e-32 0.0000000000000000e+00  1.1042234819264742e-33 5.7413601184213767e-34 0.0000000000000000e+00  -1.5913935902850077e-31 7.9225880121473263e-32 0.0000000000000000e+00  2.1799046959679011e-31 -1.0929995847135813e-31 0.0000000000000000e+00  5.1890037302435538e-31 -2.2582212042908660e-31 0.0000000000000000e+00  -1.5869189196272485e-30 7.0608858326068144e-31 0.0000000000000000e+00  -8.3487161566550155e-31 2.7007326507119383e-31 0.0000000000000000e+00  8.2831430450959169e-30 -3.2619900760017686e-30 0.0000000000000000e+00  -2.6650931800708788e-30 1.4017250820838935e-30 0.0000000000000000e+00  -3.5851710073159502e-29 1.2284640675751454e-29 0.0000000000000000e+00  3.0003704554872756e-29 -1.1732927701401409e-29 0.0000000000000000e+00  1.4334691015596136e-28 -4.2331977564374777e-29 0.0000000000000000e+00  -1.6128868344902685e-28 5.4572156435215955e-29 0.0000000000000000e+00  -5.8657404600725236e-28 1.4789613626387723e-28 0.0000000000000000e+00  6.0925891718972319e-28 -1.9472930742658690e-28 0.0000000000000000e+00  2.4100337794705956e-27 -5.2047155345538143e-28 0.0000000000000000e+00  -1.7644645074413879e-27 5.4144665776069417e-28 0.0000000000000000e+00  -9.1599830670341479e-27 1.6940347240461783e-27 0.0000000000000000e+00  2.0165699484677051e-27 -9.0219085010698200e-28 0.0000000000000000e+00  2.8027195358452657e-26 -4.6217863067680186e-27 0.0000000000000000e+00  1.4028056595199251e-26 -7.9565841739845573e-28 0.0000000000000000e+00  -7.9591924170504047e-26 1.1706446154569758e-26 0.0000000000000000e+00  -1.2056038927789170e-25 1.3747712580759447e-26 0.0000000000000000e+00  1.4274503892268684e-25 -1.0549885597078800e-26 0.0000000000000000e+00  8.1963884805830049e-25 -3.8385321644591010e-26 0.0000000000000000e+00  1.4980531392594953e-24 -3.1303558956079739e-26 0.0000000000000000e+00  1.8292774174838230e-24 -1.8782009174314308e-27 0.0000000000000000e+00  1.7903124197530653e-24 1.0268160563207001e-26 0.0000000000000000e+00  1.8173863861896232e-24 -5.1935804278843776e-27 0.0000000000000000e+00  1.9592049685791903e-24 -9.7595657129177133e-27 0.0000000000000000e+00  1.8247819103248963e-24 1.4507767716537128e-26 0.0000000000000000e+00  1.1926521899461684e-24 3.5231267773387775e-26 0.0000000000000000e+00  3.4336747985032495e-25 2.2487349868516213e-26 0.0000000000000000e+00  -1.7375332089155394e-25 -7.1443086338885968e-27 0.0000000000000000e+00  -2.1902393940766803e-25 -1.9174473873123547e-26 0.0000000000000000e+00  -3.9242161786291866e-26 -6.4736400380675620e-27 0.0000000000000000e+00  5.9800696010005222e-26 6.2636609309041313e-27 0.0000000000000000e+00  3.6603772992995247e-26 5.4511171826259489e-27 0.0000000000000000e+00  -5.1748111674952338e-27 -5.8890075077813486e-28 0.0000000000000000e+00  -1.0830160947887515e-26 -2.0140817442111869e-27 0.0000000000000000e+00  -8.2706076700011926e-28 -2.3038467025886314e-28 0.0000000000000000e+00  2.6591382079835856e-27 5.9943349508441600e-28 0.0000000000000000e+00  4.1057746261121332e-28 1.1651967735510681e-28 0.0000000000000000e+00  -6.2471736883213828e-28 -1.6808300207727414e-28 0.0000000000000000e+00  -9.3263044480328378e-29 -3.1220479538907472e-29 0.0000000000000000e+00  1.4519869718688870e-28 4.6368319825485346e-29 0.0000000000000000e+00  8.1004294872245061e-30 3.9319729926916167e-30 0.0000000000000000e+00  -3.2747577294092000e-29 -1.2089023423367449e-29 0.0000000000000000e+00  2.4919309306385007e-30 6.9018644091259489e-31 0.0000000000000000e+00  6.3066967554627667e-30 2.6964523106745173e-30 0.0000000000000000e+00  -1.7934332735322623e-30 -7.1334875545291898e-31 0.0000000000000000e+00  -9.4294058660252349e-31 -4.6044272588887170e-31 0.0000000000000000e+00  5.9408205548604525e-31 2.7659005586014153e-31 0.0000000000000000e+00  3.6360200806012672e-32 2.6756261397063034e-32 0.0000000000000000e+00  -1.3252108985112464e-31 -6.8647867448814904e-32 0.0000000000000000e+00  2.9488136661164239e-32 1.4004152964412044e-32 0.0000000000000000e+00  1.9172841022976701e-32 1.1168290446984325e-32 0.0000000000000000e+00  -1.2215361146302930e-32 -6.8377715049026096e-33 0.0000000000000000e+00  1.7491973461483595e-34 -4.3997977905302215e-35 0.0000000000000000e+00  2.2070093655453662e-33 1.3839264294184589e-33 0.0000000000000000e+00  -8.3868648417440308e-34 -5.1237993578732251e-34 0.0000000000000000e+00  -1.1640223131649876e-34 -8.6999816505365098e-35 0.0000000000000000e+00  2.0203752810370073e-34 1.3660385360934348e-34 0.0000000000000000e+00  -5.7088240023214802e-35 -3.8457436089535066e-35 0.0000000000000000e+00  -1.3184084734306193e-35 -9.8973052436233505e-36 0.0000000000000000e+00  1.5014274610494334e-35 1.1032634108187098e-35 0.0000000000000000e+00  -3.9190650339588269e-36 -2.8967356866146879e-36 0.0000000000000000e+00  -9.2610894737547697e-37 -7.3615607618933041e-37 0.0000000000000000e+00  1.0560084276167304e-36 8.3913972749912568e-37 0.0000000000000000e+00  -3.0537910630831601e-37 -2.4807349208044596e-37 0.0000000000000000e+00  -3.8048645958238921e-38 -3.1571467601593679e-38 0.0000000000000000e+00  6.6550004963908478e-38 5.6905833787324923e-38 0.0000000000000000e+00  -2.5285441287645297e-38 -2.2229471975823334e-38 0.0000000000000000e+00  8.6678695830497284e-40 8.6327428902926116e-40 0.0000000000000000e+00  3.5737668303262104e-39 3.2365615160195471e-39 0.0000000000000000e+00  -1.8596564496573796e-39 -1.7393166943828199e-39 0.0000000000000000e+00  3.9927452905578497e-40 3.8744601085928091e-40 0.0000000000000000e+00  1.9469240068137349e-40 1.8481816983668151e-40 0.0000000000000000e+00  3.6520507966327160e-40 4.0046381469041435e-40 0.0000000000000000e+00  -1.0791397250556221e-39 -1.1461413048802491e-39 0.0000000000000000e+00  2.1067584639662774e-39 2.3097613580120196e-39 0.0000000000000000e+00  -1.4210570920091532e-38 -1.5473065460606282e-38 0.0000000000000000e+00  1.0068554345676356e-37 1.1277205524288172e-37 0.0000000000000000e+00  -2.2617653534503170e-37 -2.6306446732481376e-37 0.0000000000000000e+00  2.5314933060391779e-37 3.0766477405717451e-37 0.0000000000000000e+00  -4.1569177183612444e-36 -5.0802081673117507e-36 0.0000000000000000e+00  1.3587656178019098e-35 1.6430351013119428e-35 0.0000000000000000e+00  -6.0379132447961334e-35 -7.3661528224608042e-35 0.0000000000000000e+00  1.3594186958433783e-34 1.7412072015581985e-34 0.0000000000000000e+00  -2.9735891912681001e-34 -3.9909017638561437e-34 0.0000000000000000e+00  1.4671898175405524e-33 2.0020812853625572e-33 0.0000000000000000e+00  -1.2119577791673733e-33 -1.6895034934573182e-33 0.0000000000000000e+00  6.1175906748972642e-33 8.0260153387392012e-33 0.0000000000000000e+00  4.3359679133993873e-32 6.9317026639323649e-32 0.0000000000000000e+00  -2.0706147728061024e-31 -3.2195181014303547e-31 0.0000000000000000e+00  -5.5605835601056711e-31 -9.4793525559877223e-31 0.0000000000000000e+00  1.0467899275206112e-30 1.8356289262244266e-30 0.0000000000000000e+00  -6.7882233596645685e-32 -1.1999524069088093e-31 0.0000000000000000e+00  -3.2566149806182818e-30 -5.5707130548642002e-30 0.0000000000000000e+00  9.5880429036976396e-30 1.5333638145638207e-29 0.0000000000000000e+00  1.4537066384292359e-29 2.6629529870672806e-29 0.0000000000000000e+00  -9.5783103389854624e-29 -1.7318888789587519e-28 0.0000000000000000e+00  3.0980180605228180e-29 5.8960491923243295e-29 0.0000000000000000e+00  9.3591859944948923e-29 2.0330371005004894e-28 0.0000000000000000e+00  4.2820489373039620e-29 7.3598161917507030e-29 0.0000000000000000e+00  3.5857658087771431e-28 6.9660278922217389e-28 0.0000000000000000e+00  1.5062954352532482e-28 3.3815256219862969e-28 0.0000000000000000e+00  -4.5015816551541793e-28 -9.0998140053433289e-28 0.0000000000000000e+00  -3.7828431666383360e-28 -9.9042990898414977e-28 0.0000000000000000e+00  4.1745659891376047e-28 9.6921745690773534e-28 0.0000000000000000e+00  7.6931220198500764e-28 1.8967992799026942e-27 0.0000000000000000e+00  3.8833512564408303e-28 1.1428742728494205e-27 0.0000000000000000e+00  4.0862375302334291e-29 3.8403788312898972e-28 0.0000000000000000e+00  -8.9415222755988435e-28 -2.6080911844634396e-27 0.0000000000000000e+00  -3.4692605966124415e-28 -9.4939467738484338e-28 0.0000000000000000e+00  -1.8003772110329420e-28 -4.8658535196352619e-28 0.0000000000000000e+00  -4.5279805159417000e-28 -1.7104600897507446e-27 0.0000000000000000e+00  -4.1663552695404388e-28 -1.6866815365700139e-27 0.0000000000000000e+00  -3.3572120873914810e-28 -1.9651583047116771e-27 0.0000000000000000e+00  1.0955826892143557e-28 -7.8718504599327948e-29 0.0000000000000000e+00  5.0931836985303454e-28 2.5680255273412713e-27 0.0000000000000000e+00  8.9063890890420006e-29 3.6827541440288145e-28 0.0000000000000000e+00  -3.3133862081771157e-28 -2.7658306945354852e-27 0.0000000000000000e+00  2.2790103827506475e-28 1.7430313097532695e-27 0.0000000000000000e+00  1.4287902008726539e-28 1.5958531727829932e-27 0.0000000000000000e+00  -8.8713134288353659e-29 -1.4191350933476089e-27 0.0000000000000000e+00  -1.0452684410592773e-29 -1.7573998050175775e-29 0.0000000000000000e+00  -4.6633621243950745e-29 -1.4641167432290643e-27 0.0000000000000000e+00  -3.0512938485085383e-29 2.9108826238701243e-27 0.0000000000000000e+00  -1.3125089996028252e-28 2.7338136353044458e-27 0.0000000000000000e+00  1.4039474458323139e-29 -1.7263724248424278e-27 0.0000000000000000e+00  -6.8792301501703655e-29 -6.1047703310161619e-29 0.0000000000000000e+00  2.2409375093239280e-28 -2.4708032213210101e-27 0.0000000000000000e+00  -3.9338569261247700e-28 2.0664125114517681e-27 0.0000000000000000e+00  -2.5976163531123304e-28 1.0202110675968903e-27 0.0000000000000000e+00  -3.5517253077457328e-29 -6.1633257117055016e-28 0.0000000000000000e+00  -1.0251420437073399e-28 -8.3608776715571227e-29 0.0000000000000000e+00  6.1681381897063153e-28 -2.9147021888415476e-27 0.0000000000000000e+00  7.2343268943162820e-28 -3.3506455218365708e-27 0.0000000000000000e+00  1.2826788424727238e-27 -4.7282322462295053e-27 0.0000000000000000e+00  4.3036380442024918e-28 -1.3210994843013126e-27 0.0000000000000000e+00  -2.9749663052804835e-28 1.1549916667805724e-27 0.0000000000000000e+00  -8.4378485532164163e-28 2.4699770523268354e-27 0.0000000000000000e+00  -1.0121415717200482e-27 2.7133095783761864e-27 0.0000000000000000e+00  -3.0739159082501844e-28 7.1643559392218094e-28 0.0000000000000000e+00  1.5205498117492720e-28 -4.1217049490923926e-28 0.0000000000000000e+00  2.2928966215669945e-28 -5.4047651742888160e-28 0.0000000000000000e+00  9.3515927402946290e-28 -1.9529963789577715e-27 0.0000000000000000e+00  3.8179263293631077e-28 -7.5640659791018025e-28 0.0000000000000000e+00  -3.1410162001907343e-28 6.0506673068239393e-28 0.0000000000000000e+00  -9.6616931963766863e-30 3.3254320203027818e-29 0.0000000000000000e+00  3.3044323607953970e-29 -6.7875650461100103e-29 0.0000000000000000e+00  8.4300281462774151e-29 -1.5499411463361952e-28 0.0000000000000000e+00  -1.6754555649149530e-29 3.1260250414735242e-29 0.0000000000000000e+00  -2.4535838389192184e-29 4.1838028602507186e-29 0.0000000000000000e+00  2.5535