<?xml version="1.0"?>
<VTKFile type="UnstructuredGrid"  version="0.1"  >
<UnstructuredGrid>
<Piece  NumberOfPoints="11902" NumberOfCells="23402">
<Points>
<DataArray  type="Float64"  NumberOfComponents="3"  format="ascii">-5 -5 0  5 -5 0  5 5 0  -5 5 0  1.243965896209419 0.001376714555304842 0  -4.9 -5 0  -4.8 -5 0  -4.7 -5 0  -4.6 -5 0  -4.5 -5 0  -4.4 -5 0  -4.3 -5 0  -4.2 -5 0  -4.1 -5 0  -4 -5 0  -3.9 -5 0  -3.8 -5 0  -3.7 -5 0  -3.6 -5 0  -3.5 -5 0  -3.4 -5 0  -3.3 -5 0  -3.2 -5 0  -3.1 -5 0  -3 -5 0  -2.9 -5 0  -2.8 -5 0  -2.7 -5 0  -2.6 -5 0  -2.5 -5 0  -2.4 -5 0  -2.3 -5 0  -2.2 -5 0  -2.1 -5 0  -2 -5 0  -1.9 -5 0  -1.8 -5 0  -1.7 -5 0  -1.6 -5 0  -1.5 -5 0  -1.4 -5 0  -1.3 -5 0  -1.2 -5 0  -1.1 -5 0  -1 -5 0  -0.9000000000000004 -5 0  -0.7999999999999998 -5 0  -0.7000000000000002 -5 0  -0.5999999999999996 -5 0  -0.5 -5 0  -0.4000000000000004 -5 0  -0.2999999999999998 -5 0  -0.2000000000000002 -5 0  -0.09999999999999964 -5 0  0 -5 0  0.09999999999999964 -5 0  0.2000000000000002 -5 0  0.2999999999999998 -5 0  0.4000000000000004 -5 0  0.5 -5 0  0.5999999999999996 -5 0  0.7000000000000002 -5 0  0.7999999999999998 -5 0  0.9000000000000004 -5 0  1 -5 0  1.1 -5 0  1.2 -5 0  1.3 -5 0  1.4 -5 0  1.5 -5 0  1.6 -5 0  1.7 -5 0  1.8 -5 0  1.9 -5 0  2 -5 0  2.1 -5 0  2.2 -5 0  2.3 -5 0  2.4 -5 0  2.5 -5 0  2.6 -5 0  2.7 -5 0  2.8 -5 0  2.9 -5 0  3 -5 0  3.1 -5 0  3.199999999999999 -5 0  3.300000000000001 -5 0  3.4 -5 0  3.5 -5 0  3.6 -5 0  3.699999999999999 -5 0  3.800000000000001 -5 0  3.9 -5 0  4 -5 0  4.1 -5 0  4.199999999999999 -5 0  4.300000000000001 -5 0  4.4 -5 0  4.5 -5 0  4.6 -5 0  4.699999999999999 -5 0  4.800000000000001 -5 0  4.9 -5 0  5 -4.9 0  5 -4.8 0  5 -4.7 0  5 -4.6 0  5 -4.5 0  5 -4.4 0  5 -4.3 0  5 -4.2 0  5 -4.1 0  5 -4 0  5 -3.9 0  5 -3.8 0  5 -3.7 0  5 -3.6 0  5 -3.5 0  5 -3.4 0  5 -3.3 0  5 -3.2 0  5 -3.1 0  5 -3 0  5 -2.9 0  5 -2.8 0  5 -2.7 0  5 -2.6 0  5 -2.5 0  5 -2.4 0  5 -2.3 0  5 -2.2 0  5 -2.1 0  5 -2 0  5 -1.9 0  5 -1.8 0  5 -1.7 0  5 -1.6 0  5 -1.5 0  5 -1.4 0  5 -1.3 0  5 -1.2 0  5 -1.1 0  5 -1 0  5 -0.9000000000000004 0  5 -0.7999999999999998 0  5 -0.7000000000000002 0  5 -0.5999999999999996 0  5 -0.5 0  5 -0.4000000000000004 0  5 -0.2999999999999998 0  5 -0.2000000000000002 0  5 -0.09999999999999964 0  5 0 0  5 0.09999999999999964 0  5 0.2000000000000002 0  5 0.2999999999999998 0  5 0.4000000000000004 0  5 0.5 0  5 0.5999999999999996 0  5 0.7000000000000002 0  5 0.7999999999999998 0  5 0.9000000000000004 0  5 1 0  5 1.1 0  5 1.2 0  5 1.3 0  5 1.4 0  5 1.5 0  5 1.6 0  5 1.7 0  5 1.8 0  5 1.9 0  5 2 0  5 2.1 0  5 2.2 0  5 2.3 0  5 2.4 0  5 2.5 0  5 2.6 0  5 2.7 0  5 2.8 0  5 2.9 0  5 3 0  5 3.1 0  5 3.199999999999999 0  5 3.300000000000001 0  5 3.4 0  5 3.5 0  5 3.6 0  5 3.699999999999999 0  5 3.800000000000001 0  5 3.9 0  5 4 0  5 4.1 0  5 4.199999999999999 0  5 4.300000000000001 0  5 4.4 0  5 4.5 0  5 4.6 0  5 4.699999999999999 0  5 4.800000000000001 0  5 4.9 0  4.9 5 0  4.8 5 0  4.7 5 0  4.6 5 0  4.5 5 0  4.4 5 0  4.3 5 0  4.2 5 0  4.1 5 0  4 5 0  3.9 5 0  3.8 5 0  3.7 5 0  3.6 5 0  3.5 5 0  3.4 5 0  3.3 5 0  3.2 5 0  3.1 5 0  3 5 0  2.9 5 0  2.8 5 0  2.7 5 0  2.6 5 0  2.5 5 0  2.4 5 0  2.3 5 0  2.2 5 0  2.1 5 0  2 5 0  1.9 5 0  1.8 5 0  1.7 5 0  1.6 5 0  1.5 5 0  1.4 5 0  1.3 5 0  1.2 5 0  1.1 5 0  1 5 0  0.9000000000000004 5 0  0.7999999999999998 5 0  0.7000000000000002 5 0  0.5999999999999996 5 0  0.5 5 0  0.4000000000000004 5 0  0.2999999999999998 5 0  0.2000000000000002 5 0  0.09999999999999964 5 0  0 5 0  -0.09999999999999964 5 0  -0.2000000000000002 5 0  -0.2999999999999998 5 0  -0.4000000000000004 5 0  -0.5 5 0  -0.5999999999999996 5 0  -0.7000000000000002 5 0  -0.7999999999999998 5 0  -0.9000000000000004 5 0  -1 5 0  -1.1 5 0  -1.2 5 0  -1.3 5 0  -1.4 5 0  -1.5 5 0  -1.6 5 0  -1.7 5 0  -1.8 5 0  -1.9 5 0  -2 5 0  -2.1 5 0  -2.2 5 0  -2.3 5 0  -2.4 5 0  -2.5 5 0  -2.6 5 0  -2.7 5 0  -2.8 5 0  -2.9 5 0  -3 5 0  -3.1 5 0  -3.199999999999999 5 0  -3.300000000000001 5 0  -3.4 5 0  -3.5 5 0  -3.6 5 0  -3.699999999999999 5 0  -3.800000000000001 5 0  -3.9 5 0  -4 5 0  -4.1 5 0  -4.199999999999999 5 0  -4.300000000000001 5 0  -4.4 5 0  -4.5 5 0  -4.6 5 0  -4.699999999999999 5 0  -4.800000000000001 5 0  -4.9 5 0  -5 4.9 0  -5 4.8 0  -5 4.7 0  -5 4.6 0  -5 4.5 0  -5 4.4 0  -5 4.3 0  -5 4.2 0  -5 4.1 0  -5 4 0  -5 3.9 0  -5 3.8 0  -5 3.7 0  -5 3.6 0  -5 3.5 0  -5 3.4 0  -5 3.3 0  -5 3.2 0  -5 3.1 0  -5 3 0  -5 2.9 0  -5 2.8 0  -5 2.7 0  -5 2.6 0  -5 2.5 0  -5 2.4 0  -5 2.3 0  -5 2.2 0  -5 2.1 0  -5 2 0  -5 1.9 0  -5 1.8 0  -5 1.7 0  -5 1.6 0  -5 1.5 0  -5 1.4 0  -5 1.3 0  -5 1.2 0  -5 1.1 0  -5 1 0  -5 0.9000000000000004 0  -5 0.7999999999999998 0  -5 0.7000000000000002 0  -5 0.5999999999999996 0  -5 0.5 0  -5 0.4000000000000004 0  -5 0.2999999999999998 0  -5 0.2000000000000002 0  -5 0.09999999999999964 0  -5 0 0  -5 -0.09999999999999964 0  -5 -0.2000000000000002 0  -5 -0.2999999999999998 0  -5 -0.4000000000000004 0  -5 -0.5 0  -5 -0.5999999999999996 0  -5 -0.7000000000000002 0  -5 -0.7999999999999998 0  -5 -0.9000000000000004 0  -5 -1 0  -5 -1.1 0  -5 -1.2 0  -5 -1.3 0  -5 -1.4 0  -5 -1.5 0  -5 -1.6 0  -5 -1.7 0  -5 -1.8 0  -5 -1.9 0  -5 -2 0  -5 -2.1 0  -5 -2.2 0  -5 -2.3 0  -5 -2.4 0  -5 -2.5 0  -5 -2.6 0  -5 -2.7 0  -5 -2.8 0  -5 -2.9 0  -5 -3 0  -5 -3.1 0  -5 -3.199999999999999 0  -5 -3.300000000000001 0  -5 -3.4 0  -5 -3.5 0  -5 -3.6 0  -5 -3.699999999999999 0  -5 -3.800000000000001 0  -5 -3.9 0  -5 -4 0  -5 -4.1 0  -5 -4.199999999999999 0  -5 -4.300000000000001 0  -5 -4.4 0  -5 -4.5 0  -5 -4.6 0  -5 -4.699999999999999 0  -5 -4.800000000000001 0  -5 -4.9 0  1.236750609829717 0.09657501183969336 0  1.216153947689815 0.1938363809997128 0  1.183094875501691 0.2904573876632668 0  1.140617349311652 0.3801368027073749 0  1.084284273067244 0.4706763123976305 0  1.01949408672108 0.5554179759982159 0  0.9426544133643714 0.6351686320480835 0  0.8571100658705507 0.7089793708632882 0  0.765629149660098 0.7743382801847016 0  0.6640321201259991 0.8320032782841608 0  0.5544802807360207 0.8841630548947593 0  0.442919409785521 0.927397887712921 0  0.3300403971150227 0.9601490302581511 0  0.2078811026596509 0.9818366454377854 0  0.08941881647076483 0.999671272619843 0  -0.02755111310951553 1.002724443847514 0  -0.1452518311888275 0.9900677014497775 0  -0.2695003398085958 0.971708762274123 0  -0.3875829631260795 0.9468240782104518 0  -0.4984233973430287 0.9104951854430066 0  -0.6065287143712307 0.8642026072776128 0  -0.7084873992439085 0.8097626264555597 0  -0.8027558531186704 0.7454346819899362 0  -0.8924058412811748 0.6730355520458043 0  -0.9759747406245323 0.5940041372057207 0  -1.0483977911026 0.5126755116578767 0  -1.10967288670395 0.4265987012617045 0  -1.160670912794941 0.3349980351033275 0  -1.198269091124748 0.243473243137746 0  -1.222763166773761 0.1487298244679388 0  -1.234703979890273 0.05086476861382165 0  -1.23465813022101 -0.04875898633611352 0  -1.222656220985575 -0.1460208986070794 0  -1.198139612099784 -0.2401500980438803 0  -1.1586418877007 -0.3351480203084636 0  -1.109897820411932 -0.4262419162312959 0  -1.049764881747535 -0.5122723160964692 0  -0.9781426051922447 -0.5929173815162885 0  -0.8951817288748779 -0.670689055496237 0  -0.8057686605584815 -0.7415944756613195 0  -0.7099167895325056 -0.8025589088014391 0  -0.6061874888197691 -0.856021056160604 0  -0.4945082945782618 -0.9048731589435838 0  -0.3820278936633512 -0.9439190540534323 0  -0.2661862251959713 -0.9710740781964423 0  -0.1439076535587313 -0.9895856563192751 0  -0.02795273247008087 -1.001861840737563 0  0.08955037644800813 -0.9953558792219539 0  0.212378424505411 -0.9789153313730641 0  0.3323426449538155 -0.9585607482139937 0  0.4469675098082733 -0.9260507116923322 0  0.5566885710471767 -0.8832661059305799 0  0.664902417690892 -0.8319865072301323 0  0.7656673416603641 -0.7755064153489732 0  0.857192719106571 -0.7099182026564488 0  0.9420370166318622 -0.635017948605505 0  1.01716711215314 -0.5546914056684208 0  1.084410838411932 -0.4697619289068317 0  1.141546050699181 -0.3802550249444187 0  1.184774968707848 -0.2885095702257122 0  1.216691204695506 -0.1929463783520627 0  1.236943057928464 -0.0962008034107442 0  -2.44860982702316 4.918202356979882 0  -2.448488380641175 -4.910588757064244 0  4.910515199741786 2.447960793426696 0  4.918632866626504 -2.449416313016468 0  2.446226689397956 -4.895836695617596 0  2.440658219044197 4.899595781572069 0  -4.910541554539859 -2.447986508319569 0  -4.910538988658012 2.447990387153117 0  -1.748565815650676 4.911129912620608 0  -1.744350363775761 -4.914566469230723 0  4.920716569110638 1.744129370400514 0  4.909262117748865 -1.747899112447123 0  -4.90955499183186 -1.747632455745061 0  -4.910376518239764 1.747376612210628 0  1.745841832974427 4.904994894007428 0  1.747261242075426 -4.893154481707504 0  -1.148866671600451 4.908938381913767 0  -1.129720623587181 -4.916843730603095 0  -4.90929894121559 -1.147949178196918 0  -4.909117618232592 1.147749531111249 0  1.143859758901359 -4.913032860295569 0  1.148876261444036 4.908925428553394 0  4.909439830082727 1.14622481597324 0  4.920258195180619 -1.152004241732563 0  -0.54668208339124 -4.910139518518367 0  -0.5464634114267162 4.918813495386212 0  -4.908052678605634 -0.5487203781358087 0  -4.908076699968674 0.5472778715274642 0  4.907374067825638 -0.5490390135372788 0  4.919016087233723 0.5457947056721061 0  0.5424657683334083 -4.897033612289128 0  0.5511923570690788 4.915640195331556 0  -4.911940015925522 -3.048333442047875 0  4.918507839267574 3.046347006413207 0  4.911448297977902 -3.048309760204201 0  -4.912787554548124 3.045424679421701 0  3.055330630218691 -4.917433604103102 0  -3.048663745531294 -4.911372719499985 0  3.052230294615383 4.913449653948493 0  -3.048109133281184 4.912262109456607 0  -4.907168693864397 -0.04990892718965094 0  0.04512066391058166 -4.912090633126381 0  0.04956840579491581 4.919109483479018 0  4.914215725150012 -0.05129092548853571 0  3.545642883091358 -4.919062303729512 0  -3.548925421440529 4.91196
[...]
<PointData  Vectors="f_3738"> 
<DataArray  type="Float64"  Name="f_3738"  NumberOfComponents="3" format="ascii">-9.0475838346029570e-41 -1.2232867665793775e-40 0.0000000000000000e+00  9.8647641136912958e-41 -1.2592388090881724e-40 0.0000000000000000e+00  -1.8410964127923450e-40 -1.7640245342610452e-40 0.0000000000000000e+00  -1.9719312415923119e-40 1.9909209601907137e-40 0.0000000000000000e+00  1.6303752510671998e+01 9.0376419745398645e-02 0.0000000000000000e+00  2.2814326137029576e-40 2.7134802444424709e-40 0.0000000000000000e+00  7.4273589547241783e-40 7.1212300126550417e-40 0.0000000000000000e+00  -1.8466617914829897e-39 -1.9357972988634350e-39 0.0000000000000000e+00  1.4723562792020732e-38 1.7244806443424337e-38 0.0000000000000000e+00  -5.0843639194727232e-38 -5.9153701790018503e-38 0.0000000000000000e+00  1.8540113613632657e-37 2.4575765091635074e-37 0.0000000000000000e+00  -6.9115672872364605e-37 -9.6367319221623093e-37 0.0000000000000000e+00  3.7475807585273785e-36 5.0883886924129891e-36 0.0000000000000000e+00  -2.2055663437042584e-35 -2.7993094503136801e-35 0.0000000000000000e+00  9.3886873020916408e-35 1.1997164848976981e-34 0.0000000000000000e+00  -2.0922331525821913e-34 -2.5240994504009770e-34 0.0000000000000000e+00  4.0977654498374477e-34 4.5440875779009541e-34 0.0000000000000000e+00  1.6607624641718625e-33 1.9071722126500206e-33 0.0000000000000000e+00  -6.8459834829741803e-33 -8.8155844922418745e-33 0.0000000000000000e+00  1.7261425892134411e-32 2.5327131133870112e-32 0.0000000000000000e+00  -1.0543795955687736e-31 -1.4864440525756967e-31 0.0000000000000000e+00  2.8406298446257791e-31 4.0198374191339959e-31 0.0000000000000000e+00  2.1070956527207507e-31 2.4253922056596303e-31 0.0000000000000000e+00  -1.6605806735487779e-30 -2.0586346555695975e-30 0.0000000000000000e+00  -4.8266724753275974e-31 -1.0952247415324666e-30 0.0000000000000000e+00  -6.7597084472038497e-31 -2.0118425735860443e-30 0.0000000000000000e+00  3.5486191679928849e-30 7.2275659083868383e-30 0.0000000000000000e+00  -8.1260759455312641e-30 -2.8366242734791473e-29 0.0000000000000000e+00  2.9633578021111051e-29 7.9333483956008712e-29 0.0000000000000000e+00  1.6607673386547451e-29 4.7651139735625695e-29 0.0000000000000000e+00  -1.4925632609338886e-28 -3.7920761779276810e-28 0.0000000000000000e+00  -5.9525119617176900e-29 -1.6880597114231044e-28 0.0000000000000000e+00  -9.0347182523827334e-29 -3.6549143620387908e-28 0.0000000000000000e+00  1.4517829571117655e-28 4.8932736257477146e-28 0.0000000000000000e+00  3.8700701402184305e-28 1.5026301671979630e-27 0.0000000000000000e+00  4.7700081147968399e-29 -8.0827281335236254e-29 0.0000000000000000e+00  1.6910621671315619e-28 4.4898674248618709e-28 0.0000000000000000e+00  -5.1411284126177275e-29 -2.7334895054977690e-28 0.0000000000000000e+00  -4.5423058181317375e-28 -1.5344979299372319e-27 0.0000000000000000e+00  -4.4421203369218258e-28 -1.4516274457530596e-27 0.0000000000000000e+00  -3.2193477711021254e-29 -5.0146892279687516e-29 0.0000000000000000e+00  4.1274359349192716e-28 1.6432609081682685e-27 0.0000000000000000e+00  2.7339271700591776e-28 9.5910807813517206e-28 0.0000000000000000e+00  1.2712937928641846e-29 -1.2934035828325088e-28 0.0000000000000000e+00  1.3793520187881530e-28 3.7852511122551891e-28 0.0000000000000000e+00  -2.5755183249372782e-28 8.5451097450958270e-28 0.0000000000000000e+00  -1.2552522986636318e-28 1.4994713361384934e-27 0.0000000000000000e+00  1.4969370208814973e-28 -8.8327470008988432e-28 0.0000000000000000e+00  3.3082974935577937e-29 4.8851244229606466e-27 0.0000000000000000e+00  -2.6169716296382431e-28 -4.2425203156839709e-29 0.0000000000000000e+00  -5.6642429859535549e-28 -4.2617808226743871e-27 0.0000000000000000e+00  -6.1487467425673132e-28 -2.4377619197692956e-27 0.0000000000000000e+00  -3.9234755804913077e-28 -3.5890793309154364e-27 0.0000000000000000e+00  6.3458403200792055e-29 -9.1333758188012746e-27 0.0000000000000000e+00  2.0966926285682203e-28 -1.0460687537202182e-26 0.0000000000000000e+00  -4.3281075523716034e-29 -1.7956124731954826e-27 0.0000000000000000e+00  -3.9928965120103137e-29 -5.6761351482904002e-27 0.0000000000000000e+00  -7.2252291702420132e-29 -2.0785361062012461e-27 0.0000000000000000e+00  5.8126083339917913e-29 -3.6753739273037931e-27 0.0000000000000000e+00  -1.1168369406305817e-28 1.7404455369706000e-27 0.0000000000000000e+00  3.1577005703380249e-28 -4.9269238163136606e-27 0.0000000000000000e+00  4.7127084474881640e-28 -4.5123218787441653e-27 0.0000000000000000e+00  -2.9021512212941595e-29 1.0069842747389220e-27 0.0000000000000000e+00  -5.8382749881568005e-28 6.8779415784242711e-27 0.0000000000000000e+00  -3.1420505763118008e-28 2.7556398774880280e-27 0.0000000000000000e+00  -3.0526798031342350e-28 1.4954160876610460e-27 0.0000000000000000e+00  -5.9532126629719348e-28 3.9918539711556029e-27 0.0000000000000000e+00  -3.4644765849329300e-28 2.1078687857922985e-27 0.0000000000000000e+00  3.4627559403564637e-28 -2.4853087761018364e-27 0.0000000000000000e+00  2.5066582057526990e-28 -1.1788162371728101e-27 0.0000000000000000e+00  5.4960338951335333e-29 -1.4578363289264274e-28 0.0000000000000000e+00  2.6743181622383655e-28 -8.3333583490198078e-28 0.0000000000000000e+00  1.7002042493284956e-28 -6.5137814490652635e-28 0.0000000000000000e+00  -1.4924894336189667e-28 5.7740702814159271e-28 0.0000000000000000e+00  -8.5484005580729852e-29 2.7115081969335189e-28 0.0000000000000000e+00  -6.5819486692857460e-29 2.3939849350153086e-28 0.0000000000000000e+00  1.9161179072146177e-29 -6.1747839868339124e-29 0.0000000000000000e+00  4.4322009836102494e-29 -1.4830222985138848e-28 0.0000000000000000e+00  6.8167904454627197e-29 -2.0813374298996811e-28 0.0000000000000000e+00  -8.8348075689382417e-30 1.4485789531411243e-29 0.0000000000000000e+00  -5.8604397439160259e-29 1.5124564144518253e-28 0.0000000000000000e+00  9.5200333770446387e-30 -2.4057643792299239e-29 0.0000000000000000e+00  3.4235296264180818e-30 -8.3212192576920622e-30 0.0000000000000000e+00  -1.1465033053385871e-29 2.1715505024208269e-29 0.0000000000000000e+00  -1.2122360830820446e-30 1.5635083807102981e-30 0.0000000000000000e+00  1.4399011825251743e-30 -2.2976462100838769e-30 0.0000000000000000e+00  -6.8838702323021361e-31 1.0684780778131816e-30 0.0000000000000000e+00  1.0450394635361941e-31 -1.6473996204990496e-31 0.0000000000000000e+00  -1.0904022834503652e-32 1.7346739054660481e-32 0.0000000000000000e+00  -2.8509624384654095e-33 3.6506828000881216e-33 0.0000000000000000e+00  6.4439791695263373e-33 -7.9911362121008953e-33 0.0000000000000000e+00  -7.7526290290947192e-35 1.7590841690100722e-34 0.0000000000000000e+00  -2.3610946396086285e-34 2.5716780034135290e-34 0.0000000000000000e+00  1.5131603920755060e-35 -7.4462246139117676e-36 0.0000000000000000e+00  -5.6641766040444556e-36 6.9923749225800116e-36 0.0000000000000000e+00  2.7748245414634938e-36 -3.1962478934442614e-36 0.0000000000000000e+00  -1.7097167728483158e-36 1.7991587021260189e-36 0.0000000000000000e+00  5.1190731558613862e-37 -5.7887228145108197e-37 0.0000000000000000e+00  -2.4850789803258497e-37 2.6299804218079597e-37 0.0000000000000000e+00  8.1049394462390550e-38 -8.2634345956649871e-38 0.0000000000000000e+00  -1.4751157522875963e-38 1.5441587862125034e-38 0.0000000000000000e+00  5.6791580216589468e-39 -5.7162082557890654e-39 0.0000000000000000e+00  -4.5560896564567483e-40 3.9173699309886209e-40 0.0000000000000000e+00  -1.7637008112213167e-40 2.2060805956306707e-40 0.0000000000000000e+00  7.5070246709991910e-42 -1.8611974376246889e-42 0.0000000000000000e+00  3.7863395713639406e-40 -3.1025385866635056e-40 0.0000000000000000e+00  -8.3798824042172470e-40 6.8297061129066621e-40 0.0000000000000000e+00  2.4871534253661744e-39 -2.3252745281798071e-39 0.0000000000000000e+00  -3.5762993714337729e-40 1.0124436336778888e-39 0.0000000000000000e+00  -1.5160315503517942e-38 1.1617837663023317e-38 0.0000000000000000e+00  4.9169679044174212e-38 -4.1419796949915615e-38 0.0000000000000000e+00  -5.1060379980269866e-38 5.0111625184543922e-38 0.0000000000000000e+00  -1.6600592139553344e-37 1.1324147747364366e-37 0.0000000000000000e+00  8.1466607924791501e-37 -6.3336505362227364e-37 0.0000000000000000e+00  -1.1989806647841478e-36 1.0132183132913572e-36 0.0000000000000000e+00  -1.7886720353050028e-36 1.1217691141185024e-36 0.0000000000000000e+00  1.1595117167191593e-35 -8.5477753030280944e-36 0.0000000000000000e+00  -1.9662618070473109e-35 1.5226628064511465e-35 0.0000000000000000e+00  -2.2594110360563409e-35 1.4227036821971990e-35 0.0000000000000000e+00  1.6871772571683487e-34 -1.1916937258929387e-34 0.0000000000000000e+00  -2.4058645256616957e-34 1.7497303309222987e-34 0.0000000000000000e+00  -4.2621205428616153e-34 2.8054037196574343e-34 0.0000000000000000e+00  2.2598696728709795e-33 -1.5271438434708713e-33 0.0000000000000000e+00  -1.9348277370030293e-33 1.3146995999641181e-33 0.0000000000000000e+00  -8.7622638122498643e-33 5.6845619106819809e-33 0.0000000000000000e+00  2.5452053166636573e-32 -1.6251859614072780e-32 0.0000000000000000e+00  5.7310748779023794e-33 -3.8821468747743984e-33 0.0000000000000000e+00  -1.4470535913837003e-31 8.8739987007292763e-32 0.0000000000000000e+00  1.7609370736237725e-31 -1.0140903051513996e-31 0.0000000000000000e+00  5.0626562892503868e-31 -3.0318533426435049e-31 0.0000000000000000e+00  -1.4072666792780981e-30 7.8158000080496487e-31 0.0000000000000000e+00  -9.6990127891213704e-31 6.1849013984356553e-31 0.0000000000000000e+00  7.7771637343176018e-30 -4.1426541041564378e-30 0.0000000000000000e+00  -1.8172262244180355e-30 3.4216841199881619e-31 0.0000000000000000e+00  -3.5200245097273904e-29 1.8050702522795226e-29 0.0000000000000000e+00  2.7646725078545339e-29 -9.7633735241505943e-30 0.0000000000000000e+00  1.4635139149367355e-28 -7.2673452328690442e-29 0.0000000000000000e+00  -1.6240972291011410e-28 5.2701751101481476e-29 0.0000000000000000e+00  -6.1999629855231700e-28 2.9239328365882984e-28 0.0000000000000000e+00  6.5661753698738267e-28 -1.5730307739192881e-28 0.0000000000000000e+00  2.6118029222627887e-27 -1.1239096046780192e-27 0.0000000000000000e+00  -2.0200940446312174e-27 1.7300153632596952e-28 0.0000000000000000e+00  -1.0173168844407061e-26 3.4466987723552874e-27 0.0000000000000000e+00  2.9337196363486668e-27 1.2615046285853460e-27 0.0000000000000000e+00  3.2472000481072157e-26 -7.7907910010940854e-27 0.0000000000000000e+00  1.6076742626829205e-26 -8.5050151972154050e-27 0.0000000000000000e+00  -8.8931172262318512e-26 1.1831823388688118e-26 0.0000000000000000e+00  -1.3052824970114364e-25 2.0948678820077055e-26 0.0000000000000000e+00  1.6453624317448368e-25 -4.0226205419384590e-26 0.0000000000000000e+00  8.9107289825540102e-25 -1.8619051242157159e-25 0.0000000000000000e+00  1.5807339200704696e-24 -3.0912091147833676e-25 0.0000000000000000e+00  1.8711438922232088e-24 -3.1439692851063154e-25 0.0000000000000000e+00  1.7719583175539140e-24 -1.7681974595177068e-25 0.0000000000000000e+00  1.7567968768747778e-24 2.1906906458965775e-26 0.0000000000000000e+00  1.8864328539662732e-24 1.9689280171679784e-25 0.0000000000000000e+00  1.7736152297650700e-24 2.6273109546437890e-25 0.0000000000000000e+00  1.1886696365817239e-24 1.9746815063798232e-25 0.0000000000000000e+00  3.8153161304509836e-25 6.2599198181770960e-26 0.0000000000000000e+00  -1.2592191845650310e-25 -3.0296893155045461e-26 0.0000000000000000e+00  -1.9045927743890953e-25 -3.7841385653645593e-26 0.0000000000000000e+00  -3.3239006581965420e-26 4.9285635938005452e-28 0.0000000000000000e+00  5.6872445169716998e-26 2.0252937712816077e-26 0.0000000000000000e+00  3.4885911473707767e-26 1.0662785336143859e-26 0.0000000000000000e+00  -4.2330409155059036e-27 -1.8535620310356967e-27 0.0000000000000000e+00  -9.5205836419007392e-27 -3.1453442336961974e-27 0.0000000000000000e+00  -4.3859369991046324e-28 4.4055542252187371e-29 0.0000000000000000e+00  2.4331821007051365e-27 9.2302306423207404e-28 0.0000000000000000e+00  2.5327759153809516e-28 5.5391248507467673e-29 0.0000000000000000e+00  -5.9373641567664154e-28 -2.4364235518009544e-28 0.0000000000000000e+00  -5.2328780796481689e-29 -1.1753664083917761e-29 0.0000000000000000e+00  1.3898418004312359e-28 6.0406221649729927e-29 0.0000000000000000e+00  -7.7225355246034730e-31 -3.0861490702327414e-30 0.0000000000000000e+00  -3.0573805736160072e-29 -1.3932184676962651e-29 0.0000000000000000e+00  3.9272232165741074e-30 2.5524160239352835e-30 0.0000000000000000e+00  5.6282468389296653e-30 2.6505872611418847e-30 0.0000000000000000e+00  -1.8967967486295655e-30 -1.1076879386495023e-30 0.0000000000000000e+00  -7.8674398006208227e-31 -3.6433880328161694e-31 0.0000000000000000e+00  5.6449384711431784e-31 3.2880625399752725e-31 0.0000000000000000e+00  1.5350982055352275e-32 -5.9454775332148404e-33 0.0000000000000000e+00  -1.1789451512321760e-31 -6.9700783045963107e-32 0.0000000000000000e+00  2.8584849435350897e-32 2.0306095537734256e-32 0.0000000000000000e+00  1.5994489200255570e-32 9.2453618043518447e-33 0.0000000000000000e+00  -1.0742306482784262e-32 -7.2068556527781340e-33 0.0000000000000000e+00  3.2263911933641236e-34 4.0082925296559516e-34 0.0000000000000000e+00  1.8424069112680571e-33 1.2464644285572757e-33 0.0000000000000000e+00  -7.2558878844590608e-34 -5.2914770778710816e-34 0.0000000000000000e+00  -8.1469619464301325e-35 -5.1814279184136212e-35 0.0000000000000000e+00  1.6448402637294397e-34 1.2140651051671642e-34 0.0000000000000000e+00  -4.9244390275701339e-35 -3.7472753516403194e-35 0.0000000000000000e+00  -8.9318566961504429e-36 -7.0665565315216043e-36 0.0000000000000000e+00  1.1818115872568956e-35 9.3568072350082576e-36 0.0000000000000000e+00  -3.3789132289688534e-36 -2.6349013837587076e-36 0.0000000000000000e+00  -5.5255849501143305e-37 -5.1414073557713655e-37 0.0000000000000000e+00  7.9128172136178088e-37 6.7085316555693420e-37 0.0000000000000000e+00  -2.5565639287652667e-37 -2.0731813122029629e-37 0.0000000000000000e+00  -1.2645813711927683e-38 -1.8888115399283158e-38 0.0000000000000000e+00  4.5972697934377368e-38 4.2578608509270181e-38 0.0000000000000000e+00  -1.9742582345060759e-38 -1.7165399087141072e-38 0.0000000000000000e+00  1.8820623802419651e-39 9.9822934750497305e-40 0.0000000000000000e+00  2.1327923695244884e-39 2.2549527404279944e-39 0.0000000000000000e+00  -1.3115198388005741e-39 -1.2511485503290981e-39 0.0000000000000000e+00  3.3776856182495960e-40 2.9096009525176572e-40 0.0000000000000000e+00  8.7279119496016036e-41 1.1937681006835231e-40 0.0000000000000000e+00  3.0079959882700677e-40 2.8050146217596976e-40 0.0000000000000000e+00  -6.5509444197967472e-40 -7.6542156465816582e-40 0.0000000000000000e+00  1.3726802014438996e-39 1.6072943013146389e-39 0.0000000000000000e+00  -8.8293221252734193e-39 -1.0793652958898441e-38 0.0000000000000000e+00  7.6243397360546036e-38 8.0782331715687999e-38 0.0000000000000000e+00  -2.1139089284871135e-37 -2.0605442671180714e-37 0.0000000000000000e+00  2.7407720619554243e-37 2.8328534069624107e-37 0.0000000000000000e+00  -3.3776292902249688e-36 -3.9372440527575876e-36 0.0000000000000000e+00  8.9145133178535810e-36 1.2158069852387230e-35 0.0000000000000000e+00  -3.2961391040098740e-35 -5.0345617417796203e-35 0.0000000000000000e+00  7.1543139643575708e-35 1.0628892731040277e-34 0.0000000000000000e+00  -8.2215279411318284e-35 -1.5956878547867607e-34 0.0000000000000000e+00  6.3894120294444588e-34 9.6376659123937852e-34 0.0000000000000000e+00  2.1809867437283322e-34 2.2224076682540482e-34 0.0000000000000000e+00  1.0118922027524328e-33 2.5009394823483139e-33 0.0000000000000000e+00  3.3755345486070126e-32 4.5428949821775547e-32 0.0000000000000000e+00  -1.3136435864301509e-31 -1.8416880760008197e-31 0.0000000000000000e+00  -5.0845587987907361e-31 -7.1734204390940096e-31 0.0000000000000000e+00  1.1963252374046336e-30 1.6909530514084408e-30 0.0000000000000000e+00  -7.4635891192367325e-31 -1.0783593617521114e-30 0.0000000000000000e+00  -2.9156001233050947e-30 -5.7336577313196283e-30 0.0000000000000000e+00  9.4339383624181569e-30 2.1837173578061350e-29 0.0000000000000000e+00  1.1796548814643692e-29 2.7550907644561757e-29 0.0000000000000000e+00  -6.9795045829546975e-29 -1.7295971687021927e-28 0.0000000000000000e+00  2.0725431431216589e-29 4.6939187690033856e-29 0.0000000000000000e+00  8.7981510092000132e-29 1.8149082281004504e-28 0.0000000000000000e+00  1.6360853757493150e-29 7.6458180664242271e-29 0.0000000000000000e+00  1.5960528662532070e-28 5.9985835642912292e-28 0.0000000000000000e+00  7.5835007932856296e-29 2.6075979987454887e-28 0.0000000000000000e+00  -1.3792509222675085e-28 -5.1792828045508658e-28 0.0000000000000000e+00  -3.5556779419353785e-28 -1.3180967909310516e-27 0.0000000000000000e+00  2.2435595805098004e-28 9.7307459518388620e-28 0.0000000000000000e+00  3.3921272715624585e-28 1.6322742112623922e-27 0.0000000000000000e+00  3.0560449352225150e-28 1.3793858522512592e-27 0.0000000000000000e+00  2.7149834370019475e-28 9.2087546560817210e-28 0.0000000000000000e+00  -4.0074561862909103e-28 -2.4022468457599689e-27 0.0000000000000000e+00  -9.9049574080751608e-30 -4.5361933006313716e-28 0.0000000000000000e+00  4.8466079880075428e-29 -1.3221490235904922e-28 0.0000000000000000e+00  -1.8343728465641733e-28 -1.5135972675507734e-27 0.0000000000000000e+00  -1.4730746038415986e-28 -1.4651430460974690e-27 0.0000000000000000e+00  -3.9788882144604839e-28 -2.7340956605680862e-27 0.0000000000000000e+00  -3.1123600626557026e-28 -1.2944006392969190e-27 0.0000000000000000e+00  -8.0159665909513856e-29 1.2709706149984274e-27 0.0000000000000000e+00  -1.5365828543020717e-28 -4.8370062135663451e-28 0.0000000000000000e+00  -6.2498961731529358e-29 -2.4730240466292276e-27 0.0000000000000000e+00  -1.4116044232545051e-28 5.5577745530337885e-28 0.0000000000000000e+00  -1.3764197080945674e-28 4.1679798237531387e-28 0.0000000000000000e+00  3.0945074330895127e-29 -1.6856469283108270e-27 0.0000000000000000e+00  -1.2080897900037857e-29 -6.7530474535725744e-28 0.0000000000000000e+00  1.5689980936215205e-28 -1.7766154243992358e-27 0.0000000000000000e+00  -2.2170390234089624e-28 1.5626078916683170e-27 0.0000000000000000e+00  -2.1256426343542399e-28 1.4630987081419562e-27 0.0000000000000000e+00  3.2574423293060808e-28 -1.8456602678430926e-27 0.0000000000000000e+00  1.6108846201074853e-28 -5.4027437602052216e-28 0.0000000000000000e+00  3.3809598421953449e-28 -2.2036432343717697e-27 0.0000000000000000e+00  9.9382823779223645e-29 8.3782141672534079e-28 0.0000000000000000e+00  9.2631320793513565e-29 1.7532020633834826e-28 0.0000000000000000e+00  4.1199685072383180e-28 -1.2966359252378353e-27 0.0000000000000000e+00  2.3582197835425663e-28 -6.8492047461052146e-28 0.0000000000000000e+00  4.5222290797705728e-28 -2.6544738883131546e-27 0.0000000000000000e+00  7.1667238222324229e-28 -3.6679258869395183e-27 0.0000000000000000e+00  8.1287244098868678e-28 -4.6305175634068720e-27 0.0000000000000000e+00  1.9333270800669780e-28 -1.1294598787980523e-27 0.0000000000000000e+00  -3.7142722415516543e-28 1.6533315597629377e-27 0.0000000000000000e+00  -5.0114572221116772e-28 2.5034608417195465e-27 0.0000000000000000e+00  -5.3863180208531969e-28 2.6100728876861914e-27 0.0000000000000000e+00  -1.0267456916834340e-28 5.3879070412909451e-28 0.0000000000000000e+00  1.4290470055121023e-28 -5.9353664513215321e-28 0.0000000000000000e+00  8.0048003926921204e-29 -3.8734130523178541e-28 0.0000000000000000e+00  3.4281959977582624e-28 -1.4998731449301453e-27 0.0000000000000000e+00  1.5463489823291243e-28 -6.1293557638152430e-28 0.0000000000000000e+00  -1.3242846072483978e-28 5.2538423905518554e-28 0.0000000000000000e+00  -1.0641306720339965e-29 1.5578849790949208e-30 0.0000000000000000e+00  1.9355827118399596e-29 -5.4785882361223297e-29 0.0000000000000000e+00  4.0659533978394887e-29 -1.1779816557286031e-28 0.0000000000000000e+00  -9.5416870239250061e-30 2.4583443237055525e-29 0.0000000000000000e+00  -1.4175170154699860e-29 3.5650754292351311e-29 0.0000000000000000e+00  7.3693890