<?xml version="1.0"?>
<VTKFile type="UnstructuredGrid"  version="0.1"  >
<UnstructuredGrid>
<Piece  NumberOfPoints="11902" NumberOfCells="23402">
<Points>
<DataArray  type="Float64"  NumberOfComponents="3"  format="ascii">-5 -5 0  5 -5 0  5 5 0  -5 5 0  1.249158123461791 0.001367190120957591 0  -4.9 -5 0  -4.8 -5 0  -4.7 -5 0  -4.6 -5 0  -4.5 -5 0  -4.4 -5 0  -4.3 -5 0  -4.2 -5 0  -4.1 -5 0  -4 -5 0  -3.9 -5 0  -3.8 -5 0  -3.7 -5 0  -3.6 -5 0  -3.5 -5 0  -3.4 -5 0  -3.3 -5 0  -3.2 -5 0  -3.1 -5 0  -3 -5 0  -2.9 -5 0  -2.8 -5 0  -2.7 -5 0  -2.6 -5 0  -2.5 -5 0  -2.4 -5 0  -2.3 -5 0  -2.2 -5 0  -2.1 -5 0  -2 -5 0  -1.9 -5 0  -1.8 -5 0  -1.7 -5 0  -1.6 -5 0  -1.5 -5 0  -1.4 -5 0  -1.3 -5 0  -1.2 -5 0  -1.1 -5 0  -1 -5 0  -0.9000000000000004 -5 0  -0.7999999999999998 -5 0  -0.7000000000000002 -5 0  -0.5999999999999996 -5 0  -0.5 -5 0  -0.4000000000000004 -5 0  -0.2999999999999998 -5 0  -0.2000000000000002 -5 0  -0.09999999999999964 -5 0  0 -5 0  0.09999999999999964 -5 0  0.2000000000000002 -5 0  0.2999999999999998 -5 0  0.4000000000000004 -5 0  0.5 -5 0  0.5999999999999996 -5 0  0.7000000000000002 -5 0  0.7999999999999998 -5 0  0.9000000000000004 -5 0  1 -5 0  1.1 -5 0  1.2 -5 0  1.3 -5 0  1.4 -5 0  1.5 -5 0  1.6 -5 0  1.7 -5 0  1.8 -5 0  1.9 -5 0  2 -5 0  2.1 -5 0  2.2 -5 0  2.3 -5 0  2.4 -5 0  2.5 -5 0  2.6 -5 0  2.7 -5 0  2.8 -5 0  2.9 -5 0  3 -5 0  3.1 -5 0  3.199999999999999 -5 0  3.300000000000001 -5 0  3.4 -5 0  3.5 -5 0  3.6 -5 0  3.699999999999999 -5 0  3.800000000000001 -5 0  3.9 -5 0  4 -5 0  4.1 -5 0  4.199999999999999 -5 0  4.300000000000001 -5 0  4.4 -5 0  4.5 -5 0  4.6 -5 0  4.699999999999999 -5 0  4.800000000000001 -5 0  4.9 -5 0  5 -4.9 0  5 -4.8 0  5 -4.7 0  5 -4.6 0  5 -4.5 0  5 -4.4 0  5 -4.3 0  5 -4.2 0  5 -4.1 0  5 -4 0  5 -3.9 0  5 -3.8 0  5 -3.7 0  5 -3.6 0  5 -3.5 0  5 -3.4 0  5 -3.3 0  5 -3.2 0  5 -3.1 0  5 -3 0  5 -2.9 0  5 -2.8 0  5 -2.7 0  5 -2.6 0  5 -2.5 0  5 -2.4 0  5 -2.3 0  5 -2.2 0  5 -2.1 0  5 -2 0  5 -1.9 0  5 -1.8 0  5 -1.7 0  5 -1.6 0  5 -1.5 0  5 -1.4 0  5 -1.3 0  5 -1.2 0  5 -1.1 0  5 -1 0  5 -0.9000000000000004 0  5 -0.7999999999999998 0  5 -0.7000000000000002 0  5 -0.5999999999999996 0  5 -0.5 0  5 -0.4000000000000004 0  5 -0.2999999999999998 0  5 -0.2000000000000002 0  5 -0.09999999999999964 0  5 0 0  5 0.09999999999999964 0  5 0.2000000000000002 0  5 0.2999999999999998 0  5 0.4000000000000004 0  5 0.5 0  5 0.5999999999999996 0  5 0.7000000000000002 0  5 0.7999999999999998 0  5 0.9000000000000004 0  5 1 0  5 1.1 0  5 1.2 0  5 1.3 0  5 1.4 0  5 1.5 0  5 1.6 0  5 1.7 0  5 1.8 0  5 1.9 0  5 2 0  5 2.1 0  5 2.2 0  5 2.3 0  5 2.4 0  5 2.5 0  5 2.6 0  5 2.7 0  5 2.8 0  5 2.9 0  5 3 0  5 3.1 0  5 3.199999999999999 0  5 3.300000000000001 0  5 3.4 0  5 3.5 0  5 3.6 0  5 3.699999999999999 0  5 3.800000000000001 0  5 3.9 0  5 4 0  5 4.1 0  5 4.199999999999999 0  5 4.300000000000001 0  5 4.4 0  5 4.5 0  5 4.6 0  5 4.699999999999999 0  5 4.800000000000001 0  5 4.9 0  4.9 5 0  4.8 5 0  4.7 5 0  4.6 5 0  4.5 5 0  4.4 5 0  4.3 5 0  4.2 5 0  4.1 5 0  4 5 0  3.9 5 0  3.8 5 0  3.7 5 0  3.6 5 0  3.5 5 0  3.4 5 0  3.3 5 0  3.2 5 0  3.1 5 0  3 5 0  2.9 5 0  2.8 5 0  2.7 5 0  2.6 5 0  2.5 5 0  2.4 5 0  2.3 5 0  2.2 5 0  2.1 5 0  2 5 0  1.9 5 0  1.8 5 0  1.7 5 0  1.6 5 0  1.5 5 0  1.4 5 0  1.3 5 0  1.2 5 0  1.1 5 0  1 5 0  0.9000000000000004 5 0  0.7999999999999998 5 0  0.7000000000000002 5 0  0.5999999999999996 5 0  0.5 5 0  0.4000000000000004 5 0  0.2999999999999998 5 0  0.2000000000000002 5 0  0.09999999999999964 5 0  0 5 0  -0.09999999999999964 5 0  -0.2000000000000002 5 0  -0.2999999999999998 5 0  -0.4000000000000004 5 0  -0.5 5 0  -0.5999999999999996 5 0  -0.7000000000000002 5 0  -0.7999999999999998 5 0  -0.9000000000000004 5 0  -1 5 0  -1.1 5 0  -1.2 5 0  -1.3 5 0  -1.4 5 0  -1.5 5 0  -1.6 5 0  -1.7 5 0  -1.8 5 0  -1.9 5 0  -2 5 0  -2.1 5 0  -2.2 5 0  -2.3 5 0  -2.4 5 0  -2.5 5 0  -2.6 5 0  -2.7 5 0  -2.8 5 0  -2.9 5 0  -3 5 0  -3.1 5 0  -3.199999999999999 5 0  -3.300000000000001 5 0  -3.4 5 0  -3.5 5 0  -3.6 5 0  -3.699999999999999 5 0  -3.800000000000001 5 0  -3.9 5 0  -4 5 0  -4.1 5 0  -4.199999999999999 5 0  -4.300000000000001 5 0  -4.4 5 0  -4.5 5 0  -4.6 5 0  -4.699999999999999 5 0  -4.800000000000001 5 0  -4.9 5 0  -5 4.9 0  -5 4.8 0  -5 4.7 0  -5 4.6 0  -5 4.5 0  -5 4.4 0  -5 4.3 0  -5 4.2 0  -5 4.1 0  -5 4 0  -5 3.9 0  -5 3.8 0  -5 3.7 0  -5 3.6 0  -5 3.5 0  -5 3.4 0  -5 3.3 0  -5 3.2 0  -5 3.1 0  -5 3 0  -5 2.9 0  -5 2.8 0  -5 2.7 0  -5 2.6 0  -5 2.5 0  -5 2.4 0  -5 2.3 0  -5 2.2 0  -5 2.1 0  -5 2 0  -5 1.9 0  -5 1.8 0  -5 1.7 0  -5 1.6 0  -5 1.5 0  -5 1.4 0  -5 1.3 0  -5 1.2 0  -5 1.1 0  -5 1 0  -5 0.9000000000000004 0  -5 0.7999999999999998 0  -5 0.7000000000000002 0  -5 0.5999999999999996 0  -5 0.5 0  -5 0.4000000000000004 0  -5 0.2999999999999998 0  -5 0.2000000000000002 0  -5 0.09999999999999964 0  -5 0 0  -5 -0.09999999999999964 0  -5 -0.2000000000000002 0  -5 -0.2999999999999998 0  -5 -0.4000000000000004 0  -5 -0.5 0  -5 -0.5999999999999996 0  -5 -0.7000000000000002 0  -5 -0.7999999999999998 0  -5 -0.9000000000000004 0  -5 -1 0  -5 -1.1 0  -5 -1.2 0  -5 -1.3 0  -5 -1.4 0  -5 -1.5 0  -5 -1.6 0  -5 -1.7 0  -5 -1.8 0  -5 -1.9 0  -5 -2 0  -5 -2.1 0  -5 -2.2 0  -5 -2.3 0  -5 -2.4 0  -5 -2.5 0  -5 -2.6 0  -5 -2.7 0  -5 -2.8 0  -5 -2.9 0  -5 -3 0  -5 -3.1 0  -5 -3.199999999999999 0  -5 -3.300000000000001 0  -5 -3.4 0  -5 -3.5 0  -5 -3.6 0  -5 -3.699999999999999 0  -5 -3.800000000000001 0  -5 -3.9 0  -5 -4 0  -5 -4.1 0  -5 -4.199999999999999 0  -5 -4.300000000000001 0  -5 -4.4 0  -5 -4.5 0  -5 -4.6 0  -5 -4.699999999999999 0  -5 -4.800000000000001 0  -5 -4.9 0  1.241642322287621 0.096051310503718 0  1.220713026014526 0.1933454520805838 0  1.187504174670719 0.2899094017494636 0  1.144856047802527 0.3792891517356057 0  1.08798342520879 0.46989639297408 0  1.022910304431343 0.5545455377082328 0  0.9455559049625476 0.6343147864976423 0  0.8596032355700193 0.7083830536673088 0  0.7680135327632994 0.7737565433222506 0  0.666060564096468 0.8312816791902914 0  0.5558010405830632 0.8835411499960533 0  0.4439752528958652 0.9271185033457507 0  0.331126918656731 0.9597427420001597 0  0.2082176164593022 0.9813249761854743 0  0.08937021450299068 0.9996115813238767 0  -0.02746168032136102 1.002734764712205 0  -0.145197288460426 0.9896527072342526 0  -0.2703571187661127 0.9711590212231398 0  -0.3888378233557009 0.9464992203019068 0  -0.4996941577698403 0.9102090881528608 0  -0.6082325191097679 0.8638461521792808 0  -0.7103161865285262 0.8094071776840646 0  -0.8047322006553889 0.7448545391677671 0  -0.8948273962196136 0.6721219611960343 0  -0.9790521990599427 0.5928899219107211 0  -1.052084678621287 0.5116992775782059 0  -1.113552081217143 0.4257946579038953 0  -1.165193315974273 0.3340890085101803 0  -1.203002971815286 0.2431639942278873 0  -1.227504798677191 0.1486221676693726 0  -1.239246520650313 0.05101240791950806 0  -1.239197333437485 -0.04889966129425902 0  -1.227424044227322 -0.1458603965228678 0  -1.202780786623987 -0.2395093140770714 0  -1.162709679790563 -0.334410647710386 0  -1.113795590532829 -0.4256595608496089 0  -1.053530908957733 -0.5113800721641022 0  -0.9813046476578435 -0.5918329070220452 0  -0.8976977048193019 -0.6698368789338246 0  -0.8079337730064089 -0.7410121319762935 0  -0.7120078426336993 -0.8019802582471102 0  -0.6078604065685459 -0.8552834050027761 0  -0.4955718849649002 -0.9043932747530844 0  -0.3829167505244176 -0.9436753203387005 0  -0.2670582718280047 -0.9706325918764527 0  -0.1438478562882781 -0.9892443520334386 0  -0.02797412730852998 -1.001894677424413 0  0.08931583477391386 -0.9951040117763817 0  0.2129581988512844 -0.978290444033365 0  0.3334965349380022 -0.9581742389867671 0  0.4480654809994561 -0.9257840103504965 0  0.558066454079104 -0.8826610529358835 0  0.6669476039894233 -0.8313040949243227 0  0.7680267103557901 -0.774917187345354 0  0.8597021955379658 -0.7093408710186376 0  0.9448973041896748 -0.6342543279326335 0  1.020444318272826 -0.5537533179427957 0  1.088275777554535 -0.4689220467404168 0  1.145763274020723 -0.3794569835150061 0  1.189212779841161 -0.2879244282257882 0  1.2212956703317 -0.1924600860073688 0  1.241881517532327 -0.09571366794562973 0  -2.448591105799504 4.918168101971027 0  -2.448467977289441 -4.910551377803825 0  4.910477016559416 2.447934164216218 0  4.918598203248292 -2.449392099244062 0  2.446202944405135 -4.895792813826984 0  2.440635266817621 4.89955334308087 0  -4.910503644084654 -2.447960147567978 0  -4.910501011994923 2.447964032273275 0  -1.748546372833522 4.91108035350266 0  -1.744331749792312 -4.91451886313192 0  4.920668295901225 1.744105247298806 0  4.909206984821661 -1.747871463692851 0  -4.909500427970048 -1.747605196024609 0  -4.910322376853622 1.74734963110442 0  1.745821175000788 4.904941650643236 0  1.747238071976453 -4.893094689203692 0  -1.148851141102467 4.908878154798622 0  -1.129706655350874 -4.916788629885423 0  -4.909230585363619 -1.147926734113634 0  -4.909049065632473 1.147727096797815 0  1.143845203617274 -4.912975212065724 0  1.148860898001502 4.90886503401978 0  4.909370971138797 1.146202203061878 0  4.920197693165037 -1.151984246469644 0  -0.5466739821560208 -4.910073906109318 0  -0.5464560925501634 4.918754079722121 0  -4.907973216500358 -0.548707901990092 0  -4.907997210779395 0.5472654986931135 0  4.907293334876778 -0.5490263027837348 0  4.918945468087337 0.545783684329695 0  0.542456847001082 -4.896958253271038 0  0.5511848853641029 4.91557840924553 0  -4.911914452578086 -3.048311668065036 0  4.918484005588076 3.046326650431698 0  4.911422460946065 -3.0482876523133 0  -4.912762133833635 3.045403084555768 0  3.055313982032795 -4.917408602591548 0  -3.04864584734691 -4.911345971276179 0  3.052212790038842 4.913423384266468 0  -3.048091359650702 4.912235581570101 0  -4.90708507693998 -0.04990769895723298 0  0.04512013933841519 -4.912024474970763 0  0.04956783324107882 4.919048482222912 0  4.914137795192372 -0.05128976611265518 0  3.54562972904851 -4.919044849312702 0  -3.548911126535714 4.911946
[...]
<PointData  Vectors="f_4050"> 
<DataArray  type="Float64"  Name="f_4050"  NumberOfComponents="3" format="ascii">-8.4551339697544415e-41 -1.1930388871258711e-40 0.0000000000000000e+00  8.8315633681286710e-41 -1.1785996302022280e-40 0.0000000000000000e+00  -1.8167184901108254e-40 -1.7466938274255237e-40 0.0000000000000000e+00  -1.9149132936749997e-40 1.9402426665938836e-40 0.0000000000000000e+00  1.6351232149646123e+01 1.3861833070625620e-01 0.0000000000000000e+00  2.1816287757551476e-40 2.6509455185471997e-40 0.0000000000000000e+00  7.8096452755112669e-40 7.4539524291499003e-40 0.0000000000000000e+00  -2.0156386717968268e-39 -2.0925719098417417e-39 0.0000000000000000e+00  1.5119779551512114e-38 1.7704570129992267e-38 0.0000000000000000e+00  -5.3610022325893160e-38 -6.2173856633707636e-38 0.0000000000000000e+00  1.9674258369171956e-37 2.6081603324556290e-37 0.0000000000000000e+00  -7.5069673498934842e-37 -1.0424057250450899e-36 0.0000000000000000e+00  3.8699354612023064e-36 5.2873568905828574e-36 0.0000000000000000e+00  -2.1775460725619177e-35 -2.7879542874490604e-35 0.0000000000000000e+00  9.4235539131626551e-35 1.2075400084003515e-34 0.0000000000000000e+00  -2.0890206949779541e-34 -2.5005472984824621e-34 0.0000000000000000e+00  3.9687906431991619e-34 4.3029878179966922e-34 0.0000000000000000e+00  1.6929851706175908e-33 1.9111733974412946e-33 0.0000000000000000e+00  -6.8984644933581419e-33 -8.8106115216224112e-33 0.0000000000000000e+00  1.6867002442811868e-32 2.4887242254522784e-32 0.0000000000000000e+00  -1.0459281513573820e-31 -1.4706537842775112e-31 0.0000000000000000e+00  2.8392449238747027e-31 4.0029633122530203e-31 0.0000000000000000e+00  2.1660835458092529e-31 2.3950590246676788e-31 0.0000000000000000e+00  -1.7033266422307833e-30 -2.0506322112519863e-30 0.0000000000000000e+00  -4.6088735715049663e-31 -1.1053589995345781e-30 0.0000000000000000e+00  -5.2702012701530773e-31 -1.9159161441829629e-30 0.0000000000000000e+00  3.4739228031574900e-30 7.2394533406826517e-30 0.0000000000000000e+00  -8.2565172275828925e-30 -2.9974992459127008e-29 0.0000000000000000e+00  2.9613920425833949e-29 8.1745503020304517e-29 0.0000000000000000e+00  1.6585440390851385e-29 5.0368926540650604e-29 0.0000000000000000e+00  -1.4861757774845978e-28 -3.9255773699865443e-28 0.0000000000000000e+00  -6.0794087382806615e-29 -1.6998000272327867e-28 0.0000000000000000e+00  -8.8853669969318201e-29 -3.3413469802106504e-28 0.0000000000000000e+00  1.4167644628749747e-28 4.6774704486778804e-28 0.0000000000000000e+00  3.6785041153409851e-28 1.4220858907232899e-27 0.0000000000000000e+00  6.3712417196600220e-29 -5.4981352717270826e-29 0.0000000000000000e+00  1.7503232799369980e-28 4.3169064699509496e-28 0.0000000000000000e+00  -4.3626384803596002e-29 -2.4556882136306060e-28 0.0000000000000000e+00  -4.4846280819413222e-28 -1.4034675109141775e-27 0.0000000000000000e+00  -4.4633003153209800e-28 -1.3166807442864769e-27 0.0000000000000000e+00  -5.1205572147136782e-29 -1.2497254104154045e-28 0.0000000000000000e+00  3.8539516397334600e-28 1.3074118618209777e-27 0.0000000000000000e+00  2.5940608829427589e-28 7.1943616768908309e-28 0.0000000000000000e+00  7.0683669802947942e-30 -1.9473444084996147e-28 0.0000000000000000e+00  1.3669500344707064e-28 2.6622802528322405e-28 0.0000000000000000e+00  -2.8476398261274787e-28 1.0063059604339924e-27 0.0000000000000000e+00  -1.6466388879001531e-28 1.4759363741365914e-27 0.0000000000000000e+00  1.7861544824522245e-28 -8.8212972671164608e-28 0.0000000000000000e+00  -5.1638631810917841e-29 4.4533993431893687e-27 0.0000000000000000e+00  -2.8332092956848331e-28 4.9710165259364638e-29 0.0000000000000000e+00  -5.6094979077524255e-28 -3.6870453435874548e-27 0.0000000000000000e+00  -6.5162713967922659e-28 -1.9989159943851093e-27 0.0000000000000000e+00  -4.1003854627294576e-28 -3.2162205140028182e-27 0.0000000000000000e+00  1.2268817919237103e-28 -8.5132376994188812e-27 0.0000000000000000e+00  2.7143515332843893e-28 -9.7669608251312636e-27 0.0000000000000000e+00  -4.4476016350198144e-29 -1.6323195555966223e-27 0.0000000000000000e+00  -5.5990393745822863e-29 -5.2453572622939778e-27 0.0000000000000000e+00  -1.1501775858070359e-28 -1.9067263248995971e-27 0.0000000000000000e+00  2.0591001502733912e-29 -3.3974697006798752e-27 0.0000000000000000e+00  -1.1993346268785567e-28 1.6846514014731484e-27 0.0000000000000000e+00  2.5650101569745618e-28 -4.5742815630443632e-27 0.0000000000000000e+00  4.1773975498966658e-28 -4.2031106435833271e-27 0.0000000000000000e+00  -2.5470075480644589e-29 9.8177789874524631e-28 0.0000000000000000e+00  -5.0133827500477127e-28 6.5016941830723683e-27 0.0000000000000000e+00  -2.8171587342137673e-28 2.6005843768584967e-27 0.0000000000000000e+00  -2.8936670185708941e-28 1.3811975875210990e-27 0.0000000000000000e+00  -5.4682557072863533e-28 3.7475171977437943e-27 0.0000000000000000e+00  -3.1756959806777692e-28 1.9811874940444246e-27 0.0000000000000000e+00  3.1505458200908210e-28 -2.3401034350241927e-27 0.0000000000000000e+00  2.3937314232138181e-28 -1.0935225408070308e-27 0.0000000000000000e+00  4.9923608582178286e-29 -1.4389613029569396e-28 0.0000000000000000e+00  2.5798433568910218e-28 -7.8694160310291379e-28 0.0000000000000000e+00  1.6036911134388768e-28 -6.2045497370964465e-28 0.0000000000000000e+00  -1.4282575152546713e-28 5.4891545326153727e-28 0.0000000000000000e+00  -7.9283067673522450e-29 2.8044470637848084e-28 0.0000000000000000e+00  -5.9760989881687717e-29 2.3301839620932702e-28 0.0000000000000000e+00  2.0655041104153407e-29 -6.0540074312863094e-29 0.0000000000000000e+00  3.9176204491554042e-29 -1.4495635016344012e-28 0.0000000000000000e+00  6.1835378655958399e-29 -2.0454715771212183e-28 0.0000000000000000e+00  -9.2926007113463699e-30 1.4970184894850536e-29 0.0000000000000000e+00  -5.5740538023919392e-29 1.4989812170765981e-28 0.0000000000000000e+00  9.0644694844764228e-30 -2.3833123764268602e-29 0.0000000000000000e+00  3.2906091173482493e-30 -8.3023374122323912e-30 0.0000000000000000e+00  -1.1474561914298365e-29 2.1894030156225439e-29 0.0000000000000000e+00  -1.2607228359935458e-30 1.6152145882894966e-30 0.0000000000000000e+00  1.4607203436365827e-30 -2.3301560633060444e-30 0.0000000000000000e+00  -6.8650348630753108e-31 1.0661573881384454e-30 0.0000000000000000e+00  1.0943521446964834e-31 -1.7179452613384973e-31 0.0000000000000000e+00  -1.1144851580524094e-32 1.7780245239674356e-32 0.0000000000000000e+00  -3.4199869474344005e-33 4.3590607894526279e-33 0.0000000000000000e+00  6.6109930270410700e-33 -8.1232447335411535e-33 0.0000000000000000e+00  -1.7188180968096907e-34 2.9889564228999590e-34 0.0000000000000000e+00  -2.0295920235458456e-34 2.1060702496625134e-34 0.0000000000000000e+00  7.7376575118090838e-36 2.9073064689373081e-36 0.0000000000000000e+00  -3.5105450972168108e-36 4.2620133565756282e-36 0.0000000000000000e+00  2.5819334258945067e-36 -2.9397116958974458e-36 0.0000000000000000e+00  -1.7825032926399301e-36 1.8723902390621466e-36 0.0000000000000000e+00  5.3153250476981196e-37 -6.0371418405298056e-37 0.0000000000000000e+00  -2.5546811892922886e-37 2.7064436647178022e-37 0.0000000000000000e+00  8.2639010906112769e-38 -8.4105664415517055e-38 0.0000000000000000e+00  -1.4828301539817275e-38 1.5475208466941116e-38 0.0000000000000000e+00  5.6090269316401978e-39 -5.6422558966255898e-39 0.0000000000000000e+00  -4.6647030057587888e-40 3.9764045568020099e-40 0.0000000000000000e+00  -1.5887297576822705e-40 2.0732796619322475e-40 0.0000000000000000e+00  9.5677340941575046e-42 -3.8377137478360755e-42 0.0000000000000000e+00  3.8206389712172931e-40 -3.1248887789437196e-40 0.0000000000000000e+00  -8.3955627495624739e-40 6.8235924633863974e-40 0.0000000000000000e+00  2.3591322006094675e-39 -2.2485803871148087e-39 0.0000000000000000e+00  1.3585006090491397e-41 8.0881521658074396e-40 0.0000000000000000e+00  -1.5534615740378531e-38 1.1783263993110324e-38 0.0000000000000000e+00  4.8028398913790202e-38 -4.0722624621935558e-38 0.0000000000000000e+00  -4.5061773616932126e-38 4.6962721551589240e-38 0.0000000000000000e+00  -1.7765561099864120e-37 1.1876155851827073e-37 0.0000000000000000e+00  8.1474938598857047e-37 -6.3211946383420443e-37 0.0000000000000000e+00  -1.1294826216706034e-36 9.7721746634168441e-37 0.0000000000000000e+00  -1.9828696760662491e-36 1.2168311462189776e-36 0.0000000000000000e+00  1.1727476938718886e-35 -8.6078789317729457e-36 0.0000000000000000e+00  -1.8987164072485662e-35 1.4884907667693619e-35 0.0000000000000000e+00  -2.5014372717285041e-35 1.5480776823644197e-35 0.0000000000000000e+00  1.7109772371294292e-34 -1.2055420214610014e-34 0.0000000000000000e+00  -2.3405647668105013e-34 1.7164567192691400e-34 0.0000000000000000e+00  -4.5157103525562392e-34 2.9541969776013597e-34 0.0000000000000000e+00  2.2834765711097742e-33 -1.5449618268040733e-33 0.0000000000000000e+00  -1.8629337687247211e-33 1.2733673382932751e-33 0.0000000000000000e+00  -9.0098617667009240e-33 5.8670138895932937e-33 0.0000000000000000e+00  2.5560982268349027e-32 -1.6377440266527423e-32 0.0000000000000000e+00  6.5948963448358981e-33 -4.5859460868264775e-33 0.0000000000000000e+00  -1.4656159371743587e-31 9.0644729638965424e-32 0.0000000000000000e+00  1.7525936046405069e-31 -1.0085708131109265e-31 0.0000000000000000e+00  5.1441958813704954e-31 -3.1334109677621636e-31 0.0000000000000000e+00  -1.4148354707548143e-30 7.9187713279189035e-31 0.0000000000000000e+00  -9.8844829197245194e-31 6.5391589978083232e-31 0.0000000000000000e+00  7.8325030575426294e-30 -4.2318266165551531e-30 0.0000000000000000e+00  -1.8318486902040815e-30 2.5908866233537969e-31 0.0000000000000000e+00  -3.5431868302267861e-29 1.8554261522411377e-29 0.0000000000000000e+00  2.8099875395448963e-29 -9.7019283029959609e-30 0.0000000000000000e+00  1.4713124545423133e-28 -7.5126526308898948e-29 0.0000000000000000e+00  -1.6589031810186535e-28 5.3189164769518405e-29 0.0000000000000000e+00  -6.2326692057973363e-28 3.0394946989964108e-28 0.0000000000000000e+00  6.7746620800453086e-28 -1.5773596795037022e-28 0.0000000000000000e+00  2.6304075766639398e-27 -1.1734591879018810e-27 0.0000000000000000e+00  -2.1222654054448821e-27 1.5723994573564552e-28 0.0000000000000000e+00  -1.0330550036616980e-26 3.6059655718295912e-27 0.0000000000000000e+00  3.3172578939792379e-27 1.3686863007751425e-27 0.0000000000000000e+00  3.3396651360779945e-26 -8.2276360789611121e-27 0.0000000000000000e+00  1.6008987013567298e-26 -9.3276184968232869e-27 0.0000000000000000e+00  -9.1221584204037688e-26 1.1675736766981699e-26 0.0000000000000000e+00  -1.3013533747677533e-25 2.0665982396394841e-26 0.0000000000000000e+00  1.7897260569481249e-25 -4.5831847562408298e-26 0.0000000000000000e+00  9.2835372002396196e-25 -2.0513378424453197e-25 0.0000000000000000e+00  1.6285466414755325e-24 -3.4049708179023520e-25 0.0000000000000000e+00  1.9086373176499887e-24 -3.4704668022355088e-25 0.0000000000000000e+00  1.7887396856844271e-24 -1.9510804682303616e-25 0.0000000000000000e+00  1.7636092727174136e-24 2.4777282804777341e-26 0.0000000000000000e+00  1.8986798112049244e-24 2.1628192675298198e-25 0.0000000000000000e+00  1.7933797686028688e-24 2.8586145879026790e-25 0.0000000000000000e+00  1.2072420844955529e-24 2.1323107981065133e-25 0.0000000000000000e+00  3.9204912203788659e-25 6.7825123090065914e-26 0.0000000000000000e+00  -1.2186017171093010e-25 -3.0888357535219440e-26 0.0000000000000000e+00  -1.8904711082834392e-25 -3.8741336538030218e-26 0.0000000000000000e+00  -3.2610600546041776e-26 1.1799307232768946e-27 0.0000000000000000e+00  5.7028690991304083e-26 2.1348385221993716e-26 0.0000000000000000e+00  3.4921999698425089e-26 1.1144448449600762e-26 0.0000000000000000e+00  -4.0334716453826557e-27 -1.7971173497947881e-27 0.0000000000000000e+00  -9.3155344872544761e-27 -3.1236409613532096e-27 0.0000000000000000e+00  -4.0370607144232128e-28 7.6080783614737035e-29 0.0000000000000000e+00  2.3745173340626280e-27 9.1849788186936155e-28 0.0000000000000000e+00  2.2913840457203626e-28 4.0362840717581429e-29 0.0000000000000000e+00  -5.8143508798743780e-28 -2.4309378754443463e-28 0.0000000000000000e+00  -4.4937374030077751e-29 -6.7118252285990949e-30 0.0000000000000000e+00  1.3648307037481418e-28 6.0183383745769988e-29 0.0000000000000000e+00  -2.4761888273589379e-30 -4.5566260807251653e-30 0.0000000000000000e+00  -3.0002634653185022e-29 -1.3783984977323204e-29 0.0000000000000000e+00  4.2401002357153837e-30 2.8963569272600524e-30 0.0000000000000000e+00  5.4951299744659890e-30 2.5763588758114117e-30 0.0000000000000000e+00  -1.9414817356431947e-30 -1.1747500284464719e-30 0.0000000000000000e+00  -7.5762407132880972e-31 -3.3937850802925962e-31 0.0000000000000000e+00  5.6881972288226792e-31 3.3834900302785600e-31 0.0000000000000000e+00  9.3389690045018129e-33 -1.2876102527495090e-32 0.0000000000000000e+00  -1.1773168558509153e-31 -7.0226899043668852e-32 0.0000000000000000e+00  2.9749434071476211e-32 2.1827180794456373e-32 0.0000000000000000e+00  1.5673080645671652e-32 8.9420097015394208e-33 0.0000000000000000e+00  -1.0888218593119023e-32 -7.4092196279338315e-33 0.0000000000000000e+00  4.2489716180433855e-34 5.1118105897656245e-34 0.0000000000000000e+00  1.8372069119725929e-33 1.2463774363569418e-33 0.0000000000000000e+00  -7.4427970205960385e-34 -5.4898604364084158e-34 0.0000000000000000e+00  -7.3105129396685998e-35 -4.4679753969365007e-35 0.0000000000000000e+00  1.6481929052605500e-34 1.2221716186128176e-34 0.0000000000000000e+00  -5.0985326432657725e-35 -3.8953755460072920e-35 0.0000000000000000e+00  -8.2153092266182366e-36 -6.5965655627309962e-36 0.0000000000000000e+00  1.1820402054012156e-35 9.4017531805773641e-36 0.0000000000000000e+00  -3.5093489671687991e-36 -2.7293343322038629e-36 0.0000000000000000e+00  -4.8987628373915902e-37 -4.7835459192366597e-37 0.0000000000000000e+00  7.8353643420202763e-37 6.6894788910608357e-37 0.0000000000000000e+00  -2.6287722685417417e-37 -2.1213182443506916e-37 0.0000000000000000e+00  -7.5396930424776543e-39 -1.6110473328206066e-38 0.0000000000000000e+00  4.4610034048465078e-38 4.1936108356222008e-38 0.0000000000000000e+00  -1.9896405315500946e-38 -1.7285891190272809e-38 0.0000000000000000e+00  2.2055253858413794e-39 1.1774688711678530e-39 0.0000000000000000e+00  1.9879417175705278e-39 2.1774777026305064e-39 0.0000000000000000e+00  -1.2865344475311998e-39 -1.2379787003258442e-39 0.0000000000000000e+00  3.4591764285127121e-40 2.9582411166367592e-40 0.0000000000000000e+00  7.4817783724390616e-41 1.1210705116995881e-40 0.0000000000000000e+00  3.0148258612871458e-40 2.7985151771679597e-40 0.0000000000000000e+00  -6.1705027866790793e-40 -7.3963829623731772e-40 0.0000000000000000e+00  1.3118611484457750e-39 1.5657575581377581e-39 0.0000000000000000e+00  -8.2614052544027523e-39 -1.0431425441586780e-38 0.0000000000000000e+00  7.3941727129122567e-38 7.9233053837833528e-38 0.0000000000000000e+00  -2.0951603466193312e-37 -2.0562855670584250e-37 0.0000000000000000e+00  2.7653445534821947e-37 2.8946135140661087e-37 0.0000000000000000e+00  -3.3513348942716642e-36 -3.9400396266437683e-36 0.0000000000000000e+00  8.7946872141208512e-36 1.2129814036830746e-35 0.0000000000000000e+00  -3.1979104823859430e-35 -4.9630465185806043e-35 0.0000000000000000e+00  6.8355469599177316e-35 1.0279806623761323e-34 0.0000000000000000e+00  -6.5743338847129568e-35 -1.3836163653704871e-34 0.0000000000000000e+00  5.6518316440059202e-34 8.7066756489801374e-34 0.0000000000000000e+00  4.4115495557187078e-34 5.1131607403939254e-34 0.0000000000000000e+00  4.0295733541415544e-34 1.7431209655933438e-33 0.0000000000000000e+00  3.3907379151913911e-32 4.5175833543405374e-32 0.0000000000000000e+00  -1.2656783520702468e-31 -1.7595336517216357e-31 0.0000000000000000e+00  -5.2244286232601615e-31 -7.3224470262048696e-31 0.0000000000000000e+00  1.2649888082542322e-30 1.7824060326314245e-30 0.0000000000000000e+00  -8.7520012826876011e-31 -1.2835887047925157e-30 0.0000000000000000e+00  -3.0047955982827334e-30 -5.9733828924109434e-30 0.0000000000000000e+00  9.9238798346520058e-30 2.3303751460971624e-29 0.0000000000000000e+00  1.2016590130484164e-29 2.8543059631084100e-29 0.0000000000000000e+00  -6.9707858885586752e-29 -1.7737810126457426e-28 0.0000000000000000e+00  2.0339694505628283e-29 4.7031142570512867e-29 0.0000000000000000e+00  8.9741758925186846e-29 1.8587445333137626e-28 0.0000000000000000e+00  1.4434653904879595e-29 7.7087620640265186e-29 0.0000000000000000e+00  1.4974295047874388e-28 5.9847984039921170e-28 0.0000000000000000e+00  7.3088188467021759e-29 2.5771193665238402e-28 0.0000000000000000e+00  -1.2719936224952244e-28 -4.8133035410762344e-28 0.0000000000000000e+00  -3.5124632059128240e-28 -1.3908383570626460e-27 0.0000000000000000e+00  2.1303226992136728e-28 9.9473408420123715e-28 0.0000000000000000e+00  3.1235494501415698e-28 1.6200425487029639e-27 0.0000000000000000e+00  3.0160443620431758e-28 1.4604720850053156e-27 0.0000000000000000e+00  2.9120250496954914e-28 1.0321802435984761e-27 0.0000000000000000e+00  -3.6287874918553155e-28 -2.4435110025679776e-27 0.0000000000000000e+00  1.8925832911930147e-29 -3.8603447252966278e-28 0.0000000000000000e+00  7.2569551318256935e-29 -1.0780018585371009e-28 0.0000000000000000e+00  -1.5639601579324648e-28 -1.5633486167653040e-27 0.0000000000000000e+00  -1.1695952063018471e-28 -1.5362087193105993e-27 0.0000000000000000e+00  -4.0558742809448075e-28 -2.9436019638111424e-27 0.0000000000000000e+00  -3.6371563704420906e-28 -1.4130473695284912e-27 0.0000000000000000e+00  -1.6329368524477112e-28 1.3661738663426813e-27 0.0000000000000000e+00  -1.9197404547339527e-28 -5.0522230977408414e-28 0.0000000000000000e+00  -2.5239649584277353e-29 -2.5991249021160792e-27 0.0000000000000000e+00  -1.9368824318232090e-28 6.2225660505682032e-28 0.0000000000000000e+00  -1.8712521651178230e-28 4.8766939794058712e-28 0.0000000000000000e+00  4.0544457738838037e-29 -1.7117416998578455e-27 0.0000000000000000e+00  -2.2726707094783669e-29 -6.4712005351603503e-28 0.0000000000000000e+00  1.6173693846567107e-28 -1.7626770115548388e-27 0.0000000000000000e+00  -2.4277755258427300e-28 1.6258606859584381e-27 0.0000000000000000e+00  -2.3003983671339836e-28 1.5260591949911588e-27 0.0000000000000000e+00  3.3989924002161516e-28 -1.8369767053634718e-27 0.0000000000000000e+00  1.6981635649470356e-28 -5.1970201650708704e-28 0.0000000000000000e+00  3.3345910881291779e-28 -2.2047603598987689e-27 0.0000000000000000e+00  1.2872010604864004e-28 8.4449451495086401e-28 0.0000000000000000e+00  1.0895441985590531e-28 1.8712943422239328e-28 0.0000000000000000e+00  4.2723780849104770e-28 -1.3441113645770658e-27 0.0000000000000000e+00  2.4780383130939307e-28 -7.0277723363553020e-28 0.0000000000000000e+00  4.2745186739973173e-28 -2.6876459647303071e-27 0.0000000000000000e+00  6.9325055008074718e-28 -3.7425104793642655e-27 0.0000000000000000e+00  7.6029988560434756e-28 -4.6957011200914277e-27 0.0000000000000000e+00  1.7413297590638173e-28 -1.1113124155495604e-27 0.0000000000000000e+00  -3.6384154534988787e-28 1.7400861699535925e-27 0.0000000000000000e+00  -4.6914834519926140e-28 2.5305184036944070e-27 0.0000000000000000e+00  -4.9934952610009403e-28 2.6088037655897337e-27 0.0000000000000000e+00  -8.9318683044436910e-29 5.1737103576420581e-28 0.0000000000000000e+00  1.3775905314843073e-28 -6.2186210252338463e-28 0.0000000000000000e+00  7.0963457487840465e-29 -3.7044756966054256e-28 0.0000000000000000e+00  3.0749795629381037e-28 -1.4505477529375460e-27 0.0000000000000000e+00  1.3996109547964622e-28 -5.9741146362883697e-28 0.0000000000000000e+00  -1.2122714033793294e-28 5.1943560443025243e-28 0.0000000000000000e+00  -1.0125135277228881e-29 -2.5920833740993095e-30 0.0000000000000000e+00  1.8221023579082079e-29 -5.3580786114170071e-29 0.0000000000000000e+00  3.7446799416702377e-29 -1.1384583533125357e-28 0.0000000000000000e+00  -8.8751329189433968e-30 2.3646661332670462e-29 0.0000000000000000e+00  -1.3243435926148486e-29 3.4674306634882581e-29 0.0000000000000000e+00  6.370011667