<?xml version="1.0"?>
<VTKFile type="UnstructuredGrid"  version="0.1"  >
<UnstructuredGrid>
<Piece  NumberOfPoints="11902" NumberOfCells="23402">
<Points>
<DataArray  type="Float64"  NumberOfComponents="3"  format="ascii">-5 -5 0  5 -5 0  5 5 0  -5 5 0  1.166337993563448 0.001108415133723613 0  -4.9 -5 0  -4.8 -5 0  -4.7 -5 0  -4.6 -5 0  -4.5 -5 0  -4.4 -5 0  -4.3 -5 0  -4.2 -5 0  -4.1 -5 0  -4 -5 0  -3.9 -5 0  -3.8 -5 0  -3.7 -5 0  -3.6 -5 0  -3.5 -5 0  -3.4 -5 0  -3.3 -5 0  -3.2 -5 0  -3.1 -5 0  -3 -5 0  -2.9 -5 0  -2.8 -5 0  -2.7 -5 0  -2.6 -5 0  -2.5 -5 0  -2.4 -5 0  -2.3 -5 0  -2.2 -5 0  -2.1 -5 0  -2 -5 0  -1.9 -5 0  -1.8 -5 0  -1.7 -5 0  -1.6 -5 0  -1.5 -5 0  -1.4 -5 0  -1.3 -5 0  -1.2 -5 0  -1.1 -5 0  -1 -5 0  -0.9000000000000004 -5 0  -0.7999999999999998 -5 0  -0.7000000000000002 -5 0  -0.5999999999999996 -5 0  -0.5 -5 0  -0.4000000000000004 -5 0  -0.2999999999999998 -5 0  -0.2000000000000002 -5 0  -0.09999999999999964 -5 0  0 -5 0  0.09999999999999964 -5 0  0.2000000000000002 -5 0  0.2999999999999998 -5 0  0.4000000000000004 -5 0  0.5 -5 0  0.5999999999999996 -5 0  0.7000000000000002 -5 0  0.7999999999999998 -5 0  0.9000000000000004 -5 0  1 -5 0  1.1 -5 0  1.2 -5 0  1.3 -5 0  1.4 -5 0  1.5 -5 0  1.6 -5 0  1.7 -5 0  1.8 -5 0  1.9 -5 0  2 -5 0  2.1 -5 0  2.2 -5 0  2.3 -5 0  2.4 -5 0  2.5 -5 0  2.6 -5 0  2.7 -5 0  2.8 -5 0  2.9 -5 0  3 -5 0  3.1 -5 0  3.199999999999999 -5 0  3.300000000000001 -5 0  3.4 -5 0  3.5 -5 0  3.6 -5 0  3.699999999999999 -5 0  3.800000000000001 -5 0  3.9 -5 0  4 -5 0  4.1 -5 0  4.199999999999999 -5 0  4.300000000000001 -5 0  4.4 -5 0  4.5 -5 0  4.6 -5 0  4.699999999999999 -5 0  4.800000000000001 -5 0  4.9 -5 0  5 -4.9 0  5 -4.8 0  5 -4.7 0  5 -4.6 0  5 -4.5 0  5 -4.4 0  5 -4.3 0  5 -4.2 0  5 -4.1 0  5 -4 0  5 -3.9 0  5 -3.8 0  5 -3.7 0  5 -3.6 0  5 -3.5 0  5 -3.4 0  5 -3.3 0  5 -3.2 0  5 -3.1 0  5 -3 0  5 -2.9 0  5 -2.8 0  5 -2.7 0  5 -2.6 0  5 -2.5 0  5 -2.4 0  5 -2.3 0  5 -2.2 0  5 -2.1 0  5 -2 0  5 -1.9 0  5 -1.8 0  5 -1.7 0  5 -1.6 0  5 -1.5 0  5 -1.4 0  5 -1.3 0  5 -1.2 0  5 -1.1 0  5 -1 0  5 -0.9000000000000004 0  5 -0.7999999999999998 0  5 -0.7000000000000002 0  5 -0.5999999999999996 0  5 -0.5 0  5 -0.4000000000000004 0  5 -0.2999999999999998 0  5 -0.2000000000000002 0  5 -0.09999999999999964 0  5 0 0  5 0.09999999999999964 0  5 0.2000000000000002 0  5 0.2999999999999998 0  5 0.4000000000000004 0  5 0.5 0  5 0.5999999999999996 0  5 0.7000000000000002 0  5 0.7999999999999998 0  5 0.9000000000000004 0  5 1 0  5 1.1 0  5 1.2 0  5 1.3 0  5 1.4 0  5 1.5 0  5 1.6 0  5 1.7 0  5 1.8 0  5 1.9 0  5 2 0  5 2.1 0  5 2.2 0  5 2.3 0  5 2.4 0  5 2.5 0  5 2.6 0  5 2.7 0  5 2.8 0  5 2.9 0  5 3 0  5 3.1 0  5 3.199999999999999 0  5 3.300000000000001 0  5 3.4 0  5 3.5 0  5 3.6 0  5 3.699999999999999 0  5 3.800000000000001 0  5 3.9 0  5 4 0  5 4.1 0  5 4.199999999999999 0  5 4.300000000000001 0  5 4.4 0  5 4.5 0  5 4.6 0  5 4.699999999999999 0  5 4.800000000000001 0  5 4.9 0  4.9 5 0  4.8 5 0  4.7 5 0  4.6 5 0  4.5 5 0  4.4 5 0  4.3 5 0  4.2 5 0  4.1 5 0  4 5 0  3.9 5 0  3.8 5 0  3.7 5 0  3.6 5 0  3.5 5 0  3.4 5 0  3.3 5 0  3.2 5 0  3.1 5 0  3 5 0  2.9 5 0  2.8 5 0  2.7 5 0  2.6 5 0  2.5 5 0  2.4 5 0  2.3 5 0  2.2 5 0  2.1 5 0  2 5 0  1.9 5 0  1.8 5 0  1.7 5 0  1.6 5 0  1.5 5 0  1.4 5 0  1.3 5 0  1.2 5 0  1.1 5 0  1 5 0  0.9000000000000004 5 0  0.7999999999999998 5 0  0.7000000000000002 5 0  0.5999999999999996 5 0  0.5 5 0  0.4000000000000004 5 0  0.2999999999999998 5 0  0.2000000000000002 5 0  0.09999999999999964 5 0  0 5 0  -0.09999999999999964 5 0  -0.2000000000000002 5 0  -0.2999999999999998 5 0  -0.4000000000000004 5 0  -0.5 5 0  -0.5999999999999996 5 0  -0.7000000000000002 5 0  -0.7999999999999998 5 0  -0.9000000000000004 5 0  -1 5 0  -1.1 5 0  -1.2 5 0  -1.3 5 0  -1.4 5 0  -1.5 5 0  -1.6 5 0  -1.7 5 0  -1.8 5 0  -1.9 5 0  -2 5 0  -2.1 5 0  -2.2 5 0  -2.3 5 0  -2.4 5 0  -2.5 5 0  -2.6 5 0  -2.7 5 0  -2.8 5 0  -2.9 5 0  -3 5 0  -3.1 5 0  -3.199999999999999 5 0  -3.300000000000001 5 0  -3.4 5 0  -3.5 5 0  -3.6 5 0  -3.699999999999999 5 0  -3.800000000000001 5 0  -3.9 5 0  -4 5 0  -4.1 5 0  -4.199999999999999 5 0  -4.300000000000001 5 0  -4.4 5 0  -4.5 5 0  -4.6 5 0  -4.699999999999999 5 0  -4.800000000000001 5 0  -4.9 5 0  -5 4.9 0  -5 4.8 0  -5 4.7 0  -5 4.6 0  -5 4.5 0  -5 4.4 0  -5 4.3 0  -5 4.2 0  -5 4.1 0  -5 4 0  -5 3.9 0  -5 3.8 0  -5 3.7 0  -5 3.6 0  -5 3.5 0  -5 3.4 0  -5 3.3 0  -5 3.2 0  -5 3.1 0  -5 3 0  -5 2.9 0  -5 2.8 0  -5 2.7 0  -5 2.6 0  -5 2.5 0  -5 2.4 0  -5 2.3 0  -5 2.2 0  -5 2.1 0  -5 2 0  -5 1.9 0  -5 1.8 0  -5 1.7 0  -5 1.6 0  -5 1.5 0  -5 1.4 0  -5 1.3 0  -5 1.2 0  -5 1.1 0  -5 1 0  -5 0.9000000000000004 0  -5 0.7999999999999998 0  -5 0.7000000000000002 0  -5 0.5999999999999996 0  -5 0.5 0  -5 0.4000000000000004 0  -5 0.2999999999999998 0  -5 0.2000000000000002 0  -5 0.09999999999999964 0  -5 0 0  -5 -0.09999999999999964 0  -5 -0.2000000000000002 0  -5 -0.2999999999999998 0  -5 -0.4000000000000004 0  -5 -0.5 0  -5 -0.5999999999999996 0  -5 -0.7000000000000002 0  -5 -0.7999999999999998 0  -5 -0.9000000000000004 0  -5 -1 0  -5 -1.1 0  -5 -1.2 0  -5 -1.3 0  -5 -1.4 0  -5 -1.5 0  -5 -1.6 0  -5 -1.7 0  -5 -1.8 0  -5 -1.9 0  -5 -2 0  -5 -2.1 0  -5 -2.2 0  -5 -2.3 0  -5 -2.4 0  -5 -2.5 0  -5 -2.6 0  -5 -2.7 0  -5 -2.8 0  -5 -2.9 0  -5 -3 0  -5 -3.1 0  -5 -3.199999999999999 0  -5 -3.300000000000001 0  -5 -3.4 0  -5 -3.5 0  -5 -3.6 0  -5 -3.699999999999999 0  -5 -3.800000000000001 0  -5 -3.9 0  -5 -4 0  -5 -4.1 0  -5 -4.199999999999999 0  -5 -4.300000000000001 0  -5 -4.4 0  -5 -4.5 0  -5 -4.6 0  -5 -4.699999999999999 0  -5 -4.800000000000001 0  -5 -4.9 0  1.160661671738253 0.0998837497433962 0  1.142760040411826 0.1986741747234143 0  1.112613498471481 0.2962585315544612 0  1.073308484016756 0.3886738630398527 0  1.022493370829018 0.4795451557938964 0  0.9623168643182815 0.5649461225451522 0  0.8916455588087946 0.6447210054649593 0  0.8116390771423672 0.7175662817852846 0  0.7246079603307829 0.7835582194348459 0  0.6300694703164816 0.8422947172947262 0  0.528600993538341 0.8926293047378709 0  0.4224088526787913 0.9341931715700424 0  0.3136401727554195 0.9668785966380187 0  0.2002746067599165 0.9892138668344871 0  0.08696481985519261 1.002782868004102 0  -0.0275005075575333 1.005451674541279 0  -0.1418942302930606 0.9967020480876484 0  -0.2561161475814784 0.9793715491622719 0  -0.3676838357657579 0.9527761027890612 0  -0.4748556771095522 0.9161308635445621 0  -0.5770785119997092 0.870748242105141 0  -0.6742075836441243 0.8160582024733175 0  -0.7645439129335195 0.7534832671884579 0  -0.8478882948759116 0.6834486772972506 0  -0.9235668041926147 0.605613736470791 0  -0.9893681202850997 0.5227768804566875 0  -1.046059986125072 0.4353824138274687 0  -1.091670098874601 0.3428622634844883 0  -1.125955631224089 0.2479366569277659 0  -1.149168772714571 0.1505470241605528 0  -1.160977543371243 0.05086756291705573 0  -1.160995566547243 -0.04942133055225265 0  -1.149178772864505 -0.1488506295214399 0  -1.127111986114731 -0.246249147133604 0  -1.091424295404552 -0.3423786967861478 0  -1.046425608281182 -0.4341090221429021 0  -0.9901751204601209 -0.5217772009110937 0  -0.9247108475505795 -0.6042340651192865 0  -0.8491547067427279 -0.6810858402942487 0  -0.7652974215450543 -0.7504771187849464 0  -0.6740108007646314 -0.8119878072721238 0  -0.5774250240566808 -0.8665843402816488 0  -0.4727883017134374 -0.91265823623186 0  -0.3653608732884902 -0.9503400792085636 0  -0.2538070065187432 -0.9778613314971748 0  -0.1405446646274736 -0.9956686764499516 0  -0.0268209083438974 -1.004741318795782 0  0.08753602113108983 -1.001069736311875 0  0.2023785348725502 -0.9873573371307145 0  0.3147957009750593 -0.9653019687174914 0  0.4251991683163707 -0.9328285502187317 0  0.5298769536149471 -0.891635521218778 0  0.6306805382497175 -0.8416717115709552 0  0.7248322714488428 -0.7843073233993043 0  0.8117662540096191 -0.7181196799890658 0  0.8912164782275033 -0.644149269278353 0  0.9612132238712316 -0.5642307071014812 0  1.022492334442328 -0.4790511870967242 0  1.074394875970016 -0.388777947787675 0  1.11385594935961 -0.2951823962972949 0  1.142920945072782 -0.1979578914333462 0  1.160673533270241 -0.09947735675415917 0  -2.448929084458949 4.918790960681487 0  -2.448836015756349 -4.911230640458324 0  4.911171993321225 2.448421881909572 0  4.919228939908081 -2.449835598878018 0  2.446631221389808 -4.896590830002855 0  2.441049513479395 4.900325257659143 0  -4.911192976103259 -2.4484425557442 0  -4.911192003679004 2.448446360090104 0  -1.74889618186975 4.91197874512035 0  -1.744666392684232 -4.915381293883603 0  4.921547167620711 1.74454704957457 0  4.910210510228599 -1.748377921539239 0  -4.910492867736501 -1.748104137143237 0  -4.911307653392389 1.747843337272386 0  1.746192646058601 4.905907087589586 0  1.74765434879875 -4.894178572953208 0  -1.14912984394008 4.909967350149115 0  -1.129957181507011 -4.917784424276736 0  -4.910474040905472 -1.148337591864983 0  -4.910296566612707 1.148137444799575 0  1.144105816475639 -4.91401757746794 0  1.149136326978786 4.90995746521964 0  4.910624686129221 1.146616264316937 0  4.921299099308563 -1.152350507916029 0  -0.546819207388183 -4.91125784737021 0  -0.5465872612068344 4.919826844120903 0  -4.909418782670238 -0.5489364151257444 0  -4.909443540700324 0.5474916136266386 0  4.908763058606767 -0.5492591679979214 0  4.920231172891088 0.5459854052974715 0  0.5426160241288215 -4.898318371713112 0  0.5513184800308315 4.916694083646052 0  -4.912379127828836 -3.048710069571364 0  4.918917672726883 3.046699445897475 0  4.911892411296737 -3.048692520399062 0  -4.913224557526304 3.045798297383151 0  3.055615164954938 -4.91786444473469 0  -3.048969566632544 -4.911833243485167 0  3.052529639981591 4.913902419544376 0  -3.048413098627328 4.912719096584243 0  -4.908606317470531 -0.04993045646736598 0  0.04512915616433549 -4.913217770723153 0  0.04957791452324423 4.920149341731921 0  4.915556517257328 -0.05131110574531714 0  3.545868175152552 -4.919363642785846 0  -3.549170383698126 4.9
[...]
<PointData  Vectors="f_1762"> 
<DataArray  type="Float64"  Name="f_1762"  NumberOfComponents="3" format="ascii">-1.4424580682175363e-40 -1.5278812856154244e-40 0.0000000000000000e+00  1.7765385053546600e-40 -1.8314610261995688e-40 0.0000000000000000e+00  -2.2732305843368046e-40 -2.2617607162767577e-40 0.0000000000000000e+00  -2.7697825717114978e-40 2.8527217433115727e-40 0.0000000000000000e+00  1.5069287230512575e+01 -3.8336488389119583e-01 0.0000000000000000e+00  3.2798883798511144e-40 3.4084501679446505e-40 0.0000000000000000e+00  7.7102828038265772e-40 8.2976175298782569e-40 0.0000000000000000e+00  -1.7199764851184937e-39 -1.9838117032109781e-39 0.0000000000000000e+00  1.7294531087560891e-38 1.9449877047208772e-38 0.0000000000000000e+00  -5.5774398109251645e-38 -6.1595998137576387e-38 0.0000000000000000e+00  2.1091372486397968e-37 2.3767741625267949e-37 0.0000000000000000e+00  -7.5879867756017540e-37 -8.8055845762957408e-37 0.0000000000000000e+00  4.5118226522229050e-36 5.5479158823678898e-36 0.0000000000000000e+00  -2.7934859670069958e-35 -3.5258758137365186e-35 0.0000000000000000e+00  1.1310789807734653e-34 1.4549571270828908e-34 0.0000000000000000e+00  -2.4320513801650618e-34 -3.2068382486636532e-34 0.0000000000000000e+00  4.8377163254324646e-34 6.4870334968047801e-34 0.0000000000000000e+00  1.7322351767063083e-33 2.3736462866593779e-33 0.0000000000000000e+00  -7.7615390429806204e-33 -1.0939667457593011e-32 0.0000000000000000e+00  2.2312508630052652e-32 3.2702946930348085e-32 0.0000000000000000e+00  -1.2669845944925099e-31 -1.8864961674184277e-31 0.0000000000000000e+00  3.3338368142924106e-31 4.9975589051293104e-31 0.0000000000000000e+00  1.8802287724701054e-31 3.0994901159357177e-31 0.0000000000000000e+00  -1.5796295805503046e-30 -2.5522738043876473e-30 0.0000000000000000e+00  -7.7564338612353902e-31 -1.2833031861094738e-30 0.0000000000000000e+00  -1.9850821916078254e-30 -3.3229620162349214e-30 0.0000000000000000e+00  5.0016425326823335e-30 8.9087362149237889e-30 0.0000000000000000e+00  -1.1879125436464833e-29 -2.2874540666622620e-29 0.0000000000000000e+00  4.0987591515925098e-29 7.8344357809150920e-29 0.0000000000000000e+00  2.4015530538077840e-29 4.9123736940684511e-29 0.0000000000000000e+00  -2.0354450924771687e-28 -4.1476094005795654e-28 0.0000000000000000e+00  -7.0225248831720189e-29 -1.5511682585529070e-28 0.0000000000000000e+00  -1.1971018195539434e-28 -2.8436268941388106e-28 0.0000000000000000e+00  2.0284937621529733e-28 4.6308851127089563e-28 0.0000000000000000e+00  6.0188453109728939e-28 1.4794623990878398e-27 0.0000000000000000e+00  -4.9948004708249982e-29 -1.0867254325523016e-28 0.0000000000000000e+00  1.4480273305113393e-28 4.1025735254724181e-28 0.0000000000000000e+00  -1.0124128087709585e-28 -2.6758458019776544e-28 0.0000000000000000e+00  -4.8997783191602028e-28 -1.4536877185748348e-27 0.0000000000000000e+00  -4.4606668308138824e-28 -1.4490296605027033e-27 0.0000000000000000e+00  -2.1258154973521238e-29 -1.6126417587933953e-28 0.0000000000000000e+00  4.7388866509488683e-28 1.7292829325505722e-27 0.0000000000000000e+00  2.6605712919835021e-28 1.0464607155019844e-27 0.0000000000000000e+00  -3.5806064276482484e-29 -1.8617468353551030e-28 0.0000000000000000e+00  9.6918660970791720e-29 4.2744789743488482e-28 0.0000000000000000e+00  1.7653115276716532e-28 1.0994617795682802e-27 0.0000000000000000e+00  2.8831718150672398e-28 1.8431114436712847e-27 0.0000000000000000e+00  -1.3279916367553890e-28 -1.0668378162150635e-27 0.0000000000000000e+00  6.7120527601080279e-28 5.9067572935815969e-27 0.0000000000000000e+00  -6.2182722848076221e-29 -2.6088672230984549e-29 0.0000000000000000e+00  -4.6975062597997751e-28 -5.0912633971214777e-27 0.0000000000000000e+00  -2.1427788110535606e-28 -2.9671558181206812e-27 0.0000000000000000e+00  -2.1757837909714015e-28 -4.2297671745346649e-27 0.0000000000000000e+00  -2.6973858566037330e-28 -1.0602616688162869e-26 0.0000000000000000e+00  -9.5360142872403754e-29 -1.2152948443264092e-26 0.0000000000000000e+00  4.4869419714603252e-30 -2.1056145679290859e-27 0.0000000000000000e+00  1.3681726761567959e-28 -6.6188349001687852e-27 0.0000000000000000e+00  1.6013855843135930e-28 -2.3848562042253162e-27 0.0000000000000000e+00  3.5965372000893853e-28 -4.2806111484685442e-27 0.0000000000000000e+00  -2.0683291666747771e-28 1.9359528453821999e-27 0.0000000000000000e+00  6.7988418857964002e-28 -5.7450881625653035e-27 0.0000000000000000e+00  7.7677595197175181e-28 -5.2127796089488031e-27 0.0000000000000000e+00  -1.4204011617071940e-28 1.0660296362686481e-27 0.0000000000000000e+00  -1.4258470346780915e-27 7.7420528492989098e-27 0.0000000000000000e+00  -6.4314959806184894e-28 3.0746332634817815e-27 0.0000000000000000e+00  -3.8832134201607377e-28 1.7908658624924233e-27 0.0000000000000000e+00  -1.0736192717731592e-27 4.4320060969969452e-27 0.0000000000000000e+00  -6.3360811552026060e-28 2.3422897244795469e-27 0.0000000000000000e+00  7.2689693913356185e-28 -2.6402344926996073e-27 0.0000000000000000e+00  3.8418259930026244e-28 -1.2418941576737442e-27 0.0000000000000000e+00  8.0173719658346447e-29 -2.5426321303666846e-28 0.0000000000000000e+00  3.3235388751634296e-28 -9.4660561527914217e-28 0.0000000000000000e+00  2.7505306663535350e-28 -7.4018011483153521e-28 0.0000000000000000e+00  -2.3566791732828475e-28 6.2174886113639509e-28 0.0000000000000000e+00  -1.7631080534601151e-28 4.3438502820087202e-28 0.0000000000000000e+00  -1.3070971871813814e-28 3.0542226352050923e-28 0.0000000000000000e+00  1.9302351480632520e-29 -5.1135529371117276e-29 0.0000000000000000e+00  9.2640079062877401e-29 -2.0377429598712487e-28 0.0000000000000000e+00  1.3221291880773429e-28 -2.7060481087334707e-28 0.0000000000000000e+00  -5.8932848175697848e-30 1.4316829234227695e-29 0.0000000000000000e+00  -9.3390986157558282e-29 1.7852848920383307e-28 0.0000000000000000e+00  1.5250196414003302e-29 -2.9308035566020734e-29 0.0000000000000000e+00  5.1441728057489284e-30 -8.9853370430604897e-30 0.0000000000000000e+00  -1.3794954257323907e-29 2.4194945492192596e-29 0.0000000000000000e+00  -1.0847794880574210e-30 1.6684488624927274e-30 0.0000000000000000e+00  1.5768957360452522e-30 -2.5729879796483028e-30 0.0000000000000000e+00  -8.0949322298758411e-31 1.2949106259015538e-30 0.0000000000000000e+00  1.0308772759124679e-31 -1.6377258632250463e-31 0.0000000000000000e+00  -1.2193352843190307e-32 1.8583607097038966e-32 0.0000000000000000e+00  -7.8409298725029060e-34 1.1609946467438457e-33 0.0000000000000000e+00  6.6627684142025456e-33 -9.3504036126692660e-33 0.0000000000000000e+00  3.1455340382205738e-34 -3.6972415646100792e-34 0.0000000000000000e+00  -4.1473804555530809e-34 5.4916194611593537e-34 0.0000000000000000e+00  4.5517633865929347e-35 -6.1588393389509927e-35 0.0000000000000000e+00  -1.7465453917196845e-35 2.2543765572310455e-35 0.0000000000000000e+00  4.2601928299844125e-36 -5.2661865403508681e-36 0.0000000000000000e+00  -1.5497727083199859e-36 1.8278459971960551e-36 0.0000000000000000e+00  4.9378122405935633e-37 -5.7232632915276115e-37 0.0000000000000000e+00  -2.4617293709912819e-37 2.7878414641824836e-37 0.0000000000000000e+00  8.2827036197253565e-38 -9.2385008143963169e-38 0.0000000000000000e+00  -1.6670241935043209e-38 1.8342990196374821e-38 0.0000000000000000e+00  6.7306288624071333e-39 -7.2176185893248528e-39 0.0000000000000000e+00  -4.2872540781681537e-40 4.5685527776438650e-40 0.0000000000000000e+00  -3.0581979353866230e-40 3.1773542895538704e-40 0.0000000000000000e+00  -8.4300112783909201e-42 5.1844689838072809e-42 0.0000000000000000e+00  3.9129816027896419e-40 -3.7120815445848589e-40 0.0000000000000000e+00  -8.9962508061507975e-40 8.2526035702979012e-40 0.0000000000000000e+00  3.3213414327757035e-39 -3.0433937933543358e-39 0.0000000000000000e+00  -1.9914653466678577e-39 1.8795557295011215e-39 0.0000000000000000e+00  -1.5338206153227551e-38 1.3179518525884601e-38 0.0000000000000000e+00  5.9424225046111710e-38 -5.0744096119162211e-38 0.0000000000000000e+00  -7.9911132430845611e-38 6.8034685352131113e-38 0.0000000000000000e+00  -1.4410233907411539e-37 1.1380459896990285e-37 0.0000000000000000e+00  9.1705628185316756e-37 -7.2805503978371368e-37 0.0000000000000000e+00  -1.5911846756582152e-36 1.2566765414937972e-36 0.0000000000000000e+00  -1.3715981154755446e-36 9.7785010880650738e-37 0.0000000000000000e+00  1.2684505784574810e-35 -9.3485089407975545e-36 0.0000000000000000e+00  -2.4437804608013393e-35 1.7815923606741180e-35 0.0000000000000000e+00  -1.7863305537880368e-35 1.1791932876334708e-35 0.0000000000000000e+00  1.8357988646431968e-34 -1.2485261640086870e-34 0.0000000000000000e+00  -2.9350751224456771e-34 1.9867722696221140e-34 0.0000000000000000e+00  -3.9982439483866334e-34 2.5009438250631663e-34 0.0000000000000000e+00  2.4795227693036147e-33 -1.5490353551983132e-33 0.0000000000000000e+00  -2.4445757282579727e-33 1.5250501804797150e-33 0.0000000000000000e+00  -8.9766940079165178e-33 5.1957286486551354e-33 0.0000000000000000e+00  2.8297795870888873e-32 -1.6234943022173821e-32 0.0000000000000000e+00  2.5944369614559120e-33 -8.1613630344012291e-34 0.0000000000000000e+00  -1.5359681217501360e-31 8.0985690841023067e-32 0.0000000000000000e+00  2.0294320112870363e-31 -1.0504295302729401e-31 0.0000000000000000e+00  5.1238317316012038e-31 -2.4692435361732048e-31 0.0000000000000000e+00  -1.5197058465800268e-30 7.1900447547757626e-31 0.0000000000000000e+00  -8.7684635419009205e-31 3.7748438181922204e-31 0.0000000000000000e+00  8.0908660878034891e-30 -3.4964393153823990e-30 0.0000000000000000e+00  -2.3978172125862977e-30 1.0525179218849210e-30 0.0000000000000000e+00  -3.5612984160543759e-29 1.3956155465932991e-29 0.0000000000000000e+00  2.9477174839436143e-29 -1.1062715272962327e-29 0.0000000000000000e+00  1.4460431631786792e-28 -5.1313411197832146e-29 0.0000000000000000e+00  -1.6392652164241544e-28 5.4165114893371959e-29 0.0000000000000000e+00  -6.0049396933275736e-28 1.9048358717987577e-28 0.0000000000000000e+00  6.3825170084605380e-28 -1.8648976266874072e-28 0.0000000000000000e+00  2.4946444564846845e-27 -6.9710134145206244e-28 0.0000000000000000e+00  -1.9100064870108860e-27 4.5199612188836320e-28 0.0000000000000000e+00  -9.6055111865758102e-27 2.2185594021677598e-27 0.0000000000000000e+00  2.5801380172902615e-27 -2.9901253839071513e-28 0.0000000000000000e+00  3.0149426839711318e-26 -5.5222228205759669e-27 0.0000000000000000e+00  1.4555584026516219e-26 -2.8202226594135415e-27 0.0000000000000000e+00  -8.5564034328200348e-26 1.2062548714142657e-26 0.0000000000000000e+00  -1.2967732477295839e-25 1.6282502482281397e-26 0.0000000000000000e+00  1.4396058554402789e-25 -1.7624472504291271e-26 0.0000000000000000e+00  8.4155598765990612e-25 -7.7292538158029302e-26 0.0000000000000000e+00  1.5339241469948668e-24 -1.0666691163947691e-25 0.0000000000000000e+00  1.8675161512321995e-24 -8.8769882409189398e-26 0.0000000000000000e+00  1.8228008258890856e-24 -4.2854113932621136e-26 0.0000000000000000e+00  1.8391718640595767e-24 2.8035573950761277e-27 0.0000000000000000e+00  1.9643808925514016e-24 5.0149376925805817e-26 0.0000000000000000e+00  1.8193629313293524e-24 8.5081625424935561e-26 0.0000000000000000e+00  1.1933852007864110e-24 7.8948656121395526e-26 0.0000000000000000e+00  3.5829484469826963e-25 3.0472087587081795e-26 0.0000000000000000e+00  -1.5396079114515289e-25 -1.6046847450203280e-26 0.0000000000000000e+00  -2.0687554403917193e-25 -2.5193273707168708e-26 0.0000000000000000e+00  -3.6838274885130144e-26 -4.4250485021508939e-27 0.0000000000000000e+00  5.8339061349772708e-26 1.0322995568020422e-26 0.0000000000000000e+00  3.5710102966040612e-26 6.8425691051385175e-27 0.0000000000000000e+00  -4.9175057517561954e-27 -1.0881102163169529e-27 0.0000000000000000e+00  -1.0357181340256013e-26 -2.4122627159983753e-27 0.0000000000000000e+00  -6.5204000728331108e-28 -1.5791754571848957e-28 0.0000000000000000e+00  2.6039112815286653e-27 7.0601648553463049e-28 0.0000000000000000e+00  3.5471317724480805e-28 1.0259584780252679e-28 0.0000000000000000e+00  -6.2061815050989462e-28 -1.9206309135574878e-28 0.0000000000000000e+00  -8.0181739385080378e-29 -2.6468030153400928e-29 0.0000000000000000e+00  1.4414847241508689e-28 5.0653477374315727e-29 0.0000000000000000e+00  5.3346060788301559e-30 2.0666298100589665e-30 0.0000000000000000e+00  -3.2128114998080140e-29 -1.2595091562906905e-29 0.0000000000000000e+00  2.9256760392530882e-30 1.1919016343071613e-30 0.0000000000000000e+00  6.0847128958791883e-30 2.6596116828840802e-30 0.0000000000000000e+00  -1.8145880629496181e-30 -8.1322247110194158e-31 0.0000000000000000e+00  -8.9116793014778856e-31 -4.2664174839216996e-31 0.0000000000000000e+00  5.8023915645464812e-31 2.8613578683906311e-31 0.0000000000000000e+00  3.0406034861587918e-32 1.7132371431744727e-32 0.0000000000000000e+00  -1.2687658467956271e-31 -6.7519393065490701e-32 0.0000000000000000e+00  2.8650978926137025e-32 1.5423968440485637e-32 0.0000000000000000e+00  1.8128158736168824e-32 1.0412099623267510e-32 0.0000000000000000e+00  -1.1601692699918355e-32 -6.7805177659221951e-33 0.0000000000000000e+00  1.7167980166353938e-34 6.6614974465261071e-35 0.0000000000000000e+00  2.0819206715433555e-33 1.3184982415286289e-33 0.0000000000000000e+00  -7.8763051207756141e-34 -5.0297323691491643e-34 0.0000000000000000e+00  -1.1012100290675434e-34 -7.7686664540815876e-35 0.0000000000000000e+00  1.8910717171315926e-34 1.2975108939575316e-34 0.0000000000000000e+00  -5.3205067006408306e-35 -3.6928586764759580e-35 0.0000000000000000e+00  -1.2286022477091372e-35 -9.1743956575898528e-36 0.0000000000000000e+00  1.3945518600438602e-35 1.0363745193157771e-35 0.0000000000000000e+00  -3.6410706855741022e-36 -2.7212462950035769e-36 0.0000000000000000e+00  -8.4866422519423086e-37 -6.8464909683537989e-37 0.0000000000000000e+00  9.7320729114788110e-37 7.7879403905841832e-37 0.0000000000000000e+00  -2.8305271960572129e-37 -2.2855809789357421e-37 0.0000000000000000e+00  -3.3497473073012386e-38 -2.9602089315962011e-38 0.0000000000000000e+00  6.0668732914388110e-38 5.2251483119340643e-38 0.0000000000000000e+00  -2.3269027473920106e-38 -2.0212108311514807e-38 0.0000000000000000e+00  9.4000301927004098e-40 7.1161489894797889e-40 0.0000000000000000e+00  3.2042976318003656e-39 2.9578558492434474e-39 0.0000000000000000e+00  -1.6921619805359458e-39 -1.5696779286052538e-39 0.0000000000000000e+00  3.7046467823492084e-40 3.4452369507460081e-40 0.0000000000000000e+00  1.6966159181863376e-40 1.7005454260141542e-40 0.0000000000000000e+00  3.4186554698153734e-40 3.5363711603688019e-40 0.0000000000000000e+00  -9.7192024005585481e-40 -1.0375280705041404e-39 0.0000000000000000e+00  1.9274770076467205e-39 2.1114064169860770e-39 0.0000000000000000e+00  -1.3055606206875507e-38 -1.4324434021584582e-38 0.0000000000000000e+00  9.5432607191501841e-38 1.0319991444458625e-37 0.0000000000000000e+00  -2.2728182984430505e-37 -2.4483520386643663e-37 0.0000000000000000e+00  2.6915363551074462e-37 3.0172184501867599e-37 0.0000000000000000e+00  -4.0015460341192544e-36 -4.7300432627731098e-36 0.0000000000000000e+00  1.2287209076035635e-35 1.5115000920029073e-35 0.0000000000000000e+00  -5.2217685922005894e-35 -6.6362351582913313e-35 0.0000000000000000e+00  1.1579595871449886e-34 1.5112378087829041e-34 0.0000000000000000e+00  -2.2755252178540565e-34 -3.1694905101455675e-34 0.0000000000000000e+00  1.2307550344447122e-33 1.6710951187563796e-33 0.0000000000000000e+00  -8.5101614036209408e-34 -1.1386844366407531e-33 0.0000000000000000e+00  4.8044632992211777e-33 6.5568297975478613e-33 0.0000000000000000e+00  4.0210458288868959e-32 6.0174692971026146e-32 0.0000000000000000e+00  -1.8607240958159284e-31 -2.7596106875691557e-31 0.0000000000000000e+00  -5.3232807515976367e-31 -8.4069108114766149e-31 0.0000000000000000e+00  1.0505949158895260e-30 1.6811775170659415e-30 0.0000000000000000e+00  -1.8500531881028920e-31 -2.7051334690388747e-31 0.0000000000000000e+00  -3.1312006020734532e-30 -5.4942320413656284e-30 0.0000000000000000e+00  9.2943710155771217e-30 1.6831927350371110e-29 0.0000000000000000e+00  1.3886431377793654e-29 2.6889539937082214e-29 0.0000000000000000e+00  -8.9793272759012461e-29 -1.7453639561817664e-28 0.0000000000000000e+00  2.9065594193999140e-29 5.6358394442077869e-29 0.0000000000000000e+00  9.7344966226470515e-29 2.0115283838316440e-28 0.0000000000000000e+00  3.3464745182619187e-29 7.3061035161573152e-29 0.0000000000000000e+00  2.9328351046882249e-28 6.6643158280689450e-28 0.0000000000000000e+00  1.2678167678758060e-28 3.1602651301360513e-28 0.0000000000000000e+00  -3.4246512528922134e-28 -8.0461576790316405e-28 0.0000000000000000e+00  -3.9358248083312691e-28 -1.0743823577769362e-27 0.0000000000000000e+00  3.6511300159056324e-28 9.6811228919673419e-28 0.0000000000000000e+00  6.5427622801677104e-28 1.8402941209379506e-27 0.0000000000000000e+00  3.6343816342748168e-28 1.1722712073659754e-27 0.0000000000000000e+00  1.1758469770488920e-28 5.0826737801513056e-28 0.0000000000000000e+00  -7.4517009731558969e-28 -2.5025850686383664e-27 0.0000000000000000e+00  -2.4825735901839507e-28 -8.2087885429274966e-28 0.0000000000000000e+00  -9.9429406709782506e-29 -3.3901817813435111e-28 0.0000000000000000e+00  -3.5866983873853665e-28 -1.5564886992989885e-27 0.0000000000000000e+00  -3.0948789450103176e-28 -1.4630990055180592e-27 0.0000000000000000e+00  -3.2392971456096341e-28 -1.9915458335253100e-27 0.0000000000000000e+00  -3.0172860101414831e-29 -5.1021334466274919e-28 0.0000000000000000e+00  2.7190440903809627e-28 1.6969333034386156e-27 0.0000000000000000e+00  1.0460966725484028e-29 -1.2640546992500663e-29 0.0000000000000000e+00  -2.1079338430994346e-28 -2.2730800564495792e-27 0.0000000000000000e+00  8.4544002209365452e-29 9.5522027670393627e-28 0.0000000000000000e+00  4.3575005359431267e-29 8.1854118516188963e-28 0.0000000000000000e+00  -4.0695574072907646e-29 -1.3737573383760743e-27 0.0000000000000000e+00  -5.1347872457929049e-30 -3.4238160434074340e-28 0.0000000000000000e+00  2.4551445791821671e-29 -1.4860861344418799e-27 0.0000000000000000e+00  -7.3180072798334620e-29 2.0074763998896899e-27 0.0000000000000000e+00  -1.2314739768516473e-28 1.8708367545331705e-27 0.0000000000000000e+00  1.0951698599475388e-28 -1.6274748420378654e-27 0.0000000000000000e+00  1.4042729363725817e-29 -2.6566314953509447e-28 0.0000000000000000e+00  2.4729905620890397e-28 -2.2260584459908405e-27 0.0000000000000000e+00  -2.0613103567816730e-28 1.4791507864081407e-27 0.0000000000000000e+00  -1.1510028858252930e-28 5.9680875084972985e-28 0.0000000000000000e+00  1.1016445677976374e-28 -7.9953142699136166e-28 0.0000000000000000e+00  2.4186619036940019e-29 -3.2010821369498534e-28 0.0000000000000000e+00  5.3887723145687310e-28 -2.6781929835899594e-27 0.0000000000000000e+00  7.1565675291230884e-28 -3.3373150669466876e-27 0.0000000000000000e+00  1.1172753016491961e-27 -4.5421484530660581e-27 0.0000000000000000e+00  3.5120463705624146e-28 -1.2376703856704894e-27 0.0000000000000000e+00  -3.2841632189578066e-28 1.2690581472982616e-27 0.0000000000000000e+00  -7.4680175307887062e-28 2.4464859763017760e-27 0.0000000000000000e+00  -8.7628781614392137e-28 2.6613304025630574e-27 0.0000000000000000e+00  -2.3923426423250378e-28 6.5529534013600011e-28 0.0000000000000000e+00  1.6111438596237050e-28 -4.6529632205614643e-28 0.0000000000000000e+00  1.7818738809904715e-28 -4.8814828253340412e-28 0.0000000000000000e+00  7.3439416247975013e-28 -1.8014956130188767e-27 0.0000000000000000e+00  3.0732777317092347e-28 -7.0794248932009457e-28 0.0000000000000000e+00  -2.5460440464475976e-28 5.7803685210227163e-28 0.0000000000000000e+00  -1.0937634544649579e-29 2.3291336222244507e-29 0.0000000000000000e+00  2.9252036021376520e-29 -6.4116726563829250e-29 0.0000000000000000e+00  7.0954270617047309e-29 -1.4346043589284570e-28 0.0000000000000000e+00  -1.4776317046114399e-29 2.9560847148007363e-29 0.0000000000000000e+00  -2.1704826530972932e-29 4.0572484165119145e-29 0.0000000000000000e+00  1.9380