<?xml version="1.0"?>
<VTKFile type="UnstructuredGrid"  version="0.1"  >
<UnstructuredGrid>
<Piece  NumberOfPoints="11902" NumberOfCells="23402">
<Points>
<DataArray  type="Float64"  NumberOfComponents="3"  format="ascii">-5 -5 0  5 -5 0  5 5 0  -5 5 0  1.263374240456201 0.001280702530697824 0  -4.9 -5 0  -4.8 -5 0  -4.7 -5 0  -4.6 -5 0  -4.5 -5 0  -4.4 -5 0  -4.3 -5 0  -4.2 -5 0  -4.1 -5 0  -4 -5 0  -3.9 -5 0  -3.8 -5 0  -3.7 -5 0  -3.6 -5 0  -3.5 -5 0  -3.4 -5 0  -3.3 -5 0  -3.2 -5 0  -3.1 -5 0  -3 -5 0  -2.9 -5 0  -2.8 -5 0  -2.7 -5 0  -2.6 -5 0  -2.5 -5 0  -2.4 -5 0  -2.3 -5 0  -2.2 -5 0  -2.1 -5 0  -2 -5 0  -1.9 -5 0  -1.8 -5 0  -1.7 -5 0  -1.6 -5 0  -1.5 -5 0  -1.4 -5 0  -1.3 -5 0  -1.2 -5 0  -1.1 -5 0  -1 -5 0  -0.9000000000000004 -5 0  -0.7999999999999998 -5 0  -0.7000000000000002 -5 0  -0.5999999999999996 -5 0  -0.5 -5 0  -0.4000000000000004 -5 0  -0.2999999999999998 -5 0  -0.2000000000000002 -5 0  -0.09999999999999964 -5 0  0 -5 0  0.09999999999999964 -5 0  0.2000000000000002 -5 0  0.2999999999999998 -5 0  0.4000000000000004 -5 0  0.5 -5 0  0.5999999999999996 -5 0  0.7000000000000002 -5 0  0.7999999999999998 -5 0  0.9000000000000004 -5 0  1 -5 0  1.1 -5 0  1.2 -5 0  1.3 -5 0  1.4 -5 0  1.5 -5 0  1.6 -5 0  1.7 -5 0  1.8 -5 0  1.9 -5 0  2 -5 0  2.1 -5 0  2.2 -5 0  2.3 -5 0  2.4 -5 0  2.5 -5 0  2.6 -5 0  2.7 -5 0  2.8 -5 0  2.9 -5 0  3 -5 0  3.1 -5 0  3.199999999999999 -5 0  3.300000000000001 -5 0  3.4 -5 0  3.5 -5 0  3.6 -5 0  3.699999999999999 -5 0  3.800000000000001 -5 0  3.9 -5 0  4 -5 0  4.1 -5 0  4.199999999999999 -5 0  4.300000000000001 -5 0  4.4 -5 0  4.5 -5 0  4.6 -5 0  4.699999999999999 -5 0  4.800000000000001 -5 0  4.9 -5 0  5 -4.9 0  5 -4.8 0  5 -4.7 0  5 -4.6 0  5 -4.5 0  5 -4.4 0  5 -4.3 0  5 -4.2 0  5 -4.1 0  5 -4 0  5 -3.9 0  5 -3.8 0  5 -3.7 0  5 -3.6 0  5 -3.5 0  5 -3.4 0  5 -3.3 0  5 -3.2 0  5 -3.1 0  5 -3 0  5 -2.9 0  5 -2.8 0  5 -2.7 0  5 -2.6 0  5 -2.5 0  5 -2.4 0  5 -2.3 0  5 -2.2 0  5 -2.1 0  5 -2 0  5 -1.9 0  5 -1.8 0  5 -1.7 0  5 -1.6 0  5 -1.5 0  5 -1.4 0  5 -1.3 0  5 -1.2 0  5 -1.1 0  5 -1 0  5 -0.9000000000000004 0  5 -0.7999999999999998 0  5 -0.7000000000000002 0  5 -0.5999999999999996 0  5 -0.5 0  5 -0.4000000000000004 0  5 -0.2999999999999998 0  5 -0.2000000000000002 0  5 -0.09999999999999964 0  5 0 0  5 0.09999999999999964 0  5 0.2000000000000002 0  5 0.2999999999999998 0  5 0.4000000000000004 0  5 0.5 0  5 0.5999999999999996 0  5 0.7000000000000002 0  5 0.7999999999999998 0  5 0.9000000000000004 0  5 1 0  5 1.1 0  5 1.2 0  5 1.3 0  5 1.4 0  5 1.5 0  5 1.6 0  5 1.7 0  5 1.8 0  5 1.9 0  5 2 0  5 2.1 0  5 2.2 0  5 2.3 0  5 2.4 0  5 2.5 0  5 2.6 0  5 2.7 0  5 2.8 0  5 2.9 0  5 3 0  5 3.1 0  5 3.199999999999999 0  5 3.300000000000001 0  5 3.4 0  5 3.5 0  5 3.6 0  5 3.699999999999999 0  5 3.800000000000001 0  5 3.9 0  5 4 0  5 4.1 0  5 4.199999999999999 0  5 4.300000000000001 0  5 4.4 0  5 4.5 0  5 4.6 0  5 4.699999999999999 0  5 4.800000000000001 0  5 4.9 0  4.9 5 0  4.8 5 0  4.7 5 0  4.6 5 0  4.5 5 0  4.4 5 0  4.3 5 0  4.2 5 0  4.1 5 0  4 5 0  3.9 5 0  3.8 5 0  3.7 5 0  3.6 5 0  3.5 5 0  3.4 5 0  3.3 5 0  3.2 5 0  3.1 5 0  3 5 0  2.9 5 0  2.8 5 0  2.7 5 0  2.6 5 0  2.5 5 0  2.4 5 0  2.3 5 0  2.2 5 0  2.1 5 0  2 5 0  1.9 5 0  1.8 5 0  1.7 5 0  1.6 5 0  1.5 5 0  1.4 5 0  1.3 5 0  1.2 5 0  1.1 5 0  1 5 0  0.9000000000000004 5 0  0.7999999999999998 5 0  0.7000000000000002 5 0  0.5999999999999996 5 0  0.5 5 0  0.4000000000000004 5 0  0.2999999999999998 5 0  0.2000000000000002 5 0  0.09999999999999964 5 0  0 5 0  -0.09999999999999964 5 0  -0.2000000000000002 5 0  -0.2999999999999998 5 0  -0.4000000000000004 5 0  -0.5 5 0  -0.5999999999999996 5 0  -0.7000000000000002 5 0  -0.7999999999999998 5 0  -0.9000000000000004 5 0  -1 5 0  -1.1 5 0  -1.2 5 0  -1.3 5 0  -1.4 5 0  -1.5 5 0  -1.6 5 0  -1.7 5 0  -1.8 5 0  -1.9 5 0  -2 5 0  -2.1 5 0  -2.2 5 0  -2.3 5 0  -2.4 5 0  -2.5 5 0  -2.6 5 0  -2.7 5 0  -2.8 5 0  -2.9 5 0  -3 5 0  -3.1 5 0  -3.199999999999999 5 0  -3.300000000000001 5 0  -3.4 5 0  -3.5 5 0  -3.6 5 0  -3.699999999999999 5 0  -3.800000000000001 5 0  -3.9 5 0  -4 5 0  -4.1 5 0  -4.199999999999999 5 0  -4.300000000000001 5 0  -4.4 5 0  -4.5 5 0  -4.6 5 0  -4.699999999999999 5 0  -4.800000000000001 5 0  -4.9 5 0  -5 4.9 0  -5 4.8 0  -5 4.7 0  -5 4.6 0  -5 4.5 0  -5 4.4 0  -5 4.3 0  -5 4.2 0  -5 4.1 0  -5 4 0  -5 3.9 0  -5 3.8 0  -5 3.7 0  -5 3.6 0  -5 3.5 0  -5 3.4 0  -5 3.3 0  -5 3.2 0  -5 3.1 0  -5 3 0  -5 2.9 0  -5 2.8 0  -5 2.7 0  -5 2.6 0  -5 2.5 0  -5 2.4 0  -5 2.3 0  -5 2.2 0  -5 2.1 0  -5 2 0  -5 1.9 0  -5 1.8 0  -5 1.7 0  -5 1.6 0  -5 1.5 0  -5 1.4 0  -5 1.3 0  -5 1.2 0  -5 1.1 0  -5 1 0  -5 0.9000000000000004 0  -5 0.7999999999999998 0  -5 0.7000000000000002 0  -5 0.5999999999999996 0  -5 0.5 0  -5 0.4000000000000004 0  -5 0.2999999999999998 0  -5 0.2000000000000002 0  -5 0.09999999999999964 0  -5 0 0  -5 -0.09999999999999964 0  -5 -0.2000000000000002 0  -5 -0.2999999999999998 0  -5 -0.4000000000000004 0  -5 -0.5 0  -5 -0.5999999999999996 0  -5 -0.7000000000000002 0  -5 -0.7999999999999998 0  -5 -0.9000000000000004 0  -5 -1 0  -5 -1.1 0  -5 -1.2 0  -5 -1.3 0  -5 -1.4 0  -5 -1.5 0  -5 -1.6 0  -5 -1.7 0  -5 -1.8 0  -5 -1.9 0  -5 -2 0  -5 -2.1 0  -5 -2.2 0  -5 -2.3 0  -5 -2.4 0  -5 -2.5 0  -5 -2.6 0  -5 -2.7 0  -5 -2.8 0  -5 -2.9 0  -5 -3 0  -5 -3.1 0  -5 -3.199999999999999 0  -5 -3.300000000000001 0  -5 -3.4 0  -5 -3.5 0  -5 -3.6 0  -5 -3.699999999999999 0  -5 -3.800000000000001 0  -5 -3.9 0  -5 -4 0  -5 -4.1 0  -5 -4.199999999999999 0  -5 -4.300000000000001 0  -5 -4.4 0  -5 -4.5 0  -5 -4.6 0  -5 -4.699999999999999 0  -5 -4.800000000000001 0  -5 -4.9 0  1.255186710186753 0.09374103422859448 0  1.233109492662627 0.1915421340518021 0  1.199491518592881 0.2881649338049729 0  1.156717678957338 0.3765297110650594 0  1.098269097632916 0.4675575826064357 0  1.031964388830503 0.5513154431594824 0  0.9533248484137004 0.6316473490918413 0  0.8660925212606259 0.7065670904858776 0  0.7742503961419586 0.7719124086125537 0  0.672078094942017 0.8293335797415816 0  0.5591492328554005 0.881571731069383 0  0.4459752521617852 0.9264273623681595 0  0.3345458636857498 0.9582311242462617 0  0.2087750826068111 0.980282182790059 0  0.08812725456244105 0.9990700063395173 0  -0.02658392922047481 1.002513337096361 0  -0.1442474987670565 0.9887352882753228 0  -0.2732515342420558 0.9692002571211357 0  -0.3930751291115708 0.9450794803049519 0  -0.5030479635974969 0.9095991744564841 0  -0.6127133596129816 0.8631387601523034 0  -0.7147668644732589 0.8081870289041706 0  -0.809369290096084 0.7434889435704523 0  -0.9008794755195435 0.6696993985854525 0  -0.9872328379873782 0.5895329176970752 0  -1.062081594608912 0.5080980314391512 0  -1.124103086952623 0.4233870165982783 0  -1.178619584782397 0.3301986273667565 0  -1.216251500295257 0.2425767191571304 0  -1.240671827795425 0.1486520517077407 0  -1.251178187999401 0.05227036721434227 0  -1.25113751378641 -0.04998629204158309 0  -1.240619724947695 -0.1456443865066938 0  -1.215864321090264 -0.2370370412152691 0  -1.173870917142029 -0.3320673654032918 0  -1.124415316085232 -0.4242669041940061 0  -1.064028666049728 -0.5079947557345439 0  -0.9897557194579418 -0.5885483270029257 0  -0.9040251108955402 -0.6676597254630096 0  -0.8132647672704331 -0.7392347673899567 0  -0.7176857889792581 -0.8000609238658868 0  -0.6129434746444109 -0.8533048538043085 0  -0.4977528285420743 -0.9029826010480214 0  -0.3851239009294004 -0.9429134683531076 0  -0.2699158259800029 -0.9690223738294564 0  -0.1425956534297178 -0.9887262439112735 0  -0.02764386901903107 -1.001752686927196 0  0.08689644024448112 -0.9943516215606359 0  0.2149832622525649 -0.9764346032577982 0  0.3373691936108548 -0.9565055276059202 0  0.4501608015468013 -0.9251059346899908 0  0.5617644248464707 -0.8808102913035097 0  0.6732583102617773 -0.8292495374596356 0  0.7741227817433863 -0.7730652455568445 0  0.8657133434271007 -0.7079350190134465 0  0.951652971926748 -0.6321067481435063 0  1.02945964759938 -0.5500723803904293 0  1.099582969378879 -0.4661590733216759 0  1.157525102871863 -0.3769372785302658 0  1.201266519474433 -0.2862341092944365 0  1.233831232517674 -0.1908069919696707 0  1.255595709656251 -0.09369891196974396 0  -2.44853160092632 4.918060830108148 0  -2.448402918742858 -4.910434173478399 0  4.91035658709393 2.44785116774689 0  4.918488932627221 -2.449316824240549 0  2.446127435369075 -4.895655376278888 0  2.440562076572912 4.899420283296005 0  -4.910383902647021 -2.447878021476886 0  -4.910381185031373 2.447882112110184 0  -1.748484483008811 4.910924802574668 0  -1.744272214746606 -4.914369287777257 0  4.920516334088093 1.744030118600363 0  4.909033478397888 -1.747785649244277 0  -4.909328401001693 -1.747520351641244 0  -4.910151808381797 1.747265894850104 0  1.745755027859174 4.904774390995865 0  1.74716420498013 -4.89290699362263 0  -1.148801712642114 4.908688775976949 0  -1.129661853138007 -4.916615229716278 0  -4.909015375121418 -1.147856903312329 0  -4.908833342399396 1.147657576000249 0  1.143798723274038 -4.912793913944461 0  1.148811475329918 4.908675021654224 0  4.909154504787166 1.146131781683215 0  4.920007526428795 -1.151922289537708 0  -0.5466479103052102 -4.909867219491211 0  -0.5464329283874759 4.918567004402288 0  -4.907723284476186 -0.5486690336878508 0  -4.907747253617138 0.5472272557111751 0  4.907039789951274 -0.5489870443844964 0  4.918723672647966 0.5457492896866153 0  0.5424283714295595 -4.896720935703442 0  0.5511606384486201 4.915383819518284 0  -4.91183359104732 -3.048243771201077 0  4.918408715453279 3.046263157571037 0  4.91134090309574 -3.048218843063339 0  -4.912681826722635 3.045335882154114 0  3.05526114966292 -4.917330436656805 0  -3.048588905201122 -4.911262233298881 0  3.052157128835987 4.913341145891268 0  -3.048034953698152 4.912152652726798 0  -4.906822175601018 -0.04990373125270877 0  0.04511855932827922 -4.911816024981866 0  0.04956568880853542 4.918856314729421 0  4.913893112577943 -0.05128636203571065 0  3.545588041765015 -4.918990342208144 0  -3.54886581247
[...]
<PointData  Vectors="f_5818"> 
<DataArray  type="Float64"  Name="f_5818"  NumberOfComponents="3" format="ascii">1.5514544085095559e-41 -1.7769899218472236e-41 0.0000000000000000e+00  -3.9499428390591257e-41 2.3439452218788916e-41 0.0000000000000000e+00  -5.5830354005311958e-41 -5.1805021533352370e-41 0.0000000000000000e+00  4.3396539002442132e-41 -1.6654115223662920e-41 0.0000000000000000e+00  1.1341636688873782e+01 7.5989746830852365e-03 0.0000000000000000e+00  2.2194671650410979e-42 5.0469112655362533e-41 0.0000000000000000e+00  3.9320352650923021e-40 2.7156247468103750e-40 0.0000000000000000e+00  -1.1068897620548591e-39 -6.8151906101610522e-40 0.0000000000000000e+00  4.0195344507062539e-39 4.1169187474291266e-39 0.0000000000000000e+00  -1.8174410157619521e-38 -1.5904721797817668e-38 0.0000000000000000e+00  5.6418362570775289e-38 6.7456212515864784e-38 0.0000000000000000e+00  -2.8160163627796647e-37 -2.8932622096098037e-37 0.0000000000000000e+00  8.6310752866977298e-37 8.6130368281494511e-37 0.0000000000000000e+00  -1.6568882427048598e-36 -1.3955933115970570e-36 0.0000000000000000e+00  8.9765124977162841e-36 3.8888647891378571e-36 0.0000000000000000e+00  -4.9692535825032735e-36 2.4630895993711209e-35 0.0000000000000000e+00  -1.0892858445715818e-34 -1.9813126652459146e-34 0.0000000000000000e+00  7.5481075817770880e-34 5.7744635349197983e-34 0.0000000000000000e+00  1.3531868067807859e-34 9.4590432837382104e-34 0.0000000000000000e+00  -1.5432553687152201e-32 -1.8340441710660802e-32 0.0000000000000000e+00  5.6052966287515600e-32 7.1469592228220941e-32 0.0000000000000000e+00  -1.0430445742202702e-31 -1.4346712510873301e-31 0.0000000000000000e+00  -1.4513713692070528e-31 -1.6115533017873676e-31 0.0000000000000000e+00  8.3794977220986729e-31 9.7184234676214897e-31 0.0000000000000000e+00  -2.0760525616318358e-32 1.6917473960171432e-31 0.0000000000000000e+00  -1.0755097835824066e-30 -1.2611757827676561e-30 0.0000000000000000e+00  -1.7528367528631963e-31 -5.8852334365033353e-31 0.0000000000000000e+00  2.7193382615839769e-30 1.1554191821433026e-29 0.0000000000000000e+00  -5.5671790224491748e-30 -2.1346464310400146e-29 0.0000000000000000e+00  -3.5983029052086353e-30 -1.2028587953725038e-29 0.0000000000000000e+00  2.8111270911705735e-29 6.9970894679610801e-29 0.0000000000000000e+00  1.3353400835531016e-29 6.0672575686588845e-29 0.0000000000000000e+00  4.9240391227506766e-30 5.8489680029479267e-29 0.0000000000000000e+00  -1.2693633062206041e-29 -3.9576447952028346e-29 0.0000000000000000e+00  -1.8534810548601754e-30 2.1397309719588098e-28 0.0000000000000000e+00  -5.8317325295374799e-29 -5.0159854632340902e-28 0.0000000000000000e+00  -2.8322588471675447e-29 -3.5910161578577552e-28 0.0000000000000000e+00  -2.8946905357275445e-29 -1.4113497673220619e-28 0.0000000000000000e+00  -3.7676180505848634e-29 5.2149959465717950e-28 0.0000000000000000e+00  1.2860220569387223e-29 7.8645323937448638e-28 0.0000000000000000e+00  2.4316248831382784e-28 7.5138129472289376e-28 0.0000000000000000e+00  3.2202317922634116e-28 1.2603394960614470e-28 0.0000000000000000e+00  2.6641734098872008e-28 1.8455593692543544e-28 0.0000000000000000e+00  1.9961056118233014e-28 4.4614108358017944e-28 0.0000000000000000e+00  1.1668472571982807e-28 -3.3302820079213413e-29 0.0000000000000000e+00  -5.7615642529743315e-28 -5.3827543983931243e-28 0.0000000000000000e+00  -3.2164991383137461e-28 3.4684442427659879e-29 0.0000000000000000e+00  2.7015935315590915e-28 1.3341355309940684e-28 0.0000000000000000e+00  -1.2118084198562012e-28 1.4448173349640035e-27 0.0000000000000000e+00  -2.5636980799619974e-28 -1.8591149292273334e-28 0.0000000000000000e+00  -5.0097679865341530e-28 -1.7713191865673619e-27 0.0000000000000000e+00  -5.7185611182936856e-28 -1.0366887898873113e-27 0.0000000000000000e+00  -3.3146894740933253e-28 -1.6707399206067181e-27 0.0000000000000000e+00  8.7451078675711870e-29 -4.1155841959302734e-27 0.0000000000000000e+00  1.6927969488661046e-28 -4.6884168025711282e-27 0.0000000000000000e+00  -7.0848727447159265e-29 -7.6290774644257713e-28 0.0000000000000000e+00  -1.1454048668443782e-28 -2.6307359524918569e-27 0.0000000000000000e+00  -1.5247191090471152e-28 -1.1304766610943878e-27 0.0000000000000000e+00  -8.6752357184984805e-29 -1.8036496790002046e-27 0.0000000000000000e+00  -1.6153443419158538e-28 7.5197878036387458e-28 0.0000000000000000e+00  -1.8219474545097170e-29 -2.6411797062961039e-27 0.0000000000000000e+00  7.8786147263078670e-29 -2.5503625948206780e-27 0.0000000000000000e+00  -8.8635865836712869e-29 4.9396060892121839e-28 0.0000000000000000e+00  -2.7434399743050998e-28 3.6332219576302415e-27 0.0000000000000000e+00  -1.4484203899507435e-28 1.5313714898006457e-27 0.0000000000000000e+00  -8.3109873040413711e-29 8.9789719681272343e-28 0.0000000000000000e+00  -2.4013097006082823e-28 2.3128133177628311e-27 0.0000000000000000e+00  -1.3947063104048487e-28 1.2049700065670551e-27 0.0000000000000000e+00  1.6802130662622867e-28 -1.4523586149448745e-27 0.0000000000000000e+00  1.0205525588859968e-28 -7.4803921912174296e-28 0.0000000000000000e+00  1.4625884939881824e-29 -4.0046958203008450e-29 0.0000000000000000e+00  1.0954204034402696e-28 -4.5128872877030725e-28 0.0000000000000000e+00  6.9217617494907424e-29 -3.7111016972507680e-28 0.0000000000000000e+00  -6.4715990935524295e-29 3.5272917617878931e-28 0.0000000000000000e+00  -2.1194838754313708e-29 1.5506653802095975e-28 0.0000000000000000e+00  -2.0062163859348428e-29 7.3253987620565353e-29 0.0000000000000000e+00  6.8044903746980050e-30 -7.2370973277135196e-29 0.0000000000000000e+00  8.4729146649445345e-30 -4.2544057025746175e-30 0.0000000000000000e+00  8.5990240028104134e-30 -8.9020151605805648e-30 0.0000000000000000e+00  5.3731703659432271e-30 -1.3811732652960481e-29 0.0000000000000000e+00  3.2074944594101558e-30 -1.0059807042873671e-29 0.0000000000000000e+00  -4.8768060531009038e-31 1.2357954098637444e-30 0.0000000000000000e+00  -4.8135821240998294e-31 1.4853195382388301e-30 0.0000000000000000e+00  3.0132713962089572e-30 -5.8222893071053832e-30 0.0000000000000000e+00  4.6015554464211100e-31 -7.2917547315213822e-31 0.0000000000000000e+00  -4.3515348667219405e-31 7.4785469238493553e-31 0.0000000000000000e+00  2.1869447967947653e-31 -3.5154409625575797e-31 0.0000000000000000e+00  -1.2706543355886792e-32 2.8498932471697825e-32 0.0000000000000000e+00  1.9134692410704576e-33 -3.7939250219106215e-33 0.0000000000000000e+00  -1.4906923708656811e-33 1.8522071319760573e-33 0.0000000000000000e+00  -3.9711241500990855e-34 3.6541711839569918e-34 0.0000000000000000e+00  -3.3383038989351179e-34 3.7174874445446542e-34 0.0000000000000000e+00  1.6843448573934808e-34 -1.8043489637667647e-34 0.0000000000000000e+00  -3.6868508788760486e-35 4.1919624485362834e-35 0.0000000000000000e+00  1.4454471457318638e-35 -1.3704864107996086e-35 0.0000000000000000e+00  -1.1662067941276217e-36 1.1283600814409264e-36 0.0000000000000000e+00  -8.1223229799410013e-37 6.8940816261251680e-37 0.0000000000000000e+00  2.1167565839717305e-37 -1.9572619549405101e-37 0.0000000000000000e+00  -1.0841421914423376e-37 9.4117474135814127e-38 0.0000000000000000e+00  3.5508697422542830e-38 -2.9802605042006358e-38 0.0000000000000000e+00  -5.3023863321986358e-39 4.0706168633556997e-39 0.0000000000000000e+00  1.6769791099792052e-39 -1.5126762675009919e-39 0.0000000000000000e+00  -2.7944532530283177e-40 2.2538146330246168e-40 0.0000000000000000e+00  6.4741006304304185e-41 -3.2198278276765003e-41 0.0000000000000000e+00  1.5037936647392498e-41 -1.6338576120604230e-41 0.0000000000000000e+00  2.1992655208285308e-40 -1.7895507739182389e-40 0.0000000000000000e+00  -4.7903593657593263e-40 3.7300512112346377e-40 0.0000000000000000e+00  3.8429722261181096e-40 -6.0318933006496863e-40 0.0000000000000000e+00  2.6148487108881421e-39 -1.0090404824392155e-39 0.0000000000000000e+00  -1.1644704913231822e-38 7.3383755295638762e-39 0.0000000000000000e+00  2.0942743486773222e-38 -1.7078806608977610e-38 0.0000000000000000e+00  1.2317632157195519e-38 5.5022826495730361e-39 0.0000000000000000e+00  -1.8641695546929189e-37 9.6342228239174742e-38 0.0000000000000000e+00  5.2064176793449646e-37 -3.3518446054910329e-37 0.0000000000000000e+00  -3.1593742835426035e-37 3.4614984991957600e-37 0.0000000000000000e+00  -2.4252231893920242e-36 1.1194202359133902e-36 0.0000000000000000e+00  8.6208120164808102e-36 -5.0389710838949560e-36 0.0000000000000000e+00  -9.6914138928791115e-36 7.0828157950851027e-36 0.0000000000000000e+00  -2.8297176797102851e-35 1.2901492075162181e-35 0.0000000000000000e+00  1.3059418551217106e-34 -7.3645318229343043e-35 0.0000000000000000e+00  -1.4716180276868791e-34 9.4806589218741340e-35 0.0000000000000000e+00  -3.9286402988326230e-34 1.9907370374911210e-34 0.0000000000000000e+00  1.7315954244935027e-33 -9.6915999600661985e-34 0.0000000000000000e+00  -1.3705860660208293e-33 8.1056180177835835e-34 0.0000000000000000e+00  -6.6700953113994480e-33 3.6823429882149855e-33 0.0000000000000000e+00  1.9524495072231249e-32 -1.0744557929126526e-32 0.0000000000000000e+00  1.3749214583607608e-33 -1.6390106741236973e-33 0.0000000000000000e+00  -1.0354727915946804e-31 5.8058938725304628e-32 0.0000000000000000e+00  1.4819696103377105e-31 -7.3529508638644503e-32 0.0000000000000000e+00  3.0849355934926066e-31 -1.8936263574805573e-31 0.0000000000000000e+00  -1.0404791087715485e-30 5.3599579470704977e-31 0.0000000000000000e+00  -2.9602893532739306e-31 3.3318551120526949e-31 0.0000000000000000e+00  5.1557795940679422e-30 -2.7256463639563654e-30 0.0000000000000000e+00  -3.0879427758658872e-30 5.4617916883674450e-31 0.0000000000000000e+00  -2.1064283016821835e-29 1.1403388386568371e-29 0.0000000000000000e+00  2.6419250013471325e-29 -7.6378511105287319e-30 0.0000000000000000e+00  7.9251303380935776e-29 -4.3523480455969108e-29 0.0000000000000000e+00  -1.4384871874426929e-28 4.1253432780756777e-29 0.0000000000000000e+00  -3.1692977289614529e-28 1.6533256720020746e-28 0.0000000000000000e+00  6.4907143308685705e-28 -1.6578162415497033e-28 0.0000000000000000e+00  1.3678312240579270e-27 -6.3685781971120876e-28 0.0000000000000000e+00  -2.6041083376410241e-27 5.8286970439797811e-28 0.0000000000000000e+00  -6.8296680419491243e-27 2.6347507938442316e-27 0.0000000000000000e+00  7.3308407187968499e-27 -7.4571373790333260e-28 0.0000000000000000e+00  2.8292083519809167e-26 -8.4607661505364435e-27 0.0000000000000000e+00  4.5773132824354152e-27 -7.1633835901055223e-27 0.0000000000000000e+00  -8.4814249298847254e-26 1.1488276311953077e-26 0.0000000000000000e+00  -9.2364624198345388e-26 1.4493434629014335e-26 0.0000000000000000e+00  2.0705367949660001e-25 -4.8941878826856464e-26 0.0000000000000000e+00  8.4819890994970593e-25 -1.8284092834547026e-25 0.0000000000000000e+00  1.3416713202360173e-24 -2.7976348311080009e-25 0.0000000000000000e+00  1.3393893383848238e-24 -2.6671540014812020e-25 0.0000000000000000e+00  9.3890851351611778e-25 -1.4886165526224793e-25 0.0000000000000000e+00  6.9406873082594589e-25 -6.2829089886316973e-27 0.0000000000000000e+00  8.2198842673698825e-25 1.1245437420617189e-25 0.0000000000000000e+00  9.9981767615805632e-25 1.7004169755635075e-25 0.0000000000000000e+00  8.5534738734559365e-25 1.4648592168585307e-25 0.0000000000000000e+00  4.0020548367829240e-25 6.1963027842559587e-26 0.0000000000000000e+00  1.2885816075507171e-26 -1.0964044416510578e-26 0.0000000000000000e+00  -1.0642756956975730e-25 -2.8019347583441971e-26 0.0000000000000000e+00  -3.6240041765020964e-26 -4.6536673557346426e-27 0.0000000000000000e+00  2.7768254958707981e-26 1.2385275385006976e-26 0.0000000000000000e+00  2.4794350596303320e-26 8.9683044733025963e-27 0.0000000000000000e+00  1.6553597595439928e-27 5.9687556145443055e-28 0.0000000000000000e+00  -4.7854447025531666e-27 -1.5095817737856737e-27 0.0000000000000000e+00  -9.0612004699713029e-28 -1.8352476681979713e-28 0.0000000000000000e+00  1.0399974471356659e-27 3.5674692935578927e-28 0.0000000000000000e+00  1.8848784054015700e-28 4.5161762544834991e-30 0.0000000000000000e+00  -2.6275858627981958e-28 -1.0895810321519617e-28 0.0000000000000000e+00  -2.8720445809074332e-29 7.2037191188823007e-30 0.0000000000000000e+00  6.6017924943713370e-29 3.0526491872378974e-29 0.0000000000000000e+00  -4.1551018449873948e-31 -4.7422730789756964e-30 0.0000000000000000e+00  -1.5419992525393186e-29 -7.3382211358146630e-30 0.0000000000000000e+00  2.0050226726410292e-30 1.8663989164883896e-30 0.0000000000000000e+00  2.9897196006566644e-30 1.3887645175758047e-30 0.0000000000000000e+00  -9.8785152668631077e-31 -6.4993183532357795e-31 0.0000000000000000e+00  -4.4754122522286121e-31 -1.9055018038446436e-31 0.0000000000000000e+00  3.0612048215939423e-31 1.7863092174182932e-31 0.0000000000000000e+00  1.5176673475954405e-32 -2.4812111253666892e-33 0.0000000000000000e+00  -6.7021951298136937e-32 -3.6710558706477766e-32 0.0000000000000000e+00  1.5196869878955848e-32 1.0114998222438322e-32 0.0000000000000000e+00  9.4701606527033977e-33 4.8029296390394700e-33 0.0000000000000000e+00  -6.1503087383789430e-33 -3.5531309713826565e-33 0.0000000000000000e+00  1.9954596751299796e-34 1.9070523695726362e-34 0.0000000000000000e+00  1.0478093686839805e-33 5.8761899887227515e-34 0.0000000000000000e+00  -4.3634893261903501e-34 -2.5267451847596011e-34 0.0000000000000000e+00  -2.7404655158869225e-35 -1.5975223642461542e-35 0.0000000000000000e+00  9.0743149197791383e-35 5.2830360455019786e-35 0.0000000000000000e+00  -3.2420772901929374e-35 -1.8337156023115441e-35 0.0000000000000000e+00  -1.7529541041365842e-36 -1.5383146634584664e-36 0.0000000000000000e+00  6.1005287188088422e-36 3.7085576517757757e-36 0.0000000000000000e+00  -2.3699129509977629e-36 -1.3347604161039650e-36 0.0000000000000000e+00  6.8936634167141477e-38 -2.4710608131638485e-38 0.0000000000000000e+00  3.4146795569789625e-37 2.2588363409958394e-37 0.0000000000000000e+00  -1.6748471250700030e-37 -9.9126766064977592e-38 0.0000000000000000e+00  2.7025227023086606e-38 1.1131576107713598e-38 0.0000000000000000e+00  1.2198650227802997e-38 9.9948769390364473e-39 0.0000000000000000e+00  -1.0069220322052845e-38 -6.6816346625140371e-39 0.0000000000000000e+00  3.1385246968529327e-39 1.7481912101274162e-39 0.0000000000000000e+00  -1.0729519106531625e-40 1.2359132128715028e-40 0.0000000000000000e+00  -3.8721177252215952e-40 -3.2062863248832746e-40 0.0000000000000000e+00  1.9963246270493463e-40 1.3844614181990480e-40 0.0000000000000000e+00  -5.9229326477771492e-41 -3.1458456182917686e-41 0.0000000000000000e+00  1.2031067211228192e-40 1.0382451214773506e-40 0.0000000000000000e+00  5.2039727279137366e-41 -1.9423269131404220e-42 0.0000000000000000e+00  -3.1744297365603338e-41 9.3622246604397454e-42 0.0000000000000000e+00  1.8209421078347155e-39 1.0329727233235117e-39 0.0000000000000000e+00  5.8106014954310059e-39 8.4808719180617488e-39 0.0000000000000000e+00  -2.5176283272314129e-38 -3.3057846513071720e-38 0.0000000000000000e+00  -3.6040983390870972e-38 -1.3758297954779699e-38 0.0000000000000000e+00  2.6271636056451200e-37 1.0721961084063174e-37 0.0000000000000000e+00  -1.8653661182360075e-36 -1.6059419853550237e-36 0.0000000000000000e+00  7.3362509965806578e-36 6.9436551970509490e-36 0.0000000000000000e+00  8.6183445598336169e-36 7.3159652311495289e-36 0.0000000000000000e+00  -1.2170281179484560e-34 -1.1083158140844645e-34 0.0000000000000000e+00  5.0378551009770937e-34 5.2775814883769912e-34 0.0000000000000000e+00  -1.8583928103691846e-33 -1.9370730075143610e-33 0.0000000000000000e+00  2.5059504113195507e-33 2.4620716616182390e-33 0.0000000000000000e+00  6.1440685799895199e-33 8.1865400677254979e-33 0.0000000000000000e+00  -4.0323852989088274e-32 -4.8752509727405064e-32 0.0000000000000000e+00  -8.4413632089715323e-32 -1.0629355108566460e-31 0.0000000000000000e+00  1.3907571959890267e-31 1.7037397521713031e-31 0.0000000000000000e+00  -3.3366125133066428e-32 5.8741013568575496e-32 0.0000000000000000e+00  -3.5015601064682184e-31 -7.0795288945623684e-31 0.0000000000000000e+00  1.0261827723242112e-30 1.9625473498034431e-30 0.0000000000000000e+00  1.4943535996260709e-30 2.8890010877788564e-30 0.0000000000000000e+00  -9.5866531114678513e-30 -2.2744208183030062e-29 0.0000000000000000e+00  3.7273400850729794e-30 8.9111478100320846e-30 0.0000000000000000e+00  3.9769911302559408e-30 -3.5629078300169518e-29 0.0000000000000000e+00  1.1229314714769812e-29 7.5151766633049330e-29 0.0000000000000000e+00  7.8280616326671663e-29 4.1895232155546483e-28 0.0000000000000000e+00  2.8810823416332505e-29 1.4058151961615494e-28 0.0000000000000000e+00  -7.1266434593629521e-29 -3.0706321956649967e-28 0.0000000000000000e+00  -1.6319721049197722e-28 -8.2184454710338125e-28 0.0000000000000000e+00  1.4595304513164015e-28 6.8047261897657979e-28 0.0000000000000000e+00  2.4310025788691599e-28 1.1460046561621656e-27 0.0000000000000000e+00  2.0518868568599925e-28 9.7636469749578071e-28 0.0000000000000000e+00  9.5450618628100999e-29 5.5518860014052872e-28 0.0000000000000000e+00  -4.0729148963134302e-28 -1.7733223947493776e-27 0.0000000000000000e+00  -1.0811008364880775e-28 -3.5218719968208169e-28 0.0000000000000000e+00  -6.0044313740450576e-29 -3.7816561512075296e-29 0.0000000000000000e+00  -2.5904995007735190e-28 -1.0482320170149369e-27 0.0000000000000000e+00  -2.4030904837802059e-28 -9.9462885337963884e-28 0.0000000000000000e+00  -2.6752708384492273e-28 -2.5281745162715880e-27 0.0000000000000000e+00  -6.4283455863235038e-29 -1.6851188360462345e-27 0.0000000000000000e+00  2.1748517870306534e-28 1.7211781903344788e-28 0.0000000000000000e+00  4.3841603137303881e-29 -1.0659828823855552e-27 0.0000000000000000e+00  -9.0926758293178390e-29 -2.2395607395528823e-27 0.0000000000000000e+00  -1.2497675720338175e-29 -1.7384782550598706e-28 0.0000000000000000e+00  4.1230421758784309e-30 -3.4779682915879818e-28 0.0000000000000000e+00  7.5949260742943518e-29 -2.0962330478136745e-27 0.0000000000000000e+00  4.2926871180491723e-29 -1.2525011519445533e-27 0.0000000000000000e+00  2.1954055342200474e-28 -2.3261542027702818e-27 0.0000000000000000e+00  -2.8069225357100801e-28 8.9757827501079940e-28 0.0000000000000000e+00  -2.5646099025481282e-28 8.6628531924954793e-28 0.0000000000000000e+00  2.9824438892909751e-28 -2.2044940053363505e-27 0.0000000000000000e+00  9.9897520721287303e-29 -9.4388959184531168e-28 0.0000000000000000e+00  3.2703568734131829e-28 -1.9880835284843158e-27 0.0000000000000000e+00  -7.5239213275280999e-29 -3.5765413542772379e-29 0.0000000000000000e+00  -2.8579221970109480e-29 -2.8656263470577219e-28 0.0000000000000000e+00  2.1243800826032825e-28 -1.4135234675947666e-27 0.0000000000000000e+00  8.8263652465792783e-29 -7.9878097991572678e-28 0.0000000000000000e+00  3.4064611197493187e-28 -1.9193862424865855e-27 0.0000000000000000e+00  4.1457927763782285e-28 -2.6366965727354957e-27 0.0000000000000000e+00  4.9120070104481849e-28 -3.0119328311328904e-27 0.0000000000000000e+00  1.3032013444882658e-28 -7.7874063015437060e-28 0.0000000000000000e+00  -1.5127311648999952e-28 1.0275185163825860e-27 0.0000000000000000e+00  -2.2185509352695150e-28 1.4824241619889861e-27 0.0000000000000000e+00  -2.3525630120596316e-28 1.5656363879698889e-27 0.0000000000000000e+00  -5.6337632317512801e-29 3.3046502211367330e-28 0.0000000000000000e+00  4.7858134798495215e-29 -3.4571243826009894e-28 0.0000000000000000e+00  3.4505184310050046e-29 -2.0889542912642646e-28 0.0000000000000000e+00  1.3806801313521175e-28 -8.4246233985632761e-28 0.0000000000000000e+00  4.2575089477828766e-29 -2.5807448396979316e-28 0.0000000000000000e+00  -5.2515338736822731e-29 3.2441808928727576e-28 0.0000000000000000e+00  1.7967752892276974e-29 -1.1043564801587294e-28 0.0000000000000000e+00  -1.1070932671569220e-30 2.9986553160233320e-30 0.0000000000000000e+00  -1.6633269979340964e-30 1.1689093745230888e-29 0.0000000000000000e+00  2.4411516936602549e-30 -7.7100842693900239e-30 0.0000000000000000e+00  2.9592577565432092e-30 -6.6921225070659662e-30 0.0000000000000000e+00  5.9704