<?xml version="1.0"?>
<VTKFile type="UnstructuredGrid"  version="0.1"  >
<UnstructuredGrid>
<Piece  NumberOfPoints="11902" NumberOfCells="23402">
<Points>
<DataArray  type="Float64"  NumberOfComponents="3"  format="ascii">-5 -5 0  5 -5 0  5 5 0  -5 5 0  1.265215780407599 0.001268149056653459 0  -4.9 -5 0  -4.8 -5 0  -4.7 -5 0  -4.6 -5 0  -4.5 -5 0  -4.4 -5 0  -4.3 -5 0  -4.2 -5 0  -4.1 -5 0  -4 -5 0  -3.9 -5 0  -3.8 -5 0  -3.7 -5 0  -3.6 -5 0  -3.5 -5 0  -3.4 -5 0  -3.3 -5 0  -3.2 -5 0  -3.1 -5 0  -3 -5 0  -2.9 -5 0  -2.8 -5 0  -2.7 -5 0  -2.6 -5 0  -2.5 -5 0  -2.4 -5 0  -2.3 -5 0  -2.2 -5 0  -2.1 -5 0  -2 -5 0  -1.9 -5 0  -1.8 -5 0  -1.7 -5 0  -1.6 -5 0  -1.5 -5 0  -1.4 -5 0  -1.3 -5 0  -1.2 -5 0  -1.1 -5 0  -1 -5 0  -0.9000000000000004 -5 0  -0.7999999999999998 -5 0  -0.7000000000000002 -5 0  -0.5999999999999996 -5 0  -0.5 -5 0  -0.4000000000000004 -5 0  -0.2999999999999998 -5 0  -0.2000000000000002 -5 0  -0.09999999999999964 -5 0  0 -5 0  0.09999999999999964 -5 0  0.2000000000000002 -5 0  0.2999999999999998 -5 0  0.4000000000000004 -5 0  0.5 -5 0  0.5999999999999996 -5 0  0.7000000000000002 -5 0  0.7999999999999998 -5 0  0.9000000000000004 -5 0  1 -5 0  1.1 -5 0  1.2 -5 0  1.3 -5 0  1.4 -5 0  1.5 -5 0  1.6 -5 0  1.7 -5 0  1.8 -5 0  1.9 -5 0  2 -5 0  2.1 -5 0  2.2 -5 0  2.3 -5 0  2.4 -5 0  2.5 -5 0  2.6 -5 0  2.7 -5 0  2.8 -5 0  2.9 -5 0  3 -5 0  3.1 -5 0  3.199999999999999 -5 0  3.300000000000001 -5 0  3.4 -5 0  3.5 -5 0  3.6 -5 0  3.699999999999999 -5 0  3.800000000000001 -5 0  3.9 -5 0  4 -5 0  4.1 -5 0  4.199999999999999 -5 0  4.300000000000001 -5 0  4.4 -5 0  4.5 -5 0  4.6 -5 0  4.699999999999999 -5 0  4.800000000000001 -5 0  4.9 -5 0  5 -4.9 0  5 -4.8 0  5 -4.7 0  5 -4.6 0  5 -4.5 0  5 -4.4 0  5 -4.3 0  5 -4.2 0  5 -4.1 0  5 -4 0  5 -3.9 0  5 -3.8 0  5 -3.7 0  5 -3.6 0  5 -3.5 0  5 -3.4 0  5 -3.3 0  5 -3.2 0  5 -3.1 0  5 -3 0  5 -2.9 0  5 -2.8 0  5 -2.7 0  5 -2.6 0  5 -2.5 0  5 -2.4 0  5 -2.3 0  5 -2.2 0  5 -2.1 0  5 -2 0  5 -1.9 0  5 -1.8 0  5 -1.7 0  5 -1.6 0  5 -1.5 0  5 -1.4 0  5 -1.3 0  5 -1.2 0  5 -1.1 0  5 -1 0  5 -0.9000000000000004 0  5 -0.7999999999999998 0  5 -0.7000000000000002 0  5 -0.5999999999999996 0  5 -0.5 0  5 -0.4000000000000004 0  5 -0.2999999999999998 0  5 -0.2000000000000002 0  5 -0.09999999999999964 0  5 0 0  5 0.09999999999999964 0  5 0.2000000000000002 0  5 0.2999999999999998 0  5 0.4000000000000004 0  5 0.5 0  5 0.5999999999999996 0  5 0.7000000000000002 0  5 0.7999999999999998 0  5 0.9000000000000004 0  5 1 0  5 1.1 0  5 1.2 0  5 1.3 0  5 1.4 0  5 1.5 0  5 1.6 0  5 1.7 0  5 1.8 0  5 1.9 0  5 2 0  5 2.1 0  5 2.2 0  5 2.3 0  5 2.4 0  5 2.5 0  5 2.6 0  5 2.7 0  5 2.8 0  5 2.9 0  5 3 0  5 3.1 0  5 3.199999999999999 0  5 3.300000000000001 0  5 3.4 0  5 3.5 0  5 3.6 0  5 3.699999999999999 0  5 3.800000000000001 0  5 3.9 0  5 4 0  5 4.1 0  5 4.199999999999999 0  5 4.300000000000001 0  5 4.4 0  5 4.5 0  5 4.6 0  5 4.699999999999999 0  5 4.800000000000001 0  5 4.9 0  4.9 5 0  4.8 5 0  4.7 5 0  4.6 5 0  4.5 5 0  4.4 5 0  4.3 5 0  4.2 5 0  4.1 5 0  4 5 0  3.9 5 0  3.8 5 0  3.7 5 0  3.6 5 0  3.5 5 0  3.4 5 0  3.3 5 0  3.2 5 0  3.1 5 0  3 5 0  2.9 5 0  2.8 5 0  2.7 5 0  2.6 5 0  2.5 5 0  2.4 5 0  2.3 5 0  2.2 5 0  2.1 5 0  2 5 0  1.9 5 0  1.8 5 0  1.7 5 0  1.6 5 0  1.5 5 0  1.4 5 0  1.3 5 0  1.2 5 0  1.1 5 0  1 5 0  0.9000000000000004 5 0  0.7999999999999998 5 0  0.7000000000000002 5 0  0.5999999999999996 5 0  0.5 5 0  0.4000000000000004 5 0  0.2999999999999998 5 0  0.2000000000000002 5 0  0.09999999999999964 5 0  0 5 0  -0.09999999999999964 5 0  -0.2000000000000002 5 0  -0.2999999999999998 5 0  -0.4000000000000004 5 0  -0.5 5 0  -0.5999999999999996 5 0  -0.7000000000000002 5 0  -0.7999999999999998 5 0  -0.9000000000000004 5 0  -1 5 0  -1.1 5 0  -1.2 5 0  -1.3 5 0  -1.4 5 0  -1.5 5 0  -1.6 5 0  -1.7 5 0  -1.8 5 0  -1.9 5 0  -2 5 0  -2.1 5 0  -2.2 5 0  -2.3 5 0  -2.4 5 0  -2.5 5 0  -2.6 5 0  -2.7 5 0  -2.8 5 0  -2.9 5 0  -3 5 0  -3.1 5 0  -3.199999999999999 5 0  -3.300000000000001 5 0  -3.4 5 0  -3.5 5 0  -3.6 5 0  -3.699999999999999 5 0  -3.800000000000001 5 0  -3.9 5 0  -4 5 0  -4.1 5 0  -4.199999999999999 5 0  -4.300000000000001 5 0  -4.4 5 0  -4.5 5 0  -4.6 5 0  -4.699999999999999 5 0  -4.800000000000001 5 0  -4.9 5 0  -5 4.9 0  -5 4.8 0  -5 4.7 0  -5 4.6 0  -5 4.5 0  -5 4.4 0  -5 4.3 0  -5 4.2 0  -5 4.1 0  -5 4 0  -5 3.9 0  -5 3.8 0  -5 3.7 0  -5 3.6 0  -5 3.5 0  -5 3.4 0  -5 3.3 0  -5 3.2 0  -5 3.1 0  -5 3 0  -5 2.9 0  -5 2.8 0  -5 2.7 0  -5 2.6 0  -5 2.5 0  -5 2.4 0  -5 2.3 0  -5 2.2 0  -5 2.1 0  -5 2 0  -5 1.9 0  -5 1.8 0  -5 1.7 0  -5 1.6 0  -5 1.5 0  -5 1.4 0  -5 1.3 0  -5 1.2 0  -5 1.1 0  -5 1 0  -5 0.9000000000000004 0  -5 0.7999999999999998 0  -5 0.7000000000000002 0  -5 0.5999999999999996 0  -5 0.5 0  -5 0.4000000000000004 0  -5 0.2999999999999998 0  -5 0.2000000000000002 0  -5 0.09999999999999964 0  -5 0 0  -5 -0.09999999999999964 0  -5 -0.2000000000000002 0  -5 -0.2999999999999998 0  -5 -0.4000000000000004 0  -5 -0.5 0  -5 -0.5999999999999996 0  -5 -0.7000000000000002 0  -5 -0.7999999999999998 0  -5 -0.9000000000000004 0  -5 -1 0  -5 -1.1 0  -5 -1.2 0  -5 -1.3 0  -5 -1.4 0  -5 -1.5 0  -5 -1.6 0  -5 -1.7 0  -5 -1.8 0  -5 -1.9 0  -5 -2 0  -5 -2.1 0  -5 -2.2 0  -5 -2.3 0  -5 -2.4 0  -5 -2.5 0  -5 -2.6 0  -5 -2.7 0  -5 -2.8 0  -5 -2.9 0  -5 -3 0  -5 -3.1 0  -5 -3.199999999999999 0  -5 -3.300000000000001 0  -5 -3.4 0  -5 -3.5 0  -5 -3.6 0  -5 -3.699999999999999 0  -5 -3.800000000000001 0  -5 -3.9 0  -5 -4 0  -5 -4.1 0  -5 -4.199999999999999 0  -5 -4.300000000000001 0  -5 -4.4 0  -5 -4.5 0  -5 -4.6 0  -5 -4.699999999999999 0  -5 -4.800000000000001 0  -5 -4.9 0  1.257258923302831 0.09257412308996371 0  1.23507590388933 0.1903364039043774 0  1.201143435217355 0.2872225585709529 0  1.158472129153212 0.3757379573808967 0  1.09967187412003 0.4669471918644665 0  1.032831590541472 0.5502147628835631 0  0.9543198196350327 0.630803842512441 0  0.8670546393487241 0.70567437992965 0  0.7752310880225586 0.7707820758860633 0  0.6735698425410344 0.8282583050827067 0  0.5598629978477617 0.8805011003693795 0  0.4460159571572163 0.9255708840618305 0  0.3358582035181304 0.9570157739634112 0  0.2088142593556371 0.9798324347087667 0  0.08717440573461981 0.9980618705868869 0  -0.02614429809811794 1.001678048434073 0  -0.1438139983525313 0.9881419775104591 0  -0.2744460987356984 0.9680231777909706 0  -0.3948632380953829 0.9437555844168927 0  -0.5039933205629968 0.9088682328416943 0  -0.6133955566845583 0.8624968401028186 0  -0.7152885492415469 0.8072554588993364 0  -0.8096163185573778 0.7430057428673011 0  -0.9013198765985766 0.6692405177235486 0  -0.988096053444952 0.5887960175273721 0  -1.0631127706812 0.5069297107235519 0  -1.125447703839445 0.4228130084551858 0  -1.181201292596953 0.3283660249355931 0  -1.218390529092524 0.2420531218048417 0  -1.242641887197745 0.1485482558284644 0  -1.252756091761335 0.05284274746663315 0  -1.25269025555886 -0.05053625332237067 0  -1.242480835740966 -0.1455058206699657 0  -1.218031159125328 -0.2357635403082443 0  -1.175588497693595 -0.3313131517409124 0  -1.125743875883104 -0.4239565820878219 0  -1.065395676979918 -0.5066936931299335 0  -0.9906912290131504 -0.5878137855341983 0  -0.90451312049628 -0.6672126246394029 0  -0.8138284512151945 -0.7383484353665812 0  -0.718747076203514 -0.7988200685502351 0  -0.6142544977203269 -0.8522900563884026 0  -0.4978385861524662 -0.902083259574867 0  -0.3856079357864514 -0.9419609444707324 0  -0.2711334904182274 -0.9678913089009293 0  -0.1420094983596507 -0.9882307114760179 0  -0.02744240491472084 -1.000907363607454 0  0.08533795526490175 -0.9935208304471317 0  0.2156735480198088 -0.9754566876952993 0  0.338925723331026 -0.9550855970753329 0  0.450279875825274 -0.9242304948412391 0  0.5627246945037713 -0.8797046071955039 0  0.6749230819777264 -0.8280410792084124 0  0.7749171463591595 -0.772044346703416 0  0.865908336507528 -0.707548997646978 0  0.9515179064879223 -0.6317853063793725 0  1.030503470418171 -0.54868665618679 0  1.101617465545605 -0.4649458456267399 0  1.159401221305422 -0.3759310648833092 0  1.20299930850927 -0.2853092540418102 0  1.235818490094745 -0.189768130295573 0  1.257674346401374 -0.09278590914289542 0  -2.448513483648456 4.918029311051028 0  -2.44838299503963 -4.910399678452791 0  4.910320295846904 2.447826996585302 0  4.918455987565911 -2.449294986692962 0  2.446104354039197 -4.895614961092972 0  2.440539674552911 4.899381049681632 0  -4.910347615674696 -2.447854193594081 0  -4.910344936068593 2.447858403566605 0  -1.748465650661174 4.910878898669454 0  -1.744253943555187 -4.914325091831358 0  4.920470679060767 1.744008292360714 0  4.908981327099479 -1.747760826552289 0  -4.909276410798874 -1.74749581212804 0  -4.910100322250191 1.747241738764585 0  1.745734656414937 4.904724903008767 0  1.747141532572362 -4.892851580260094 0  -1.148786731506068 4.908632693077085 0  -1.129648092816567 -4.916563836352459 0  -4.908950478775011 -1.147836752255721 0  -4.908768343288529 1.147637570906683 0  1.143784400535113 -4.912740217291977 0  1.148796132170376 4.908618653321147 0  4.909089617584939 1.146111352685833 0  4.919950504551946 -1.15190441245041 0  -0.5466399212590841 -4.909805841352905 0  -0.5464260225112617 4.918511459143035 0  -4.907648041840362 -0.5486578280414166 0  -4.907672032258913 0.5472162763380194 0  4.906963893572175 -0.5489757557551689 0  4.918657290221669 0.5457393040674317 0  0.5424195469135222 -4.896650484194939 0  0.5511529719146478 4.915325995463521 0  -4.911809036856356 -3.048224022317077 0  4.918385972069057 3.046244628495275 0  4.911316254560242 -3.048198835719292 0  -4.912657495524571 3.04531638286274 0  3.055245049626992 -4.917307521494846 0  -3.048571502359457 -4.911237663562233 0  3.052140158954471 4.913316964682084 0  -3.048017792513701 4.912128367187308 0  -4.906743079057162 -0.04990256924619765 0  0.0451180223763677 -4.911754091889658 0  0.04956480413497968 4.918799192777533 0  4.913819911522038 -0.05128542856504999 0  3.545575363281805 -4.918974394599832 0  -3.548852037399385 4.91187
[...]
<PointData  Vectors="f_6754"> 
<DataArray  type="Float64"  Name="f_6754"  NumberOfComponents="3" format="ascii">1.6499780779190240e-40 1.2200950990204549e-40 0.0000000000000000e+00  -1.1298366743916265e-40 9.0772446177036413e-41 0.0000000000000000e+00  -3.8306893408980693e-41 -1.3462032740879785e-41 0.0000000000000000e+00  1.2979741000720031e-40 -1.1483618331536435e-40 0.0000000000000000e+00  1.0816782520546020e+01 -2.0783320584634927e-03 0.0000000000000000e+00  -2.9801471442781707e-40 -2.2593755845716201e-40 0.0000000000000000e+00  5.3231142230664353e-40 3.3822524828119942e-40 0.0000000000000000e+00  -1.6847950389394476e-39 -1.1384227067128888e-39 0.0000000000000000e+00  -5.4715663771212944e-39 -4.5052879675651665e-39 0.0000000000000000e+00  4.8847890747761632e-39 4.0440215422378448e-39 0.0000000000000000e+00  -1.0490290778470034e-37 -6.7238797150454644e-38 0.0000000000000000e+00  1.6394917155956449e-37 8.6668300556806645e-38 0.0000000000000000e+00  -1.5851951926638237e-36 -1.4369032123343125e-36 0.0000000000000000e+00  1.2937015895318659e-35 1.3067662680117018e-35 0.0000000000000000e+00  -4.2715591965022946e-35 -4.5754562086986122e-35 0.0000000000000000e+00  6.6856573025225614e-35 9.0595854766144021e-35 0.0000000000000000e+00  -1.1000262951509011e-34 -1.9469953203915936e-34 0.0000000000000000e+00  -6.3141526903488577e-34 -7.0932157182284244e-34 0.0000000000000000e+00  2.3477729736795868e-33 2.9388677110033792e-33 0.0000000000000000e+00  -4.3254814633917017e-33 -7.4994197816829884e-33 0.0000000000000000e+00  3.1008647629118163e-32 4.6211382522379529e-32 0.0000000000000000e+00  -8.6393507739049918e-32 -1.2436701448715215e-31 0.0000000000000000e+00  -7.9188594483997693e-32 -6.5763056762886993e-32 0.0000000000000000e+00  5.9532314312088251e-31 5.6694970984144049e-31 0.0000000000000000e+00  8.2340058470278529e-32 3.7865712347912629e-31 0.0000000000000000e+00  -9.6640597990548506e-32 6.5969807338537222e-31 0.0000000000000000e+00  -8.3272067193541124e-31 -2.0591873170680688e-30 0.0000000000000000e+00  1.3690270839312183e-30 8.9402990374512230e-30 0.0000000000000000e+00  -6.3642730732374563e-30 -2.3568447237088006e-29 0.0000000000000000e+00  -4.2403262838266680e-30 -1.6713463628844752e-29 0.0000000000000000e+00  4.0054525487093165e-29 1.1995464174685966e-28 0.0000000000000000e+00  1.1510351458433084e-29 4.2940739988447970e-29 0.0000000000000000e+00  -1.9472083868569433e-30 -7.4854441132075754e-30 0.0000000000000000e+00  -2.1498500900274342e-29 -5.1344705428702915e-29 0.0000000000000000e+00  -5.0949859167855612e-29 1.6114377635861627e-29 0.0000000000000000e+00  -2.9129677319918371e-29 -2.7957134509849992e-28 0.0000000000000000e+00  -3.7132733401584265e-29 -2.3894354080497378e-28 0.0000000000000000e+00  -2.9062375346592762e-30 -5.8319012899243726e-29 0.0000000000000000e+00  6.0881274357886078e-29 4.4294261546962142e-28 0.0000000000000000e+00  8.7287728688496206e-29 6.4177497625059710e-28 0.0000000000000000e+00  9.8058153093137808e-29 5.7910196183777478e-28 0.0000000000000000e+00  4.2303379468970211e-29 -1.4103042471876103e-28 0.0000000000000000e+00  4.9282455358381813e-29 -5.7888581088159752e-30 0.0000000000000000e+00  7.3545298097777020e-29 3.9046990199608955e-28 0.0000000000000000e+00  1.5650977481117671e-29 -5.6020785549178998e-29 0.0000000000000000e+00  -1.5866675066852281e-28 -9.5946431227562273e-28 0.0000000000000000e+00  -7.7953308834319751e-29 -7.1735422281850203e-28 0.0000000000000000e+00  7.1142494385797560e-29 5.9478660526419178e-28 0.0000000000000000e+00  6.4511908451495678e-30 -9.2376668222376467e-28 0.0000000000000000e+00  -6.9784200175766987e-29 -2.7542963701706389e-28 0.0000000000000000e+00  -1.7573247487912044e-28 6.1373147041104114e-29 0.0000000000000000e+00  -1.9150693083938912e-28 -1.8445979796099397e-28 0.0000000000000000e+00  -1.2832904520275254e-28 -1.4504685277005515e-28 0.0000000000000000e+00  -1.7382786373896829e-29 4.2550922904154115e-28 0.0000000000000000e+00  -4.7123099727452271e-30 5.3919245322386334e-28 0.0000000000000000e+00  -5.1297804193460721e-29 5.9511718037977959e-29 0.0000000000000000e+00  -1.0147982051365535e-28 -1.9890259868041791e-29 0.0000000000000000e+00  -1.1768544373168192e-28 -3.4808437256581135e-28 0.0000000000000000e+00  -9.8951497167148513e-29 -1.7943579618664359e-28 0.0000000000000000e+00  -1.2142360124707221e-28 -2.4497725471086177e-28 0.0000000000000000e+00  -1.7142779475808338e-28 -4.5454970355860255e-28 0.0000000000000000e+00  -1.6471095023624822e-28 -4.8663910824974478e-28 0.0000000000000000e+00  -8.2185603375401537e-29 -4.1428148976307592e-29 0.0000000000000000e+00  -4.3809657178491647e-29 3.2229542992125476e-28 0.0000000000000000e+00  6.9486638039698409e-31 1.8764925356755820e-28 0.0000000000000000e+00  9.6827725255312384e-29 1.4603777532941881e-28 0.0000000000000000e+00  6.3348037780868031e-29 3.4884967156454349e-28 0.0000000000000000e+00  3.8838925832375750e-29 1.3860827106410138e-28 0.0000000000000000e+00  1.0265175228233979e-29 -2.7489433294815195e-28 0.0000000000000000e+00  -4.0036771482328777e-29 -1.9370562514691303e-28 0.0000000000000000e+00  -2.9049091194665602e-29 1.2441531967353259e-28 0.0000000000000000e+00  -8.5517194872867051e-29 9.7846261884196869e-29 0.0000000000000000e+00  -3.9894390721022375e-29 6.6140951197646087e-29 0.0000000000000000e+00  2.8497923338343737e-29 -2.3616531043301847e-29 0.0000000000000000e+00  3.6483585888593916e-29 -2.5483075765110362e-28 0.0000000000000000e+00  1.6674660336272394e-29 -7.7819119884476993e-29 0.0000000000000000e+00  -2.4498109413286480e-30 1.6502496890251842e-30 0.0000000000000000e+00  -1.1365240786371906e-29 6.1767867009809454e-29 0.0000000000000000e+00  -1.6488105433825104e-29 8.2167183993444076e-29 0.0000000000000000e+00  3.2526919226848552e-30 -3.6348757530558603e-30 0.0000000000000000e+00  1.4299046691588439e-29 -4.9755785243323253e-29 0.0000000000000000e+00  -2.4509193854346077e-30 8.2325944802832714e-30 0.0000000000000000e+00  -7.7201082531921565e-31 2.4607333599023700e-30 0.0000000000000000e+00  3.5015463793243316e-30 -6.7886941375511030e-30 0.0000000000000000e+00  4.5184828116992139e-31 -5.2769849023185470e-31 0.0000000000000000e+00  -4.7181049765718169e-31 7.3546186152076122e-31 0.0000000000000000e+00  1.8761821426400532e-31 -3.1602590436194927e-31 0.0000000000000000e+00  -5.4330251919550687e-32 6.7955605320512311e-32 0.0000000000000000e+00  5.1901104580426278e-33 -6.9195791049900994e-33 0.0000000000000000e+00  3.5347855823014416e-33 -3.0632251668817552e-33 0.0000000000000000e+00  -4.9255733623866091e-33 4.9407882339657987e-33 0.0000000000000000e+00  1.4955220756652644e-34 -8.4904327433960247e-35 0.0000000000000000e+00  1.8558119508697449e-34 -2.1199941463386052e-34 0.0000000000000000e+00  -2.3312210772565109e-35 3.0948644839980565e-35 0.0000000000000000e+00  1.7842150203145813e-35 -1.8768089390924303e-35 0.0000000000000000e+00  -2.6336235074335793e-36 2.7226932257054408e-36 0.0000000000000000e+00  -2.0597235448643080e-37 2.0861609094775287e-37 0.0000000000000000e+00  1.5073036516599171e-38 -3.3184843341577389e-38 0.0000000000000000e+00  -1.9091135353100370e-38 2.3051322306226977e-38 0.0000000000000000e+00  6.1475829509771627e-39 -6.9683812888935222e-39 0.0000000000000000e+00  1.9696034525491434e-39 -1.1553097687372298e-39 0.0000000000000000e+00  -4.5888146783956874e-40 3.7230555709943601e-40 0.0000000000000000e+00  -1.7143626556658602e-40 1.4912983551539533e-40 0.0000000000000000e+00  1.6996444606574001e-40 -1.4311605824148471e-40 0.0000000000000000e+00  3.4894632518428978e-41 -2.6958033181845444e-41 0.0000000000000000e+00  1.6911543478118410e-40 -1.1177045647752347e-40 0.0000000000000000e+00  -3.0191239040525045e-40 1.8662467060860624e-40 0.0000000000000000e+00  5.6674462928463713e-42 1.7034605245532854e-40 0.0000000000000000e+00  1.6636739419800408e-39 -1.4622945671623771e-39 0.0000000000000000e+00  -5.1992905266870566e-39 3.4551884407168662e-39 0.0000000000000000e+00  6.5887579620142620e-39 -2.2620790251814260e-39 0.0000000000000000e+00  9.9159735545625516e-39 -1.2726103261764451e-38 0.0000000000000000e+00  -6.7625085355381286e-38 5.0323609040970622e-38 0.0000000000000000e+00  1.4336042609025177e-37 -7.8237949610707570e-38 0.0000000000000000e+00  -1.1905552273766740e-39 -6.6194413420853719e-38 0.0000000000000000e+00  -8.0522037456215902e-37 6.0348414240002149e-37 0.0000000000000000e+00  2.0249456995756211e-36 -1.2118304527311724e-36 0.0000000000000000e+00  -7.5896890276556614e-37 7.4193412649321813e-38 0.0000000000000000e+00  -1.0090536298161123e-35 6.6327843460428960e-36 0.0000000000000000e+00  2.8231247270516658e-35 -1.7114309668727524e-35 0.0000000000000000e+00  -5.1710698682812437e-36 4.7126007368269950e-36 0.0000000000000000e+00  -1.4764527122457892e-34 8.1659974482098614e-35 0.0000000000000000e+00  3.5000845476448387e-34 -2.1654853554858464e-34 0.0000000000000000e+00  1.6788124976946141e-34 -6.1907013729533129e-36 0.0000000000000000e+00  -2.3655525644638175e-33 1.2447861188866789e-33 0.0000000000000000e+00  3.2071927265564449e-33 -2.2489559108197485e-33 0.0000000000000000e+00  7.9081284132532239e-33 -3.0918585945068722e-33 0.0000000000000000e+00  -3.1623021643350035e-32 1.7825679854266059e-32 0.0000000000000000e+00  3.0460147549493756e-33 -8.3586873387403602e-33 0.0000000000000000e+00  1.6233684321530796e-31 -8.3273898497143291e-32 0.0000000000000000e+00  -2.0593224334178335e-31 1.2759513425263498e-31 0.0000000000000000e+00  -5.7371225131418555e-31 2.9004343773515424e-31 0.0000000000000000e+00  1.5616551357295482e-30 -8.3723066237940025e-31 0.0000000000000000e+00  1.3464902390147385e-30 -8.1889592097359376e-31 0.0000000000000000e+00  -7.9396562034147898e-30 4.0050680200796833e-30 0.0000000000000000e+00  -1.0099309433891681e-30 2.1424543342540674e-30 0.0000000000000000e+00  3.2998857188310371e-29 -1.5531863915584213e-29 0.0000000000000000e+00  -1.1168622251881333e-29 -5.4158682715400596e-30 0.0000000000000000e+00  -1.2536240460925412e-28 4.7662209547719312e-29 0.0000000000000000e+00  1.0190042045150543e-28 -5.5616851105796831e-30 0.0000000000000000e+00  4.8384897030680089e-28 -1.2003842676773746e-28 0.0000000000000000e+00  -6.0715521847810798e-28 2.3234132106843053e-28 0.0000000000000000e+00  -2.7919018126148228e-27 9.1299315761354697e-28 0.0000000000000000e+00  1.5010023658247913e-27 -9.3558424090692619e-28 0.0000000000000000e+00  1.2975734615702020e-26 -5.3125595195587595e-27 0.0000000000000000e+00  1.8591648151211940e-26 -8.0017655237817043e-27 0.0000000000000000e+00  -6.3048028742061303e-27 -9.8600036647027912e-28 0.0000000000000000e+00  -5.7636254067214351e-26 1.4870079693788274e-26 0.0000000000000000e+00  -9.3614349245114749e-26 2.9531759640269583e-26 0.0000000000000000e+00  -9.7288554156210892e-26 4.0819925316352186e-26 0.0000000000000000e+00  -9.8648340471548645e-26 4.6880848178678522e-26 0.0000000000000000e+00  -1.7113789084822627e-25 4.6660803104698420e-26 0.0000000000000000e+00  -2.8986951938556061e-25 2.5840399592958475e-26 0.0000000000000000e+00  -3.7577443070062005e-25 -1.2160116919226481e-26 0.0000000000000000e+00  -3.5492137120887746e-25 -4.5650650083735199e-26 0.0000000000000000e+00  -2.5262574099288835e-25 -5.4867819906325733e-26 0.0000000000000000e+00  -1.5297705581810546e-25 -4.6851546327522985e-26 0.0000000000000000e+00  -9.7416430778586734e-26 -3.6536881000266154e-26 0.0000000000000000e+00  -6.4395557960923388e-26 -2.6114461922507446e-26 0.0000000000000000e+00  -2.5382283632827665e-26 -1.0309519927025570e-26 0.0000000000000000e+00  1.0234412227764451e-26 5.2748390097923755e-27 0.0000000000000000e+00  2.1888888304592573e-26 1.0585917222891744e-26 0.0000000000000000e+00  1.2057477856007664e-26 6.0804912618310949e-27 0.0000000000000000e+00  5.8016628158938226e-28 6.8805928756982876e-28 0.0000000000000000e+00  -2.2166876066836112e-27 -8.1039290976567010e-28 0.0000000000000000e+00  -5.3616069418774042e-28 -2.5085629296930528e-28 0.0000000000000000e+00  4.1971358093572655e-28 1.1218802467205988e-28 0.0000000000000000e+00  9.9623083741772768e-29 1.5048044738785895e-29 0.0000000000000000e+00  -1.0870922318570878e-28 -3.6336422356797101e-29 0.0000000000000000e+00  -1.1880108477757264e-29 4.4511852097156797e-30 0.0000000000000000e+00  2.9554143233230528e-29 1.1888227309946278e-29 0.0000000000000000e+00  -1.5269513362710655e-30 -2.7290202275544147e-30 0.0000000000000000e+00  -7.1244495109439269e-30 -3.0653398398239656e-30 0.0000000000000000e+00  1.4264018504321530e-30 9.6613296891594282e-31 0.0000000000000000e+00  1.2948285857094392e-30 5.8267196496479803e-31 0.0000000000000000e+00  -5.7310685076030696e-31 -3.0613096105688602e-31 0.0000000000000000e+00  -1.5478205148126280e-31 -7.8248212249586010e-32 0.0000000000000000e+00  1.5117421248455503e-31 7.9089845629763982e-32 0.0000000000000000e+00  -7.6935610599310948e-33 -1.1572030305375150e-33 0.0000000000000000e+00  -2.7196198969552280e-32 -1.5702520405670187e-32 0.0000000000000000e+00  8.5237887965458156e-33 3.9545478987332455e-33 0.0000000000000000e+00  2.8276285505777138e-33 2.1379435005279411e-33 0.0000000000000000e+00  -2.4043860073137230e-33 -1.3814294003487500e-33 0.0000000000000000e+00  2.0037816611551358e-34 2.7968242241142827e-36 0.0000000000000000e+00  3.4093885567117575e-34 2.4387733660133417e-34 0.0000000000000000e+00  -1.4699766149720436e-34 -8.3997350832560597e-35 0.0000000000000000e+00  -1.0581821032170398e-35 -1.4804643398756274e-35 0.0000000000000000e+00  2.9254590727951758e-35 2.0332901791080175e-35 0.0000000000000000e+00  -8.7443583971354069e-36 -5.2666186095172501e-36 0.0000000000000000e+00  -1.6382403894441069e-36 -1.2787155278014292e-36 0.0000000000000000e+00  2.0809144017206916e-36 1.3608494296543320e-36 0.0000000000000000e+00  -5.7369686139098175e-37 -3.6892838214816739e-37 0.0000000000000000e+00  -1.0724723519064890e-37 -5.4970981452854191e-38 0.0000000000000000e+00  1.4363287448265503e-37 8.1805908374799378e-38 0.0000000000000000e+00  -4.8519088857499650e-38 -2.9508841149837212e-38 0.0000000000000000e+00  -2.1336870279778101e-40 1.9597655296183217e-39 0.0000000000000000e+00  7.8910265652323347e-39 3.3712977505854045e-39 0.0000000000000000e+00  -4.1101203616816742e-39 -2.0710490124465039e-39 0.0000000000000000e+00  8.7959073360795454e-40 6.0091514273999406e-40 0.0000000000000000e+00  1.6243679298375771e-40 -2.5208021753373778e-41 0.0000000000000000e+00  -2.2942089960586570e-40 -8.0638675113204833e-41 0.0000000000000000e+00  9.0989716143818885e-41 4.0741769295043006e-41 0.0000000000000000e+00  -3.4011210007571387e-41 -2.7081107386351220e-41 0.0000000000000000e+00  7.5898337145395496e-41 3.1762564689598043e-41 0.0000000000000000e+00  7.9303895483034836e-41 7.9584462751072996e-41 0.0000000000000000e+00  -3.1446990675259894e-40 -2.6605916547739330e-40 0.0000000000000000e+00  4.3828697938110188e-39 3.2333254499836349e-39 0.0000000000000000e+00  -1.7648657543383248e-38 -1.5244500571015420e-38 0.0000000000000000e+00  6.9850565542252114e-38 6.1696951084382829e-38 0.0000000000000000e+00  -1.8985382038828236e-37 -1.6793469631552262e-37 0.0000000000000000e+00  1.3038798294380886e-36 1.2552527146372462e-36 0.0000000000000000e+00  -2.5024066286508392e-36 -2.9182474037690102e-36 0.0000000000000000e+00  2.5102337865157886e-36 5.5399009944321881e-36 0.0000000000000000e+00  2.1404137931537410e-35 1.3568620628332000e-35 0.0000000000000000e+00  -2.0370619059467646e-34 -1.8097469659878194e-34 0.0000000000000000e+00  5.6607466315009342e-34 5.4562754959120352e-34 0.0000000000000000e+00  -1.8118321618750670e-33 -1.9320738546596439e-33 0.0000000000000000e+00  3.2751484939465790e-33 2.8796692223244742e-33 0.0000000000000000e+00  2.9737341647868905e-33 2.7009098192632428e-33 0.0000000000000000e+00  -3.0049663277211521e-32 -2.2514166340821069e-32 0.0000000000000000e+00  -7.2553582490225083e-32 -1.0732914419076914e-31 0.0000000000000000e+00  1.6060449328510905e-31 3.2457373721288756e-31 0.0000000000000000e+00  -2.8391254993974528e-31 -6.4437718050133817e-31 0.0000000000000000e+00  -6.1995897388744391e-31 -1.3954532229342088e-30 0.0000000000000000e+00  3.8583984629560455e-30 8.1135146389185488e-30 0.0000000000000000e+00  3.0493985345297665e-30 8.6437006830640242e-30 0.0000000000000000e+00  -1.7187548961803350e-29 -4.6768294337266810e-29 0.0000000000000000e+00  4.6123874073618432e-31 9.4439140496240645e-30 0.0000000000000000e+00  1.9048735015818385e-29 9.7933023431605316e-29 0.0000000000000000e+00  -1.5283156611713858e-30 -3.3915608931121932e-29 0.0000000000000000e+00  2.6906063183942689e-30 -1.1396162294845961e-28 0.0000000000000000e+00  3.4841501240557563e-30 -2.8284713030573174e-29 0.0000000000000000e+00  1.0652139788129065e-30 1.8044393352588005e-28 0.0000000000000000e+00  -2.5076516360122995e-29 -2.8261809319802244e-28 0.0000000000000000e+00  4.2452315914000538e-30 1.0941193783975853e-28 0.0000000000000000e+00  -9.4700207643463565e-30 5.3566320084155814e-29 0.0000000000000000e+00  8.3822116605309843e-30 3.4304732680281266e-28 0.0000000000000000e+00  4.3655953916033989e-29 3.1705959878744335e-28 0.0000000000000000e+00  5.8312874626553694e-29 -5.5374205178330739e-28 0.0000000000000000e+00  5.7113312616828214e-29 -9.0590288109613665e-29 0.0000000000000000e+00  5.3635034955337157e-29 -1.7696072652055038e-28 0.0000000000000000e+00  7.2765712753857145e-29 -5.1052480133810826e-28 0.0000000000000000e+00  9.4889242466357876e-29 -5.6424954667903641e-28 0.0000000000000000e+00  9.4759370190249628e-29 -2.9950270720152761e-28 0.0000000000000000e+00  -5.3121746771433208e-29 5.5577863563044522e-28 0.0000000000000000e+00  -2.4224557391030050e-28 1.6733348757161317e-27 0.0000000000000000e+00  -3.6821090447488395e-29 7.4176506239038301e-28 0.0000000000000000e+00  2.8681290911497676e-28 -8.0927603944534909e-28 0.0000000000000000e+00  -1.5283960825800411e-28 1.5610103201157953e-27 0.0000000000000000e+00  -1.4507761557262686e-28 1.5587340148731672e-27 0.0000000000000000e+00  2.0216971751440564e-28 2.4819394022479775e-28 0.0000000000000000e+00  6.0245706045692697e-29 9.2314796510964505e-28 0.0000000000000000e+00  1.5103145990829951e-28 3.6387527343045002e-28 0.0000000000000000e+00  -1.0140779767235179e-28 2.1956364645613791e-27 0.0000000000000000e+00  -1.2212280096390938e-28 2.0546670353001219e-27 0.0000000000000000e+00  1.0400212527729947e-28 9.5970904061775778e-29 0.0000000000000000e+00  7.2435890037783720e-30 7.3122626967953030e-28 0.0000000000000000e+00  2.5883550099944724e-29 -6.0063611784463027e-28 0.0000000000000000e+00  -7.8396482316517846e-29 1.8630839786822014e-27 0.0000000000000000e+00  -6.2299652563246011e-29 1.2794546978525757e-27 0.0000000000000000e+00  -1.2978630123364339e-28 5.6623839022054696e-28 0.0000000000000000e+00  -8.7044182901130551e-29 7.1018489065555582e-28 0.0000000000000000e+00  -4.1708694884597765e-29 -8.0427949692146403e-28 0.0000000000000000e+00  -1.1938833262976790e-28 -2.8961637475084656e-28 0.0000000000000000e+00  -4.2726258606100189e-29 -8.7656258381522644e-28 0.0000000000000000e+00  2.6769440844322577e-29 -2.5380315742946888e-28 0.0000000000000000e+00  7.8297216995250908e-29 -6.7642717295779264e-29 0.0000000000000000e+00  -2.8679014800244956e-29 2.3468185986826822e-28 0.0000000000000000e+00  -5.4695810263632401e-29 2.4884349175562523e-28 0.0000000000000000e+00  -1.6287954027302831e-29 1.0408439116137438e-28 0.0000000000000000e+00  1.4821949300960572e-29 -1.0067871161803449e-29 0.0000000000000000e+00  1.6288243250761150e-30 -4.2117141411898007e-29 0.0000000000000000e+00  2.3175475933803624e-29 -1.8894431202651032e-28 0.0000000000000000e+00  -8.5460308599453108e-31 -1.6587745834511996e-29 0.0000000000000000e+00  -1.4770822946178197e-29 7.1211503762013972e-29 0.0000000000000000e+00  1.3774008318200081e-29 -5.7392603705645052e-29 0.0000000000000000e+00  -2.3788675231156334e-30 9.8215948294857793e-30 0.0000000000000000e+00  -6.0102464495141942e-30 2.5609031855126469e-29 0.0000000000000000e+00  2.3972381008358244e-30 -7.3491843698225176e-30 0.0000000000000000e+00  3.0284168884667937e-30 -8.4378144053167035e-30 0.0000000000000000e