<?xml version="1.0"?>
<VTKFile type="UnstructuredGrid"  version="0.1"  >
<UnstructuredGrid>
<Piece  NumberOfPoints="11902" NumberOfCells="23402">
<Points>
<DataArray  type="Float64"  NumberOfComponents="3"  format="ascii">-5 -5 0  5 -5 0  5 5 0  -5 5 0  1.043457032861113 0.0002828119446795349 0  -4.9 -5 0  -4.8 -5 0  -4.7 -5 0  -4.6 -5 0  -4.5 -5 0  -4.4 -5 0  -4.3 -5 0  -4.2 -5 0  -4.1 -5 0  -4 -5 0  -3.9 -5 0  -3.8 -5 0  -3.7 -5 0  -3.6 -5 0  -3.5 -5 0  -3.4 -5 0  -3.3 -5 0  -3.2 -5 0  -3.1 -5 0  -3 -5 0  -2.9 -5 0  -2.8 -5 0  -2.7 -5 0  -2.6 -5 0  -2.5 -5 0  -2.4 -5 0  -2.3 -5 0  -2.2 -5 0  -2.1 -5 0  -2 -5 0  -1.9 -5 0  -1.8 -5 0  -1.7 -5 0  -1.6 -5 0  -1.5 -5 0  -1.4 -5 0  -1.3 -5 0  -1.2 -5 0  -1.1 -5 0  -1 -5 0  -0.9000000000000004 -5 0  -0.7999999999999998 -5 0  -0.7000000000000002 -5 0  -0.5999999999999996 -5 0  -0.5 -5 0  -0.4000000000000004 -5 0  -0.2999999999999998 -5 0  -0.2000000000000002 -5 0  -0.09999999999999964 -5 0  0 -5 0  0.09999999999999964 -5 0  0.2000000000000002 -5 0  0.2999999999999998 -5 0  0.4000000000000004 -5 0  0.5 -5 0  0.5999999999999996 -5 0  0.7000000000000002 -5 0  0.7999999999999998 -5 0  0.9000000000000004 -5 0  1 -5 0  1.1 -5 0  1.2 -5 0  1.3 -5 0  1.4 -5 0  1.5 -5 0  1.6 -5 0  1.7 -5 0  1.8 -5 0  1.9 -5 0  2 -5 0  2.1 -5 0  2.2 -5 0  2.3 -5 0  2.4 -5 0  2.5 -5 0  2.6 -5 0  2.7 -5 0  2.8 -5 0  2.9 -5 0  3 -5 0  3.1 -5 0  3.199999999999999 -5 0  3.300000000000001 -5 0  3.4 -5 0  3.5 -5 0  3.6 -5 0  3.699999999999999 -5 0  3.800000000000001 -5 0  3.9 -5 0  4 -5 0  4.1 -5 0  4.199999999999999 -5 0  4.300000000000001 -5 0  4.4 -5 0  4.5 -5 0  4.6 -5 0  4.699999999999999 -5 0  4.800000000000001 -5 0  4.9 -5 0  5 -4.9 0  5 -4.8 0  5 -4.7 0  5 -4.6 0  5 -4.5 0  5 -4.4 0  5 -4.3 0  5 -4.2 0  5 -4.1 0  5 -4 0  5 -3.9 0  5 -3.8 0  5 -3.7 0  5 -3.6 0  5 -3.5 0  5 -3.4 0  5 -3.3 0  5 -3.2 0  5 -3.1 0  5 -3 0  5 -2.9 0  5 -2.8 0  5 -2.7 0  5 -2.6 0  5 -2.5 0  5 -2.4 0  5 -2.3 0  5 -2.2 0  5 -2.1 0  5 -2 0  5 -1.9 0  5 -1.8 0  5 -1.7 0  5 -1.6 0  5 -1.5 0  5 -1.4 0  5 -1.3 0  5 -1.2 0  5 -1.1 0  5 -1 0  5 -0.9000000000000004 0  5 -0.7999999999999998 0  5 -0.7000000000000002 0  5 -0.5999999999999996 0  5 -0.5 0  5 -0.4000000000000004 0  5 -0.2999999999999998 0  5 -0.2000000000000002 0  5 -0.09999999999999964 0  5 0 0  5 0.09999999999999964 0  5 0.2000000000000002 0  5 0.2999999999999998 0  5 0.4000000000000004 0  5 0.5 0  5 0.5999999999999996 0  5 0.7000000000000002 0  5 0.7999999999999998 0  5 0.9000000000000004 0  5 1 0  5 1.1 0  5 1.2 0  5 1.3 0  5 1.4 0  5 1.5 0  5 1.6 0  5 1.7 0  5 1.8 0  5 1.9 0  5 2 0  5 2.1 0  5 2.2 0  5 2.3 0  5 2.4 0  5 2.5 0  5 2.6 0  5 2.7 0  5 2.8 0  5 2.9 0  5 3 0  5 3.1 0  5 3.199999999999999 0  5 3.300000000000001 0  5 3.4 0  5 3.5 0  5 3.6 0  5 3.699999999999999 0  5 3.800000000000001 0  5 3.9 0  5 4 0  5 4.1 0  5 4.199999999999999 0  5 4.300000000000001 0  5 4.4 0  5 4.5 0  5 4.6 0  5 4.699999999999999 0  5 4.800000000000001 0  5 4.9 0  4.9 5 0  4.8 5 0  4.7 5 0  4.6 5 0  4.5 5 0  4.4 5 0  4.3 5 0  4.2 5 0  4.1 5 0  4 5 0  3.9 5 0  3.8 5 0  3.7 5 0  3.6 5 0  3.5 5 0  3.4 5 0  3.3 5 0  3.2 5 0  3.1 5 0  3 5 0  2.9 5 0  2.8 5 0  2.7 5 0  2.6 5 0  2.5 5 0  2.4 5 0  2.3 5 0  2.2 5 0  2.1 5 0  2 5 0  1.9 5 0  1.8 5 0  1.7 5 0  1.6 5 0  1.5 5 0  1.4 5 0  1.3 5 0  1.2 5 0  1.1 5 0  1 5 0  0.9000000000000004 5 0  0.7999999999999998 5 0  0.7000000000000002 5 0  0.5999999999999996 5 0  0.5 5 0  0.4000000000000004 5 0  0.2999999999999998 5 0  0.2000000000000002 5 0  0.09999999999999964 5 0  0 5 0  -0.09999999999999964 5 0  -0.2000000000000002 5 0  -0.2999999999999998 5 0  -0.4000000000000004 5 0  -0.5 5 0  -0.5999999999999996 5 0  -0.7000000000000002 5 0  -0.7999999999999998 5 0  -0.9000000000000004 5 0  -1 5 0  -1.1 5 0  -1.2 5 0  -1.3 5 0  -1.4 5 0  -1.5 5 0  -1.6 5 0  -1.7 5 0  -1.8 5 0  -1.9 5 0  -2 5 0  -2.1 5 0  -2.2 5 0  -2.3 5 0  -2.4 5 0  -2.5 5 0  -2.6 5 0  -2.7 5 0  -2.8 5 0  -2.9 5 0  -3 5 0  -3.1 5 0  -3.199999999999999 5 0  -3.300000000000001 5 0  -3.4 5 0  -3.5 5 0  -3.6 5 0  -3.699999999999999 5 0  -3.800000000000001 5 0  -3.9 5 0  -4 5 0  -4.1 5 0  -4.199999999999999 5 0  -4.300000000000001 5 0  -4.4 5 0  -4.5 5 0  -4.6 5 0  -4.699999999999999 5 0  -4.800000000000001 5 0  -4.9 5 0  -5 4.9 0  -5 4.8 0  -5 4.7 0  -5 4.6 0  -5 4.5 0  -5 4.4 0  -5 4.3 0  -5 4.2 0  -5 4.1 0  -5 4 0  -5 3.9 0  -5 3.8 0  -5 3.7 0  -5 3.6 0  -5 3.5 0  -5 3.4 0  -5 3.3 0  -5 3.2 0  -5 3.1 0  -5 3 0  -5 2.9 0  -5 2.8 0  -5 2.7 0  -5 2.6 0  -5 2.5 0  -5 2.4 0  -5 2.3 0  -5 2.2 0  -5 2.1 0  -5 2 0  -5 1.9 0  -5 1.8 0  -5 1.7 0  -5 1.6 0  -5 1.5 0  -5 1.4 0  -5 1.3 0  -5 1.2 0  -5 1.1 0  -5 1 0  -5 0.9000000000000004 0  -5 0.7999999999999998 0  -5 0.7000000000000002 0  -5 0.5999999999999996 0  -5 0.5 0  -5 0.4000000000000004 0  -5 0.2999999999999998 0  -5 0.2000000000000002 0  -5 0.09999999999999964 0  -5 0 0  -5 -0.09999999999999964 0  -5 -0.2000000000000002 0  -5 -0.2999999999999998 0  -5 -0.4000000000000004 0  -5 -0.5 0  -5 -0.5999999999999996 0  -5 -0.7000000000000002 0  -5 -0.7999999999999998 0  -5 -0.9000000000000004 0  -5 -1 0  -5 -1.1 0  -5 -1.2 0  -5 -1.3 0  -5 -1.4 0  -5 -1.5 0  -5 -1.6 0  -5 -1.7 0  -5 -1.8 0  -5 -1.9 0  -5 -2 0  -5 -2.1 0  -5 -2.2 0  -5 -2.3 0  -5 -2.4 0  -5 -2.5 0  -5 -2.6 0  -5 -2.7 0  -5 -2.8 0  -5 -2.9 0  -5 -3 0  -5 -3.1 0  -5 -3.199999999999999 0  -5 -3.300000000000001 0  -5 -3.4 0  -5 -3.5 0  -5 -3.6 0  -5 -3.699999999999999 0  -5 -3.800000000000001 0  -5 -3.9 0  -5 -4 0  -5 -4.1 0  -5 -4.199999999999999 0  -5 -4.300000000000001 0  -5 -4.4 0  -5 -4.5 0  -5 -4.6 0  -5 -4.699999999999999 0  -5 -4.800000000000001 0  -5 -4.9 0  1.038326723436807 0.1001229340115526 0  1.022761688390864 0.1992107632568817 0  0.9967318158615821 0.2964484137315027 0  0.9613206212437994 0.390321503337029 0  0.9162758409938422 0.4807813485357334 0  0.8622891296269892 0.5663023855145862 0  0.7995132593108705 0.6460193873709782 0  0.7284766661563041 0.7192683607093147 0  0.6505485907361238 0.7855427594098752 0  0.5661752305102239 0.8441292691857697 0  0.4760070650931359 0.8940812659036479 0  0.381006718661722 0.9352258528191241 0  0.2827190427727744 0.9672580018349963 0  0.1812654587468653 0.9893604617195217 0  0.07826834605046799 1.001882739409486 0  -0.02565377355484143 1.004407952994532 0  -0.129337363676117 0.9967841493850853 0  -0.2317451658770041 0.9796086040111006 0  -0.3318036547896904 0.9526048601624323 0  -0.4285225780454713 0.9159645658851754 0  -0.5209222805643882 0.8704447263388432 0  -0.6082145061212733 0.8161178370368569 0  -0.6894789544932454 0.7537634333251797 0  -0.7639000759098369 0.6840104879927369 0  -0.8307988725881399 0.6070862362276038 0  -0.8892785142366963 0.5242077268649786 0  -0.9392052052719846 0.4363300348947782 0  -0.9795524857515597 0.3439142740839719 0  -1.010086521656034 0.2482220035692579 0  -1.030746000226519 0.1500882347272883 0  -1.041184114197997 0.05032128316805466 0  -1.041194196007759 -0.04997446052268889 0  -1.030769435253776 -0.1496906128634276 0  -1.010636175877518 -0.2477915223540049 0  -0.9795560391852197 -0.3436530622393181 0  -0.9392842904827399 -0.4358680354003288 0  -0.8894464539983963 -0.5238306568001987 0  -0.8309884989566522 -0.6065939931772528 0  -0.7640667797062486 -0.683287452584409 0  -0.6894647218102247 -0.7529878819704262 0  -0.608011481204655 -0.8151234108515584 0  -0.5210564167938334 -0.8696856778602661 0  -0.4281554621960516 -0.9151746028795748 0  -0.3313984739220744 -0.9519460994872824 0  -0.2312313678815782 -0.9790357931543152 0  -0.1289043045978633 -0.9963751747111115 0  -0.02535646821808483 -1.004235186898186 0  0.07836055157857028 -1.001576764221235 0  0.1816100332109787 -0.9889228462763586 0  0.2828354662416765 -0.9667621583569009 0  0.3816204663365138 -0.9347461041784033 0  0.4761879999883004 -0.8936239129973893 0  0.5663440617641856 -0.8436907954060158 0  0.6506704509339041 -0.7856138746702643 0  0.7285840539473357 -0.7193646500386283 0  0.7993804388486432 -0.6458379688193739 0  0.862058700656457 -0.5659487479923511 0  0.9164103892100979 -0.480550175038319 0  0.9617917342643209 -0.3903274233544357 0  0.9971117089821121 -0.2963047480889631 0  1.022789290475756 -0.1990332140987938 0  1.038356308206233 -0.1000507298130524 0  -2.449662528274861 4.9201519629879 0  -2.449634241161575 -4.912714470651063 0  4.91269114176973 2.449495059655326 0  4.920607439889591 -2.450811537107246 0  2.447559987682561 -4.898334237728386 0  2.441948199419719 4.902011872093555 0  -4.912699347609179 -2.449503885707481 0  -4.912702377252576 2.449507443950527 0  -1.749650694222655 4.913930312851528 0  -1.745387756602794 -4.91725410445928 0  4.92346151173824 1.745515694060133 0  4.912395964584029 -1.74948851284238 0  -4.912654068241063 -1.749198014619379 0  -4.91345363125982 1.748925536441482 0  1.746993589502023 4.908004285529334 0  1.748551434479269 -4.896532552947635 0  -1.149728248468866 4.91232300624879 0  -1.130494756888031 -4.919937093933674 0  -4.913173791819312 -1.149235705395154 0  -4.913005402903243 1.149034114479607 0  1.14466465591417 -4.916271373062763 0  1.14972739101093 4.912320131443552 0  4.913347098739643 1.147521319893122 0  4.923690677704953 -1.153151321967264 0  -0.5471300700761363 -4.91380986113407 0  -0.5468680574101937 4.922140036977133 0  -4.912550354278595 -0.54943493117724 0  -4.912576925156793 0.5479844580896477 0  4.911947155731481 -0.549767311685107 0  4.923016754804203 0.5464252367266925 0  0.5429560416512426 -4.901250240155232 0  0.551604183839988 4.919099823604841 0  -4.913397161352486 -3.04958884440313 0  4.919868138296317 3.0475219360158 0  4.912922104317277 -3.04958573449568 0  -4.914237968722666 3.046670037841048 0  3.0562717490276 -4.918865366045092 0  -3.049675223205834 -4.912902913775349 0  3.053220617561836 4.914954383286251 0  -3.049114797911812 4.913780736162464 0  -4.911899429964325 -0.04998028555033853 0  0.04514807145527416 -4.91578760953901 0  0.04959932256105071 4.922520883512963 0  4.918627924670665 -0.05135780078437203 0  3.54638992267255 -4.920066154484984 0  -3.549737907228181
[...]
<PointData  Vectors="f_514"> 
<DataArray  type="Float64"  Name="f_514"  NumberOfComponents="3" format="ascii">-1.6329376361476444e-40 -1.6743200119720931e-40 0.0000000000000000e+00  2.1654114817201662e-40 -2.1668614577282853e-40 0.0000000000000000e+00  -2.4909433715267692e-40 -2.5575068311501168e-40 0.0000000000000000e+00  -3.1769219912410764e-40 3.3813429639491314e-40 0.0000000000000000e+00  1.2259755878354808e+01 -7.1165713776341288e-01 0.0000000000000000e+00  3.6108544420716928e-40 3.7109775012814962e-40 0.0000000000000000e+00  8.1481119980746375e-40 9.2822614624515551e-40 0.0000000000000000e+00  -1.8112959081163786e-39 -2.1651923533626124e-39 0.0000000000000000e+00  1.8657816302670524e-38 2.1011334033437840e-38 0.0000000000000000e+00  -6.0211039839293431e-38 -6.5413434158812482e-38 0.0000000000000000e+00  2.3539204823841813e-37 2.4837524271399250e-37 0.0000000000000000e+00  -8.6747594403782580e-37 -9.3009498511656671e-37 0.0000000000000000e+00  5.0568764789358888e-36 6.1035917939792258e-36 0.0000000000000000e+00  -3.0357079430111102e-35 -3.9478321561891348e-35 0.0000000000000000e+00  1.2203711108024735e-34 1.6128809593197458e-34 0.0000000000000000e+00  -2.5456269167434383e-34 -3.5369703664781791e-34 0.0000000000000000e+00  4.8515293620142451e-34 7.1116458471971759e-34 0.0000000000000000e+00  1.7754255605241077e-33 2.6554737947924717e-33 0.0000000000000000e+00  -8.1735973962552495e-33 -1.2175382750299529e-32 0.0000000000000000e+00  2.4106344598635632e-32 3.6249483558978339e-32 0.0000000000000000e+00  -1.3436050011728967e-31 -2.0923693657718978e-31 0.0000000000000000e+00  3.5240216415373770e-31 5.5315230329444477e-31 0.0000000000000000e+00  1.8733122491138445e-31 3.6417073273351907e-31 0.0000000000000000e+00  -1.5964797841286285e-30 -2.9365435501664115e-30 0.0000000000000000e+00  -8.5317319972984213e-31 -1.3221074237669447e-30 0.0000000000000000e+00  -2.2330468395896744e-30 -3.5153416117671374e-30 0.0000000000000000e+00  5.4526537944448904e-30 9.6445287139852903e-30 0.0000000000000000e+00  -1.4402257049670414e-29 -2.1597580692340283e-29 0.0000000000000000e+00  4.6441942516878924e-29 7.9554975769102920e-29 0.0000000000000000e+00  2.8345711687396506e-29 5.2020508184381367e-29 0.0000000000000000e+00  -2.3041371662777550e-28 -4.4363646726828273e-28 0.0000000000000000e+00  -7.3383786204799490e-29 -1.4862821658959831e-28 0.0000000000000000e+00  -1.1674894724512909e-28 -2.2303171071819307e-28 0.0000000000000000e+00  2.1625944695577050e-28 4.3934785920638722e-28 0.0000000000000000e+00  6.6309735274284690e-28 1.4381264460992273e-27 0.0000000000000000e+00  -9.0504914659426071e-29 -1.2653194891050413e-28 0.0000000000000000e+00  1.1987627838609669e-28 3.7178536957234652e-28 0.0000000000000000e+00  -1.1302104676413286e-28 -2.5643858794877984e-28 0.0000000000000000e+00  -4.5104941423670127e-28 -1.3310802343667507e-27 0.0000000000000000e+00  -4.0814057356725157e-28 -1.3463762880282342e-27 0.0000000000000000e+00  -4.2865483322598472e-29 -1.9721715332111145e-28 0.0000000000000000e+00  4.4695033791104759e-28 1.6183269203448923e-27 0.0000000000000000e+00  2.3345284101876238e-28 9.9473801944656311e-28 0.0000000000000000e+00  -6.8550493352696506e-29 -1.9813986280774831e-28 0.0000000000000000e+00  6.8600507175416160e-29 4.0413312675676371e-28 0.0000000000000000e+00  3.8991615596634680e-28 1.1189922949086651e-27 0.0000000000000000e+00  4.7715838615863453e-28 1.8646661671710817e-27 0.0000000000000000e+00  -2.6079423334973048e-28 -1.0394253882110038e-27 0.0000000000000000e+00  9.4640685615927993e-28 6.0262086317787416e-27 0.0000000000000000e+00  2.9965076568156918e-29 -5.4993007761395355e-29 0.0000000000000000e+00  -4.1823665612237008e-28 -5.2757275395690013e-27 0.0000000000000000e+00  -3.2533364740882427e-29 -3.1371546224381416e-27 0.0000000000000000e+00  -1.4842304841387656e-28 -4.4573006292243765e-27 0.0000000000000000e+00  -4.3655039686204563e-28 -1.0943868108789683e-26 0.0000000000000000e+00  -2.5610349627642777e-28 -1.2540739349408721e-26 0.0000000000000000e+00  2.0905196880101342e-29 -2.1846044976850610e-27 0.0000000000000000e+00  1.8662788809261207e-28 -6.9368792526531482e-27 0.0000000000000000e+00  2.3033542973479247e-28 -2.5948094037319241e-27 0.0000000000000000e+00  4.6156069193560934e-28 -4.5405831969072770e-27 0.0000000000000000e+00  -2.6030186207840743e-28 1.9145965199851237e-27 0.0000000000000000e+00  7.7461647351659242e-28 -6.1636499475041121e-27 0.0000000000000000e+00  8.4181629832001979e-28 -5.5825538483786672e-27 0.0000000000000000e+00  -1.9693132663609144e-28 1.0493466402391740e-27 0.0000000000000000e+00  -1.7490933128416572e-27 8.0693527206847854e-27 0.0000000000000000e+00  -7.6215246736153710e-28 3.1947433675646198e-27 0.0000000000000000e+00  -3.9179978766148274e-28 1.9343693076709572e-27 0.0000000000000000e+00  -1.2317822909280002e-27 4.5970548454110087e-27 0.0000000000000000e+00  -7.2967456639980600e-28 2.4250326286635662e-27 0.0000000000000000e+00  8.6537846572478892e-28 -2.6670661980917845e-27 0.0000000000000000e+00  4.1461425745981881e-28 -1.2483725042852897e-27 0.0000000000000000e+00  8.7966973578905511e-29 -3.0397874289787941e-28 0.0000000000000000e+00  3.2126724444056895e-28 -9.6875104070814568e-28 0.0000000000000000e+00  3.0369348759855550e-28 -7.5935266813515995e-28 0.0000000000000000e+00  -2.5564325754412665e-28 6.1758957502830523e-28 0.0000000000000000e+00  -2.2384605555212905e-28 4.9022065108825040e-28 0.0000000000000000e+00  -1.5786053766561095e-28 3.3306017959942531e-28 0.0000000000000000e+00  1.6546570626249584e-29 -3.6665676953250152e-29 0.0000000000000000e+00  1.1525809834492020e-28 -2.3261209507523044e-28 0.0000000000000000e+00  1.6225196233657671e-28 -3.0176833381624940e-28 0.0000000000000000e+00  -4.7916574765898883e-30 1.5583666691089205e-29 0.0000000000000000e+00  -1.0985631360371223e-28 1.9305255983058848e-28 0.0000000000000000e+00  1.7936070776994676e-29 -3.2064727339724652e-29 0.0000000000000000e+00  6.0063041165298807e-30 -9.4335770909782400e-30 0.0000000000000000e+00  -1.4863291587491495e-29 2.5827453660346304e-29 0.0000000000000000e+00  -9.9855875397323156e-31 1.7549116788241797e-30 0.0000000000000000e+00  1.6224192472093615e-30 -2.7499191044288001e-30 0.0000000000000000e+00  -8.4672222624334910e-31 1.4113127459576863e-30 0.0000000000000000e+00  1.0540969457244480e-31 -1.7193250380122268e-31 0.0000000000000000e+00  -1.2969370623451103e-32 1.9890035771607895e-32 0.0000000000000000e+00  -2.9659828567804147e-34 7.1246652449674565e-34 0.0000000000000000e+00  6.8793752343769360e-33 -1.0491285779297337e-32 0.0000000000000000e+00  4.1848986052885566e-34 -5.3086115083545755e-34 0.0000000000000000e+00  -4.7110847645435922e-34 6.6986071533792970e-34 0.0000000000000000e+00  5.2932109939817759e-35 -8.0504668856454964e-35 0.0000000000000000e+00  -2.1801403444205782e-35 2.9193227761867756e-35 0.0000000000000000e+00  4.8716238337443843e-36 -6.2987023459689669e-36 0.0000000000000000e+00  -1.5045178872569892e-36 1.9204107251902560e-36 0.0000000000000000e+00  4.9977280652649724e-37 -6.0401262198718934e-37 0.0000000000000000e+00  -2.4883136974266097e-37 2.9764672488241917e-37 0.0000000000000000e+00  8.4275060335148019e-38 -9.9704940611967084e-38 0.0000000000000000e+00  -1.7704733085663415e-38 2.0214991100876392e-38 0.0000000000000000e+00  7.2085266486590409e-39 -8.0673847305341844e-39 0.0000000000000000e+00  -4.1009925849485645e-40 4.8781692808507130e-40 0.0000000000000000e+00  -3.6854208636129050e-40 3.7481083485712002e-40 0.0000000000000000e+00  -1.6626309634647500e-41 9.1297324263568088e-42 0.0000000000000000e+00  3.9063106201298132e-40 -4.0024973965647167e-40 0.0000000000000000e+00  -9.1413617403083987e-40 8.9107022271580133e-40 0.0000000000000000e+00  3.6709177793615401e-39 -3.4181807992077310e-39 0.0000000000000000e+00  -2.7167397653226533e-39 2.3621108120346576e-39 0.0000000000000000e+00  -1.5295884897739461e-38 1.3887026987637013e-38 0.0000000000000000e+00  6.3542116514767137e-38 -5.5390652049191626e-38 0.0000000000000000e+00  -9.1867930953574157e-38 7.7123947231101899e-38 0.0000000000000000e+00  -1.3491353730246111e-37 1.1409702766605966e-37 0.0000000000000000e+00  9.5963024787573320e-37 -7.7612273547944391e-37 0.0000000000000000e+00  -1.7520767025856523e-36 1.3766314478338739e-36 0.0000000000000000e+00  -1.2183643651960591e-36 9.2957765159364607e-37 0.0000000000000000e+00  1.3204866572801136e-35 -9.8208577597554158e-36 0.0000000000000000e+00  -2.6485328807249630e-35 1.9141805158728017e-35 0.0000000000000000e+00  -1.6329847629888823e-35 1.1130612224243060e-35 0.0000000000000000e+00  1.9175160165414009e-34 -1.2969313712495471e-34 0.0000000000000000e+00  -3.1794540708895867e-34 2.1195660858955785e-34 0.0000000000000000e+00  -3.9673851276873994e-34 2.4490562905785900e-34 0.0000000000000000e+00  2.6096929741684271e-33 -1.5955914378351847e-33 0.0000000000000000e+00  -2.6940320034260362e-33 1.6461262223759347e-33 0.0000000000000000e+00  -9.2337479163154819e-33 5.1351320960183980e-33 0.0000000000000000e+00  3.0047488146573393e-32 -1.6673370855851187e-32 0.0000000000000000e+00  1.2374727254236301e-33 4.9658951875829815e-34 0.0000000000000000e+00  -1.6041550688775189e-31 7.9899187952795073e-32 0.0000000000000000e+00  2.1911018355732635e-31 -1.0982834134831737e-31 0.0000000000000000e+00  5.2380357161870502e-31 -2.2845046261392821e-31 0.0000000000000000e+00  -1.5979402711317678e-30 7.1143416946735236e-31 0.0000000000000000e+00  -8.4650570898847944e-31 2.7696904147261915e-31 0.0000000000000000e+00  8.3504042468088431e-30 -3.2943252104797837e-30 0.0000000000000000e+00  -2.6710019169492725e-30 1.3964592055846362e-30 0.0000000000000000e+00  -3.6178169337031179e-29 1.2438271937015233e-29 0.0000000000000000e+00  3.0252858843636623e-29 -1.1794269692360490e-29 0.0000000000000000e+00  1.4477653109715557e-28 -4.2982160441528625e-29 0.0000000000000000e+00  -1.6301390024292327e-28 5.5008716757313833e-29 0.0000000000000000e+00  -5.9289190809868469e-28 1.5055233194379151e-28 0.0000000000000000e+00  6.1722579093910383e-28 -1.9627731398785175e-28 0.0000000000000000e+00  2.4373248331093236e-27 -5.3065466412296006e-28 0.0000000000000000e+00  -1.7934883394995097e-27 5.4420489556015949e-28 0.0000000000000000e+00  -9.2739331995117490e-27 1.7259616226337520e-27 0.0000000000000000e+00  2.0918137415824461e-27 -8.9333946943200572e-28 0.0000000000000000e+00  2.8449650878219792e-26 -4.6910734445227745e-27 0.0000000000000000e+00  1.4165112662963842e-26 -8.6255787652836797e-28 0.0000000000000000e+00  -8.0843200819629083e-26 1.1810449543429661e-26 0.0000000000000000e+00  -1.2246650248237910e-25 1.3927456454417901e-26 0.0000000000000000e+00  1.4390876406054559e-25 -1.0787608556947610e-26 0.0000000000000000e+00  8.2830510703774988e-25 -3.9590964569596574e-26 0.0000000000000000e+00  1.5138140319001993e-24 -3.3359069997267638e-26 0.0000000000000000e+00  1.8483350740491226e-24 -4.0703096644500028e-27 0.0000000000000000e+00  1.8087769964695080e-24 8.9734835956439564e-27 0.0000000000000000e+00  1.8351023769794554e-24 -4.9887855452465267e-27 0.0000000000000000e+00  1.9763127383512263e-24 -8.2237991932009772e-27 0.0000000000000000e+00  1.8394446639379780e-24 1.6365078640660437e-26 0.0000000000000000e+00  1.2024211049107873e-24 3.6379947728676718e-26 0.0000000000000000e+00  3.4745314657991472e-25 2.2626799056890927e-26 0.0000000000000000e+00  -1.7334731708794785e-25 -7.5026819691433915e-27 0.0000000000000000e+00  -2.1962814746188016e-25 -1.9427027574033987e-26 0.0000000000000000e+00  -3.9316943419502865e-26 -6.4233581321801640e-27 0.0000000000000000e+00  6.0126878614821098e-26 6.4172891415510779e-27 0.0000000000000000e+00  3.6792455197072002e-26 5.5140110009308353e-27 0.0000000000000000e+00  -5.1996788034928985e-27 -6.0973880661714265e-28 0.0000000000000000e+00  -1.0873914144337794e-26 -2.0355124354724820e-27 0.0000000000000000e+00  -8.1836257793896264e-28 -2.2801792285615210e-28 0.0000000000000000e+00  2.6750919649755635e-27 6.0577637333926069e-28 0.0000000000000000e+00  4.0918793430898351e-28 1.1613756433576181e-28 0.0000000000000000e+00  -6.2919075600833932e-28 -1.6979852791107913e-28 0.0000000000000000e+00  -9.2938946929030889e-29 -3.1064282500462356e-29 0.0000000000000000e+00  1.4623252725161620e-28 4.6777775648056356e-29 0.0000000000000000e+00  7.9374576683770776e-30 3.8453164978969438e-30 0.0000000000000000e+00  -3.2953039126893837e-29 -1.2171970924956150e-29 0.0000000000000000e+00  2.5503189337155352e-30 7.2133359274720764e-31 0.0000000000000000e+00  6.3385766063857872e-30 2.7083752208661678e-30 0.0000000000000000e+00  -1.8112548721252525e-30 -7.2257212097411913e-31 0.0000000000000000e+00  -9.4613897354152358e-31 -4.6116682637465265e-31 0.0000000000000000e+00  5.9836052688956457e-31 2.7869119561848213e-31 0.0000000000000000e+00  3.6008209245368060e-32 2.6405886303520832e-32 0.0000000000000000e+00  -1.3330081606940812e-31 -6.9005828416410020e-32 0.0000000000000000e+00  2.9747431814776894e-32 1.4164290675833326e-32 0.0000000000000000e+00  1.9266381804467246e-32 1.1202111473027882e-32 0.0000000000000000e+00  -1.2294495587288061e-32 -6.8800210738041007e-33 0.0000000000000000e+00  1.7927623245893859e-34 -3.9221103950073669e-35 0.0000000000000000e+00  2.2204792466920213e-33 1.3906094519751741e-33 0.0000000000000000e+00  -8.4409840580959224e-34 -5.1551843446077607e-34 0.0000000000000000e+00  -1.1714596723285170e-34 -8.7289668407884379e-35 0.0000000000000000e+00  2.0333878032274827e-34 1.3732402095660175e-34 0.0000000000000000e+00  -5.7441154018682200e-35 -3.8665096392629902e-35 0.0000000000000000e+00  -1.3280955914674515e-35 -9.9530394953123122e-36 0.0000000000000000e+00  1.5113241945203003e-35 1.1091325298006734e-35 0.0000000000000000e+00  -3.9426403058198412e-36 -2.9103345839506676e-36 0.0000000000000000e+00  -9.3338974331960999e-37 -7.4106296107097547e-37 0.0000000000000000e+00  1.0631137015818275e-36 8.4359939483365181e-37 0.0000000000000000e+00  -3.0724255997673023e-37 -2.4914039440938318e-37 0.0000000000000000e+00  -3.8399464618788920e-38 -3.1867641005365168e-38 0.0000000000000000e+00  6.7011324875745677e-38 5.7217770351841568e-38 0.0000000000000000e+00  -2.5445601450412903e-38 -2.2325309856920603e-38 0.0000000000000000e+00  8.6476992373911108e-40 8.5391569628887267e-40 0.0000000000000000e+00  3.6002928421045686e-39 3.2569083380027568e-39 0.0000000000000000e+00  -1.8721663048747898e-39 -1.7476075347562732e-39 0.0000000000000000e+00  4.0159949596748523e-40 3.8854778305341956e-40 0.0000000000000000e+00  1.9636800438708553e-40 1.8639753763483103e-40 0.0000000000000000e+00  3.6765132087791350e-40 4.0173442519800067e-40 0.0000000000000000e+00  -1.0879228056751581e-39 -1.1536114950676057e-39 0.0000000000000000e+00  2.1253016936950544e-39 2.3258269777741019e-39 0.0000000000000000e+00  -1.4350857288648634e-38 -1.5603513566291263e-38 0.0000000000000000e+00  1.0164995623703442e-37 1.1352498412797491e-37 0.0000000000000000e+00  -2.2879791210149799e-37 -2.6499997000094727e-37 0.0000000000000000e+00  2.5709022782957283e-37 3.1114922283191712e-37 0.0000000000000000e+00  -4.2014529769776300e-36 -5.1198687277042291e-36 0.0000000000000000e+00  1.3704344578309943e-35 1.6548220074700691e-35 0.0000000000000000e+00  -6.0784420660635742e-35 -7.4086090439721534e-35 0.0000000000000000e+00  1.3657866462744475e-34 1.7456454371247025e-34 0.0000000000000000e+00  -2.9716607994050104e-34 -3.9783320509182892e-34 0.0000000000000000e+00  1.4730810313091525e-33 2.0036758329478900e-33 0.0000000000000000e+00  -1.2093925942690966e-33 -1.6755910013095702e-33 0.0000000000000000e+00  6.1408616196958170e-33 8.0389314746472310e-33 0.0000000000000000e+00  4.3647165587702814e-32 6.9457660908806375e-32 0.0000000000000000e+00  -2.0837657825463946e-31 -3.2263286279885430e-31 0.0000000000000000e+00  -5.5999681973171144e-31 -9.5003813662841445e-31 0.0000000000000000e+00  1.0547531006964078e-30 1.8400249327861609e-30 0.0000000000000000e+00  -6.8174523108087556e-32 -1.2010676074764869e-31 0.0000000000000000e+00  -3.2903040031414564e-30 -5.6182422726182334e-30 0.0000000000000000e+00  9.6979288090647614e-30 1.5544641292589440e-29 0.0000000000000000e+00  1.4718714432770431e-29 2.6937304012461646e-29 0.0000000000000000e+00  -9.6938137361548916e-29 -1.7523270419176615e-28 0.0000000000000000e+00  3.1363990628782890e-29 5.9528080287970038e-29 0.0000000000000000e+00  9.5396975032779974e-29 2.0599083440280234e-28 0.0000000000000000e+00  4.2805334281031225e-29 7.4026863323235634e-29 0.0000000000000000e+00  3.5973454569147827e-28 7.0089583051222540e-28 0.0000000000000000e+00  1.5134444074948413e-28 3.4014158637696960e-28 0.0000000000000000e+00  -4.5019745285064302e-28 -9.1205993409158254e-28 0.0000000000000000e+00  -3.8487577949207624e-28 -1.0057542085831774e-27 0.0000000000000000e+00  4.2063861367408586e-28 9.7832268101128893e-28 0.0000000000000000e+00  7.7456470084303091e-28 1.9122142668605547e-27 0.0000000000000000e+00  3.9179319496929326e-28 1.1545356975536990e-27 0.0000000000000000e+00  4.5039158684855568e-29 3.9536591068159402e-28 0.0000000000000000e+00  -8.9800157128398878e-28 -2.6242577006896688e-27 0.0000000000000000e+00  -3.4689847619406582e-28 -9.5049455913244346e-28 0.0000000000000000e+00  -1.7763019716311481e-28 -4.8013663437603258e-28 0.0000000000000000e+00  -4.5263517258993658e-28 -1.7134343431685865e-27 0.0000000000000000e+00  -4.1434101382345156e-28 -1.6827104842982560e-27 0.0000000000000000e+00  -3.3619565332134135e-28 -1.9762949232095635e-27 0.0000000000000000e+00  1.0359455489568655e-28 -1.0767433487585934e-28 0.0000000000000000e+00  4.9889112048348407e-28 2.5204358221204496e-27 0.0000000000000000e+00  8.5771940698591075e-29 3.4491732875712254e-28 0.0000000000000000e+00  -3.2604391111637706e-28 -2.7429530649223783e-27 0.0000000000000000e+00  2.2101993888289005e-28 1.6943866324825255e-27 0.0000000000000000e+00  1.3808505084585126e-28 1.5472670182377921e-27 0.0000000000000000e+00  -8.6968162081071623e-29 -1.4206792956911087e-27 0.0000000000000000e+00  -1.0518720444798841e-29 -3.9976989781787573e-29 0.0000000000000000e+00  -4.4579320116960842e-29 -1.4708064272214229e-27 0.0000000000000000e+00  -3.1288070517447102e-29 2.8608147015034762e-27 0.0000000000000000e+00  -1.2984708924158841e-28 2.6854166260953673e-27 0.0000000000000000e+00  1.6610044662091535e-29 -1.7252279217422360e-27 0.0000000000000000e+00  -6.6178800306815637e-29 -7.3716484966350241e-29 0.0000000000000000e+00  2.2503440905239693e-28 -2.4676096773780661e-27 0.0000000000000000e+00  -3.8809873792512464e-28 2.0424734499934628e-27 0.0000000000000000e+00  -2.5463973912823571e-28 9.9839491577753977e-28 0.0000000000000000e+00  -3.1307636040337655e-29 -6.2842558924157198e-28 0.0000000000000000e+00  -9.7908136154164624e-29 -9.8870810749720551e-29 0.0000000000000000e+00  6.1673616427692505e-28 -2.9172740259737827e-27 0.0000000000000000e+00  7.2826192217815704e-28 -3.3714742292456422e-27 0.0000000000000000e+00  1.2864149410993525e-27 -4.7495476608902405e-27 0.0000000000000000e+00  4.3093969682696356e-28 -1.3255728473238258e-27 0.0000000000000000e+00  -3.0174502686686453e-28 1.1701431656336748e-27 0.0000000000000000e+00  -8.4885143459241993e-28 2.4882343924393566e-27 0.0000000000000000e+00  -1.0175351179520321e-27 2.7320119246115702e-27 0.0000000000000000e+00  -3.0751148869421643e-28 7.1826469486816968e-28 0.0000000000000000e+00  1.5468190243333274e-28 -4.1900337049098359e-28 0.0000000000000000e+00  2.2930587712227216e-28 -5.4164787931621715e-28 0.0000000000000000e+00  9.3563708997403170e-28 -1.9592201771423032e-27 0.0000000000000000e+00  3.8254093378428259e-28 -7.5963976271044938e-28 0.0000000000000000e+00  -3.1471160530225770e-28 6.0820789558953100e-28 0.0000000000000000e+00  -9.9317719176136972e-30 3.3209807502473190e-29 0.0000000000000000e+00  3.3255416356254117e-29 -6.8289180658826596e-29 0.0000000000000000e+00  8.4679231146268767e-29 -1.5574405254592928e-28 0.0000000000000000e+00  -1.6863230265599642e-29 3.1453270901892752e-29 0.0000000000000000e+00  -2.4695458213815336e-29 4.2142335962145750e-29 0.0000000000000000e+00  2.5549