<?xml version="1.0"?>
<VTKFile type="UnstructuredGrid"  version="0.1"  >
<UnstructuredGrid>
<Piece  NumberOfPoints="11902" NumberOfCells="23402">
<Points>
<DataArray  type="Float64"  NumberOfComponents="3"  format="ascii">-5 -5 0  5 -5 0  5 5 0  -5 5 0  1.202267350705759 0.001299808911788001 0  -4.9 -5 0  -4.8 -5 0  -4.7 -5 0  -4.6 -5 0  -4.5 -5 0  -4.4 -5 0  -4.3 -5 0  -4.2 -5 0  -4.1 -5 0  -4 -5 0  -3.9 -5 0  -3.8 -5 0  -3.7 -5 0  -3.6 -5 0  -3.5 -5 0  -3.4 -5 0  -3.3 -5 0  -3.2 -5 0  -3.1 -5 0  -3 -5 0  -2.9 -5 0  -2.8 -5 0  -2.7 -5 0  -2.6 -5 0  -2.5 -5 0  -2.4 -5 0  -2.3 -5 0  -2.2 -5 0  -2.1 -5 0  -2 -5 0  -1.9 -5 0  -1.8 -5 0  -1.7 -5 0  -1.6 -5 0  -1.5 -5 0  -1.4 -5 0  -1.3 -5 0  -1.2 -5 0  -1.1 -5 0  -1 -5 0  -0.9000000000000004 -5 0  -0.7999999999999998 -5 0  -0.7000000000000002 -5 0  -0.5999999999999996 -5 0  -0.5 -5 0  -0.4000000000000004 -5 0  -0.2999999999999998 -5 0  -0.2000000000000002 -5 0  -0.09999999999999964 -5 0  0 -5 0  0.09999999999999964 -5 0  0.2000000000000002 -5 0  0.2999999999999998 -5 0  0.4000000000000004 -5 0  0.5 -5 0  0.5999999999999996 -5 0  0.7000000000000002 -5 0  0.7999999999999998 -5 0  0.9000000000000004 -5 0  1 -5 0  1.1 -5 0  1.2 -5 0  1.3 -5 0  1.4 -5 0  1.5 -5 0  1.6 -5 0  1.7 -5 0  1.8 -5 0  1.9 -5 0  2 -5 0  2.1 -5 0  2.2 -5 0  2.3 -5 0  2.4 -5 0  2.5 -5 0  2.6 -5 0  2.7 -5 0  2.8 -5 0  2.9 -5 0  3 -5 0  3.1 -5 0  3.199999999999999 -5 0  3.300000000000001 -5 0  3.4 -5 0  3.5 -5 0  3.6 -5 0  3.699999999999999 -5 0  3.800000000000001 -5 0  3.9 -5 0  4 -5 0  4.1 -5 0  4.199999999999999 -5 0  4.300000000000001 -5 0  4.4 -5 0  4.5 -5 0  4.6 -5 0  4.699999999999999 -5 0  4.800000000000001 -5 0  4.9 -5 0  5 -4.9 0  5 -4.8 0  5 -4.7 0  5 -4.6 0  5 -4.5 0  5 -4.4 0  5 -4.3 0  5 -4.2 0  5 -4.1 0  5 -4 0  5 -3.9 0  5 -3.8 0  5 -3.7 0  5 -3.6 0  5 -3.5 0  5 -3.4 0  5 -3.3 0  5 -3.2 0  5 -3.1 0  5 -3 0  5 -2.9 0  5 -2.8 0  5 -2.7 0  5 -2.6 0  5 -2.5 0  5 -2.4 0  5 -2.3 0  5 -2.2 0  5 -2.1 0  5 -2 0  5 -1.9 0  5 -1.8 0  5 -1.7 0  5 -1.6 0  5 -1.5 0  5 -1.4 0  5 -1.3 0  5 -1.2 0  5 -1.1 0  5 -1 0  5 -0.9000000000000004 0  5 -0.7999999999999998 0  5 -0.7000000000000002 0  5 -0.5999999999999996 0  5 -0.5 0  5 -0.4000000000000004 0  5 -0.2999999999999998 0  5 -0.2000000000000002 0  5 -0.09999999999999964 0  5 0 0  5 0.09999999999999964 0  5 0.2000000000000002 0  5 0.2999999999999998 0  5 0.4000000000000004 0  5 0.5 0  5 0.5999999999999996 0  5 0.7000000000000002 0  5 0.7999999999999998 0  5 0.9000000000000004 0  5 1 0  5 1.1 0  5 1.2 0  5 1.3 0  5 1.4 0  5 1.5 0  5 1.6 0  5 1.7 0  5 1.8 0  5 1.9 0  5 2 0  5 2.1 0  5 2.2 0  5 2.3 0  5 2.4 0  5 2.5 0  5 2.6 0  5 2.7 0  5 2.8 0  5 2.9 0  5 3 0  5 3.1 0  5 3.199999999999999 0  5 3.300000000000001 0  5 3.4 0  5 3.5 0  5 3.6 0  5 3.699999999999999 0  5 3.800000000000001 0  5 3.9 0  5 4 0  5 4.1 0  5 4.199999999999999 0  5 4.300000000000001 0  5 4.4 0  5 4.5 0  5 4.6 0  5 4.699999999999999 0  5 4.800000000000001 0  5 4.9 0  4.9 5 0  4.8 5 0  4.7 5 0  4.6 5 0  4.5 5 0  4.4 5 0  4.3 5 0  4.2 5 0  4.1 5 0  4 5 0  3.9 5 0  3.8 5 0  3.7 5 0  3.6 5 0  3.5 5 0  3.4 5 0  3.3 5 0  3.2 5 0  3.1 5 0  3 5 0  2.9 5 0  2.8 5 0  2.7 5 0  2.6 5 0  2.5 5 0  2.4 5 0  2.3 5 0  2.2 5 0  2.1 5 0  2 5 0  1.9 5 0  1.8 5 0  1.7 5 0  1.6 5 0  1.5 5 0  1.4 5 0  1.3 5 0  1.2 5 0  1.1 5 0  1 5 0  0.9000000000000004 5 0  0.7999999999999998 5 0  0.7000000000000002 5 0  0.5999999999999996 5 0  0.5 5 0  0.4000000000000004 5 0  0.2999999999999998 5 0  0.2000000000000002 5 0  0.09999999999999964 5 0  0 5 0  -0.09999999999999964 5 0  -0.2000000000000002 5 0  -0.2999999999999998 5 0  -0.4000000000000004 5 0  -0.5 5 0  -0.5999999999999996 5 0  -0.7000000000000002 5 0  -0.7999999999999998 5 0  -0.9000000000000004 5 0  -1 5 0  -1.1 5 0  -1.2 5 0  -1.3 5 0  -1.4 5 0  -1.5 5 0  -1.6 5 0  -1.7 5 0  -1.8 5 0  -1.9 5 0  -2 5 0  -2.1 5 0  -2.2 5 0  -2.3 5 0  -2.4 5 0  -2.5 5 0  -2.6 5 0  -2.7 5 0  -2.8 5 0  -2.9 5 0  -3 5 0  -3.1 5 0  -3.199999999999999 5 0  -3.300000000000001 5 0  -3.4 5 0  -3.5 5 0  -3.6 5 0  -3.699999999999999 5 0  -3.800000000000001 5 0  -3.9 5 0  -4 5 0  -4.1 5 0  -4.199999999999999 5 0  -4.300000000000001 5 0  -4.4 5 0  -4.5 5 0  -4.6 5 0  -4.699999999999999 5 0  -4.800000000000001 5 0  -4.9 5 0  -5 4.9 0  -5 4.8 0  -5 4.7 0  -5 4.6 0  -5 4.5 0  -5 4.4 0  -5 4.3 0  -5 4.2 0  -5 4.1 0  -5 4 0  -5 3.9 0  -5 3.8 0  -5 3.7 0  -5 3.6 0  -5 3.5 0  -5 3.4 0  -5 3.3 0  -5 3.2 0  -5 3.1 0  -5 3 0  -5 2.9 0  -5 2.8 0  -5 2.7 0  -5 2.6 0  -5 2.5 0  -5 2.4 0  -5 2.3 0  -5 2.2 0  -5 2.1 0  -5 2 0  -5 1.9 0  -5 1.8 0  -5 1.7 0  -5 1.6 0  -5 1.5 0  -5 1.4 0  -5 1.3 0  -5 1.2 0  -5 1.1 0  -5 1 0  -5 0.9000000000000004 0  -5 0.7999999999999998 0  -5 0.7000000000000002 0  -5 0.5999999999999996 0  -5 0.5 0  -5 0.4000000000000004 0  -5 0.2999999999999998 0  -5 0.2000000000000002 0  -5 0.09999999999999964 0  -5 0 0  -5 -0.09999999999999964 0  -5 -0.2000000000000002 0  -5 -0.2999999999999998 0  -5 -0.4000000000000004 0  -5 -0.5 0  -5 -0.5999999999999996 0  -5 -0.7000000000000002 0  -5 -0.7999999999999998 0  -5 -0.9000000000000004 0  -5 -1 0  -5 -1.1 0  -5 -1.2 0  -5 -1.3 0  -5 -1.4 0  -5 -1.5 0  -5 -1.6 0  -5 -1.7 0  -5 -1.8 0  -5 -1.9 0  -5 -2 0  -5 -2.1 0  -5 -2.2 0  -5 -2.3 0  -5 -2.4 0  -5 -2.5 0  -5 -2.6 0  -5 -2.7 0  -5 -2.8 0  -5 -2.9 0  -5 -3 0  -5 -3.1 0  -5 -3.199999999999999 0  -5 -3.300000000000001 0  -5 -3.4 0  -5 -3.5 0  -5 -3.6 0  -5 -3.699999999999999 0  -5 -3.800000000000001 0  -5 -3.9 0  -5 -4 0  -5 -4.1 0  -5 -4.199999999999999 0  -5 -4.300000000000001 0  -5 -4.4 0  -5 -4.5 0  -5 -4.6 0  -5 -4.699999999999999 0  -5 -4.800000000000001 0  -5 -4.9 0  1.19624302521231 0.09896721548515094 0  1.177398505311457 0.1970529939387497 0  1.145917965502256 0.2942526019256366 0  1.105218803263576 0.3856389337225692 0  1.052247826976805 0.4762865879459741 0  0.9899272742234395 0.5613623818550665 0  0.9166447283159167 0.6411328653773829 0  0.8341159791053856 0.7139773421544782 0  0.744575851159898 0.7796175117128047 0  0.6467561489447861 0.8380921854171002 0  0.5418036080959523 0.8890295255797401 0  0.4327893134141043 0.9310043013953581 0  0.3214750977587491 0.9638360201084198 0  0.2044123689951999 0.9862190978166402 0  0.08862788131142164 1.001027153778421 0  -0.02771384856039806 1.003817952469532 0  -0.1442739765677492 0.9938889671643212 0  -0.2624773091803185 0.9761555759883545 0  -0.3772330804037947 0.9500574509638875 0  -0.4867432250634142 0.913557959499993 0  -0.5915963805865063 0.8679315107604327 0  -0.6913437287908659 0.8132152033095038 0  -0.7839101048827761 0.7502189213024819 0  -0.8700713908971193 0.6795830366365636 0  -0.9489804328918459 0.6014444198670238 0  -1.017462561140846 0.51909617425384 0  -1.076371390952339 0.4322347502415346 0  -1.123985360000098 0.34018658781036 0  -1.159664819002455 0.2462630022219864 0  -1.183613112428381 0.1498245133270421 0  -1.195738934523504 0.05076890511169885 0  -1.195730470300441 -0.04897430297854323 0  -1.183537763612482 -0.1476840867267826 0  -1.160425018677601 -0.2441123445167513 0  -1.123405798038997 -0.3398477357642453 0  -1.076723534476049 -0.4310547887871526 0  -1.018479281471153 -0.5182152093512207 0  -0.9505523804611495 -0.6001066781789407 0  -0.87199132167413 -0.6770558758744997 0  -0.7854599779141634 -0.7466440688881316 0  -0.6915467034159923 -0.8078982968260228 0  -0.5917633650068661 -0.8621796553945338 0  -0.483912531710433 -0.9091375563268747 0  -0.373791609150431 -0.9472314778067462 0  -0.2595638158276053 -0.9748508062762928 0  -0.1428790727096489 -0.9930059713145399 0  -0.0273694308537014 -1.00292712535825 0  0.0892346929177044 -0.9983804868206791 0  0.2074161762407323 -0.9838798927361985 0  0.3231543155058558 -0.9621654696300052 0  0.4362451149065545 -0.9295811716903026 0  0.5435233859347267 -0.8880756958090434 0  0.6474946105600351 -0.8377234461279047 0  0.7447376767529839 -0.7806208556234705 0  0.8341743959116185 -0.714713273449886 0  0.9161348513734856 -0.6405883788250502 0  0.9884426443446528 -0.5607099460114537 0  1.052089610239794 -0.4757071256242693 0  1.1062422631919 -0.3857019004948991 0  1.14736333541506 -0.2927541969159294 0  1.177675185742672 -0.1962101785344921 0  1.196269689442234 -0.09849997260634931 0  -2.44876935743649 4.918495875700705 0  -2.448662131875087 -4.910908894579167 0  4.910842644733843 2.448190260066799 0  4.918930065809158 -2.449624973273921 0  2.446428884234406 -4.896212762940712 0  2.440853761686734 4.899959526547537 0  -4.91086639678687 -2.448213505214218 0  -4.910864572984343 2.448217346408055 0  -1.748731102509919 4.911553680685294 0  -1.744508513327143 -4.914973330205975 0  4.921130777819045 1.74433730831799 0  4.909735106058609 -1.748137469179409 0  -4.910022801717441 -1.747867304641512 0  -4.910840907310956 1.747609011908617 0  1.746017374361019 4.905450269795821 0  1.747457993267392 -4.893665768666522 0  -1.148998464218472 4.909452528850543 0  -1.129839111384321 -4.917313861846415 0  -4.909885226064914 -1.148142617059817 0  -4.909705771922495 1.147942761451754 0  1.143983051835735 -4.913524937025884 0  1.149006530715758 4.909441088435836 0  4.910030868997717 1.146419762162661 0  4.920777449050995 -1.152176664436036 0  -0.546750790590027 -4.910698747913377 0  -0.5465254670557064 4.919320141882354 0  -4.908734395370465 -0.5488279775573126 0  -4.908758755009197 0.5473843876536557 0  4.908067108638909 -0.5491486539600305 0  4.919622341709272 0.5458897100323307 0  0.5425411362628003 -4.89767603786602 0  0.5512555875194162 4.916167099287589 0  -4.912158949524582 -3.048520868650888 0  4.918712125125866 3.046522360346817 0  4.911669696931257 -3.048500203235005 0  -4.913005396589007 3.045610599926827 0  3.05547269410312 -4.917648245453597 0  -3.048816445075699 -4.911602190934453 0  3.052379729157764 4.913675204958905 0  -3.048260871375442 4.912489788140454 0  -4.907886140890042 -0.04991962029909135 0  0.04512496121621715 -4.912654362303716 0  0.04957319104268487 4.919629479187734 0  4.914884758289445 -0.05130095947943948 0  3.545755285562835 -4.919212328471843 0  -3.549047618466831 4.9
[...]
<PointData  Vectors="f_2386"> 
<DataArray  type="Float64"  Name="f_2386"  NumberOfComponents="3" format="ascii">-1.2410710177483619e-40 -1.3930734132153507e-40 0.0000000000000000e+00  1.4945067655703403e-40 -1.6194024927840821e-40 0.0000000000000000e+00  -2.0776399844452673e-40 -2.0352128748371602e-40 0.0000000000000000e+00  -2.4364165407414038e-40 2.4764580886252796e-40 0.0000000000000000e+00  1.5761576944335379e+01 -2.0242109568801556e-01 0.0000000000000000e+00  2.8939795895631287e-40 3.1049861200202026e-40 0.0000000000000000e+00  7.2888609213984158e-40 7.5292572802293082e-40 0.0000000000000000e+00  -1.6525078399192864e-39 -1.8536824183766326e-39 0.0000000000000000e+00  1.5811853162676663e-38 1.8015497770275579e-38 0.0000000000000000e+00  -5.1421695962611487e-38 -5.8090706692550604e-38 0.0000000000000000e+00  1.9048706490996259e-37 2.2900131368349659e-37 0.0000000000000000e+00  -6.8331167913442312e-37 -8.5646722466171138e-37 0.0000000000000000e+00  4.0646928238721338e-36 5.1610017405067360e-36 0.0000000000000000e+00  -2.5381963693856129e-35 -3.1823089308202337e-35 0.0000000000000000e+00  1.0370667218642061e-34 1.3251192726571620e-34 0.0000000000000000e+00  -2.2673715649292227e-34 -2.8993217052417530e-34 0.0000000000000000e+00  4.5676767621452696e-34 5.7611696204550990e-34 0.0000000000000000e+00  1.6618955599796789e-33 2.1442257162397978e-33 0.0000000000000000e+00  -7.2658142861806434e-33 -9.9216023702095647e-33 0.0000000000000000e+00  2.0261874576439503e-32 2.9559102529557954e-32 0.0000000000000000e+00  -1.1722414705505170e-31 -1.7084126274536959e-31 0.0000000000000000e+00  3.0982285283113051e-31 4.5424847191570782e-31 0.0000000000000000e+00  1.9185631796399039e-31 2.7982807861978052e-31 0.0000000000000000e+00  -1.5712594901366557e-30 -2.3195353722002877e-30 0.0000000000000000e+00  -6.6067907420816761e-31 -1.1832662450629981e-30 0.0000000000000000e+00  -1.5286882116895747e-30 -2.8058803657229912e-30 0.0000000000000000e+00  4.4051181434753053e-30 8.0970078518624736e-30 0.0000000000000000e+00  -1.0010784855932077e-29 -2.3816490006500302e-29 0.0000000000000000e+00  3.5768475981927164e-29 7.6113779300843098e-29 0.0000000000000000e+00  2.0570785156401404e-29 4.6943073207472163e-29 0.0000000000000000e+00  -1.7894629316733723e-28 -3.9014557758151198e-28 0.0000000000000000e+00  -6.4348857810912804e-29 -1.5445327640124237e-28 0.0000000000000000e+00  -1.0855083177099975e-28 -3.0578250641151686e-28 0.0000000000000000e+00  1.8008141162433554e-28 4.6180391713530120e-28 0.0000000000000000e+00  5.2093581939574544e-28 1.4575068047086394e-27 0.0000000000000000e+00  -1.8403450915176760e-29 -9.9697265390863098e-29 0.0000000000000000e+00  1.5146598798213338e-28 4.1459874246222587e-28 0.0000000000000000e+00  -8.5116393612806482e-29 -2.6609051614086857e-28 0.0000000000000000e+00  -4.7864903615321302e-28 -1.4631868881678656e-27 0.0000000000000000e+00  -4.4226639111604468e-28 -1.4408258491852491e-27 0.0000000000000000e+00  -1.2682822196285218e-29 -1.2694232676658454e-28 0.0000000000000000e+00  4.5938676319688529e-28 1.7104404408598469e-27 0.0000000000000000e+00  2.7235721158215212e-28 1.0249303835664428e-27 0.0000000000000000e+00  -1.2640772895030342e-29 -1.6839296672198845e-28 0.0000000000000000e+00  1.1186364350907733e-28 4.1645171474900411e-28 0.0000000000000000e+00  1.5078964755454635e-29 1.0355846461506720e-27 0.0000000000000000e+00  1.3797767493835528e-28 1.7476939937501337e-27 0.0000000000000000e+00  -3.2765324977093708e-29 -1.0309166996391750e-27 0.0000000000000000e+00  4.4233284132712864e-28 5.5858440969001333e-27 0.0000000000000000e+00  -1.2741434165988826e-28 -1.1500244145659779e-29 0.0000000000000000e+00  -4.9104831080563465e-28 -4.7774742097182872e-27 0.0000000000000000e+00  -3.4054477941964615e-28 -2.7387797030710635e-27 0.0000000000000000e+00  -2.6483925716115934e-28 -3.9445390773934029e-27 0.0000000000000000e+00  -1.4903983325801479e-28 -1.0044803371469022e-26 0.0000000000000000e+00  1.2216147709852008e-29 -1.1513487828196976e-26 0.0000000000000000e+00  -9.6216281496670464e-30 -1.9788291556074909e-27 0.0000000000000000e+00  8.4835275660908441e-29 -6.2065115423240544e-27 0.0000000000000000e+00  9.4454616520962242e-29 -2.1873701441304678e-27 0.0000000000000000e+00  2.6228103341588525e-28 -3.9872732235105072e-27 0.0000000000000000e+00  -1.6127632613138171e-28 1.8916599618060947e-27 0.0000000000000000e+00  5.6848371956254587e-28 -5.3195616175148827e-27 0.0000000000000000e+00  6.8379189693730468e-28 -4.8373022968882333e-27 0.0000000000000000e+00  -9.7237688480778562e-29 1.0432781267361170e-27 0.0000000000000000e+00  -1.1235539967816559e-27 7.3132285690660361e-27 0.0000000000000000e+00  -5.2540454695629190e-28 2.9083635100667539e-27 0.0000000000000000e+00  -3.6355364000694485e-28 1.6487062785524284e-27 0.0000000000000000e+00  -9.0355668651405144e-28 4.1926773505889100e-27 0.0000000000000000e+00  -5.3107371730124182e-28 2.2187620233483856e-27 0.0000000000000000e+00  5.8791660294772002e-28 -2.5346486338501683e-27 0.0000000000000000e+00  3.3715945301079770e-28 -1.1908771839783400e-27 0.0000000000000000e+00  7.1761505726189183e-29 -2.1773943693205043e-28 0.0000000000000000e+00  3.1347705367949690e-28 -8.9327380173954204e-28 0.0000000000000000e+00  2.3722863172303261e-28 -6.9991064339199385e-28 0.0000000000000000e+00  -2.0425779306626461e-28 5.9696283770849933e-28 0.0000000000000000e+00  -1.3840198351361401e-28 3.8378059189400762e-28 0.0000000000000000e+00  -1.0648041817688199e-28 2.7994215040399249e-28 0.0000000000000000e+00  1.8318881726799382e-29 -5.4855906021247633e-29 0.0000000000000000e+00  7.4710303840801398e-29 -1.8260062172629277e-28 0.0000000000000000e+00  1.0795072485632085e-28 -2.4640204651451318e-28 0.0000000000000000e+00  -6.7461818614337393e-30 1.3726499887482124e-29 0.0000000000000000e+00  -7.9579413441258508e-29 1.6653737091131971e-28 0.0000000000000000e+00  1.2974814610831262e-29 -2.7061311487602974e-29 0.0000000000000000e+00  4.4405989471308553e-30 -8.6061672297213827e-30 0.0000000000000000e+00  -1.2678231279395034e-29 2.2773660985364556e-29 0.0000000000000000e+00  -1.1023330653491045e-30 1.5738795539220257e-30 0.0000000000000000e+00  1.4938980996201649e-30 -2.4093637823907343e-30 0.0000000000000000e+00  -7.5427372719930313e-31 1.1887910328451212e-30 0.0000000000000000e+00  9.9363278841497799e-32 -1.5744232750873335e-31 0.0000000000000000e+00  -1.1371247925165498e-32 1.7556219421094073e-32 0.0000000000000000e+00  -1.2445536272490366e-33 1.6799181410783478e-33 0.0000000000000000e+00  6.4036407242955367e-33 -8.5711580346461691e-33 0.0000000000000000e+00  2.1527659157540977e-34 -2.2586338407704651e-34 0.0000000000000000e+00  -3.6068372649642498e-34 4.5399895781465017e-34 0.0000000000000000e+00  3.7966440608565490e-35 -4.5865148040396973e-35 0.0000000000000000e+00  -1.4007294395369182e-35 1.7788030193841965e-35 0.0000000000000000e+00  3.7396155377071683e-36 -4.5189332654474536e-36 0.0000000000000000e+00  -1.5396750772118129e-36 1.7316140539178593e-36 0.0000000000000000e+00  4.7914604936462317e-37 -5.4636593998195084e-37 0.0000000000000000e+00  -2.3816664658553356e-37 2.6173677851854883e-37 0.0000000000000000e+00  7.9623008084594494e-38 -8.5679319023109729e-38 0.0000000000000000e+00  -1.5567713085052796e-38 1.6806740430573841e-38 0.0000000000000000e+00  6.2361995283905207e-39 -6.5247805415813433e-39 0.0000000000000000e+00  -4.2483329584591243e-40 4.1809325896026438e-40 0.0000000000000000e+00  -2.5967507950755997e-40 2.8126961465069086e-40 0.0000000000000000e+00  -3.3508035937871841e-42 3.6510760314959342e-42 0.0000000000000000e+00  3.7701625986213283e-40 -3.3833970407694061e-40 0.0000000000000000e+00  -8.5851939197512567e-40 7.5395200327213080e-40 0.0000000000000000e+00  3.0051324244199669e-39 -2.7477909549902703e-39 0.0000000000000000e+00  -1.5169175523243467e-39 1.6201238459420223e-39 0.0000000000000000e+00  -1.4805244344045551e-38 1.2234756824729012e-38 0.0000000000000000e+00  5.5015855632392264e-38 -4.6579654394702395e-38 0.0000000000000000e+00  -7.0481409067821270e-38 6.1604974347405416e-38 0.0000000000000000e+00  -1.4410564891728212e-37 1.0845821223942476e-37 0.0000000000000000e+00  8.6200952727660191e-37 -6.7917377966350339e-37 0.0000000000000000e+00  -1.4490879053012898e-36 1.1606329977040584e-36 0.0000000000000000e+00  -1.4087884390392212e-36 9.6258813162779370e-37 0.0000000000000000e+00  1.1984336115953985e-35 -8.8416691580951456e-36 0.0000000000000000e+00  -2.2546197511742760e-35 1.6700282704263060e-35 0.0000000000000000e+00  -1.8106648785796260e-35 1.1813259811181970e-35 0.0000000000000000e+00  1.7352364862628626e-34 -1.1969269744524155e-34 0.0000000000000000e+00  -2.7177125450761164e-34 1.8791367034154480e-34 0.0000000000000000e+00  -3.8929799284302147e-34 2.4906899675579300e-34 0.0000000000000000e+00  2.3399083636401678e-33 -1.5030624871944307e-33 0.0000000000000000e+00  -2.2483146752023338e-33 1.4389780587507570e-33 0.0000000000000000e+00  -8.5947702908175788e-33 5.1907973649513210e-33 0.0000000000000000e+00  2.6653523889787057e-32 -1.5873476829139768e-32 0.0000000000000000e+00  3.1971912480037483e-33 -1.6154847233391507e-33 0.0000000000000000e+00  -1.4627648453556164e-31 8.1455218322464447e-32 0.0000000000000000e+00  1.8980538282658085e-31 -1.0193313567832869e-31 0.0000000000000000e+00  4.9474587179123777e-31 -2.5868511452749012e-31 0.0000000000000000e+00  -1.4451411475869360e-30 7.2419989123839501e-31 0.0000000000000000e+00  -8.7631856230614350e-31 4.4447512901791586e-31 0.0000000000000000e+00  7.7858832544850420e-30 -3.6335719921565541e-30 0.0000000000000000e+00  -2.1785872766115251e-30 8.0904451348913552e-31 0.0000000000000000e+00  -3.4615999045995000e-29 1.5007306801202887e-29 0.0000000000000000e+00  2.8280646190193565e-29 -1.0450189948057133e-29 0.0000000000000000e+00  1.4186050790632100e-28 -5.7241838758622473e-29 0.0000000000000000e+00  -1.5998435914026282e-28 5.2778428054676751e-29 0.0000000000000000e+00  -5.9398190661231201e-28 2.1969700539004242e-28 0.0000000000000000e+00  6.3022650019441988e-28 -1.7427080365231418e-28 0.0000000000000000e+00  2.4817884415522327e-27 -8.2100562181154174e-28 0.0000000000000000e+00  -1.8985290205101138e-27 3.5883628256577456e-28 0.0000000000000000e+00  -9.5871648238906294e-27 2.5746362816697490e-27 0.0000000000000000e+00  2.6069007559101054e-27 2.0996082781057548e-28 0.0000000000000000e+00  3.0229968433233839e-26 -6.1108189289635064e-27 0.0000000000000000e+00  1.4754511210340800e-26 -4.4539287600589636e-27 0.0000000000000000e+00  -8.5077285130902155e-26 1.2035281324346723e-26 0.0000000000000000e+00  -1.2894512916718177e-25 1.7988622652807334e-26 0.0000000000000000e+00  1.4266471806172938e-25 -2.3500885051561678e-26 0.0000000000000000e+00  8.3153977710786436e-25 -1.0905268124993196e-25 0.0000000000000000e+00  1.5102526816170906e-24 -1.6797845361208207e-25 0.0000000000000000e+00  1.8314842806430067e-24 -1.5878525128846120e-25 0.0000000000000000e+00  1.7804206271180161e-24 -8.5187736834470951e-26 0.0000000000000000e+00  1.7908346030281515e-24 8.9092184412466012e-27 0.0000000000000000e+00  1.9106637442384067e-24 9.7048519520621592e-26 0.0000000000000000e+00  1.7712921840986469e-24 1.4126533744385500e-25 0.0000000000000000e+00  1.1664914784799993e-24 1.1538324806912148e-25 0.0000000000000000e+00  3.5664546584571621e-25 3.9132243156476603e-26 0.0000000000000000e+00  -1.4302578361925662e-25 -2.1577289457859221e-26 0.0000000000000000e+00  -1.9807597896598911e-25 -2.9509381862240470e-26 0.0000000000000000e+00  -3.5157350072735055e-26 -2.8695077991272365e-27 0.0000000000000000e+00  5.6764194354812484e-26 1.3441019751986211e-26 0.0000000000000000e+00  3.4778193937759163e-26 7.9577637171420755e-27 0.0000000000000000e+00  -4.6861212101883561e-27 -1.4197486157980578e-27 0.0000000000000000e+00  -9.9661543588079547e-27 -2.6897593830093383e-27 0.0000000000000000e+00  -5.7009679515346191e-28 -1.0028023678400875e-28 0.0000000000000000e+00  2.5278495781676126e-27 7.8345210997168186e-28 0.0000000000000000e+00  3.2191555051391073e-28 9.2467003207733553e-29 0.0000000000000000e+00  -6.0681797877406663e-28 -2.0927266154878203e-28 0.0000000000000000e+00  -7.2097450337678786e-29 -2.3335694775992298e-29 0.0000000000000000e+00  1.4107229986189865e-28 5.3663619421927606e-29 0.0000000000000000e+00  3.8327995364073640e-30 8.5435006988401378e-31 0.0000000000000000e+00  -3.1280250470203641e-29 -1.2960376744635101e-29 0.0000000000000000e+00  3.0846590577656863e-30 1.5154358793775394e-30 0.0000000000000000e+00  5.8753544152889241e-30 2.6434665226112761e-30 0.0000000000000000e+00  -1.7887665855958617e-30 -8.7824439200534976e-31 0.0000000000000000e+00  -8.5174839479826519e-31 -4.0649482519199273e-31 0.0000000000000000e+00  5.6148796269369875e-31 2.9256982711646286e-31 0.0000000000000000e+00  2.7582337500532185e-32 1.1141728701997625e-32 0.0000000000000000e+00  -1.2132502284800826e-31 -6.6832780047021278e-32 0.0000000000000000e+00  2.7437656970580901e-32 1.6314785616771757e-32 0.0000000000000000e+00  1.7195665608446562e-32 9.9094758981303676e-33 0.0000000000000000e+00  -1.0986851926800308e-32 -6.7269244566279450e-33 0.0000000000000000e+00  1.6354593922003563e-34 1.4210247163531551e-34 0.0000000000000000e+00  1.9585967627077465e-33 1.2676194342419685e-33 0.0000000000000000e+00  -7.3915014532259804e-34 -4.9468563441038141e-34 0.0000000000000000e+00  -1.0244825779204027e-34 -6.9993578305954370e-35 0.0000000000000000e+00  1.7627850098056619e-34 1.2396812041490222e-34 0.0000000000000000e+00  -4.9728709297500474e-35 -3.5747435351018924e-35 0.0000000000000000e+00  -1.1219268641901188e-35 -8.4710712781672796e-36 0.0000000000000000e+00  1.2886546492346164e-35 9.7839678497253588e-36 0.0000000000000000e+00  -3.3995300718346342e-36 -2.5901911819183742e-36 0.0000000000000000e+00  -7.5688570691382479e-37 -6.2881290520348368e-37 0.0000000000000000e+00  8.9048783754724203e-37 7.2562585252534863e-37 0.0000000000000000e+00  -2.6320272085507628e-37 -2.1365325615892071e-37 0.0000000000000000e+00  -2.7844495448164430e-38 -2.6702028049232380e-38 0.0000000000000000e+00  5.4693629525255354e-38 4.8032534908658704e-38 0.0000000000000000e+00  -2.1390482886979353e-38 -1.8605989344239129e-38 0.0000000000000000e+00  1.0963024901054196e-39 6.9206032275961725e-40 0.0000000000000000e+00  2.8159618780743143e-39 2.6842288708798530e-39 0.0000000000000000e+00  -1.5280639696118518e-39 -1.4262710436377557e-39 0.0000000000000000e+00  3.4599934263315986e-40 3.1400311667996552e-40 0.0000000000000000e+00  1.4203010151869667e-40 1.5234034554310379e-40 0.0000000000000000e+00  3.1930266775514388e-40 3.1853543467549204e-40 0.0000000000000000e+00  -8.5462292807517308e-40 -9.3046798950772991e-40 0.0000000000000000e+00  1.7172773425166606e-39 1.9078596813216595e-39 0.0000000000000000e+00  -1.1562321351925987e-38 -1.2964377854203241e-38 0.0000000000000000e+00  8.7961743825098126e-38 9.3732145166058104e-38 0.0000000000000000e+00  -2.1958259736529173e-37 -2.2596857692662748e-37 0.0000000000000000e+00  2.6767397250894674e-37 2.8663624432309102e-37 0.0000000000000000e+00  -3.7234925773352568e-36 -4.3477732970283126e-36 0.0000000000000000e+00  1.0849524986863716e-35 1.3757069471878344e-35 0.0000000000000000e+00  -4.4350868610404146e-35 -5.9547958808044268e-35 0.0000000000000000e+00  9.8170656434802316e-35 1.3316542728991816e-34 0.0000000000000000e+00  -1.7475740963353208e-34 -2.6172745270802107e-34 0.0000000000000000e+00  1.0212533725610311e-33 1.4199878856010966e-33 0.0000000000000000e+00  -5.4765519727283253e-34 -7.4922747507807782e-34 0.0000000000000000e+00  3.5885742065083902e-33 5.3098657238613137e-33 0.0000000000000000e+00  3.7067363181761908e-32 5.3509136491493596e-32 0.0000000000000000e+00  -1.6499832493119600e-31 -2.4028223613997685e-31 0.0000000000000000e+00  -5.0788399381714451e-31 -7.6842203102117654e-31 0.0000000000000000e+00  1.0535501610819423e-30 1.5994601038695667e-30 0.0000000000000000e+00  -3.2234411657264335e-31 -4.5380728472116414e-31 0.0000000000000000e+00  -2.9432838005122223e-30 -5.3627894443396646e-30 0.0000000000000000e+00  8.8503526486353051e-30 1.7664970294428250e-29 0.0000000000000000e+00  1.2713766407420757e-29 2.6218267770002054e-29 0.0000000000000000e+00  -8.0535822260996696e-29 -1.6916286742397429e-28 0.0000000000000000e+00  2.5733350618414995e-29 5.2100931090219629e-29 0.0000000000000000e+00  9.1954045594804412e-29 1.8881359494755887e-28 0.0000000000000000e+00  2.6893269986090806e-29 7.2799804832104528e-29 0.0000000000000000e+00  2.3995667979778101e-28 6.3397518948060348e-28 0.0000000000000000e+00  1.0587803247375102e-28 2.9321589070725604e-28 0.0000000000000000e+00  -2.5997108741233587e-28 -7.1290507594029038e-28 0.0000000000000000e+00  -3.7827221907846297e-28 -1.1034637882632426e-27 0.0000000000000000e+00  3.1107334649498044e-28 9.4387350772460832e-28 0.0000000000000000e+00  5.3797744693484806e-28 1.7463962573788511e-27 0.0000000000000000e+00  3.3611346666613223e-28 1.1801470293325578e-27 0.0000000000000000e+00  1.6637002806736863e-28 5.8698059570539444e-28 0.0000000000000000e+00  -6.1684695809613854e-28 -2.3963620193836640e-27 0.0000000000000000e+00  -1.6630836679303323e-28 -7.1104014604198957e-28 0.0000000000000000e+00  -4.9100092145789114e-29 -2.5963974577936528e-28 0.0000000000000000e+00  -2.9433241931303655e-28 -1.4692350980326268e-27 0.0000000000000000e+00  -2.4997711118780616e-28 -1.3678591621042006e-27 0.0000000000000000e+00  -3.3827829125185567e-28 -2.0796014159506547e-27 0.0000000000000000e+00  -1.1796704180714201e-28 -7.4823797589036547e-28 0.0000000000000000e+00  1.5706207527706818e-28 1.3490923767018425e-27 0.0000000000000000e+00  -3.7289613097305337e-29 -2.0377508190765918e-28 0.0000000000000000e+00  -1.6000104220297057e-28 -2.1451598929583781e-27 0.0000000000000000e+00  1.4470770616500669e-29 6.5615725049862739e-28 0.0000000000000000e+00  -6.3720839139996832e-30 5.2110711185485231e-28 0.0000000000000000e+00  -1.3851665447867354e-29 -1.4159142888650643e-27 0.0000000000000000e+00  -3.7295544387175469e-31 -4.9865990438382047e-28 0.0000000000000000e+00  7.6421168434297287e-29 -1.5514663735704744e-27 0.0000000000000000e+00  -1.1414058583667023e-28 1.6642422747060140e-27 0.0000000000000000e+00  -1.3874098157667363e-28 1.5468322339160517e-27 0.0000000000000000e+00  1.8716798433417323e-28 -1.6479183957034726e-27 0.0000000000000000e+00  7.1579498322033091e-29 -3.8300818171400579e-28 0.0000000000000000e+00  2.7903620133598398e-28 -2.1426846965767101e-27 0.0000000000000000e+00  -8.6839002805597858e-29 1.1701190651273857e-27 0.0000000000000000e+00  -3.0123545168147177e-29 3.8964645167125937e-28 0.0000000000000000e+00  2.2241908133868493e-28 -9.4188589521717280e-28 0.0000000000000000e+00  1.0699256271932527e-28 -4.5281994578343073e-28 0.0000000000000000e+00  5.0234802371131179e-28 -2.5768532252337046e-27 0.0000000000000000e+00  7.1498220221269136e-28 -3.3475083340828700e-27 0.0000000000000000e+00  1.0008593261053735e-27 -4.4373282664614380e-27 0.0000000000000000e+00  2.9222080151852609e-28 -1.1808893584304863e-27 0.0000000000000000e+00  -3.4494500215469200e-28 1.3409509277931793e-27 0.0000000000000000e+00  -6.5629965684233357e-28 2.4063919477544229e-27 0.0000000000000000e+00  -7.5201783478046678e-28 2.5943428738646332e-27 0.0000000000000000e+00  -1.8750709061943540e-28 6.1056735955777341e-28 0.0000000000000000e+00  1.5660546840862869e-28 -4.9018608627350319e-28 0.0000000000000000e+00  1.4023097209449918e-28 -4.5010076686454503e-28 0.0000000000000000e+00  5.8304649613230337e-28 -1.6840779584597814e-27 0.0000000000000000e+00  2.4876684355649022e-28 -6.6804997204698582e-28 0.0000000000000000e+00  -2.0770462271928148e-28 5.5266210565199727e-28 0.0000000000000000e+00  -1.0858188186893468e-29 1.6074968892894746e-29 0.0000000000000000e+00  2.5548482781245511e-29 -6.0250400252277132e-29 0.0000000000000000e+00  5.9449593390976924e-29 -1.3333042476048830e-28 0.0000000000000000e+00  -1.2847310460317072e-29 2.7744549166623424e-29 0.0000000000000000e+00  -1.8923536778934651e-29 3.8725064725204282e-29 0.0000000000000000e+00  1.472