<?xml version="1.0"?>
<VTKFile type="UnstructuredGrid"  version="0.1"  >
<UnstructuredGrid>
<Piece  NumberOfPoints="11902" NumberOfCells="23402">
<Points>
<DataArray  type="Float64"  NumberOfComponents="3"  format="ascii">-5 -5 0  5 -5 0  5 5 0  -5 5 0  1.133814540028444 0.000898380397924217 0  -4.9 -5 0  -4.8 -5 0  -4.7 -5 0  -4.6 -5 0  -4.5 -5 0  -4.4 -5 0  -4.3 -5 0  -4.2 -5 0  -4.1 -5 0  -4 -5 0  -3.9 -5 0  -3.8 -5 0  -3.7 -5 0  -3.6 -5 0  -3.5 -5 0  -3.4 -5 0  -3.3 -5 0  -3.2 -5 0  -3.1 -5 0  -3 -5 0  -2.9 -5 0  -2.8 -5 0  -2.7 -5 0  -2.6 -5 0  -2.5 -5 0  -2.4 -5 0  -2.3 -5 0  -2.2 -5 0  -2.1 -5 0  -2 -5 0  -1.9 -5 0  -1.8 -5 0  -1.7 -5 0  -1.6 -5 0  -1.5 -5 0  -1.4 -5 0  -1.3 -5 0  -1.2 -5 0  -1.1 -5 0  -1 -5 0  -0.9000000000000004 -5 0  -0.7999999999999998 -5 0  -0.7000000000000002 -5 0  -0.5999999999999996 -5 0  -0.5 -5 0  -0.4000000000000004 -5 0  -0.2999999999999998 -5 0  -0.2000000000000002 -5 0  -0.09999999999999964 -5 0  0 -5 0  0.09999999999999964 -5 0  0.2000000000000002 -5 0  0.2999999999999998 -5 0  0.4000000000000004 -5 0  0.5 -5 0  0.5999999999999996 -5 0  0.7000000000000002 -5 0  0.7999999999999998 -5 0  0.9000000000000004 -5 0  1 -5 0  1.1 -5 0  1.2 -5 0  1.3 -5 0  1.4 -5 0  1.5 -5 0  1.6 -5 0  1.7 -5 0  1.8 -5 0  1.9 -5 0  2 -5 0  2.1 -5 0  2.2 -5 0  2.3 -5 0  2.4 -5 0  2.5 -5 0  2.6 -5 0  2.7 -5 0  2.8 -5 0  2.9 -5 0  3 -5 0  3.1 -5 0  3.199999999999999 -5 0  3.300000000000001 -5 0  3.4 -5 0  3.5 -5 0  3.6 -5 0  3.699999999999999 -5 0  3.800000000000001 -5 0  3.9 -5 0  4 -5 0  4.1 -5 0  4.199999999999999 -5 0  4.300000000000001 -5 0  4.4 -5 0  4.5 -5 0  4.6 -5 0  4.699999999999999 -5 0  4.800000000000001 -5 0  4.9 -5 0  5 -4.9 0  5 -4.8 0  5 -4.7 0  5 -4.6 0  5 -4.5 0  5 -4.4 0  5 -4.3 0  5 -4.2 0  5 -4.1 0  5 -4 0  5 -3.9 0  5 -3.8 0  5 -3.7 0  5 -3.6 0  5 -3.5 0  5 -3.4 0  5 -3.3 0  5 -3.2 0  5 -3.1 0  5 -3 0  5 -2.9 0  5 -2.8 0  5 -2.7 0  5 -2.6 0  5 -2.5 0  5 -2.4 0  5 -2.3 0  5 -2.2 0  5 -2.1 0  5 -2 0  5 -1.9 0  5 -1.8 0  5 -1.7 0  5 -1.6 0  5 -1.5 0  5 -1.4 0  5 -1.3 0  5 -1.2 0  5 -1.1 0  5 -1 0  5 -0.9000000000000004 0  5 -0.7999999999999998 0  5 -0.7000000000000002 0  5 -0.5999999999999996 0  5 -0.5 0  5 -0.4000000000000004 0  5 -0.2999999999999998 0  5 -0.2000000000000002 0  5 -0.09999999999999964 0  5 0 0  5 0.09999999999999964 0  5 0.2000000000000002 0  5 0.2999999999999998 0  5 0.4000000000000004 0  5 0.5 0  5 0.5999999999999996 0  5 0.7000000000000002 0  5 0.7999999999999998 0  5 0.9000000000000004 0  5 1 0  5 1.1 0  5 1.2 0  5 1.3 0  5 1.4 0  5 1.5 0  5 1.6 0  5 1.7 0  5 1.8 0  5 1.9 0  5 2 0  5 2.1 0  5 2.2 0  5 2.3 0  5 2.4 0  5 2.5 0  5 2.6 0  5 2.7 0  5 2.8 0  5 2.9 0  5 3 0  5 3.1 0  5 3.199999999999999 0  5 3.300000000000001 0  5 3.4 0  5 3.5 0  5 3.6 0  5 3.699999999999999 0  5 3.800000000000001 0  5 3.9 0  5 4 0  5 4.1 0  5 4.199999999999999 0  5 4.300000000000001 0  5 4.4 0  5 4.5 0  5 4.6 0  5 4.699999999999999 0  5 4.800000000000001 0  5 4.9 0  4.9 5 0  4.8 5 0  4.7 5 0  4.6 5 0  4.5 5 0  4.4 5 0  4.3 5 0  4.2 5 0  4.1 5 0  4 5 0  3.9 5 0  3.8 5 0  3.7 5 0  3.6 5 0  3.5 5 0  3.4 5 0  3.3 5 0  3.2 5 0  3.1 5 0  3 5 0  2.9 5 0  2.8 5 0  2.7 5 0  2.6 5 0  2.5 5 0  2.4 5 0  2.3 5 0  2.2 5 0  2.1 5 0  2 5 0  1.9 5 0  1.8 5 0  1.7 5 0  1.6 5 0  1.5 5 0  1.4 5 0  1.3 5 0  1.2 5 0  1.1 5 0  1 5 0  0.9000000000000004 5 0  0.7999999999999998 5 0  0.7000000000000002 5 0  0.5999999999999996 5 0  0.5 5 0  0.4000000000000004 5 0  0.2999999999999998 5 0  0.2000000000000002 5 0  0.09999999999999964 5 0  0 5 0  -0.09999999999999964 5 0  -0.2000000000000002 5 0  -0.2999999999999998 5 0  -0.4000000000000004 5 0  -0.5 5 0  -0.5999999999999996 5 0  -0.7000000000000002 5 0  -0.7999999999999998 5 0  -0.9000000000000004 5 0  -1 5 0  -1.1 5 0  -1.2 5 0  -1.3 5 0  -1.4 5 0  -1.5 5 0  -1.6 5 0  -1.7 5 0  -1.8 5 0  -1.9 5 0  -2 5 0  -2.1 5 0  -2.2 5 0  -2.3 5 0  -2.4 5 0  -2.5 5 0  -2.6 5 0  -2.7 5 0  -2.8 5 0  -2.9 5 0  -3 5 0  -3.1 5 0  -3.199999999999999 5 0  -3.300000000000001 5 0  -3.4 5 0  -3.5 5 0  -3.6 5 0  -3.699999999999999 5 0  -3.800000000000001 5 0  -3.9 5 0  -4 5 0  -4.1 5 0  -4.199999999999999 5 0  -4.300000000000001 5 0  -4.4 5 0  -4.5 5 0  -4.6 5 0  -4.699999999999999 5 0  -4.800000000000001 5 0  -4.9 5 0  -5 4.9 0  -5 4.8 0  -5 4.7 0  -5 4.6 0  -5 4.5 0  -5 4.4 0  -5 4.3 0  -5 4.2 0  -5 4.1 0  -5 4 0  -5 3.9 0  -5 3.8 0  -5 3.7 0  -5 3.6 0  -5 3.5 0  -5 3.4 0  -5 3.3 0  -5 3.2 0  -5 3.1 0  -5 3 0  -5 2.9 0  -5 2.8 0  -5 2.7 0  -5 2.6 0  -5 2.5 0  -5 2.4 0  -5 2.3 0  -5 2.2 0  -5 2.1 0  -5 2 0  -5 1.9 0  -5 1.8 0  -5 1.7 0  -5 1.6 0  -5 1.5 0  -5 1.4 0  -5 1.3 0  -5 1.2 0  -5 1.1 0  -5 1 0  -5 0.9000000000000004 0  -5 0.7999999999999998 0  -5 0.7000000000000002 0  -5 0.5999999999999996 0  -5 0.5 0  -5 0.4000000000000004 0  -5 0.2999999999999998 0  -5 0.2000000000000002 0  -5 0.09999999999999964 0  -5 0 0  -5 -0.09999999999999964 0  -5 -0.2000000000000002 0  -5 -0.2999999999999998 0  -5 -0.4000000000000004 0  -5 -0.5 0  -5 -0.5999999999999996 0  -5 -0.7000000000000002 0  -5 -0.7999999999999998 0  -5 -0.9000000000000004 0  -5 -1 0  -5 -1.1 0  -5 -1.2 0  -5 -1.3 0  -5 -1.4 0  -5 -1.5 0  -5 -1.6 0  -5 -1.7 0  -5 -1.8 0  -5 -1.9 0  -5 -2 0  -5 -2.1 0  -5 -2.2 0  -5 -2.3 0  -5 -2.4 0  -5 -2.5 0  -5 -2.6 0  -5 -2.7 0  -5 -2.8 0  -5 -2.9 0  -5 -3 0  -5 -3.1 0  -5 -3.199999999999999 0  -5 -3.300000000000001 0  -5 -3.4 0  -5 -3.5 0  -5 -3.6 0  -5 -3.699999999999999 0  -5 -3.800000000000001 0  -5 -3.9 0  -5 -4 0  -5 -4.1 0  -5 -4.199999999999999 0  -5 -4.300000000000001 0  -5 -4.4 0  -5 -4.5 0  -5 -4.6 0  -5 -4.699999999999999 0  -5 -4.800000000000001 0  -5 -4.9 0  1.128325416757251 0.1002855031911955 0  1.111121214696668 0.1994497864355156 0  1.082098193033399 0.2971789582367139 0  1.043901647370724 0.3902841879111728 0  0.9947805914345793 0.4812491440084133 0  0.9363809146977652 0.5668759306095408 0  0.867915665977145 0.6466839087326909 0  0.7902376541967123 0.7196943341105481 0  0.7056240597823552 0.7859213101529343 0  0.6138975201989327 0.8447520187144757 0  0.515492613562277 0.8948573896171899 0  0.4121222877847016 0.9362298016211228 0  0.3060182809643554 0.9687657139344569 0  0.195812688631306 0.9909409575760193 0  0.0849864384942504 1.00397698375868 0  -0.02711696640908507 1.006583022383909 0  -0.139007162419959 0.9983747311354961 0  -0.2500286965214989 0.9812478547072551 0  -0.3585835039804355 0.9544326850804553 0  -0.4631912016272814 0.9177036199530905 0  -0.5629462249983458 0.8723370513670029 0  -0.6575361484026067 0.8177332256705999 0  -0.7455724890337795 0.7552718409355273 0  -0.8264823607306725 0.6854189813481515 0  -0.8996162839303872 0.6077742374111093 0  -0.963284879583999 0.5246993727467003 0  -1.018087324096075 0.4369666142421755 0  -1.062144641262582 0.3442275431243949 0  -1.09532309103625 0.2487594261112261 0  -1.117856608265618 0.1508459814637964 0  -1.129321989984941 0.05085668491821336 0  -1.129348911268798 -0.04971812705284567 0  -1.11790145367459 -0.1495175286405916 0  -1.096550483807712 -0.2474216167601703 0  -1.062034110926636 -0.3437079425172453 0  -1.018391176518176 -0.4357941840314001 0  -0.9639057621133592 -0.5237551107682417 0  -0.9004341472218693 -0.6065114157787205 0  -0.8273113204205436 -0.6833819372889723 0  -0.7459164221693432 -0.7528541219491596 0  -0.6572012981939352 -0.8145734241710259 0  -0.5633061841948195 -0.8693328524745292 0  -0.4617069966281633 -0.9150236201406206 0  -0.3569637243237297 -0.952430736768909 0  -0.2482581436919017 -0.9798025291861875 0  -0.1378094948232007 -0.9973706837389996 0  -0.02637759911092306 -1.006049221842549 0  0.0854343860103435 -1.002807287126367 0  0.1972978842919348 -0.9895052844485057 0  0.3067775555384098 -0.9673881235842771 0  0.4142898993786376 -0.935008342554158 0  0.5163977234448196 -0.8938860786856589 0  0.6143924079127288 -0.8440063042725201 0  0.705869879090658 -0.7864399991620487 0  0.7904120265824423 -0.7201044887614121 0  0.8675543389915995 -0.6461786483076528 0  0.935542371695618 -0.5661536435079912 0  0.994900193281927 -0.4807902095324582 0  1.044963344404284 -0.3903849727971058 0  1.083149995340302 -0.2964369326862429 0  1.111225058578639 -0.1988742182784283 0  1.128348719408597 -0.09997175796140692 0  -2.449093978503959 4.919096190380341 0  -2.44901549494007 -4.911563421050525 0  4.911512701872092 2.4486619403417 0  4.919538106037153 -2.450053899940342 0  2.446840061415543 -4.896981873440932 0  2.441251580309375 4.900703559680347 0  -4.91153078916928 -2.448679936757842 0  -4.911530720849703 2.448683697751814 0  -1.749066292328462 4.912417654665615 0  -1.744829054299578 -4.915802504743179 0  4.921977443127495 1.744764184196185 0  4.910701738392501 -1.748626863120563 0  -4.910978572781512 -1.748349313900113 0  -4.911789951051476 1.748085905086622 0  1.746373239146264 4.906378787900383 0  1.747856634975232 -4.894708045544365 0  -1.149265043510499 4.910498242702183 0  -1.130078661149056 -4.918269612073136 0  -4.91108187669107 -1.148539249282809 0  -4.910906464201969 1.148338779610558 0  1.1442321010006 -4.914525558667972 0  1.149269873833351 4.910489966210812 0  4.911237714155981 1.14681949800177 0  4.921837617518621 -1.152530324106538 0  -0.546889547868301 -4.911833825947624 0  -0.5466507963389281 4.920348898074352 0  -4.910124785137811 -0.5490484978548915 0  -4.910149963311627 0.5476024164684896 0  4.909481002969997 -0.5493734084364263 0  4.920859256739794 0.5460843015788081 0  0.5426929707422103 -4.89898010343861 0  0.5513831216439505 4.917237037610609 0  -4.912607062017936 -3.048906310701333 0  4.919130486089623 3.04688313505239 0  4.912122977179086 -3.04889200609465 0  -4.913451458110267 3.045992978417679 0  3.055762444763435 -4.918088401449249 0  -3.049127853442694 -4.912072569035399 0  3.052684627643599 4.914137795970509 0  -3.048570484361155 4.912956629040674 0  -4.909349070110881 -0.04994166790856836 0  0.04513344357986853 -4.913798029996047 0  0.04958275726507694 4.920684804978895 0  4.916249351529385 -0.05132160383771091 0  3.54598500415014 -4.919520553660828 0  -3.549297448829608 4.912
[...]
<PointData  Vectors="f_1346"> 
<DataArray  type="Float64"  Name="f_1346"  NumberOfComponents="3" format="ascii">-1.5613147881993191e-40 -1.6172214214234104e-40 0.0000000000000000e+00  1.9596236479608221e-40 -1.9792410916443191e-40 0.0000000000000000e+00  -2.4015771619802091e-40 -2.4141268067954035e-40 0.0000000000000000e+00  -2.9850259942149880e-40 3.1071741873194701e-40 0.0000000000000000e+00  1.4363563779310637e+01 -5.0952354965086122e-01 0.0000000000000000e+00  3.5061502635245245e-40 3.6035663501151944e-40 0.0000000000000000e+00  8.0115361279881523e-40 8.8222246954914589e-40 0.0000000000000000e+00  -1.7787620252773478e-39 -2.0805426057185976e-39 0.0000000000000000e+00  1.8237186127798318e-38 2.0424106422500671e-38 0.0000000000000000e+00  -5.8709773586191676e-38 -6.4104022527502988e-38 0.0000000000000000e+00  2.2492005519892304e-37 2.4487945732786626e-37 0.0000000000000000e+00  -8.1385768521308343e-37 -9.0593615806863828e-37 0.0000000000000000e+00  4.8128614016509677e-36 5.8343512156818478e-36 0.0000000000000000e+00  -2.9519362905452487e-35 -3.7550889598780285e-35 0.0000000000000000e+00  1.1907443927900757e-34 1.5422872496511606e-34 0.0000000000000000e+00  -2.5329928804180170e-34 -3.4036011258992326e-34 0.0000000000000000e+00  4.9779808102185650e-34 6.9147318268343693e-34 0.0000000000000000e+00  1.7803861438884608e-33 2.5268156750608732e-33 0.0000000000000000e+00  -8.0802106667287932e-33 -1.1616807858392305e-32 0.0000000000000000e+00  2.3554885197536914e-32 3.4723324364284780e-32 0.0000000000000000e+00  -1.3252572081433317e-31 -2.0023828166358886e-31 0.0000000000000000e+00  3.4805050091407938e-31 5.2968748323594365e-31 0.0000000000000000e+00  1.8766482976492153e-31 3.3232172929043227e-31 0.0000000000000000e+00  -1.5964688553011771e-30 -2.7214828392512705e-30 0.0000000000000000e+00  -8.3919991478990742e-31 -1.3395970172650752e-30 0.0000000000000000e+00  -2.2159155552267633e-30 -3.5848737872364035e-30 0.0000000000000000e+00  5.3427327762087318e-30 9.4126526736897052e-30 0.0000000000000000e+00  -1.3142944425890200e-29 -2.2503557487752616e-29 0.0000000000000000e+00  4.4259000480193506e-29 8.0049315033546743e-29 0.0000000000000000e+00  2.6279256208908554e-29 5.0839521218999104e-29 0.0000000000000000e+00  -2.1912553009683031e-28 -4.3222326535263068e-28 0.0000000000000000e+00  -7.3631105946714231e-29 -1.5564645680161492e-28 0.0000000000000000e+00  -1.2439928046575580e-28 -2.6861858804889161e-28 0.0000000000000000e+00  2.1529277964267285e-28 4.6343806240484498e-28 0.0000000000000000e+00  6.4735414115046609e-28 1.4932092374536402e-27 0.0000000000000000e+00  -6.8886381036036906e-29 -1.1636342917218081e-28 0.0000000000000000e+00  1.3926088828169864e-28 4.0543364328024845e-28 0.0000000000000000e+00  -1.0997911559813294e-28 -2.6873583933408527e-28 0.0000000000000000e+00  -4.9136096135411046e-28 -1.4413607778396178e-27 0.0000000000000000e+00  -4.4479547168143351e-28 -1.4447880409335639e-27 0.0000000000000000e+00  -2.8603982128244588e-29 -1.7720977473672001e-28 0.0000000000000000e+00  4.7889630924241810e-28 1.7308796924373624e-27 0.0000000000000000e+00  2.6070315880677486e-28 1.0540054101538474e-27 0.0000000000000000e+00  -5.0291435828981864e-29 -1.9321393720354383e-28 0.0000000000000000e+00  8.7550594885726759e-29 4.3059910432538722e-28 0.0000000000000000e+00  2.7406304419348309e-28 1.1252481290371149e-27 0.0000000000000000e+00  3.7872037733496937e-28 1.8877384056102602e-27 0.0000000000000000e+00  -1.9286319921287526e-28 -1.0770512325953302e-27 0.0000000000000000e+00  8.0935449568843497e-28 6.0761590424982953e-27 0.0000000000000000e+00  -2.2909384903365811e-29 -3.8798993982124377e-29 0.0000000000000000e+00  -4.5792687140064867e-28 -5.2707096876121633e-27 0.0000000000000000e+00  -1.3896446954216719e-28 -3.1002117413784574e-27 0.0000000000000000e+00  -1.9087145406665501e-28 -4.4026715243678124e-27 0.0000000000000000e+00  -3.4656125522709878e-28 -1.0934786718749979e-26 0.0000000000000000e+00  -1.6509888885366819e-28 -1.2532508168615135e-26 0.0000000000000000e+00  1.2125517696037396e-29 -2.1787046656209398e-27 0.0000000000000000e+00  1.6436993527782818e-28 -6.8689369251431042e-27 0.0000000000000000e+00  1.9672013182110896e-28 -2.5112706168742366e-27 0.0000000000000000e+00  4.1499667455319944e-28 -4.4625096804545192e-27 0.0000000000000000e+00  -2.3509580724316828e-28 1.9611682592308777e-27 0.0000000000000000e+00  7.4099088647806589e-28 -6.0144826113973457e-27 0.0000000000000000e+00  8.2693171717511693e-28 -5.4522145004883829e-27 0.0000000000000000e+00  -1.6961174067197102e-28 1.0792127170995541e-27 0.0000000000000000e+00  -1.6044876672712841e-27 8.0114451256000278e-27 0.0000000000000000e+00  -7.1225644939284482e-28 3.1789263519624584e-27 0.0000000000000000e+00  -4.0056241188034470e-28 1.8811531762428059e-27 0.0000000000000000e+00  -1.1721468192745990e-27 4.5813018394750329e-27 0.0000000000000000e+00  -6.9301029272256872e-28 2.4191950181456748e-27 0.0000000000000000e+00  8.0831161755300206e-28 -2.7038171632749172e-27 0.0000000000000000e+00  4.0990142817939302e-28 -1.2718197327433368e-27 0.0000000000000000e+00  8.5027856238090565e-29 -2.7754684329646378e-28 0.0000000000000000e+00  3.3941930091115161e-28 -9.7719106918452922e-28 0.0000000000000000e+00  2.9606852332246607e-28 -7.6356209719632187e-28 0.0000000000000000e+00  -2.5261333246690878e-28 6.3482643299157767e-28 0.0000000000000000e+00  -2.0020169926701164e-28 4.6441477886994011e-28 0.0000000000000000e+00  -1.4531546994833010e-28 3.2138859665860359e-28 0.0000000000000000e+00  1.9497169161264864e-29 -4.7694470854506110e-29 0.0000000000000000e+00  1.0380175667181453e-28 -2.1768299219391948e-28 0.0000000000000000e+00  1.4733443221912418e-28 -2.8643194371603432e-28 0.0000000000000000e+00  -5.4323039496251400e-30 1.4883335884893310e-29 0.0000000000000000e+00  -1.0206907517383822e-28 1.8656889441178961e-28 0.0000000000000000e+00  1.6673460369380004e-29 -3.0797362337859294e-29 0.0000000000000000e+00  5.5950366469879978e-30 -9.2599082587553585e-30 0.0000000000000000e+00  -1.4502716896790458e-29 2.5179410524173803e-29 0.0000000000000000e+00  -1.0719839183681454e-30 1.7333787528631097e-30 0.0000000000000000e+00  1.6280216834036860e-30 -2.6843075867767363e-30 0.0000000000000000e+00  -8.4250653467942458e-31 1.3640362647349957e-30 0.0000000000000000e+00  1.0581491598618334e-31 -1.6896248922930250e-31 0.0000000000000000e+00  -1.2735872120482472e-32 1.9339283574026846e-32 0.0000000000000000e+00  -5.5044218254666892e-34 9.2236804856518284e-34 0.0000000000000000e+00  6.8488213020301701e-33 -9.9104988687530570e-33 0.0000000000000000e+00  3.6863467090840348e-34 -4.4933116674370658e-34 0.0000000000000000e+00  -4.4636920428253770e-34 6.0766101774901566e-34 0.0000000000000000e+00  4.9607634085367604e-35 -7.0708863062870183e-35 0.0000000000000000e+00  -1.9531666576213481e-35 2.5495639455083047e-35 0.0000000000000000e+00  4.5841211590385078e-36 -5.7507495653452021e-36 0.0000000000000000e+00  -1.5623456635506249e-36 1.8990152430768108e-36 0.0000000000000000e+00  5.0548439205439167e-37 -5.9364508233785106e-37 0.0000000000000000e+00  -2.5209452988877127e-37 2.9119233923997083e-37 0.0000000000000000e+00  8.5071876659217721e-38 -9.7023353836284312e-38 0.0000000000000000e+00  -1.7409011173048054e-38 1.9396140746166769e-38 0.0000000000000000e+00  7.0534569501367568e-39 -7.6809109536104469e-39 0.0000000000000000e+00  -4.3134432482326727e-40 4.8110479121625843e-40 0.0000000000000000e+00  -3.3571736226855301e-40 3.4311221684007981e-40 0.0000000000000000e+00  -1.1696107327937032e-41 6.3404721960022420e-42 0.0000000000000000e+00  4.0014758542562988e-40 -3.9187424577545660e-40 0.0000000000000000e+00  -9.2534631606616596e-40 8.7025381974296768e-40 0.0000000000000000e+00  3.5233711394134349e-39 -3.2401308499276995e-39 0.0000000000000000e+00  -2.2967140606504838e-39 2.0652361507639021e-39 0.0000000000000000e+00  -1.5673238104031949e-38 1.3770575719483198e-38 0.0000000000000000e+00  6.2236628429817523e-38 -5.3479839462634330e-38 0.0000000000000000e+00  -8.5946641889493431e-38 7.2403325636119857e-38 0.0000000000000000e+00  -1.4409618727805760e-37 1.1701412280847003e-37 0.0000000000000000e+00  9.5241016731597505e-37 -7.6029746317436894e-37 0.0000000000000000e+00  -1.6825258113003810e-36 1.3214704044837396e-36 0.0000000000000000e+00  -1.3485415196259947e-36 9.8706576296820672e-37 0.0000000000000000e+00  1.3140493083556754e-35 -9.6943277079339136e-36 0.0000000000000000e+00  -2.5668192897911210e-35 1.8583721838372080e-35 0.0000000000000000e+00  -1.7723789188037619e-35 1.1813407720986062e-35 0.0000000000000000e+00  1.9024349495362798e-34 -1.2862592715294271e-34 0.0000000000000000e+00  -3.0789325905408927e-34 2.0636966376424592e-34 0.0000000000000000e+00  -4.0710644306898862e-34 2.5206800555282047e-34 0.0000000000000000e+00  2.5737755801272747e-33 -1.5866758310843427e-33 0.0000000000000000e+00  -2.5768902458603011e-33 1.5881621937467809e-33 0.0000000000000000e+00  -9.2404050254193722e-33 5.2329783192580579e-33 0.0000000000000000e+00  2.9429612641006753e-32 -1.6573262523406060e-32 0.0000000000000000e+00  2.1942966016894317e-33 -3.2046200469062265e-34 0.0000000000000000e+00  -1.5873871670454490e-31 8.1300232119766771e-32 0.0000000000000000e+00  2.1207078384803024e-31 -1.0780846389532188e-31 0.0000000000000000e+00  5.2528565553736268e-31 -2.4154957019701416e-31 0.0000000000000000e+00  -1.5725787310683747e-30 7.2153637683416649e-31 0.0000000000000000e+00  -8.8071599127715744e-31 3.3926213749268585e-31 0.0000000000000000e+00  8.3131341075515635e-30 -3.4399224802372465e-30 0.0000000000000000e+00  -2.5356947976952621e-30 1.2067919846803263e-30 0.0000000000000000e+00  -3.6370253890641454e-29 1.3427012752842396e-29 0.0000000000000000e+00  3.0246304991769467e-29 -1.1490762167422039e-29 0.0000000000000000e+00  1.4684928564322005e-28 -4.8162014814495421e-29 0.0000000000000000e+00  -1.6635606299001882e-28 5.5198722304176801e-29 0.0000000000000000e+00  -6.0656765118400611e-28 1.7471360684274282e-28 0.0000000000000000e+00  6.4196883161039660e-28 -1.9377057729315613e-28 0.0000000000000000e+00  2.5097998660569310e-27 -6.2995192237057813e-28 0.0000000000000000e+00  -1.9069398871415194e-27 5.0306373121992480e-28 0.0000000000000000e+00  -9.6311855134069447e-27 2.0234612961151219e-27 0.0000000000000000e+00  2.4997366470351909e-27 -5.8192574921605796e-28 0.0000000000000000e+00  3.0059975691478953e-26 -5.2121399211627991e-27 0.0000000000000000e+00  1.4548442077635873e-26 -1.9402234572237710e-27 0.0000000000000000e+00  -8.5534824854810243e-26 1.2086786661612700e-26 0.0000000000000000e+00  -1.2960589830362756e-25 1.5358733564283742e-26 0.0000000000000000e+00  1.4560992103387202e-25 -1.4514000998749319e-26 0.0000000000000000e+00  8.4919786234176829e-25 -6.0063788873534717e-26 0.0000000000000000e+00  1.5499773382362065e-24 -7.2902835973886617e-26 0.0000000000000000e+00  1.8897143500188708e-24 -4.9698999127247940e-26 0.0000000000000000e+00  1.8468518667034202e-24 -1.8987401989641730e-26 0.0000000000000000e+00  1.8665807439658323e-24 -7.2476336194851464e-28 0.0000000000000000e+00  1.9975240386368905e-24 2.3500386545187226e-26 0.0000000000000000e+00  1.8516361000036348e-24 5.3581352115064783e-26 0.0000000000000000e+00  1.2126383441183443e-24 5.9126295448363171e-26 0.0000000000000000e+00  3.5977640497901030e-25 2.6376804551725811e-26 0.0000000000000000e+00  -1.6190770209602758e-25 -1.2534689033705575e-26 0.0000000000000000e+00  -2.1341219617580969e-25 -2.2719099548654265e-26 0.0000000000000000e+00  -3.8051125375733389e-26 -5.3218500086717774e-27 0.0000000000000000e+00  5.9598620560296261e-26 8.6028094461078110e-27 0.0000000000000000e+00  3.6457179196255066e-26 6.2586249196532668e-27 0.0000000000000000e+00  -5.0814592753294843e-27 -8.8716180567132308e-28 0.0000000000000000e+00  -1.0649585704395394e-26 -2.2558908250546713e-27 0.0000000000000000e+00  -7.1215771815679164e-28 -1.8896216084521773e-28 0.0000000000000000e+00  2.6593814783867266e-27 6.6456864005032934e-28 0.0000000000000000e+00  3.7707301936505913e-28 1.0831340728305266e-28 0.0000000000000000e+00  -6.3103021917360498e-28 -1.8322800680468812e-28 0.0000000000000000e+00  -8.5478513267604580e-29 -2.8335636543822462e-29 0.0000000000000000e+00  1.4657097906020230e-28 4.9236907174382493e-29 0.0000000000000000e+00  6.2746146190288797e-30 2.7725259291565020e-30 0.0000000000000000e+00  -3.2789158922430684e-29 -1.2474190255815255e-29 0.0000000000000000e+00  2.8417008927520449e-30 1.0123362159024663e-30 0.0000000000000000e+00  6.2430377897529161e-30 2.6911520619237534e-30 0.0000000000000000e+00  -1.8392607331310522e-30 -7.8153205259848108e-31 0.0000000000000000e+00  -9.2008205929474029e-31 -4.4249151904400697e-31 0.0000000000000000e+00  5.9472134684342291e-31 2.8481704625789147e-31 0.0000000000000000e+00  3.2309650557327885e-32 2.0911115480278909e-32 0.0000000000000000e+00  -1.3094079086182945e-31 -6.8536429364557609e-32 0.0000000000000000e+00  2.9556128597011595e-32 1.5021422740789597e-32 0.0000000000000000e+00  1.8783763449903837e-32 1.0804487645436075e-32 0.0000000000000000e+00  -1.2039972563066087e-32 -6.8708713423372735e-33 0.0000000000000000e+00  1.8209738106518063e-34 2.2979256282365151e-35 0.0000000000000000e+00  2.1665389908466818e-33 1.3593769032730868e-33 0.0000000000000000e+00  -8.2196225251566314e-34 -5.1223582436181890e-34 0.0000000000000000e+00  -1.1466045644971307e-34 -8.2615977977886906e-35 0.0000000000000000e+00  1.9775720971251532e-34 1.3415462961818091e-34 0.0000000000000000e+00  -5.5693163361083669e-35 -3.7964335629855255e-35 0.0000000000000000e+00  -1.2923122605556382e-35 -9.6250746620064818e-36 0.0000000000000000e+00  1.4648071617274328e-35 1.0780117083540818e-35 0.0000000000000000e+00  -3.8153638092781706e-36 -2.8244259413084603e-36 0.0000000000000000e+00  -9.0208349664200780e-37 -7.1916952490753534e-37 0.0000000000000000e+00  1.0269076893163661e-36 8.1532155030163423e-37 0.0000000000000000e+00  -2.9706589747629476e-37 -2.3943807035506120e-37 0.0000000000000000e+00  -3.6565206652948528e-38 -3.1212891823132103e-38 0.0000000000000000e+00  6.4433474082929043e-38 5.5043842545055653e-38 0.0000000000000000e+00  -2.4535174820954471e-38 -2.1326768791037925e-38 0.0000000000000000e+00  8.8526399901122209e-40 7.5365059924645170e-40 0.0000000000000000e+00  3.4393022732054336e-39 3.1312757234601768e-39 0.0000000000000000e+00  -1.7974198716217707e-39 -1.6652110291644430e-39 0.0000000000000000e+00  3.8819208023064462e-40 3.6623078858703740e-40 0.0000000000000000e+00  1.8565216240853839e-40 1.8056612445342952e-40 0.0000000000000000e+00  3.5750704962965655e-40 3.7771534238301266e-40 0.0000000000000000e+00  -1.0426271077025996e-39 -1.1046555453716313e-39 0.0000000000000000e+00  2.0540395252531920e-39 2.2391176161246443e-39 0.0000000000000000e+00  -1.3926033014406700e-38 -1.5152406065455966e-38 0.0000000000000000e+00  9.9990924002219259e-38 1.0926728798892052e-37 0.0000000000000000e+00  -2.3214324375436174e-37 -2.5731407174172892e-37 0.0000000000000000e+00  2.6980631188332728e-37 3.1176737605093200e-37 0.0000000000000000e+00  -4.1710724105404555e-36 -4.9774496741291166e-36 0.0000000000000000e+00  1.3166736847849692e-35 1.5983424606256477e-35 0.0000000000000000e+00  -5.7037144289184182e-35 -7.0698655822776511e-35 0.0000000000000000e+00  1.2679445867371433e-34 1.6277721172918276e-34 0.0000000000000000e+00  -2.6049158294147741e-34 -3.5257465271919467e-34 0.0000000000000000e+00  1.3573898099595613e-33 1.8298236937282726e-33 0.0000000000000000e+00  -1.0228710051254811e-33 -1.3715290681768545e-33 0.0000000000000000e+00  5.5046824037078280e-33 7.2931657856587841e-33 0.0000000000000000e+00  4.2267277372150678e-32 6.4671557915481599e-32 0.0000000000000000e+00  -1.9893307694215493e-31 -2.9890274875592326e-31 0.0000000000000000e+00  -5.5054511139011986e-31 -8.9305941709398724e-31 0.0000000000000000e+00  1.0603673748778636e-30 1.7546677124840339e-30 0.0000000000000000e+00  -1.2072403304357786e-31 -1.8690319426821076e-31 0.0000000000000000e+00  -3.2597085520461613e-30 -5.6159023902663787e-30 0.0000000000000000e+00  9.6484161242923792e-30 1.6496531420888496e-29 0.0000000000000000e+00  1.4604220683062442e-29 2.7392915018746588e-29 0.0000000000000000e+00  -9.5310982927472610e-29 -1.7816288590480057e-28 0.0000000000000000e+00  3.0912009257217894e-29 5.8868163255294346e-29 0.0000000000000000e+00  9.9866590117402922e-29 2.0826390877045410e-28 0.0000000000000000e+00  3.7791478752204149e-29 7.3891492240584597e-29 0.0000000000000000e+00  3.2686194176814187e-28 6.8864517209399026e-28 0.0000000000000000e+00  1.3976354146657775e-28 3.3049480133222855e-28 0.0000000000000000e+00  -3.9408249862132547e-28 -8.5906768970301397e-28 0.0000000000000000e+00  -4.0115887742336348e-28 -1.0646710035160780e-27 0.0000000000000000e+00  3.9749270091634703e-28 9.8657390381072956e-28 0.0000000000000000e+00  7.2230781765025127e-28 1.8989249181062213e-27 0.0000000000000000e+00  3.8207700103817567e-28 1.1792672909506579e-27 0.0000000000000000e+00  8.9108394476478327e-29 4.7049915964401524e-28 0.0000000000000000e+00  -8.2463452743180954e-28 -2.5815901453526997e-27 0.0000000000000000e+00  -2.9642528983827480e-28 -8.8459153907579583e-28 0.0000000000000000e+00  -1.3212622214113353e-28 -3.9326422843376034e-28 0.0000000000000000e+00  -4.0184176972258568e-28 -1.6292712871747305e-27 0.0000000000000000e+00  -3.5293176164288249e-28 -1.5511403961709214e-27 0.0000000000000000e+00  -3.2592104602086682e-28 -1.9870916381764969e-27 0.0000000000000000e+00  2.3941343616901574e-29 -3.6630899363517184e-28 0.0000000000000000e+00  3.5690501946282921e-28 1.9858792474956507e-27 0.0000000000000000e+00  4.0628662571622525e-29 1.1546640145640372e-28 0.0000000000000000e+00  -2.5252252422789915e-28 -2.4323905195014266e-27 0.0000000000000000e+00  1.3511463474481787e-28 1.2054385972821252e-27 0.0000000000000000e+00  7.8709036154352960e-29 1.0649830326699412e-27 0.0000000000000000e+00  -5.9189891833886307e-29 -1.3854210487664974e-27 0.0000000000000000e+00  -8.0535412250699811e-30 -2.3742664384786573e-28 0.0000000000000000e+00  -6.1100594594099972e-30 -1.4776712525534015e-27 0.0000000000000000e+00  -5.2522307004037148e-29 2.3028144977592382e-27 0.0000000000000000e+00  -1.2102858420431581e-28 2.1515496370220528e-27 0.0000000000000000e+00  6.6574272853958293e-29 -1.6563732506303388e-27 0.0000000000000000e+00  -2.0808411573475500e-29 -1.9393945309174532e-28 0.0000000000000000e+00  2.3470146666178424e-28 -2.3195488271432291e-27 0.0000000000000000e+00  -2.8355197456027446e-28 1.6983229723034194e-27 0.0000000000000000e+00  -1.7205804226192316e-28 7.4548444094093365e-28 0.0000000000000000e+00  4.6189066682383310e-29 -7.3022755556865290e-28 0.0000000000000000e+00  -2.7187250136826686e-29 -2.3876553481497208e-28 0.0000000000000000e+00  5.7133951569817690e-28 -2.7805246320470696e-27 0.0000000000000000e+00  7.2496615407055503e-28 -3.3711573665845662e-27 0.0000000000000000e+00  1.1994182472848460e-27 -4.6557359374930330e-27 0.0000000000000000e+00  3.8946183066139925e-28 -1.2824445295715925e-27 0.0000000000000000e+00  -3.2098950350184108e-28 1.2406223882349007e-27 0.0000000000000000e+00  -8.0341872468779989e-28 2.4887264920046846e-27 0.0000000000000000e+00  -9.5270879186380033e-28 2.7183716127646917e-27 0.0000000000000000e+00  -2.7187235424939692e-28 6.8643825244202075e-28 0.0000000000000000e+00  1.6270176107271896e-28 -4.5322533695628085e-28 0.0000000000000000e+00  2.0241245927796476e-28 -5.1420278521681615e-28 0.0000000000000000e+00  8.3055450688882009e-28 -1.8822693807379392e-27 0.0000000000000000e+00  3.4429906498903580e-28 -7.3605607947381049e-28 0.0000000000000000e+00  -2.8414332270151267e-28 5.9620737898387500e-28 0.0000000000000000e+00  -1.0952335217043960e-29 2.7904679755656691e-29 0.0000000000000000e+00  3.1523388425938127e-29 -6.6681771443197329e-29 0.0000000000000000e+00  7.8139325570528888e-29 -1.5025847912517582e-28 0.0000000000000000e+00  -1.5958490941913809e-29 3.0736082046322812e-29 0.0000000000000000e+00  -2.3404857256092775e-29 4.1765294467820063e-29 0.0000000000000000e+00  2.23