<?xml version="1.0"?>
<VTKFile type="UnstructuredGrid"  version="0.1"  >
<UnstructuredGrid>
<Piece  NumberOfPoints="11902" NumberOfCells="23402">
<Points>
<DataArray  type="Float64"  NumberOfComponents="3"  format="ascii">-5 -5 0  5 -5 0  5 5 0  -5 5 0  1.265471901266782 0.001275516879703514 0  -4.9 -5 0  -4.8 -5 0  -4.7 -5 0  -4.6 -5 0  -4.5 -5 0  -4.4 -5 0  -4.3 -5 0  -4.2 -5 0  -4.1 -5 0  -4 -5 0  -3.9 -5 0  -3.8 -5 0  -3.7 -5 0  -3.6 -5 0  -3.5 -5 0  -3.4 -5 0  -3.3 -5 0  -3.2 -5 0  -3.1 -5 0  -3 -5 0  -2.9 -5 0  -2.8 -5 0  -2.7 -5 0  -2.6 -5 0  -2.5 -5 0  -2.4 -5 0  -2.3 -5 0  -2.2 -5 0  -2.1 -5 0  -2 -5 0  -1.9 -5 0  -1.8 -5 0  -1.7 -5 0  -1.6 -5 0  -1.5 -5 0  -1.4 -5 0  -1.3 -5 0  -1.2 -5 0  -1.1 -5 0  -1 -5 0  -0.9000000000000004 -5 0  -0.7999999999999998 -5 0  -0.7000000000000002 -5 0  -0.5999999999999996 -5 0  -0.5 -5 0  -0.4000000000000004 -5 0  -0.2999999999999998 -5 0  -0.2000000000000002 -5 0  -0.09999999999999964 -5 0  0 -5 0  0.09999999999999964 -5 0  0.2000000000000002 -5 0  0.2999999999999998 -5 0  0.4000000000000004 -5 0  0.5 -5 0  0.5999999999999996 -5 0  0.7000000000000002 -5 0  0.7999999999999998 -5 0  0.9000000000000004 -5 0  1 -5 0  1.1 -5 0  1.2 -5 0  1.3 -5 0  1.4 -5 0  1.5 -5 0  1.6 -5 0  1.7 -5 0  1.8 -5 0  1.9 -5 0  2 -5 0  2.1 -5 0  2.2 -5 0  2.3 -5 0  2.4 -5 0  2.5 -5 0  2.6 -5 0  2.7 -5 0  2.8 -5 0  2.9 -5 0  3 -5 0  3.1 -5 0  3.199999999999999 -5 0  3.300000000000001 -5 0  3.4 -5 0  3.5 -5 0  3.6 -5 0  3.699999999999999 -5 0  3.800000000000001 -5 0  3.9 -5 0  4 -5 0  4.1 -5 0  4.199999999999999 -5 0  4.300000000000001 -5 0  4.4 -5 0  4.5 -5 0  4.6 -5 0  4.699999999999999 -5 0  4.800000000000001 -5 0  4.9 -5 0  5 -4.9 0  5 -4.8 0  5 -4.7 0  5 -4.6 0  5 -4.5 0  5 -4.4 0  5 -4.3 0  5 -4.2 0  5 -4.1 0  5 -4 0  5 -3.9 0  5 -3.8 0  5 -3.7 0  5 -3.6 0  5 -3.5 0  5 -3.4 0  5 -3.3 0  5 -3.2 0  5 -3.1 0  5 -3 0  5 -2.9 0  5 -2.8 0  5 -2.7 0  5 -2.6 0  5 -2.5 0  5 -2.4 0  5 -2.3 0  5 -2.2 0  5 -2.1 0  5 -2 0  5 -1.9 0  5 -1.8 0  5 -1.7 0  5 -1.6 0  5 -1.5 0  5 -1.4 0  5 -1.3 0  5 -1.2 0  5 -1.1 0  5 -1 0  5 -0.9000000000000004 0  5 -0.7999999999999998 0  5 -0.7000000000000002 0  5 -0.5999999999999996 0  5 -0.5 0  5 -0.4000000000000004 0  5 -0.2999999999999998 0  5 -0.2000000000000002 0  5 -0.09999999999999964 0  5 0 0  5 0.09999999999999964 0  5 0.2000000000000002 0  5 0.2999999999999998 0  5 0.4000000000000004 0  5 0.5 0  5 0.5999999999999996 0  5 0.7000000000000002 0  5 0.7999999999999998 0  5 0.9000000000000004 0  5 1 0  5 1.1 0  5 1.2 0  5 1.3 0  5 1.4 0  5 1.5 0  5 1.6 0  5 1.7 0  5 1.8 0  5 1.9 0  5 2 0  5 2.1 0  5 2.2 0  5 2.3 0  5 2.4 0  5 2.5 0  5 2.6 0  5 2.7 0  5 2.8 0  5 2.9 0  5 3 0  5 3.1 0  5 3.199999999999999 0  5 3.300000000000001 0  5 3.4 0  5 3.5 0  5 3.6 0  5 3.699999999999999 0  5 3.800000000000001 0  5 3.9 0  5 4 0  5 4.1 0  5 4.199999999999999 0  5 4.300000000000001 0  5 4.4 0  5 4.5 0  5 4.6 0  5 4.699999999999999 0  5 4.800000000000001 0  5 4.9 0  4.9 5 0  4.8 5 0  4.7 5 0  4.6 5 0  4.5 5 0  4.4 5 0  4.3 5 0  4.2 5 0  4.1 5 0  4 5 0  3.9 5 0  3.8 5 0  3.7 5 0  3.6 5 0  3.5 5 0  3.4 5 0  3.3 5 0  3.2 5 0  3.1 5 0  3 5 0  2.9 5 0  2.8 5 0  2.7 5 0  2.6 5 0  2.5 5 0  2.4 5 0  2.3 5 0  2.2 5 0  2.1 5 0  2 5 0  1.9 5 0  1.8 5 0  1.7 5 0  1.6 5 0  1.5 5 0  1.4 5 0  1.3 5 0  1.2 5 0  1.1 5 0  1 5 0  0.9000000000000004 5 0  0.7999999999999998 5 0  0.7000000000000002 5 0  0.5999999999999996 5 0  0.5 5 0  0.4000000000000004 5 0  0.2999999999999998 5 0  0.2000000000000002 5 0  0.09999999999999964 5 0  0 5 0  -0.09999999999999964 5 0  -0.2000000000000002 5 0  -0.2999999999999998 5 0  -0.4000000000000004 5 0  -0.5 5 0  -0.5999999999999996 5 0  -0.7000000000000002 5 0  -0.7999999999999998 5 0  -0.9000000000000004 5 0  -1 5 0  -1.1 5 0  -1.2 5 0  -1.3 5 0  -1.4 5 0  -1.5 5 0  -1.6 5 0  -1.7 5 0  -1.8 5 0  -1.9 5 0  -2 5 0  -2.1 5 0  -2.2 5 0  -2.3 5 0  -2.4 5 0  -2.5 5 0  -2.6 5 0  -2.7 5 0  -2.8 5 0  -2.9 5 0  -3 5 0  -3.1 5 0  -3.199999999999999 5 0  -3.300000000000001 5 0  -3.4 5 0  -3.5 5 0  -3.6 5 0  -3.699999999999999 5 0  -3.800000000000001 5 0  -3.9 5 0  -4 5 0  -4.1 5 0  -4.199999999999999 5 0  -4.300000000000001 5 0  -4.4 5 0  -4.5 5 0  -4.6 5 0  -4.699999999999999 5 0  -4.800000000000001 5 0  -4.9 5 0  -5 4.9 0  -5 4.8 0  -5 4.7 0  -5 4.6 0  -5 4.5 0  -5 4.4 0  -5 4.3 0  -5 4.2 0  -5 4.1 0  -5 4 0  -5 3.9 0  -5 3.8 0  -5 3.7 0  -5 3.6 0  -5 3.5 0  -5 3.4 0  -5 3.3 0  -5 3.2 0  -5 3.1 0  -5 3 0  -5 2.9 0  -5 2.8 0  -5 2.7 0  -5 2.6 0  -5 2.5 0  -5 2.4 0  -5 2.3 0  -5 2.2 0  -5 2.1 0  -5 2 0  -5 1.9 0  -5 1.8 0  -5 1.7 0  -5 1.6 0  -5 1.5 0  -5 1.4 0  -5 1.3 0  -5 1.2 0  -5 1.1 0  -5 1 0  -5 0.9000000000000004 0  -5 0.7999999999999998 0  -5 0.7000000000000002 0  -5 0.5999999999999996 0  -5 0.5 0  -5 0.4000000000000004 0  -5 0.2999999999999998 0  -5 0.2000000000000002 0  -5 0.09999999999999964 0  -5 0 0  -5 -0.09999999999999964 0  -5 -0.2000000000000002 0  -5 -0.2999999999999998 0  -5 -0.4000000000000004 0  -5 -0.5 0  -5 -0.5999999999999996 0  -5 -0.7000000000000002 0  -5 -0.7999999999999998 0  -5 -0.9000000000000004 0  -5 -1 0  -5 -1.1 0  -5 -1.2 0  -5 -1.3 0  -5 -1.4 0  -5 -1.5 0  -5 -1.6 0  -5 -1.7 0  -5 -1.8 0  -5 -1.9 0  -5 -2 0  -5 -2.1 0  -5 -2.2 0  -5 -2.3 0  -5 -2.4 0  -5 -2.5 0  -5 -2.6 0  -5 -2.7 0  -5 -2.8 0  -5 -2.9 0  -5 -3 0  -5 -3.1 0  -5 -3.199999999999999 0  -5 -3.300000000000001 0  -5 -3.4 0  -5 -3.5 0  -5 -3.6 0  -5 -3.699999999999999 0  -5 -3.800000000000001 0  -5 -3.9 0  -5 -4 0  -5 -4.1 0  -5 -4.199999999999999 0  -5 -4.300000000000001 0  -5 -4.4 0  -5 -4.5 0  -5 -4.6 0  -5 -4.699999999999999 0  -5 -4.800000000000001 0  -5 -4.9 0  1.257654696671993 0.09202974848457533 0  1.235495087318099 0.1896649282727682 0  1.201420556641111 0.2866794927453014 0  1.158760619720941 0.3754204250931044 0  1.099868671311645 0.4666673709545055 0  1.032795284575453 0.5497895817210624 0  0.9544439528683276 0.630447456266818 0  0.8672888234473433 0.7052029295200946 0  0.7754706111233749 0.7701820345635008 0  0.6740503415569093 0.8276827097969784 0  0.5601067737033423 0.8799474126853569 0  0.4459422572903933 0.9250593547240575 0  0.3363531945728285 0.9563689601947704 0  0.2088070019979903 0.9795514895409932 0  0.08676026867764906 0.9974857818193175 0  -0.0260066947772799 1.001152645275229 0  -0.1436604391380695 0.9877868452002431 0  -0.2749086131924068 0.9674363228482171 0  -0.3955981506304244 0.9430428617313379 0  -0.5043652322875517 0.9084087876352965 0  -0.6135221275219237 0.8620912001161417 0  -0.7153813500733444 0.8067348486951916 0  -0.809570339245047 0.7427186509868907 0  -0.9012857762605474 0.669027606561558 0  -0.9881215747119145 0.5885291707649077 0  -1.063079872477734 0.5065144988541319 0  -1.125573611066426 0.4225774041401268 0  -1.181870807310359 0.3274724568916253 0  -1.218872860607731 0.2416274853781143 0  -1.243007527625712 0.1483694180689797 0  -1.252996794516557 0.05300547175218023 0  -1.252916895521432 -0.05071044229237567 0  -1.242793789545015 -0.1453327019617953 0  -1.218516772266985 -0.2350831155379192 0  -1.175920510948242 -0.3309257155170519 0  -1.125867508176011 -0.423785331447938 0  -1.065527183324808 -0.5061667553563961 0  -0.9907520392534876 -0.5875360134729137 0  -0.904511839969776 -0.6669753401854064 0  -0.8139300828949496 -0.7378525068812326 0  -0.7190231216168796 -0.7981725940543506 0  -0.6146970140407808 -0.8517449054347204 0  -0.4978355983440381 -0.9015785322278245 0  -0.3857627510861882 -0.9413929257194567 0  -0.2716153549133035 -0.9673011609699949 0  -0.1417893489180162 -0.9879032737469021 0  -0.02740978676961928 -1.000365782876797 0  0.08464369828738427 -0.993027750772137 0  0.2159561835046303 -0.9749306379128073 0  0.339560501666597 -0.954340436059834 0  0.4502656286597681 -0.9236976545811031 0  0.5630749582420144 -0.879121786224996 0  0.6754615277799761 -0.8274210223054649 0  0.7750533757823497 -0.7715030203450802 0  0.8657589507407081 -0.7073235137038639 0  0.951090160582881 -0.6316925956865426 0  1.030547325117876 -0.5481070022335721 0  1.102081560955415 -0.4643452485328948 0  1.159764493107966 -0.3754746845776701 0  1.203308837809753 -0.2847669676696959 0  1.236244173814506 -0.189158153838184 0  1.258063697995607 -0.09233966817003762 0  -2.448506553574138 4.918017379855977 0  -2.448375379913688 -4.910386619989567 0  4.910306467986538 2.447817895486169 0  4.918443437955595 -2.44928677040357 0  2.446095518095773 -4.895599695092757 0  2.440531093014207 4.899366210145837 0  -4.91033375013624 -2.447845208574664 0  -4.910331075767776 2.447849461311662 0  -1.748458454860575 4.910861503615298 0  -1.744246965829931 -4.914308345476125 0  4.920453301874004 1.744000083138546 0  4.908961481540905 -1.747751492435749 0  -4.909256552271881 -1.747486568878435 0  -4.910080646213927 1.747232632550524 0  1.745726834827026 4.904706161645198 0  1.747132836007673 -4.892830621513817 0  -1.148781021723636 4.908611423430447 0  -1.129642848442696 -4.916544350523277 0  -4.908925699140744 -1.147829170605911 0  -4.908743515894604 1.147630030032983 0  1.143778891494229 -4.912719884784828 0  1.148790222005374 4.908597285038293 0  4.909064940708427 1.146103676638713 0  4.919928822396566 -1.151897691360096 0  -0.5466368954402093 -4.909782563467897 0  -0.5464234125196017 4.918490382449418 0  -4.907619318712752 -0.5486536201193012 0  -4.907643312551002 0.5472121328899709 0  4.906935049668069 -0.5489715091162976 0  4.918632059838997 0.5457355571338106 0  0.5424161286733712 -4.896623782541747 0  0.5511499950657112 4.915304059111562 0  -4.911799652556431 -3.048216569726208 0  4.918377299075892 3.046237646163648 0  4.911306857767848 -3.048191303790497 0  -4.912648189364308 3.045309024249451 0  3.055238893781834 -4.917298874197372 0  -3.048564849499007 -4.911228369649047 0  3.052133667269637 4.913307827512029 0  -3.04801122644807 4.912119181855529 0  -4.906712885888897 -0.04990214350340864 0  0.04511778113692623 -4.911730607356208 0  0.04956442497492942 4.918777516156992 0  4.913792095819785 -0.05128507181213204 0  3.545570519216782 -4.918968380275766 0  -3.54884676684
[...]
<PointData  Vectors="f_7170"> 
<DataArray  type="Float64"  Name="f_7170"  NumberOfComponents="3" format="ascii">1.0858922120100762e-40 8.9225909908186664e-41 0.0000000000000000e+00  -1.3345234332115326e-40 1.0367471710691891e-40 0.0000000000000000e+00  -8.5339652121326556e-42 1.4002951954840683e-41 0.0000000000000000e+00  9.2513306460033774e-41 -8.6292064305926263e-41 0.0000000000000000e+00  1.0720513870654557e+01 -1.1308136034645597e-02 0.0000000000000000e+00  -1.9932888677510977e-40 -1.6741520058416303e-40 0.0000000000000000e+00  -7.2748131918784134e-41 -9.2605432923551559e-41 0.0000000000000000e+00  2.5460541022735465e-40 2.5449720084202632e-40 0.0000000000000000e+00  -8.7594193105568701e-39 -7.3600098600496661e-39 0.0000000000000000e+00  2.9366612968620420e-38 2.3336372045904841e-38 0.0000000000000000e+00  -1.5624787114033863e-37 -1.1765958334163449e-37 0.0000000000000000e+00  5.0648215480101375e-37 3.8813374524380465e-37 0.0000000000000000e+00  -1.7462890699631592e-36 -1.7378812997322529e-36 0.0000000000000000e+00  6.4892376412715797e-36 8.8028714507018102e-36 0.0000000000000000e+00  -2.9507693973023357e-35 -3.6841980259980810e-35 0.0000000000000000e+00  4.7909358601104787e-35 6.9186321901428358e-35 0.0000000000000000e+00  -5.5641116569777546e-35 -1.2286883689963883e-34 0.0000000000000000e+00  -3.6646832670772716e-34 -4.4759191027471368e-34 0.0000000000000000e+00  1.7600805389775398e-33 2.3403062948576549e-33 0.0000000000000000e+00  -4.6645484718891904e-33 -7.4386319826698757e-33 0.0000000000000000e+00  2.8356801282652836e-32 4.2085705134300264e-32 0.0000000000000000e+00  -7.6406920264862717e-32 -1.1156689770817162e-31 0.0000000000000000e+00  -6.6907587201059960e-32 -4.7527169346302651e-32 0.0000000000000000e+00  5.0654686722113052e-31 4.4350677195698323e-31 0.0000000000000000e+00  9.3041817501306305e-32 3.9881173026462743e-31 0.0000000000000000e+00  3.1578085195777181e-32 8.8058018666810513e-31 0.0000000000000000e+00  -8.4815657616611650e-31 -2.1118331139975562e-30 0.0000000000000000e+00  1.3604662162409271e-30 8.7103445542286210e-30 0.0000000000000000e+00  -6.3764883554058710e-30 -2.3338308500515059e-29 0.0000000000000000e+00  -4.3227787925544753e-30 -1.6939505474791057e-29 0.0000000000000000e+00  4.0052397090003407e-29 1.2088471816709061e-28 0.0000000000000000e+00  1.1272541854875986e-29 4.0993058255444626e-29 0.0000000000000000e+00  -3.0899896532576914e-30 -2.0114455518885635e-29 0.0000000000000000e+00  -2.0587876553887027e-29 -4.2662309235208108e-29 0.0000000000000000e+00  -5.0265920552468392e-29 4.6895617656156349e-29 0.0000000000000000e+00  -2.5847207514733147e-29 -2.9071954122428813e-28 0.0000000000000000e+00  -3.3750881738652819e-29 -2.3987266954528369e-28 0.0000000000000000e+00  -2.4852798016697449e-30 -6.4757464816216360e-29 0.0000000000000000e+00  5.1756252379237172e-29 4.3617745291416249e-28 0.0000000000000000e+00  7.3484765348157920e-29 6.4600505978171720e-28 0.0000000000000000e+00  9.5283876309794927e-29 5.8095365100020630e-28 0.0000000000000000e+00  6.4777482712521678e-29 -1.5462898488988986e-28 0.0000000000000000e+00  6.8019382173130412e-29 -2.7305895751174624e-29 0.0000000000000000e+00  7.6585382332503581e-29 3.7750055139138577e-28 0.0000000000000000e+00  2.7032902510405556e-29 -7.7548834153131213e-29 0.0000000000000000e+00  -1.8494386209619216e-28 -8.4176990672238887e-28 0.0000000000000000e+00  -9.2993141533027424e-29 -6.0219527909308007e-28 0.0000000000000000e+00  8.4758001893542551e-29 5.1243947941160283e-28 0.0000000000000000e+00  2.7246764976738300e-30 -6.8419319122269688e-28 0.0000000000000000e+00  -9.3730184191164449e-29 -2.0004497434366090e-28 0.0000000000000000e+00  -2.2834833224778124e-28 3.4912209715265942e-29 0.0000000000000000e+00  -2.5770320618357117e-28 -6.4773451634629764e-29 0.0000000000000000e+00  -1.6415538723341311e-28 -1.8302826898220989e-28 0.0000000000000000e+00  5.4557486673702103e-30 -1.0742071989597608e-28 0.0000000000000000e+00  2.7650232912061454e-29 -8.2206559911128538e-29 0.0000000000000000e+00  -6.0680517682888016e-29 2.2334495421298796e-29 0.0000000000000000e+00  -1.1255014986546069e-28 -2.1518118152086152e-28 0.0000000000000000e+00  -1.3610146836330114e-28 -3.2252294433488127e-28 0.0000000000000000e+00  -1.0852252627567085e-28 -2.7206888559577178e-28 0.0000000000000000e+00  -1.3986734107046406e-28 -3.3456753121252752e-29 0.0000000000000000e+00  -1.6814188970731491e-28 -5.9522955546651322e-28 0.0000000000000000e+00  -1.4821641588651319e-28 -6.5572705438726739e-28 0.0000000000000000e+00  -8.8108832771610669e-29 6.9674009920783696e-29 0.0000000000000000e+00  -6.8061200020297732e-29 7.4152031011483665e-28 0.0000000000000000e+00  -1.2794891611021776e-29 3.6769321353906796e-28 0.0000000000000000e+00  8.2227388011854578e-29 2.2697850301717680e-28 0.0000000000000000e+00  3.9723354540716405e-29 6.1105978927840309e-28 0.0000000000000000e+00  2.5178697884650938e-29 2.8161102901971409e-28 0.0000000000000000e+00  2.0730137961574657e-29 -4.5608153045489662e-28 0.0000000000000000e+00  -3.1180214130476052e-29 -2.8489250981042232e-28 0.0000000000000000e+00  -2.5656427617273103e-29 1.1900190401646438e-28 0.0000000000000000e+00  -7.1772974622366702e-29 2.5027008000893028e-29 0.0000000000000000e+00  -3.1708718993188378e-29 6.8002733558033022e-30 0.0000000000000000e+00  2.0529790668743502e-29 3.9881927948340986e-29 0.0000000000000000e+00  2.6392941776920500e-29 -2.0311590238680364e-28 0.0000000000000000e+00  1.6729712846249800e-29 -7.5153004007865479e-29 0.0000000000000000e+00  2.1137908350678135e-30 -2.6879504007325369e-29 0.0000000000000000e+00  -1.2897926879047302e-29 7.1639093340327191e-29 0.0000000000000000e+00  -1.6967718069518080e-29 8.7377455693156900e-29 0.0000000000000000e+00  2.9836649008761146e-30 -3.4728240012084921e-30 0.0000000000000000e+00  1.3314109124748097e-29 -4.7605899862095870e-29 0.0000000000000000e+00  -2.3382958132333893e-30 8.0959847238164009e-30 0.0000000000000000e+00  -6.7739022849163709e-31 2.1796834373629570e-30 0.0000000000000000e+00  3.2505853782350955e-30 -6.2761480325367030e-30 0.0000000000000000e+00  4.2612317972849838e-31 -4.9676203464425689e-31 0.0000000000000000e+00  -4.4082953276124761e-31 6.8587831451313860e-31 0.0000000000000000e+00  1.8008658932317179e-31 -2.9932774282896318e-31 0.0000000000000000e+00  -4.4322959732671951e-32 5.8219885461464075e-32 0.0000000000000000e+00  3.9569357717441526e-33 -5.6901289104961247e-33 0.0000000000000000e+00  2.6289992515446994e-33 -2.3304098951740401e-33 0.0000000000000000e+00  -2.7501331803168216e-33 3.0364148673903976e-33 0.0000000000000000e+00  2.8792626435520590e-34 -2.1435538312776659e-34 0.0000000000000000e+00  -1.2509803085221401e-35 -3.5799007612475937e-35 0.0000000000000000e+00  3.7184011806196433e-35 -2.1162253444518340e-35 0.0000000000000000e+00  6.1167488379715742e-37 -3.1739749141537008e-36 0.0000000000000000e+00  -9.0439066512689857e-37 1.1539450219530320e-36 0.0000000000000000e+00  3.9370214281490880e-37 -3.5131495504542070e-37 0.0000000000000000e+00  -2.0182384334704710e-37 1.8434186815557368e-37 0.0000000000000000e+00  7.6738661057179132e-38 -6.6020340923699546e-38 0.0000000000000000e+00  -2.2988622246300619e-38 1.8400056903646119e-38 0.0000000000000000e+00  6.8892590668270482e-39 -5.1376959941357619e-39 0.0000000000000000e+00  -2.0293415655237099e-39 1.6015425601800111e-39 0.0000000000000000e+00  -3.0380095168205478e-42 2.3288825263335134e-41 0.0000000000000000e+00  1.9562884271400586e-40 -1.6277599862485759e-40 0.0000000000000000e+00  2.9767889567958101e-41 -2.0528512131936093e-41 0.0000000000000000e+00  1.1031155063329127e-40 -5.4274907930539236e-41 0.0000000000000000e+00  -1.8653322378118305e-40 7.7052494381818362e-41 0.0000000000000000e+00  -4.4034275557734094e-40 5.6698612468065888e-40 0.0000000000000000e+00  1.9895492855280136e-39 -1.7499017690409553e-39 0.0000000000000000e+00  -3.4481629602909246e-39 1.9260632401111887e-39 0.0000000000000000e+00  -8.5946085264077175e-40 4.2711976938237931e-39 0.0000000000000000e+00  2.1678940304342755e-38 -2.3295755942774369e-38 0.0000000000000000e+00  -5.6091064779225422e-38 4.1576303958284886e-38 0.0000000000000000e+00  3.6235164990968991e-38 1.2030829245372509e-38 0.0000000000000000e+00  2.2727619751315139e-37 -2.6326459970452004e-37 0.0000000000000000e+00  -7.8414488529681153e-37 5.9623661848940863e-37 0.0000000000000000e+00  6.6156385012242636e-37 -6.6566935305577004e-38 0.0000000000000000e+00  2.6891091446365915e-36 -2.8427572817892611e-36 0.0000000000000000e+00  -1.0502573425705088e-35 6.8834742792311205e-36 0.0000000000000000e+00  9.9874167966224640e-36 -1.1015693325697149e-36 0.0000000000000000e+00  3.5532485832133611e-35 -3.0472858683020845e-35 0.0000000000000000e+00  -1.3473560941248560e-34 6.6775488232922851e-35 0.0000000000000000e+00  1.1382186775064095e-34 4.7318326411874363e-36 0.0000000000000000e+00  4.9870820192333917e-34 -3.1620753529932289e-34 0.0000000000000000e+00  -1.7130413563711353e-33 6.0626485742094284e-34 0.0000000000000000e+00  6.9613606283440921e-34 3.3853174789411601e-34 0.0000000000000000e+00  7.5348284355239564e-33 -3.3195530035680174e-33 0.0000000000000000e+00  -1.8335107157815930e-32 4.7705897112265656e-33 0.0000000000000000e+00  -6.5736243044435047e-33 7.3661095869895867e-33 0.0000000000000000e+00  9.8331723397548283e-32 -3.3298928608763409e-32 0.0000000000000000e+00  -1.1555918275509106e-31 1.6107606256846483e-32 0.0000000000000000e+00  -2.7058397432569544e-31 1.2006759130778155e-31 0.0000000000000000e+00  8.6675716683862219e-31 -2.0154912634584293e-31 0.0000000000000000e+00  2.7044856779573658e-32 -2.4182471285917353e-31 0.0000000000000000e+00  -3.5726466044061361e-30 8.1923094609793688e-31 0.0000000000000000e+00  4.3612815132633434e-30 -2.5578175984525727e-31 0.0000000000000000e+00  9.5335107357111129e-30 -7.6921082895236932e-31 0.0000000000000000e+00  -3.2697643487088894e-29 7.2396503974772441e-30 0.0000000000000000e+00  -1.8367859454069432e-29 -1.2218265149266710e-29 0.0000000000000000e+00  1.9822077989449155e-28 -8.0874037571769807e-29 0.0000000000000000e+00  7.5112404161120092e-29 7.3035277698440279e-29 0.0000000000000000e+00  -1.0139599639586898e-27 5.9796916861313272e-28 0.0000000000000000e+00  -1.6899000655901700e-27 6.5986079249631166e-28 0.0000000000000000e+00  2.9747598014612385e-27 -2.2254524622169327e-27 0.0000000000000000e+00  1.0739916102198084e-26 -5.9462788759693923e-27 0.0000000000000000e+00  1.5707606156523526e-26 -6.7835474563797706e-27 0.0000000000000000e+00  2.8802250191682911e-28 1.5113802067012888e-27 0.0000000000000000e+00  -5.8082676180256416e-26 2.1857209867110362e-26 0.0000000000000000e+00  -1.7014167101653941e-25 5.3388279538105750e-26 0.0000000000000000e+00  -3.3584451961630559e-25 9.7196671416956856e-26 0.0000000000000000e+00  -4.5792815151127068e-25 1.2552570352393185e-25 0.0000000000000000e+00  -5.0824104172942130e-25 1.1970753832673179e-25 0.0000000000000000e+00  -4.8082285742063499e-25 6.5583020896189513e-26 0.0000000000000000e+00  -4.6134814475546556e-25 -1.2113905905915740e-26 0.0000000000000000e+00  -4.6919790061436924e-25 -7.8413715567392648e-26 0.0000000000000000e+00  -4.5329933207123379e-25 -1.0301391890105434e-25 0.0000000000000000e+00  -3.6508514595111533e-25 -8.6737520816241213e-26 0.0000000000000000e+00  -2.1168439764150429e-25 -5.0441945912971397e-26 0.0000000000000000e+00  -7.1411393418213579e-26 -1.8370129274528645e-26 0.0000000000000000e+00  8.9729699884642148e-27 1.7826491960428002e-27 0.0000000000000000e+00  2.7931739409148108e-26 1.0060774224948007e-26 0.0000000000000000e+00  2.0127011047313823e-26 1.0268412288690153e-26 0.0000000000000000e+00  8.5095388954007054e-27 5.7988619224260941e-27 0.0000000000000000e+00  1.1099332044115115e-27 1.2355089249665768e-27 0.0000000000000000e+00  -1.3678996289879432e-27 -6.8278686715375517e-28 0.0000000000000000e+00  -8.7709180824149941e-28 -5.5439863356660774e-28 0.0000000000000000e+00  8.9254792496677810e-29 -1.9927447284827022e-29 0.0000000000000000e+00  2.0395685009278060e-28 9.4194918782228086e-29 0.0000000000000000e+00  -6.1282796625776659e-30 1.4793199469534382e-29 0.0000000000000000e+00  -4.1046833804906905e-29 -1.3072214785920966e-29 0.0000000000000000e+00  5.1461781555329246e-30 -1.5314796951693918e-30 0.0000000000000000e+00  7.2400369901189964e-30 1.5926606934890899e-30 0.0000000000000000e+00  -2.7535455269662306e-30 -3.5302588642282493e-31 0.0000000000000000e+00  -7.8197602709731789e-31 -5.8807790833472164e-32 0.0000000000000000e+00  8.1171926056802043e-31 1.7132463909277686e-31 0.0000000000000000e+00  -8.0413226171789593e-32 -5.7688290200151717e-32 0.0000000000000000e+00  -1.5457485732477649e-31 -3.6553389874336991e-32 0.0000000000000000e+00  6.4113303530588317e-32 2.5893105297172464e-32 0.0000000000000000e+00  1.1843011364893328e-32 2.1771145304577390e-33 0.0000000000000000e+00  -1.6676096558245392e-32 -6.7271622546069200e-33 0.0000000000000000e+00  2.6890133793656853e-33 1.2836639248781024e-33 0.0000000000000000e+00  2.4659716863157587e-33 1.1225318900637924e-33 0.0000000000000000e+00  -1.3039394573807630e-33 -5.9565145265185910e-34 0.0000000000000000e+00  -2.2505960758399970e-35 -4.1307115707552453e-35 0.0000000000000000e+00  2.2196293158675556e-34 1.2031509675191582e-34 0.0000000000000000e+00  -7.0916355331304772e-35 -3.2582481206008656e-35 0.0000000000000000e+00  -1.3706993336104261e-35 -1.0446203751218589e-35 0.0000000000000000e+00  1.6402783690436719e-35 9.1321519608496512e-36 0.0000000000000000e+00  -3.5066060008878296e-36 -1.5904238148543420e-36 0.0000000000000000e+00  -1.3488239580607342e-36 -7.9806165844134700e-37 0.0000000000000000e+00  1.0366557862520062e-36 5.1226866691850975e-37 0.0000000000000000e+00  -1.8598597573374303e-37 -8.1118117203056775e-38 0.0000000000000000e+00  -9.1233212054584727e-38 -3.4632774349206442e-38 0.0000000000000000e+00  6.8544921953343277e-38 2.1758572612904157e-38 0.0000000000000000e+00  -1.6427092540991896e-38 -4.4866970459388117e-39 0.0000000000000000e+00  -2.7275979528350238e-39 1.5488945324099616e-40 0.0000000000000000e+00  3.6944574730063778e-39 -4.8672183009316062e-41 0.0000000000000000e+00  -1.5341974528934864e-39 3.1058132879936421e-41 0.0000000000000000e+00  2.9180790155472404e-40 1.1911553389666239e-40 0.0000000000000000e+00  4.2534231110272114e-41 -1.2883940085427607e-40 0.0000000000000000e+00  -7.1577332581919905e-41 5.5366378990676394e-41 0.0000000000000000e+00  2.7213013495169551e-41 -1.5334843883575500e-41 0.0000000000000000e+00  -2.7196969594144923e-41 -2.1135707118108696e-41 0.0000000000000000e+00  1.9975984039612777e-41 -1.9682705245731187e-41 0.0000000000000000e+00  1.1031140245235326e-40 1.0690396274266503e-40 0.0000000000000000e+00  -4.4120556688589597e-40 -3.7687250152286890e-40 0.0000000000000000e+00  5.7747825276337308e-39 4.5487988198254514e-39 0.0000000000000000e+00  -3.7515574159712461e-38 -3.4157021516063735e-38 0.0000000000000000e+00  1.5964602267726169e-37 1.4875804078203154e-37 0.0000000000000000e+00  -3.2166713775369490e-37 -2.9793082926212607e-37 0.0000000000000000e+00  1.9688406626458110e-36 1.9138519696072336e-36 0.0000000000000000e+00  -1.3718849227161323e-36 -1.8652234098696554e-36 0.0000000000000000e+00  -1.0916387521594066e-35 -7.1689350184225265e-36 0.0000000000000000e+00  5.5123010447637370e-35 4.4300289259482609e-35 0.0000000000000000e+00  -3.0322989771254232e-34 -2.6925172204154821e-34 0.0000000000000000e+00  4.8662845268212072e-34 4.4227994638128758e-34 0.0000000000000000e+00  -5.1049005189381878e-34 -5.8308243453961973e-34 0.0000000000000000e+00  2.6846302606579273e-33 1.7048381205785438e-33 0.0000000000000000e+00  5.0120759723317925e-33 5.9657378376676453e-33 0.0000000000000000e+00  -3.0821917046995358e-32 -2.2050598451465918e-32 0.0000000000000000e+00  -1.1066864948573102e-31 -1.6962249446117195e-31 0.0000000000000000e+00  2.8256707077174594e-31 5.3861346918205395e-31 0.0000000000000000e+00  -4.3011617954859424e-31 -9.6503142484758842e-31 0.0000000000000000e+00  -3.6000413142818365e-31 -5.2498641026334344e-31 0.0000000000000000e+00  2.3381645879843196e-30 3.6868294339301088e-30 0.0000000000000000e+00  1.7317002736007704e-31 5.9910306381805128e-31 0.0000000000000000e+00  3.3726676194656106e-30 9.8109065366319861e-30 0.0000000000000000e+00  -5.8238757687430244e-30 -7.9169198135226792e-30 0.0000000000000000e+00  -1.2778107386726741e-29 1.3067572093811001e-29 0.0000000000000000e+00  -1.6797467104139316e-30 -4.0007269087996127e-29 0.0000000000000000e+00  -2.3698986749215540e-29 -1.8327268687392059e-28 0.0000000000000000e+00  -1.4641633621349148e-29 -5.9802240351801933e-29 0.0000000000000000e+00  3.3202544982617377e-29 7.6849714692763773e-29 0.0000000000000000e+00  2.7695832555350728e-29 3.3225646075204231e-28 0.0000000000000000e+00  7.0763279640627027e-31 -1.9004082272661635e-28 0.0000000000000000e+00  2.9240617740186586e-29 -4.0881915001596446e-28 0.0000000000000000e+00  -1.4238156794468811e-29 -1.3133621034048646e-28 0.0000000000000000e+00  -9.8917515012128378e-29 -1.0264228735537576e-28 0.0000000000000000e+00  -1.3249370849924928e-28 3.3767918497316045e-28 0.0000000000000000e+00  -1.3317023465599965e-28 1.9377980237196193e-28 0.0000000000000000e+00  -1.0751510358554770e-28 -2.3672925663293959e-29 0.0000000000000000e+00  -1.0861647737934865e-28 4.8725507889726461e-29 0.0000000000000000e+00  -1.0239182008206787e-28 -1.0545771840859312e-28 0.0000000000000000e+00  1.1422068352562971e-28 -4.5841098391155819e-28 0.0000000000000000e+00  2.3218193417909868e-28 -2.3519953079094055e-28 0.0000000000000000e+00  2.4330181072761546e-28 2.4639933844297035e-28 0.0000000000000000e+00  1.5410735529294276e-28 -1.5442165744563086e-28 0.0000000000000000e+00  -3.2331755410079454e-29 -5.9458788133830683e-28 0.0000000000000000e+00  1.0035612524582783e-28 1.4778176350242424e-28 0.0000000000000000e+00  9.6112828889115069e-29 1.3613790725824350e-28 0.0000000000000000e+00  2.4724130971097930e-29 -4.4452689571824154e-28 0.0000000000000000e+00  3.3902424327136983e-29 -1.9236161376932051e-28 0.0000000000000000e+00  3.3050476886122940e-29 -3.0288589273586089e-28 0.0000000000000000e+00  -5.3232606609366929e-30 -1.9976484106979135e-29 0.0000000000000000e+00  -1.0400055349910343e-29 3.1231955978543321e-29 0.0000000000000000e+00  9.0435820750905848e-30 -1.9052565836849380e-28 0.0000000000000000e+00  -2.8552331755280484e-30 -1.0398167089195866e-28 0.0000000000000000e+00  -1.6486376680812387e-30 1.0824244793474805e-28 0.0000000000000000e+00  -1.1324994159320104e-30 -2.7238132250820008e-28 0.0000000000000000e+00  -1.5828159306952113e-29 -1.0799714401182470e-28 0.0000000000000000e+00  6.6501205865617092e-30 -8.6977889148693021e-30 0.0000000000000000e+00  -1.1235952493463487e-29 -3.1326569068894076e-30 0.0000000000000000e+00  -9.9539080259852235e-30 3.0187958293466529e-28 0.0000000000000000e+00  -2.7991547605233104e-29 3.7989583702570689e-28 0.0000000000000000e+00  -4.5521099443194281e-29 5.6456944036307967e-28 0.0000000000000000e+00  -2.5634001847009478e-29 2.0039184807233097e-28 0.0000000000000000e+00  -8.2114265282159183e-30 -7.7060147799014106e-29 0.0000000000000000e+00  3.3046464014230187e-29 -3.5158404769044715e-28 0.0000000000000000e+00  4.6921910390864897e-29 -4.5439174243047146e-28 0.0000000000000000e+00  1.9585387587403357e-29 -1.3687063442246834e-28 0.0000000000000000e+00  6.4867458921900514e-30 4.3302871053985742e-29 0.0000000000000000e+00  -1.6045363617138918e-29 1.0344805885623128e-28 0.0000000000000000e+00  -5.2323474205077580e-29 4.1326991810837627e-28 0.0000000000000000e+00  -1.9909710076899843e-29 1.4031877971921403e-28 0.0000000000000000e+00  1.0207803458540887e-29 -1.3516901411746466e-28 0.0000000000000000e+00  4.4877582925891610e-30 1.5499913960833169e-29 0.0000000000000000e+00  -2.1989117891119095e-30 9.7961017700917124e-30 0.0000000000000000e+00  -4.9265649323284194e-30 1.9088029602568192e-29 0.0000000000000000e+00  2.0561114589910682e-30 -5.1128269910182460e-30 0.0000000000000000e+00  2.9078451353281929e-30 -8.3904935911877643e-30 0.00000000000