<?xml version="1.0"?>
<VTKFile type="UnstructuredGrid"  version="0.1"  >
<UnstructuredGrid>
<Piece  NumberOfPoints="11902" NumberOfCells="23402">
<Points>
<DataArray  type="Float64"  NumberOfComponents="3"  format="ascii">-5 -5 0  5 -5 0  5 5 0  -5 5 0  1.124448875308128 0.0008350657151814252 0  -4.9 -5 0  -4.8 -5 0  -4.7 -5 0  -4.6 -5 0  -4.5 -5 0  -4.4 -5 0  -4.3 -5 0  -4.2 -5 0  -4.1 -5 0  -4 -5 0  -3.9 -5 0  -3.8 -5 0  -3.7 -5 0  -3.6 -5 0  -3.5 -5 0  -3.4 -5 0  -3.3 -5 0  -3.2 -5 0  -3.1 -5 0  -3 -5 0  -2.9 -5 0  -2.8 -5 0  -2.7 -5 0  -2.6 -5 0  -2.5 -5 0  -2.4 -5 0  -2.3 -5 0  -2.2 -5 0  -2.1 -5 0  -2 -5 0  -1.9 -5 0  -1.8 -5 0  -1.7 -5 0  -1.6 -5 0  -1.5 -5 0  -1.4 -5 0  -1.3 -5 0  -1.2 -5 0  -1.1 -5 0  -1 -5 0  -0.9000000000000004 -5 0  -0.7999999999999998 -5 0  -0.7000000000000002 -5 0  -0.5999999999999996 -5 0  -0.5 -5 0  -0.4000000000000004 -5 0  -0.2999999999999998 -5 0  -0.2000000000000002 -5 0  -0.09999999999999964 -5 0  0 -5 0  0.09999999999999964 -5 0  0.2000000000000002 -5 0  0.2999999999999998 -5 0  0.4000000000000004 -5 0  0.5 -5 0  0.5999999999999996 -5 0  0.7000000000000002 -5 0  0.7999999999999998 -5 0  0.9000000000000004 -5 0  1 -5 0  1.1 -5 0  1.2 -5 0  1.3 -5 0  1.4 -5 0  1.5 -5 0  1.6 -5 0  1.7 -5 0  1.8 -5 0  1.9 -5 0  2 -5 0  2.1 -5 0  2.2 -5 0  2.3 -5 0  2.4 -5 0  2.5 -5 0  2.6 -5 0  2.7 -5 0  2.8 -5 0  2.9 -5 0  3 -5 0  3.1 -5 0  3.199999999999999 -5 0  3.300000000000001 -5 0  3.4 -5 0  3.5 -5 0  3.6 -5 0  3.699999999999999 -5 0  3.800000000000001 -5 0  3.9 -5 0  4 -5 0  4.1 -5 0  4.199999999999999 -5 0  4.300000000000001 -5 0  4.4 -5 0  4.5 -5 0  4.6 -5 0  4.699999999999999 -5 0  4.800000000000001 -5 0  4.9 -5 0  5 -4.9 0  5 -4.8 0  5 -4.7 0  5 -4.6 0  5 -4.5 0  5 -4.4 0  5 -4.3 0  5 -4.2 0  5 -4.1 0  5 -4 0  5 -3.9 0  5 -3.8 0  5 -3.7 0  5 -3.6 0  5 -3.5 0  5 -3.4 0  5 -3.3 0  5 -3.2 0  5 -3.1 0  5 -3 0  5 -2.9 0  5 -2.8 0  5 -2.7 0  5 -2.6 0  5 -2.5 0  5 -2.4 0  5 -2.3 0  5 -2.2 0  5 -2.1 0  5 -2 0  5 -1.9 0  5 -1.8 0  5 -1.7 0  5 -1.6 0  5 -1.5 0  5 -1.4 0  5 -1.3 0  5 -1.2 0  5 -1.1 0  5 -1 0  5 -0.9000000000000004 0  5 -0.7999999999999998 0  5 -0.7000000000000002 0  5 -0.5999999999999996 0  5 -0.5 0  5 -0.4000000000000004 0  5 -0.2999999999999998 0  5 -0.2000000000000002 0  5 -0.09999999999999964 0  5 0 0  5 0.09999999999999964 0  5 0.2000000000000002 0  5 0.2999999999999998 0  5 0.4000000000000004 0  5 0.5 0  5 0.5999999999999996 0  5 0.7000000000000002 0  5 0.7999999999999998 0  5 0.9000000000000004 0  5 1 0  5 1.1 0  5 1.2 0  5 1.3 0  5 1.4 0  5 1.5 0  5 1.6 0  5 1.7 0  5 1.8 0  5 1.9 0  5 2 0  5 2.1 0  5 2.2 0  5 2.3 0  5 2.4 0  5 2.5 0  5 2.6 0  5 2.7 0  5 2.8 0  5 2.9 0  5 3 0  5 3.1 0  5 3.199999999999999 0  5 3.300000000000001 0  5 3.4 0  5 3.5 0  5 3.6 0  5 3.699999999999999 0  5 3.800000000000001 0  5 3.9 0  5 4 0  5 4.1 0  5 4.199999999999999 0  5 4.300000000000001 0  5 4.4 0  5 4.5 0  5 4.6 0  5 4.699999999999999 0  5 4.800000000000001 0  5 4.9 0  4.9 5 0  4.8 5 0  4.7 5 0  4.6 5 0  4.5 5 0  4.4 5 0  4.3 5 0  4.2 5 0  4.1 5 0  4 5 0  3.9 5 0  3.8 5 0  3.7 5 0  3.6 5 0  3.5 5 0  3.4 5 0  3.3 5 0  3.2 5 0  3.1 5 0  3 5 0  2.9 5 0  2.8 5 0  2.7 5 0  2.6 5 0  2.5 5 0  2.4 5 0  2.3 5 0  2.2 5 0  2.1 5 0  2 5 0  1.9 5 0  1.8 5 0  1.7 5 0  1.6 5 0  1.5 5 0  1.4 5 0  1.3 5 0  1.2 5 0  1.1 5 0  1 5 0  0.9000000000000004 5 0  0.7999999999999998 5 0  0.7000000000000002 5 0  0.5999999999999996 5 0  0.5 5 0  0.4000000000000004 5 0  0.2999999999999998 5 0  0.2000000000000002 5 0  0.09999999999999964 5 0  0 5 0  -0.09999999999999964 5 0  -0.2000000000000002 5 0  -0.2999999999999998 5 0  -0.4000000000000004 5 0  -0.5 5 0  -0.5999999999999996 5 0  -0.7000000000000002 5 0  -0.7999999999999998 5 0  -0.9000000000000004 5 0  -1 5 0  -1.1 5 0  -1.2 5 0  -1.3 5 0  -1.4 5 0  -1.5 5 0  -1.6 5 0  -1.7 5 0  -1.8 5 0  -1.9 5 0  -2 5 0  -2.1 5 0  -2.2 5 0  -2.3 5 0  -2.4 5 0  -2.5 5 0  -2.6 5 0  -2.7 5 0  -2.8 5 0  -2.9 5 0  -3 5 0  -3.1 5 0  -3.199999999999999 5 0  -3.300000000000001 5 0  -3.4 5 0  -3.5 5 0  -3.6 5 0  -3.699999999999999 5 0  -3.800000000000001 5 0  -3.9 5 0  -4 5 0  -4.1 5 0  -4.199999999999999 5 0  -4.300000000000001 5 0  -4.4 5 0  -4.5 5 0  -4.6 5 0  -4.699999999999999 5 0  -4.800000000000001 5 0  -4.9 5 0  -5 4.9 0  -5 4.8 0  -5 4.7 0  -5 4.6 0  -5 4.5 0  -5 4.4 0  -5 4.3 0  -5 4.2 0  -5 4.1 0  -5 4 0  -5 3.9 0  -5 3.8 0  -5 3.7 0  -5 3.6 0  -5 3.5 0  -5 3.4 0  -5 3.3 0  -5 3.2 0  -5 3.1 0  -5 3 0  -5 2.9 0  -5 2.8 0  -5 2.7 0  -5 2.6 0  -5 2.5 0  -5 2.4 0  -5 2.3 0  -5 2.2 0  -5 2.1 0  -5 2 0  -5 1.9 0  -5 1.8 0  -5 1.7 0  -5 1.6 0  -5 1.5 0  -5 1.4 0  -5 1.3 0  -5 1.2 0  -5 1.1 0  -5 1 0  -5 0.9000000000000004 0  -5 0.7999999999999998 0  -5 0.7000000000000002 0  -5 0.5999999999999996 0  -5 0.5 0  -5 0.4000000000000004 0  -5 0.2999999999999998 0  -5 0.2000000000000002 0  -5 0.09999999999999964 0  -5 0 0  -5 -0.09999999999999964 0  -5 -0.2000000000000002 0  -5 -0.2999999999999998 0  -5 -0.4000000000000004 0  -5 -0.5 0  -5 -0.5999999999999996 0  -5 -0.7000000000000002 0  -5 -0.7999999999999998 0  -5 -0.9000000000000004 0  -5 -1 0  -5 -1.1 0  -5 -1.2 0  -5 -1.3 0  -5 -1.4 0  -5 -1.5 0  -5 -1.6 0  -5 -1.7 0  -5 -1.8 0  -5 -1.9 0  -5 -2 0  -5 -2.1 0  -5 -2.2 0  -5 -2.3 0  -5 -2.4 0  -5 -2.5 0  -5 -2.6 0  -5 -2.7 0  -5 -2.8 0  -5 -2.9 0  -5 -3 0  -5 -3.1 0  -5 -3.199999999999999 0  -5 -3.300000000000001 0  -5 -3.4 0  -5 -3.5 0  -5 -3.6 0  -5 -3.699999999999999 0  -5 -3.800000000000001 0  -5 -3.9 0  -5 -4 0  -5 -4.1 0  -5 -4.199999999999999 0  -5 -4.300000000000001 0  -5 -4.4 0  -5 -4.5 0  -5 -4.6 0  -5 -4.699999999999999 0  -5 -4.800000000000001 0  -5 -4.9 0  1.11900372677376 0.1003463863728149 0  1.101985301081182 0.1995744736365378 0  1.073277303920032 0.2973106590835336 0  1.035382917717407 0.3905730970304522 0  0.9867197501145096 0.4815392862526027 0  0.9288067509347003 0.567208422437289 0  0.86095748135253 0.6470251791400434 0  0.7839581694764718 0.7200855153749391 0  0.7000437026572267 0.7863602679995081 0  0.6091046997000013 0.845200460853487 0  0.511571686130516 0.8952716264521363 0  0.409042258216238 0.9366084742702603 0  0.3037338603582139 0.9690976080625562 0  0.1944297879885323 0.9912360854106131 0  0.08435751053485674 1.00417501514 0  -0.02698324553455496 1.006768916304934 0  -0.1380910868333763 0.9986629437264752 0  -0.2482180563478859 0.9815659162765523 0  -0.355896147933945 0.9547114156062771 0  -0.4597220584910546 0.9179686193351091 0  -0.5587453359838707 0.8725884795791785 0  -0.6525900324917605 0.8180094092525486 0  -0.7399410843505442 0.7555598220477466 0  -0.8201636711493587 0.6857280425131508 0  -0.8926075746148884 0.608138202761769 0  -0.9556979931068816 0.5250262695223716 0  -1.009974404795558 0.4372244970470155 0  -1.053613547851834 0.3444587212837407 0  -1.08649294327037 0.248885705692653 0  -1.108831615887116 0.150870592121896 0  -1.120194314673147 0.05083427809975759 0  -1.120221515307181 -0.04978210168992193 0  -1.108880176933268 -0.1496445104273383 0  -1.087700756106894 -0.247644447372745 0  -1.053527865547629 -0.3439433095375571 0  -1.010254942310872 -0.4361016040304331 0  -0.9562664657097353 -0.5241181204120592 0  -0.8933422210828067 -0.6069302534361066 0  -0.820891613927959 -0.6838058140305217 0  -0.7402055670543934 -0.7533140010457716 0  -0.6522401376636296 -0.8150903476127418 0  -0.5590942408684433 -0.8698766818072006 0  -0.4583852368318366 -0.9155044635808598 0  -0.3544425422364371 -0.9528423104134798 0  -0.2465939799533721 -0.9801731392600957 0  -0.1369538832071325 -0.997691828301017 0  -0.02625881999389938 -1.006280927497896 0  0.08476464265627377 -1.00312772422735 0  0.1957624275897889 -0.9899149235655507 0  0.304395758167569 -0.9677931842951423 0  0.4110337865065199 -0.9354422403229645 0  0.5123793867888156 -0.8943219227372413 0  0.6095663500137873 -0.844442385854272 0  0.7002886529848524 -0.786817245600649 0  0.7841391715891114 -0.7204576076519542 0  0.8606163085968358 -0.6465468263500032 0  0.9280384449811074 -0.566497575426184 0  0.9868630121862023 -0.4810916701242958 0  1.03641804227144 -0.3906666963784051 0  1.074269996267893 -0.296653133878816 0  1.102077618128533 -0.1990409377408174 0  1.119030883609349 -0.1000610394553617 0  -2.449145209570401 4.919191119689495 0  -2.449071254043894 -4.911666917089935 0  4.911618666908491 2.448736679850549 0  4.91963425974949 -2.450121866239678 0  2.446904940792086 -4.897103486309557 0  2.441314357725279 4.900821211439021 0  -4.91163585407446 -2.448753843927514 0  -4.911636067705434 2.448757590125531 0  -1.749119085552356 4.912554010678955 0  -1.744879532027641 -4.915933358877932 0  4.92211115731252 1.744831733053855 0  4.910854391210338 -1.748704308706416 0  -4.91112951444474 -1.748425588481434 0  -4.911939833922778 1.748161366513728 0  1.746429283107289 4.906525328487946 0  1.74791940792085 -4.894872530064776 0  -1.149306967501092 4.910663041249996 0  -1.130116327352662 -4.918420215888891 0  -4.911270645963111 -1.148601943534505 0  -4.911095873386722 1.148401372225363 0  1.14427125539813 -4.914683239415519 0  1.149311283179432 4.910655262371099 0  4.911428090626044 1.146882680813464 0  4.922004855445303 -1.152586228598442 0  -0.5469113469348658 -4.912012516284233 0  -0.5466704868766626 4.920510864038929 0  -4.910343931839695 -0.5490833269543441 0  -4.910369239946013 0.5476368467068891 0  4.909703849481981 -0.5494089094453654 0  4.921054212047582 0.5461150315292139 0  0.5427168133518625 -4.899185396258192 0  0.5514031536149703 4.917405487081796 0  -4.912677994747337 -3.048967444823425 0  4.919196714273742 3.046940358552249 0  4.912194727594437 -3.048954150257977 0  -4.913522070179271 3.046053625571219 0  3.055808243118618 -4.918158116841635 0  -3.049177074431999 -4.912147068540154 0  3.052732824468548 4.914211066895025 0  -3.048619427598679 4.913030570811987 0  -4.909579586164759 -0.04994515170994402 0  0.04513477005472774 -4.913978017382162 0  0.04958425711322142 4.920850902184638 0  4.916464369534875 -0.05132486679505027 0  3.5460213582941 -4.919569431399433 0  -3.5493369902567 4.91251135270
[...]
<PointData  Vectors="f_1242"> 
<DataArray  type="Float64"  Name="f_1242"  NumberOfComponents="3" format="ascii">-1.5852186933718753e-40 -1.6360538778843196e-40 0.0000000000000000e+00  2.0006940467832414e-40 -2.0138273086893021e-40 0.0000000000000000e+00  -2.4287384190871695e-40 -2.4477152070831092e-40 0.0000000000000000e+00  -3.0315950266131696e-40 3.1643445816625259e-40 0.0000000000000000e+00  1.4152121527139849e+01 -5.4008311350085525e-01 0.0000000000000000e+00  3.5506089353979008e-40 3.6437557933127928e-40 0.0000000000000000e+00  8.0744185575169478e-40 8.9368569511011824e-40 0.0000000000000000e+00  -1.7917445999042668e-39 -2.1021220982132564e-39 0.0000000000000000e+00  1.8426676734860904e-38 2.0629216105760409e-38 0.0000000000000000e+00  -5.9314858878764672e-38 -6.4633106057173837e-38 0.0000000000000000e+00  2.2791765114335105e-37 2.4645018576131926e-37 0.0000000000000000e+00  -8.2620824766799714e-37 -9.1209384496500411e-37 0.0000000000000000e+00  4.8777826712582036e-36 5.8990276512041614e-36 0.0000000000000000e+00  -2.9840747079701008e-35 -3.8047591607238541e-35 0.0000000000000000e+00  1.2028647920513496e-34 1.5611671224840824e-34 0.0000000000000000e+00  -2.5521707927469472e-34 -3.4447268944466622e-34 0.0000000000000000e+00  4.9987719882197354e-34 6.9989502647546757e-34 0.0000000000000000e+00  1.7895802585024057e-33 2.5599579987120260e-33 0.0000000000000000e+00  -8.1434150811169965e-33 -1.1763075029291767e-32 0.0000000000000000e+00  2.3801891088911858e-32 3.5151885513681643e-32 0.0000000000000000e+00  -1.3366883118595968e-31 -2.0271139985662227e-31 0.0000000000000000e+00  3.5092979384400518e-31 5.3609944837681251e-31 0.0000000000000000e+00  1.8776192562702734e-31 3.3773337646423238e-31 0.0000000000000000e+00  -1.6006090716761276e-30 -2.7613712798317642e-30 0.0000000000000000e+00  -8.5084928565095346e-31 -1.3490945917895703e-30 0.0000000000000000e+00  -2.2554053894041240e-30 -3.6269115126643323e-30 0.0000000000000000e+00  5.4073835759194047e-30 9.5133101013489498e-30 0.0000000000000000e+00  -1.3422525606737328e-29 -2.2423312561957517e-29 0.0000000000000000e+00  4.4934323706684568e-29 8.0375357163193965e-29 0.0000000000000000e+00  2.6770894426912347e-29 5.1221318224714781e-29 0.0000000000000000e+00  -2.2238594249463219e-28 -4.3597932397743130e-28 0.0000000000000000e+00  -7.4236320091709811e-29 -1.5554071029397217e-28 0.0000000000000000e+00  -1.2487240435500694e-28 -2.6413163666996540e-28 0.0000000000000000e+00  2.1751423873358705e-28 4.6274750668030055e-28 0.0000000000000000e+00  6.5593838764903519e-28 1.4941039070810854e-27 0.0000000000000000e+00  -7.3005743953454219e-29 -1.1821821855052571e-28 0.0000000000000000e+00  1.3756215865118907e-28 4.0339514528570079e-28 0.0000000000000000e+00  -1.1161038814661203e-28 -2.6858618502841539e-28 0.0000000000000000e+00  -4.9005636054677265e-28 -1.4353519730869742e-27 0.0000000000000000e+00  -4.4324306491447053e-28 -1.4405198891671670e-27 0.0000000000000000e+00  -3.0511212690224432e-29 -1.8057187159356998e-28 0.0000000000000000e+00  4.7864325802485135e-28 1.7271931932727874e-27 0.0000000000000000e+00  2.5882057353640263e-28 1.0532747672797398e-27 0.0000000000000000e+00  -5.3520149101116496e-29 -1.9451001844487233e-28 0.0000000000000000e+00  8.5246371280266132e-29 4.3017004393546526e-28 0.0000000000000000e+00  2.9541992878544930e-28 1.1293021722208037e-27 0.0000000000000000e+00  3.9822699308656392e-28 1.8947290036049830e-27 0.0000000000000000e+00  -2.0589645202521867e-28 -1.0772990239849613e-27 0.0000000000000000e+00  8.3879853144672148e-28 6.1048492671772158e-27 0.0000000000000000e+00  -1.4104263753248579e-29 -4.1765302957075683e-29 0.0000000000000000e+00  -4.5457073318746181e-28 -5.3034476463699896e-27 0.0000000000000000e+00  -1.2192828045522569e-28 -3.1254454067587902e-27 0.0000000000000000e+00  -1.8476640789126314e-28 -4.4362650512600543e-27 0.0000000000000000e+00  -3.6362563121095568e-28 -1.0996701830889514e-26 0.0000000000000000e+00  -1.8094550116523098e-28 -1.2603125856564138e-26 0.0000000000000000e+00  1.3756168237586876e-29 -2.1921912398962892e-27 0.0000000000000000e+00  1.6988218741324032e-28 -6.9173487130402326e-27 0.0000000000000000e+00  2.0427864903973475e-28 -2.5373882138760918e-27 0.0000000000000000e+00  4.2635830773578773e-28 -4.4987196110513255e-27 0.0000000000000000e+00  -2.4107379247306853e-28 1.9646317356754798e-27 0.0000000000000000e+00  7.5285562501936638e-28 -6.0693811030990121e-27 0.0000000000000000e+00  8.3623029922280577e-28 -5.5010531266824386e-27 0.0000000000000000e+00  -1.7552571011863137e-28 1.0808306821297593e-27 0.0000000000000000e+00  -1.6413984753837414e-27 8.0637959501106703e-27 0.0000000000000000e+00  -7.2632576401105189e-28 3.1989657652870623e-27 0.0000000000000000e+00  -4.0238487288815075e-28 1.8996761860381539e-27 0.0000000000000000e+00  -1.1917748536075274e-27 4.6096803177891141e-27 0.0000000000000000e+00  -7.0486377250579144e-28 2.4337496898062050e-27 0.0000000000000000e+00  8.2480911701672711e-28 -2.7144565982006043e-27 0.0000000000000000e+00  4.1458366369352203e-28 -1.2765416325141365e-27 0.0000000000000000e+00  8.6001276665507238e-29 -2.8274600173699718e-28 0.0000000000000000e+00  3.3987695675032798e-28 -9.8245230862302129e-28 0.0000000000000000e+00  3.0002969306370622e-28 -7.6769655908886989e-28 0.0000000000000000e+00  -2.5566618278039762e-28 6.3658614278734044e-28 0.0000000000000000e+00  -2.0535809177171687e-28 4.7074862202306590e-28 0.0000000000000000e+00  -1.4838203218229542e-28 3.2475214166805934e-28 0.0000000000000000e+00  1.9401856711417255e-29 -4.6637080806960711e-29 0.0000000000000000e+00  1.0623280191771217e-28 -2.2080004115473390e-28 0.0000000000000000e+00  1.5060742110723623e-28 -2.8992663673016700e-28 0.0000000000000000e+00  -5.3329342759080134e-30 1.5023529899967493e-29 0.0000000000000000e+00  -1.0392777616456849e-28 1.8831790449713187e-28 0.0000000000000000e+00  1.6977467044723879e-29 -3.1121812884079964e-29 0.0000000000000000e+00  5.6923649840149461e-30 -9.3197083442087092e-30 0.0000000000000000e+00  -1.4646683835181257e-29 2.5390411280088337e-29 0.0000000000000000e+00  -1.0673131771221606e-30 1.7465370773203621e-30 0.0000000000000000e+00  1.6373953376653820e-30 -2.7077592699802180e-30 0.0000000000000000e+00  -8.4873161188254091e-31 1.3786093138244097e-30 0.0000000000000000e+00  1.0633671079680730e-31 -1.7010391956465506e-31 0.0000000000000000e+00  -1.2846186002233871e-32 1.9505095157112607e-32 0.0000000000000000e+00  -5.0231994150865796e-34 8.7656921602290647e-34 0.0000000000000000e+00  6.8864989956609316e-33 -1.0037850010727750e-32 0.0000000000000000e+00  3.7984148576857938e-34 -4.6612963808160481e-34 0.0000000000000000e+00  -4.5295764589872146e-34 6.2048276219929711e-34 0.0000000000000000e+00  5.0446875566868376e-35 -7.2676008363218053e-35 0.0000000000000000e+00  -1.9984635799725869e-35 2.6163216237521203e-35 0.0000000000000000e+00  4.6537555672124007e-36 -5.8596253677908019e-36 0.0000000000000000e+00  -1.5632919646237543e-36 1.9135347006004940e-36 0.0000000000000000e+00  5.0764347772625406e-37 -5.9824183143891004e-37 0.0000000000000000e+00  -2.5315642112527255e-37 2.9380724364910380e-37 0.0000000000000000e+00  8.5482360388018179e-38 -9.7997030840382895e-38 0.0000000000000000e+00  -1.7559468686016219e-38 1.9623912940425229e-38 0.0000000000000000e+00  7.1196034775987385e-39 -7.7812950979313814e-39 0.0000000000000000e+00  -4.3119235899093275e-40 4.8579591287588730e-40 0.0000000000000000e+00  -3.4239781179946284e-40 3.4903047747804687e-40 0.0000000000000000e+00  -1.2465198065211488e-41 6.6624505224478409e-42 0.0000000000000000e+00  4.0150235304168664e-40 -3.9597114634154604e-40 0.0000000000000000e+00  -9.2981884709160881e-40 8.7928882529087530e-40 0.0000000000000000e+00  3.5660849565234035e-39 -3.2832447102634361e-39 0.0000000000000000e+00  -2.3675749854584146e-39 2.1110645851883159e-39 0.0000000000000000e+00  -1.5724210772617571e-38 1.3883951539100516e-38 0.0000000000000000e+00  6.2807807498833206e-38 -5.4059397385277053e-38 0.0000000000000000e+00  -8.7272383315061524e-38 7.3394135903617664e-38 0.0000000000000000e+00  -1.4380366677580797e-37 1.1750456363980744e-37 0.0000000000000000e+00  9.5931522954458926e-37 -7.6692954611824413e-37 0.0000000000000000e+00  -1.7019934000904028e-36 1.3356727733957878e-36 0.0000000000000000e+00  -1.3400709543463368e-36 9.8686528005911725e-37 0.0000000000000000e+00  1.3228978726278837e-35 -9.7649439426227201e-36 0.0000000000000000e+00  -2.5927569464776538e-35 1.8750150225577278e-35 0.0000000000000000e+00  -1.7653371145150250e-35 1.1797608066807420e-35 0.0000000000000000e+00  1.9156081169375963e-34 -1.2940445272902137e-34 0.0000000000000000e+00  -3.1095655861901859e-34 2.0805621520070749e-34 0.0000000000000000e+00  -4.0817225848641351e-34 2.5230631271283421e-34 0.0000000000000000e+00  2.5929725529997903e-33 -1.5946545273392507e-33 0.0000000000000000e+00  -2.6059902559907890e-33 1.6024675758099194e-33 0.0000000000000000e+00  -9.2909825861907487e-33 5.2394869773184144e-33 0.0000000000000000e+00  2.9667383929487422e-32 -1.6648062172281554e-32 0.0000000000000000e+00  2.0874234915887073e-33 -2.0323214445389316e-34 0.0000000000000000e+00  -1.5978884243072062e-31 8.1362624563941011e-32 0.0000000000000000e+00  2.1405851430759138e-31 -1.0844854636060848e-31 0.0000000000000000e+00  5.2777317878348796e-31 -2.4030057580629718e-31 0.0000000000000000e+00  -1.5836741437042251e-30 7.2214319735440611e-31 0.0000000000000000e+00  -8.8060449942143473e-31 3.3052625473585950e-31 0.0000000000000000e+00  8.3580183043546546e-30 -3.4272026829709902e-30 0.0000000000000000e+00  -2.5658123171176440e-30 1.2414815658662013e-30 0.0000000000000000e+00  -3.6515325975076834e-29 1.3308144884546767e-29 0.0000000000000000e+00  3.0392601438109905e-29 -1.1583494047905896e-29 0.0000000000000000e+00  1.4724323979991419e-28 -4.7459332602694781e-29 0.0000000000000000e+00  -1.6671062189866423e-28 5.5400844785844397e-29 0.0000000000000000e+00  -6.0743121405823198e-28 1.7122704028697277e-28 0.0000000000000000e+00  6.4184101071466492e-28 -1.9519463979453225e-28 0.0000000000000000e+00  2.5109570380917139e-27 -6.1519039923509949e-28 0.0000000000000000e+00  -1.9022741375912284e-27 5.1339350306696830e-28 0.0000000000000000e+00  -9.6262900636218097e-27 1.9801983452860354e-27 0.0000000000000000e+00  2.4680108566057367e-27 -6.4171002261832622e-28 0.0000000000000000e+00  2.9992239642811813e-26 -5.1430835596566554e-27 0.0000000000000000e+00  1.4543926569487876e-26 -1.7531459289039618e-27 0.0000000000000000e+00  -8.5365991095741905e-26 1.2086192893499898e-26 0.0000000000000000e+00  -1.2934689473581812e-25 1.5157243156765276e-26 0.0000000000000000e+00  1.4591058442779752e-25 -1.3861310607878892e-26 0.0000000000000000e+00  8.5007437749226255e-25 -5.6429252718423717e-26 0.0000000000000000e+00  1.5519784601429527e-24 -6.5757307018259002e-26 0.0000000000000000e+00  1.8926495676146460e-24 -4.1393003528584537e-26 0.0000000000000000e+00  1.8501435538491536e-24 -1.3891665089844945e-26 0.0000000000000000e+00  1.8707021318018925e-24 -1.4882966455728348e-27 0.0000000000000000e+00  2.0031701770469673e-24 1.7780882070586737e-26 0.0000000000000000e+00  1.8575239552597838e-24 4.6862563351547717e-26 0.0000000000000000e+00  1.2161191312722659e-24 5.4965785423966002e-26 0.0000000000000000e+00  3.5970843216802079e-25 2.5593809978658433e-26 0.0000000000000000e+00  -1.6382559144431873e-25 -1.1730113005683464e-26 0.0000000000000000e+00  -2.1490012864725203e-25 -2.2179043637103447e-26 0.0000000000000000e+00  -3.8328445474360318e-26 -5.5174397508034054e-27 0.0000000000000000e+00  5.9870468865488056e-26 8.2337394229432915e-27 0.0000000000000000e+00  3.6619088519949494e-26 6.1358393532476691e-27 0.0000000000000000e+00  -5.1175000209384644e-27 -8.4230709291763266e-28 0.0000000000000000e+00  -1.0714879714158694e-26 -2.2218162217857031e-27 0.0000000000000000e+00  -7.2724255207321446e-28 -1.9562883012015027e-28 0.0000000000000000e+00  2.6709373755863149e-27 6.5568984387610901e-28 0.0000000000000000e+00  3.8238646767765096e-28 1.0961090875048594e-28 0.0000000000000000e+00  -6.3308372420707953e-28 -1.8133840619405415e-28 0.0000000000000000e+00  -8.6722231613499675e-29 -2.8771142116752264e-29 0.0000000000000000e+00  1.4705689558849213e-28 4.8936908596847428e-29 0.0000000000000000e+00  6.5030602011076872e-30 2.9351817159613126e-30 0.0000000000000000e+00  -3.2928697396173376e-29 -1.2451318353992531e-29 0.0000000000000000e+00  2.8179063555096509e-30 9.7133595157687127e-31 0.0000000000000000e+00  6.2778314732250132e-30 2.6993270370134642e-30 0.0000000000000000e+00  -1.8436010850546330e-30 -7.7446083348718465e-31 0.0000000000000000e+00  -9.2664850643209997e-31 -4.4628905669469797e-31 0.0000000000000000e+00  5.9773930156956879e-31 2.8458613490843110e-31 0.0000000000000000e+00  3.2799149332494074e-32 2.1790190963105445e-32 0.0000000000000000e+00  -1.3181689676663013e-31 -6.8785305435983534e-32 0.0000000000000000e+00  2.9739699732213195e-32 1.4931254844144318e-32 0.0000000000000000e+00  1.8927086857869644e-32 1.0896000154121333e-32 0.0000000000000000e+00  -1.2133326576723973e-32 -6.8922784707318429e-33 0.0000000000000000e+00  1.8412359481640739e-34 1.3141274515913276e-35 0.0000000000000000e+00  2.1845664444989220e-33 1.3686637243398337e-33 0.0000000000000000e+00  -8.2930776959800260e-34 -5.1436551642625551e-34 0.0000000000000000e+00  -1.1558399838993775e-34 -8.3696027811401884e-35 0.0000000000000000e+00  1.9958891263679466e-34 1.3513454957909403e-34 0.0000000000000000e+00  -5.6230670538610533e-35 -3.8200319135864058e-35 0.0000000000000000e+00  -1.3052240740397115e-35 -9.7209555659135113e-36 0.0000000000000000e+00  1.4796373086128470e-35 1.0871548824624570e-35 0.0000000000000000e+00  -3.8532337632384484e-36 -2.8477886689794944e-36 0.0000000000000000e+00  -9.1283265148878717e-37 -7.2633781009878982e-37 0.0000000000000000e+00  1.0381901816766580e-36 8.2326662732402155e-37 0.0000000000000000e+00  -3.0009479684191360e-37 -2.4187366503391727e-37 0.0000000000000000e+00  -3.7168135948917936e-38 -3.1525712971814397e-38 0.0000000000000000e+00  6.5218695643716059e-38 5.5644932559912850e-38 0.0000000000000000e+00  -2.4805497426698153e-38 -2.1573215331532051e-38 0.0000000000000000e+00  8.7702640001993031e-40 7.6624572169229828e-40 0.0000000000000000e+00  3.4877068389341541e-39 3.1678650756633751e-39 0.0000000000000000e+00  -1.8195637868015733e-39 -1.6860126359743582e-39 0.0000000000000000e+00  3.9207135365429924e-40 3.7113685376434798e-40 0.0000000000000000e+00  1.8888664413906225e-40 1.8268599653983039e-40 0.0000000000000000e+00  3.6085062362307480e-40 3.8308956137617341e-40 0.0000000000000000e+00  -1.0570744863513593e-39 -1.1187564475391848e-39 0.0000000000000000e+00  2.0796089324816455e-39 2.2657602225275957e-39 0.0000000000000000e+00  -1.4098237611215911e-38 -1.5320326991354676e-38 0.0000000000000000e+00  1.0089312375882380e-37 1.1054548235060374e-37 0.0000000000000000e+00  -2.3298148473088130e-37 -2.5993529287928610e-37 0.0000000000000000e+00  2.6956434210774444e-37 3.1367607896402977e-37 0.0000000000000000e+00  -4.2036372708611736e-36 -5.0287144508480418e-36 0.0000000000000000e+00  1.3345968479695828e-35 1.6164501276320542e-35 0.0000000000000000e+00  -5.8042231829134223e-35 -7.1618628377687758e-35 0.0000000000000000e+00  1.2914089466094357e-34 1.6534638913156362e-34 0.0000000000000000e+00  -2.6773839880284835e-34 -3.6070017590015947e-34 0.0000000000000000e+00  1.3842958899846714e-33 1.8650047446285549e-33 0.0000000000000000e+00  -1.0596086394785057e-33 -1.4238918351170123e-33 0.0000000000000000e+00  5.6507498159287969e-33 7.4513213878477770e-33 0.0000000000000000e+00  4.2701600649217350e-32 6.5680446091465246e-32 0.0000000000000000e+00  -2.0160939798505686e-31 -3.0396450981201026e-31 0.0000000000000000e+00  -5.5446350757347302e-31 -9.0506632546034535e-31 0.0000000000000000e+00  1.0628709785850796e-30 1.7724837265165934e-30 0.0000000000000000e+00  -1.0858912474931464e-31 -1.7124395277637075e-31 0.0000000000000000e+00  -3.2853300944095769e-30 -5.6414355978911723e-30 0.0000000000000000e+00  9.7204613998022428e-30 1.6417545367434751e-29 0.0000000000000000e+00  1.4739913459276158e-29 2.7479079665022803e-29 0.0000000000000000e+00  -9.6367769316140277e-29 -1.7877358137080447e-28 0.0000000000000000e+00  3.1253897793990893e-29 5.9348571853079440e-29 0.0000000000000000e+00  1.0014039991498315e-28 2.0948046182089533e-28 0.0000000000000000e+00  3.8766564614793571e-29 7.4102851746814520e-29 0.0000000000000000e+00  3.3413466454018867e-28 6.9335549200383360e-28 0.0000000000000000e+00  1.4252752924273235e-28 3.3353053022534202e-28 0.0000000000000000e+00  -4.0539093304383927e-28 -8.7078814885478553e-28 0.0000000000000000e+00  -4.0197341222293408e-28 -1.0615662618033333e-27 0.0000000000000000e+00  4.0414596262697897e-28 9.9002158338231580e-28 0.0000000000000000e+00  7.3627694013625169e-28 1.9104178050688815e-27 0.0000000000000000e+00  3.8596904566705959e-28 1.1805359505802552e-27 0.0000000000000000e+00  8.2615165537677304e-29 4.6177100831787933e-28 0.0000000000000000e+00  -8.4165519389843263e-28 -2.5985334872417358e-27 0.0000000000000000e+00  -3.0673466268051064e-28 -8.9832434857083399e-28 0.0000000000000000e+00  -1.3969152559714343e-28 -4.0633121483355981e-28 0.0000000000000000e+00  -4.1165705979238350e-28 -1.6465376510680205e-27 0.0000000000000000e+00  -3.6334829720954677e-28 -1.5732424800150642e-27 0.0000000000000000e+00  -3.2739830135251361e-28 -1.9888417901379539e-27 0.0000000000000000e+00  3.6382659722063614e-29 -3.3189957711624993e-28 0.0000000000000000e+00  3.7801991183059442e-28 2.0600413519000878e-27 0.0000000000000000e+00  4.7655127183963015e-29 1.4676265685884645e-28 0.0000000000000000e+00  -2.6326656124382242e-28 -2.4761688306664795e-27 0.0000000000000000e+00  1.4764978240816933e-28 1.2704904394706872e-27 0.0000000000000000e+00  8.7378489820192721e-29 1.1289408992190985e-27 0.0000000000000000e+00  -6.3594638406120628e-29 -1.3910406748934865e-27 0.0000000000000000e+00  -8.6364581107760355e-30 -2.1161302131967555e-28 0.0000000000000000e+00  -1.2818727395248839e-29 -1.4780622908839580e-27 0.0000000000000000e+00  -4.8348617608945921e-29 2.3795410010035124e-27 0.0000000000000000e+00  -1.2139176139888847e-28 2.2246500114315176e-27 0.0000000000000000e+00  5.7519040715696550e-29 -1.6665831654083559e-27 0.0000000000000000e+00  -2.8537345968481447e-29 -1.7718379418980121e-28 0.0000000000000000e+00  2.3263097068267833e-28 -2.3442073877263902e-27 0.0000000000000000e+00  -3.0126402594947860e-28 1.7511153093048356e-27 0.0000000000000000e+00  -1.8536795204709690e-28 7.8190856299228379e-28 0.0000000000000000e+00  3.2467069483637838e-29 -7.1560700527084720e-28 0.0000000000000000e+00  -3.8790337024594491e-29 -2.1960968387898147e-28 0.0000000000000000e+00  5.7950407738960041e-28 -2.8063733644770111e-27 0.0000000000000000e+00  7.2756254553635219e-28 -3.3803146151231257e-27 0.0000000000000000e+00  1.2181391131184047e-27 -4.6831401508509397e-27 0.0000000000000000e+00  3.9796902370720439e-28 -1.2928134738267341e-27 0.0000000000000000e+00  -3.1930647835661091e-28 1.2343027618920801e-27 0.0000000000000000e+00  -8.1542371867526744e-28 2.4978747672727772e-27 0.0000000000000000e+00  -9.6889954564852634e-28 2.7306314328824699e-27 0.0000000000000000e+00  -2.7905993491656858e-28 6.9349215982163104e-28 0.0000000000000000e+00  1.6270088953084904e-28 -4.5017258470931120e-28 0.0000000000000000e+00  2.0777757642158306e-28 -5.2009905371741710e-28 0.0000000000000000e+00  8.5177682639048928e-28 -1.9003542695763394e-27 0.0000000000000000e+00  3.5238072464746443e-28 -7.4229872837048345e-28 0.0000000000000000e+00  -2.9059966449125307e-28 6.0016875308303626e-28 0.0000000000000000e+00  -1.0921141695468571e-29 2.8935840827822046e-29 0.0000000000000000e+00  3.1998033558273141e-29 -6.7225076092205339e-29 0.0000000000000000e+00  7.9678540958369098e-29 -1.5173835257483211e-28 0.0000000000000000e+00  -1.6205601322046741e-29 3.0983455749793829e-29 0.0000000000000000e+00  -2.3759737779052368e-29 4.2007063722376801e-29 0.0000000000000000e+00  2.29