<?xml version="1.0"?>
<VTKFile type="UnstructuredGrid"  version="0.1"  >
<UnstructuredGrid>
<Piece  NumberOfPoints="11902" NumberOfCells="23402">
<Points>
<DataArray  type="Float64"  NumberOfComponents="3"  format="ascii">-5 -5 0  5 -5 0  5 5 0  -5 5 0  1.232286746863327 0.001381057301809249 0  -4.9 -5 0  -4.8 -5 0  -4.7 -5 0  -4.6 -5 0  -4.5 -5 0  -4.4 -5 0  -4.3 -5 0  -4.2 -5 0  -4.1 -5 0  -4 -5 0  -3.9 -5 0  -3.8 -5 0  -3.7 -5 0  -3.6 -5 0  -3.5 -5 0  -3.4 -5 0  -3.3 -5 0  -3.2 -5 0  -3.1 -5 0  -3 -5 0  -2.9 -5 0  -2.8 -5 0  -2.7 -5 0  -2.6 -5 0  -2.5 -5 0  -2.4 -5 0  -2.3 -5 0  -2.2 -5 0  -2.1 -5 0  -2 -5 0  -1.9 -5 0  -1.8 -5 0  -1.7 -5 0  -1.6 -5 0  -1.5 -5 0  -1.4 -5 0  -1.3 -5 0  -1.2 -5 0  -1.1 -5 0  -1 -5 0  -0.9000000000000004 -5 0  -0.7999999999999998 -5 0  -0.7000000000000002 -5 0  -0.5999999999999996 -5 0  -0.5 -5 0  -0.4000000000000004 -5 0  -0.2999999999999998 -5 0  -0.2000000000000002 -5 0  -0.09999999999999964 -5 0  0 -5 0  0.09999999999999964 -5 0  0.2000000000000002 -5 0  0.2999999999999998 -5 0  0.4000000000000004 -5 0  0.5 -5 0  0.5999999999999996 -5 0  0.7000000000000002 -5 0  0.7999999999999998 -5 0  0.9000000000000004 -5 0  1 -5 0  1.1 -5 0  1.2 -5 0  1.3 -5 0  1.4 -5 0  1.5 -5 0  1.6 -5 0  1.7 -5 0  1.8 -5 0  1.9 -5 0  2 -5 0  2.1 -5 0  2.2 -5 0  2.3 -5 0  2.4 -5 0  2.5 -5 0  2.6 -5 0  2.7 -5 0  2.8 -5 0  2.9 -5 0  3 -5 0  3.1 -5 0  3.199999999999999 -5 0  3.300000000000001 -5 0  3.4 -5 0  3.5 -5 0  3.6 -5 0  3.699999999999999 -5 0  3.800000000000001 -5 0  3.9 -5 0  4 -5 0  4.1 -5 0  4.199999999999999 -5 0  4.300000000000001 -5 0  4.4 -5 0  4.5 -5 0  4.6 -5 0  4.699999999999999 -5 0  4.800000000000001 -5 0  4.9 -5 0  5 -4.9 0  5 -4.8 0  5 -4.7 0  5 -4.6 0  5 -4.5 0  5 -4.4 0  5 -4.3 0  5 -4.2 0  5 -4.1 0  5 -4 0  5 -3.9 0  5 -3.8 0  5 -3.7 0  5 -3.6 0  5 -3.5 0  5 -3.4 0  5 -3.3 0  5 -3.2 0  5 -3.1 0  5 -3 0  5 -2.9 0  5 -2.8 0  5 -2.7 0  5 -2.6 0  5 -2.5 0  5 -2.4 0  5 -2.3 0  5 -2.2 0  5 -2.1 0  5 -2 0  5 -1.9 0  5 -1.8 0  5 -1.7 0  5 -1.6 0  5 -1.5 0  5 -1.4 0  5 -1.3 0  5 -1.2 0  5 -1.1 0  5 -1 0  5 -0.9000000000000004 0  5 -0.7999999999999998 0  5 -0.7000000000000002 0  5 -0.5999999999999996 0  5 -0.5 0  5 -0.4000000000000004 0  5 -0.2999999999999998 0  5 -0.2000000000000002 0  5 -0.09999999999999964 0  5 0 0  5 0.09999999999999964 0  5 0.2000000000000002 0  5 0.2999999999999998 0  5 0.4000000000000004 0  5 0.5 0  5 0.5999999999999996 0  5 0.7000000000000002 0  5 0.7999999999999998 0  5 0.9000000000000004 0  5 1 0  5 1.1 0  5 1.2 0  5 1.3 0  5 1.4 0  5 1.5 0  5 1.6 0  5 1.7 0  5 1.8 0  5 1.9 0  5 2 0  5 2.1 0  5 2.2 0  5 2.3 0  5 2.4 0  5 2.5 0  5 2.6 0  5 2.7 0  5 2.8 0  5 2.9 0  5 3 0  5 3.1 0  5 3.199999999999999 0  5 3.300000000000001 0  5 3.4 0  5 3.5 0  5 3.6 0  5 3.699999999999999 0  5 3.800000000000001 0  5 3.9 0  5 4 0  5 4.1 0  5 4.199999999999999 0  5 4.300000000000001 0  5 4.4 0  5 4.5 0  5 4.6 0  5 4.699999999999999 0  5 4.800000000000001 0  5 4.9 0  4.9 5 0  4.8 5 0  4.7 5 0  4.6 5 0  4.5 5 0  4.4 5 0  4.3 5 0  4.2 5 0  4.1 5 0  4 5 0  3.9 5 0  3.8 5 0  3.7 5 0  3.6 5 0  3.5 5 0  3.4 5 0  3.3 5 0  3.2 5 0  3.1 5 0  3 5 0  2.9 5 0  2.8 5 0  2.7 5 0  2.6 5 0  2.5 5 0  2.4 5 0  2.3 5 0  2.2 5 0  2.1 5 0  2 5 0  1.9 5 0  1.8 5 0  1.7 5 0  1.6 5 0  1.5 5 0  1.4 5 0  1.3 5 0  1.2 5 0  1.1 5 0  1 5 0  0.9000000000000004 5 0  0.7999999999999998 5 0  0.7000000000000002 5 0  0.5999999999999996 5 0  0.5 5 0  0.4000000000000004 5 0  0.2999999999999998 5 0  0.2000000000000002 5 0  0.09999999999999964 5 0  0 5 0  -0.09999999999999964 5 0  -0.2000000000000002 5 0  -0.2999999999999998 5 0  -0.4000000000000004 5 0  -0.5 5 0  -0.5999999999999996 5 0  -0.7000000000000002 5 0  -0.7999999999999998 5 0  -0.9000000000000004 5 0  -1 5 0  -1.1 5 0  -1.2 5 0  -1.3 5 0  -1.4 5 0  -1.5 5 0  -1.6 5 0  -1.7 5 0  -1.8 5 0  -1.9 5 0  -2 5 0  -2.1 5 0  -2.2 5 0  -2.3 5 0  -2.4 5 0  -2.5 5 0  -2.6 5 0  -2.7 5 0  -2.8 5 0  -2.9 5 0  -3 5 0  -3.1 5 0  -3.199999999999999 5 0  -3.300000000000001 5 0  -3.4 5 0  -3.5 5 0  -3.6 5 0  -3.699999999999999 5 0  -3.800000000000001 5 0  -3.9 5 0  -4 5 0  -4.1 5 0  -4.199999999999999 5 0  -4.300000000000001 5 0  -4.4 5 0  -4.5 5 0  -4.6 5 0  -4.699999999999999 5 0  -4.800000000000001 5 0  -4.9 5 0  -5 4.9 0  -5 4.8 0  -5 4.7 0  -5 4.6 0  -5 4.5 0  -5 4.4 0  -5 4.3 0  -5 4.2 0  -5 4.1 0  -5 4 0  -5 3.9 0  -5 3.8 0  -5 3.7 0  -5 3.6 0  -5 3.5 0  -5 3.4 0  -5 3.3 0  -5 3.2 0  -5 3.1 0  -5 3 0  -5 2.9 0  -5 2.8 0  -5 2.7 0  -5 2.6 0  -5 2.5 0  -5 2.4 0  -5 2.3 0  -5 2.2 0  -5 2.1 0  -5 2 0  -5 1.9 0  -5 1.8 0  -5 1.7 0  -5 1.6 0  -5 1.5 0  -5 1.4 0  -5 1.3 0  -5 1.2 0  -5 1.1 0  -5 1 0  -5 0.9000000000000004 0  -5 0.7999999999999998 0  -5 0.7000000000000002 0  -5 0.5999999999999996 0  -5 0.5 0  -5 0.4000000000000004 0  -5 0.2999999999999998 0  -5 0.2000000000000002 0  -5 0.09999999999999964 0  -5 0 0  -5 -0.09999999999999964 0  -5 -0.2000000000000002 0  -5 -0.2999999999999998 0  -5 -0.4000000000000004 0  -5 -0.5 0  -5 -0.5999999999999996 0  -5 -0.7000000000000002 0  -5 -0.7999999999999998 0  -5 -0.9000000000000004 0  -5 -1 0  -5 -1.1 0  -5 -1.2 0  -5 -1.3 0  -5 -1.4 0  -5 -1.5 0  -5 -1.6 0  -5 -1.7 0  -5 -1.8 0  -5 -1.9 0  -5 -2 0  -5 -2.1 0  -5 -2.2 0  -5 -2.3 0  -5 -2.4 0  -5 -2.5 0  -5 -2.6 0  -5 -2.7 0  -5 -2.8 0  -5 -2.9 0  -5 -3 0  -5 -3.1 0  -5 -3.199999999999999 0  -5 -3.300000000000001 0  -5 -3.4 0  -5 -3.5 0  -5 -3.6 0  -5 -3.699999999999999 0  -5 -3.800000000000001 0  -5 -3.9 0  -5 -4 0  -5 -4.1 0  -5 -4.199999999999999 0  -5 -4.300000000000001 0  -5 -4.4 0  -5 -4.5 0  -5 -4.6 0  -5 -4.699999999999999 0  -5 -4.800000000000001 0  -5 -4.9 0  1.225589313720288 0.09750040461417263 0  1.205614797422744 0.1948877976280935 0  1.172962154661077 0.2916564599424687 0  1.130952928776618 0.3819086999247293 0  1.075719868011898 0.4724046241214437 0  1.011573714197914 0.5572559661335751 0  0.9358276707816681 0.6370168038521042 0  0.851162995039396 0.7103753214250677 0  0.7600417850750266 0.7757591209398204 0  0.6594177399819292 0.83372829235123 0  0.5512936459042849 0.8855487172063261 0  0.4403489933053503 0.9282389274523055 0  0.3276512262540689 0.9611132727442132 0  0.2070582237727707 0.9830847050695929 0  0.08937385225580506 0.9998895446603489 0  -0.02766468018521743 1.00283833989742 0  -0.1452225210701571 0.9911119460896868 0  -0.2675627021822949 0.9729632092340219 0  -0.3847540904154931 0.9476365167155623 0  -0.4954324957505621 0.9112639479989139 0  -0.6025744530663966 0.8651702344402834 0  -0.7040884030783404 0.8106386998489896 0  -0.7979941531688169 0.7467948248211811 0  -0.8866471677387234 0.6750429093740312 0  -0.9687975422876899 0.5963705709195782 0  -1.039969843190975 0.5147038090986543 0  -1.10068936773676 0.4283642076766448 0  -1.150508989742667 0.3367574658069236 0  -1.187554493073196 0.2442731217844085 0  -1.211974692630831 0.149017200506284 0  -1.224129609252333 0.05072501974388534 0  -1.224093049332157 -0.04867556423956709 0  -1.211841993314595 -0.1464592791025259 0  -1.187688037370882 -0.2414563109569248 0  -1.149160196526206 -0.3366813675880673 0  -1.10093324529753 -0.4276352166026759 0  -1.04120497418524 -0.5141277680577633 0  -0.9707849903990265 -0.5952061323275262 0  -0.8891941527465144 -0.6725980553044056 0  -0.8005600651314915 -0.7429680271855282 0  -0.7050369827117902 -0.8039844730089895 0  -0.6023813481722199 -0.8577626555759412 0  -0.4918765958962776 -0.9060080192078197 0  -0.379915528976712 -0.9446653646581707 0  -0.2642851064741772 -0.9720971564231479 0  -0.1438656026263398 -0.9904954736380756 0  -0.02783112478750534 -1.001927260978508 0  0.0897599207184217 -0.9960756070550489 0  0.211069011245772 -0.9803514538659013 0  0.3297889909910723 -0.9594820921362088 0  0.4442670567665923 -0.9268585025339444 0  0.5533723541662044 -0.8846340160746577 0  0.660252550535315 -0.8336154721584127 0  0.7601240422034649 -0.7769118827897997 0  0.8512175673377363 -0.7112666133817791 0  0.9352493632975458 -0.6366952828227501 0  1.009552009198477 -0.5566037906170342 0  1.07562765695532 -0.4716171503680539 0  1.131912389102241 -0.381967952737958 0  1.174579547727274 -0.289816135957101 0  1.206061127046702 -0.1939955348934861 0  1.225704522895281 -0.09707053386218178 0  -2.448652285098727 4.918280256358494 0  -2.448534638725711 -4.910673741671801 0  4.910602069162438 2.448021523040298 0  4.918711721156447 -2.449471535110435 0  2.446280521796257 -4.89593650013424 0  2.440710267114415 4.899692307317021 0  -4.91062776608664 -2.448046602371822 0  -4.910625374755918 2.448050469974004 0  -1.74860986373502 4.911242510920832 0  -1.744392522448731 -4.914674603895535 0  4.920826440618783 1.74418440155294 0  4.909387593229354 -1.747962189338105 0  -4.909679127204591 -1.747694622358638 0  -4.910499720299206 1.747438137436175 0  1.745888623312239 4.90511587902616 0  1.747313703778535 -4.89329033849978 0  -1.148901828653853 4.909075118615905 0  -1.129752238610287 -4.916968797159464 0  -4.90945450209989 -1.148000378863559 0  -4.909273652088899 1.147800693330316 0  1.143892676658762 -4.9131637399171 0  1.148911025043301 4.909062558210633 0  4.909596599858827 1.146276411938791 0  4.920395932677105 -1.152049869017845 0  -0.5467004199077539 -4.910288375645962 0  -0.5464799740328046 4.918948322132104 0  -4.908233553200381 -0.5487488513069396 0  -4.908257651014744 0.5473060835113387 0  4.907557898947141 -0.5490680242017799 0  4.919176892689053 0.5458198546344015 0  0.542485917532687 -4.897204600506535 0  0.5512092478138363 4.915780407851189 0  -4.911998128741137 -3.048383065089525 0  4.918562043240258 3.046393417200593 0  4.911507051266662 -3.048360165397432 0  -4.912845360859607 3.045473899297221 0  3.055368409695572 -4.917490511797458 0  -3.048704357037078 -4.911433578428113 0  3.052270025530996 4.913509449866802 0  -3.048149475650003 4.912322479874038 0  -4.907359042788971 -0.04991174366702848 0  0.04512182889054185 -4.912240712123281 0  0.04956969136414931 4.919247888586199 0  4.914393185536995 -0.0512935747604569 0  3.54567275185646 -4.919102053393777 0  -3.548957886280234 4.91200
[...]
<PointData  Vectors="f_3218"> 
<DataArray  type="Float64"  Name="f_3218"  NumberOfComponents="3" format="ascii">-1.0135320349666537e-40 -1.2717324410372367e-40 0.0000000000000000e+00  1.1671543910681026e-40 -1.3890798546997474e-40 0.0000000000000000e+00  -1.9002373808664070e-40 -1.8278344824980190e-40 0.0000000000000000e+00  -2.1016370244171394e-40 2.1186715197472045e-40 0.0000000000000000e+00  1.6192196373299971e+01 -5.1473299965614496e-03 0.0000000000000000e+00  2.4711674983693198e-40 2.8230741864040251e-40 0.0000000000000000e+00  7.1383705961863081e-40 6.9872059936915444e-40 0.0000000000000000e+00  -1.6925460495302435e-39 -1.8156732759884461e-39 0.0000000000000000e+00  1.4663223277790756e-38 1.7052560194415518e-38 0.0000000000000000e+00  -4.9032757089088117e-38 -5.6799745630137440e-38 0.0000000000000000e+00  1.7842871486460327e-37 2.3147467178242389e-37 0.0000000000000000e+00  -6.4875433304150662e-37 -8.8651714933230103e-37 0.0000000000000000e+00  3.7265675591203248e-36 4.9573489581818442e-36 0.0000000000000000e+00  -2.2895477887212682e-35 -2.8785523545372498e-35 0.0000000000000000e+00  9.5495224804417830e-35 1.2173582871335854e-34 0.0000000000000000e+00  -2.1244049909633962e-34 -2.6115995719063628e-34 0.0000000000000000e+00  4.2667051339034660e-34 4.9487462681259447e-34 0.0000000000000000e+00  1.6325963995152915e-33 1.9477583215397059e-33 0.0000000000000000e+00  -6.8788752396735086e-33 -9.0271268470388141e-33 0.0000000000000000e+00  1.8132105829891652e-32 2.6464427003239225e-32 0.0000000000000000e+00  -1.0826167833728760e-31 -1.5403381230025346e-31 0.0000000000000000e+00  2.8891827007667162e-31 4.1307371027014422e-31 0.0000000000000000e+00  2.0227517433083956e-31 2.5248778843024992e-31 0.0000000000000000e+00  -1.6090958211936912e-30 -2.1170648359607186e-30 0.0000000000000000e+00  -5.3355895245231173e-31 -1.0997469742488652e-30 0.0000000000000000e+00  -9.5547186605297446e-31 -2.2281823708229126e-30 0.0000000000000000e+00  3.7729500617299682e-30 7.3748607851129222e-30 0.0000000000000000e+00  -8.4098866503738185e-30 -2.6139380183749559e-29 0.0000000000000000e+00  3.0868909708303321e-29 7.6479324110528118e-29 0.0000000000000000e+00  1.7406673862715349e-29 4.6325211859604015e-29 0.0000000000000000e+00  -1.5560322177670876e-28 -3.7518091551925880e-28 0.0000000000000000e+00  -5.9542945629363017e-29 -1.5988775101937470e-28 0.0000000000000000e+00  -9.5321358982767031e-29 -3.4015404726933571e-28 0.0000000000000000e+00  1.5493889391580655e-28 4.7366242091646402e-28 0.0000000000000000e+00  4.2842004060822624e-28 1.4730083846389363e-27 0.0000000000000000e+00  2.2452941261501632e-29 -9.3262480873696296e-29 0.0000000000000000e+00  1.6112025316352762e-28 4.2922686040423403e-28 0.0000000000000000e+00  -6.4019817574610230e-29 -2.7132817136873481e-28 0.0000000000000000e+00  -4.6282840777086235e-28 -1.5001916325014240e-27 0.0000000000000000e+00  -4.4094392427448580e-28 -1.4407901989623574e-27 0.0000000000000000e+00  -1.4865278204719492e-29 -6.6443708142652004e-29 0.0000000000000000e+00  4.3733504095765132e-28 1.6885713015353494e-27 0.0000000000000000e+00  2.7895773020638925e-28 9.9850107697155351e-28 0.0000000000000000e+00  1.0201513351838433e-29 -1.3517964881291258e-28 0.0000000000000000e+00  1.3099107927851374e-28 3.9896868153593246e-28 0.0000000000000000e+00  -1.7584533657810092e-28 9.1417487872216841e-28 0.0000000000000000e+00  -4.0917878600819622e-29 1.5959871336066186e-27 0.0000000000000000e+00  8.9173740043517630e-29 -9.4833406996541731e-28 0.0000000000000000e+00  1.7273099662064696e-28 5.1630570980598728e-27 0.0000000000000000e+00  -2.1394457714585642e-28 -1.9917311558226344e-29 0.0000000000000000e+00  -5.3854469896555856e-28 -4.4380744914692707e-27 0.0000000000000000e+00  -5.1625954719748046e-28 -2.5146999768503238e-27 0.0000000000000000e+00  -3.4192253030210843e-28 -3.6777502739438875e-27 0.0000000000000000e+00  -1.1841172613672576e-29 -9.4575741552940366e-27 0.0000000000000000e+00  1.3655596265505274e-28 -1.0835865626713266e-26 0.0000000000000000e+00  -3.1323203802978839e-29 -1.8491972721883285e-27 0.0000000000000000e+00  7.6852866440059655e-30 -5.8156729318981477e-27 0.0000000000000000e+00  -1.9683630470756940e-30 -2.0480127461718382e-27 0.0000000000000000e+00  1.3415663155154558e-28 -3.7314427138486877e-27 0.0000000000000000e+00  -1.1764436827473366e-28 1.8242723175413252e-27 0.0000000000000000e+00  4.1767855328470267e-28 -4.9695803341299986e-27 0.0000000000000000e+00  5.5917905769975905e-28 -4.5379209258084550e-27 0.0000000000000000e+00  -4.7809885808158739e-29 1.0214900779048326e-27 0.0000000000000000e+00  -7.6590000857303422e-28 6.9544120689651040e-27 0.0000000000000000e+00  -3.8620407677927401e-28 2.7750318175596277e-27 0.0000000000000000e+00  -3.3047167634730863e-28 1.5254865141904517e-27 0.0000000000000000e+00  -7.0188886026270895e-28 4.0076689646091938e-27 0.0000000000000000e+00  -4.0961222836425452e-28 2.1213847233994072e-27 0.0000000000000000e+00  4.2562202166740164e-28 -2.4677732181313866e-27 0.0000000000000000e+00  2.8062200641296765e-28 -1.1630522973876872e-27 0.0000000000000000e+00  6.1269151047169512e-29 -1.7365272342690872e-28 0.0000000000000000e+00  2.8573251082166639e-28 -8.4648775899294404e-28 0.0000000000000000e+00  1.9224952171793239e-28 -6.6277183369999643e-28 0.0000000000000000e+00  -1.6698377046397459e-28 5.7774749128460787e-28 0.0000000000000000e+00  -9.9474195434837524e-29 3.1603752003519318e-28 0.0000000000000000e+00  -7.8692140112575517e-29 2.5226728294101198e-28 0.0000000000000000e+00  1.8118829093014127e-29 -5.9092525378130198e-29 0.0000000000000000e+00  5.4165352538920933e-29 -1.5951112447027985e-28 0.0000000000000000e+00  8.0744755098656164e-29 -2.2048124829035381e-28 0.0000000000000000e+00  -8.0336713443755762e-30 1.3854999389854222e-29 0.0000000000000000e+00  -6.4862467424051312e-29 1.5533046213437509e-28 0.0000000000000000e+00  1.0541388729282407e-29 -2.4884981331516174e-29 0.0000000000000000e+00  3.7195542485339741e-30 -8.3492196827288643e-30 0.0000000000000000e+00  -1.1687373413344411e-29 2.1749101764283417e-29 0.0000000000000000e+00  -1.1534494984273334e-30 1.5266604130100613e-30 0.0000000000000000e+00  1.4339984347029306e-30 -2.2929137845990802e-30 0.0000000000000000e+00  -7.0247396804084703e-31 1.0932465588117331e-30 0.0000000000000000e+00  9.9686732157250121e-32 -1.5776413753533548e-31 0.0000000000000000e+00  -1.0808408002528547e-32 1.7038363135832445e-32 0.0000000000000000e+00  -2.0983431213209528e-33 2.7175410743844413e-33 0.0000000000000000e+00  6.3075711326462772e-33 -8.0007557023763625e-33 0.0000000000000000e+00  5.3031991387851609e-35 1.6865218679861071e-36 0.0000000000000000e+00  -2.8645973616174229e-34 3.3201991540851167e-34 0.0000000000000000e+00  2.5388183249419414e-35 -2.3136428665886524e-35 0.0000000000000000e+00  -9.0656004234246412e-36 1.1298856283467740e-35 0.0000000000000000e+00  3.1184220882178133e-36 -3.6563253187080089e-36 0.0000000000000000e+00  -1.6098214561758705e-36 1.7204212242026907e-36 0.0000000000000000e+00  4.8758952545670892e-37 -5.5023092788353053e-37 0.0000000000000000e+00  -2.3969018250518212e-37 2.5550965490730656e-37 0.0000000000000000e+00  7.9079785421358284e-38 -8.1698367223509141e-38 0.0000000000000000e+00  -1.4793585734659513e-38 1.5621079920839739e-38 0.0000000000000000e+00  5.8141174498459111e-39 -5.9086407693138133e-39 0.0000000000000000e+00  -4.3756145761155986e-40 3.9032302247007112e-40 0.0000000000000000e+00  -2.0619479972894430e-40 2.4216062145870438e-40 0.0000000000000000e+00  3.4424412844097672e-42 8.5771568034738071e-43 0.0000000000000000e+00  3.7280771617665423e-40 -3.1252837788385772e-40 0.0000000000000000e+00  -8.3517258880406472e-40 6.9429199114530942e-40 0.0000000000000000e+00  2.6704354491971345e-39 -2.4567685430452884e-39 0.0000000000000000e+00  -8.6003518450921274e-40 1.2821954225628823e-39 0.0000000000000000e+00  -1.4734708988952962e-38 1.1565855830432508e-38 0.0000000000000000e+00  5.0914183090012825e-38 -4.2788652747425605e-38 0.0000000000000000e+00  -5.9016099591954279e-38 5.4528317925813845e-38 0.0000000000000000e+00  -1.5251752645283958e-37 1.0770669341807907e-37 0.0000000000000000e+00  8.2054276837957321e-37 -6.4068390437956610e-37 0.0000000000000000e+00  -1.2937121489847451e-36 1.0648276345946036e-36 0.0000000000000000e+00  -1.5666803874401260e-36 1.0146936841035716e-36 0.0000000000000000e+00  1.1533663944910784e-35 -8.5229890148961600e-36 0.0000000000000000e+00  -2.0652780102187533e-35 1.5702146530766866e-35 0.0000000000000000e+00  -1.9861086888725327e-35 1.2747401080202637e-35 0.0000000000000000e+00  1.6734134259094759e-34 -1.1764705322445802e-34 0.0000000000000000e+00  -2.5081236554710725e-34 1.7911958487560846e-34 0.0000000000000000e+00  -3.9832291983515353e-34 2.6163814798903958e-34 0.0000000000000000e+00  2.2500886233733792e-33 -1.5003429173650227e-33 0.0000000000000000e+00  -2.0472534292693094e-33 1.3628095671440023e-33 0.0000000000000000e+00  -8.4993804909078553e-33 5.4131490159189525e-33 0.0000000000000000e+00  2.5515585721078985e-32 -1.5977017400783656e-32 0.0000000000000000e+00  4.4472478041571251e-33 -2.8630817875283734e-33 0.0000000000000000e+00  -1.4281424246256893e-31 8.5199511621393684e-32 0.0000000000000000e+00  1.7909788990398203e-31 -1.0124087870366375e-31 0.0000000000000000e+00  4.9352098881337321e-31 -2.8400271373899162e-31 0.0000000000000000e+00  -1.4021133295027833e-30 7.5617737608317436e-31 0.0000000000000000e+00  -9.2100881659849391e-31 5.4946402360514332e-31 0.0000000000000000e+00  7.6827609496159374e-30 -3.9363085200924691e-30 0.0000000000000000e+00  -1.9179986928057529e-30 5.1012805878500586e-31 0.0000000000000000e+00  -3.4605329660840555e-29 1.6877829160111478e-29 0.0000000000000000e+00  2.7468114632839781e-29 -9.9403256195226672e-30 0.0000000000000000e+00  1.4341408203923745e-28 -6.6902216724013199e-29 0.0000000000000000e+00  -1.5914130397901309e-28 5.2295060840598890e-29 0.0000000000000000e+00  -6.0590280150215202e-28 2.6555879431523571e-28 0.0000000000000000e+00  6.3578494736816130e-28 -1.6133637613416149e-28 0.0000000000000000e+00  2.5457884315939747e-27 -1.0123575378963296e-27 0.0000000000000000e+00  -1.9283576885472701e-27 2.3262361864792948e-28 0.0000000000000000e+00  -9.8600528031983866e-27 3.1202025191743182e-27 0.0000000000000000e+00  2.6632296121393353e-27 9.1410915224960692e-28 0.0000000000000000e+00  3.1199752316316144e-26 -7.0973189059742651e-27 0.0000000000000000e+00  1.5583798760724209e-26 -6.9504109351539067e-27 0.0000000000000000e+00  -8.6329856127145155e-26 1.1994856895991555e-26 0.0000000000000000e+00  -1.2973216162522938e-25 2.0292453794513412e-26 0.0000000000000000e+00  1.4993094649145604e-25 -3.2885289453604627e-26 0.0000000000000000e+00  8.5020621281268112e-25 -1.5595435720319305e-25 0.0000000000000000e+00  1.5279181157322387e-24 -2.5570324019914755e-25 0.0000000000000000e+00  1.8315824517490712e-24 -2.5672558695464709e-25 0.0000000000000000e+00  1.7581155678317904e-24 -1.4342850028442520e-25 0.0000000000000000e+00  1.7556548166872735e-24 1.7098369021984861e-26 0.0000000000000000e+00  1.8781106121419320e-24 1.6087342982445396e-25 0.0000000000000000e+00  1.7532104483150339e-24 2.1889439167631068e-25 0.0000000000000000e+00  1.1658126736373804e-24 1.6747561952611377e-25 0.0000000000000000e+00  3.6671535736090615e-25 5.3390101956258115e-26 0.0000000000000000e+00  -1.3199668034064911e-25 -2.7862325537114796e-26 0.0000000000000000e+00  -1.9202706052952656e-25 -3.5185772312950167e-26 0.0000000000000000e+00  -3.3824503289377698e-26 -7.3568301347069441e-28 0.0000000000000000e+00  5.6407942856883828e-26 1.7861587216358558e-26 0.0000000000000000e+00  3.4598397665492392e-26 9.6651801151309817e-27 0.0000000000000000e+00  -4.4429522523323235e-27 -1.7816839934052151e-27 0.0000000000000000e+00  -9.6852371902147571e-27 -3.0379725726787314e-27 0.0000000000000000e+00  -4.8536876642369411e-28 -1.1692658777933895e-29 0.0000000000000000e+00  2.4748077591220753e-27 8.8778324396464420e-28 0.0000000000000000e+00  2.8226912029102887e-28 7.3609986988918304e-29 0.0000000000000000e+00  -6.0013920524093404e-28 -2.3427998544125734e-28 0.0000000000000000e+00  -6.1171146426534133e-29 -1.7605682448783957e-29 0.0000000000000000e+00  1.3998663640525311e-28 5.8523481712178952e-29 0.0000000000000000e+00  1.3808945920918640e-30 -1.2266942947406063e-30 0.0000000000000000e+00  -3.0864782046419978e-29 -1.3690883182966205e-29 0.0000000000000000e+00  3.5028560567031165e-30 2.0815931498535958e-30 0.0000000000000000e+00  5.7282603504043508e-30 2.6736970163058170e-30 0.0000000000000000e+00  -1.8291741192052045e-30 -1.0058026268362317e-30 0.0000000000000000e+00  -8.1492766861232452e-31 -3.8631844184715403e-31 0.0000000000000000e+00  5.5707665970579196e-31 3.1234018439558509e-31 0.0000000000000000e+00  2.2002206624157708e-32 2.1609926671863415e-33 0.0000000000000000e+00  -1.1803928272511386e-31 -6.8243010055497004e-32 0.0000000000000000e+00  2.7375864032225282e-32 1.8346434024773455e-32 0.0000000000000000e+00  1.6390034895019946e-32 9.5186237831906962e-33 0.0000000000000000e+00  -1.0640615233489124e-32 -6.9304065697169919e-33 0.0000000000000000e+00  2.1616806951759412e-34 2.7267488481738275e-34 0.0000000000000000e+00  1.8628194449504743e-33 1.2441810126740594e-33 0.0000000000000000e+00  -7.1255606199645065e-34 -5.0623590659062135e-34 0.0000000000000000e+00  -9.1397864255082773e-35 -6.0087359611308747e-35 0.0000000000000000e+00  1.6614029714019626e-34 1.2087267445671975e-34 0.0000000000000000e+00  -4.7968365319389753e-35 -3.5967791755126584e-35 0.0000000000000000e+00  -9.8785669126953326e-36 -7.6509978702009754e-36 0.0000000000000000e+00  1.2001974589436908e-35 9.3826074410380108e-36 0.0000000000000000e+00  -3.2820467798225842e-36 -2.5521960401147419e-36 0.0000000000000000e+00  -6.3702299229117023e-37 -5.6113576698720545e-37 0.0000000000000000e+00  8.1490595563751889e-37 6.8160172360938987e-37 0.0000000000000000e+00  -2.5139838377512223e-37 -2.0468432699419922e-37 0.0000000000000000e+00  -1.9343844634016212e-38 -2.2415756368624555e-38 0.0000000000000000e+00  4.8599044624495999e-38 4.4053664776149165e-38 0.0000000000000000e+00  -1.9913181075230318e-38 -1.7333956398508527e-38 0.0000000000000000e+00  1.4833545158194942e-39 8.0376429033953939e-40 0.0000000000000000e+00  2.3706909570226874e-39 2.3939586177538167e-39 0.0000000000000000e+00  -1.3697832012604829e-39 -1.2937233248187423e-39 0.0000000000000000e+00  3.3244451146874590e-40 2.9145312164113390e-40 0.0000000000000000e+00  1.0740710740222989e-40 1.3123503509825585e-40 0.0000000000000000e+00  3.0286978645825748e-40 2.8805326369056045e-40 0.0000000000000000e+00  -7.2202957942781681e-40 -8.1667821977410024e-40 0.0000000000000000e+00  1.4846321668467476e-39 1.6965045338069272e-39 0.0000000000000000e+00  -9.7879549982242916e-39 -1.1484052698979173e-38 0.0000000000000000e+00  8.0079031712993291e-38 8.4378552231705366e-38 0.0000000000000000e+00  -2.1364044789462703e-37 -2.0985073300278720e-37 0.0000000000000000e+00  2.7021108049307356e-37 2.7874127675723719e-37 0.0000000000000000e+00  -3.4609515048008856e-36 -4.0123954766583727e-36 0.0000000000000000e+00  9.3964507974910469e-36 1.2496637114635728e-35 0.0000000000000000e+00  -3.6046286454580906e-35 -5.2739073713141821e-35 0.0000000000000000e+00  7.9327598558580560e-35 1.1429864227251446e-34 0.0000000000000000e+00  -1.1329840148236568e-34 -1.9598320271928467e-34 0.0000000000000000e+00  7.7064569798535647e-34 1.1237744976310875e-33 0.0000000000000000e+00  -9.9578076706697617e-35 -1.8391662583008779e-34 0.0000000000000000e+00  1.9832316510253593e-33 3.6183975343881511e-33 0.0000000000000000e+00  3.4308511194473259e-32 4.7257750886980657e-32 0.0000000000000000e+00  -1.4171369246544975e-31 -2.0156252410861343e-31 0.0000000000000000e+00  -4.9773031021555875e-31 -7.1632900036127092e-31 0.0000000000000000e+00  1.1156557220824130e-30 1.6036460643776516e-30 0.0000000000000000e+00  -5.6297150373238251e-31 -7.9705970239904709e-31 0.0000000000000000e+00  -2.8501023602061008e-30 -5.4676968773417973e-30 0.0000000000000000e+00  8.9187557381323916e-30 1.9821559765777041e-29 0.0000000000000000e+00  1.1798959490661929e-29 2.6485393443493764e-29 0.0000000000000000e+00  -7.1895898471683781e-29 -1.6848331148481390e-28 0.0000000000000000e+00  2.2054370337762650e-29 4.7944927412816850e-29 0.0000000000000000e+00  8.7477782092751202e-29 1.7965250314945485e-28 0.0000000000000000e+00  1.9811613037246505e-29 7.4825666259577364e-29 0.0000000000000000e+00  1.8296544822317851e-28 6.0710807926838932e-28 0.0000000000000000e+00  8.3917311377833695e-29 2.6980259660363568e-28 0.0000000000000000e+00  -1.7100708465404292e-28 -5.8948620897829169e-28 0.0000000000000000e+00  -3.6311084128860831e-28 -1.2106311448671054e-27 0.0000000000000000e+00  2.5073074745656405e-28 9.4743518670190068e-28 0.0000000000000000e+00  4.0121274551211139e-28 1.6604395476699225e-27 0.0000000000000000e+00  3.1376519305463309e-28 1.2706166088161665e-27 0.0000000000000000e+00  2.3415166913269347e-28 7.6327679932511929e-28 0.0000000000000000e+00  -4.7206444823936971e-28 -2.3584013037243737e-27 0.0000000000000000e+00  -6.3611087843236497e-29 -5.5556181466303950e-28 0.0000000000000000e+00  1.1692214955669620e-29 -1.7335731809347314e-28 0.0000000000000000e+00  -2.2417802660127358e-28 -1.4561284171413281e-27 0.0000000000000000e+00  -1.8806935610864924e-28 -1.3774302035975718e-27 0.0000000000000000e+00  -3.7808206181100186e-28 -2.4185934381118203e-27 0.0000000000000000e+00  -2.3484110396797817e-28 -1.0906738625334895e-27 0.0000000000000000e+00  2.3839970307504868e-29 1.1847385915537956e-27 0.0000000000000000e+00  -1.0327996215966627e-28 -4.1160948465151054e-28 0.0000000000000000e+00  -1.0703385667006498e-28 -2.2714094245850710e-27 0.0000000000000000e+00  -7.2748873372899429e-29 5.0262427845858732e-28 0.0000000000000000e+00  -7.5927753367469610e-29 3.6328113042250341e-28 0.0000000000000000e+00  1.5518969068261936e-29 -1.5846564858466861e-27 0.0000000000000000e+00  -1.4418100128966329e-30 -6.5490675974585526e-28 0.0000000000000000e+00  1.3635438282017813e-28 -1.7151970394137053e-27 0.0000000000000000e+00  -1.8068739804941007e-28 1.5058311595683670e-27 0.0000000000000000e+00  -1.8104737570020597e-28 1.4035454373788704e-27 0.0000000000000000e+00  2.8546122395746022e-28 -1.7829446347535903e-27 0.0000000000000000e+00  1.3656822522856011e-28 -5.1541454873494103e-28 0.0000000000000000e+00  3.2610352099183421e-28 -2.1663285775712217e-27 0.0000000000000000e+00  4.1986952211932307e-29 8.9648169464254161e-28 0.0000000000000000e+00  5.7170215169005321e-29 2.0842626191472995e-28 0.0000000000000000e+00  3.5910301706660142e-28 -1.1743852321501313e-27 0.0000000000000000e+00  2.0000356326006958e-28 -6.1797291086227177e-28 0.0000000000000000e+00  4.7586774012433984e-28 -2.5923955324558872e-27 0.0000000000000000e+00  7.2782023045446348e-28 -3.5192108671308311e-27 0.0000000000000000e+00  8.8381884780081138e-28 -4.5092330195274050e-27 0.0000000000000000e+00  2.2692912367347412e-28 -1.1449644524769633e-27 0.0000000000000000e+00  -3.6886807553289758e-28 1.5134177636121692e-27 0.0000000000000000e+00  -5.5479817444874423e-28 2.4459914050481715e-27 0.0000000000000000e+00  -6.1011029716136930e-28 2.5895729082826094e-27 0.0000000000000000e+00  -1.2960586582969857e-28 5.6567311496114538e-28 0.0000000000000000e+00  1.4940252930857964e-28 -5.4706762637936460e-28 0.0000000000000000e+00  9.8692662035752496e-29 -4.1034868454271362e-28 0.0000000000000000e+00  4.1692451247304477e-28 -1.5661443026283020e-27 0.0000000000000000e+00  1.8417704985646850e-28 -6.3195198335758186e-28 0.0000000000000000e+00  -1.5584669768892044e-28 5.3297857353180989e-28 0.0000000000000000e+00  -1.0911488170478095e-29 7.2423206044564844e-30 0.0000000000000000e+00  2.1404396190095415e-29 -5.6561590772477114e-29 0.0000000000000000e+00  4.6722584233546642e-29 -1.2321982800345023e-28 0.0000000000000000e+00  -1.0666187375763327e-29 2.5790695184669860e-29 0.0000000000000000e+00  -1.5777546478494530e-29 3.6834348619934219e-29 0.0000000000000000e+00  9.6190365