<?xml version="1.0"?>
<VTKFile type="UnstructuredGrid"  version="0.1"  >
<UnstructuredGrid>
<Piece  NumberOfPoints="11902" NumberOfCells="23402">
<Points>
<DataArray  type="Float64"  NumberOfComponents="3"  format="ascii">-5 -5 0  5 -5 0  5 5 0  -5 5 0  1.265516203417656 0.001282805862426787 0  -4.9 -5 0  -4.8 -5 0  -4.7 -5 0  -4.6 -5 0  -4.5 -5 0  -4.4 -5 0  -4.3 -5 0  -4.2 -5 0  -4.1 -5 0  -4 -5 0  -3.9 -5 0  -3.8 -5 0  -3.7 -5 0  -3.6 -5 0  -3.5 -5 0  -3.4 -5 0  -3.3 -5 0  -3.2 -5 0  -3.1 -5 0  -3 -5 0  -2.9 -5 0  -2.8 -5 0  -2.7 -5 0  -2.6 -5 0  -2.5 -5 0  -2.4 -5 0  -2.3 -5 0  -2.2 -5 0  -2.1 -5 0  -2 -5 0  -1.9 -5 0  -1.8 -5 0  -1.7 -5 0  -1.6 -5 0  -1.5 -5 0  -1.4 -5 0  -1.3 -5 0  -1.2 -5 0  -1.1 -5 0  -1 -5 0  -0.9000000000000004 -5 0  -0.7999999999999998 -5 0  -0.7000000000000002 -5 0  -0.5999999999999996 -5 0  -0.5 -5 0  -0.4000000000000004 -5 0  -0.2999999999999998 -5 0  -0.2000000000000002 -5 0  -0.09999999999999964 -5 0  0 -5 0  0.09999999999999964 -5 0  0.2000000000000002 -5 0  0.2999999999999998 -5 0  0.4000000000000004 -5 0  0.5 -5 0  0.5999999999999996 -5 0  0.7000000000000002 -5 0  0.7999999999999998 -5 0  0.9000000000000004 -5 0  1 -5 0  1.1 -5 0  1.2 -5 0  1.3 -5 0  1.4 -5 0  1.5 -5 0  1.6 -5 0  1.7 -5 0  1.8 -5 0  1.9 -5 0  2 -5 0  2.1 -5 0  2.2 -5 0  2.3 -5 0  2.4 -5 0  2.5 -5 0  2.6 -5 0  2.7 -5 0  2.8 -5 0  2.9 -5 0  3 -5 0  3.1 -5 0  3.199999999999999 -5 0  3.300000000000001 -5 0  3.4 -5 0  3.5 -5 0  3.6 -5 0  3.699999999999999 -5 0  3.800000000000001 -5 0  3.9 -5 0  4 -5 0  4.1 -5 0  4.199999999999999 -5 0  4.300000000000001 -5 0  4.4 -5 0  4.5 -5 0  4.6 -5 0  4.699999999999999 -5 0  4.800000000000001 -5 0  4.9 -5 0  5 -4.9 0  5 -4.8 0  5 -4.7 0  5 -4.6 0  5 -4.5 0  5 -4.4 0  5 -4.3 0  5 -4.2 0  5 -4.1 0  5 -4 0  5 -3.9 0  5 -3.8 0  5 -3.7 0  5 -3.6 0  5 -3.5 0  5 -3.4 0  5 -3.3 0  5 -3.2 0  5 -3.1 0  5 -3 0  5 -2.9 0  5 -2.8 0  5 -2.7 0  5 -2.6 0  5 -2.5 0  5 -2.4 0  5 -2.3 0  5 -2.2 0  5 -2.1 0  5 -2 0  5 -1.9 0  5 -1.8 0  5 -1.7 0  5 -1.6 0  5 -1.5 0  5 -1.4 0  5 -1.3 0  5 -1.2 0  5 -1.1 0  5 -1 0  5 -0.9000000000000004 0  5 -0.7999999999999998 0  5 -0.7000000000000002 0  5 -0.5999999999999996 0  5 -0.5 0  5 -0.4000000000000004 0  5 -0.2999999999999998 0  5 -0.2000000000000002 0  5 -0.09999999999999964 0  5 0 0  5 0.09999999999999964 0  5 0.2000000000000002 0  5 0.2999999999999998 0  5 0.4000000000000004 0  5 0.5 0  5 0.5999999999999996 0  5 0.7000000000000002 0  5 0.7999999999999998 0  5 0.9000000000000004 0  5 1 0  5 1.1 0  5 1.2 0  5 1.3 0  5 1.4 0  5 1.5 0  5 1.6 0  5 1.7 0  5 1.8 0  5 1.9 0  5 2 0  5 2.1 0  5 2.2 0  5 2.3 0  5 2.4 0  5 2.5 0  5 2.6 0  5 2.7 0  5 2.8 0  5 2.9 0  5 3 0  5 3.1 0  5 3.199999999999999 0  5 3.300000000000001 0  5 3.4 0  5 3.5 0  5 3.6 0  5 3.699999999999999 0  5 3.800000000000001 0  5 3.9 0  5 4 0  5 4.1 0  5 4.199999999999999 0  5 4.300000000000001 0  5 4.4 0  5 4.5 0  5 4.6 0  5 4.699999999999999 0  5 4.800000000000001 0  5 4.9 0  4.9 5 0  4.8 5 0  4.7 5 0  4.6 5 0  4.5 5 0  4.4 5 0  4.3 5 0  4.2 5 0  4.1 5 0  4 5 0  3.9 5 0  3.8 5 0  3.7 5 0  3.6 5 0  3.5 5 0  3.4 5 0  3.3 5 0  3.2 5 0  3.1 5 0  3 5 0  2.9 5 0  2.8 5 0  2.7 5 0  2.6 5 0  2.5 5 0  2.4 5 0  2.3 5 0  2.2 5 0  2.1 5 0  2 5 0  1.9 5 0  1.8 5 0  1.7 5 0  1.6 5 0  1.5 5 0  1.4 5 0  1.3 5 0  1.2 5 0  1.1 5 0  1 5 0  0.9000000000000004 5 0  0.7999999999999998 5 0  0.7000000000000002 5 0  0.5999999999999996 5 0  0.5 5 0  0.4000000000000004 5 0  0.2999999999999998 5 0  0.2000000000000002 5 0  0.09999999999999964 5 0  0 5 0  -0.09999999999999964 5 0  -0.2000000000000002 5 0  -0.2999999999999998 5 0  -0.4000000000000004 5 0  -0.5 5 0  -0.5999999999999996 5 0  -0.7000000000000002 5 0  -0.7999999999999998 5 0  -0.9000000000000004 5 0  -1 5 0  -1.1 5 0  -1.2 5 0  -1.3 5 0  -1.4 5 0  -1.5 5 0  -1.6 5 0  -1.7 5 0  -1.8 5 0  -1.9 5 0  -2 5 0  -2.1 5 0  -2.2 5 0  -2.3 5 0  -2.4 5 0  -2.5 5 0  -2.6 5 0  -2.7 5 0  -2.8 5 0  -2.9 5 0  -3 5 0  -3.1 5 0  -3.199999999999999 5 0  -3.300000000000001 5 0  -3.4 5 0  -3.5 5 0  -3.6 5 0  -3.699999999999999 5 0  -3.800000000000001 5 0  -3.9 5 0  -4 5 0  -4.1 5 0  -4.199999999999999 5 0  -4.300000000000001 5 0  -4.4 5 0  -4.5 5 0  -4.6 5 0  -4.699999999999999 5 0  -4.800000000000001 5 0  -4.9 5 0  -5 4.9 0  -5 4.8 0  -5 4.7 0  -5 4.6 0  -5 4.5 0  -5 4.4 0  -5 4.3 0  -5 4.2 0  -5 4.1 0  -5 4 0  -5 3.9 0  -5 3.8 0  -5 3.7 0  -5 3.6 0  -5 3.5 0  -5 3.4 0  -5 3.3 0  -5 3.2 0  -5 3.1 0  -5 3 0  -5 2.9 0  -5 2.8 0  -5 2.7 0  -5 2.6 0  -5 2.5 0  -5 2.4 0  -5 2.3 0  -5 2.2 0  -5 2.1 0  -5 2 0  -5 1.9 0  -5 1.8 0  -5 1.7 0  -5 1.6 0  -5 1.5 0  -5 1.4 0  -5 1.3 0  -5 1.2 0  -5 1.1 0  -5 1 0  -5 0.9000000000000004 0  -5 0.7999999999999998 0  -5 0.7000000000000002 0  -5 0.5999999999999996 0  -5 0.5 0  -5 0.4000000000000004 0  -5 0.2999999999999998 0  -5 0.2000000000000002 0  -5 0.09999999999999964 0  -5 0 0  -5 -0.09999999999999964 0  -5 -0.2000000000000002 0  -5 -0.2999999999999998 0  -5 -0.4000000000000004 0  -5 -0.5 0  -5 -0.5999999999999996 0  -5 -0.7000000000000002 0  -5 -0.7999999999999998 0  -5 -0.9000000000000004 0  -5 -1 0  -5 -1.1 0  -5 -1.2 0  -5 -1.3 0  -5 -1.4 0  -5 -1.5 0  -5 -1.6 0  -5 -1.7 0  -5 -1.8 0  -5 -1.9 0  -5 -2 0  -5 -2.1 0  -5 -2.2 0  -5 -2.3 0  -5 -2.4 0  -5 -2.5 0  -5 -2.6 0  -5 -2.7 0  -5 -2.8 0  -5 -2.9 0  -5 -3 0  -5 -3.1 0  -5 -3.199999999999999 0  -5 -3.300000000000001 0  -5 -3.4 0  -5 -3.5 0  -5 -3.6 0  -5 -3.699999999999999 0  -5 -3.800000000000001 0  -5 -3.9 0  -5 -4 0  -5 -4.1 0  -5 -4.199999999999999 0  -5 -4.300000000000001 0  -5 -4.4 0  -5 -4.5 0  -5 -4.6 0  -5 -4.699999999999999 0  -5 -4.800000000000001 0  -5 -4.9 0  1.25784332921338 0.0914714146816528 0  1.235733350587231 0.1889125660852097 0  1.201520847981848 0.2860617465128591 0  1.158845024212861 0.3751032793427042 0  1.099901229725193 0.4663603108420386 0  1.032602469051591 0.5493814256558287 0  0.9544484192324474 0.6300909086634184 0  0.8674603257081284 0.7046904904950684 0  0.7756388642101034 0.7695331520088856 0  0.6744389858774944 0.827061142570265 0  0.5603222443401564 0.8793590186738715 0  0.4458325279401095 0.9244867875155991 0  0.3367810510347901 0.9556746096566503 0  0.2087827025799896 0.9792300673303805 0  0.08636843147666484 0.9968649494050752 0  -0.02589653172948778 1.000555871936354 0  -0.14352077610724 0.9873895630686762 0  -0.2753302253555248 0.9668235597775937 0  -0.3963009191643657 0.9422771741252379 0  -0.5047097059520611 0.9078889467784949 0  -0.6135697873482244 0.8616263283260697 0  -0.7154318201664301 0.8061637204099196 0  -0.8094763228189835 0.7423917891185143 0  -0.9011728731523747 0.6687984332890869 0  -0.9880162446455172 0.5882720930637564 0  -1.062863726936939 0.5061298304604555 0  -1.125519805903306 0.4223197460671331 0  -1.182347531444886 0.3265221773541374 0  -1.219177548938936 0.2411004802734675 0  -1.243170287036911 0.1481292091569723 0  -1.253065100393845 0.05311576341409755 0  -1.252974860176661 -0.05083789787451538 0  -1.24290453708238 -0.1451036100821901 0  -1.2188172930471 -0.2343398852485355 0  -1.176088476110719 -0.3304925642479992 0  -1.125808494219752 -0.4235705956301219 0  -1.065479663615126 -0.5056493823576228 0  -0.9906868024718269 -0.5872622110564455 0  -0.9044424954937933 -0.6667054832370638 0  -0.81399365835575 -0.7373008364865211 0  -0.7192243793059137 -0.7974760091006317 0  -0.6150741214967443 -0.8511529349794429 0  -0.4978277963884178 -0.9010238555944696 0  -0.3858874197067481 -0.9407570196690317 0  -0.2720542991748515 -0.9666759730305596 0  -0.1415924461931584 -0.9875278277334969 0  -0.02741100709412522 -0.9997486808096689 0  0.08395792696980028 -0.992476141180535 0  0.2162311056544513 -0.974362369980892 0  0.3401528652612121 -0.9535478779640415 0  0.450227520966878 -0.9230964380272354 0  0.5633983200580359 -0.8784954394933195 0  0.6759087200315858 -0.8267601174631096 0  0.775115243246036 -0.7709139986087366 0  0.8655368656692742 -0.7070596432091918 0  0.950536623804844 -0.6316056629351746 0  1.030432758003722 -0.5475245125196996 0  1.10236983326391 -0.4636972035822038 0  1.159930497265077 -0.3750043318942942 0  1.203439558605721 -0.284140803122444 0  1.236488660522923 -0.1884616895353783 0  1.258242457210373 -0.09187475009478431 0  -2.44850008227206 4.918006266727082 0  -2.448368278070563 -4.910374458404417 0  4.910293578498468 2.44780943810327 0  4.918431749726345 -2.449279139676761 0  2.446087273493346 -4.895585500010423 0  2.440523073204404 4.899352400823822 0  -4.910320812613444 -2.447836846529007 0  -4.910318133341071 2.447841138434066 0  -1.748451739002683 4.910845297264938 0  -1.744240462000868 -4.914292747125534 0  4.92043711217426 1.74399245664189 0  4.908943003916387 -1.747742824686206 0  -4.909238022776949 -1.74747796830784 0  -4.910062276720823 1.747224157353481 0  1.745719517084163 4.904688713641084 0  1.74712471461762 -4.89281112408574 0  -1.148775699306352 4.908591604015604 0  -1.129637965616505 -4.916526199663011 0  -4.908902578173084 -1.147822117967505 0  -4.908720341780547 1.14762301100409 0  1.143773740382168 -4.912700961978991 0  1.148784683862793 4.908577383867335 0  4.909041959576088 1.146096547065352 0  4.919908639083527 -1.151891450339882 0  -0.5466340869861643 -4.909760881685085 0  -0.5464209896206249 4.918470741624262 0  -4.907592518009517 -0.5486497080724342 0  -4.90761651031769 0.5472082742826618 0  4.906908202482304 -0.5489675655202623 0  4.918608570926609 0.5457320777376086 0  0.542412921956212 -4.896598922645933 0  0.5511471948966826 4.915283622415046 0  -4.91179089665938 -3.048209632965026 0  4.918369211453759 3.046231156290177 0  4.911298103664568 -3.048184307659887 0  -4.912639498632458 3.045302174815609 0  3.055233152762974 -4.917290836168937 0  -3.048558643772448 -4.91121971529334 0  3.052127604584116 4.913299327567654 0  -3.0480050941897 4.912110628050387 0  -4.906684712141761 -0.04990175108901136 0  0.0451175401745737 -4.911708737211146 0  0.04956405232595169 4.918757317860837 0  4.913766204865805 -0.05128474010299319 0  3.545566002886836 -4.918962790852859 0  -3.548841844416828 4.911857859
[...]
<PointData  Vectors="f_7586"> 
<DataArray  type="Float64"  Name="f_7586"  NumberOfComponents="3" format="ascii">1.2181671612659521e-40 9.0313614954295689e-41 0.0000000000000000e+00  -8.8244213554287646e-41 7.4216674311397404e-41 0.0000000000000000e+00  -2.7147894525748688e-42 1.5765408714801243e-41 0.0000000000000000e+00  7.7012016988083175e-41 -7.4848358017214360e-41 0.0000000000000000e+00  1.0647434245200232e+01 -1.2293002896103977e-02 0.0000000000000000e+00  -2.1785665483360524e-40 -1.6581418958946242e-40 0.0000000000000000e+00  2.1964059021645405e-41 -5.2899943111206744e-41 0.0000000000000000e+00  6.4609323824353750e-41 1.9022845425766936e-40 0.0000000000000000e+00  -9.0472557549719708e-39 -7.2022500696876833e-39 0.0000000000000000e+00  3.0127139732282965e-38 2.3051885225373538e-38 0.0000000000000000e+00  -1.7014482093946131e-37 -1.1907103852257701e-37 0.0000000000000000e+00  5.3376712414755308e-37 3.8722433358794445e-37 0.0000000000000000e+00  -1.6865794172133140e-36 -1.6048569431283048e-36 0.0000000000000000e+00  5.4767646246882589e-36 7.5922768040090773e-36 0.0000000000000000e+00  -2.6442283003268589e-35 -3.2806638492667004e-35 0.0000000000000000e+00  4.2222222629602114e-35 6.2239072133687745e-35 0.0000000000000000e+00  -4.4355115147409324e-35 -1.1026480028643159e-34 0.0000000000000000e+00  -3.1773098420387915e-34 -3.9438596609709205e-34 0.0000000000000000e+00  1.5568378161328374e-33 2.0839484799937295e-33 0.0000000000000000e+00  -4.1493327307397629e-33 -6.6679580569034102e-33 0.0000000000000000e+00  2.5199082755985143e-32 3.7698864229190908e-32 0.0000000000000000e+00  -6.8230290659626649e-32 -1.0054098379198260e-31 0.0000000000000000e+00  -5.5922399678833325e-32 -3.2052930276139978e-32 0.0000000000000000e+00  4.3220702719016951e-31 3.4083551888802309e-31 0.0000000000000000e+00  1.0175337957921960e-31 4.1455292612205159e-31 0.0000000000000000e+00  1.1999229591088641e-31 1.0140383085563785e-30 0.0000000000000000e+00  -8.4193648359542337e-31 -2.1091602541035197e-30 0.0000000000000000e+00  1.4457829152352807e-30 8.8223633590049550e-30 0.0000000000000000e+00  -6.4789467897227607e-30 -2.3794607331980410e-29 0.0000000000000000e+00  -4.1609533534524881e-30 -1.4674115572549516e-29 0.0000000000000000e+00  3.8621569607877869e-29 1.0950823990904279e-28 0.0000000000000000e+00  1.2377027325773648e-29 5.1102607439889575e-29 0.0000000000000000e+00  7.6416623435355753e-30 7.5318627927819311e-29 0.0000000000000000e+00  -2.8087843965337238e-29 -1.1164908170086785e-28 0.0000000000000000e+00  -8.2106822678697296e-29 -2.2360655045232696e-28 0.0000000000000000e+00  -8.3557547047441086e-30 -1.6915947003909670e-28 0.0000000000000000e+00  -3.1182904494920289e-29 -2.4662148166109780e-28 0.0000000000000000e+00  7.8521568073789313e-30 2.0429423530222401e-29 0.0000000000000000e+00  6.6104591700056902e-29 6.3733860563923203e-28 0.0000000000000000e+00  6.9459218236492665e-29 7.2806319813328611e-28 0.0000000000000000e+00  4.7661076946074506e-29 1.8133839989084602e-28 0.0000000000000000e+00  2.7736052434780827e-29 -6.6447324651059031e-28 0.0000000000000000e+00  4.0133232361500686e-29 -4.2611541689958890e-28 0.0000000000000000e+00  4.5584644668108878e-29 7.3366832096811479e-29 0.0000000000000000e+00  1.7143153497889243e-29 -2.6136395365305291e-28 0.0000000000000000e+00  -1.0033305332590081e-28 1.6581867632540645e-28 0.0000000000000000e+00  -3.8075928952934172e-29 6.4779725071796663e-29 0.0000000000000000e+00  3.8368352363621517e-29 -3.9073341279589195e-29 0.0000000000000000e+00  4.6495333464228374e-29 -9.5430207013260915e-29 0.0000000000000000e+00  -5.9037807461047424e-29 2.9114840528032412e-28 0.0000000000000000e+00  -1.7814238459143382e-28 7.2682809200718066e-28 0.0000000000000000e+00  -1.8354675665859347e-28 9.8358431436965344e-28 0.0000000000000000e+00  -1.0825745986429267e-28 4.2283451207862988e-28 0.0000000000000000e+00  -9.1585916788245146e-30 -7.2739674718786689e-28 0.0000000000000000e+00  9.3453646034150879e-30 -8.7154168343288166e-28 0.0000000000000000e+00  -4.1483088159114562e-29 1.5724141888008601e-28 0.0000000000000000e+00  -5.3888650275601182e-29 8.9034796095426754e-29 0.0000000000000000e+00  -4.5546234930028160e-29 4.1573007677363006e-28 0.0000000000000000e+00  -3.6185612825768516e-29 1.8794886734547378e-28 0.0000000000000000e+00  -7.4463081081478101e-29 6.1476065182468051e-28 0.0000000000000000e+00  -2.7181907380139323e-29 2.0965509569916481e-28 0.0000000000000000e+00  -7.5605672174792256e-30 6.3001394089662149e-29 0.0000000000000000e+00  -5.4780341113479056e-29 3.3871939631179304e-28 0.0000000000000000e+00  -1.2022305719556432e-28 6.9978634126780938e-28 0.0000000000000000e+00  -4.3536440893933897e-29 3.0030418789344972e-28 0.0000000000000000e+00  2.3133865818299989e-29 -1.5478088373603437e-29 0.0000000000000000e+00  -3.1638932535191235e-29 3.6077449722328914e-28 0.0000000000000000e+00  -1.2702973426080755e-29 1.6651860713902821e-28 0.0000000000000000e+00  4.5587063790267296e-29 -3.6796058033280290e-28 0.0000000000000000e+00  -5.2007759889814709e-32 -1.3797306714799620e-28 0.0000000000000000e+00  -1.9294612330550830e-29 1.0618773283952701e-28 0.0000000000000000e+00  -3.6051079733011579e-29 1.2327196802749085e-28 0.0000000000000000e+00  -1.5438868096151640e-29 2.5631239179170920e-29 0.0000000000000000e+00  6.5059164401048813e-30 2.5949972915852013e-29 0.0000000000000000e+00  2.4764868634180176e-29 -7.1888657450027086e-29 0.0000000000000000e+00  1.5853401296884420e-29 -7.5188549162394854e-29 0.0000000000000000e+00  5.0900787868599640e-30 -5.3088802593680298e-29 0.0000000000000000e+00  -1.3666289686266350e-29 7.8602388903894904e-29 0.0000000000000000e+00  -1.6981246441215784e-29 8.8695623660302753e-29 0.0000000000000000e+00  2.7153696943074422e-30 -3.4558722635491498e-30 0.0000000000000000e+00  1.2312606515427501e-29 -4.4999820500090310e-29 0.0000000000000000e+00  -2.2131802044267650e-30 7.8062429952750988e-30 0.0000000000000000e+00  -5.8920288961484542e-31 1.9384043901463953e-30 0.0000000000000000e+00  3.0212297004500348e-30 -5.8062621347094053e-30 0.0000000000000000e+00  4.0497437297522993e-31 -4.7105630132454930e-31 0.0000000000000000e+00  -4.1433762832665725e-31 6.4202225028893017e-31 0.0000000000000000e+00  1.7008613019743119e-31 -2.8118457322519314e-31 0.0000000000000000e+00  -4.0419223413028134e-32 5.3770506575961364e-32 0.0000000000000000e+00  3.6000949190001243e-33 -5.2124841195369826e-33 0.0000000000000000e+00  2.3075814360198753e-33 -2.0965535694980113e-33 0.0000000000000000e+00  -2.4169674501739261e-33 2.6730830377052003e-33 0.0000000000000000e+00  2.4919404784306215e-34 -2.0010584460198480e-34 0.0000000000000000e+00  -6.7219149294229510e-36 -2.7109423249213981e-35 0.0000000000000000e+00  2.7292458270040771e-35 -1.7168316243182824e-35 0.0000000000000000e+00  6.6444617591646978e-37 -2.2426653681158477e-36 0.0000000000000000e+00  -7.6371292331027056e-37 9.3973869739187405e-37 0.0000000000000000e+00  3.2397053305849368e-37 -3.2244023584952572e-37 0.0000000000000000e+00  -1.3080909067957868e-37 1.4044564175537357e-37 0.0000000000000000e+00  5.6448543052019518e-38 -5.4792097954518897e-38 0.0000000000000000e+00  -1.8431550649341665e-38 1.6265976896490147e-38 0.0000000000000000e+00  4.9346653437414325e-39 -4.0817563947639127e-39 0.0000000000000000e+00  -1.6739474697793372e-39 1.3976732067503967e-39 0.0000000000000000e+00  4.5996325706676881e-41 -1.7604917657145741e-41 0.0000000000000000e+00  1.3015257859901028e-40 -1.1719392121926860e-40 0.0000000000000000e+00  1.6086288648482739e-41 -1.2242510842268067e-41 0.0000000000000000e+00  4.4859769736949229e-41 -1.7067875617641115e-41 0.0000000000000000e+00  -7.1479177575541809e-41 1.3251659368466955e-41 0.0000000000000000e+00  -4.9552107397075831e-40 5.4756260583944555e-40 0.0000000000000000e+00  1.5632350925091930e-39 -1.3670792254206952e-39 0.0000000000000000e+00  -1.8948339125331950e-39 8.9125453031098569e-40 0.0000000000000000e+00  -3.2345169893001599e-39 5.2666358098405394e-39 0.0000000000000000e+00  2.0621652357959826e-38 -2.0560715502972451e-38 0.0000000000000000e+00  -4.1801005499990056e-38 2.8435322823578062e-38 0.0000000000000000e+00  5.1311139319933757e-39 3.4172228833894822e-38 0.0000000000000000e+00  2.2887205112527533e-37 -2.4892037148512405e-37 0.0000000000000000e+00  -6.4452020712637671e-37 4.4328632906955441e-37 0.0000000000000000e+00  4.1631355510127944e-37 2.1629356482749963e-37 0.0000000000000000e+00  2.3594657679188966e-36 -2.7191135521963361e-36 0.0000000000000000e+00  -8.3602115998668048e-36 5.0159387477890436e-36 0.0000000000000000e+00  8.2641022518489473e-36 2.3035540183301135e-36 0.0000000000000000e+00  2.3696521286054300e-35 -2.7250595689808341e-35 0.0000000000000000e+00  -9.7326148328830840e-35 4.1693763322248628e-35 0.0000000000000000e+00  1.1357412544160930e-34 3.7258124655635899e-35 0.0000000000000000e+00  2.4135047958362186e-34 -2.3322097571518256e-34 0.0000000000000000e+00  -1.1459108938817492e-33 2.6121079173378405e-34 0.0000000000000000e+00  1.2508174228118265e-33 4.4547338626897373e-34 0.0000000000000000e+00  2.9883016820450854e-33 -1.5545417891996949e-33 0.0000000000000000e+00  -1.2835495066249835e-32 1.1864366134560258e-33 0.0000000000000000e+00  1.0903972775404408e-32 2.7899337302269271e-33 0.0000000000000000e+00  4.1069391352126034e-32 -8.2356269778911982e-33 0.0000000000000000e+00  -1.2449093640098464e-31 8.6034953260923418e-33 0.0000000000000000e+00  3.3807433018050816e-32 3.9356679167685339e-33 0.0000000000000000e+00  5.4139458254031373e-31 -4.4735262513568112e-32 0.0000000000000000e+00  -1.0990739074191683e-30 1.6714088747462601e-31 0.0000000000000000e+00  -9.8887748387251301e-31 -2.1751533741179945e-31 0.0000000000000000e+00  7.4141704510518312e-30 -1.3750519269444538e-30 0.0000000000000000e+00  -4.1160692787621220e-30 4.3155614696344058e-30 0.0000000000000000e+00  -3.7936958943853267e-29 9.2675452554319498e-30 0.0000000000000000e+00  4.4891630744179974e-29 -3.4708435038489897e-29 0.0000000000000000e+00  1.9906416892704869e-28 -7.9091118927765872e-29 0.0000000000000000e+00  -2.1513156500186139e-28 1.7597502212020458e-28 0.0000000000000000e+00  -1.0275622239815312e-27 5.7516098076684470e-28 0.0000000000000000e+00  -2.8107100333488005e-28 7.1976107950016533e-29 0.0000000000000000e+00  4.0529403500645774e-27 -2.5298740781509799e-27 0.0000000000000000e+00  6.2998520263586891e-27 -3.7562797619861104e-27 0.0000000000000000e+00  1.7200921865538255e-27 -3.4310692273068365e-28 0.0000000000000000e+00  -1.4389190516079885e-26 8.7865041359677569e-27 0.0000000000000000e+00  -4.9467846697661300e-26 2.1742304180123335e-26 0.0000000000000000e+00  -1.1391902875082174e-25 3.9424338214989578e-26 0.0000000000000000e+00  -2.2208946072595393e-25 6.8826749130074160e-26 0.0000000000000000e+00  -3.2219933301060839e-25 9.2516843958945568e-26 0.0000000000000000e+00  -3.9342793897732443e-25 9.2107030987516790e-26 0.0000000000000000e+00  -4.0726323899490557e-25 5.1491443090691775e-26 0.0000000000000000e+00  -4.0145007070721797e-25 -1.0143093560261908e-26 0.0000000000000000e+00  -3.8317142508628374e-25 -6.2361495918676007e-26 0.0000000000000000e+00  -3.3817585607595407e-25 -7.9846609898753064e-26 0.0000000000000000e+00  -2.5559888075443724e-25 -6.5077761863142042e-26 0.0000000000000000e+00  -1.4503231932702252e-25 -3.7416920329424192e-26 0.0000000000000000e+00  -5.1649308100360672e-26 -1.6050031739532440e-26 0.0000000000000000e+00  -1.9721537164010285e-28 -3.8629936191555278e-27 0.0000000000000000e+00  1.2434048965141931e-26 2.6584379928862897e-27 0.0000000000000000e+00  1.0546467339722048e-26 5.7261568330076573e-27 0.0000000000000000e+00  6.6027192450959550e-27 4.8492963311731407e-27 0.0000000000000000e+00  2.4238279400607835e-27 1.7258972283600920e-27 0.0000000000000000e+00  -5.6076226307809423e-28 -3.9906317437893498e-28 0.0000000000000000e+00  -1.0214981942813496e-27 -6.0995751925894313e-28 0.0000000000000000e+00  -1.2686665709219176e-28 -7.8149551130258212e-29 0.0000000000000000e+00  2.3788430613505475e-28 1.1543251643644278e-28 0.0000000000000000e+00  5.0897997451299950e-29 3.0377099834548014e-29 0.0000000000000000e+00  -5.3434583358676498e-29 -2.0434126839679633e-29 0.0000000000000000e+00  -8.3771455786821909e-30 -5.3912498170326233e-30 0.0000000000000000e+00  1.2114516271430536e-29 3.9037520255730318e-30 0.0000000000000000e+00  -3.0121575570950688e-31 3.0804204388039872e-31 0.0000000000000000e+00  -2.2278852773211150e-30 -6.4606631764746741e-31 0.0000000000000000e+00  6.0438549392762442e-31 1.4003137495387538e-31 0.0000000000000000e+00  2.6847394446070992e-31 6.9239846209522507e-32 0.0000000000000000e+00  -1.9628149345230767e-31 -5.8042507914906972e-32 0.0000000000000000e+00  7.0909040982817600e-33 6.6474100714615625e-33 0.0000000000000000e+00  3.7062196474938300e-32 1.1908378664715632e-32 0.0000000000000000e+00  -1.3659659696418241e-32 -5.9615811444060301e-33 0.0000000000000000e+00  -3.0752793726204931e-33 -8.6482328855015846e-34 0.0000000000000000e+00  3.9535864851013627e-33 1.7414434969846173e-33 0.0000000000000000e+00  -7.9219859801589050e-34 -4.0680493267422769e-34 0.0000000000000000e+00  -4.5818174246451097e-34 -2.2237944638474325e-34 0.0000000000000000e+00  3.0403624878502588e-34 1.5639055761654191e-34 0.0000000000000000e+00  -3.1087187785781584e-35 -1.3757400469208854e-35 0.0000000000000000e+00  -4.3765651090970914e-35 -2.4981471462672709e-35 0.0000000000000000e+00  2.2171820934787247e-35 1.1655884187423672e-35 0.0000000000000000e+00  -1.3689738245525275e-36 -1.3546699901826907e-37 0.0000000000000000e+00  -3.0813930177393375e-36 -1.8461988255109341e-36 0.0000000000000000e+00  1.4377786419472837e-36 7.0404353604749998e-37 0.0000000000000000e+00  -1.1232706478652529e-37 9.0781144114638636e-39 0.0000000000000000e+00  -1.7658627014949835e-37 -1.0594378266587428e-37 0.0000000000000000e+00  9.3681964578522735e-38 3.8582811586857831e-38 0.0000000000000000e+00  -1.5272346595451282e-38 -3.2943778074485587e-40 0.0000000000000000e+00  -6.4492068262388572e-39 -4.5159982366140755e-39 0.0000000000000000e+00  4.9233010044991162e-39 1.3977221169781364e-39 0.0000000000000000e+00  -1.4754661331834237e-39 1.1216773945685020e-40 0.0000000000000000e+00  7.5065838596317301e-41 -1.6809484127036621e-40 0.0000000000000000e+00  1.2447370633894411e-40 -2.3576012213471007e-42 0.0000000000000000e+00  -6.9558253626007138e-41 4.0031139621930817e-41 0.0000000000000000e+00  1.4249807811297292e-41 -2.4946765417710932e-41 0.0000000000000000e+00  -1.4690694684350419e-41 -8.1509925110680922e-42 0.0000000000000000e+00  4.9839529341317061e-42 -2.8657963312840267e-41 0.0000000000000000e+00  7.3850132335899628e-41 7.2500602958919401e-41 0.0000000000000000e+00  -3.3252743285913397e-40 -2.9540864517891966e-40 0.0000000000000000e+00  4.5422326842386056e-39 3.6160790115777880e-39 0.0000000000000000e+00  -3.2978031304937113e-38 -3.0723154396187914e-38 0.0000000000000000e+00  1.4757053353081834e-37 1.3960339707235007e-37 0.0000000000000000e+00  -2.8986753789263699e-37 -2.7233275874932372e-37 0.0000000000000000e+00  1.6978900220814612e-36 1.6838356967635278e-36 0.0000000000000000e+00  -6.6594693816604487e-37 -1.2132594126801870e-36 0.0000000000000000e+00  -1.2689814532652851e-35 -9.1771098502276031e-36 0.0000000000000000e+00  5.0405135783083690e-35 4.2474941162262328e-35 0.0000000000000000e+00  -2.6984222261462479e-34 -2.4813160640632272e-34 0.0000000000000000e+00  5.0268550585056762e-34 4.6212746846515321e-34 0.0000000000000000e+00  -6.1617537958803071e-34 -6.3104214969534511e-34 0.0000000000000000e+00  2.5862538998029600e-33 1.5839832421402083e-33 0.0000000000000000e+00  6.2205560419597504e-33 7.4943969709417275e-33 0.0000000000000000e+00  -3.4559615716442785e-32 -2.6245771377395671e-32 0.0000000000000000e+00  -1.3173745073372491e-31 -1.9933531138239801e-31 0.0000000000000000e+00  3.4073049933573307e-31 6.2556069438458890e-31 0.0000000000000000e+00  -4.9187591793675674e-31 -1.0696636193722937e-30 0.0000000000000000e+00  -4.5299606279850036e-31 -7.1625594893675963e-31 0.0000000000000000e+00  2.6430217964367793e-30 4.4070424642072259e-30 0.0000000000000000e+00  5.3060038120549553e-31 1.8785583694031664e-30 0.0000000000000000e+00  2.0592808538313417e-30 3.9410609849678727e-30 0.0000000000000000e+00  -5.1991640097704126e-30 -4.8198482934875073e-30 0.0000000000000000e+00  -7.7220919320112846e-30 3.5968330928101437e-29 0.0000000000000000e+00  -4.7416665963729207e-30 -5.3431319144001475e-29 0.0000000000000000e+00  -3.0489208079133058e-29 -2.1189063166892227e-28 0.0000000000000000e+00  -1.4711422689747191e-29 -6.0221090827559553e-29 0.0000000000000000e+00  2.1679850556963504e-29 3.0619617890902123e-29 0.0000000000000000e+00  4.8515675443460856e-29 3.9715247805122170e-28 0.0000000000000000e+00  -1.3959941937876056e-30 -1.7714360480627393e-28 0.0000000000000000e+00  3.7668991753973313e-29 -3.2878725294120491e-28 0.0000000000000000e+00  -2.8612691906452927e-29 -1.6803241156927697e-28 0.0000000000000000e+00  -1.2808674616690027e-28 -2.3506313696722679e-28 0.0000000000000000e+00  -1.4062337701599069e-28 2.2483562903170869e-28 0.0000000000000000e+00  -1.5742279846684522e-28 5.1692500388021731e-29 0.0000000000000000e+00  -1.2205428879028586e-28 -1.2089719572650635e-28 0.0000000000000000e+00  -1.1444207564019359e-28 -3.6277831140916092e-29 0.0000000000000000e+00  -1.0601780709807871e-28 -1.9314498024286609e-28 0.0000000000000000e+00  1.4851299900858399e-28 -3.5598101331373372e-28 0.0000000000000000e+00  2.7475581614778007e-28 7.5275015135518607e-30 0.0000000000000000e+00  2.7531905950501692e-28 5.6113459959553083e-28 0.0000000000000000e+00  1.7892526492248704e-28 9.8221091357719183e-30 0.0000000000000000e+00  -4.0237556932172462e-29 -7.4396773619434686e-28 0.0000000000000000e+00  1.2717669217657419e-28 3.7795573874748425e-28 0.0000000000000000e+00  1.2289565137564668e-28 3.5381139278264447e-28 0.0000000000000000e+00  2.1581644127212280e-29 -5.1372015355926835e-28 0.0000000000000000e+00  4.1626628205213220e-29 -1.5651262667334655e-28 0.0000000000000000e+00  2.7771434124847085e-29 -4.0227951351639228e-28 0.0000000000000000e+00  2.1592614910030324e-29 1.9731472044224879e-28 0.0000000000000000e+00  1.7100159661717555e-29 2.3364282690446741e-28 0.0000000000000000e+00  -3.6618222640034554e-30 -3.8082791238143467e-28 0.0000000000000000e+00  -3.8968604481790340e-30 -1.7741467793299589e-28 0.0000000000000000e+00  -6.8170250493354561e-30 -6.0097172000128818e-29 0.0000000000000000e+00  -2.5062735339250091e-30 -3.2535598534242235e-28 0.0000000000000000e+00  -9.9765118093491350e-30 -1.4438197406680708e-28 0.0000000000000000e+00  7.2300487385844583e-31 -2.1357351848780878e-28 0.0000000000000000e+00  -8.4119421124340752e-30 -1.1006907184716475e-28 0.0000000000000000e+00  -6.2041607504152653e-30 1.3128644561668357e-28 0.0000000000000000e+00  -1.5103028790067309e-29 1.2941731264545022e-28 0.0000000000000000e+00  -2.3373766348639164e-29 3.3868644481754946e-28 0.0000000000000000e+00  -1.6852559416393169e-29 1.5294646868580481e-28 0.0000000000000000e+00  -1.1271085367922746e-29 2.4124201476576749e-29 0.0000000000000000e+00  1.7927280108032275e-29 -2.6351475898641004e-28 0.0000000000000000e+00  2.8016775994850290e-29 -3.6396871559402222e-28 0.0000000000000000e+00  1.3472001974366495e-29 -1.1435219736862457e-28 0.0000000000000000e+00  7.3031007134953741e-30 3.1599454261935320e-29 0.0000000000000000e+00  -1.2040159636745928e-29 8.3863577376653772e-29 0.0000000000000000e+00  -4.2319167689017066e-29 3.4350867892651308e-28 0.0000000000000000e+00  -1.6895094561969335e-29 1.2094784529045917e-28 0.0000000000000000e+00  9.0725273947144765e-30 -1.1176683519520380e-28 0.0000000000000000e+00  5.6819732280921459e-30 4.7816763712632301e-30 0.0000000000000000e+00  -3.2234621929989192e-30 1.1913121805896450e-29 0.0000000000000000e+00  -6.3148022516012483e-30 2.3069754054512673e-29 0.0000000000000000e+00  2.4810107776389548e-30 -6.3521897252925786e-30 0.0000000000000000e+00  3.4937463509873991e-30 -9.7272690828263454e-30 0.0000000000000000e+00  2