<?xml version="1.0"?>
<VTKFile type="UnstructuredGrid"  version="0.1"  >
<UnstructuredGrid>
<Piece  NumberOfPoints="11902" NumberOfCells="23402">
<Points>
<DataArray  type="Float64"  NumberOfComponents="3"  format="ascii">-5 -5 0  5 -5 0  5 5 0  -5 5 0  1.265515895604602 0.001279147315371278 0  -4.9 -5 0  -4.8 -5 0  -4.7 -5 0  -4.6 -5 0  -4.5 -5 0  -4.4 -5 0  -4.3 -5 0  -4.2 -5 0  -4.1 -5 0  -4 -5 0  -3.9 -5 0  -3.8 -5 0  -3.7 -5 0  -3.6 -5 0  -3.5 -5 0  -3.4 -5 0  -3.3 -5 0  -3.2 -5 0  -3.1 -5 0  -3 -5 0  -2.9 -5 0  -2.8 -5 0  -2.7 -5 0  -2.6 -5 0  -2.5 -5 0  -2.4 -5 0  -2.3 -5 0  -2.2 -5 0  -2.1 -5 0  -2 -5 0  -1.9 -5 0  -1.8 -5 0  -1.7 -5 0  -1.6 -5 0  -1.5 -5 0  -1.4 -5 0  -1.3 -5 0  -1.2 -5 0  -1.1 -5 0  -1 -5 0  -0.9000000000000004 -5 0  -0.7999999999999998 -5 0  -0.7000000000000002 -5 0  -0.5999999999999996 -5 0  -0.5 -5 0  -0.4000000000000004 -5 0  -0.2999999999999998 -5 0  -0.2000000000000002 -5 0  -0.09999999999999964 -5 0  0 -5 0  0.09999999999999964 -5 0  0.2000000000000002 -5 0  0.2999999999999998 -5 0  0.4000000000000004 -5 0  0.5 -5 0  0.5999999999999996 -5 0  0.7000000000000002 -5 0  0.7999999999999998 -5 0  0.9000000000000004 -5 0  1 -5 0  1.1 -5 0  1.2 -5 0  1.3 -5 0  1.4 -5 0  1.5 -5 0  1.6 -5 0  1.7 -5 0  1.8 -5 0  1.9 -5 0  2 -5 0  2.1 -5 0  2.2 -5 0  2.3 -5 0  2.4 -5 0  2.5 -5 0  2.6 -5 0  2.7 -5 0  2.8 -5 0  2.9 -5 0  3 -5 0  3.1 -5 0  3.199999999999999 -5 0  3.300000000000001 -5 0  3.4 -5 0  3.5 -5 0  3.6 -5 0  3.699999999999999 -5 0  3.800000000000001 -5 0  3.9 -5 0  4 -5 0  4.1 -5 0  4.199999999999999 -5 0  4.300000000000001 -5 0  4.4 -5 0  4.5 -5 0  4.6 -5 0  4.699999999999999 -5 0  4.800000000000001 -5 0  4.9 -5 0  5 -4.9 0  5 -4.8 0  5 -4.7 0  5 -4.6 0  5 -4.5 0  5 -4.4 0  5 -4.3 0  5 -4.2 0  5 -4.1 0  5 -4 0  5 -3.9 0  5 -3.8 0  5 -3.7 0  5 -3.6 0  5 -3.5 0  5 -3.4 0  5 -3.3 0  5 -3.2 0  5 -3.1 0  5 -3 0  5 -2.9 0  5 -2.8 0  5 -2.7 0  5 -2.6 0  5 -2.5 0  5 -2.4 0  5 -2.3 0  5 -2.2 0  5 -2.1 0  5 -2 0  5 -1.9 0  5 -1.8 0  5 -1.7 0  5 -1.6 0  5 -1.5 0  5 -1.4 0  5 -1.3 0  5 -1.2 0  5 -1.1 0  5 -1 0  5 -0.9000000000000004 0  5 -0.7999999999999998 0  5 -0.7000000000000002 0  5 -0.5999999999999996 0  5 -0.5 0  5 -0.4000000000000004 0  5 -0.2999999999999998 0  5 -0.2000000000000002 0  5 -0.09999999999999964 0  5 0 0  5 0.09999999999999964 0  5 0.2000000000000002 0  5 0.2999999999999998 0  5 0.4000000000000004 0  5 0.5 0  5 0.5999999999999996 0  5 0.7000000000000002 0  5 0.7999999999999998 0  5 0.9000000000000004 0  5 1 0  5 1.1 0  5 1.2 0  5 1.3 0  5 1.4 0  5 1.5 0  5 1.6 0  5 1.7 0  5 1.8 0  5 1.9 0  5 2 0  5 2.1 0  5 2.2 0  5 2.3 0  5 2.4 0  5 2.5 0  5 2.6 0  5 2.7 0  5 2.8 0  5 2.9 0  5 3 0  5 3.1 0  5 3.199999999999999 0  5 3.300000000000001 0  5 3.4 0  5 3.5 0  5 3.6 0  5 3.699999999999999 0  5 3.800000000000001 0  5 3.9 0  5 4 0  5 4.1 0  5 4.199999999999999 0  5 4.300000000000001 0  5 4.4 0  5 4.5 0  5 4.6 0  5 4.699999999999999 0  5 4.800000000000001 0  5 4.9 0  4.9 5 0  4.8 5 0  4.7 5 0  4.6 5 0  4.5 5 0  4.4 5 0  4.3 5 0  4.2 5 0  4.1 5 0  4 5 0  3.9 5 0  3.8 5 0  3.7 5 0  3.6 5 0  3.5 5 0  3.4 5 0  3.3 5 0  3.2 5 0  3.1 5 0  3 5 0  2.9 5 0  2.8 5 0  2.7 5 0  2.6 5 0  2.5 5 0  2.4 5 0  2.3 5 0  2.2 5 0  2.1 5 0  2 5 0  1.9 5 0  1.8 5 0  1.7 5 0  1.6 5 0  1.5 5 0  1.4 5 0  1.3 5 0  1.2 5 0  1.1 5 0  1 5 0  0.9000000000000004 5 0  0.7999999999999998 5 0  0.7000000000000002 5 0  0.5999999999999996 5 0  0.5 5 0  0.4000000000000004 5 0  0.2999999999999998 5 0  0.2000000000000002 5 0  0.09999999999999964 5 0  0 5 0  -0.09999999999999964 5 0  -0.2000000000000002 5 0  -0.2999999999999998 5 0  -0.4000000000000004 5 0  -0.5 5 0  -0.5999999999999996 5 0  -0.7000000000000002 5 0  -0.7999999999999998 5 0  -0.9000000000000004 5 0  -1 5 0  -1.1 5 0  -1.2 5 0  -1.3 5 0  -1.4 5 0  -1.5 5 0  -1.6 5 0  -1.7 5 0  -1.8 5 0  -1.9 5 0  -2 5 0  -2.1 5 0  -2.2 5 0  -2.3 5 0  -2.4 5 0  -2.5 5 0  -2.6 5 0  -2.7 5 0  -2.8 5 0  -2.9 5 0  -3 5 0  -3.1 5 0  -3.199999999999999 5 0  -3.300000000000001 5 0  -3.4 5 0  -3.5 5 0  -3.6 5 0  -3.699999999999999 5 0  -3.800000000000001 5 0  -3.9 5 0  -4 5 0  -4.1 5 0  -4.199999999999999 5 0  -4.300000000000001 5 0  -4.4 5 0  -4.5 5 0  -4.6 5 0  -4.699999999999999 5 0  -4.800000000000001 5 0  -4.9 5 0  -5 4.9 0  -5 4.8 0  -5 4.7 0  -5 4.6 0  -5 4.5 0  -5 4.4 0  -5 4.3 0  -5 4.2 0  -5 4.1 0  -5 4 0  -5 3.9 0  -5 3.8 0  -5 3.7 0  -5 3.6 0  -5 3.5 0  -5 3.4 0  -5 3.3 0  -5 3.2 0  -5 3.1 0  -5 3 0  -5 2.9 0  -5 2.8 0  -5 2.7 0  -5 2.6 0  -5 2.5 0  -5 2.4 0  -5 2.3 0  -5 2.2 0  -5 2.1 0  -5 2 0  -5 1.9 0  -5 1.8 0  -5 1.7 0  -5 1.6 0  -5 1.5 0  -5 1.4 0  -5 1.3 0  -5 1.2 0  -5 1.1 0  -5 1 0  -5 0.9000000000000004 0  -5 0.7999999999999998 0  -5 0.7000000000000002 0  -5 0.5999999999999996 0  -5 0.5 0  -5 0.4000000000000004 0  -5 0.2999999999999998 0  -5 0.2000000000000002 0  -5 0.09999999999999964 0  -5 0 0  -5 -0.09999999999999964 0  -5 -0.2000000000000002 0  -5 -0.2999999999999998 0  -5 -0.4000000000000004 0  -5 -0.5 0  -5 -0.5999999999999996 0  -5 -0.7000000000000002 0  -5 -0.7999999999999998 0  -5 -0.9000000000000004 0  -5 -1 0  -5 -1.1 0  -5 -1.2 0  -5 -1.3 0  -5 -1.4 0  -5 -1.5 0  -5 -1.6 0  -5 -1.7 0  -5 -1.8 0  -5 -1.9 0  -5 -2 0  -5 -2.1 0  -5 -2.2 0  -5 -2.3 0  -5 -2.4 0  -5 -2.5 0  -5 -2.6 0  -5 -2.7 0  -5 -2.8 0  -5 -2.9 0  -5 -3 0  -5 -3.1 0  -5 -3.199999999999999 0  -5 -3.300000000000001 0  -5 -3.4 0  -5 -3.5 0  -5 -3.6 0  -5 -3.699999999999999 0  -5 -3.800000000000001 0  -5 -3.9 0  -5 -4 0  -5 -4.1 0  -5 -4.199999999999999 0  -5 -4.300000000000001 0  -5 -4.4 0  -5 -4.5 0  -5 -4.6 0  -5 -4.699999999999999 0  -5 -4.800000000000001 0  -5 -4.9 0  1.257771166815677 0.09175148054544628 0  1.235633446825716 0.1892978888807411 0  1.201489410964583 0.2863784742521591 0  1.158824814404569 0.3752619885031647 0  1.09990236306579 0.4665176565213448 0  1.032715415239369 0.5495832389348624 0  0.9544589746603215 0.6302688948446477 0  0.8673807622529822 0.7049512105115826 0  0.7755619727588273 0.7698630333831825 0  0.6742551981686736 0.8273768893149629 0  0.5602173681703387 0.8796569894751778 0  0.4458910434888719 0.9247798634037093 0  0.3365755827450291 0.9560269620965577 0  0.2087969415125834 0.9793950008818577 0  0.08656145422786382 0.9971799926403325 0  -0.02594788870324442 1.000861971737895 0  -0.1435889374176564 0.9875927905600133 0  -0.275124299385504 0.9671325126119757 0  -0.3959529512866809 0.9426656464597742 0  -0.5045406414181128 0.9081556699443606 0  -0.6135548454594397 0.8618652455835765 0  -0.715410584000529 0.8064548368692246 0  -0.8095279494247808 0.7425596963943878 0  -0.9012373657751765 0.6689149385498508 0  -0.9880825297225484 0.5883997870371609 0  -1.062990781721534 0.5063192232409622 0  -1.125566090886128 0.4224515304817033 0  -1.182130389129293 0.3270031363139571 0  -1.219044045646857 0.2413748916672492 0  -1.243110942445163 0.148255154768868 0  -1.253048844896242 0.05306652077688726 0  -1.252963517347343 -0.05077947756893218 0  -1.242871132539516 -0.1452234383256064 0  -1.218686527932274 -0.2347175449890421 0  -1.176022041640194 -0.3307147072701628 0  -1.125857472970861 -0.4236834865774918 0  -1.0655222556658 -0.5059070246824315 0  -0.9907323991523443 -0.5873989576513011 0  -0.9044838045997295 -0.6668442999828819 0  -0.813965080595042 -0.737583058698333 0  -0.7191315879315506 -0.797829829021681 0  -0.6148930593311197 -0.8514541518829513 0  -0.4978315866567317 -0.9013067872128718 0  -0.385828427222707 -0.9410825372594424 0  -0.2718402174942854 -0.9669921740991456 0  -0.1416880115174315 -0.9877208390277536 0  -0.02740616472129401 -1.000065476028557 0  0.08429934669780323 -0.9927585489800298 0  0.2160945973968338 -0.9746509246799957 0  0.3398619901339751 -0.9539492351487578 0  0.4502487636017377 -0.9234046801344129 0  0.5632393227801081 -0.8788133958040522 0  0.6756954510219786 -0.8270950297398655 0  0.7750917570675431 -0.7712138848680491 0  0.8656549217550115 -0.7071960315556122 0  0.9508262392022437 -0.6316485616347501 0  1.030506784016745 -0.5478161087476258 0  1.102244957346995 -0.4640268669765749 0  1.159869017058126 -0.3752404857401826 0  1.203393373662144 -0.2844631077180063 0  1.236385643327011 -0.1888197869538461 0  1.258175562386635 -0.09210873834769839 0  -2.448503267318792 4.918011733847042 0  -2.448371772404409 -4.910380441169742 0  4.910299920143376 2.447813596434838 0  4.918437498933304 -2.449282890799129 0  2.446091330446893 -4.895592480033786 0  2.440527021500487 4.89935919262351 0  -4.910327179436864 -2.447840959753969 0  -4.910324503796438 2.447845232264618 0  -1.748455043870771 4.910853270380739 0  -1.744243661629318 -4.914300420679503 0  4.920445076550461 1.743996206262127 0  4.908952092132029 -1.747747085425791 0  -4.909247141686145 -1.747482198746063 0  -4.910071318178201 1.74722832606347 0  1.745723120793303 4.904697295900637 0  1.747128711703031 -4.892820712418 0  -1.148778317533793 4.908601354944712 0  -1.129640367121737 -4.91653512886037 0  -4.908913956799638 -1.147825586893418 0  -4.90873174764607 1.1476264634968 0  1.1437762763242 -4.91271026865792 0  1.148787412346289 4.908587173634642 0  4.90905326382179 1.14610005227433 0  4.91991856584606 -1.151894518104078 0  -0.5466354672297493 -4.909771547586583 0  -0.5464221801027475 4.918480404736187 0  -4.907605707718642 -0.5486516321329558 0  -4.907629701378493 0.5472101723397936 0  4.906921406537912 -0.5489695038858174 0  4.918620124022163 0.5457337883955991 0  0.5424145018708267 -4.896611150476334 0  0.5511485759252688 4.91529367637533 0  -4.911795205527703 -3.048213045157901 0  4.918373190955099 3.046234347368721 0  4.911302409861115 -3.048187746948001 0  -4.912643776388742 3.04530554394458 0  3.055235977457243 -4.917294788332609 0  -3.048561697373214 -4.91122397262766 0  3.052130588840044 4.913303507755268 0  -3.048008112527215 4.912114835936026 0  -4.906698577803441 -0.04990194392524927 0  0.04511766057894182 -4.911719495174415 0  0.04956423832797456 4.918767254987812 0  4.913778938792595 -0.05128490295664723 0  3.545568224868831 -4.918965538946243 0  -3.548844267307042 4.911860
[...]
<PointData  Vectors="f_7378"> 
<DataArray  type="Float64"  Name="f_7378"  NumberOfComponents="3" format="ascii">1.1503397791197737e-40 8.9828389764758603e-41 0.0000000000000000e+00  -1.3306972741395382e-40 1.0204737851583827e-40 0.0000000000000000e+00  -1.0272833039673853e-41 1.1939278360126149e-41 0.0000000000000000e+00  8.3622006816195446e-41 -8.1483439350505156e-41 0.0000000000000000e+00  1.0682625628595266e+01 -1.1841712387280190e-02 0.0000000000000000e+00  -2.0783033020067764e-40 -1.6627928945453835e-40 0.0000000000000000e+00  -1.1704673055582170e-41 -6.8783451522074548e-41 0.0000000000000000e+00  1.1805133902834813e-40 2.0907121003554320e-40 0.0000000000000000e+00  -8.7249970292847732e-39 -7.2133500370730101e-39 0.0000000000000000e+00  2.8714771860938552e-38 2.2753312065840234e-38 0.0000000000000000e+00  -1.5929582288546513e-37 -1.1626037902611570e-37 0.0000000000000000e+00  5.0727612656223545e-37 3.8143369705105878e-37 0.0000000000000000e+00  -1.7233948581922348e-36 -1.6740123855608524e-36 0.0000000000000000e+00  6.2700677563261567e-36 8.3279846691634654e-36 0.0000000000000000e+00  -2.8454954597656226e-35 -3.5032242328087094e-35 0.0000000000000000e+00  4.4578555063380190e-35 6.5445243923241246e-35 0.0000000000000000e+00  -4.7484996751264318e-35 -1.1531613691304889e-34 0.0000000000000000e+00  -3.3896744633031990e-34 -4.1897088864274289e-34 0.0000000000000000e+00  1.6554082204938242e-33 2.2088242827841784e-33 0.0000000000000000e+00  -4.4054484113842660e-33 -7.0485226665609881e-33 0.0000000000000000e+00  2.6751889208077641e-32 3.9852253903528022e-32 0.0000000000000000e+00  -7.2251556643506964e-32 -1.0593655861746104e-31 0.0000000000000000e+00  -6.1232535160445568e-32 -3.9573990519626643e-32 0.0000000000000000e+00  4.6824811268394084e-31 3.9072145308508556e-31 0.0000000000000000e+00  9.7717100204324956e-32 4.0581209108311852e-31 0.0000000000000000e+00  7.9787414633175169e-32 9.5549946077039984e-31 0.0000000000000000e+00  -8.4680751652360238e-31 -2.1136138927451497e-30 0.0000000000000000e+00  1.3877830822401527e-30 8.6638809240344287e-30 0.0000000000000000e+00  -6.3902891546665036e-30 -2.3222509041500690e-29 0.0000000000000000e+00  -4.3717939083014225e-30 -1.7028316992238224e-29 0.0000000000000000e+00  3.9942173962957434e-29 1.2081983883248130e-28 0.0000000000000000e+00  1.1206301697670332e-29 4.0216559503286852e-29 0.0000000000000000e+00  -3.4969443767922783e-30 -2.5190348466399709e-29 0.0000000000000000e+00  -2.0098211293456237e-29 -3.8634827226134477e-29 0.0000000000000000e+00  -4.9445086154353694e-29 6.0766343871062128e-29 0.0000000000000000e+00  -2.4753500159684592e-29 -2.9481798471414452e-28 0.0000000000000000e+00  -3.2265170930480692e-29 -2.3935268913356717e-28 0.0000000000000000e+00  -2.5447177113331474e-30 -6.7540572192039711e-29 0.0000000000000000e+00  4.7231013557339489e-29 4.2986452176540356e-28 0.0000000000000000e+00  6.7293060140097812e-29 6.4210961277483422e-28 0.0000000000000000e+00  9.5417754924517338e-29 5.7696545573694693e-28 0.0000000000000000e+00  7.5830582137350435e-29 -1.5253942198936112e-28 0.0000000000000000e+00  7.7109283634399888e-29 -3.1086290720271002e-29 0.0000000000000000e+00  7.8921648671570340e-29 3.6867061269111133e-28 0.0000000000000000e+00  3.2330810494564892e-29 -8.4041822906424439e-29 0.0000000000000000e+00  -1.9949350578328278e-28 -7.7848633694550735e-28 0.0000000000000000e+00  -1.0182806339617029e-28 -5.3608153721782516e-28 0.0000000000000000e+00  9.2325699942116194e-29 4.6604364350727220e-28 0.0000000000000000e+00  -2.0206127458550117e-30 -5.3635117123555835e-28 0.0000000000000000e+00  -1.0451406704662914e-28 -1.6908639563599167e-28 0.0000000000000000e+00  -2.4930461283503470e-28 -1.8370315277347096e-29 0.0000000000000000e+00  -2.8422991272762548e-28 -4.4773393473606405e-29 0.0000000000000000e+00  -1.7751400240048424e-28 -2.3190383058656973e-28 0.0000000000000000e+00  1.6882366337388688e-29 -3.9616827037922538e-28 0.0000000000000000e+00  4.4149192040214913e-29 -4.1946540346883129e-28 0.0000000000000000e+00  -6.2609453272420349e-29 -1.3680927970519355e-29 0.0000000000000000e+00  -1.1258305458192222e-28 -3.4818307597892070e-28 0.0000000000000000e+00  -1.3889667669554141e-28 -3.3554031061260707e-28 0.0000000000000000e+00  -1.0758342550265036e-28 -3.4685652618163419e-28 0.0000000000000000e+00  -1.4335378363024462e-28 5.3456388776715972e-29 0.0000000000000000e+00  -1.5722135765247239e-28 -7.0102613114998460e-28 0.0000000000000000e+00  -1.3175399024698333e-28 -7.6565365692874738e-28 0.0000000000000000e+00  -8.7563999219742711e-29 1.1064446475040551e-28 0.0000000000000000e+00  -8.0421078778564488e-29 9.4646827322561017e-28 0.0000000000000000e+00  -1.9774926821051153e-29 4.5257381622038538e-28 0.0000000000000000e+00  7.1916123800028121e-29 2.7354604095254934e-28 0.0000000000000000e+00  2.6063917323067766e-29 7.3575275575657131e-28 0.0000000000000000e+00  1.7349150009488500e-29 3.4997499724745710e-28 0.0000000000000000e+00  2.5482715213956677e-29 -5.3427364882452302e-28 0.0000000000000000e+00  -2.6033744951615474e-29 -3.2448457214659347e-28 0.0000000000000000e+00  -2.3438968630273423e-29 1.1274509726080873e-28 0.0000000000000000e+00  -6.3654943353415107e-29 -1.0564701657377517e-29 0.0000000000000000e+00  -2.7333953203829793e-29 -2.1247163758286129e-29 0.0000000000000000e+00  1.6605195487123923e-29 6.7993131442810318e-29 0.0000000000000000e+00  2.1999764921253932e-29 -1.7590257163104651e-28 0.0000000000000000e+00  1.6591192274900623e-29 -7.3033048870415441e-29 0.0000000000000000e+00  3.9824198461108041e-30 -3.9140350147040066e-29 0.0000000000000000e+00  -1.3437258126284871e-29 7.5262985461938922e-29 0.0000000000000000e+00  -1.7038573721491624e-29 8.8829071464031620e-29 0.0000000000000000e+00  2.8508792150601612e-30 -3.4183028931889962e-30 0.0000000000000000e+00  1.2812110991513661e-29 -4.6375239411543295e-29 0.0000000000000000e+00  -2.2770692047148008e-30 7.9804734162182733e-30 0.0000000000000000e+00  -6.3184433561872761e-31 2.0492512466267862e-30 0.0000000000000000e+00  3.1336742452147978e-30 -6.0348974162496915e-30 0.0000000000000000e+00  4.1549732503087028e-31 -4.8394631072113467e-31 0.0000000000000000e+00  -4.2745369900467044e-31 6.6362718730272535e-31 0.0000000000000000e+00  1.7501454858361614e-31 -2.9015258161334820e-31 0.0000000000000000e+00  -4.2319950478922662e-32 5.5919910549912107e-32 0.0000000000000000e+00  3.7461137136629756e-33 -5.4262919606419559e-33 0.0000000000000000e+00  2.4785593099564055e-33 -2.2166166678917443e-33 0.0000000000000000e+00  -2.4895790826576556e-33 2.7902835155884064e-33 0.0000000000000000e+00  2.9020360076250874e-34 -2.2094866161342949e-34 0.0000000000000000e+00  -2.7795775631286870e-35 -1.9635423419686133e-35 0.0000000000000000e+00  4.0742471601488917e-35 -2.4617482728760447e-35 0.0000000000000000e+00  -6.4692804398198985e-37 -1.8406672237591801e-36 0.0000000000000000e+00  -7.4271295867987420e-37 9.8348766974155361e-37 0.0000000000000000e+00  4.1302847546665828e-37 -3.7413023948217063e-37 0.0000000000000000e+00  -2.0587912876968679e-37 1.9183009440652709e-37 0.0000000000000000e+00  7.9566875041032084e-38 -6.9252644935706002e-38 0.0000000000000000e+00  -2.4037768789165455e-38 1.9318286402382406e-38 0.0000000000000000e+00  6.9812739847005549e-39 -5.2230525385396443e-39 0.0000000000000000e+00  -2.0954906078098550e-39 1.6218583215078616e-39 0.0000000000000000e+00  1.0193169994311918e-41 1.5033684023528877e-41 0.0000000000000000e+00  1.9444129653515681e-40 -1.5944980008933677e-40 0.0000000000000000e+00  2.8437360605071667e-41 -1.9652320195475634e-41 0.0000000000000000e+00  1.0883797792502095e-40 -5.4002030505946311e-41 0.0000000000000000e+00  -1.8909987733089615e-40 7.9825239268422548e-41 0.0000000000000000e+00  -4.7184012540758203e-40 5.6030412612876284e-40 0.0000000000000000e+00  2.1174129052194274e-39 -1.7604725546442344e-39 0.0000000000000000e+00  -3.7419924384190315e-39 2.0321269680487539e-39 0.0000000000000000e+00  -6.2704905494681453e-40 3.9826860040363279e-39 0.0000000000000000e+00  2.2941416984849717e-38 -2.3139285005458704e-38 0.0000000000000000e+00  -6.2563862791788296e-38 4.3217067988855311e-38 0.0000000000000000e+00  5.1520548593954117e-38 5.4830386435827056e-39 0.0000000000000000e+00  2.1945383683183548e-37 -2.5433908265521005e-37 0.0000000000000000e+00  -8.5755907653115810e-37 6.1122499159067207e-37 0.0000000000000000e+00  9.4276645539614457e-37 -1.6227861604039701e-37 0.0000000000000000e+00  2.2170818423946561e-36 -2.6484535835645097e-36 0.0000000000000000e+00  -1.0850346206288387e-35 6.9156459065938351e-36 0.0000000000000000e+00  1.3939516462591661e-35 -2.2849417937943554e-36 0.0000000000000000e+00  2.6351159137708468e-35 -2.7571006311982245e-35 0.0000000000000000e+00  -1.3231246647581313e-34 6.5547855697784155e-35 0.0000000000000000e+00  1.6210764023567032e-34 -7.8554873846827475e-36 0.0000000000000000e+00  3.6003424913284192e-34 -2.7757067164152353e-34 0.0000000000000000e+00  -1.6371652964598850e-33 5.7474958749663613e-34 0.0000000000000000e+00  1.3443480316640563e-33 1.8938938595593355e-34 0.0000000000000000e+00  5.6299050751845152e-33 -2.7737049407802117e-33 0.0000000000000000e+00  -1.7734037982903837e-32 4.3363112485418571e-33 0.0000000000000000e+00  3.3913219577009072e-33 4.8723161208454605e-33 0.0000000000000000e+00  7.6834391480943922e-32 -2.5946236299143497e-32 0.0000000000000000e+00  -1.3235909833337948e-31 1.7883563892464778e-32 0.0000000000000000e+00  -1.3010541990749597e-31 7.5160952207677439e-32 0.0000000000000000e+00  7.6257464556465895e-31 -1.5190252671362255e-31 0.0000000000000000e+00  -5.7798849375221091e-31 -5.0410950048196133e-32 0.0000000000000000e+00  -2.4537537812736941e-30 3.8559842969600983e-31 0.0000000000000000e+00  6.4827233632435255e-30 -9.4518037161908392e-31 0.0000000000000000e+00  2.8201223686883960e-30 1.7573753819978687e-30 0.0000000000000000e+00  -3.9965359229091363e-29 9.7638341523690289e-30 0.0000000000000000e+00  1.4381025580852962e-29 -2.4569115358613595e-29 0.0000000000000000e+00  2.3253010994450537e-28 -9.3327606388777489e-29 0.0000000000000000e+00  -6.7904314555918025e-29 1.2774376751129786e-28 0.0000000000000000e+00  -1.2214993049949143e-27 6.7313692140970687e-28 0.0000000000000000e+00  -1.2822707736097495e-27 4.8754450776551811e-28 0.0000000000000000e+00  4.3377081795934575e-27 -2.7366754527438676e-27 0.0000000000000000e+00  1.0931562398328565e-26 -5.9077950608330190e-27 0.0000000000000000e+00  1.0430512070022474e-26 -4.5487118140252445e-27 0.0000000000000000e+00  -1.2561973046582012e-26 6.6054299210916963e-27 0.0000000000000000e+00  -7.2023303030556544e-26 2.7751276080757854e-26 0.0000000000000000e+00  -1.6954002165821759e-25 5.5774353813238745e-26 0.0000000000000000e+00  -3.0546983942858111e-25 9.2254407594763522e-26 0.0000000000000000e+00  -4.0369415124581088e-25 1.1374591509392226e-25 0.0000000000000000e+00  -4.5281725411271684e-25 1.0615352702428149e-25 0.0000000000000000e+00  -4.4149195078706540e-25 5.7220992115112240e-26 0.0000000000000000e+00  -4.2826255933330969e-25 -1.1263434921449209e-26 0.0000000000000000e+00  -4.2280315947366689e-25 -6.8983740630769068e-26 0.0000000000000000e+00  -3.9572797212625148e-25 -9.1078400755674689e-26 0.0000000000000000e+00  -3.2144350984026352e-25 -8.0132263994340935e-26 0.0000000000000000e+00  -2.0391056165169731e-25 -5.3988623344891630e-26 0.0000000000000000e+00  -9.3965182735642386e-26 -3.0242777116083914e-26 0.0000000000000000e+00  -2.2020065019300105e-26 -1.2030506156798156e-26 0.0000000000000000e+00  7.4383034421310315e-27 7.2383310600762703e-28 0.0000000000000000e+00  1.3198512381355561e-26 6.8289515326405060e-27 0.0000000000000000e+00  9.2980468651808589e-27 5.9879589517183937e-27 0.0000000000000000e+00  2.9007268261135330e-27 2.0001846085574558e-27 0.0000000000000000e+00  -9.2514941808757086e-28 -4.8824497152035367e-28 0.0000000000000000e+00  -1.1486501636207500e-27 -6.6053060010569532e-28 0.0000000000000000e+00  -5.9611103743150988e-29 -7.1582731314300027e-29 0.0000000000000000e+00  2.5259450214779085e-28 1.1555745725496870e-28 0.0000000000000000e+00  3.0254146761320732e-29 2.6070832618592595e-29 0.0000000000000000e+00  -5.3417424762507099e-29 -1.8801851450242521e-29 0.0000000000000000e+00  -2.4730949933211608e-30 -3.6812251999361844e-30 0.0000000000000000e+00  1.1099888890447755e-29 3.2461169605915969e-30 0.0000000000000000e+00  -1.6366213437194975e-30 -1.2484544750981724e-31 0.0000000000000000e+00  -1.7863023267259939e-30 -4.5020110342116336e-31 0.0000000000000000e+00  8.0175631186925574e-31 2.0969329477425112e-31 0.0000000000000000e+00  1.3399820641380398e-31 1.6483003718016591e-32 0.0000000000000000e+00  -2.0662992493064669e-31 -6.3352142910011812e-32 0.0000000000000000e+00  3.5363578216766448e-32 1.8091176980262848e-32 0.0000000000000000e+00  3.1379637149260073e-32 1.0227026379363160e-32 0.0000000000000000e+00  -1.7229086689628547e-32 -7.7051711991455487e-33 0.0000000000000000e+00  -1.0624282184965864e-33 -9.2971093026484207e-35 0.0000000000000000e+00  3.9766982675797098e-33 1.8469299304577915e-33 0.0000000000000000e+00  -1.1408500481365471e-33 -5.8226175027816939e-34 0.0000000000000000e+00  -3.5796681961026546e-34 -1.8645260634438391e-34 0.0000000000000000e+00  3.2557066489433970e-34 1.7437047907502396e-34 0.0000000000000000e+00  -5.3766009110977884e-35 -2.6939471855613125e-35 0.0000000000000000e+00  -3.9810354146944909e-35 -2.3254698897560360e-35 0.0000000000000000e+00  2.4518208295434698e-35 1.3426029694001071e-35 0.0000000000000000e+00  -2.7637402329369240e-36 -1.1797693592221233e-36 0.0000000000000000e+00  -2.9916311708630797e-36 -1.7186781151079284e-36 0.0000000000000000e+00  1.6451527701939701e-36 8.3913531273909940e-37 0.0000000000000000e+00  -2.0938406813569456e-37 -7.5458186435251781e-38 0.0000000000000000e+00  -1.7413503216156281e-37 -9.0817801147790787e-38 0.0000000000000000e+00  1.1102072033777938e-37 4.6688477613359475e-38 0.0000000000000000e+00  -2.4219573173458061e-38 -7.1704833854864076e-39 0.0000000000000000e+00  -5.1333202126320780e-39 -2.4431735411339287e-39 0.0000000000000000e+00  5.9044613864439610e-39 1.5536465045782174e-39 0.0000000000000000e+00  -2.2828860945538842e-39 -3.5526866875091665e-40 0.0000000000000000e+00  3.4653163617018071e-40 6.1311607943587602e-41 0.0000000000000000e+00  1.1318834497544529e-40 -4.6907506455415749e-41 0.0000000000000000e+00  -1.1078425992337335e-40 2.4942384977147686e-41 0.0000000000000000e+00  3.8982226471179025e-41 -1.0504489041420468e-41 0.0000000000000000e+00  -2.5887481005605706e-41 -1.7019277003605251e-41 0.0000000000000000e+00  1.9656753944862848e-41 -1.9212618998993967e-41 0.0000000000000000e+00  1.1213128148728127e-40 9.7203212899171559e-41 0.0000000000000000e+00  -4.2686479770587132e-40 -3.5204674810341468e-40 0.0000000000000000e+00  5.4580621273194693e-39 4.2271650822012917e-39 0.0000000000000000e+00  -3.5773274837121878e-38 -3.2518720895914157e-38 0.0000000000000000e+00  1.5045019789974034e-37 1.4254304695443088e-37 0.0000000000000000e+00  -2.9966391213454003e-37 -2.8372790981298555e-37 0.0000000000000000e+00  1.8282241547071744e-36 1.8034648243878140e-36 0.0000000000000000e+00  -1.2120823998339253e-36 -1.6545562447923985e-36 0.0000000000000000e+00  -1.0901793687866966e-35 -7.7084801606562525e-36 0.0000000000000000e+00  5.4421436566011592e-35 4.4665573531360602e-35 0.0000000000000000e+00  -2.9647229955016265e-34 -2.6604676974077085e-34 0.0000000000000000e+00  4.9939878326053304e-34 4.5786657193522912e-34 0.0000000000000000e+00  -5.5932600023808656e-34 -6.0766348531252689e-34 0.0000000000000000e+00  2.6671309299273095e-33 1.6786282787348253e-33 0.0000000000000000e+00  5.7023710458778759e-33 6.8167182937616566e-33 0.0000000000000000e+00  -3.3126168055638155e-32 -2.4553379108706166e-32 0.0000000000000000e+00  -1.2289847924470707e-31 -1.8704275846555654e-31 0.0000000000000000e+00  3.1605951968666835e-31 5.9028302821188569e-31 0.0000000000000000e+00  -4.6692605336930828e-31 -1.0335980962472369e-30 0.0000000000000000e+00  -4.1435555725987135e-31 -6.3977044810189355e-31 0.0000000000000000e+00  2.5437416602786865e-30 4.2419258030833330e-30 0.0000000000000000e+00  2.9358732541642556e-31 8.9856018023257824e-31 0.0000000000000000e+00  2.9591016929715371e-30 8.2297113727640836e-30 0.0000000000000000e+00  -5.8602351193135229e-30 -8.1146118491671322e-30 0.0000000000000000e+00  -1.3149645364289145e-29 9.6433454033158100e-30 0.0000000000000000e+00  -9.8922626770852185e-31 -3.5321411968554238e-29 0.0000000000000000e+00  -1.9730217654829767e-29 -1.6003729115609805e-28 0.0000000000000000e+00  -1.3153732574580702e-29 -5.2382677956924446e-29 0.0000000000000000e+00  2.8141554917006845e-29 5.8907063728654253e-29 0.0000000000000000e+00  2.6254002690470805e-29 3.0088353284745952e-28 0.0000000000000000e+00  3.6524753227310589e-30 -1.6181136549265732e-28 0.0000000000000000e+00  3.5325683908957586e-29 -3.5740618094120305e-28 0.0000000000000000e+00  -1.1384838776879655e-29 -9.5909393640620619e-29 0.0000000000000000e+00  -9.8002604478036389e-29 -8.7624734483277750e-29 0.0000000000000000e+00  -1.3874378991652635e-28 2.6610588621225258e-28 0.0000000000000000e+00  -1.3486364177199614e-28 1.7543876363413130e-28 0.0000000000000000e+00  -1.0604027545379177e-28 -2.9136158944301321e-29 0.0000000000000000e+00  -1.1096199298973007e-28 5.4500974351855998e-30 0.0000000000000000e+00  -1.0305935880713448e-28 -1.4823274246148984e-28 0.0000000000000000e+00  1.0376717672801067e-28 -5.4740928742040829e-28 0.0000000000000000e+00  2.1844661008274698e-28 -2.8609337435273087e-28 0.0000000000000000e+00  2.3050443592284324e-28 2.6832626610324844e-28 0.0000000000000000e+00  1.4345422966917154e-28 -1.8111889866731117e-28 0.0000000000000000e+00  -3.6842088519885354e-29 -6.6606333432357525e-28 0.0000000000000000e+00  8.9185137661863978e-29 1.3692739022786079e-28 0.0000000000000000e+00  8.5283919044978448e-29 1.2207920112794329e-28 0.0000000000000000e+00  1.6366136732729694e-29 -5.0566927665159525e-28 0.0000000000000000e+00  2.5748118536486476e-29 -2.3404018044985117e-28 0.0000000000000000e+00  2.7087876058254958e-29 -3.6269307529826841e-28 0.0000000000000000e+00  -1.2323866704133168e-29 -3.5503032374162006e-29 0.0000000000000000e+00  -1.5155472768357859e-29 1.7406030424266633e-29 0.0000000000000000e+00  1.0701891348186816e-29 -2.4858278531125977e-28 0.0000000000000000e+00  -1.4074557182330805e-30 -1.4320486193307275e-28 0.0000000000000000e+00  5.0464830693185114e-30 6.3848662658360212e-29 0.0000000000000000e+00  4.1285912243764642e-31 -3.1309193678727355e-28 0.0000000000000000e+00  -1.2260074804490996e-29 -1.4682574466039984e-28 0.0000000000000000e+00  1.7757687946235570e-29 -7.0457764691534030e-29 0.0000000000000000e+00  -3.3017583934641949e-30 -4.9598853671010735e-29 0.0000000000000000e+00  2.6836709755513442e-30 2.4951553779930423e-28 0.0000000000000000e+00  -7.1522540402026529e-30 2.8337683107447129e-28 0.0000000000000000e+00  -2.3848060852425619e-29 4.6533670346544271e-28 0.0000000000000000e+00  -1.9351855648743463e-29 1.7322641254325489e-28 0.0000000000000000e+00  -1.4294045692101366e-29 -3.8810058841987396e-29 0.0000000000000000e+00  2.5486778624447248e-29 -3.0297367964843352e-28 0.0000000000000000e+00  3.8061183751111486e-29 -4.0087922463615178e-28 0.0000000000000000e+00  1.5741612432477245e-29 -1.2179652437727090e-28 0.0000000000000000e+00  5.1810928456528717e-30 3.7970894033040180e-29 0.0000000000000000e+00  -1.3320460288359872e-29 9.2419874433528274e-29 0.0000000000000000e+00  -4.7807809433078561e-29 3.8007374928500473e-28 0.0000000000000000e+00  -1.8692512778822895e-29 1.3133217722056676e-28 0.0000000000000000e+00  1.0983065985144635e-29 -1.2661312654167626e-28 0.0000000000000000e+00  5.1762295904424623e-30 9.8436667503493137e-30 0.0000000000000000e+00  -3.1933973379584884e-30 1.2016382427498922e-29 0.0000000000000000e+00  -6.2744244165636346e-30 2.2675969726426510e-29 0.0000000000000000e+00  2.4508305491834212e-30 -6.1750253126630250e-30 0.0000000000000000e+00  3.4834197766985868e-30 -9.7366632304669247e-30 0.00000