<?xml version="1.0"?>
<VTKFile type="UnstructuredGrid"  version="0.1"  >
<UnstructuredGrid>
<Piece  NumberOfPoints="11902" NumberOfCells="23402">
<Points>
<DataArray  type="Float64"  NumberOfComponents="3"  format="ascii">-5 -5 0  5 -5 0  5 5 0  -5 5 0  1.191807431115274 0.001251170670461935 0  -4.9 -5 0  -4.8 -5 0  -4.7 -5 0  -4.6 -5 0  -4.5 -5 0  -4.4 -5 0  -4.3 -5 0  -4.2 -5 0  -4.1 -5 0  -4 -5 0  -3.9 -5 0  -3.8 -5 0  -3.7 -5 0  -3.6 -5 0  -3.5 -5 0  -3.4 -5 0  -3.3 -5 0  -3.2 -5 0  -3.1 -5 0  -3 -5 0  -2.9 -5 0  -2.8 -5 0  -2.7 -5 0  -2.6 -5 0  -2.5 -5 0  -2.4 -5 0  -2.3 -5 0  -2.2 -5 0  -2.1 -5 0  -2 -5 0  -1.9 -5 0  -1.8 -5 0  -1.7 -5 0  -1.6 -5 0  -1.5 -5 0  -1.4 -5 0  -1.3 -5 0  -1.2 -5 0  -1.1 -5 0  -1 -5 0  -0.9000000000000004 -5 0  -0.7999999999999998 -5 0  -0.7000000000000002 -5 0  -0.5999999999999996 -5 0  -0.5 -5 0  -0.4000000000000004 -5 0  -0.2999999999999998 -5 0  -0.2000000000000002 -5 0  -0.09999999999999964 -5 0  0 -5 0  0.09999999999999964 -5 0  0.2000000000000002 -5 0  0.2999999999999998 -5 0  0.4000000000000004 -5 0  0.5 -5 0  0.5999999999999996 -5 0  0.7000000000000002 -5 0  0.7999999999999998 -5 0  0.9000000000000004 -5 0  1 -5 0  1.1 -5 0  1.2 -5 0  1.3 -5 0  1.4 -5 0  1.5 -5 0  1.6 -5 0  1.7 -5 0  1.8 -5 0  1.9 -5 0  2 -5 0  2.1 -5 0  2.2 -5 0  2.3 -5 0  2.4 -5 0  2.5 -5 0  2.6 -5 0  2.7 -5 0  2.8 -5 0  2.9 -5 0  3 -5 0  3.1 -5 0  3.199999999999999 -5 0  3.300000000000001 -5 0  3.4 -5 0  3.5 -5 0  3.6 -5 0  3.699999999999999 -5 0  3.800000000000001 -5 0  3.9 -5 0  4 -5 0  4.1 -5 0  4.199999999999999 -5 0  4.300000000000001 -5 0  4.4 -5 0  4.5 -5 0  4.6 -5 0  4.699999999999999 -5 0  4.800000000000001 -5 0  4.9 -5 0  5 -4.9 0  5 -4.8 0  5 -4.7 0  5 -4.6 0  5 -4.5 0  5 -4.4 0  5 -4.3 0  5 -4.2 0  5 -4.1 0  5 -4 0  5 -3.9 0  5 -3.8 0  5 -3.7 0  5 -3.6 0  5 -3.5 0  5 -3.4 0  5 -3.3 0  5 -3.2 0  5 -3.1 0  5 -3 0  5 -2.9 0  5 -2.8 0  5 -2.7 0  5 -2.6 0  5 -2.5 0  5 -2.4 0  5 -2.3 0  5 -2.2 0  5 -2.1 0  5 -2 0  5 -1.9 0  5 -1.8 0  5 -1.7 0  5 -1.6 0  5 -1.5 0  5 -1.4 0  5 -1.3 0  5 -1.2 0  5 -1.1 0  5 -1 0  5 -0.9000000000000004 0  5 -0.7999999999999998 0  5 -0.7000000000000002 0  5 -0.5999999999999996 0  5 -0.5 0  5 -0.4000000000000004 0  5 -0.2999999999999998 0  5 -0.2000000000000002 0  5 -0.09999999999999964 0  5 0 0  5 0.09999999999999964 0  5 0.2000000000000002 0  5 0.2999999999999998 0  5 0.4000000000000004 0  5 0.5 0  5 0.5999999999999996 0  5 0.7000000000000002 0  5 0.7999999999999998 0  5 0.9000000000000004 0  5 1 0  5 1.1 0  5 1.2 0  5 1.3 0  5 1.4 0  5 1.5 0  5 1.6 0  5 1.7 0  5 1.8 0  5 1.9 0  5 2 0  5 2.1 0  5 2.2 0  5 2.3 0  5 2.4 0  5 2.5 0  5 2.6 0  5 2.7 0  5 2.8 0  5 2.9 0  5 3 0  5 3.1 0  5 3.199999999999999 0  5 3.300000000000001 0  5 3.4 0  5 3.5 0  5 3.6 0  5 3.699999999999999 0  5 3.800000000000001 0  5 3.9 0  5 4 0  5 4.1 0  5 4.199999999999999 0  5 4.300000000000001 0  5 4.4 0  5 4.5 0  5 4.6 0  5 4.699999999999999 0  5 4.800000000000001 0  5 4.9 0  4.9 5 0  4.8 5 0  4.7 5 0  4.6 5 0  4.5 5 0  4.4 5 0  4.3 5 0  4.2 5 0  4.1 5 0  4 5 0  3.9 5 0  3.8 5 0  3.7 5 0  3.6 5 0  3.5 5 0  3.4 5 0  3.3 5 0  3.2 5 0  3.1 5 0  3 5 0  2.9 5 0  2.8 5 0  2.7 5 0  2.6 5 0  2.5 5 0  2.4 5 0  2.3 5 0  2.2 5 0  2.1 5 0  2 5 0  1.9 5 0  1.8 5 0  1.7 5 0  1.6 5 0  1.5 5 0  1.4 5 0  1.3 5 0  1.2 5 0  1.1 5 0  1 5 0  0.9000000000000004 5 0  0.7999999999999998 5 0  0.7000000000000002 5 0  0.5999999999999996 5 0  0.5 5 0  0.4000000000000004 5 0  0.2999999999999998 5 0  0.2000000000000002 5 0  0.09999999999999964 5 0  0 5 0  -0.09999999999999964 5 0  -0.2000000000000002 5 0  -0.2999999999999998 5 0  -0.4000000000000004 5 0  -0.5 5 0  -0.5999999999999996 5 0  -0.7000000000000002 5 0  -0.7999999999999998 5 0  -0.9000000000000004 5 0  -1 5 0  -1.1 5 0  -1.2 5 0  -1.3 5 0  -1.4 5 0  -1.5 5 0  -1.6 5 0  -1.7 5 0  -1.8 5 0  -1.9 5 0  -2 5 0  -2.1 5 0  -2.2 5 0  -2.3 5 0  -2.4 5 0  -2.5 5 0  -2.6 5 0  -2.7 5 0  -2.8 5 0  -2.9 5 0  -3 5 0  -3.1 5 0  -3.199999999999999 5 0  -3.300000000000001 5 0  -3.4 5 0  -3.5 5 0  -3.6 5 0  -3.699999999999999 5 0  -3.800000000000001 5 0  -3.9 5 0  -4 5 0  -4.1 5 0  -4.199999999999999 5 0  -4.300000000000001 5 0  -4.4 5 0  -4.5 5 0  -4.6 5 0  -4.699999999999999 5 0  -4.800000000000001 5 0  -4.9 5 0  -5 4.9 0  -5 4.8 0  -5 4.7 0  -5 4.6 0  -5 4.5 0  -5 4.4 0  -5 4.3 0  -5 4.2 0  -5 4.1 0  -5 4 0  -5 3.9 0  -5 3.8 0  -5 3.7 0  -5 3.6 0  -5 3.5 0  -5 3.4 0  -5 3.3 0  -5 3.2 0  -5 3.1 0  -5 3 0  -5 2.9 0  -5 2.8 0  -5 2.7 0  -5 2.6 0  -5 2.5 0  -5 2.4 0  -5 2.3 0  -5 2.2 0  -5 2.1 0  -5 2 0  -5 1.9 0  -5 1.8 0  -5 1.7 0  -5 1.6 0  -5 1.5 0  -5 1.4 0  -5 1.3 0  -5 1.2 0  -5 1.1 0  -5 1 0  -5 0.9000000000000004 0  -5 0.7999999999999998 0  -5 0.7000000000000002 0  -5 0.5999999999999996 0  -5 0.5 0  -5 0.4000000000000004 0  -5 0.2999999999999998 0  -5 0.2000000000000002 0  -5 0.09999999999999964 0  -5 0 0  -5 -0.09999999999999964 0  -5 -0.2000000000000002 0  -5 -0.2999999999999998 0  -5 -0.4000000000000004 0  -5 -0.5 0  -5 -0.5999999999999996 0  -5 -0.7000000000000002 0  -5 -0.7999999999999998 0  -5 -0.9000000000000004 0  -5 -1 0  -5 -1.1 0  -5 -1.2 0  -5 -1.3 0  -5 -1.4 0  -5 -1.5 0  -5 -1.6 0  -5 -1.7 0  -5 -1.8 0  -5 -1.9 0  -5 -2 0  -5 -2.1 0  -5 -2.2 0  -5 -2.3 0  -5 -2.4 0  -5 -2.5 0  -5 -2.6 0  -5 -2.7 0  -5 -2.8 0  -5 -2.9 0  -5 -3 0  -5 -3.1 0  -5 -3.199999999999999 0  -5 -3.300000000000001 0  -5 -3.4 0  -5 -3.5 0  -5 -3.6 0  -5 -3.699999999999999 0  -5 -3.800000000000001 0  -5 -3.9 0  -5 -4 0  -5 -4.1 0  -5 -4.199999999999999 0  -5 -4.300000000000001 0  -5 -4.4 0  -5 -4.5 0  -5 -4.6 0  -5 -4.699999999999999 0  -5 -4.800000000000001 0  -5 -4.9 0  1.185911295724501 0.09930137972569485 0  1.167370415770933 0.1976225786212773 0  1.136290819322415 0.2949569348704149 0  1.096020822395469 0.386673238139932 0  1.043720202522054 0.4773930258728498 0  0.982041861525661 0.5625634779941741 0  0.9095453074033778 0.6423308686210686 0  0.8277476842393758 0.7151346925526921 0  0.7388994206839981 0.7808823282024087 0  0.6420546518594866 0.8394587429046079 0  0.5381340496147482 0.8901695133433934 0  0.4298965260289417 0.9319945198470136 0  0.3192545702793563 0.9647854632460499 0  0.2033086611517115 0.9871931201987522 0  0.08821494465451017 1.001537574306996 0  -0.02767902100605698 1.004286514574949 0  -0.1436967557642658 0.9947892098718003 0  -0.2606614803337005 0.9771883724645841 0  -0.3745135071113663 0.9509079603134737 0  -0.4834216259173323 0.9143617665671741 0  -0.5875111430390333 0.8688406287378233 0  -0.6865299612764488 0.8141135425638764 0  -0.7785003484367876 0.751289976305041 0  -0.8638241081004533 0.6808937050487702 0  -0.9417316600471327 0.6028650654150254 0  -1.009387714001449 0.5203454049218336 0  -1.06763944129062 0.4333150457740751 0  -1.114624717826982 0.3411073433557681 0  -1.149874823017155 0.2468373343473721 0  -1.173615519209268 0.1500743880536469 0  -1.185662488735981 0.05080632745358049 0  -1.185663345733032 -0.04911269494295699 0  -1.173569242447929 -0.1480692262216836 0  -1.150790275317796 -0.2448381359246382 0  -1.114176412149716 -0.3407134211917112 0  -1.068008927223825 -0.4320754633979426 0  -1.010342090525309 -0.5194053811918921 0  -0.9431717450727506 -0.601494442963746 0  -0.8655366732097483 -0.6783877268726324 0  -0.7797724847963904 -0.7478624695517984 0  -0.6865781624873548 -0.8091960033010922 0  -0.587755701926795 -0.8635886603516525 0  -0.4808237962958042 -0.9102236042274342 0  -0.3714469677563238 -0.9481806737720347 0  -0.2579176020380053 -0.9757891753538163 0  -0.1423017701426771 -0.9938416657288554 0  -0.02720400081244739 -1.003439686693461 0  0.08883066072710659 -0.9992103072543226 0  0.2060215455136961 -0.9849932182283698 0  0.3207747558838289 -0.963126860045482 0  0.4331657862775442 -0.9305765536680021 0  0.5397236507781951 -0.8892005508769898 0  0.6427567023062615 -0.839006490799483 0  0.7390829490578625 -0.7818152541101021 0  0.8278239102180653 -0.7158149482709532 0  0.9090600764419305 -0.641760644748787 0  0.9806851993362202 -0.561891152616231 0  1.043601937665076 -0.4768501573811877 0  1.097067795727124 -0.3867514208195931 0  1.137676390915727 -0.2935842162916299 0  1.167605511030635 -0.1968112617060576 0  1.185927705468466 -0.09884391343869973 0  -2.448813528026449 4.918577403161617 0  -2.448710221880281 -4.910997792825126 0  4.910933631497045 2.448254195762178 0  4.91901263652316 -2.449683112891581 0  2.446484844322428 -4.896317218759836 0  2.440907896592511 4.90006057107137 0  -4.910956625297612 -2.448276734411912 0  -4.910955031968411 2.448280565776873 0  -1.748776786116065 4.911671199128432 0  -1.744552208651098 -4.91508612780616 0  4.921245850209519 1.744395225628202 0  4.909866492004863 -1.748203865156539 0  -4.910152716864548 -1.747932704763006 0  -4.910969899844045 1.747673721751997 0  1.746065881456613 4.905576565268372 0  1.747512340357937 -4.893807548571708 0  -1.149034841595674 4.909594935749845 0  -1.129871806594442 -4.917444036064943 0  -4.910048008475481 -1.148196474177389 0  -4.909869097402283 1.147996541939918 0  1.144017051508168 -4.913661213534732 0  1.149042473280131 4.909583923913878 0  4.910195025294942 1.146474041180187 0  4.920921657453272 -1.15222468188709 0  -0.5467697410864512 -4.910853467080321 0  -0.5465425827713346 4.919460352189582 0  -4.9089236414957 -0.5488579362573682 0  -4.90894810893927 0.5474140170594674 0  4.908259545158131 -0.5491791848165111 0  4.919790687232614 0.5459161509565121 0  0.5425618871042002 -4.89785378833564 0  0.5512730113154686 4.916312920892065 0  -4.912219766557527 -3.048573084151607 0  4.918768896085431 3.046571229080752 0  4.911731212378494 -3.048553275757899 0  -4.913065928861532 3.045662400063606 0  3.055512072569887 -4.917707944273081 0  -3.048858768004366 -4.911665994841854 0  3.052421161325007 4.91373794387208 0  -3.048302943409868 4.912553107693155 0  -4.908085297506648 -0.04992261155338784 0  0.04512612737071339 -4.912810290166858 0  0.04957450163168057 4.919773346753272 0  4.9150705188119 -0.0513037607672933 0  3.545786474383311 -4.919254093681776 0  -3.549081533424022 4
[...]
<PointData  Vectors="f_2178"> 
<DataArray  type="Float64"  Name="f_2178"  NumberOfComponents="3" format="ascii">-1.3075800513188237e-40 -1.4351023852411882e-40 0.0000000000000000e+00  1.5861364833793378e-40 -1.6864866205511359e-40 0.0000000000000000e+00  -2.1390483848954150e-40 -2.1062859051002886e-40 0.0000000000000000e+00  -2.5431508253502060e-40 2.5950070928513215e-40 0.0000000000000000e+00  1.5573824881571339e+01 -2.6024311145399920e-01 0.0000000000000000e+00  3.0209782797394359e-40 3.2006839586777825e-40 0.0000000000000000e+00  7.4110689599303176e-40 7.7654559437122820e-40 0.0000000000000000e+00  -1.6688755228325704e-39 -1.8912324874548991e-39 0.0000000000000000e+00  1.6276176334150002e-38 1.8452034545116625e-38 0.0000000000000000e+00  -5.2735614243937385e-38 -5.9110636042688160e-38 0.0000000000000000e+00  1.9667181713149738e-37 2.3122092492500489e-37 0.0000000000000000e+00  -7.0553901316313129e-37 -8.6133644906895959e-37 0.0000000000000000e+00  4.2029358223034769e-36 5.2746096474221045e-36 0.0000000000000000e+00  -2.6200898121665402e-35 -3.2898473049260079e-35 0.0000000000000000e+00  1.0667539291343562e-34 1.3654549866969911e-34 0.0000000000000000e+00  -2.3194701134464167e-34 -2.9969959707333343e-34 0.0000000000000000e+00  4.6572540629680285e-34 5.9998930805486410e-34 0.0000000000000000e+00  1.6823598557987138e-33 2.2158675544510361e-33 0.0000000000000000e+00  -7.4197069645522753e-33 -1.0240465041529234e-32 0.0000000000000000e+00  2.0926662665536875e-32 3.0562062921230863e-32 0.0000000000000000e+00  -1.2025042079973689e-31 -1.7648351460311507e-31 0.0000000000000000e+00  3.1728279800393286e-31 4.6857389683139842e-31 0.0000000000000000e+00  1.9011798196840088e-31 2.8905229347790587e-31 0.0000000000000000e+00  -1.5707485690748255e-30 -2.3908841664972625e-30 0.0000000000000000e+00  -6.9901181792250847e-31 -1.2154476855649122e-30 0.0000000000000000e+00  -1.6859638414840300e-30 -2.9811417295838486e-30 0.0000000000000000e+00  4.6019586903848984e-30 8.3553017629338511e-30 0.0000000000000000e+00  -1.0593738484636490e-29 -2.3435392185854956e-29 0.0000000000000000e+00  3.7438165239828013e-29 7.6696445740183303e-29 0.0000000000000000e+00  2.1660157235027986e-29 4.7547815211398537e-29 0.0000000000000000e+00  -1.8680830049563394e-28 -3.9747613415008182e-28 0.0000000000000000e+00  -6.6227864068353832e-29 -1.5441217424217935e-28 0.0000000000000000e+00  -1.1244237531861681e-28 -2.9852543520936342e-28 0.0000000000000000e+00  1.8767620700834556e-28 4.6165090545753830e-28 0.0000000000000000e+00  5.4793290359095614e-28 1.4627201156606144e-27 0.0000000000000000e+00  -2.8997838832926063e-29 -1.0212012401081453e-28 0.0000000000000000e+00  1.4930177649123548e-28 4.1296054671615578e-28 0.0000000000000000e+00  -9.0609638856996837e-29 -2.6614484255987764e-28 0.0000000000000000e+00  -4.8286162776909032e-28 -1.4591945998217562e-27 0.0000000000000000e+00  -4.4361404640292945e-28 -1.4436914506703381e-27 0.0000000000000000e+00  -1.5010734601495135e-29 -1.4000181319819801e-28 0.0000000000000000e+00  4.6440697018425971e-28 1.7165780677617620e-27 0.0000000000000000e+00  2.7020476785864293e-28 1.0319521099830685e-27 0.0000000000000000e+00  -2.0227990322895265e-29 -1.7540937985566119e-28 0.0000000000000000e+00  1.0677323090596256e-28 4.2035628740569009e-28 0.0000000000000000e+00  6.9015833789201718e-29 1.0601253520045317e-27 0.0000000000000000e+00  1.8812507581020898e-28 1.7818800206287100e-27 0.0000000000000000e+00  -6.6246317460356092e-29 -1.0453179585250063e-27 0.0000000000000000e+00  5.1822569997051699e-28 5.6947835169575893e-27 0.0000000000000000e+00  -1.0530727831288930e-28 -1.5058575831126620e-29 0.0000000000000000e+00  -4.8276538247873027e-28 -4.8802604683539403e-27 0.0000000000000000e+00  -2.9731083855775432e-28 -2.8131440431901840e-27 0.0000000000000000e+00  -2.4805991246451255e-28 -4.0359263518714362e-27 0.0000000000000000e+00  -1.8838093726402323e-28 -1.0224547284648569e-26 0.0000000000000000e+00  -2.2770061690006212e-29 -1.1719873397969616e-26 0.0000000000000000e+00  -4.6124861883086225e-30 -2.0201985720079069e-27 0.0000000000000000e+00  1.0311197171528173e-28 -6.3385870384595018e-27 0.0000000000000000e+00  1.1716327322869827e-28 -2.2491574562239133e-27 0.0000000000000000e+00  2.9540610099158130e-28 -4.0804540141484878e-27 0.0000000000000000e+00  -1.7603610578914078e-28 1.9058063682044417e-27 0.0000000000000000e+00  6.0655882906452828e-28 -5.4537442277798246e-27 0.0000000000000000e+00  7.1548796444574926e-28 -4.9551384524409556e-27 0.0000000000000000e+00  -1.1195326552708979e-28 1.0501811543254000e-27 0.0000000000000000e+00  -1.2241249175732237e-27 7.4475648125782652e-27 0.0000000000000000e+00  -5.6456621829617588e-28 2.9602627590824320e-27 0.0000000000000000e+00  -3.7201571205814038e-28 1.6936113366715642e-27 0.0000000000000000e+00  -9.6018876235721913e-28 4.2672917685007141e-27 0.0000000000000000e+00  -5.6523187780537597e-28 2.2573001798965922e-27 0.0000000000000000e+00  6.3410922829017415e-28 -2.5670726275077511e-27 0.0000000000000000e+00  3.5295506067788439e-28 -1.2065045205878583e-27 0.0000000000000000e+00  7.4580630258472273e-29 -2.2971038059034561e-28 0.0000000000000000e+00  3.2026771400379383e-28 -9.1033743694952493e-28 0.0000000000000000e+00  2.4992297687467014e-28 -7.1282728492931195e-28 0.0000000000000000e+00  -2.1484458575161352e-28 6.0487471487278035e-28 0.0000000000000000e+00  -1.5067333774662734e-28 4.0080231275408252e-28 0.0000000000000000e+00  -1.1448971453789878e-28 2.8820334481411407e-28 0.0000000000000000e+00  1.8640478661212054e-29 -5.3719507388798826e-29 0.0000000000000000e+00  8.0603575093535205e-29 -1.8942077173875382e-28 0.0000000000000000e+00  1.1589721165639156e-28 -2.5417536369088524e-28 0.0000000000000000e+00  -6.4446606721668772e-30 1.3868543751264170e-29 0.0000000000000000e+00  -8.4060630455491550e-29 1.7029729504895192e-28 0.0000000000000000e+00  1.3714393110477727e-29 -2.7771508571475991e-29 0.0000000000000000e+00  4.6666282948537475e-30 -8.7185386035462536e-30 0.0000000000000000e+00  -1.3031404090746253e-29 2.3204744612808007e-29 0.0000000000000000e+00  -1.0954379082999537e-30 1.6019258628912399e-30 0.0000000000000000e+00  1.5197062569008790e-30 -2.4592261263960955e-30 0.0000000000000000e+00  -7.7200023313350324e-31 1.2222186340033582e-30 0.0000000000000000e+00  1.0037149836302763e-31 -1.5910296197015603e-31 0.0000000000000000e+00  -1.1623173264147439e-32 1.7855696948080483e-32 0.0000000000000000e+00  -1.0767683946964214e-33 1.4853066057425117e-33 0.0000000000000000e+00  6.4779907672738022e-33 -8.8070243390556695e-33 0.0000000000000000e+00  2.5023547026183051e-34 -2.7627610326963693e-34 0.0000000000000000e+00  -3.7897217997107767e-34 4.8572339853018855e-34 0.0000000000000000e+00  4.0633217129012735e-35 -5.1262752949551331e-35 0.0000000000000000e+00  -1.5183632751317879e-35 1.9385870073730516e-35 0.0000000000000000e+00  3.9106889419410843e-36 -4.7619841155674976e-36 0.0000000000000000e+00  -1.5390157928195788e-36 1.7582291242290254e-36 0.0000000000000000e+00  4.8266463159495608e-37 -5.5304407736423787e-37 0.0000000000000000e+00  -2.4025163496200535e-37 2.6662304237101296e-37 0.0000000000000000e+00  8.0514856492030411e-38 -8.7685022339563364e-38 0.0000000000000000e+00  -1.5902738202008262e-38 1.7277335374397067e-38 0.0000000000000000e+00  6.3900328224839022e-39 -6.7413253737034820e-39 0.0000000000000000e+00  -4.2533627740548787e-40 4.3015975476005828e-40 0.0000000000000000e+00  -2.7466283169697876e-40 2.9279226047368885e-40 0.0000000000000000e+00  -5.0465129675891249e-42 4.1665997594255649e-42 0.0000000000000000e+00  3.8116576276557740e-40 -3.4864412641512267e-40 0.0000000000000000e+00  -8.7090676813953422e-40 7.7640079715176688e-40 0.0000000000000000e+00  3.1064577709203609e-39 -2.8411552946400789e-39 0.0000000000000000e+00  -1.6747923339650714e-39 1.7033360602698324e-39 0.0000000000000000e+00  -1.4957442703033992e-38 1.2528370748275540e-38 0.0000000000000000e+00  5.6406197941800902e-38 -4.7886640581908677e-38 0.0000000000000000e+00  -7.3553449053045810e-38 6.3645863061831165e-38 0.0000000000000000e+00  -1.4379772662984211e-37 1.1003178587648648e-37 0.0000000000000000e+00  8.7899333049984055e-37 -6.9426721708881666e-37 0.0000000000000000e+00  -1.4946437326566634e-36 1.1907686528423603e-36 0.0000000000000000e+00  -1.3927016232087627e-36 9.6524919617772133e-37 0.0000000000000000e+00  1.2197241603167931e-35 -8.9936806518469650e-36 0.0000000000000000e+00  -2.3144574647808763e-35 1.7043596617462083e-35 0.0000000000000000e+00  -1.7977252304999766e-35 1.1771311012708638e-35 0.0000000000000000e+00  1.7656228241301304e-34 -1.2116180049034951e-34 0.0000000000000000e+00  -2.7859122495229241e-34 1.9115251015576818e-34 0.0000000000000000e+00  -3.9193875458982915e-34 2.4874898200258819e-34 0.0000000000000000e+00  2.3820442864219471e-33 -1.5150092600484398e-33 0.0000000000000000e+00  -2.3100299322086756e-33 1.4648373663714047e-33 0.0000000000000000e+00  -8.7043218202565889e-33 5.1794484893125777e-33 0.0000000000000000e+00  2.7149737359474917e-32 -1.5956530704654679e-32 0.0000000000000000e+00  2.9847608600237185e-33 -1.3420629008502410e-33 0.0000000000000000e+00  -1.4841587991061477e-31 8.1096208228170268e-32 0.0000000000000000e+00  1.9381680688402073e-31 -1.0272407776157455e-31 0.0000000000000000e+00  4.9956213967026154e-31 -2.5410586817600242e-31 0.0000000000000000e+00  -1.4671026300237786e-30 7.2067486056658804e-31 0.0000000000000000e+00  -8.7427879031309409e-31 4.2091787704039207e-31 0.0000000000000000e+00  7.8718993137784783e-30 -3.5787631857923731e-30 0.0000000000000000e+00  -2.2506501582664474e-30 8.8929577271130095e-31 0.0000000000000000e+00  -3.4878910628223262e-29 1.4617923379056756e-29 0.0000000000000000e+00  2.8646735487194537e-29 -1.0636397866384505e-29 0.0000000000000000e+00  1.4249225695693202e-28 -5.5103820753388256e-29 0.0000000000000000e+00  -1.6112464366750439e-28 5.3160696580115385e-29 0.0000000000000000e+00  -5.9501321739403034e-28 2.0926651248215384e-28 0.0000000000000000e+00  6.3239788225713134e-28 -1.7825835102499177e-28 0.0000000000000000e+00  2.4816071928250749e-27 -7.7693811030735838e-28 0.0000000000000000e+00  -1.9018449252181180e-27 3.9103952584666513e-28 0.0000000000000000e+00  -9.5784764301052020e-27 2.4484198775187582e-27 0.0000000000000000e+00  2.6053918217944519e-27 3.3340135908409458e-29 0.0000000000000000e+00  3.0170141127064815e-26 -5.8978332650075107e-27 0.0000000000000000e+00  1.4648117586480855e-26 -3.8759633134929817e-27 0.0000000000000000e+00  -8.5192386894659089e-26 1.2039572200392323e-26 0.0000000000000000e+00  -1.2913936567234030e-25 1.7387488751902027e-26 0.0000000000000000e+00  1.4271606419382792e-25 -2.1412363411971535e-26 0.0000000000000000e+00  8.3354064131577288e-25 -9.7905281452868568e-26 0.0000000000000000e+00  1.5161072285896916e-24 -1.4661082026364013e-25 0.0000000000000000e+00  1.8416043756189939e-24 -1.3452286461052246e-25 0.0000000000000000e+00  1.7933714813516992e-24 -7.0579400189680177e-26 0.0000000000000000e+00  1.8059926489346227e-24 6.8220137036754555e-27 0.0000000000000000e+00  1.9270174976059708e-24 8.0909986512740769e-26 0.0000000000000000e+00  1.7852480533274093e-24 1.2183136700440976e-25 0.0000000000000000e+00  1.1737980679559346e-24 1.0264120913229178e-25 0.0000000000000000e+00  3.5664452121268784e-25 3.5964217755878750e-26 0.0000000000000000e+00  -1.4642639075922938e-25 -1.9755407779173829e-26 0.0000000000000000e+00  -2.0067780113654976e-25 -2.8027364978326478e-26 0.0000000000000000e+00  -3.5666275838401346e-26 -3.4043036915220521e-27 0.0000000000000000e+00  5.7187016288808422e-26 1.2351941366885267e-26 0.0000000000000000e+00  3.5027739873928464e-26 7.5600361247209148e-27 0.0000000000000000e+00  -4.7569157541214990e-27 -1.3089919353273024e-27 0.0000000000000000e+00  -1.0080549598234415e-26 -2.5940444071736629e-27 0.0000000000000000e+00  -5.9582091720272942e-28 -1.2074305332941282e-28 0.0000000000000000e+00  2.5498907152540577e-27 7.5616476325783871e-28 0.0000000000000000e+00  3.3250440178213678e-28 9.6091847298476718e-29 0.0000000000000000e+00  -6.1060663720352131e-28 -2.0308375611782025e-28 0.0000000000000000e+00  -7.4767265527613144e-29 -2.4436712099854178e-29 0.0000000000000000e+00  1.4188896213363255e-28 5.2542199374650955e-29 0.0000000000000000e+00  4.3508033837879581e-30 1.2809423404139338e-30 0.0000000000000000e+00  -3.1513465602233341e-29 -1.2810649797899054e-29 0.0000000000000000e+00  3.0215835994937301e-30 1.3995392031313490e-30 0.0000000000000000e+00  5.9357901308086602e-30 2.6433577687580545e-30 0.0000000000000000e+00  -1.7933609222736376e-30 -8.5376992599543922e-31 0.0000000000000000e+00  -8.6363017586237301e-31 -4.1243433638253374e-31 0.0000000000000000e+00  5.6659457479154858e-31 2.8962793373067238e-31 0.0000000000000000e+00  2.8554837240391372e-32 1.3160336779703290e-32 0.0000000000000000e+00  -1.2294344420174780e-31 -6.6893504153532812e-32 0.0000000000000000e+00  2.7770213517280845e-32 1.5967904516756135e-32 0.0000000000000000e+00  1.7479451240430805e-32 1.0055333398921562e-32 0.0000000000000000e+00  -1.1168216585985579e-32 -6.7273980102231992e-33 0.0000000000000000e+00  1.6381017647282700e-34 1.1566037654831888e-34 0.0000000000000000e+00  1.9962079528892522e-33 1.2817369314612865e-33 0.0000000000000000e+00  -7.5352304982338434e-34 -4.9614505070652003e-34 0.0000000000000000e+00  -1.0502010796943531e-34 -7.2502331269651489e-35 0.0000000000000000e+00  1.8022585283499683e-34 1.2562754790615266e-34 0.0000000000000000e+00  -5.0753872033751434e-35 -3.6043966124998440e-35 0.0000000000000000e+00  -1.1572143725284526e-35 -8.6976027937604120e-36 0.0000000000000000e+00  1.3215738896932522e-35 9.9571885169555250e-36 0.0000000000000000e+00  -3.4704637470665242e-36 -2.6267639190297883e-36 0.0000000000000000e+00  -7.8763033662878631e-37 -6.4705570240051685e-37 0.0000000000000000e+00  9.1656531532200654e-37 7.4198396667616535e-37 0.0000000000000000e+00  -2.6913118607876192e-37 -2.1807136745804404e-37 0.0000000000000000e+00  -2.9804280679687019e-38 -2.7694837829031028e-38 0.0000000000000000e+00  5.6612392470575532e-38 4.9360527779812645e-38 0.0000000000000000e+00  -2.1969873878915982e-38 -1.9098874559636618e-38 0.0000000000000000e+00  1.0334440432115682e-39 6.9109170977462030e-40 0.0000000000000000e+00  2.9435149869751459e-39 2.7723264715562966e-39 0.0000000000000000e+00  -1.5802649485422109e-39 -1.4713568890141302e-39 0.0000000000000000e+00  3.5320402376389563e-40 3.2327764018720133e-40 0.0000000000000000e+00  1.5130382198441823e-40 1.5820165496250943e-40 0.0000000000000000e+00  3.2613324888651037e-40 3.2944561526335100e-40 0.0000000000000000e+00  -8.9312865475598552e-40 -9.6508746361223685e-40 0.0000000000000000e+00  1.7860756293317356e-39 1.9734771725276924e-39 0.0000000000000000e+00  -1.2058261608430478e-38 -1.3407462608858876e-38 0.0000000000000000e+00  9.0374860580815769e-38 9.6752175148465542e-38 0.0000000000000000e+00  -2.2192206094259753e-37 -2.3184561118230743e-37 0.0000000000000000e+00  2.6794070502712993e-37 2.9112201213598359e-37 0.0000000000000000e+00  -3.8123062460600084e-36 -4.4679363325738719e-36 0.0000000000000000e+00  1.1315348541537309e-35 1.4188291552596554e-35 0.0000000000000000e+00  -4.6916883746087164e-35 -6.1734362349749328e-35 0.0000000000000000e+00  1.0390350544836032e-34 1.3894324308854381e-34 0.0000000000000000e+00  -1.9213882104309564e-34 -2.7982961915326677e-34 0.0000000000000000e+00  1.0907954213221855e-33 1.5024510578921122e-33 0.0000000000000000e+00  -6.5272809641578612e-34 -8.8253021083224362e-34 0.0000000000000000e+00  4.0014690995490224e-33 5.7324053919149961e-33 0.0000000000000000e+00  3.8055031979100262e-32 5.5610936115934772e-32 0.0000000000000000e+00  -1.7190179853277237e-31 -2.5183737420248144e-31 0.0000000000000000e+00  -5.1488101771204811e-31 -7.9024223598261680e-31 0.0000000000000000e+00  1.0490525833766585e-30 1.6203070357461070e-30 0.0000000000000000e+00  -2.7180659315031442e-31 -3.8547264867554763e-31 0.0000000000000000e+00  -2.9988313360822936e-30 -5.3915718648172237e-30 0.0000000000000000e+00  8.9646299080889548e-30 1.7323291097946029e-29 0.0000000000000000e+00  1.3082713344691316e-29 2.6387497197995941e-29 0.0000000000000000e+00  -8.3518320200462040e-29 -1.7066613934840486e-28 0.0000000000000000e+00  2.6846463924448484e-29 5.3485263488282210e-29 0.0000000000000000e+00  9.3738964658947187e-29 1.9273561262520901e-28 0.0000000000000000e+00  2.9005977464986791e-29 7.2700397924275061e-29 0.0000000000000000e+00  2.5729440170790909e-28 6.4391750368953220e-28 0.0000000000000000e+00  1.1268556053065413e-28 3.0054358608929543e-28 0.0000000000000000e+00  -2.8697393897299391e-28 -7.4397316880682458e-28 0.0000000000000000e+00  -3.8323483012384471e-28 -1.0900029304743232e-27 0.0000000000000000e+00  3.2887578893826927e-28 9.5016159478881726e-28 0.0000000000000000e+00  5.7682825231708661e-28 1.7761288251275242e-27 0.0000000000000000e+00  3.4442968881941474e-28 1.1731231365097217e-27 0.0000000000000000e+00  1.4949424116156078e-28 5.5659714402692790e-28 0.0000000000000000e+00  -6.5888966919847518e-28 -2.4265953326296482e-27 0.0000000000000000e+00  -1.9397183679122439e-28 -7.4873928901284439e-28 0.0000000000000000e+00  -6.5600625652598373e-29 -2.8521064862200457e-28 0.0000000000000000e+00  -3.1486451996538128e-28 -1.4927608684126848e-27 0.0000000000000000e+00  -2.6838527112789823e-28 -1.3917973103652268e-27 0.0000000000000000e+00  -3.3109798706655456e-28 -2.0357078887626786e-27 0.0000000000000000e+00  -8.8370024174960143e-29 -6.6588364759128749e-28 0.0000000000000000e+00  1.9295925704787172e-28 1.4482059065318399e-27 0.0000000000000000e+00  -2.1289071600189037e-29 -1.4131012723352170e-28 0.0000000000000000e+00  -1.7506922910249061e-28 -2.1680899747430358e-27 0.0000000000000000e+00  3.6761990329376923e-29 7.4162323380316224e-28 0.0000000000000000e+00  9.8158171121744290e-30 6.0667999075425217e-28 0.0000000000000000e+00  -2.2432660732001771e-29 -1.3922804079585274e-27 0.0000000000000000e+00  -1.8160839838334411e-30 -4.4773310778214473e-28 0.0000000000000000e+00  5.8943852334908252e-29 -1.5216047205874173e-27 0.0000000000000000e+00  -9.9340429637841285e-29 1.7601298263527290e-27 0.0000000000000000e+00  -1.3181356026952056e-28 1.6369064751205494e-27 0.0000000000000000e+00  1.6034842770880712e-28 -1.6311534958248686e-27 0.0000000000000000e+00  5.2382442397918425e-29 -3.4340363005765302e-28 0.0000000000000000e+00  2.6705139181372675e-28 -2.1602383205627520e-27 0.0000000000000000e+00  -1.2558927693070857e-28 1.2667272518365343e-27 0.0000000000000000e+00  -5.7386349444720032e-29 4.5431507003840858e-28 0.0000000000000000e+00  1.8408487870117448e-28 -8.8940422118123147e-28 0.0000000000000000e+00  7.9544140384869474e-29 -4.0780814307810834e-28 0.0000000000000000e+00  5.1232745914211809e-28 -2.6003329039839647e-27 0.0000000000000000e+00  7.1311428347339710e-28 -3.3326037625327758e-27 0.0000000000000000e+00  1.0369219890229862e-27 -4.4582004169715330e-27 0.0000000000000000e+00  3.1128292303893459e-28 -1.1970829596564412e-27 0.0000000000000000e+00  -3.3868298944154319e-28 1.3117377011608057e-27 0.0000000000000000e+00  -6.8572911436392047e-28 2.4138385438381084e-27 0.0000000000000000e+00  -7.9279714652304685e-28 2.6112591345993354e-27 0.0000000000000000e+00  -2.0441905637849813e-28 6.2450278209015105e-28 0.0000000000000000e+00  1.5821163651839088e-28 -4.8043390589425651e-28 0.0000000000000000e+00  1.5257672610072370e-28 -4.6208905887607097e-28 0.0000000000000000e+00  6.3234650920236420e-28 -1.7207952106175089e-27 0.0000000000000000e+00  2.6785727891028019e-28 -6.8026400074833213e-28 0.0000000000000000e+00  -2.2301473656256799e-28 5.6026570243677926e-28 0.0000000000000000e+00  -1.0868281808026144e-29 1.8440407355016615e-29 0.0000000000000000e+00  2.6759913349540922e-29 -6.1460736556582501e-29 0.0000000000000000e+00  6.3200369069454130e-29 -1.3651290610660042e-28 0.0000000000000000e+00  -1.3478854641091697e-29 2.8323244063672366e-29 0.0000000000000000e+00  -1.9835051505652902e-29 3.9307316853612800e-29 0.0000000000000000e+00  1.623