<?xml version="1.0"?>
<VTKFile type="UnstructuredGrid"  version="0.1"  >
<UnstructuredGrid>
<Piece  NumberOfPoints="11902" NumberOfCells="23402">
<Points>
<DataArray  type="Float64"  NumberOfComponents="3"  format="ascii">-5 -5 0  5 -5 0  5 5 0  -5 5 0  1.197211427963226 0.001277235513226914 0  -4.9 -5 0  -4.8 -5 0  -4.7 -5 0  -4.6 -5 0  -4.5 -5 0  -4.4 -5 0  -4.3 -5 0  -4.2 -5 0  -4.1 -5 0  -4 -5 0  -3.9 -5 0  -3.8 -5 0  -3.7 -5 0  -3.6 -5 0  -3.5 -5 0  -3.4 -5 0  -3.3 -5 0  -3.2 -5 0  -3.1 -5 0  -3 -5 0  -2.9 -5 0  -2.8 -5 0  -2.7 -5 0  -2.6 -5 0  -2.5 -5 0  -2.4 -5 0  -2.3 -5 0  -2.2 -5 0  -2.1 -5 0  -2 -5 0  -1.9 -5 0  -1.8 -5 0  -1.7 -5 0  -1.6 -5 0  -1.5 -5 0  -1.4 -5 0  -1.3 -5 0  -1.2 -5 0  -1.1 -5 0  -1 -5 0  -0.9000000000000004 -5 0  -0.7999999999999998 -5 0  -0.7000000000000002 -5 0  -0.5999999999999996 -5 0  -0.5 -5 0  -0.4000000000000004 -5 0  -0.2999999999999998 -5 0  -0.2000000000000002 -5 0  -0.09999999999999964 -5 0  0 -5 0  0.09999999999999964 -5 0  0.2000000000000002 -5 0  0.2999999999999998 -5 0  0.4000000000000004 -5 0  0.5 -5 0  0.5999999999999996 -5 0  0.7000000000000002 -5 0  0.7999999999999998 -5 0  0.9000000000000004 -5 0  1 -5 0  1.1 -5 0  1.2 -5 0  1.3 -5 0  1.4 -5 0  1.5 -5 0  1.6 -5 0  1.7 -5 0  1.8 -5 0  1.9 -5 0  2 -5 0  2.1 -5 0  2.2 -5 0  2.3 -5 0  2.4 -5 0  2.5 -5 0  2.6 -5 0  2.7 -5 0  2.8 -5 0  2.9 -5 0  3 -5 0  3.1 -5 0  3.199999999999999 -5 0  3.300000000000001 -5 0  3.4 -5 0  3.5 -5 0  3.6 -5 0  3.699999999999999 -5 0  3.800000000000001 -5 0  3.9 -5 0  4 -5 0  4.1 -5 0  4.199999999999999 -5 0  4.300000000000001 -5 0  4.4 -5 0  4.5 -5 0  4.6 -5 0  4.699999999999999 -5 0  4.800000000000001 -5 0  4.9 -5 0  5 -4.9 0  5 -4.8 0  5 -4.7 0  5 -4.6 0  5 -4.5 0  5 -4.4 0  5 -4.3 0  5 -4.2 0  5 -4.1 0  5 -4 0  5 -3.9 0  5 -3.8 0  5 -3.7 0  5 -3.6 0  5 -3.5 0  5 -3.4 0  5 -3.3 0  5 -3.2 0  5 -3.1 0  5 -3 0  5 -2.9 0  5 -2.8 0  5 -2.7 0  5 -2.6 0  5 -2.5 0  5 -2.4 0  5 -2.3 0  5 -2.2 0  5 -2.1 0  5 -2 0  5 -1.9 0  5 -1.8 0  5 -1.7 0  5 -1.6 0  5 -1.5 0  5 -1.4 0  5 -1.3 0  5 -1.2 0  5 -1.1 0  5 -1 0  5 -0.9000000000000004 0  5 -0.7999999999999998 0  5 -0.7000000000000002 0  5 -0.5999999999999996 0  5 -0.5 0  5 -0.4000000000000004 0  5 -0.2999999999999998 0  5 -0.2000000000000002 0  5 -0.09999999999999964 0  5 0 0  5 0.09999999999999964 0  5 0.2000000000000002 0  5 0.2999999999999998 0  5 0.4000000000000004 0  5 0.5 0  5 0.5999999999999996 0  5 0.7000000000000002 0  5 0.7999999999999998 0  5 0.9000000000000004 0  5 1 0  5 1.1 0  5 1.2 0  5 1.3 0  5 1.4 0  5 1.5 0  5 1.6 0  5 1.7 0  5 1.8 0  5 1.9 0  5 2 0  5 2.1 0  5 2.2 0  5 2.3 0  5 2.4 0  5 2.5 0  5 2.6 0  5 2.7 0  5 2.8 0  5 2.9 0  5 3 0  5 3.1 0  5 3.199999999999999 0  5 3.300000000000001 0  5 3.4 0  5 3.5 0  5 3.6 0  5 3.699999999999999 0  5 3.800000000000001 0  5 3.9 0  5 4 0  5 4.1 0  5 4.199999999999999 0  5 4.300000000000001 0  5 4.4 0  5 4.5 0  5 4.6 0  5 4.699999999999999 0  5 4.800000000000001 0  5 4.9 0  4.9 5 0  4.8 5 0  4.7 5 0  4.6 5 0  4.5 5 0  4.4 5 0  4.3 5 0  4.2 5 0  4.1 5 0  4 5 0  3.9 5 0  3.8 5 0  3.7 5 0  3.6 5 0  3.5 5 0  3.4 5 0  3.3 5 0  3.2 5 0  3.1 5 0  3 5 0  2.9 5 0  2.8 5 0  2.7 5 0  2.6 5 0  2.5 5 0  2.4 5 0  2.3 5 0  2.2 5 0  2.1 5 0  2 5 0  1.9 5 0  1.8 5 0  1.7 5 0  1.6 5 0  1.5 5 0  1.4 5 0  1.3 5 0  1.2 5 0  1.1 5 0  1 5 0  0.9000000000000004 5 0  0.7999999999999998 5 0  0.7000000000000002 5 0  0.5999999999999996 5 0  0.5 5 0  0.4000000000000004 5 0  0.2999999999999998 5 0  0.2000000000000002 5 0  0.09999999999999964 5 0  0 5 0  -0.09999999999999964 5 0  -0.2000000000000002 5 0  -0.2999999999999998 5 0  -0.4000000000000004 5 0  -0.5 5 0  -0.5999999999999996 5 0  -0.7000000000000002 5 0  -0.7999999999999998 5 0  -0.9000000000000004 5 0  -1 5 0  -1.1 5 0  -1.2 5 0  -1.3 5 0  -1.4 5 0  -1.5 5 0  -1.6 5 0  -1.7 5 0  -1.8 5 0  -1.9 5 0  -2 5 0  -2.1 5 0  -2.2 5 0  -2.3 5 0  -2.4 5 0  -2.5 5 0  -2.6 5 0  -2.7 5 0  -2.8 5 0  -2.9 5 0  -3 5 0  -3.1 5 0  -3.199999999999999 5 0  -3.300000000000001 5 0  -3.4 5 0  -3.5 5 0  -3.6 5 0  -3.699999999999999 5 0  -3.800000000000001 5 0  -3.9 5 0  -4 5 0  -4.1 5 0  -4.199999999999999 5 0  -4.300000000000001 5 0  -4.4 5 0  -4.5 5 0  -4.6 5 0  -4.699999999999999 5 0  -4.800000000000001 5 0  -4.9 5 0  -5 4.9 0  -5 4.8 0  -5 4.7 0  -5 4.6 0  -5 4.5 0  -5 4.4 0  -5 4.3 0  -5 4.2 0  -5 4.1 0  -5 4 0  -5 3.9 0  -5 3.8 0  -5 3.7 0  -5 3.6 0  -5 3.5 0  -5 3.4 0  -5 3.3 0  -5 3.2 0  -5 3.1 0  -5 3 0  -5 2.9 0  -5 2.8 0  -5 2.7 0  -5 2.6 0  -5 2.5 0  -5 2.4 0  -5 2.3 0  -5 2.2 0  -5 2.1 0  -5 2 0  -5 1.9 0  -5 1.8 0  -5 1.7 0  -5 1.6 0  -5 1.5 0  -5 1.4 0  -5 1.3 0  -5 1.2 0  -5 1.1 0  -5 1 0  -5 0.9000000000000004 0  -5 0.7999999999999998 0  -5 0.7000000000000002 0  -5 0.5999999999999996 0  -5 0.5 0  -5 0.4000000000000004 0  -5 0.2999999999999998 0  -5 0.2000000000000002 0  -5 0.09999999999999964 0  -5 0 0  -5 -0.09999999999999964 0  -5 -0.2000000000000002 0  -5 -0.2999999999999998 0  -5 -0.4000000000000004 0  -5 -0.5 0  -5 -0.5999999999999996 0  -5 -0.7000000000000002 0  -5 -0.7999999999999998 0  -5 -0.9000000000000004 0  -5 -1 0  -5 -1.1 0  -5 -1.2 0  -5 -1.3 0  -5 -1.4 0  -5 -1.5 0  -5 -1.6 0  -5 -1.7 0  -5 -1.8 0  -5 -1.9 0  -5 -2 0  -5 -2.1 0  -5 -2.2 0  -5 -2.3 0  -5 -2.4 0  -5 -2.5 0  -5 -2.6 0  -5 -2.7 0  -5 -2.8 0  -5 -2.9 0  -5 -3 0  -5 -3.1 0  -5 -3.199999999999999 0  -5 -3.300000000000001 0  -5 -3.4 0  -5 -3.5 0  -5 -3.6 0  -5 -3.699999999999999 0  -5 -3.800000000000001 0  -5 -3.9 0  -5 -4 0  -5 -4.1 0  -5 -4.199999999999999 0  -5 -4.300000000000001 0  -5 -4.4 0  -5 -4.5 0  -5 -4.6 0  -5 -4.699999999999999 0  -5 -4.800000000000001 0  -5 -4.9 0  1.191252969315409 0.09913703392926262 0  1.172559132749819 0.1973392874042279 0  1.141273666711512 0.2946060307848732 0  1.100784473592248 0.3861551920825379 0  1.048142930649958 0.4768378742926173 0  0.9861341453426818 0.5619588067565436 0  0.9132347889667148 0.6417275475225844 0  0.831059445711171 0.7145464375272255 0  0.7418479106534576 0.7802385830865444 0  0.6445012209334512 0.8387658671129684 0  0.5400500698368852 0.8895878538908399 0  0.431405721828501 0.9314863499808747 0  0.3204074712549516 0.9642986785409284 0  0.2038900322578934 0.9866994166763474 0  0.08843655738045574 1.001270625436163 0  -0.02770000193039553 1.004040538623792 0  -0.1440086319421875 0.9943309474419549 0  -0.2616029311229622 0.9766627431485334 0  -0.375924955466006 0.950472026300591 0  -0.4851540212818369 0.9139496808889762 0  -0.5896374183510236 0.8683781119272611 0  -0.6890372934444672 0.8136538177075412 0  -0.7813224360820317 0.7507474154646577 0  -0.867076925541432 0.6802353483644391 0  -0.9454946293265134 0.6021530381277528 0  -1.013571990746874 0.5197184711537767 0  -1.072162587685438 0.4327743195021722 0  -1.119466737692335 0.3406472733848226 0  -1.154935900399427 0.2465495419251126 0  -1.178785081600327 0.1499488318880328 0  -1.190874912585881 0.05078742111898203 0  -1.19087107532758 -0.04904139672548943 0  -1.17872400182527 -0.1478745288587526 0  -1.155775493408097 -0.2444746853906975 0  -1.118955524008984 -0.3402803058038994 0  -1.072524718370831 -0.4315612856298185 0  -1.014558270998448 -0.5188061554756463 0  -0.9470020810055764 -0.6007972809985819 0  -0.8688951547080966 -0.6777154228996964 0  -0.7827329709788835 -0.7472411134303717 0  -0.6891605446151168 -0.8085342678193314 0  -0.5898449479360817 -0.8628720675496366 0  -0.4824368246221503 -0.9096662174739779 0  -0.3726706428048833 -0.9476917802899848 0  -0.2587700786392184 -0.9753086011852162 0  -0.1426124471635725 -0.9934146815688034 0  -0.02728902861106011 -1.003169506234097 0  0.08905037328245807 -0.9987838804084161 0  0.2067498933529305 -0.9844272367257273 0  0.32200936961026 -0.9626322636636293 0  0.4347724424909838 -0.9300644354057185 0  0.5417070138318768 -0.8886265891780034 0  0.6452222080001325 -0.8383560451051388 0  0.7420205558309717 -0.7812085446317197 0  0.8311259053781553 -0.7152552697847362 0  0.9127369057066151 -0.6411682155373457 0  0.9847138278645143 -0.5612970232569451 0  1.048002495580657 -0.4762778052630646 0  1.101819487799095 -0.3862255469706914 0  1.142690012417752 -0.2931684024243928 0  1.172814765152311 -0.1965109920688516 0  1.19127382210305 -0.09867344974834276 0  -2.448790475850735 4.918534846152168 0  -2.448685124770027 -4.910951388939243 0  4.910886135789021 2.448220814927444 0  4.918969534431005 -2.449652758148995 0  2.446455640090591 -4.896262693383404 0  2.440879644380352 4.900007825986787 0  -4.910909526354196 -2.448243722910365 0  -4.91090781205763 2.44824755942664 0  -1.748752947738688 4.911609863132475 0  -1.74452940830763 -4.915027256675564 0  4.921185784859416 1.7443649888435 0  4.909797911883309 -1.748169201714863 0  -4.910084905187492 -1.747898561736375 0  -4.910902569021959 1.747639939353654 0  1.74604057008906 4.905510648017354 0  1.747483982276322 -4.8937335502982 0  -1.14901586140542 4.909520617361372 0  -1.129854747967554 -4.917376102854825 0  -4.90996304509791 -1.148168358653799 0  -4.909783849951828 1.147968466943654 0  1.14399931287457 -4.913590095059209 0  1.149023720406264 4.909509381612979 0  4.910109343471451 1.146445705391617 0  4.920846387789684 -1.152199614552874 0  -0.5467598541966812 -4.910772730173046 0  -0.5465336530882769 4.919387185247778 0  -4.908824869065976 -0.5488422970367743 0  -4.90884927989462 0.5473985504914707 0  4.908159106491932 -0.5491632467449958 0  4.919702822178476 0.5459023484499623 0  0.5425510619691756 -4.897761032712449 0  0.5512639213874759 4.916236825625871 0  -4.912188019139447 -3.048545821728126 0  4.918739260128781 3.046545713606819 0  4.91169910006005 -3.048525565445582 0  -4.913034329579909 3.045635354423168 0  3.055491519339256 -4.917676778270143 0  -3.048836678028387 -4.911632686271084 0  3.05239953584172 4.913705190577445 0  -3.048280983909591 4.912520051597297 0  -4.907981353688202 -0.04992104967812306 0  0.04512551950566249 -4.912728924179338 0  0.04957381815202459 4.91969827292943 0  4.91497356564636 -0.05130229817638356 0  3.545770194274368 -4.9192322882685 0  -3.54906383003043 4.912148
[...]
<PointData  Vectors="f_2282"> 
<DataArray  type="Float64"  Name="f_2282"  NumberOfComponents="3" format="ascii">-1.2740318362585233e-40 -1.4135708229235434e-40 0.0000000000000000e+00  1.5398709258806677e-40 -1.6524136094898154e-40 0.0000000000000000e+00  -2.1076444896001290e-40 -2.0699673530194892e-40 0.0000000000000000e+00  -2.4889114115071111e-40 2.5345395350447210e-40 0.0000000000000000e+00  1.5672601478364104e+01 -2.3095181067252565e-01 0.0000000000000000e+00  2.9568158591774016e-40 3.1517869247665553e-40 0.0000000000000000e+00  7.3468164201896811e-40 7.6437718088749956e-40 0.0000000000000000e+00  -1.6597086013188471e-39 -1.8714720984034477e-39 0.0000000000000000e+00  1.6037889988865313e-38 1.8226337064378089e-38 0.0000000000000000e+00  -5.2053329766210938e-38 -5.8575012791275243e-38 0.0000000000000000e+00  1.9346654315085671e-37 2.3000263790098049e-37 0.0000000000000000e+00  -6.9392940627466526e-37 -8.5842148800826703e-37 0.0000000000000000e+00  4.1318461566919675e-36 5.2153179279052364e-36 0.0000000000000000e+00  -2.5784287829190141e-35 -3.2348199552053199e-35 0.0000000000000000e+00  1.0515746742539012e-34 1.3447618160533886e-34 0.0000000000000000e+00  -2.2928161235922147e-34 -2.9471898384212963e-34 0.0000000000000000e+00  4.6119722361197045e-34 5.8793288806168280e-34 0.0000000000000000e+00  1.6716026955069749e-33 2.1791698411184129e-33 0.0000000000000000e+00  -7.3405754008664297e-33 -1.0077307969987063e-32 0.0000000000000000e+00  2.0589533019232194e-32 3.0051707919367862e-32 0.0000000000000000e+00  -1.1870820496722713e-31 -1.7360642453802536e-31 0.0000000000000000e+00  3.1347009479050646e-31 4.6125440924009068e-31 0.0000000000000000e+00  1.9093281575278291e-31 2.8432340132119935e-31 0.0000000000000000e+00  -1.5705542085058725e-30 -2.3542674776447171e-30 0.0000000000000000e+00  -6.7968575188972402e-31 -1.1990106527911566e-30 0.0000000000000000e+00  -1.6073437960687466e-30 -2.8929842890918987e-30 0.0000000000000000e+00  4.5024727956079244e-30 8.2234489521837678e-30 0.0000000000000000e+00  -1.0295194157832933e-29 -2.3616781692617645e-29 0.0000000000000000e+00  3.6587935494882850e-29 7.6378277383783243e-29 0.0000000000000000e+00  2.1104339105149818e-29 4.7226452923397637e-29 0.0000000000000000e+00  -1.8280590289089760e-28 -3.9366505110733158e-28 0.0000000000000000e+00  -6.5267033911219607e-29 -1.5438462605127400e-28 0.0000000000000000e+00  -1.1049350559972577e-28 -3.0211161022646135e-28 0.0000000000000000e+00  1.8384660547320607e-28 4.6161537073081589e-28 0.0000000000000000e+00  5.3433572035544555e-28 1.4597238199959318e-27 0.0000000000000000e+00  -2.3691829531353902e-29 -1.0083125921717748e-28 0.0000000000000000e+00  1.5038178500620354e-28 4.1372034344275666e-28 0.0000000000000000e+00  -8.7862249448712358e-29 -2.6604229711509364e-28 0.0000000000000000e+00  -4.8076850441547828e-28 -1.4609784783711798e-27 0.0000000000000000e+00  -4.4291480655120883e-28 -1.4421785366596135e-27 0.0000000000000000e+00  -1.3758490541022668e-29 -1.3367666060152072e-28 0.0000000000000000e+00  4.6189221182605403e-28 1.7133913199720918e-27 0.0000000000000000e+00  2.7126910416451669e-28 1.0283577072210534e-27 0.0000000000000000e+00  -1.6391088629407589e-29 -1.7203662208929434e-28 0.0000000000000000e+00  1.0931031100072522e-28 4.1840817775282520e-28 0.0000000000000000e+00  4.1929667692984565e-29 1.0482547174894237e-27 0.0000000000000000e+00  1.6292981987559177e-28 1.7650220438123800e-27 0.0000000000000000e+00  -4.9446110741508622e-29 -1.0384197985543465e-27 0.0000000000000000e+00  4.8002949996797758e-28 5.6402282170498620e-27 0.0000000000000000e+00  -1.1634495307141651e-28 -1.3061965297447412e-29 0.0000000000000000e+00  -4.8671802089360243e-28 -4.8282149155431532e-27 0.0000000000000000e+00  -3.1882179408942394e-28 -2.7753910418463910e-27 0.0000000000000000e+00  -2.5631540802941329e-28 -3.9893512563422358e-27 0.0000000000000000e+00  -1.6850714641675337e-28 -1.0133202838282410e-26 0.0000000000000000e+00  -5.0994712903923378e-30 -1.1615037458253474e-26 0.0000000000000000e+00  -7.0821121954063408e-30 -1.9992169445618836e-27 0.0000000000000000e+00  9.4063372843238375e-29 -6.2712878696966143e-27 0.0000000000000000e+00  1.0587902725674040e-28 -2.2174046085072950e-27 0.0000000000000000e+00  2.7885282035255086e-28 -4.0328414420404034e-27 0.0000000000000000e+00  -1.6854675125703551e-28 1.8986446746869894e-27 0.0000000000000000e+00  5.8754436194931343e-28 -5.3850343843496576e-27 0.0000000000000000e+00  6.9963714700402230e-28 -4.8947104946565405e-27 0.0000000000000000e+00  -1.0452685456867826e-28 1.0466109996085730e-27 0.0000000000000000e+00  -1.1735318056980198e-27 7.3786607072744436e-27 0.0000000000000000e+00  -5.4486013956681694e-28 2.9336011089215604e-27 0.0000000000000000e+00  -3.6777721330493527e-28 1.6706441947585923e-27 0.0000000000000000e+00  -9.3169198792068485e-28 4.2289237954258086e-27 0.0000000000000000e+00  -5.4804548532779108e-28 2.2374899788268157e-27 0.0000000000000000e+00  6.1085599344356868e-28 -2.5502789014304982e-27 0.0000000000000000e+00  3.4501527097151208e-28 -1.1983861947976282e-27 0.0000000000000000e+00  7.3165430102717715e-29 -2.2367929285028328e-28 0.0000000000000000e+00  3.1690049846123215e-28 -9.0161615789559166e-28 0.0000000000000000e+00  2.4354200664454410e-28 -7.0623804480153523e-28 0.0000000000000000e+00  -2.0952487635043541e-28 6.0081457923014290e-28 0.0000000000000000e+00  -1.4445235986343447e-28 3.9228489738402492e-28 0.0000000000000000e+00  -1.1045424676591504e-28 2.8402108245506585e-28 0.0000000000000000e+00  1.8472430462319044e-29 -5.4295190729173418e-29 0.0000000000000000e+00  7.7632555270843269e-29 -1.8596711721046541e-28 0.0000000000000000e+00  1.1188596884386061e-28 -2.5023430185603298e-28 0.0000000000000000e+00  -6.5936718000816485e-30 1.3789603320382232e-29 0.0000000000000000e+00  -8.1791587159649509e-29 1.6837621106141128e-28 0.0000000000000000e+00  1.3340067187546799e-29 -2.7409491609193271e-29 0.0000000000000000e+00  4.5518711450570695e-30 -8.6601354107881156e-30 0.0000000000000000e+00  -1.2850924982709842e-29 2.2981967487989030e-29 0.0000000000000000e+00  -1.0986797413562041e-30 1.5872864205060809e-30 0.0000000000000000e+00  1.5064137576329933e-30 -2.4334737213521065e-30 0.0000000000000000e+00  -7.6297052676422618e-31 1.2051361609435764e-30 0.0000000000000000e+00  9.9826816464200068e-32 -1.5820161969116130e-31 0.0000000000000000e+00  -1.1493078949757999e-32 1.7698975007300228e-32 0.0000000000000000e+00  -1.1588034547924939e-33 1.5798136995033985e-33 0.0000000000000000e+00  6.4387965293648148e-33 -8.6852396970613238e-33 0.0000000000000000e+00  2.3297847550132555e-34 -2.5135131100973114e-34 0.0000000000000000e+00  -3.6983682446734657e-34 4.6981542975231385e-34 0.0000000000000000e+00  3.9318343796578030e-35 -4.8578447736557117e-35 0.0000000000000000e+00  -1.4597665928614835e-35 1.8587480904681945e-35 0.0000000000000000e+00  3.8245102767584270e-36 -4.6392877452030599e-36 0.0000000000000000e+00  -1.5386678587198560e-36 1.7439889078366681e-36 0.0000000000000000e+00  4.8067747594647531e-37 -5.4938860079233768e-37 0.0000000000000000e+00  -2.3910886808775973e-37 2.6404564035027143e-37 0.0000000000000000e+00  8.0038051166943178e-38 -8.6641987389400588e-38 0.0000000000000000e+00  -1.5729417016171472e-38 1.7034871078711281e-38 0.0000000000000000e+00  6.3110856386414001e-39 -6.6304812392111446e-39 0.0000000000000000e+00  -4.2493803011323977e-40 4.2394613527255788e-40 0.0000000000000000e+00  -2.6709389210321495e-40 2.8693635879338559e-40 0.0000000000000000e+00  -4.1984879894478265e-42 3.9124829159543348e-42 0.0000000000000000e+00  3.7897043649635554e-40 -3.4335480727045152e-40 0.0000000000000000e+00  -8.6445365967641264e-40 7.6490148472577028e-40 0.0000000000000000e+00  3.0549943684321492e-39 -2.7935616134230773e-39 0.0000000000000000e+00  -1.5957939763802711e-39 1.6613978166265783e-39 0.0000000000000000e+00  -1.4876360758138849e-38 1.2377101496972191e-38 0.0000000000000000e+00  5.5695589838442832e-38 -4.7218197059790173e-38 0.0000000000000000e+00  -7.2003646248303050e-38 6.2609382300594379e-38 0.0000000000000000e+00  -1.4389208526980545e-37 1.0920009094337654e-37 0.0000000000000000e+00  8.7023887958877299e-37 -6.8649968573531588e-37 0.0000000000000000e+00  -1.4715241864019244e-36 1.1753882785117778e-36 0.0000000000000000e+00  -1.4000282301563430e-36 9.6342574143745415e-37 0.0000000000000000e+00  1.2086919631994636e-35 -8.9147040643012598e-36 0.0000000000000000e+00  -2.2839496862783839e-35 1.6867276870242832e-35 0.0000000000000000e+00  -1.8032558890670068e-35 1.1785924733797954e-35 0.0000000000000000e+00  1.7498515643461874e-34 -1.2038597240451914e-34 0.0000000000000000e+00  -2.7510643032860381e-34 1.8947874570675816e-34 0.0000000000000000e+00  -3.9045429337594511e-34 2.4880062451433579e-34 0.0000000000000000e+00  2.3601898985458819e-33 -1.5085142964208211e-33 0.0000000000000000e+00  -2.2785618528567633e-33 1.4514926803387103e-33 0.0000000000000000e+00  -8.6463460199092619e-33 5.1831635095045638e-33 0.0000000000000000e+00  2.6892717741610353e-32 -1.5909515250890897e-32 0.0000000000000000e+00  3.0884179514762730e-33 -1.4777432360265830e-33 0.0000000000000000e+00  -1.4729440449430733e-31 8.1246903138009687e-32 0.0000000000000000e+00  1.9175048381712861e-31 -1.0229381345867158e-31 0.0000000000000000e+00  4.9697188824688894e-31 -2.5630605899641758e-31 0.0000000000000000e+00  -1.4556387453834595e-30 7.2219091426825797e-31 0.0000000000000000e+00  -8.7492603026132977e-31 4.3254881159787936e-31 0.0000000000000000e+00  7.8262876521217166e-30 -3.6049662396672928e-30 0.0000000000000000e+00  -2.2143762429939555e-30 8.4893425891039116e-31 0.0000000000000000e+00  -3.4735996223283752e-29 1.4807727109025509e-29 0.0000000000000000e+00  2.8457486462627795e-29 -1.0540408711956212e-29 0.0000000000000000e+00  1.4213021956207463e-28 -5.6153622058992532e-29 0.0000000000000000e+00  -1.6052044721309217e-28 5.2956931763165573e-29 0.0000000000000000e+00  -5.9431259901466509e-28 2.1440307874595500e-28 0.0000000000000000e+00  6.3119802863258784e-28 -1.7623999911325102e-28 0.0000000000000000e+00  2.4809701625477857e-27 -7.9866668283742878e-28 0.0000000000000000e+00  -1.8999429148002762e-27 3.7501338860562552e-28 0.0000000000000000e+00  -9.5802866596317915e-27 2.5107059115999721e-27 0.0000000000000000e+00  2.6066223287901066e-27 1.2109645393355747e-28 0.0000000000000000e+00  3.0193463569027789e-26 -6.0023189494978672e-27 0.0000000000000000e+00  1.4695667200916366e-26 -4.1614407740809316e-27 0.0000000000000000e+00  -8.5121506237890056e-26 1.2036890892816833e-26 0.0000000000000000e+00  -1.2902693317176838e-25 1.7685295741887768e-26 0.0000000000000000e+00  1.4262674586419238e-25 -2.2442784206346810e-26 0.0000000000000000e+00  8.3230001338438121e-25 -1.0342657183729397e-25 0.0000000000000000e+00  1.5128038440575889e-24 -1.5721522709243043e-25 0.0000000000000000e+00  1.8361744196158242e-24 -1.4658228284271749e-25 0.0000000000000000e+00  1.7866344026517324e-24 -7.7848401022257810e-26 0.0000000000000000e+00  1.7981881947941014e-24 7.8630141364193237e-27 0.0000000000000000e+00  1.9185304468548133e-24 8.8946183006230253e-26 0.0000000000000000e+00  1.7778971842271698e-24 1.3149613103395569e-25 0.0000000000000000e+00  1.1698572617560035e-24 1.0896082666220172e-25 0.0000000000000000e+00  3.5654723852188542e-25 3.7518305693018611e-26 0.0000000000000000e+00  -1.4469116427121299e-25 -2.0672995109368107e-26 0.0000000000000000e+00  -1.9932549382751403e-25 -2.8766022879634427e-26 0.0000000000000000e+00  -3.5403630463515026e-26 -3.1381136708367901e-27 0.0000000000000000e+00  5.6959785859522935e-26 1.2892129267158933e-26 0.0000000000000000e+00  3.4893432677297129e-26 7.7562275809000229e-27 0.0000000000000000e+00  -4.7206163354834473e-27 -1.3646774452122734e-27 0.0000000000000000e+00  -1.0020940286489270e-26 -2.6417507701878902e-27 0.0000000000000000e+00  -5.8273508162102087e-28 -1.1064653830886678e-28 0.0000000000000000e+00  2.5383573098715784e-27 7.6969059746802827e-28 0.0000000000000000e+00  3.2715878294352502e-28 9.4316574479362918e-29 0.0000000000000000e+00  -6.0858735448886534e-28 -2.0613426941168513e-28 0.0000000000000000e+00  -7.3428585160697859e-29 -2.3895553054105974e-29 0.0000000000000000e+00  1.4144901407765402e-28 5.3089966411155452e-29 0.0000000000000000e+00  4.0946338527668894e-30 1.0708661102350854e-30 0.0000000000000000e+00  -3.1389450185221386e-29 -1.2882216624851748e-29 0.0000000000000000e+00  3.0514955507511489e-30 1.4564058803861496e-30 0.0000000000000000e+00  5.9041860718278012e-30 2.6427303750685893e-30 0.0000000000000000e+00  -1.7904238445109275e-30 -8.6563775237818407e-31 0.0000000000000000e+00  -8.5750872374784596e-31 -4.0936530927296948e-31 0.0000000000000000e+00  5.6385979376366062e-31 2.9099203462046585e-31 0.0000000000000000e+00  2.8076981390467583e-32 1.2154231394415991e-32 0.0000000000000000e+00  -1.2209731991818353e-31 -6.6840157328808004e-32 0.0000000000000000e+00  2.7591748037968684e-32 1.6134425480142807e-32 0.0000000000000000e+00  1.7333292667312144e-32 9.9793624031275552e-33 0.0000000000000000e+00  -1.1073599825718528e-32 -6.7246929681057754e-33 0.0000000000000000e+00  1.6325379278033459e-34 1.2870253242438920e-34 0.0000000000000000e+00  1.9768088423477795e-33 1.2742600622774904e-33 0.0000000000000000e+00  -7.4603286247068940e-34 -4.9522364756901213e-34 0.0000000000000000e+00  -1.0373336867525299e-34 -7.1238126132234568e-35 0.0000000000000000e+00  1.7819424679510650e-34 1.2475667981416360e-34 0.0000000000000000e+00  -5.0218684237965459e-35 -3.5880930358495526e-35 0.0000000000000000e+00  -1.1394587686771962e-35 -8.5828926335585352e-36 0.0000000000000000e+00  1.3046817292552164e-35 9.8673611724012834e-36 0.0000000000000000e+00  -3.4333876142926179e-36 -2.6073657047216836e-36 0.0000000000000000e+00  -7.7221163484399193e-37 -6.3785020949561302e-37 0.0000000000000000e+00  9.0324160788819166e-37 7.3357514201600144e-37 0.0000000000000000e+00  -2.6605000631411471e-37 -2.1577335097098292e-37 0.0000000000000000e+00  -2.8830990934880042e-38 -2.7200348456661266e-38 0.0000000000000000e+00  5.5637562554060908e-38 4.8682488603179063e-38 0.0000000000000000e+00  -2.1671849752543514e-38 -1.8845277092768022e-38 0.0000000000000000e+00  1.0634443993453673e-39 6.9050807074487751e-40 0.0000000000000000e+00  2.8791438062836170e-39 2.7276380791094701e-39 0.0000000000000000e+00  -1.5536693660195315e-39 -1.4483278747312457e-39 0.0000000000000000e+00  3.4944525967785112e-40 3.1849265160089268e-40 0.0000000000000000e+00  1.4665168052050157e-40 1.5525005280179907e-40 0.0000000000000000e+00  3.2260135992030123e-40 3.2385584698229751e-40 0.0000000000000000e+00  -8.7368747252442216e-40 -9.4754195201984616e-40 0.0000000000000000e+00  1.7513008622050711e-39 1.9401837646340879e-39 0.0000000000000000e+00  -1.1808629235805690e-38 -1.3183253902727119e-38 0.0000000000000000e+00  8.9150418797347577e-38 9.5215325741333886e-38 0.0000000000000000e+00  -2.2071135129575332e-37 -2.2883255624352708e-37 0.0000000000000000e+00  2.6776609100130857e-37 2.8878115100101262e-37 0.0000000000000000e+00  -3.7670355666105908e-36 -4.4064634813737020e-36 0.0000000000000000e+00  1.1079043166882572e-35 1.3968378858814097e-35 0.0000000000000000e+00  -4.5618343578076457e-35 -6.0623418463087609e-35 0.0000000000000000e+00  1.0100218984359679e-34 1.3601345285684362e-34 0.0000000000000000e+00  -1.8338197399995984e-34 -2.7071245665799562e-34 0.0000000000000000e+00  1.0558229468741193e-33 1.4609082428985544e-33 0.0000000000000000e+00  -6.0057754780128850e-34 -8.1624055592939399e-34 0.0000000000000000e+00  3.7951311563651434e-33 5.5213875465169532e-33 0.0000000000000000e+00  3.7549912939295386e-32 5.4538938289819171e-32 0.0000000000000000e+00  -1.6841456168343596e-31 -2.4598984605653077e-31 0.0000000000000000e+00  -5.1119755297993646e-31 -7.7896936972733015e-31 0.0000000000000000e+00  1.0508043470840414e-30 1.6089414209169917e-30 0.0000000000000000e+00  -2.9653491620297011e-31 -4.1876550747420519e-31 0.0000000000000000e+00  -2.9698011729194476e-30 -5.3748466848190621e-30 0.0000000000000000e+00  8.9020243751801533e-30 1.7485068357158869e-29 0.0000000000000000e+00  1.2893401151189127e-29 2.6293563556980835e-29 0.0000000000000000e+00  -8.2000077977604926e-29 -1.6986257887260586e-28 0.0000000000000000e+00  2.6285615099264703e-29 5.2782701200807840e-29 0.0000000000000000e+00  9.2830471023425764e-29 1.9072474559867011e-28 0.0000000000000000e+00  2.7935259662426025e-29 7.2725344089629096e-29 0.0000000000000000e+00  2.4852133405597076e-28 6.3880066572908456e-28 0.0000000000000000e+00  1.0924018285247454e-28 2.9682326167303805e-28 0.0000000000000000e+00  -2.7333448479049805e-28 -7.2846261286891750e-28 0.0000000000000000e+00  -3.8070315596911391e-28 -1.0961531953924825e-27 0.0000000000000000e+00  3.1989272349030130e-28 9.4671896867006072e-28 0.0000000000000000e+00  5.5730043984620372e-28 1.7609409152158416e-27 0.0000000000000000e+00  3.4013897388356297e-28 1.1759667007391784e-27 0.0000000000000000e+00  1.5787648909874469e-28 5.7119005211558542e-28 0.0000000000000000e+00  -6.3766515301176251e-28 -2.4106267748947564e-27 0.0000000000000000e+00  -1.8012019265030948e-28 -7.2998438014424936e-28 0.0000000000000000e+00  -5.7292284666031214e-29 -2.7227373203533179e-28 0.0000000000000000e+00  -3.0444440372170014e-28 -1.4801417105748365e-27 0.0000000000000000e+00  -2.5898280851177087e-28 -1.3786724199338326e-27 0.0000000000000000e+00  -3.3441943513517356e-28 -2.0556378318206591e-27 0.0000000000000000e+00  -1.0316317964386637e-28 -7.0671772256454375e-28 0.0000000000000000e+00  1.7471647914750115e-28 1.3961707229885599e-27 0.0000000000000000e+00  -2.9288231367750351e-29 -1.7280929649182716e-28 0.0000000000000000e+00  -1.6732012271710509e-28 -2.1538994767609130e-27 0.0000000000000000e+00  2.5492801120022865e-29 6.9683248019621943e-28 0.0000000000000000e+00  1.6830037001340608e-30 5.6191613044593311e-28 0.0000000000000000e+00  -1.8084381313254112e-29 -1.4028722346841412e-27 0.0000000000000000e+00  -1.0558149487351634e-30 -4.7346337508270809e-28 0.0000000000000000e+00  6.7710075207506289e-29 -1.5355592062243677e-27 0.0000000000000000e+00  -1.0661129854544857e-28 1.7095574462062346e-27 0.0000000000000000e+00  -1.3506264199669132e-28 1.5893293261873066e-27 0.0000000000000000e+00  1.7371788050971974e-28 -1.6382968018703079e-27 0.0000000000000000e+00  6.2035068014152007e-29 -3.6324596948554420e-28 0.0000000000000000e+00  2.7291586717662701e-28 -2.1500921091366009e-27 0.0000000000000000e+00  -1.0599139827484982e-28 1.2173617129123814e-27 0.0000000000000000e+00  -4.3555324808408423e-29 4.2126344393464003e-28 0.0000000000000000e+00  2.0324932296042402e-28 -9.1508243739388875e-28 0.0000000000000000e+00  9.3360805923853767e-29 -4.3029630284640925e-28 0.0000000000000000e+00  5.0706290549685983e-28 -2.5871597085060315e-27 0.0000000000000000e+00  7.1381453527745631e-28 -3.3384951729106044e-27 0.0000000000000000e+00  1.0184816574949421e-27 -4.4457673265248867e-27 0.0000000000000000e+00  3.0163539084185797e-28 -1.1885892079353799e-27 0.0000000000000000e+00  -3.4174062553453136e-28 1.3256293179679289e-27 0.0000000000000000e+00  -6.7084674818732500e-28 2.4092437937935566e-27 0.0000000000000000e+00  -7.7222086005869837e-28 2.6019918991402143e-27 0.0000000000000000e+00  -1.9588067622951165e-28 6.1738451518068923e-28 0.0000000000000000e+00  1.5741410747151887e-28 -4.8509792511389385e-28 0.0000000000000000e+00  1.4633506769855085e-28 -4.5598521093784409e-28 0.0000000000000000e+00  6.0742952795274218e-28 -1.7020534971479202e-27 0.0000000000000000e+00  2.5820963961987662e-28 -6.7398869150776358e-28 0.0000000000000000e+00  -2.1528018414075906e-28 5.5632991768816274e-28 0.0000000000000000e+00  -1.0860443781172198e-29 1.7249286430105100e-29 0.0000000000000000e+00  2.6147879949247188e-29 -6.0841939247946644e-29 0.0000000000000000e+00  6.1304399448097726e-29 -1.3488905876778263e-28 0.0000000000000000e+00  -1.3159908972357123e-29 2.8029098560127188e-29 0.0000000000000000e+00  -1.9374808480401799e-29 3.9010244471530810e-29 0.0000000000000000e+00  1.547