<?xml version="1.0"?>
<VTKFile type="UnstructuredGrid"  version="0.1"  >
<UnstructuredGrid>
<Piece  NumberOfPoints="11902" NumberOfCells="23402">
<Points>
<DataArray  type="Float64"  NumberOfComponents="3"  format="ascii">-5 -5 0  5 -5 0  5 5 0  -5 5 0  1.104125086599823 0.0006959047258341711 0  -4.9 -5 0  -4.8 -5 0  -4.7 -5 0  -4.6 -5 0  -4.5 -5 0  -4.4 -5 0  -4.3 -5 0  -4.2 -5 0  -4.1 -5 0  -4 -5 0  -3.9 -5 0  -3.8 -5 0  -3.7 -5 0  -3.6 -5 0  -3.5 -5 0  -3.4 -5 0  -3.3 -5 0  -3.2 -5 0  -3.1 -5 0  -3 -5 0  -2.9 -5 0  -2.8 -5 0  -2.7 -5 0  -2.6 -5 0  -2.5 -5 0  -2.4 -5 0  -2.3 -5 0  -2.2 -5 0  -2.1 -5 0  -2 -5 0  -1.9 -5 0  -1.8 -5 0  -1.7 -5 0  -1.6 -5 0  -1.5 -5 0  -1.4 -5 0  -1.3 -5 0  -1.2 -5 0  -1.1 -5 0  -1 -5 0  -0.9000000000000004 -5 0  -0.7999999999999998 -5 0  -0.7000000000000002 -5 0  -0.5999999999999996 -5 0  -0.5 -5 0  -0.4000000000000004 -5 0  -0.2999999999999998 -5 0  -0.2000000000000002 -5 0  -0.09999999999999964 -5 0  0 -5 0  0.09999999999999964 -5 0  0.2000000000000002 -5 0  0.2999999999999998 -5 0  0.4000000000000004 -5 0  0.5 -5 0  0.5999999999999996 -5 0  0.7000000000000002 -5 0  0.7999999999999998 -5 0  0.9000000000000004 -5 0  1 -5 0  1.1 -5 0  1.2 -5 0  1.3 -5 0  1.4 -5 0  1.5 -5 0  1.6 -5 0  1.7 -5 0  1.8 -5 0  1.9 -5 0  2 -5 0  2.1 -5 0  2.2 -5 0  2.3 -5 0  2.4 -5 0  2.5 -5 0  2.6 -5 0  2.7 -5 0  2.8 -5 0  2.9 -5 0  3 -5 0  3.1 -5 0  3.199999999999999 -5 0  3.300000000000001 -5 0  3.4 -5 0  3.5 -5 0  3.6 -5 0  3.699999999999999 -5 0  3.800000000000001 -5 0  3.9 -5 0  4 -5 0  4.1 -5 0  4.199999999999999 -5 0  4.300000000000001 -5 0  4.4 -5 0  4.5 -5 0  4.6 -5 0  4.699999999999999 -5 0  4.800000000000001 -5 0  4.9 -5 0  5 -4.9 0  5 -4.8 0  5 -4.7 0  5 -4.6 0  5 -4.5 0  5 -4.4 0  5 -4.3 0  5 -4.2 0  5 -4.1 0  5 -4 0  5 -3.9 0  5 -3.8 0  5 -3.7 0  5 -3.6 0  5 -3.5 0  5 -3.4 0  5 -3.3 0  5 -3.2 0  5 -3.1 0  5 -3 0  5 -2.9 0  5 -2.8 0  5 -2.7 0  5 -2.6 0  5 -2.5 0  5 -2.4 0  5 -2.3 0  5 -2.2 0  5 -2.1 0  5 -2 0  5 -1.9 0  5 -1.8 0  5 -1.7 0  5 -1.6 0  5 -1.5 0  5 -1.4 0  5 -1.3 0  5 -1.2 0  5 -1.1 0  5 -1 0  5 -0.9000000000000004 0  5 -0.7999999999999998 0  5 -0.7000000000000002 0  5 -0.5999999999999996 0  5 -0.5 0  5 -0.4000000000000004 0  5 -0.2999999999999998 0  5 -0.2000000000000002 0  5 -0.09999999999999964 0  5 0 0  5 0.09999999999999964 0  5 0.2000000000000002 0  5 0.2999999999999998 0  5 0.4000000000000004 0  5 0.5 0  5 0.5999999999999996 0  5 0.7000000000000002 0  5 0.7999999999999998 0  5 0.9000000000000004 0  5 1 0  5 1.1 0  5 1.2 0  5 1.3 0  5 1.4 0  5 1.5 0  5 1.6 0  5 1.7 0  5 1.8 0  5 1.9 0  5 2 0  5 2.1 0  5 2.2 0  5 2.3 0  5 2.4 0  5 2.5 0  5 2.6 0  5 2.7 0  5 2.8 0  5 2.9 0  5 3 0  5 3.1 0  5 3.199999999999999 0  5 3.300000000000001 0  5 3.4 0  5 3.5 0  5 3.6 0  5 3.699999999999999 0  5 3.800000000000001 0  5 3.9 0  5 4 0  5 4.1 0  5 4.199999999999999 0  5 4.300000000000001 0  5 4.4 0  5 4.5 0  5 4.6 0  5 4.699999999999999 0  5 4.800000000000001 0  5 4.9 0  4.9 5 0  4.8 5 0  4.7 5 0  4.6 5 0  4.5 5 0  4.4 5 0  4.3 5 0  4.2 5 0  4.1 5 0  4 5 0  3.9 5 0  3.8 5 0  3.7 5 0  3.6 5 0  3.5 5 0  3.4 5 0  3.3 5 0  3.2 5 0  3.1 5 0  3 5 0  2.9 5 0  2.8 5 0  2.7 5 0  2.6 5 0  2.5 5 0  2.4 5 0  2.3 5 0  2.2 5 0  2.1 5 0  2 5 0  1.9 5 0  1.8 5 0  1.7 5 0  1.6 5 0  1.5 5 0  1.4 5 0  1.3 5 0  1.2 5 0  1.1 5 0  1 5 0  0.9000000000000004 5 0  0.7999999999999998 5 0  0.7000000000000002 5 0  0.5999999999999996 5 0  0.5 5 0  0.4000000000000004 5 0  0.2999999999999998 5 0  0.2000000000000002 5 0  0.09999999999999964 5 0  0 5 0  -0.09999999999999964 5 0  -0.2000000000000002 5 0  -0.2999999999999998 5 0  -0.4000000000000004 5 0  -0.5 5 0  -0.5999999999999996 5 0  -0.7000000000000002 5 0  -0.7999999999999998 5 0  -0.9000000000000004 5 0  -1 5 0  -1.1 5 0  -1.2 5 0  -1.3 5 0  -1.4 5 0  -1.5 5 0  -1.6 5 0  -1.7 5 0  -1.8 5 0  -1.9 5 0  -2 5 0  -2.1 5 0  -2.2 5 0  -2.3 5 0  -2.4 5 0  -2.5 5 0  -2.6 5 0  -2.7 5 0  -2.8 5 0  -2.9 5 0  -3 5 0  -3.1 5 0  -3.199999999999999 5 0  -3.300000000000001 5 0  -3.4 5 0  -3.5 5 0  -3.6 5 0  -3.699999999999999 5 0  -3.800000000000001 5 0  -3.9 5 0  -4 5 0  -4.1 5 0  -4.199999999999999 5 0  -4.300000000000001 5 0  -4.4 5 0  -4.5 5 0  -4.6 5 0  -4.699999999999999 5 0  -4.800000000000001 5 0  -4.9 5 0  -5 4.9 0  -5 4.8 0  -5 4.7 0  -5 4.6 0  -5 4.5 0  -5 4.4 0  -5 4.3 0  -5 4.2 0  -5 4.1 0  -5 4 0  -5 3.9 0  -5 3.8 0  -5 3.7 0  -5 3.6 0  -5 3.5 0  -5 3.4 0  -5 3.3 0  -5 3.2 0  -5 3.1 0  -5 3 0  -5 2.9 0  -5 2.8 0  -5 2.7 0  -5 2.6 0  -5 2.5 0  -5 2.4 0  -5 2.3 0  -5 2.2 0  -5 2.1 0  -5 2 0  -5 1.9 0  -5 1.8 0  -5 1.7 0  -5 1.6 0  -5 1.5 0  -5 1.4 0  -5 1.3 0  -5 1.2 0  -5 1.1 0  -5 1 0  -5 0.9000000000000004 0  -5 0.7999999999999998 0  -5 0.7000000000000002 0  -5 0.5999999999999996 0  -5 0.5 0  -5 0.4000000000000004 0  -5 0.2999999999999998 0  -5 0.2000000000000002 0  -5 0.09999999999999964 0  -5 0 0  -5 -0.09999999999999964 0  -5 -0.2000000000000002 0  -5 -0.2999999999999998 0  -5 -0.4000000000000004 0  -5 -0.5 0  -5 -0.5999999999999996 0  -5 -0.7000000000000002 0  -5 -0.7999999999999998 0  -5 -0.9000000000000004 0  -5 -1 0  -5 -1.1 0  -5 -1.2 0  -5 -1.3 0  -5 -1.4 0  -5 -1.5 0  -5 -1.6 0  -5 -1.7 0  -5 -1.8 0  -5 -1.9 0  -5 -2 0  -5 -2.1 0  -5 -2.2 0  -5 -2.3 0  -5 -2.4 0  -5 -2.5 0  -5 -2.6 0  -5 -2.7 0  -5 -2.8 0  -5 -2.9 0  -5 -3 0  -5 -3.1 0  -5 -3.199999999999999 0  -5 -3.300000000000001 0  -5 -3.4 0  -5 -3.5 0  -5 -3.6 0  -5 -3.699999999999999 0  -5 -3.800000000000001 0  -5 -3.9 0  -5 -4 0  -5 -4.1 0  -5 -4.199999999999999 0  -5 -4.300000000000001 0  -5 -4.4 0  -5 -4.5 0  -5 -4.6 0  -5 -4.699999999999999 0  -5 -4.800000000000001 0  -5 -4.9 0  1.098766753523962 0.1004083575576207 0  1.082135483439644 0.1997131500777352 0  1.054104236091207 0.2974151449276284 0  1.016848962619121 0.3909557192128417 0  0.9691444425970815 0.4818822078689479 0  0.912257495262801 0.5676023988908612 0  0.8457208131190412 0.6474288964861548 0  0.7702043212749937 0.7205850861960977 0  0.6878029617473383 0.7869303702998154 0  0.5985468702165547 0.8457645722330079 0  0.5028911235156377 0.8957889419459294 0  0.4022156092767059 0.9370668178426611 0  0.2986543904597288 0.9694493992026636 0  0.1913075521208261 0.9915337781489492 0  0.08292418064727863 1.00431444409361 0  -0.02666985933669688 1.006887443893322 0  -0.1360110986489693 0.9989527515375188 0  -0.2442096082806824 0.981883781924297 0  -0.3499793518169617 0.9549663687098664 0  -0.4520673534169958 0.9182114050537237 0  -0.5494732709938248 0.8727901201607755 0  -0.6416879418546036 0.8182639635978125 0  -0.7275325822849434 0.7558279020143279 0  -0.8062790041681653 0.6860193637579314 0  -0.8772717598510151 0.6085591920312587 0  -0.9391488954909064 0.5254135390445804 0  -0.9923049519983672 0.4375057600890274 0  -1.035070057497162 0.3447338110407657 0  -1.067324647615601 0.2490036363730266 0  -1.089241666175414 0.1508356914043523 0  -1.100377786325358 0.05075741079020017 0  -1.100403094326093 -0.0498892754095648 0  -1.089291396553618 -0.14982716914042 0  -1.068440041169877 -0.247968761731751 0  -1.035024463219138 -0.3442475743274752 0  -0.9925321617282008 -0.4365140606027714 0  -0.939607092768339 -0.5246068718011986 0  -0.8778415298279469 -0.6074954042577652 0  -0.806819578390947 -0.6843689618034838 0  -0.7276682007082131 -0.75395457142702 0  -0.6413337569666292 -0.8158475516908705 0  -0.5497836063099705 -0.8706575004117213 0  -0.4510212330343999 -0.9161978652992427 0  -0.3488451220017687 -0.9533932190080118 0  -0.2428889618920678 -0.9806446003762793 0  -0.1350251521931098 -0.9980827952257446 0  -0.02601309978353661 -1.006489777921564 0  0.0832418759476927 -1.003496606656343 0  0.192340907900758 -0.9904503866152425 0  0.2991310968228837 -0.9683226350202272 0  0.4038348515516786 -0.9360398113701058 0  0.5035044856719875 -0.8949117773145818 0  0.5989364091259918 -0.8450162339147398 0  0.6880353064938155 -0.7872637606777347 0  0.7703879516334318 -0.7208787777822943 0  0.8454258452185458 -0.6470162891282746 0  0.9116354230751742 -0.566938392196253 0  0.9693205985242155 -0.4814664564589453 0  1.017795962338523 -0.3910279894328171 0  1.054960132939922 -0.2969222091686273 0  1.082207329184465 -0.1992710779979817 0  1.098800730199969 -0.1001837225189693 0  -2.449262329682792 4.919408296970958 0  -2.449198721406684 -4.911903692207366 0  4.911861089467652 2.448907797857951 0  4.919854235896585 -2.450277478052004 0  2.447053255447474 -4.897381698977244 0  2.441457869372058 4.901090363064846 0  -4.911876223213307 -2.448923061633827 0  -4.911877080549263 2.448926771495148 0  -1.749239676058883 4.912865703390905 0  -1.744994828273932 -4.91623247210055 0  4.922416866908419 1.744986291229096 0  4.91120339634673 -1.748881514151138 0  -4.911474621943449 -1.748600118042368 0  -4.912282517793424 1.748334033606263 0  1.746557295824872 4.906860294325599 0  1.748062787342261 -4.895248508699918 0  -1.149402670655505 4.911039518068701 0  -1.130202305950933 -4.918764256492121 0  -4.911702010507679 -1.148745323632793 0  -4.911528696824418 1.148544519512674 0  1.144360630863404 -4.915043446657947 0  1.149405809982231 4.911032870463887 0  4.911863109718634 1.147027174698751 0  4.922387004537278 -1.152714079674191 0  -0.5469610870577017 -4.912420553355619 0  -0.5467154164128023 4.92088071623547 0  -4.910844514887937 -0.5491629489742145 0  -4.910870117394754 0.5477155578581557 0  4.910212863448101 -0.5494900690779023 0  4.921499519360811 0.5461852809201361 0  0.5427712141112697 -4.899654175343846 0  0.5514488625483912 4.917790141933424 0  -4.912840352677838 -3.049107482349802 0  4.919348302653649 3.047071434861633 0  4.912358952837508 -3.049096497505201 0  -4.91368369390562 3.046192545366091 0  3.055913013659182 -4.918317719292348 0  -3.049289674891083 -4.912317626128411 0  3.052843083431254 4.914378809486802 0  -3.048731395471994 4.913199850780027 0  -4.910106070014847 -0.04995311423670989 0  0.04513779504516974 -4.914388962140589 0  0.04958767938961682 4.921230137671006 0  4.916955439334301 -0.0513323263549943 0  3.546104566941871 -4.919681387413593 0  -3.5494274969
[...]
<PointData  Vectors="f_1034"> 
<DataArray  type="Float64"  Name="f_1034"  NumberOfComponents="3" format="ascii">-1.6225578188832129e-40 -1.6661488280149789e-40 0.0000000000000000e+00  2.0729578064395640e-40 -2.0765355622052086e-40 0.0000000000000000e+00  -2.4726453588373886e-40 -2.5049083082700066e-40 0.0000000000000000e+00  -3.1098996374637109e-40 3.2641670471438128e-40 0.0000000000000000e+00  1.3684972444159238e+01 -5.9821195536626470e-01 0.0000000000000000e+00  3.6175948343878312e-40 3.7064557216152445e-40 0.0000000000000000e+00  8.1712210025286571e-40 9.1295253525310525e-40 0.0000000000000000e+00  -1.8124593155592128e-39 -2.1385889563777723e-39 0.0000000000000000e+00  1.8713672380500033e-38 2.0954780438954265e-38 0.0000000000000000e+00  -6.0251004043792884e-38 -6.5461723174533532e-38 0.0000000000000000e+00  2.3281419357752713e-37 2.4892544682319198e-37 0.0000000000000000e+00  -8.4739650963704378e-37 -9.2284625414316889e-37 0.0000000000000000e+00  4.9853004724508508e-36 6.0097878065326514e-36 0.0000000000000000e+00  -3.0337540262488944e-35 -3.8875768012572417e-35 0.0000000000000000e+00  1.2214905633994059e-34 1.5924591995361502e-34 0.0000000000000000e+00  -2.5786399679532966e-34 -3.5106903515158284e-34 0.0000000000000000e+00  5.0146044286768572e-34 7.1257801648302189e-34 0.0000000000000000e+00  1.8016720789023868e-33 2.6151697978351455e-33 0.0000000000000000e+00  -8.2358441437659513e-33 -1.2006102820232441e-32 0.0000000000000000e+00  2.4174486900339878e-32 3.5852216057913228e-32 0.0000000000000000e+00  -1.3533963888032172e-31 -2.0677413052689570e-31 0.0000000000000000e+00  3.5512350446384046e-31 5.4665684850736104e-31 0.0000000000000000e+00  1.8801988379680771e-31 3.4780241922688594e-31 0.0000000000000000e+00  -1.6070023223856163e-30 -2.8337538288131413e-30 0.0000000000000000e+00  -8.6690143941719638e-31 -1.3597951216446673e-30 0.0000000000000000e+00  -2.3056543108542428e-30 -3.6726516381490223e-30 0.0000000000000000e+00  5.5002819420894377e-30 9.6656115688612597e-30 0.0000000000000000e+00  -1.3902242555807805e-29 -2.2255278140552609e-29 0.0000000000000000e+00  4.6009593005875345e-29 8.0785117023002892e-29 0.0000000000000000e+00  2.7599807515018568e-29 5.1847336542338707e-29 0.0000000000000000e+00  -2.2765637530700319e-28 -4.4203495410641219e-28 0.0000000000000000e+00  -7.4997026018224176e-29 -1.5482126561861403e-28 0.0000000000000000e+00  -1.2471646853170759e-28 -2.5423796949151351e-28 0.0000000000000000e+00  2.2042972780603261e-28 4.5979722249829756e-28 0.0000000000000000e+00  6.6830872650100165e-28 1.4906646471762158e-27 0.0000000000000000e+00  -8.0207406180752456e-29 -1.2158924122069100e-28 0.0000000000000000e+00  1.3363204435336055e-28 3.9779710511560712e-28 0.0000000000000000e+00  -1.1394994203314187e-28 -2.6735403460207957e-28 0.0000000000000000e+00  -4.8468578460994452e-28 -1.4178820593818233e-27 0.0000000000000000e+00  -4.3795938886887060e-28 -1.4262915039202073e-27 0.0000000000000000e+00  -3.4317069282298511e-29 -1.8663940842972051e-28 0.0000000000000000e+00  4.7544850493923974e-28 1.7124255233857975e-27 0.0000000000000000e+00  2.5399273212452264e-28 1.0470570623035251e-27 0.0000000000000000e+00  -5.9302647281397605e-29 -1.9658966432384064e-28 0.0000000000000000e+00  8.0620692332161413e-29 4.2721587307189175e-28 0.0000000000000000e+00  3.3310548460858857e-28 1.1339492263433394e-27 0.0000000000000000e+00  4.3200332942142820e-28 1.9017605412111539e-27 0.0000000000000000e+00  -2.2864143240333065e-28 -1.0742323127947290e-27 0.0000000000000000e+00  8.8882367268101413e-28 6.1378897702162588e-27 0.0000000000000000e+00  1.8770475293988696e-30 -4.7064721547137226e-29 0.0000000000000000e+00  -4.4682012694313019e-28 -5.3466304880198514e-27 0.0000000000000000e+00  -9.0642198924099823e-29 -3.1614039363227359e-27 0.0000000000000000e+00  -1.7324724947429669e-28 -4.4851300579857392e-27 0.0000000000000000e+00  -3.9371916650841685e-28 -1.1079534236842365e-26 0.0000000000000000e+00  -2.0956271403648787e-28 -1.2697388640419902e-26 0.0000000000000000e+00  1.6613967644253907e-29 -2.2103524180843597e-27 0.0000000000000000e+00  1.7882649062784301e-28 -6.9870620630447167e-27 0.0000000000000000e+00  2.1688479652711482e-28 -2.5789654978145265e-27 0.0000000000000000e+00  4.4501420287730096e-28 -4.5532086871129610e-27 0.0000000000000000e+00  -2.5103783810666494e-28 1.9655430989544487e-27 0.0000000000000000e+00  7.7096205064945640e-28 -6.1547304578964489e-27 0.0000000000000000e+00  8.4940394810157046e-28 -5.5768697955865186e-27 0.0000000000000000e+00  -1.8558379803016368e-28 1.0805551238005131e-27 0.0000000000000000e+00  -1.7017155495388234e-27 8.1383811254918867e-27 0.0000000000000000e+00  -7.4885449732518784e-28 3.2269568978330973e-27 0.0000000000000000e+00  -4.0391878370559424e-28 1.9287265695242447e-27 0.0000000000000000e+00  -1.2222966412646262e-27 4.6486755920263364e-27 0.0000000000000000e+00  -7.2335009552396832e-28 2.4535715462785861e-27 0.0000000000000000e+00  8.5107292508497854e-28 -2.7254107015449363e-27 0.0000000000000000e+00  4.2096315076200178e-28 -1.2807098380809411e-27 0.0000000000000000e+00  8.7524930769462274e-29 -2.9190202265096003e-28 0.0000000000000000e+00  3.3872046804239412e-28 -9.8856873079021180e-28 0.0000000000000000e+00  3.0575649570273277e-28 -7.7275309915122906e-28 0.0000000000000000e+00  -2.5979358870532612e-28 6.3735256479327234e-28 0.0000000000000000e+00  -2.1414161109072439e-28 4.8128699663377625e-28 0.0000000000000000e+00  -1.5346404895447989e-28 3.3022459266830906e-28 0.0000000000000000e+00  1.8987025435109836e-29 -4.4245308075845366e-29 0.0000000000000000e+00  1.1041700669534143e-28 -2.2624744240087214e-28 0.0000000000000000e+00  1.5619448094087020e-28 -2.9591731717074486e-28 0.0000000000000000e+00  -5.1530043582278392e-30 1.5278450935529146e-29 0.0000000000000000e+00  -1.0704557729194676e-28 1.9122782497047597e-28 0.0000000000000000e+00  1.7486223094305117e-29 -3.1665548825684831e-29 0.0000000000000000e+00  5.8563248165007372e-30 -9.4165243257353368e-30 0.0000000000000000e+00  -1.4868603136468174e-29 2.5730947989214866e-29 0.0000000000000000e+00  -1.0549731592088565e-30 1.7660776626193052e-30 0.0000000000000000e+00  1.6493841535767258e-30 -2.7449141061703842e-30 0.0000000000000000e+00  -8.5730384572345161e-31 1.4020924647711043e-30 0.0000000000000000e+00  1.0701451116657800e-31 -1.7193137055581477e-31 0.0000000000000000e+00  -1.3013611704097436e-32 1.9777622339496324e-32 0.0000000000000000e+00  -4.1968260493441936e-34 8.0207985720573106e-34 0.0000000000000000e+00  6.9408300677398975e-33 -1.0259547012607665e-32 0.0000000000000000e+00  3.9860398086408372e-34 -4.9486857691821699e-34 0.0000000000000000e+00  -4.6374324258752584e-34 6.4273628760097324e-34 0.0000000000000000e+00  5.1825536667250922e-35 -7.6085653129257262e-35 0.0000000000000000e+00  -2.0776034790621505e-35 2.7363994021076265e-35 0.0000000000000000e+00  4.7707287024392415e-36 -6.0515500340896296e-36 0.0000000000000000e+00  -1.5599490416676313e-36 1.9349567947367049e-36 0.0000000000000000e+00  5.1013066413856814e-37 -6.0541935463913445e-37 0.0000000000000000e+00  -2.5433065409643459e-37 2.9788680852347308e-37 0.0000000000000000e+00  8.5971398388059071e-38 -9.9531202196469887e-38 0.0000000000000000e+00  -1.7786519432959098e-38 1.9999393357250530e-38 0.0000000000000000e+00  7.2212851559065820e-39 -7.9484918016733422e-39 0.0000000000000000e+00  -4.2920939248559469e-40 4.9252778867902173e-40 0.0000000000000000e+00  -3.5409665939984287e-40 3.5972217912520019e-40 0.0000000000000000e+00  -1.3906903698887964e-41 7.3435344112709093e-42 0.0000000000000000e+00  4.0249297420087708e-40 -4.0208210091901293e-40 0.0000000000000000e+00  -9.3482177848140017e-40 8.9300413038088559e-40 0.0000000000000000e+00  3.6355668057826780e-39 -3.3561615693968102e-39 0.0000000000000000e+00  -2.4977955002951876e-39 2.1986083562072582e-39 0.0000000000000000e+00  -1.5760013955590299e-38 1.4043442366893272e-38 0.0000000000000000e+00  6.3680631646890124e-38 -5.4997191140156934e-38 0.0000000000000000e+00  -8.9544877092814316e-38 7.5131678187055112e-38 0.0000000000000000e+00  -1.4263269786535912e-37 1.1789064169050384e-37 0.0000000000000000e+00  9.6915282843791133e-37 -7.7716153021554693e-37 0.0000000000000000e+00  -1.7339209000520459e-36 1.3595081155464146e-36 0.0000000000000000e+00  -1.3176948343430614e-36 9.8159175149667375e-37 0.0000000000000000e+00  1.3352898679502043e-35 -9.8710349853329532e-36 0.0000000000000000e+00  -2.6344379329310413e-35 1.9022952783996340e-35 0.0000000000000000e+00  -1.7440764497070247e-35 1.1719718756783378e-35 0.0000000000000000e+00  1.9345677769081462e-34 -1.3056088371959393e-34 0.0000000000000000e+00  -3.1592406354336981e-34 2.1082983405538390e-34 0.0000000000000000e+00  -4.0872735024120618e-34 2.5209122388677833e-34 0.0000000000000000e+00  2.6218570086335499e-33 -1.6065465787358872e-33 0.0000000000000000e+00  -2.6551105305965167e-33 1.6269337050911198e-33 0.0000000000000000e+00  -9.3586994096288577e-33 5.2420036323948549e-33 0.0000000000000000e+00  3.0040740683063650e-32 -1.6762736109788750e-32 0.0000000000000000e+00  1.8627595916785486e-33 2.0473923011352638e-35 0.0000000000000000e+00  -1.6135325511517786e-31 8.1366281501742020e-32 0.0000000000000000e+00  2.1734106527480633e-31 -1.0951742691489145e-31 0.0000000000000000e+00  5.3104528199459007e-31 -2.3767486009994408e-31 0.0000000000000000e+00  -1.6008776747945469e-30 7.2246481372871740e-31 0.0000000000000000e+00  -8.7774624810235452e-31 3.1397699799958406e-31 0.0000000000000000e+00  8.4224707051084162e-30 -3.4000111895764218e-30 0.0000000000000000e+00  -2.6173570393598180e-30 1.3034375279882911e-30 0.0000000000000000e+00  -3.6699252404128082e-29 1.3075991858287523e-29 0.0000000000000000e+00  3.0589570801271452e-29 -1.1734843479508152e-29 0.0000000000000000e+00  1.4762233318956253e-28 -4.6129324643442464e-29 0.0000000000000000e+00  -1.6690549996668616e-28 5.5665976688292912e-29 0.0000000000000000e+00  -6.0754791912140204e-28 1.6473720904954082e-28 0.0000000000000000e+00  6.3955718863496456e-28 -1.9729062908791785e-28 0.0000000000000000e+00  2.5068546456369188e-27 -5.8794521023402460e-28 0.0000000000000000e+00  -1.8861294024907987e-27 5.3021250512227869e-28 0.0000000000000000e+00  -9.5908940608341414e-27 1.8997473917515153e-27 0.0000000000000000e+00  2.3885356596504663e-27 -7.4515757685453342e-28 0.0000000000000000e+00  2.9766345245769019e-26 -5.0118334874271563e-27 0.0000000000000000e+00  1.4512442228264128e-26 -1.4225611667917617e-27 0.0000000000000000e+00  -8.4734624904379698e-26 1.2066255200318798e-26 0.0000000000000000e+00  -1.2838626159370047e-25 1.4783714272736170e-26 0.0000000000000000e+00  1.4620029174425173e-25 -1.2716575552606022e-26 0.0000000000000000e+00  8.4956099183447892e-25 -5.0063410488030130e-26 0.0000000000000000e+00  1.5517092827655656e-24 -5.3269120132293149e-26 0.0000000000000000e+00  1.8931648646216299e-24 -2.6871091958738980e-26 0.0000000000000000e+00  1.8513617269939707e-24 -4.9693108237573276e-27 0.0000000000000000e+00  1.8735888896854449e-24 -2.8366282091363489e-27 0.0000000000000000e+00  2.0090442778260400e-24 7.7258576390837395e-27 0.0000000000000000e+00  1.8645513699788621e-24 3.5082443000217056e-26 0.0000000000000000e+00  1.2200608123391250e-24 4.7735062444431574e-26 0.0000000000000000e+00  3.5861310882504636e-25 2.4317406623024852e-26 0.0000000000000000e+00  -1.6740184091578437e-25 -1.0248310047663291e-26 0.0000000000000000e+00  -2.1746198420797039e-25 -2.1207074476386666e-26 0.0000000000000000e+00  -3.8813479628731099e-26 -5.8651139486945374e-27 0.0000000000000000e+00  6.0292651679390203e-26 7.5766585411993730e-27 0.0000000000000000e+00  3.6872412566951553e-26 5.9179849396884674e-27 0.0000000000000000e+00  -5.1767709638231528e-27 -7.6068572956685331e-28 0.0000000000000000e+00  -1.0823640863005611e-26 -2.1598584763379573e-27 0.0000000000000000e+00  -7.5668590827013004e-28 -2.0752415108248002e-28 0.0000000000000000e+00  2.6882323772520729e-27 6.3955833073152453e-28 0.0000000000000000e+00  3.9227488707979775e-28 1.1199794812007283e-28 0.0000000000000000e+00  -6.3580211665630353e-28 -1.7785179297503010e-28 0.0000000000000000e+00  -8.9025040930392949e-29 -2.9584723855152719e-29 0.0000000000000000e+00  1.4771159691469404e-28 4.8366350910205913e-29 0.0000000000000000e+00  6.9484088816196748e-30 3.2401465423623614e-30 0.0000000000000000e+00  -3.3137153904834819e-29 -1.2403176715892342e-29 0.0000000000000000e+00  2.7623703853036207e-30 8.9359193762169170e-31 0.0000000000000000e+00  6.3340011676932467e-30 2.7130971733344802e-30 0.0000000000000000e+00  -1.8474720508187887e-30 -7.6065685969568529e-31 0.0000000000000000e+00  -9.3787050198576433e-31 -4.5311751983139471e-31 0.0000000000000000e+00  6.0221326228531412e-31 2.8393205572127511e-31 0.0000000000000000e+00  3.3780071598805827e-32 2.3422122058259182e-32 0.0000000000000000e+00  -1.3321453027744035e-31 -6.9191592115320342e-32 0.0000000000000000e+00  3.0005637031622871e-32 1.4748985836022993e-32 0.0000000000000000e+00  1.9163043040394354e-32 1.1055783885133505e-32 0.0000000000000000e+00  -1.2281499136633608e-32 -6.9249702253168801e-33 0.0000000000000000e+00  1.8663031346635731e-34 -4.9550470869747602e-36 0.0000000000000000e+00  2.2134892722401719e-33 1.3841862346344089e-33 0.0000000000000000e+00  -8.4110715783090186e-34 -5.1771459125711057e-34 0.0000000000000000e+00  -1.1702434887728370e-34 -8.5536384793169813e-35 0.0000000000000000e+00  2.0252442196376134e-34 1.3675145872581565e-34 0.0000000000000000e+00  -5.7104972797091153e-35 -3.8589519816876098e-35 0.0000000000000000e+00  -1.3253392638263140e-35 -9.8773366273860716e-36 0.0000000000000000e+00  1.5034457150919912e-35 1.1022473113194949e-35 0.0000000000000000e+00  -3.9152193367657650e-36 -2.8871787058388917e-36 0.0000000000000000e+00  -9.2960585031094477e-37 -7.3775505861937256e-37 0.0000000000000000e+00  1.0563150795366201e-36 8.3640059889001181e-37 0.0000000000000000e+00  -3.0504290776075624e-37 -2.4600510917318841e-37 0.0000000000000000e+00  -3.8103426336933123e-38 -3.1991460268799565e-38 0.0000000000000000e+00  6.6479714212130338e-38 5.6636316250370856e-38 0.0000000000000000e+00  -2.5245138764435595e-38 -2.1990231661494208e-38 0.0000000000000000e+00  8.6632091994180722e-40 7.9256826210879933e-40 0.0000000000000000e+00  3.5651481787911500e-39 3.2273170992500847e-39 0.0000000000000000e+00  -1.8553744218625275e-39 -1.7208907582905692e-39 0.0000000000000000e+00  3.9846441375718562e-40 3.7964944270964585e-40 0.0000000000000000e+00  1.9401623823352481e-40 1.8597737898488656e-40 0.0000000000000000e+00  3.6622853604515631e-40 3.9234744357153698e-40 0.0000000000000000e+00  -1.0799397180041539e-39 -1.1416473190440576e-39 0.0000000000000000e+00  2.1193407992195311e-39 2.3085359749385583e-39 0.0000000000000000e+00  -1.4360012009155303e-38 -1.5580928882980044e-38 0.0000000000000000e+00  1.0223206048796633e-37 1.1261191320473932e-37 0.0000000000000000e+00  -2.3384922824269017e-37 -2.6410368582448947e-37 0.0000000000000000e+00  2.6821195752284551e-37 3.1619652204817967e-37 0.0000000000000000e+00  -4.2494612605005370e-36 -5.1092618176235029e-36 0.0000000000000000e+00  1.3627597157989593e-35 1.6453501237044872e-35 0.0000000000000000e+00  -5.9681259553162035e-35 -7.3129282947450359e-35 0.0000000000000000e+00  1.3306715087820169e-34 1.6977206268976257e-34 0.0000000000000000e+00  -2.8040143805652848e-34 -3.7536006054397633e-34 0.0000000000000000e+00  1.4294898411485058e-33 1.9265059770979867e-33 0.0000000000000000e+00  -1.1232462521307074e-33 -1.5187208208913103e-33 0.0000000000000000e+00  5.8945855920604449e-33 7.7224055597019776e-33 0.0000000000000000e+00  4.3401006636614158e-32 6.7439052495322618e-32 0.0000000000000000e+00  -2.0594542568958708e-31 -3.1271748565702410e-31 0.0000000000000000e+00  -5.6064998424456314e-31 -9.2616376342930954e-31 0.0000000000000000e+00  1.0664255735669687e-30 1.8044475523424223e-30 0.0000000000000000e+00  -8.9247086971614824e-32 -1.4640335860884686e-31 0.0000000000000000e+00  -3.3223649487267453e-30 -5.6776763496648074e-30 0.0000000000000000e+00  9.8230497778298912e-30 1.6242866325990127e-29 0.0000000000000000e+00  1.4927454003463747e-29 2.7559954011628335e-29 0.0000000000000000e+00  -9.7883829777509127e-29 -1.7935688618703010e-28 0.0000000000000000e+00  3.1731752919209255e-29 6.0035375911653598e-29 0.0000000000000000e+00  1.0007771862988850e-28 2.1086838485077266e-28 0.0000000000000000e+00  4.0491304422399256e-29 7.4438661245453804e-29 0.0000000000000000e+00  3.4653157933446002e-28 7.0080752444087395e-28 0.0000000000000000e+00  1.4715158091546184e-28 3.3841013947354280e-28 0.0000000000000000e+00  -4.2505069683907781e-28 -8.9079718014277338e-28 0.0000000000000000e+00  -4.0161232590609362e-28 -1.0528671153885286e-27 0.0000000000000000e+00  4.1483223224600265e-28 9.9411755981064244e-28 0.0000000000000000e+00  7.5893249418839411e-28 1.9269652933830576e-27 0.0000000000000000e+00  3.9203145554534715e-28 1.1806674995612954e-27 0.0000000000000000e+00  7.0439171149867368e-29 4.4428938233604985e-28 0.0000000000000000e+00  -8.7034161775622116e-28 -2.6253344492793691e-27 0.0000000000000000e+00  -3.2447223467138372e-28 -9.2203318554305038e-28 0.0000000000000000e+00  -1.5359501737407685e-28 -4.3118876045065448e-28 0.0000000000000000e+00  -4.2909139469150838e-28 -1.6773401350941172e-27 0.0000000000000000e+00  -3.8263815175297042e-28 -1.6147839013252652e-27 0.0000000000000000e+00  -3.3081442954125036e-28 -1.9922430624211311e-27 0.0000000000000000e+00  5.9488753909100654e-29 -2.6475271510202101e-28 0.0000000000000000e+00  4.1861595734907911e-28 2.2059785957348904e-27 0.0000000000000000e+00  6.0771812435454621e-29 2.0780806816650904e-28 0.0000000000000000e+00  -2.8421452146815803e-28 -2.5634434783330376e-27 0.0000000000000000e+00  1.7182868922318816e-28 1.4001358964337602e-27 0.0000000000000000e+00  1.0407993342972416e-28 1.2564394111075321e-27 0.0000000000000000e+00  -7.1838817294792868e-29 -1.4031133161100085e-27 0.0000000000000000e+00  -9.5823447029074047e-30 -1.6070838362614453e-28 0.0000000000000000e+00  -2.4779116291097482e-29 -1.4795753608055238e-27 0.0000000000000000e+00  -4.1290473216900254e-29 2.5313091441791887e-27 0.0000000000000000e+00  -1.2298267887884134e-28 2.3694628982710943e-27 0.0000000000000000e+00  4.1718917196996541e-29 -1.6878695453260167e-27 0.0000000000000000e+00  -4.2446196128066180e-29 -1.4512632601906493e-28 0.0000000000000000e+00  2.2953581473567456e-28 -2.3913299901338557e-27 0.0000000000000000e+00  -3.3353861744836701e-28 1.8509979570501584e-27 0.0000000000000000e+00  -2.1003523236457488e-28 8.5208629410217699e-28 0.0000000000000000e+00  8.2618773231112894e-30 -6.8874552796326756e-28 0.0000000000000000e+00  -5.9964760111776818e-29 -1.8272777785275949e-28 0.0000000000000000e+00  5.9470416120828458e-28 -2.8540866891535338e-27 0.0000000000000000e+00  7.3190284699768065e-28 -3.3946936395921444e-27 0.0000000000000000e+00  1.2508475073328259e-27 -4.7299809681259948e-27 0.0000000000000000e+00  4.1280831628293547e-28 -1.3107532668926354e-27 0.0000000000000000e+00  -3.1570830536156695e-28 1.2208890122196036e-27 0.0000000000000000e+00  -8.3521140771415855e-28 2.5110174551566719e-27 0.0000000000000000e+00  -9.9578438855385454e-28 2.7490483156892000e-27 0.0000000000000000e+00  -2.9158280631454926e-28 7.0575189975126766e-28 0.0000000000000000e+00  1.6200015728380152e-28 -4.4345103067385428e-28 0.0000000000000000e+00  2.1716079355052996e-28 -5.3039114459751410e-28 0.0000000000000000e+00  8.8877183056613071e-28 -1.9313828569296589e-27 0.0000000000000000e+00  3.6631090392286966e-28 -7.5279692875560905e-28 0.0000000000000000e+00  -3.0173289521896597e-28 6.0661231257563160e-28 0.0000000000000000e+00  -1.0789746661385689e-29 3.0752687250319052e-29 0.0000000000000000e+00  3.2771196046577481e-29 -6.8095000404242353e-29 0.0000000000000000e+00  8.2265623103106043e-29 -1.5419983635598093e-28 0.0000000000000000e+00  -1.6608327478394899e-29 3.1378001132327900e-29 0.0000000000000000e+00  -2.4337430969730766e-29 4.2367720110513987e-29 0.0000000000000000e+00  2.412