<?xml version="1.0"?>
<VTKFile type="UnstructuredGrid"  version="0.1"  >
<UnstructuredGrid>
<Piece  NumberOfPoints="11902" NumberOfCells="23402">
<Points>
<DataArray  type="Float64"  NumberOfComponents="3"  format="ascii">-5 -5 0  5 -5 0  5 5 0  -5 5 0  1.25986874789274 0.001337993802756003 0  -4.9 -5 0  -4.8 -5 0  -4.7 -5 0  -4.6 -5 0  -4.5 -5 0  -4.4 -5 0  -4.3 -5 0  -4.2 -5 0  -4.1 -5 0  -4 -5 0  -3.9 -5 0  -3.8 -5 0  -3.7 -5 0  -3.6 -5 0  -3.5 -5 0  -3.4 -5 0  -3.3 -5 0  -3.2 -5 0  -3.1 -5 0  -3 -5 0  -2.9 -5 0  -2.8 -5 0  -2.7 -5 0  -2.6 -5 0  -2.5 -5 0  -2.4 -5 0  -2.3 -5 0  -2.2 -5 0  -2.1 -5 0  -2 -5 0  -1.9 -5 0  -1.8 -5 0  -1.7 -5 0  -1.6 -5 0  -1.5 -5 0  -1.4 -5 0  -1.3 -5 0  -1.2 -5 0  -1.1 -5 0  -1 -5 0  -0.9000000000000004 -5 0  -0.7999999999999998 -5 0  -0.7000000000000002 -5 0  -0.5999999999999996 -5 0  -0.5 -5 0  -0.4000000000000004 -5 0  -0.2999999999999998 -5 0  -0.2000000000000002 -5 0  -0.09999999999999964 -5 0  0 -5 0  0.09999999999999964 -5 0  0.2000000000000002 -5 0  0.2999999999999998 -5 0  0.4000000000000004 -5 0  0.5 -5 0  0.5999999999999996 -5 0  0.7000000000000002 -5 0  0.7999999999999998 -5 0  0.9000000000000004 -5 0  1 -5 0  1.1 -5 0  1.2 -5 0  1.3 -5 0  1.4 -5 0  1.5 -5 0  1.6 -5 0  1.7 -5 0  1.8 -5 0  1.9 -5 0  2 -5 0  2.1 -5 0  2.2 -5 0  2.3 -5 0  2.4 -5 0  2.5 -5 0  2.6 -5 0  2.7 -5 0  2.8 -5 0  2.9 -5 0  3 -5 0  3.1 -5 0  3.199999999999999 -5 0  3.300000000000001 -5 0  3.4 -5 0  3.5 -5 0  3.6 -5 0  3.699999999999999 -5 0  3.800000000000001 -5 0  3.9 -5 0  4 -5 0  4.1 -5 0  4.199999999999999 -5 0  4.300000000000001 -5 0  4.4 -5 0  4.5 -5 0  4.6 -5 0  4.699999999999999 -5 0  4.800000000000001 -5 0  4.9 -5 0  5 -4.9 0  5 -4.8 0  5 -4.7 0  5 -4.6 0  5 -4.5 0  5 -4.4 0  5 -4.3 0  5 -4.2 0  5 -4.1 0  5 -4 0  5 -3.9 0  5 -3.8 0  5 -3.7 0  5 -3.6 0  5 -3.5 0  5 -3.4 0  5 -3.3 0  5 -3.2 0  5 -3.1 0  5 -3 0  5 -2.9 0  5 -2.8 0  5 -2.7 0  5 -2.6 0  5 -2.5 0  5 -2.4 0  5 -2.3 0  5 -2.2 0  5 -2.1 0  5 -2 0  5 -1.9 0  5 -1.8 0  5 -1.7 0  5 -1.6 0  5 -1.5 0  5 -1.4 0  5 -1.3 0  5 -1.2 0  5 -1.1 0  5 -1 0  5 -0.9000000000000004 0  5 -0.7999999999999998 0  5 -0.7000000000000002 0  5 -0.5999999999999996 0  5 -0.5 0  5 -0.4000000000000004 0  5 -0.2999999999999998 0  5 -0.2000000000000002 0  5 -0.09999999999999964 0  5 0 0  5 0.09999999999999964 0  5 0.2000000000000002 0  5 0.2999999999999998 0  5 0.4000000000000004 0  5 0.5 0  5 0.5999999999999996 0  5 0.7000000000000002 0  5 0.7999999999999998 0  5 0.9000000000000004 0  5 1 0  5 1.1 0  5 1.2 0  5 1.3 0  5 1.4 0  5 1.5 0  5 1.6 0  5 1.7 0  5 1.8 0  5 1.9 0  5 2 0  5 2.1 0  5 2.2 0  5 2.3 0  5 2.4 0  5 2.5 0  5 2.6 0  5 2.7 0  5 2.8 0  5 2.9 0  5 3 0  5 3.1 0  5 3.199999999999999 0  5 3.300000000000001 0  5 3.4 0  5 3.5 0  5 3.6 0  5 3.699999999999999 0  5 3.800000000000001 0  5 3.9 0  5 4 0  5 4.1 0  5 4.199999999999999 0  5 4.300000000000001 0  5 4.4 0  5 4.5 0  5 4.6 0  5 4.699999999999999 0  5 4.800000000000001 0  5 4.9 0  4.9 5 0  4.8 5 0  4.7 5 0  4.6 5 0  4.5 5 0  4.4 5 0  4.3 5 0  4.2 5 0  4.1 5 0  4 5 0  3.9 5 0  3.8 5 0  3.7 5 0  3.6 5 0  3.5 5 0  3.4 5 0  3.3 5 0  3.2 5 0  3.1 5 0  3 5 0  2.9 5 0  2.8 5 0  2.7 5 0  2.6 5 0  2.5 5 0  2.4 5 0  2.3 5 0  2.2 5 0  2.1 5 0  2 5 0  1.9 5 0  1.8 5 0  1.7 5 0  1.6 5 0  1.5 5 0  1.4 5 0  1.3 5 0  1.2 5 0  1.1 5 0  1 5 0  0.9000000000000004 5 0  0.7999999999999998 5 0  0.7000000000000002 5 0  0.5999999999999996 5 0  0.5 5 0  0.4000000000000004 5 0  0.2999999999999998 5 0  0.2000000000000002 5 0  0.09999999999999964 5 0  0 5 0  -0.09999999999999964 5 0  -0.2000000000000002 5 0  -0.2999999999999998 5 0  -0.4000000000000004 5 0  -0.5 5 0  -0.5999999999999996 5 0  -0.7000000000000002 5 0  -0.7999999999999998 5 0  -0.9000000000000004 5 0  -1 5 0  -1.1 5 0  -1.2 5 0  -1.3 5 0  -1.4 5 0  -1.5 5 0  -1.6 5 0  -1.7 5 0  -1.8 5 0  -1.9 5 0  -2 5 0  -2.1 5 0  -2.2 5 0  -2.3 5 0  -2.4 5 0  -2.5 5 0  -2.6 5 0  -2.7 5 0  -2.8 5 0  -2.9 5 0  -3 5 0  -3.1 5 0  -3.199999999999999 5 0  -3.300000000000001 5 0  -3.4 5 0  -3.5 5 0  -3.6 5 0  -3.699999999999999 5 0  -3.800000000000001 5 0  -3.9 5 0  -4 5 0  -4.1 5 0  -4.199999999999999 5 0  -4.300000000000001 5 0  -4.4 5 0  -4.5 5 0  -4.6 5 0  -4.699999999999999 5 0  -4.800000000000001 5 0  -4.9 5 0  -5 4.9 0  -5 4.8 0  -5 4.7 0  -5 4.6 0  -5 4.5 0  -5 4.4 0  -5 4.3 0  -5 4.2 0  -5 4.1 0  -5 4 0  -5 3.9 0  -5 3.8 0  -5 3.7 0  -5 3.6 0  -5 3.5 0  -5 3.4 0  -5 3.3 0  -5 3.2 0  -5 3.1 0  -5 3 0  -5 2.9 0  -5 2.8 0  -5 2.7 0  -5 2.6 0  -5 2.5 0  -5 2.4 0  -5 2.3 0  -5 2.2 0  -5 2.1 0  -5 2 0  -5 1.9 0  -5 1.8 0  -5 1.7 0  -5 1.6 0  -5 1.5 0  -5 1.4 0  -5 1.3 0  -5 1.2 0  -5 1.1 0  -5 1 0  -5 0.9000000000000004 0  -5 0.7999999999999998 0  -5 0.7000000000000002 0  -5 0.5999999999999996 0  -5 0.5 0  -5 0.4000000000000004 0  -5 0.2999999999999998 0  -5 0.2000000000000002 0  -5 0.09999999999999964 0  -5 0 0  -5 -0.09999999999999964 0  -5 -0.2000000000000002 0  -5 -0.2999999999999998 0  -5 -0.4000000000000004 0  -5 -0.5 0  -5 -0.5999999999999996 0  -5 -0.7000000000000002 0  -5 -0.7999999999999998 0  -5 -0.9000000000000004 0  -5 -1 0  -5 -1.1 0  -5 -1.2 0  -5 -1.3 0  -5 -1.4 0  -5 -1.5 0  -5 -1.6 0  -5 -1.7 0  -5 -1.8 0  -5 -1.9 0  -5 -2 0  -5 -2.1 0  -5 -2.2 0  -5 -2.3 0  -5 -2.4 0  -5 -2.5 0  -5 -2.6 0  -5 -2.7 0  -5 -2.8 0  -5 -2.9 0  -5 -3 0  -5 -3.1 0  -5 -3.199999999999999 0  -5 -3.300000000000001 0  -5 -3.4 0  -5 -3.5 0  -5 -3.6 0  -5 -3.699999999999999 0  -5 -3.800000000000001 0  -5 -3.9 0  -5 -4 0  -5 -4.1 0  -5 -4.199999999999999 0  -5 -4.300000000000001 0  -5 -4.4 0  -5 -4.5 0  -5 -4.6 0  -5 -4.699999999999999 0  -5 -4.800000000000001 0  -5 -4.9 0  1.251716913228948 0.09460946035319288 0  1.229950934033085 0.1922342779005596 0  1.196501381002075 0.2887438093391164 0  1.153657338972432 0.3773705104121186 0  1.095631339473452 0.468229535415957 0  1.029773162082753 0.5524314656908162 0  0.9513747009230412 0.6324770317459696 0  0.8644955364007445 0.7071734220986406 0  0.7726993348302724 0.7726028929733681 0  0.6703506748549591 0.829970241974423 0  0.5583192651366875 0.8822308671751509 0  0.4456990116546631 0.9267486059203948 0  0.3334633334731812 0.9588709055655925 0  0.2087339702565117 0.9805239292370217 0  0.08880863946684972 0.9994489432078244 0  -0.02700131648662496 1.002773949230246 0  -0.1446987812199109 0.9890083379019536 0  -0.2722401243128637 0.969948951472375 0  -0.3915979492800973 0.9457524879684112 0  -0.5021680441639693 0.9098317617475191 0  -0.6116311503400297 0.8633615191118157 0  -0.7137724933337573 0.8086688540503854 0  -0.8084431672517718 0.7438139504885097 0  -0.8995497238580291 0.6702715619790305 0  -0.9852389970885186 0.5904709267437149 0  -1.059615362906235 0.509332630673846 0  -1.121434154785465 0.4240940277805195 0  -1.174913570380152 0.3316532792810241 0  -1.212831711513268 0.2427150206136452 0  -1.237305081090411 0.1485781346494485 0  -1.248262013284718 0.0517066320996003 0  -1.24821788120858 -0.04955710533050725 0  -1.237284765021562 -0.1456660207960438 0  -1.212474864146174 -0.2379395661102957 0  -1.170976161589101 -0.3327483915686048 0  -1.121787752006491 -0.4245898241497884 0  -1.061348295545345 -0.5091838322470689 0  -0.98769289059934 -0.5894567404139009 0  -0.9026362023934241 -0.6681569012266285 0  -0.8120713492038582 -0.7398083320277185 0  -0.7161758091940519 -0.8008209330774921 0  -0.6114604693562415 -0.8539262186894184 0  -0.4974178961275154 -0.9034621611964804 0  -0.3845829080051641 -0.943295638819702 0  -0.2689301515188567 -0.9696699459825506 0  -0.1431830877323026 -0.9888655600445199 0  -0.02786024863263304 -1.001991770262152 0  0.08804638578485272 -0.9947012076988331 0  0.2143187905172614 -0.9770529575291057 0  0.3360754886878922 -0.9572655425117731 0  0.4498532425667743 -0.9254260339018049 0  0.5607463099523486 -0.8814541212907105 0  0.6713525165813428 -0.8300067396797538 0  0.7726511066156586 -0.7737141260947547 0  0.8645125670738932 -0.7082580518131245 0  0.950342062449982 -0.632650498359926 0  1.027172453701135 -0.5513758855382717 0  1.096488380557098 -0.4671043562694704 0  1.154475477524943 -0.3777483484968569 0  1.198243635343058 -0.2867834961939326 0  1.230636880020943 -0.1913896879247625 0  1.2520850461079 -0.09438729088694089 0  -2.448549951039674 4.918093431123176 0  -2.448423054642664 -4.91046983617596 0  4.910393536265504 2.447876332170305 0  4.918522450073897 -2.449339581174548 0  2.446150742889576 -4.89569718045625 0  2.440584721571374 4.899460803896441 0  -4.910420704933109 -2.447902873612592 0  -4.91041797040211 2.447906848748053 0  -1.748503575421383 4.910972164367285 0  -1.744290680060641 -4.914414875500157 0  4.920562886220054 1.744052884881818 0  4.909086626314786 -1.747811552582764 0  -4.909381192633545 -1.747546002323558 0  -4.910204108628752 1.74729114200214 0  1.745775561445814 4.904825394578451 0  1.747187042709678 -4.892964183056319 0  -1.14881694192662 4.908746525198481 0  -1.129675776677826 -4.916668148233782 0  -4.909081339752018 -1.147878007411258 0  -4.908899427724136 1.147678506427922 0  1.143813107395562 -4.912849230215997 0  1.148826880046065 4.908733022340074 0  4.909220743288489 1.14615312448042 0  4.920065716465095 -1.151940959980476 0  -0.5466560348027943 -4.909930349966894 0  -0.5464400153035937 4.918624117081347 0  -4.907799824997875 -0.5486807949625868 0  -4.907823781378095 0.5472387405069884 0  4.907117316843893 -0.5489988328264082 0  4.918791491213147 0.5457597395795046 0  0.5424371756915199 -4.896793415221162 0  0.551168262689033 4.915443254802937 0  -4.911858473318533 -3.04826433500303 0  4.918431844436899 3.046282420231208 0  4.911365947077226 -3.048239667738375 0  -4.912706502168052 3.045356197083495 0  3.05527743513612 -4.917354180155852 0  -3.048606501563966 -4.911287680571777 0  3.052174313436922 4.913366162992182 0  -3.048052334933526 4.912177819808793 0  -4.906902659522606 -0.04990497258007576 0  0.04511901994488733 -4.911879709447097 0  0.04956645948033497 4.918915014059632 0  4.913967912320582 -0.05128732341369268 0  3.5456008799785 -4.91900688450029 0  -3.548879766834403 4.9119
[...]
<PointData  Vectors="f_5090"> 
<DataArray  type="Float64"  Name="f_5090"  NumberOfComponents="3" format="ascii">-3.6164954818856156e-41 -8.7967784773631994e-41 0.0000000000000000e+00  3.5541037018890320e-41 -6.0829913307756873e-41 0.0000000000000000e+00  -1.1092972077063606e-40 -1.1084898061253019e-40 0.0000000000000000e+00  -1.7147846311555515e-40 1.8236485013938172e-40 0.0000000000000000e+00  1.1461251457134969e+01 1.2628409503606790e-02 0.0000000000000000e+00  1.2221253027576046e-40 2.0112377779320444e-40 0.0000000000000000e+00  6.4662607215414241e-40 5.5275004231943851e-40 0.0000000000000000e+00  -1.7241425655028485e-39 -1.4697474573762339e-39 0.0000000000000000e+00  1.0677222007871673e-38 1.2816364487074133e-38 0.0000000000000000e+00  -3.9559963106657005e-38 -4.4058474800129724e-38 0.0000000000000000e+00  1.2048041389996419e-37 1.6599509265750648e-37 0.0000000000000000e+00  -4.4663473212497128e-37 -6.1010334916027891e-37 0.0000000000000000e+00  2.1535640703267543e-36 3.1012895568419634e-36 0.0000000000000000e+00  -1.2485565277554721e-35 -1.7589088342543500e-35 0.0000000000000000e+00  5.6218406019077978e-35 7.4473543953402083e-35 0.0000000000000000e+00  -1.3825359246849373e-34 -1.5903986864401757e-34 0.0000000000000000e+00  2.9669013255582894e-34 3.1238702772360543e-34 0.0000000000000000e+00  1.1714483322763610e-33 1.2089324931591955e-33 0.0000000000000000e+00  -3.9297902507930437e-33 -4.7758920886276943e-33 0.0000000000000000e+00  6.3707936827649135e-33 1.0585116860750454e-32 0.0000000000000000e+00  -4.8969579208263584e-32 -7.1068676231282283e-32 0.0000000000000000e+00  1.4605412097812535e-31 2.1221024166755074e-31 0.0000000000000000e+00  -2.3712524211447777e-32 -1.1691777660182979e-31 0.0000000000000000e+00  -1.5790628128036456e-31 1.9009645523004929e-31 0.0000000000000000e+00  -7.3849354246431166e-31 -1.4067151650450737e-30 0.0000000000000000e+00  -4.2511460033962363e-30 -9.0211636508814241e-30 0.0000000000000000e+00  3.7656840792292037e-30 7.4286939494559926e-30 0.0000000000000000e+00  7.9549212188792250e-30 1.8349424400320108e-29 0.0000000000000000e+00  5.3940454736954119e-30 7.1595333830024751e-30 0.0000000000000000e+00  -3.9326101062437451e-30 -1.3721626946843344e-29 0.0000000000000000e+00  -2.7684898637745059e-29 -2.7227372625247514e-29 0.0000000000000000e+00  -2.8045751027340721e-29 -6.4821912890498288e-29 0.0000000000000000e+00  -8.4477671082787383e-29 -3.0111464810730809e-28 0.0000000000000000e+00  6.7448019930977556e-29 2.2686075364758698e-28 0.0000000000000000e+00  1.6032991118586842e-28 7.2483366881748202e-28 0.0000000000000000e+00  3.2524361401799229e-29 -1.4718563301644356e-28 0.0000000000000000e+00  7.7565714689365303e-29 9.7966659305243304e-29 0.0000000000000000e+00  -1.4431034276035835e-29 -1.3199772525238111e-28 0.0000000000000000e+00  -1.9898522675517558e-28 -4.5870682722030658e-28 0.0000000000000000e+00  -1.7662363942710368e-28 -2.6403427893128620e-28 0.0000000000000000e+00  9.3052114078657655e-29 3.2642309483343496e-28 0.0000000000000000e+00  3.1504816082448242e-28 6.9276697014228223e-28 0.0000000000000000e+00  2.7478195160752939e-28 5.0244881412347389e-28 0.0000000000000000e+00  1.4015264767572003e-28 2.1738159626314117e-28 0.0000000000000000e+00  1.3116939934971201e-28 1.1950099397439037e-28 0.0000000000000000e+00  -6.0527944716633961e-28 -9.2282041760475244e-29 0.0000000000000000e+00  -3.5326801400803507e-28 6.0068163964867164e-28 0.0000000000000000e+00  3.3781877448421948e-28 -1.9851510904135692e-28 0.0000000000000000e+00  -1.3993922530376092e-28 3.0230715051522432e-27 0.0000000000000000e+00  -3.8645048349372632e-28 -2.3756385790463979e-28 0.0000000000000000e+00  -7.7496684980233182e-28 -3.1916033661279877e-27 0.0000000000000000e+00  -8.6049805766660891e-28 -1.8131663251106267e-27 0.0000000000000000e+00  -5.7952274721332045e-28 -2.7359249895726767e-27 0.0000000000000000e+00  -9.1531382861219772e-29 -7.0063377976556632e-27 0.0000000000000000e+00  2.8908185153048081e-29 -7.9110467380135723e-27 0.0000000000000000e+00  -1.0630653065384983e-28 -1.2236260800133111e-27 0.0000000000000000e+00  -2.4083013913859032e-28 -4.0450551077772851e-27 0.0000000000000000e+00  -1.8796048088634613e-28 -1.1816561606653682e-27 0.0000000000000000e+00  -1.2492485141369974e-28 -2.4448144120260664e-27 0.0000000000000000e+00  -7.3980709581214277e-29 1.7204744532991833e-27 0.0000000000000000e+00  7.2364803424959681e-29 -2.9978935771296315e-27 0.0000000000000000e+00  2.4850045091993880e-28 -2.6705850769311784e-27 0.0000000000000000e+00  -2.3463535789668997e-29 9.8979091795108694e-28 0.0000000000000000e+00  -2.7567516761317607e-28 5.0439499783700634e-27 0.0000000000000000e+00  -1.8598838451833229e-28 1.9756279642323948e-27 0.0000000000000000e+00  -1.9889256475500227e-28 8.1874489105472228e-28 0.0000000000000000e+00  -3.7604292937256069e-28 2.7244306054320351e-27 0.0000000000000000e+00  -2.1342309891067918e-28 1.4367058737012569e-27 0.0000000000000000e+00  2.2470944788214763e-28 -1.8372895495698412e-27 0.0000000000000000e+00  1.8069103447492818e-28 -7.8164005834686313e-28 0.0000000000000000e+00  2.1427676984307503e-29 -4.9188054592246100e-29 0.0000000000000000e+00  1.8112022966108778e-28 -4.7186390850564975e-28 0.0000000000000000e+00  1.1059903855790748e-28 -4.3681974411203814e-28 0.0000000000000000e+00  -1.0855891349761323e-28 4.2176461675747504e-28 0.0000000000000000e+00  -5.0807682438369868e-29 2.5151390610248557e-28 0.0000000000000000e+00  -3.8353609118652318e-29 1.5621072709349856e-28 0.0000000000000000e+00  2.6250797139475834e-29 -9.0761448556041606e-29 0.0000000000000000e+00  2.6728512688072353e-29 -8.9405685305558843e-29 0.0000000000000000e+00  4.7445191336978769e-29 -1.4350616600591002e-28 0.0000000000000000e+00  -6.7158432293538549e-30 1.0345291157450142e-29 0.0000000000000000e+00  -4.5982976613224979e-29 1.1732740524242343e-28 0.0000000000000000e+00  6.5199589717747132e-30 -1.6923893373259647e-29 0.0000000000000000e+00  3.2012294517097922e-30 -7.4974943598496467e-30 0.0000000000000000e+00  -6.1989737719711557e-30 1.2708450278388548e-29 0.0000000000000000e+00  -2.3646364868318852e-31 1.1341733073886080e-31 0.0000000000000000e+00  5.2448442065722284e-31 -8.7109968452796844e-31 0.0000000000000000e+00  -1.6396647098838155e-31 2.8607228442472536e-31 0.0000000000000000e+00  7.6882448487737693e-32 -1.0977643510543392e-31 0.0000000000000000e+00  -7.0004981982717291e-33 1.0660313087636991e-32 0.0000000000000000e+00  -5.6109849833846390e-33 6.4759170556459816e-33 0.0000000000000000e+00  4.7350635723390754e-33 -5.1936836107620665e-33 0.0000000000000000e+00  -6.6400240031583218e-34 8.1660259660613200e-34 0.0000000000000000e+00  6.4358061531132775e-35 -1.0368201030372446e-34 0.0000000000000000e+00  -3.4167184229148727e-35 4.6341368012733466e-35 0.0000000000000000e+00  6.4174424514044942e-36 -6.7501911298056094e-36 0.0000000000000000e+00  8.4023517963039753e-37 -8.1654233078648359e-37 0.0000000000000000e+00  -1.3303650759737377e-36 1.2485012534597651e-36 0.0000000000000000e+00  3.8331673840101925e-37 -3.9863729779794035e-37 0.0000000000000000e+00  -1.8404836720531959e-37 1.7729947048131076e-37 0.0000000000000000e+00  5.9597581492328581e-38 -5.5131323001407768e-38 0.0000000000000000e+00  -1.0240613324579146e-38 9.6649317472717456e-39 0.0000000000000000e+00  3.8039283795852860e-39 -3.6199622883060997e-39 0.0000000000000000e+00  -3.6929058517104927e-40 2.8941618278683408e-40 0.0000000000000000e+00  -6.6268516971034883e-41 1.1014096868382697e-40 0.0000000000000000e+00  1.0517078729559926e-41 -6.2048101524545642e-42 0.0000000000000000e+00  3.0000322664870087e-40 -2.3513627710762073e-40 0.0000000000000000e+00  -6.6413392867382306e-40 5.2240255886583776e-40 0.0000000000000000e+00  1.5115869193332515e-39 -1.5709103318626841e-39 0.0000000000000000e+00  9.7861196257755393e-40 3.1279877046441720e-40 0.0000000000000000e+00  -1.3445259735033024e-38 9.3226959938443876e-39 0.0000000000000000e+00  3.6121264914628541e-38 -3.0894571007509495e-38 0.0000000000000000e+00  -2.2046381654101753e-38 3.3455311842099635e-38 0.0000000000000000e+00  -1.7585072636336127e-37 1.0029412217166928e-37 0.0000000000000000e+00  6.8370170933029333e-37 -5.0894212840038097e-37 0.0000000000000000e+00  -7.9960558254652034e-37 7.7164923011416238e-37 0.0000000000000000e+00  -2.1089694307782601e-36 1.0517233359474311e-36 0.0000000000000000e+00  1.0376230250118939e-35 -7.1952440765139291e-36 0.0000000000000000e+00  -1.5299191576583413e-35 1.2534856256001125e-35 0.0000000000000000e+00  -2.5791342467311194e-35 1.3004027852193062e-35 0.0000000000000000e+00  1.5436027748387925e-34 -1.0357183025078244e-34 0.0000000000000000e+00  -2.0136342216818605e-34 1.5238954849395907e-34 0.0000000000000000e+00  -4.2253740818082720e-34 2.4674944071500766e-34 0.0000000000000000e+00  2.0657933949096794e-33 -1.3633337838508917e-33 0.0000000000000000e+00  -1.6995319716346735e-33 1.2218818935673958e-33 0.0000000000000000e+00  -8.0354734112249006e-33 5.0532509924993013e-33 0.0000000000000000e+00  2.3230937065229066e-32 -1.4940656099130542e-32 0.0000000000000000e+00  4.2748854862984330e-33 -2.7015724748922113e-33 0.0000000000000000e+00  -1.2917794848924532e-31 8.1040673924049789e-32 0.0000000000000000e+00  1.6399937770431377e-31 -9.7228477003750967e-32 0.0000000000000000e+00  4.3216046246093259e-31 -2.7450821429539477e-31 0.0000000000000000e+00  -1.2539609026960460e-30 7.3060442935456527e-31 0.0000000000000000e+00  -7.4043823997924640e-31 5.5392846095400761e-31 0.0000000000000000e+00  6.7020800905592807e-30 -3.8392013542232863e-30 0.0000000000000000e+00  -2.0082636988773532e-30 2.9431718778520676e-31 0.0000000000000000e+00  -2.9602432935997353e-29 1.6723518633345688e-29 0.0000000000000000e+00  2.5135824345391446e-29 -8.4896783631922242e-30 0.0000000000000000e+00  1.2117473177096048e-28 -6.7554412502442548e-29 0.0000000000000000e+00  -1.4418237733978016e-28 4.5594967026435553e-29 0.0000000000000000e+00  -5.1268386299104721e-28 2.7340405640163588e-28 0.0000000000000000e+00  5.9821602294873217e-28 -1.3596436360693608e-28 0.0000000000000000e+00  2.2042891214111889e-27 -1.0798579770542985e-27 0.0000000000000000e+00  -1.9498403371191464e-27 1.3455780418545371e-28 0.0000000000000000e+00  -9.1300197765405522e-27 3.5850803165305716e-27 0.0000000000000000e+00  2.8098768026924205e-27 1.9637486383281462e-27 0.0000000000000000e+00  3.0029563142188319e-26 -7.8566754973599516e-27 0.0000000000000000e+00  1.8365259284235880e-26 -1.3160673608286412e-26 0.0000000000000000e+00  -6.9775198946362415e-26 5.0500427927289163e-28 0.0000000000000000e+00  -9.6407535800857349e-26 7.6106831787654630e-27 0.0000000000000000e+00  1.8321040794018197e-25 -4.7101092910471819e-26 0.0000000000000000e+00  8.4175905341657573e-25 -1.8517373445089564e-25 0.0000000000000000e+00  1.4227416979536254e-24 -3.0745023556693742e-25 0.0000000000000000e+00  1.5991744150649002e-24 -3.1712485364345670e-25 0.0000000000000000e+00  1.4456163101066432e-24 -1.7769790169300123e-25 0.0000000000000000e+00  1.4582565609395024e-24 3.4067370905444761e-26 0.0000000000000000e+00  1.6950284792269773e-24 2.2555352473824435e-25 0.0000000000000000e+00  1.7086038687936248e-24 2.9920482816805289e-25 0.0000000000000000e+00  1.2121558883748705e-24 2.3042441083905833e-25 0.0000000000000000e+00  4.3914778087213287e-25 8.5389983865377020e-26 0.0000000000000000e+00  -7.3425128601280486e-26 -1.7896012414116075e-26 0.0000000000000000e+00  -1.6513410786872723e-25 -3.4590672364285532e-26 0.0000000000000000e+00  -3.5948552247391003e-26 -2.3143490888142559e-27 0.0000000000000000e+00  4.4453226114222151e-26 1.6487110491490467e-26 0.0000000000000000e+00  2.9551656240540195e-26 9.6738321563051169e-27 0.0000000000000000e+00  -1.7850423704438162e-27 -6.5961860710774725e-28 0.0000000000000000e+00  -6.8484367714301590e-27 -2.2249979987078689e-27 0.0000000000000000e+00  -4.9391078870707142e-28 -7.1160400522341040e-29 0.0000000000000000e+00  1.5830366175318465e-27 5.6727391282678819e-28 0.0000000000000000e+00  1.4756244480780359e-28 1.7835705127289866e-29 0.0000000000000000e+00  -3.7715585482062308e-28 -1.4762266199110498e-28 0.0000000000000000e+00  -1.8012389399298131e-29 5.5056472836055158e-30 0.0000000000000000e+00  8.8487003626828724e-29 3.7277666767330866e-29 0.0000000000000000e+00  -5.4584676647037737e-30 -6.3400636506193442e-30 0.0000000000000000e+00  -1.9437245892068397e-29 -8.5491887043749500e-30 0.0000000000000000e+00  3.6591367868013804e-30 2.7043003852893366e-30 0.0000000000000000e+00  3.5307141551096517e-30 1.5254080936036391e-30 0.0000000000000000e+00  -1.4585379867887558e-30 -9.3127701933013743e-31 0.0000000000000000e+00  -4.7316831537916565e-31 -1.7081378182404249e-31 0.0000000000000000e+00  4.1331668713999110e-31 2.4776171580553744e-31 0.0000000000000000e+00  -5.1667468042954456e-33 -2.3715583506256061e-32 0.0000000000000000e+00  -8.5022180094274076e-32 -4.8544612077486787e-32 0.0000000000000000e+00  2.4119599685009528e-32 1.8119366932316667e-32 0.0000000000000000e+00  1.0841698411335791e-32 5.3579204443104729e-33 0.0000000000000000e+00  -8.3971835779206421e-33 -5.4901022152834887e-33 0.0000000000000000e+00  5.7881668488618412e-34 6.2145528346939324e-34 0.0000000000000000e+00  1.3505309146137918e-33 8.3989293208449994e-34 0.0000000000000000e+00  -6.1258096827860886e-34 -4.2539306805762968e-34 0.0000000000000000e+00  -2.5151248672068272e-35 -8.0475563666655260e-36 0.0000000000000000e+00  1.2331867586824797e-34 8.4237253462674100e-35 0.0000000000000000e+00  -4.4662750742020244e-35 -3.1214215730308094e-35 0.0000000000000000e+00  -2.9795534195640565e-36 -2.5552510194878025e-36 0.0000000000000000e+00  8.6756742242200094e-36 6.4027378719009306e-36 0.0000000000000000e+00  -3.1663442538411486e-36 -2.2134100021809432e-36 0.0000000000000000e+00  -5.8287069864331066e-38 -1.5150438050355874e-37 0.0000000000000000e+00  5.3004241218449311e-37 4.3272878939488073e-37 0.0000000000000000e+00  -2.2505956185631716e-37 -1.6454116939414715e-37 0.0000000000000000e+00  1.9878989284141693e-38 3.7812155472993015e-39 0.0000000000000000e+00  2.5070938418309118e-38 2.4454169047213274e-38 0.0000000000000000e+00  -1.4878688332388925e-38 -1.2190387760420246e-38 0.0000000000000000e+00  3.1490729421207411e-39 1.7881083326911352e-39 0.0000000000000000e+00  6.8779356918420385e-40 1.0250725414120565e-39 0.0000000000000000e+00  -7.7547329854828097e-40 -7.6151377838278991e-40 0.0000000000000000e+00  2.7793713512784605e-40 2.2654211718353464e-40 0.0000000000000000e+00  -5.3943519111644826e-42 3.2939028419194826e-41 0.0000000000000000e+00  2.0266668575400980e-40 1.9024921278674558e-40 0.0000000000000000e+00  -2.4283219561520922e-40 -3.5031340351386102e-40 0.0000000000000000e+00  6.0468298681814303e-40 7.8666576354231046e-40 0.0000000000000000e+00  -3.0434405123467275e-39 -4.7695224278984555e-39 0.0000000000000000e+00  3.8787922766042233e-38 4.4687101357760146e-38 0.0000000000000000e+00  -1.2792468373808445e-37 -1.3414282384337304e-37 0.0000000000000000e+00  1.8277018315483592e-37 2.0134013144051955e-37 0.0000000000000000e+00  -1.9481183920039567e-36 -2.3234782853688893e-36 0.0000000000000000e+00  4.6915114709596132e-36 6.3589270239825634e-36 0.0000000000000000e+00  -1.4026333332092294e-35 -2.2183300952248635e-35 0.0000000000000000e+00  2.3566006019042626e-35 3.7423208730897167e-35 0.0000000000000000e+00  4.8497419136138385e-35 2.6713579564342282e-35 0.0000000000000000e+00  -5.7724387945376037e-35 7.8065978903389824e-35 0.0000000000000000e+00  1.2597079559733486e-33 1.2679329509761374e-33 0.0000000000000000e+00  -1.5165382643846983e-33 -8.7908284651837182e-34 0.0000000000000000e+00  1.2349402090738239e-32 1.6524150929929326e-32 0.0000000000000000e+00  -3.2183468231682894e-32 -4.8615772642780050e-32 0.0000000000000000e+00  -2.2181888034370055e-31 -3.3649604988712011e-31 0.0000000000000000e+00  6.2601175550662246e-31 9.6838022698593610e-31 0.0000000000000000e+00  -6.4372449043853802e-31 -1.1214754786948978e-30 0.0000000000000000e+00  -1.8811184182248370e-30 -3.9643875090925083e-30 0.0000000000000000e+00  8.0856078545093315e-30 1.8964808919174471e-29 0.0000000000000000e+00  7.9885596075087823e-30 1.8063786835709099e-29 0.0000000000000000e+00  -4.7594506961589030e-29 -1.1490905756694663e-28 0.0000000000000000e+00  8.6833357035272889e-30 1.7683645486042755e-29 0.0000000000000000e+00  4.2347512190505979e-29 4.9605648146857549e-29 0.0000000000000000e+00  2.0488220759100793e-29 1.0160244980791484e-28 0.0000000000000000e+00  1.3306779891487425e-28 5.5838224049205019e-28 0.0000000000000000e+00  5.4176160752339857e-29 1.9851528389053191e-28 0.0000000000000000e+00  -8.7033214555230775e-29 -2.9532840525555046e-28 0.0000000000000000e+00  -2.6401094954412876e-28 -1.2000041075827542e-27 0.0000000000000000e+00  1.6144025598901828e-28 7.9406631372593740e-28 0.0000000000000000e+00  2.3970028408087659e-28 1.2357670567228101e-27 0.0000000000000000e+00  2.3749675622386669e-28 1.2289938468962344e-27 0.0000000000000000e+00  2.0550882285492822e-28 9.4570402425963647e-28 0.0000000000000000e+00  -3.3768711492157695e-28 -1.9028101888802335e-27 0.0000000000000000e+00  -2.3925580440007785e-29 -1.7987476307574562e-28 0.0000000000000000e+00  7.8921304594817832e-30 4.2354847961964416e-29 0.0000000000000000e+00  -1.8898879100409628e-28 -1.1713801234851495e-27 0.0000000000000000e+00  -1.6081286998067344e-28 -1.1572364983378678e-27 0.0000000000000000e+00  -2.7202701567858962e-28 -2.9291741434583184e-27 0.0000000000000000e+00  -1.6987063305348605e-28 -1.8511466347477744e-27 0.0000000000000000e+00  1.7206068072600779e-29 5.0865728745368120e-28 0.0000000000000000e+00  -4.6512623482425789e-29 -1.0097559812514841e-27 0.0000000000000000e+00  1.5817598524427749e-29 -2.4845795309405732e-27 0.0000000000000000e+00  -1.4495349723882069e-28 1.3056254638188187e-28 0.0000000000000000e+00  -1.2911285774569199e-28 -2.3947054766832915e-29 0.0000000000000000e+00  1.0097603225514100e-28 -1.9923152356959690e-27 0.0000000000000000e+00  4.5931012736354537e-30 -9.9938366011006768e-28 0.0000000000000000e+00  2.3251957916032429e-28 -2.0839560320817665e-27 0.0000000000000000e+00  -3.8435393064249547e-28 1.3228777128701535e-27 0.0000000000000000e+00  -3.6053012729609384e-28 1.2713307502311733e-27 0.0000000000000000e+00  3.5024332720263722e-28 -1.9265817281698380e-27 0.0000000000000000e+00  1.1039271431834832e-28 -6.0716985236895525e-28 0.0000000000000000e+00  3.6334706183258081e-28 -2.0018107815071467e-27 0.0000000000000000e+00  -6.3630278540938751e-29 6.6444423096242483e-28 0.0000000000000000e+00  -3.4486066948275636e-29 1.5692069426146594e-28 0.0000000000000000e+00  2.5838301966537984e-28 -1.0323978544567209e-27 0.0000000000000000e+00  1.0219895165600685e-28 -4.9382635069708339e-28 0.0000000000000000e+00  3.7099517965137886e-28 -2.1100878187540446e-27 0.0000000000000000e+00  4.4499524418616575e-28 -2.7203121053757563e-27 0.0000000000000000e+00  5.1382191449639997e-28 -3.4143936187519857e-27 0.0000000000000000e+00  1.4121357627350639e-28 -8.5065304696018059e-28 0.0000000000000000e+00  -1.5783163615700446e-28 1.1270550450647732e-27 0.0000000000000000e+00  -2.4714765363258942e-28 1.6766865187360399e-27 0.0000000000000000e+00  -2.7230979010505571e-28 1.7131395426814817e-27 0.0000000000000000e+00  -6.2084219305464874e-29 3.4645444522129938e-28 0.0000000000000000e+00  6.0866746112360695e-29 -4.1150441439554652e-28 0.0000000000000000e+00  3.7913254163601879e-29 -2.0876273420943055e-28 0.0000000000000000e+00  1.6786009738524988e-28 -8.4984001984863390e-28 0.0000000000000000e+00  5.7444824055615128e-29 -2.9037580939491392e-28 0.0000000000000000e+00  -6.8372649016873198e-29 3.3112789469582593e-28 0.0000000000000000e+00  1.3078126038646710e-29 -7.7697438834463391e-29 0.0000000000000000e+00  4.9526803813976203e-30 -1.3133879749719437e-29 0.0000000000000000e+00  7.8992958284162453e-30 -1.8668479502703453e-29 0.0000000000000000e+00  -1.4556938364254490e-30 2.8134741146559659e-30 0.0000000000000000e+00  -3.0479643041212296e-30 7.7764010287657476e-30 0.0000000000000000e+00  3.05604