<?xml version="1.0"?>
<VTKFile type="UnstructuredGrid"  version="0.1"  >
<UnstructuredGrid>
<Piece  NumberOfPoints="11902" NumberOfCells="23402">
<Points>
<DataArray  type="Float64"  NumberOfComponents="3"  format="ascii">-5 -5 0  5 -5 0  5 5 0  -5 5 0  1.186036810345479 0.001221421096662017 0  -4.9 -5 0  -4.8 -5 0  -4.7 -5 0  -4.6 -5 0  -4.5 -5 0  -4.4 -5 0  -4.3 -5 0  -4.2 -5 0  -4.1 -5 0  -4 -5 0  -3.9 -5 0  -3.8 -5 0  -3.7 -5 0  -3.6 -5 0  -3.5 -5 0  -3.4 -5 0  -3.3 -5 0  -3.2 -5 0  -3.1 -5 0  -3 -5 0  -2.9 -5 0  -2.8 -5 0  -2.7 -5 0  -2.6 -5 0  -2.5 -5 0  -2.4 -5 0  -2.3 -5 0  -2.2 -5 0  -2.1 -5 0  -2 -5 0  -1.9 -5 0  -1.8 -5 0  -1.7 -5 0  -1.6 -5 0  -1.5 -5 0  -1.4 -5 0  -1.3 -5 0  -1.2 -5 0  -1.1 -5 0  -1 -5 0  -0.9000000000000004 -5 0  -0.7999999999999998 -5 0  -0.7000000000000002 -5 0  -0.5999999999999996 -5 0  -0.5 -5 0  -0.4000000000000004 -5 0  -0.2999999999999998 -5 0  -0.2000000000000002 -5 0  -0.09999999999999964 -5 0  0 -5 0  0.09999999999999964 -5 0  0.2000000000000002 -5 0  0.2999999999999998 -5 0  0.4000000000000004 -5 0  0.5 -5 0  0.5999999999999996 -5 0  0.7000000000000002 -5 0  0.7999999999999998 -5 0  0.9000000000000004 -5 0  1 -5 0  1.1 -5 0  1.2 -5 0  1.3 -5 0  1.4 -5 0  1.5 -5 0  1.6 -5 0  1.7 -5 0  1.8 -5 0  1.9 -5 0  2 -5 0  2.1 -5 0  2.2 -5 0  2.3 -5 0  2.4 -5 0  2.5 -5 0  2.6 -5 0  2.7 -5 0  2.8 -5 0  2.9 -5 0  3 -5 0  3.1 -5 0  3.199999999999999 -5 0  3.300000000000001 -5 0  3.4 -5 0  3.5 -5 0  3.6 -5 0  3.699999999999999 -5 0  3.800000000000001 -5 0  3.9 -5 0  4 -5 0  4.1 -5 0  4.199999999999999 -5 0  4.300000000000001 -5 0  4.4 -5 0  4.5 -5 0  4.6 -5 0  4.699999999999999 -5 0  4.800000000000001 -5 0  4.9 -5 0  5 -4.9 0  5 -4.8 0  5 -4.7 0  5 -4.6 0  5 -4.5 0  5 -4.4 0  5 -4.3 0  5 -4.2 0  5 -4.1 0  5 -4 0  5 -3.9 0  5 -3.8 0  5 -3.7 0  5 -3.6 0  5 -3.5 0  5 -3.4 0  5 -3.3 0  5 -3.2 0  5 -3.1 0  5 -3 0  5 -2.9 0  5 -2.8 0  5 -2.7 0  5 -2.6 0  5 -2.5 0  5 -2.4 0  5 -2.3 0  5 -2.2 0  5 -2.1 0  5 -2 0  5 -1.9 0  5 -1.8 0  5 -1.7 0  5 -1.6 0  5 -1.5 0  5 -1.4 0  5 -1.3 0  5 -1.2 0  5 -1.1 0  5 -1 0  5 -0.9000000000000004 0  5 -0.7999999999999998 0  5 -0.7000000000000002 0  5 -0.5999999999999996 0  5 -0.5 0  5 -0.4000000000000004 0  5 -0.2999999999999998 0  5 -0.2000000000000002 0  5 -0.09999999999999964 0  5 0 0  5 0.09999999999999964 0  5 0.2000000000000002 0  5 0.2999999999999998 0  5 0.4000000000000004 0  5 0.5 0  5 0.5999999999999996 0  5 0.7000000000000002 0  5 0.7999999999999998 0  5 0.9000000000000004 0  5 1 0  5 1.1 0  5 1.2 0  5 1.3 0  5 1.4 0  5 1.5 0  5 1.6 0  5 1.7 0  5 1.8 0  5 1.9 0  5 2 0  5 2.1 0  5 2.2 0  5 2.3 0  5 2.4 0  5 2.5 0  5 2.6 0  5 2.7 0  5 2.8 0  5 2.9 0  5 3 0  5 3.1 0  5 3.199999999999999 0  5 3.300000000000001 0  5 3.4 0  5 3.5 0  5 3.6 0  5 3.699999999999999 0  5 3.800000000000001 0  5 3.9 0  5 4 0  5 4.1 0  5 4.199999999999999 0  5 4.300000000000001 0  5 4.4 0  5 4.5 0  5 4.6 0  5 4.699999999999999 0  5 4.800000000000001 0  5 4.9 0  4.9 5 0  4.8 5 0  4.7 5 0  4.6 5 0  4.5 5 0  4.4 5 0  4.3 5 0  4.2 5 0  4.1 5 0  4 5 0  3.9 5 0  3.8 5 0  3.7 5 0  3.6 5 0  3.5 5 0  3.4 5 0  3.3 5 0  3.2 5 0  3.1 5 0  3 5 0  2.9 5 0  2.8 5 0  2.7 5 0  2.6 5 0  2.5 5 0  2.4 5 0  2.3 5 0  2.2 5 0  2.1 5 0  2 5 0  1.9 5 0  1.8 5 0  1.7 5 0  1.6 5 0  1.5 5 0  1.4 5 0  1.3 5 0  1.2 5 0  1.1 5 0  1 5 0  0.9000000000000004 5 0  0.7999999999999998 5 0  0.7000000000000002 5 0  0.5999999999999996 5 0  0.5 5 0  0.4000000000000004 5 0  0.2999999999999998 5 0  0.2000000000000002 5 0  0.09999999999999964 5 0  0 5 0  -0.09999999999999964 5 0  -0.2000000000000002 5 0  -0.2999999999999998 5 0  -0.4000000000000004 5 0  -0.5 5 0  -0.5999999999999996 5 0  -0.7000000000000002 5 0  -0.7999999999999998 5 0  -0.9000000000000004 5 0  -1 5 0  -1.1 5 0  -1.2 5 0  -1.3 5 0  -1.4 5 0  -1.5 5 0  -1.6 5 0  -1.7 5 0  -1.8 5 0  -1.9 5 0  -2 5 0  -2.1 5 0  -2.2 5 0  -2.3 5 0  -2.4 5 0  -2.5 5 0  -2.6 5 0  -2.7 5 0  -2.8 5 0  -2.9 5 0  -3 5 0  -3.1 5 0  -3.199999999999999 5 0  -3.300000000000001 5 0  -3.4 5 0  -3.5 5 0  -3.6 5 0  -3.699999999999999 5 0  -3.800000000000001 5 0  -3.9 5 0  -4 5 0  -4.1 5 0  -4.199999999999999 5 0  -4.300000000000001 5 0  -4.4 5 0  -4.5 5 0  -4.6 5 0  -4.699999999999999 5 0  -4.800000000000001 5 0  -4.9 5 0  -5 4.9 0  -5 4.8 0  -5 4.7 0  -5 4.6 0  -5 4.5 0  -5 4.4 0  -5 4.3 0  -5 4.2 0  -5 4.1 0  -5 4 0  -5 3.9 0  -5 3.8 0  -5 3.7 0  -5 3.6 0  -5 3.5 0  -5 3.4 0  -5 3.3 0  -5 3.2 0  -5 3.1 0  -5 3 0  -5 2.9 0  -5 2.8 0  -5 2.7 0  -5 2.6 0  -5 2.5 0  -5 2.4 0  -5 2.3 0  -5 2.2 0  -5 2.1 0  -5 2 0  -5 1.9 0  -5 1.8 0  -5 1.7 0  -5 1.6 0  -5 1.5 0  -5 1.4 0  -5 1.3 0  -5 1.2 0  -5 1.1 0  -5 1 0  -5 0.9000000000000004 0  -5 0.7999999999999998 0  -5 0.7000000000000002 0  -5 0.5999999999999996 0  -5 0.5 0  -5 0.4000000000000004 0  -5 0.2999999999999998 0  -5 0.2000000000000002 0  -5 0.09999999999999964 0  -5 0 0  -5 -0.09999999999999964 0  -5 -0.2000000000000002 0  -5 -0.2999999999999998 0  -5 -0.4000000000000004 0  -5 -0.5 0  -5 -0.5999999999999996 0  -5 -0.7000000000000002 0  -5 -0.7999999999999998 0  -5 -0.9000000000000004 0  -5 -1 0  -5 -1.1 0  -5 -1.2 0  -5 -1.3 0  -5 -1.4 0  -5 -1.5 0  -5 -1.6 0  -5 -1.7 0  -5 -1.8 0  -5 -1.9 0  -5 -2 0  -5 -2.1 0  -5 -2.2 0  -5 -2.3 0  -5 -2.4 0  -5 -2.5 0  -5 -2.6 0  -5 -2.7 0  -5 -2.8 0  -5 -2.9 0  -5 -3 0  -5 -3.1 0  -5 -3.199999999999999 0  -5 -3.300000000000001 0  -5 -3.4 0  -5 -3.5 0  -5 -3.6 0  -5 -3.699999999999999 0  -5 -3.800000000000001 0  -5 -3.9 0  -5 -4 0  -5 -4.1 0  -5 -4.199999999999999 0  -5 -4.300000000000001 0  -5 -4.4 0  -5 -4.5 0  -5 -4.6 0  -5 -4.699999999999999 0  -5 -4.800000000000001 0  -5 -4.9 0  1.18019974590992 0.09945931021490913 0  1.161814300825984 0.1979004261635025 0  1.130951395911354 0.2953017008847283 0  1.090909557534426 0.3871889784343926 0  1.038961713341912 0.4779471827715416 0  0.9776321747489727 0.5631711476254044 0  0.9055589508067807 0.6429380775767959 0  0.8241651841834251 0.7157373727394608 0  0.7357159177687695 0.7815434565595195 0  0.6394024362077342 0.8401654153591869 0  0.536043473661824 0.8907706059655616 0  0.4282521597562655 0.9325250868119901 0  0.3180092326037936 0.9652927446535313 0  0.2026624828383171 0.9876965763232813 0  0.08796006282742845 1.001826132691001 0  -0.02764978286022347 1.004554218652198 0  -0.1433338246105217 0.9952604403892208 0  -0.2596477844969989 0.9777282710608306 0  -0.3729913740685849 0.9513618126085706 0  -0.4815358610490702 0.9147910658311214 0  -0.5852050330814103 0.8693148664127833 0  -0.6838076870097431 0.8145901664578462 0  -0.7754276282976652 0.7518416358642146 0  -0.8602958876266363 0.6815519145288818 0  -0.9376745267633627 0.6035744840303513 0  -1.004892486481247 0.5209714345901345 0  -1.062784826752252 0.4338520312176337 0  -1.109441701821306 0.3415632248507608 0  -1.144463952047856 0.2471234042234088 0  -1.168086796524625 0.1501992626600649 0  -1.180084144107912 0.05082474192189702 0  -1.180089656519675 -0.04918730031282036 0  -1.168055438852614 -0.148266333899368 0  -1.14545041145438 -0.2452002477908369 0  -1.10905113302678 -0.341143774808299 0  -1.063158617653906 -0.4325927754122839 0  -1.005813223174443 -0.5200080819724794 0  -0.939044439738425 -0.602193065493676 0  -0.8618995538517746 -0.6790676113652008 0  -0.7765636003156441 -0.7485034490748197 0  -0.6837859512901308 -0.8098788170125414 0  -0.5854824846197599 -0.8643248070346877 0  -0.4790631156424894 -0.9108066716966451 0  -0.3701125233567813 -0.9486950754002307 0  -0.2570010757137243 -0.9762895810903374 0  -0.1419432630005415 -0.9942845129594151 0  -0.02711450724382512 -1.003735876567338 0  0.08857248716184811 -0.9996568668168335 0  0.2052258008854986 -0.9855743816731614 0  0.3194435356426722 -0.9636462944295359 0  0.4314152567126291 -0.9311142818819345 0  0.5375612021637958 -0.8897940146863937 0  0.6400840480927897 -0.839669890691618 0  0.7359102640016707 -0.7824356897286444 0  0.8242527021012716 -0.7163876902362173 0  0.9050869561178829 -0.6423610838220891 0  0.9763387260128514 -0.5624875667870309 0  1.038869288107683 -0.4774193402118279 0  1.091968407619023 -0.3872749446931634 0  1.132304364965947 -0.2939978753316122 0  1.16202952044131 -0.1971086932236259 0  1.180213080908594 -0.09901055115512244 0  -2.448838701180024 4.918623895019787 0  -2.448737626908249 -4.911048485918931 0  4.910985520698997 2.448290677876363 0  4.919059724886708 -2.449716287866677 0  2.446516733926133 -4.896376785207464 0  2.44093874769001 4.900118193450818 0  -4.911008079107465 -2.448312811937172 0  -4.911006619267829 2.448316637603226 0  -1.748802809699663 4.911738186787822 0  -1.744577097925195 -4.915150421546977 0  4.92131146292921 1.744428266672484 0  4.909941404678252 -1.748241743873334 0  -4.910226788767874 -1.74797001375331 0  -4.911043447942008 1.747710636121622 0  1.746093512294131 4.905648556878653 0  1.747543295756271 -4.893888364276942 0  -1.149055556788257 4.909676084061702 0  -1.129890423766673 -4.917518209712207 0  -4.910140804642117 -1.148227193172629 0  -4.909962205059244 1.148027215578578 0  1.144036409582426 -4.913738866502865 0  1.149062939407005 4.909665317211504 0  4.910288608792523 1.146505000855605 0  4.92100386796594 -1.152252071160418 0  -0.5467805301022759 -4.91094160769798 0  -0.546552327338349 4.919540231121876 0  -4.909031510231249 -0.5488750224843113 0  -4.909056040187341 0.5474309131323458 0  4.908369235660679 -0.5491965979373616 0  4.919886646415804 0.5459312298129625 0  0.5425736978075277 -4.897955050423957 0  0.5512829297073515 4.916395997066028 0  -4.912254452655374 -3.048602881629093 0  4.918801276616709 3.046599118064853 0  4.911766297769773 -3.048583563628463 0  -4.913100454157219 3.045691960746324 0  3.0555345217358 -4.91774200016546 0  -3.048882895492152 -4.91170239093785 0  3.052444782379812 4.91377373466059 0  -3.048326929391243 4.912589228680217 0  -4.908198810716354 -0.04992431866094602 0  0.04512678955638453 -4.912899113583411 0  0.04957524686799315 4.919855303658776 0  4.915176399796903 -0.05130535919950475 0  3.545804259561829 -4.91927792516061 0  -3.549100874073341 4
[...]
<PointData  Vectors="f_2074"> 
<DataArray  type="Float64"  Name="f_2074"  NumberOfComponents="3" format="ascii">-1.3414863783996292e-40 -1.4575162756382392e-40 0.0000000000000000e+00  1.6331620780843119e-40 -1.7215617939989531e-40 0.0000000000000000e+00  -2.1716207215318713e-40 -2.1439349426938450e-40 0.0000000000000000e+00  -2.5987956406148737e-40 2.6575159666846598e-40 0.0000000000000000e+00  1.5464672159484762e+01 -2.9022684881421945e-01 0.0000000000000000e+00  3.0859804171722725e-40 3.2513073688859282e-40 0.0000000000000000e+00  7.4806707270710674e-40 7.8930950994993088e-40 0.0000000000000000e+00  -1.6797623428965408e-39 -1.9126687281663710e-39 0.0000000000000000e+00  1.6524109761026010e-38 1.8690196867522628e-38 0.0000000000000000e+00  -5.3459467041068658e-38 -5.9689734854143095e-38 0.0000000000000000e+00  2.0006405299340953e-37 2.3262896964018181e-37 0.0000000000000000e+00  -7.1799532887602221e-37 -8.6511475307195732e-37 0.0000000000000000e+00  4.2772891742679753e-36 5.3382651204806836e-36 0.0000000000000000e+00  -2.6628502692418477e-35 -3.3469902931450027e-35 0.0000000000000000e+00  1.0824675700047554e-34 1.3870333473693175e-34 0.0000000000000000e+00  -2.3470673265847870e-34 -3.0483576641422590e-34 0.0000000000000000e+00  4.7030842890260372e-34 6.1220389811172869e-34 0.0000000000000000e+00  1.6940080645892015e-33 2.2540311803502982e-33 0.0000000000000000e+00  -7.5024079377207275e-33 -1.0409855116319973e-32 0.0000000000000000e+00  2.1270798865894103e-32 3.1086822140882635e-32 0.0000000000000000e+00  -1.2183777161067362e-31 -1.7945260572067033e-31 0.0000000000000000e+00  3.2122602272549979e-31 4.7615344238528029e-31 0.0000000000000000e+00  1.8941718023930658e-31 2.9400169870053859e-31 0.0000000000000000e+00  -1.5718130726085588e-30 -2.4292268648689903e-30 0.0000000000000000e+00  -7.1848225527499109e-31 -1.2323583121245280e-30 0.0000000000000000e+00  -1.7638538830601219e-30 -3.0693660609644151e-30 0.0000000000000000e+00  4.7026902953885129e-30 8.4913101966162112e-30 0.0000000000000000e+00  -1.0904201398332992e-29 -2.3271547263088115e-29 0.0000000000000000e+00  3.8312044896886146e-29 7.7061138144933027e-29 0.0000000000000000e+00  2.2234232663730993e-29 4.7903319043191392e-29 0.0000000000000000e+00  -1.9092230063546272e-28 -4.0154083787536480e-28 0.0000000000000000e+00  -6.7218948616887653e-29 -1.5451908839976497e-28 0.0000000000000000e+00  -1.1437042731978011e-28 -2.9499327807509568e-28 0.0000000000000000e+00  1.9153478576834344e-28 4.6186924956585442e-28 0.0000000000000000e+00  5.6162022719494108e-28 1.4663664423706388e-27 0.0000000000000000e+00  -3.4302397974959836e-29 -1.0356177489066761e-28 0.0000000000000000e+00  1.4821625796597710e-28 4.1228075030722667e-28 0.0000000000000000e+00  -9.3342736811800583e-29 -2.6637984050601764e-28 0.0000000000000000e+00  -4.8488730273309980e-28 -1.4577257319663117e-27 0.0000000000000000e+00  -4.4432840685803521e-28 -1.4452672157956179e-27 0.0000000000000000e+00  -1.6410486198117566e-29 -1.4591068331792571e-28 0.0000000000000000e+00  4.6691011239752862e-28 1.7199172262596544e-27 0.0000000000000000e+00  2.6916482888391508e-28 1.0356608342410547e-27 0.0000000000000000e+00  -2.4119253052937476e-29 -1.7850393121307668e-28 0.0000000000000000e+00  1.0426089569572178e-28 4.2227434089391139e-28 0.0000000000000000e+00  9.6185278001701482e-29 1.0711848976126243e-27 0.0000000000000000e+00  2.1342353615717782e-28 1.7982097576882871e-27 0.0000000000000000e+00  -8.3080963798910608e-29 -1.0516175091775415e-27 0.0000000000000000e+00  5.5670689349350542e-28 5.7491968419756797e-27 0.0000000000000000e+00  -9.4333634948824464e-29 -1.7426208881382021e-29 0.0000000000000000e+00  -4.7914930342083461e-28 -4.9331746975764948e-27 0.0000000000000000e+00  -2.7605290454072117e-28 -2.8516547928152426e-27 0.0000000000000000e+00  -2.4006618352476036e-28 -4.0838170595173013e-27 0.0000000000000000e+00  -2.0856681881747603e-28 -1.0318165741929492e-26 0.0000000000000000e+00  -4.0727608852118598e-29 -1.1827228847282226e-26 0.0000000000000000e+00  -2.2171071422122239e-30 -2.0415776197506275e-27 0.0000000000000000e+00  1.1194922960264631e-28 -6.4077889492133277e-27 0.0000000000000000e+00  1.2827711184392623e-28 -2.2822216451042396e-27 0.0000000000000000e+00  3.1186188875573174e-28 -4.1296256625691117e-27 0.0000000000000000e+00  -1.8368077819118452e-28 1.9131740985599985e-27 0.0000000000000000e+00  6.2543051697546085e-28 -5.5249636661651058e-27 0.0000000000000000e+00  7.3125386277064380e-28 -5.0179331743981357e-27 0.0000000000000000e+00  -1.1947206841872963e-28 1.0539686345586396e-27 0.0000000000000000e+00  -1.2750317335651299e-27 7.5192579362522232e-27 0.0000000000000000e+00  -5.8440237004668836e-28 2.9880658176636255e-27 0.0000000000000000e+00  -3.7623708395438136e-28 1.7173871968707765e-27 0.0000000000000000e+00  -9.8886557005812524e-28 4.3073432024768481e-27 0.0000000000000000e+00  -5.8252299268293034e-28 2.2779716646786540e-27 0.0000000000000000e+00  6.5752785001978294e-28 -2.5847832836134526e-27 0.0000000000000000e+00  3.6091961642691070e-28 -1.2150898787053409e-27 0.0000000000000000e+00  7.5999407487588308e-29 -2.3581350270218499e-28 0.0000000000000000e+00  3.2354371288134415e-28 -9.1933172531048123e-28 0.0000000000000000e+00  2.5632436231226569e-28 -7.1960816778010789e-28 0.0000000000000000e+00  -2.2017338283807564e-28 6.0907964382107408e-28 0.0000000000000000e+00  -1.5702178315085088e-28 4.0931005881910030e-28 0.0000000000000000e+00  -1.1856277329486543e-28 2.9246613534293697e-28 0.0000000000000000e+00  1.8815973417783137e-29 -5.3123155952127844e-29 0.0000000000000000e+00  8.3608503476658928e-29 -1.9294783137365641e-28 0.0000000000000000e+00  1.1996279379007429e-28 -2.5820785630522673e-28 0.0000000000000000e+00  -6.2996467173342867e-30 1.3962215375534177e-29 0.0000000000000000e+00  -8.6372724916729199e-29 1.7228923197068891e-28 0.0000000000000000e+00  1.4095485200334977e-29 -2.8145273790160912e-29 0.0000000000000000e+00  4.7841616750011005e-30 -8.7809285134108584e-30 0.0000000000000000e+00  -1.3218077746095040e-29 2.3440039147720658e-29 0.0000000000000000e+00  -1.0925261383652545e-30 1.6176030730347544e-30 0.0000000000000000e+00  1.5336097089989343e-30 -2.4863735336166251e-30 0.0000000000000000e+00  -7.8127745019618656e-31 1.2399079308780420e-30 0.0000000000000000e+00  1.0098477859262148e-31 -1.6013045470250216e-31 0.0000000000000000e+00  -1.1760063933657349e-32 1.8024695688053878e-32 0.0000000000000000e+00  -9.9831990931751948e-34 1.3962463362355031e-33 0.0000000000000000e+00  6.5206841759903828e-33 -8.9356073274428508e-33 0.0000000000000000e+00  2.6704755945295043e-34 -3.0062139470059002e-34 0.0000000000000000e+00  -3.8806867744600451e-34 5.0167917605656941e-34 0.0000000000000000e+00  4.1911896843504584e-35 -5.3913508989606744e-35 0.0000000000000000e+00  -1.5764718352147717e-35 2.0182448169048020e-35 0.0000000000000000e+00  3.9978318204765168e-36 -4.8866217226863911e-36 0.0000000000000000e+00  -1.5405299751579013e-36 1.7740625662893965e-36 0.0000000000000000e+00  4.8504546022562363e-37 -5.5725790710477539e-37 0.0000000000000000e+00  -2.4156598131683877e-37 2.6943182070101051e-37 0.0000000000000000e+00  8.1044109863022698e-38 -8.8796183448835568e-38 0.0000000000000000e+00  -1.6085873566505584e-38 1.7532076152631478e-38 0.0000000000000000e+00  6.4723740537532875e-39 -6.8565185273618578e-39 0.0000000000000000e+00  -4.2597725049232871e-40 4.3665354660927394e-40 0.0000000000000000e+00  -2.8235803323080337e-40 2.9882511896549808e-40 0.0000000000000000e+00  -5.8946796439709653e-42 4.4173129135469559e-42 0.0000000000000000e+00  3.8355521329574233e-40 -3.5414712577670525e-40 0.0000000000000000e+00  -8.7777880112315734e-40 7.8833191110012671e-40 0.0000000000000000e+00  3.1592400891134941e-39 -2.8903103955616040e-39 0.0000000000000000e+00  -1.7539544444557623e-39 1.7460782728315498e-39 0.0000000000000000e+00  -1.5046539571617080e-38 1.2686602297297192e-38 0.0000000000000000e+00  5.7142087225588438e-38 -4.8580085673922192e-38 0.0000000000000000e+00  -7.5126820516174664e-38 6.4711876406680478e-38 0.0000000000000000e+00  -1.4379822337552581e-37 1.1093196760742112e-37 0.0000000000000000e+00  8.8817711905806083e-37 -7.0240281695525578e-37 0.0000000000000000e+00  -1.5183401631691429e-36 1.2067034909319082e-36 0.0000000000000000e+00  -1.3865037142256724e-36 9.6783712947755929e-37 0.0000000000000000e+00  1.2313916953350369e-35 -9.0777110565370133e-36 0.0000000000000000e+00  -2.3459643104317639e-35 1.7228234664580961e-35 0.0000000000000000e+00  -1.7936712241981472e-35 1.1767067449792656e-35 0.0000000000000000e+00  1.7823526378291011e-34 -1.2201002985510282e-34 0.0000000000000000e+00  -2.8220503854097661e-34 1.9292546738293550e-34 0.0000000000000000e+00  -3.9368775207187106e-34 2.4888544309175055e-34 0.0000000000000000e+00  2.4052236873485989e-33 -1.5224495490480845e-33 0.0000000000000000e+00  -2.3425901233993931e-33 1.4789671401469913e-33 0.0000000000000000e+00  -8.7676250730391835e-33 5.1793054087406354e-33 0.0000000000000000e+00  2.7422093239679127e-32 -1.6013783940616195e-32 0.0000000000000000e+00  2.8847773905155884e-33 -1.2081626331909577e-33 0.0000000000000000e+00  -1.4962595794350857e-31 8.0999895630175939e-32 0.0000000000000000e+00  1.9599010260236300e-31 -1.0322073746451528e-31 0.0000000000000000e+00  5.0246390760255764e-31 -2.5207823176547599e-31 0.0000000000000000e+00  -1.4794090334681537e-30 7.1963439874151132e-31 0.0000000000000000e+00  -8.7427164404844176e-31 4.0958895437847571e-31 0.0000000000000000e+00  7.9220528679984907e-30 -3.5549252659936790e-30 0.0000000000000000e+00  -2.2873039995126894e-30 9.3001273741260239e-31 0.0000000000000000e+00  -3.5041893519355129e-29 1.4438016490051191e-29 0.0000000000000000e+00  2.8846209060020557e-29 -1.0737574003658214e-29 0.0000000000000000e+00  1.4293564533327065e-28 -5.4094116192886242e-29 0.0000000000000000e+00  -1.6178386336616774e-28 5.3387313013617840e-29 0.0000000000000000e+00  -5.9604086015104673e-28 2.0429838110238349e-28 0.0000000000000000e+00  6.3376995262776882e-28 -1.8031162168316686e-28 0.0000000000000000e+00  2.4835286025634505e-27 -7.5587433447118208e-28 0.0000000000000000e+00  -1.9040285637660747e-27 4.0683816198200752e-28 0.0000000000000000e+00  -9.5810232676501299e-27 2.3879363862215138e-27 0.0000000000000000e+00  2.6026451646744800e-27 -5.2936236808364627e-29 0.0000000000000000e+00  3.0157315610064966e-26 -5.7975099600975791e-27 0.0000000000000000e+00  1.4611317323974797e-26 -3.5982974785560557e-27 0.0000000000000000e+00  -8.5281768043046934e-26 1.2043524363199720e-26 0.0000000000000000e+00  -1.2927307873691508e-25 1.7096942495310250e-26 0.0000000000000000e+00  1.4291380285841323e-25 -2.0412299206166424e-26 0.0000000000000000e+00  8.3518061161384936e-25 -9.2509505703025539e-26 0.0000000000000000e+00  1.5200300691253421e-24 -1.3620817238668858e-25 0.0000000000000000e+00  1.8476305732651014e-24 -1.2265753992906507e-25 0.0000000000000000e+00  1.8005108017034744e-24 -6.3411808668094236e-26 0.0000000000000000e+00  1.8141372440041735e-24 5.7906145634721438e-27 0.0000000000000000e+00  1.9360034104532069e-24 7.2974624638439857e-26 0.0000000000000000e+00  1.7932244058034432e-24 1.1231302836812852e-25 0.0000000000000000e+00  1.1782289732446176e-24 9.6451965483986488e-26 0.0000000000000000e+00  3.5690603826405263e-25 3.4476547963149884e-26 0.0000000000000000e+00  -1.4822785875610318e-25 -1.8829036393281805e-26 0.0000000000000000e+00  -2.0212306160186943e-25 -2.7297090472357490e-26 0.0000000000000000e+00  -3.5943497968290965e-26 -3.6671188466057916e-27 0.0000000000000000e+00  5.7442886127197573e-26 1.1822732253765365e-26 0.0000000000000000e+00  3.5179205399881818e-26 7.3699148114109391e-27 0.0000000000000000e+00  -4.7949814125464680e-27 -1.2531064550530348e-27 0.0000000000000000e+00  -1.0144614468229701e-26 -2.5469608038699678e-27 0.0000000000000000e+00  -6.0932868965321399e-28 -1.3054208929924539e-28 0.0000000000000000e+00  2.5623665212603852e-27 7.4296320467180814e-28 0.0000000000000000e+00  3.3794673337137255e-28 9.7801060007546199e-29 0.0000000000000000e+00  -6.1285623499703475e-28 -2.0013890107952000e-28 0.0000000000000000e+00  -7.6113779958479889e-29 -2.4962316289970900e-29 0.0000000000000000e+00  1.4238755548138533e-28 5.2023218150485156e-29 0.0000000000000000e+00  4.6021898230642188e-30 1.4851651217863947e-30 0.0000000000000000e+00  -3.1651277825877194e-29 -1.2746103002238049e-29 0.0000000000000000e+00  2.9945177370537535e-30 1.3447403402434068e-30 0.0000000000000000e+00  5.9699941034478385e-30 2.6453979529920898e-30 0.0000000000000000e+00  -1.7974355753604022e-30 -8.4262405124554510e-31 0.0000000000000000e+00  -8.7009822768590861e-31 -4.1570757687114209e-31 0.0000000000000000e+00  5.6965402437370914e-31 2.8847219277905987e-31 0.0000000000000000e+00  2.9021965272594904e-32 1.4161556928809992e-32 0.0000000000000000e+00  -1.2385571352922134e-31 -6.6991401992651402e-32 0.0000000000000000e+00  2.7969565848116351e-32 1.5814477022845242e-32 0.0000000000000000e+00  1.7633355451846720e-32 1.0137177356895619e-32 0.0000000000000000e+00  -1.1269679265429736e-32 -6.7347640253709390e-33 0.0000000000000000e+00  1.6506999174095149e-34 1.0294196619111483e-34 0.0000000000000000e+00  2.0166376484850097e-33 1.2899940720810013e-33 0.0000000000000000e+00  -7.6153505057507067e-34 -4.9742047158930645e-34 0.0000000000000000e+00  -1.0630755729973193e-34 -7.3784659866283146e-35 0.0000000000000000e+00  1.8235602822377474e-34 1.2657338498050392e-34 0.0000000000000000e+00  -5.1327901132836296e-35 -3.6233781759556511e-35 0.0000000000000000e+00  -1.1751244746790447e-35 -8.8148362455453810e-36 0.0000000000000000e+00  1.3391912727934031e-35 1.0052742305779333e-35 0.0000000000000000e+00  -3.5103134345488794e-36 -2.6481493304003764e-36 0.0000000000000000e+00  -8.0308176847465520e-37 -6.5639723248545567e-37 0.0000000000000000e+00  9.3035784401159073e-37 7.5079298751852330e-37 0.0000000000000000e+00  -2.7241326355666109e-37 -2.2052606815046836e-37 0.0000000000000000e+00  -3.0761921488809712e-38 -2.8184552317980174e-38 0.0000000000000000e+00  5.7611640860028616e-38 5.0062393666278725e-38 0.0000000000000000e+00  -2.2281956888507443e-38 -1.9364868870678021e-38 0.0000000000000000e+00  1.0061898359819376e-39 6.9365009261599221e-40 0.0000000000000000e+00  3.0087119195816223e-39 2.8180451569526317e-39 0.0000000000000000e+00  -1.6076621070753849e-39 -1.4952079798772938e-39 0.0000000000000000e+00  3.5723609232767017e-40 3.2832081359200031e-40 0.0000000000000000e+00  1.5596275018084924e-40 1.6117973979797109e-40 0.0000000000000000e+00  3.2986758396192589e-40 3.3526755672342038e-40 0.0000000000000000e+00  -9.1282938841083149e-40 -9.8300015400704649e-40 0.0000000000000000e+00  1.8213788527555502e-39 2.0075292893455342e-39 0.0000000000000000e+00  -1.2309762095918926e-38 -1.3635597312190646e-38 0.0000000000000000e+00  9.1626918650547642e-38 9.8332649224404481e-38 0.0000000000000000e+00  -2.2320319343868626e-37 -2.3498416191761073e-37 0.0000000000000000e+00  2.6818599935153946e-37 2.9362743946281863e-37 0.0000000000000000e+00  -3.8589149080175248e-36 -4.5316882697494886e-36 0.0000000000000000e+00  1.1556603641923494e-35 1.4415101167900663e-35 0.0000000000000000e+00  -4.8237311911959493e-35 -6.2873329392812182e-35 0.0000000000000000e+00  1.0685639121417847e-34 1.4193943840184081e-34 0.0000000000000000e+00  -2.0098652331773254e-34 -2.8905083233460868e-34 0.0000000000000000e+00  1.1259972641121374e-33 1.5444573479130503e-33 0.0000000000000000e+00  -7.0399994031620027e-34 -9.4803409149311887e-34 0.0000000000000000e+00  4.2067010354638298e-33 5.9423204500368369e-33 0.0000000000000000e+00  3.8578751603835475e-32 5.6718733968979105e-32 0.0000000000000000e+00  -1.7543861122179093e-31 -2.5779600565591512e-31 0.0000000000000000e+00  -5.1889198409966772e-31 -8.0215778521362327e-31 0.0000000000000000e+00  1.0482366896084401e-30 1.6334063712960649e-30 0.0000000000000000e+00  -2.4822229816098365e-31 -3.5396024805992190e-31 0.0000000000000000e+00  -3.0299830067450637e-30 -5.4124900501442241e-30 0.0000000000000000e+00  9.0368608860978272e-30 1.7178556172290384e-29 0.0000000000000000e+00  1.3279441301985645e-29 2.6497407602583334e-29 0.0000000000000000e+00  -8.5075397829785037e-29 -1.7155672088311311e-28 0.0000000000000000e+00  2.7410836880963936e-29 5.4202054015498706e-29 0.0000000000000000e+00  9.4663434823814599e-29 1.9481750159722660e-28 0.0000000000000000e+00  3.0100764950734555e-29 7.2724369641022983e-29 0.0000000000000000e+00  2.6622270759562082e-28 6.4929119348268530e-28 0.0000000000000000e+00  1.1619059906624471e-28 3.0435460307974621e-28 0.0000000000000000e+00  -3.0080392836333946e-28 -7.5939928853063384e-28 0.0000000000000000e+00  -3.8583609064084189e-28 -1.0848965609515195e-27 0.0000000000000000e+00  3.3796322616747661e-28 9.5412337234983748e-28 0.0000000000000000e+00  5.9643684088948770e-28 1.7918315101318062e-27 0.0000000000000000e+00  3.4895424970814999e-28 1.1714881696320542e-27 0.0000000000000000e+00  1.4125123686545669e-28 5.4311201704818251e-28 0.0000000000000000e+00  -6.8040300626325978e-28 -2.4440489981974710e-27 0.0000000000000000e+00  -2.0779161350780023e-28 -7.6726276548012432e-28 0.0000000000000000e+00  -7.4001519384231222e-29 -2.9840468888064669e-28 0.0000000000000000e+00  -3.2555613932990637e-28 -1.5069166136250247e-27 0.0000000000000000e+00  -2.7817425814651381e-28 -1.4070378974073380e-27 0.0000000000000000e+00  -3.2836595163976603e-28 -2.0196144966589066e-27 0.0000000000000000e+00  -7.3627572612749501e-29 -6.2579480718657637e-28 0.0000000000000000e+00  2.1181892055790870e-28 1.5047712338845025e-27 0.0000000000000000e+00  -1.3298694743812750e-29 -1.0942237062261988e-28 0.0000000000000000e+00  -1.8328578530682192e-28 -2.1874734023334430e-27 0.0000000000000000e+00  4.8303373294864390e-29 7.9021126933285620e-28 0.0000000000000000e+00  1.8059582455756779e-29 6.5507518064068838e-28 0.0000000000000000e+00  -2.6885073844483992e-29 -1.3841513852830794e-27 0.0000000000000000e+00  -2.6267658090780967e-30 -4.2163290015721536e-28 0.0000000000000000e+00  5.0185418111802388e-29 -1.5096918267094207e-27 0.0000000000000000e+00  -9.2345228739522545e-29 1.8156264415193372e-27 0.0000000000000000e+00  -1.2899890658094645e-28 1.6892458420882790e-27 0.0000000000000000e+00  1.4715598152686243e-28 -1.6265458422105522e-27 0.0000000000000000e+00  4.2689970895696796e-29 -3.2361902522070076e-28 0.0000000000000000e+00  2.6150954992231412e-28 -2.1730656466440680e-27 0.0000000000000000e+00  -1.4552485541698373e-28 1.3179159477287360e-27 0.0000000000000000e+00  -7.1541748477818615e-29 4.8860224072385352e-28 0.0000000000000000e+00  1.6506461571504629e-28 -8.6495548552762881e-28 0.0000000000000000e+00  6.5630423637545533e-29 -3.8546174037820972e-28 0.0000000000000000e+00  5.1815924709721894e-28 -2.6162452013487062e-27 0.0000000000000000e+00  7.1293564540716698e-28 -3.3297443821280229e-27 0.0000000000000000e+00  1.0561318077313651e-27 -4.4744130046928035e-27 0.0000000000000000e+00  3.2112226919602743e-28 -1.2063244928657681e-27 0.0000000000000000e+00  -3.3580606908718834e-28 1.2992243139176737e-27 0.0000000000000000e+00  -7.0087252916059576e-28 2.4200537872861323e-27 0.0000000000000000e+00  -8.1363731303493050e-28 2.6220245304107254e-27 0.0000000000000000e+00  -2.1307834485459470e-28 6.3189801862505009e-28 0.0000000000000000e+00  1.5899206714192339e-28 -4.7616345664600202e-28 0.0000000000000000e+00  1.5892344332751530e-28 -4.6839272919295564e-28 0.0000000000000000e+00  6.5766542638146659e-28 -1.7402337123363309e-27 0.0000000000000000e+00  2.7765819085291430e-28 -6.8684738871587805e-28 0.0000000000000000e+00  -2.3086654260206811e-28 5.6444467039656477e-28 0.0000000000000000e+00  -1.0881301895421246e-29 1.9645355965214273e-29 0.0000000000000000e+00  2.7381054537419251e-29 -6.2103183128883210e-29 0.0000000000000000e+00  6.5127065583667691e-29 -1.3819436670684548e-28 0.0000000000000000e+00  -1.3802372251123474e-29 2.8625703221096018e-29 0.0000000000000000e+00  -2.0301659999796620e-29 3.9614755066551577e-29 0.0000000000000000e+00  1.70