<?xml version="1.0"?>
<VTKFile type="UnstructuredGrid"  version="0.1"  >
<UnstructuredGrid>
<Piece  NumberOfPoints="11902" NumberOfCells="23402">
<Points>
<DataArray  type="Float64"  NumberOfComponents="3"  format="ascii">-5 -5 0  5 -5 0  5 5 0  -5 5 0  1.259149117967404 0.001341906553175302 0  -4.9 -5 0  -4.8 -5 0  -4.7 -5 0  -4.6 -5 0  -4.5 -5 0  -4.4 -5 0  -4.3 -5 0  -4.2 -5 0  -4.1 -5 0  -4 -5 0  -3.9 -5 0  -3.8 -5 0  -3.7 -5 0  -3.6 -5 0  -3.5 -5 0  -3.4 -5 0  -3.3 -5 0  -3.2 -5 0  -3.1 -5 0  -3 -5 0  -2.9 -5 0  -2.8 -5 0  -2.7 -5 0  -2.6 -5 0  -2.5 -5 0  -2.4 -5 0  -2.3 -5 0  -2.2 -5 0  -2.1 -5 0  -2 -5 0  -1.9 -5 0  -1.8 -5 0  -1.7 -5 0  -1.6 -5 0  -1.5 -5 0  -1.4 -5 0  -1.3 -5 0  -1.2 -5 0  -1.1 -5 0  -1 -5 0  -0.9000000000000004 -5 0  -0.7999999999999998 -5 0  -0.7000000000000002 -5 0  -0.5999999999999996 -5 0  -0.5 -5 0  -0.4000000000000004 -5 0  -0.2999999999999998 -5 0  -0.2000000000000002 -5 0  -0.09999999999999964 -5 0  0 -5 0  0.09999999999999964 -5 0  0.2000000000000002 -5 0  0.2999999999999998 -5 0  0.4000000000000004 -5 0  0.5 -5 0  0.5999999999999996 -5 0  0.7000000000000002 -5 0  0.7999999999999998 -5 0  0.9000000000000004 -5 0  1 -5 0  1.1 -5 0  1.2 -5 0  1.3 -5 0  1.4 -5 0  1.5 -5 0  1.6 -5 0  1.7 -5 0  1.8 -5 0  1.9 -5 0  2 -5 0  2.1 -5 0  2.2 -5 0  2.3 -5 0  2.4 -5 0  2.5 -5 0  2.6 -5 0  2.7 -5 0  2.8 -5 0  2.9 -5 0  3 -5 0  3.1 -5 0  3.199999999999999 -5 0  3.300000000000001 -5 0  3.4 -5 0  3.5 -5 0  3.6 -5 0  3.699999999999999 -5 0  3.800000000000001 -5 0  3.9 -5 0  4 -5 0  4.1 -5 0  4.199999999999999 -5 0  4.300000000000001 -5 0  4.4 -5 0  4.5 -5 0  4.6 -5 0  4.699999999999999 -5 0  4.800000000000001 -5 0  4.9 -5 0  5 -4.9 0  5 -4.8 0  5 -4.7 0  5 -4.6 0  5 -4.5 0  5 -4.4 0  5 -4.3 0  5 -4.2 0  5 -4.1 0  5 -4 0  5 -3.9 0  5 -3.8 0  5 -3.7 0  5 -3.6 0  5 -3.5 0  5 -3.4 0  5 -3.3 0  5 -3.2 0  5 -3.1 0  5 -3 0  5 -2.9 0  5 -2.8 0  5 -2.7 0  5 -2.6 0  5 -2.5 0  5 -2.4 0  5 -2.3 0  5 -2.2 0  5 -2.1 0  5 -2 0  5 -1.9 0  5 -1.8 0  5 -1.7 0  5 -1.6 0  5 -1.5 0  5 -1.4 0  5 -1.3 0  5 -1.2 0  5 -1.1 0  5 -1 0  5 -0.9000000000000004 0  5 -0.7999999999999998 0  5 -0.7000000000000002 0  5 -0.5999999999999996 0  5 -0.5 0  5 -0.4000000000000004 0  5 -0.2999999999999998 0  5 -0.2000000000000002 0  5 -0.09999999999999964 0  5 0 0  5 0.09999999999999964 0  5 0.2000000000000002 0  5 0.2999999999999998 0  5 0.4000000000000004 0  5 0.5 0  5 0.5999999999999996 0  5 0.7000000000000002 0  5 0.7999999999999998 0  5 0.9000000000000004 0  5 1 0  5 1.1 0  5 1.2 0  5 1.3 0  5 1.4 0  5 1.5 0  5 1.6 0  5 1.7 0  5 1.8 0  5 1.9 0  5 2 0  5 2.1 0  5 2.2 0  5 2.3 0  5 2.4 0  5 2.5 0  5 2.6 0  5 2.7 0  5 2.8 0  5 2.9 0  5 3 0  5 3.1 0  5 3.199999999999999 0  5 3.300000000000001 0  5 3.4 0  5 3.5 0  5 3.6 0  5 3.699999999999999 0  5 3.800000000000001 0  5 3.9 0  5 4 0  5 4.1 0  5 4.199999999999999 0  5 4.300000000000001 0  5 4.4 0  5 4.5 0  5 4.6 0  5 4.699999999999999 0  5 4.800000000000001 0  5 4.9 0  4.9 5 0  4.8 5 0  4.7 5 0  4.6 5 0  4.5 5 0  4.4 5 0  4.3 5 0  4.2 5 0  4.1 5 0  4 5 0  3.9 5 0  3.8 5 0  3.7 5 0  3.6 5 0  3.5 5 0  3.4 5 0  3.3 5 0  3.2 5 0  3.1 5 0  3 5 0  2.9 5 0  2.8 5 0  2.7 5 0  2.6 5 0  2.5 5 0  2.4 5 0  2.3 5 0  2.2 5 0  2.1 5 0  2 5 0  1.9 5 0  1.8 5 0  1.7 5 0  1.6 5 0  1.5 5 0  1.4 5 0  1.3 5 0  1.2 5 0  1.1 5 0  1 5 0  0.9000000000000004 5 0  0.7999999999999998 5 0  0.7000000000000002 5 0  0.5999999999999996 5 0  0.5 5 0  0.4000000000000004 5 0  0.2999999999999998 5 0  0.2000000000000002 5 0  0.09999999999999964 5 0  0 5 0  -0.09999999999999964 5 0  -0.2000000000000002 5 0  -0.2999999999999998 5 0  -0.4000000000000004 5 0  -0.5 5 0  -0.5999999999999996 5 0  -0.7000000000000002 5 0  -0.7999999999999998 5 0  -0.9000000000000004 5 0  -1 5 0  -1.1 5 0  -1.2 5 0  -1.3 5 0  -1.4 5 0  -1.5 5 0  -1.6 5 0  -1.7 5 0  -1.8 5 0  -1.9 5 0  -2 5 0  -2.1 5 0  -2.2 5 0  -2.3 5 0  -2.4 5 0  -2.5 5 0  -2.6 5 0  -2.7 5 0  -2.8 5 0  -2.9 5 0  -3 5 0  -3.1 5 0  -3.199999999999999 5 0  -3.300000000000001 5 0  -3.4 5 0  -3.5 5 0  -3.6 5 0  -3.699999999999999 5 0  -3.800000000000001 5 0  -3.9 5 0  -4 5 0  -4.1 5 0  -4.199999999999999 5 0  -4.300000000000001 5 0  -4.4 5 0  -4.5 5 0  -4.6 5 0  -4.699999999999999 5 0  -4.800000000000001 5 0  -4.9 5 0  -5 4.9 0  -5 4.8 0  -5 4.7 0  -5 4.6 0  -5 4.5 0  -5 4.4 0  -5 4.3 0  -5 4.2 0  -5 4.1 0  -5 4 0  -5 3.9 0  -5 3.8 0  -5 3.7 0  -5 3.6 0  -5 3.5 0  -5 3.4 0  -5 3.3 0  -5 3.2 0  -5 3.1 0  -5 3 0  -5 2.9 0  -5 2.8 0  -5 2.7 0  -5 2.6 0  -5 2.5 0  -5 2.4 0  -5 2.3 0  -5 2.2 0  -5 2.1 0  -5 2 0  -5 1.9 0  -5 1.8 0  -5 1.7 0  -5 1.6 0  -5 1.5 0  -5 1.4 0  -5 1.3 0  -5 1.2 0  -5 1.1 0  -5 1 0  -5 0.9000000000000004 0  -5 0.7999999999999998 0  -5 0.7000000000000002 0  -5 0.5999999999999996 0  -5 0.5 0  -5 0.4000000000000004 0  -5 0.2999999999999998 0  -5 0.2000000000000002 0  -5 0.09999999999999964 0  -5 0 0  -5 -0.09999999999999964 0  -5 -0.2000000000000002 0  -5 -0.2999999999999998 0  -5 -0.4000000000000004 0  -5 -0.5 0  -5 -0.5999999999999996 0  -5 -0.7000000000000002 0  -5 -0.7999999999999998 0  -5 -0.9000000000000004 0  -5 -1 0  -5 -1.1 0  -5 -1.2 0  -5 -1.3 0  -5 -1.4 0  -5 -1.5 0  -5 -1.6 0  -5 -1.7 0  -5 -1.8 0  -5 -1.9 0  -5 -2 0  -5 -2.1 0  -5 -2.2 0  -5 -2.3 0  -5 -2.4 0  -5 -2.5 0  -5 -2.6 0  -5 -2.7 0  -5 -2.8 0  -5 -2.9 0  -5 -3 0  -5 -3.1 0  -5 -3.199999999999999 0  -5 -3.300000000000001 0  -5 -3.4 0  -5 -3.5 0  -5 -3.6 0  -5 -3.699999999999999 0  -5 -3.800000000000001 0  -5 -3.9 0  -5 -4 0  -5 -4.1 0  -5 -4.199999999999999 0  -5 -4.300000000000001 0  -5 -4.4 0  -5 -4.5 0  -5 -4.6 0  -5 -4.699999999999999 0  -5 -4.800000000000001 0  -5 -4.9 0  1.251027744060716 0.09473503479127084 0  1.229324340605414 0.1923290713780048 0  1.195892246898976 0.288832321769544 0  1.153049406838082 0.3775168778581539 0  1.095100185285113 0.4683541666399996 0  1.029313057381603 0.5526120649341272 0  0.9509755841773466 0.6326185159150045 0  0.864169915861876 0.7072658951417092 0  0.7723919003262337 0.7726940303645934 0  0.670042986172623 0.8300581395554548 0  0.5581597341996893 0.8823260915105506 0  0.4456218077126703 0.9267750178461799 0  0.3332954978522831 0.958945248964947 0  0.2087194172782854 0.9805637929650139 0  0.08889545627410483 0.9994756580669857 0  -0.02705781637994436 1.002783544006852 0  -0.1447665883590668 0.9890440511121431 0  -0.2720866929197669 0.9700495813779278 0  -0.3913760186984048 0.9458252033653771 0  -0.5020130479292393 0.9098490134826623 0  -0.6114119365200207 0.8633841395384849 0  -0.7135624054333995 0.8087261979731462 0  -0.8082236713369279 0.7438723932018302 0  -0.8992478154033917 0.6703913532076782 0  -0.9848236573889266 0.5906453483644515 0  -1.059105940233496 0.5095311044824062 0  -1.120893844209163 0.424224483390984 0  -1.174211705781155 0.3318743553054304 0  -1.212154965203075 0.2427372339455921 0  -1.236634141504936 0.1485661947166462 0  -1.247665720848128 0.05162363937794703 0  -1.24761990848148 -0.04949646215062015 0  -1.236612262224878 -0.1456700318524195 0  -1.211808672509755 -0.2380718029402089 0  -1.170406237041593 -0.3328724666807786 0  -1.121246310633446 -0.4246585878874325 0  -1.060808951045658 -0.5093703201081484 0  -0.9872651834901228 -0.5896251800293392 0  -0.9023216782105414 -0.6682610842307852 0  -0.8118088246244491 -0.7398983991372869 0  -0.7158905065518371 -0.8009184113958882 0  -0.6111969073081628 -0.8540161529208992 0  -0.497322272633911 -0.9035272590394209 0  -0.3844793965643659 -0.9433305365374615 0  -0.2687883171348894 -0.9697507954923578 0  -0.1432726824338859 -0.9888768498938896 0  -0.02788561400873162 -1.001997514466655 0  0.08819591885091148 -0.9947355007101992 0  0.2142059770834691 -0.9771434029258613 0  0.3358718282324687 -0.9573523262437783 0  0.4497712961470617 -0.9254523324490531 0  0.5605651552731615 -0.8815407555525139 0  0.6710219100347834 -0.8301071357322651 0  0.7723471798516544 -0.7738074411440279 0  0.8642190146140621 -0.7083234176061202 0  0.9500123057494543 -0.632760663745333 0  1.026708480114308 -0.5515810021673552 0  1.095900361497399 -0.4672484841135067 0  1.153877353042481 -0.3778730742395142 0  1.197637701841159 -0.2868578461551278 0  1.230003868518248 -0.191473776318601 0  1.25138601530392 -0.09450031820722954 0  -2.448553071726987 4.918099035743698 0  -2.448426471405055 -4.91047596466423 0  4.910399838867631 2.447880667759106 0  4.918528166053677 -2.449343506168631 0  2.44615470043886 -4.895704362452525 0  2.440588566695848 4.899467760597584 0  -4.91042697170621 -2.447907162608772 0  -4.910424239781271 2.447911121230892 0  -1.748506822480104 4.910980295801306 0  -1.74429381107727 -4.914422700073396 0  4.920570833989208 1.744056809943652 0  4.909095698684594 -1.747816024224949 0  -4.909390190326684 -1.747550433031616 0  -4.910213028248502 1.747295507254202 0  1.745779041930064 4.904834142420722 0  1.74719091534861 -4.892973997321809 0  -1.148819534499902 4.908756429350833 0  -1.129678136902981 -4.916677222238491 0  -4.909092591067311 -1.147881654834471 0  -4.90891070440541 1.147682128545798 0  1.143815543420163 -4.91285871462463 0  1.148829485334459 4.908742962877801 0  4.909232059719359 1.146156805423997 0  4.92007565683607 -1.151944185612627 0  -0.5466574129543904 -4.909941168044738 0  -0.5464412270291482 4.918633904079883 0  -4.907812887597345 -0.5486828275078485 0  -4.907836844481825 0.5472407301532642 0  4.907130567307302 -0.549000871955834 0  4.918803082909387 0.5457615410871527 0  0.5424386640211299 -4.896805834785831 0  0.5511695456457988 4.915453436505891 0  -4.911862707438673 -3.048267881321646 0  4.918435786840992 3.046285737076309 0  4.911370214811955 -3.048243257036528 0  -4.912710705582404 3.045359702993612 0  3.055280203074277 -4.917358262863385 0  -3.048609489420018 -4.911292057658636 0  3.052177234698858 4.913370461422273 0  -3.0480552916997 4.912182150797601 0  -4.906916398414425 -0.04990518489233594 0  0.04511909530578757 -4.911890619979344 0  0.04956657970189582 4.918925069125922 0  4.91398069890294 -0.05128749269931654 0  3.54560306337802 -4.919009730566921 0  -3.548882141320647 4.9
[...]
<PointData  Vectors="f_4986"> 
<DataArray  type="Float64"  Name="f_4986"  NumberOfComponents="3" format="ascii">-5.2671051468654247e-41 -1.0265885735408478e-40 0.0000000000000000e+00  6.1082780200868220e-41 -8.9746175303343943e-41 0.0000000000000000e+00  -1.2425286036203992e-40 -1.2764638143354345e-40 0.0000000000000000e+00  -1.6316274894706303e-40 1.6952968873486602e-40 0.0000000000000000e+00  1.1102596498144651e+01 7.3368071449769673e-02 0.0000000000000000e+00  1.5271473887642985e-40 2.2745411557630513e-40 0.0000000000000000e+00  6.3087337718832531e-40 5.2704748143629954e-40 0.0000000000000000e+00  -1.6147202330356956e-39 -1.3524773777076290e-39 0.0000000000000000e+00  1.1285203388063533e-38 1.3294468566163522e-38 0.0000000000000000e+00  -4.0092531041565720e-38 -4.4339711176833965e-38 0.0000000000000000e+00  1.2655438358172064e-37 1.7360765448623744e-37 0.0000000000000000e+00  -4.5177129275320905e-37 -6.2843754587782440e-37 0.0000000000000000e+00  2.2828347341993112e-36 3.2690731415633706e-36 0.0000000000000000e+00  -1.3733687539536008e-35 -1.8758566007298576e-35 0.0000000000000000e+00  6.0172520385171522e-35 7.8658986091047297e-35 0.0000000000000000e+00  -1.4466555604541783e-34 -1.6578462974092683e-34 0.0000000000000000e+00  3.0726751070679563e-34 3.1708192696104472e-34 0.0000000000000000e+00  1.2388445573089127e-33 1.2922148834038843e-33 0.0000000000000000e+00  -4.1685978400237227e-33 -5.0776794945414454e-33 0.0000000000000000e+00  6.7892492897866481e-33 1.1065846709180511e-32 0.0000000000000000e+00  -5.1968214149930035e-32 -7.4743705283935346e-32 0.0000000000000000e+00  1.5448881802195167e-31 2.2403811855161198e-31 0.0000000000000000e+00  -1.3564941651124189e-32 -1.1106801943509385e-31 0.0000000000000000e+00  -2.2635807395323798e-31 1.4032425339473639e-31 0.0000000000000000e+00  -7.7126066753733050e-31 -1.5485009156003937e-30 0.0000000000000000e+00  -3.8880015419857592e-30 -8.2876940790003649e-30 0.0000000000000000e+00  4.0017683154924101e-30 8.3226655145554862e-30 0.0000000000000000e+00  1.9770101605931633e-30 3.0085282587439611e-31 0.0000000000000000e+00  1.5671809126256812e-29 3.8935188367636212e-29 0.0000000000000000e+00  4.9865874668097311e-30 1.4529670502453717e-29 0.0000000000000000e+00  -8.0685765881379540e-29 -1.9653827628773400e-28 0.0000000000000000e+00  -4.1440357464463962e-29 -1.0322859381693286e-28 0.0000000000000000e+00  -8.0730871889203598e-29 -2.7258590064589377e-28 0.0000000000000000e+00  9.6843236099194522e-29 3.1173636506657994e-28 0.0000000000000000e+00  2.4081688244383173e-28 9.5987227122639804e-28 0.0000000000000000e+00  5.2201548564165672e-29 -8.3989677256702603e-29 0.0000000000000000e+00  1.2319176737192458e-28 2.3910092923452918e-28 0.0000000000000000e+00  -2.5616799616169614e-29 -1.6559991780176448e-28 0.0000000000000000e+00  -3.1053498589823576e-28 -8.1332479791681117e-28 0.0000000000000000e+00  -3.0387660480754169e-28 -6.8801387968840816e-28 0.0000000000000000e+00  8.8876699779426916e-30 3.6823083335618432e-29 0.0000000000000000e+00  3.2118938504401711e-28 7.6323581810004775e-28 0.0000000000000000e+00  2.4176837554961974e-28 4.3714911559669705e-28 0.0000000000000000e+00  6.1142210064834053e-29 -4.6699475188000909e-29 0.0000000000000000e+00  1.2444282571668280e-28 1.2600502866709790e-28 0.0000000000000000e+00  -4.1044406019360219e-28 5.5591814817891661e-28 0.0000000000000000e+00  -2.5255817908347642e-28 9.6828010153722273e-28 0.0000000000000000e+00  2.4551270434288473e-28 -5.3258937253872496e-28 0.0000000000000000e+00  -1.3226956703207993e-28 3.1842596865637938e-27 0.0000000000000000e+00  -3.0644116005075308e-28 -1.3971229420836434e-29 0.0000000000000000e+00  -5.8204392669074484e-28 -2.7738297529324325e-27 0.0000000000000000e+00  -6.8145867863656178e-28 -1.4694779612504185e-27 0.0000000000000000e+00  -4.5142603393023077e-28 -2.4352660119369885e-27 0.0000000000000000e+00  2.8432269040336406e-29 -6.5657610177854437e-27 0.0000000000000000e+00  1.4487068862585779e-28 -7.4854998689629846e-27 0.0000000000000000e+00  -6.7509997627557290e-29 -1.1841083810110224e-27 0.0000000000000000e+00  -1.6046225587297251e-28 -3.8660714257515375e-27 0.0000000000000000e+00  -1.8470065510963191e-28 -1.2219907064638612e-27 0.0000000000000000e+00  -9.2505129677640252e-29 -2.3899827652385446e-27 0.0000000000000000e+00  -9.7643619081534292e-29 1.5292892645132356e-27 0.0000000000000000e+00  5.0215658626526132e-29 -3.0259127491435236e-27 0.0000000000000000e+00  1.9574861805357863e-28 -2.7172189262188929e-27 0.0000000000000000e+00  -2.6631885010795386e-29 9.1968311009934202e-28 0.0000000000000000e+00  -2.5373870243901086e-28 4.8973799365858989e-27 0.0000000000000000e+00  -1.6776301586364419e-28 1.9246173203412871e-27 0.0000000000000000e+00  -1.7247578872839007e-28 8.0280351033448411e-28 0.0000000000000000e+00  -3.4332442772868724e-28 2.6617205952135174e-27 0.0000000000000000e+00  -1.9612436309545011e-28 1.3922699454078104e-27 0.0000000000000000e+00  2.2003837854642661e-28 -1.8001642371782902e-27 0.0000000000000000e+00  1.7644336031842583e-28 -7.7110608794704122e-28 0.0000000000000000e+00  1.2852811299469790e-29 -3.6216749514938420e-29 0.0000000000000000e+00  1.7109401342192987e-28 -4.7178467155869112e-28 0.0000000000000000e+00  1.0772793017776832e-28 -4.3412782286412758e-28 0.0000000000000000e+00  -1.1139578058693554e-28 4.3104761931050499e-28 0.0000000000000000e+00  -5.4726569963431803e-29 2.6034739272168409e-28 0.0000000000000000e+00  -3.9557353080533657e-29 1.5493175668831231e-28 0.0000000000000000e+00  2.9815751250008854e-29 -1.0248248405423438e-28 0.0000000000000000e+00  2.6636102740877073e-29 -8.6518758922298599e-29 0.0000000000000000e+00  4.8361032774774476e-29 -1.4436769682429379e-28 0.0000000000000000e+00  -7.6096486293047019e-30 1.3082065934558932e-29 0.0000000000000000e+00  -4.8511816978131476e-29 1.2482542911302720e-28 0.0000000000000000e+00  7.2443904871287870e-30 -1.8371907990451209e-29 0.0000000000000000e+00  3.1778761421776459e-30 -7.8750243908951935e-30 0.0000000000000000e+00  -8.2895161529224937e-30 1.6394032397806297e-29 0.0000000000000000e+00  -6.8062211807617918e-31 7.6187592867288354e-31 0.0000000000000000e+00  9.2642833971131061e-31 -1.4906292750975920e-30 0.0000000000000000e+00  -4.2663160952745725e-31 6.6502918413037593e-31 0.0000000000000000e+00  7.5752930719162293e-32 -1.1586036710863567e-31 0.0000000000000000e+00  -7.7377165319314282e-33 1.2366486817205105e-32 0.0000000000000000e+00  -2.8598357614040743e-33 3.1194344376890897e-33 0.0000000000000000e+00  4.7695867437627296e-33 -5.4274646059572947e-33 0.0000000000000000e+00  -2.0151949462961830e-34 2.4595703177407259e-34 0.0000000000000000e+00  -1.1101107922374253e-34 1.2033579017926433e-34 0.0000000000000000e+00  -8.2316167883414289e-36 1.3118584805781875e-35 0.0000000000000000e+00  -1.0615825121380977e-36 2.6025932772076349e-36 0.0000000000000000e+00  1.7941850300310405e-36 -2.0522374580521590e-36 0.0000000000000000e+00  -1.3300262458367184e-36 1.2864006316951648e-36 0.0000000000000000e+00  3.8931859722167279e-37 -4.1264906877230376e-37 0.0000000000000000e+00  -1.9223200967876218e-37 1.9143088136115430e-37 0.0000000000000000e+00  6.3265561618336262e-38 -6.1064346845379963e-38 0.0000000000000000e+00  -1.1464836207249311e-38 1.1372499180688992e-38 0.0000000000000000e+00  4.3021199300670697e-39 -4.2992966119412745e-39 0.0000000000000000e+00  -3.7136645411488183e-40 3.0449359816689887e-40 0.0000000000000000e+00  -1.0875479818595593e-40 1.5853936336064512e-40 0.0000000000000000e+00  5.7741219619737353e-42 -1.3913353528740720e-42 0.0000000000000000e+00  3.0697215855964382e-40 -2.5337298922280079e-40 0.0000000000000000e+00  -6.8431830519601139e-40 5.6650042341991577e-40 0.0000000000000000e+00  1.6901458904662130e-39 -1.7996855026281068e-39 0.0000000000000000e+00  7.5772498251905965e-40 4.7196775673602572e-40 0.0000000000000000e+00  -1.3797586848168213e-38 1.0176865044542455e-38 0.0000000000000000e+00  3.8114906797700247e-38 -3.3969117469581036e-38 0.0000000000000000e+00  -2.5057039838163980e-38 3.6424129154782423e-38 0.0000000000000000e+00  -1.7871752576914439e-37 1.1001437417404207e-37 0.0000000000000000e+00  7.0338310626167917e-37 -5.4759363030761719e-37 0.0000000000000000e+00  -8.2144972201536012e-37 8.0194754177001720e-37 0.0000000000000000e+00  -2.1683457574191807e-36 1.1985780894073298e-36 0.0000000000000000e+00  1.0557271759122828e-35 -7.6273914424286554e-36 0.0000000000000000e+00  -1.5195744801006149e-35 1.2570239257695049e-35 0.0000000000000000e+00  -2.7097587949034370e-35 1.5350852080012056e-35 0.0000000000000000e+00  1.5559785087006855e-34 -1.0770432277342938e-34 0.0000000000000000e+00  -1.9439145302198380e-34 1.4607069502125554e-34 0.0000000000000000e+00  -4.4216928062264712e-34 2.7802965779670693e-34 0.0000000000000000e+00  2.0529974466906305e-33 -1.3733034119947555e-33 0.0000000000000000e+00  -1.5533789985765157e-33 1.0630188227739465e-33 0.0000000000000000e+00  -8.1944787933374891e-33 5.3104960805755056e-33 0.0000000000000000e+00  2.2584634948138083e-32 -1.4351730816882304e-32 0.0000000000000000e+00  6.0301008620540341e-33 -4.6469023552665056e-33 0.0000000000000000e+00  -1.2803080059754424e-31 7.9888085264644908e-32 0.0000000000000000e+00  1.5353035185455264e-31 -8.6233077981208659e-32 0.0000000000000000e+00  4.3689701254824213e-31 -2.7624492834873094e-31 0.0000000000000000e+00  -1.2133842282226228e-30 6.8312060249430947e-31 0.0000000000000000e+00  -7.8990414828544639e-31 5.8038666577722695e-31 0.0000000000000000e+00  6.5791981879086605e-30 -3.6483270711056490e-30 0.0000000000000000e+00  -1.7710324552625874e-30 1.7005599478572040e-31 0.0000000000000000e+00  -2.9352641094007924e-29 1.6029989075584152e-29 0.0000000000000000e+00  2.4381583121112027e-29 -8.2365806244552656e-30 0.0000000000000000e+00  1.2137371126648594e-28 -6.5475848197347434e-29 0.0000000000000000e+00  -1.4223446606522777e-28 4.5975190713861156e-29 0.0000000000000000e+00  -5.1948193499355648e-28 2.7064574357047134e-28 0.0000000000000000e+00  5.8654118970847468e-28 -1.3621414741554903e-28 0.0000000000000000e+00  2.2457703739601650e-27 -1.0850266489146951e-27 0.0000000000000000e+00  -1.8460935922404569e-27 8.9078245292789925e-29 0.0000000000000000e+00  -9.1590126324345040e-27 3.5090882690169545e-27 0.0000000000000000e+00  2.5133339559231964e-27 1.8774262063409920e-27 0.0000000000000000e+00  3.0050299945193105e-26 -7.9744921526689588e-27 0.0000000000000000e+00  1.9528146133048599e-26 -1.3329523988361994e-26 0.0000000000000000e+00  -6.8942795600185769e-26 7.6861058947459893e-28 0.0000000000000000e+00  -1.0134692937337651e-25 9.0796023362555550e-27 0.0000000000000000e+00  1.7002737347956175e-25 -4.5102686908865739e-26 0.0000000000000000e+00  8.3585505323744280e-25 -1.8584673598389356e-25 0.0000000000000000e+00  1.4645423311823884e-24 -3.1378941575323692e-25 0.0000000000000000e+00  1.7260823357539882e-24 -3.2745236775647243e-25 0.0000000000000000e+00  1.6396878585930734e-24 -1.8629156687957470e-25 0.0000000000000000e+00  1.6526607963350317e-24 2.9660590593544077e-26 0.0000000000000000e+00  1.8091195499838786e-24 2.2226782013630680e-25 0.0000000000000000e+00  1.7207976804203016e-24 2.9322793085593017e-25 0.0000000000000000e+00  1.1679463929744724e-24 2.2251151115516466e-25 0.0000000000000000e+00  3.9916635218522854e-25 7.9379329174581733e-26 0.0000000000000000e+00  -8.7685194185732091e-26 -2.0765713929719878e-26 0.0000000000000000e+00  -1.6407579241330227e-25 -3.5880226926519364e-26 0.0000000000000000e+00  -3.4142804225151514e-26 -3.4248895556832613e-27 0.0000000000000000e+00  4.3852635619130429e-26 1.5777293641913726e-26 0.0000000000000000e+00  2.8977014252652781e-26 9.8068626651041208e-27 0.0000000000000000e+00  -1.4864829348513595e-27 -1.1393363036255746e-28 0.0000000000000000e+00  -6.4570124511956349e-27 -1.8650994341402757e-27 0.0000000000000000e+00  -4.1797455637111033e-28 -1.9367987500187900e-29 0.0000000000000000e+00  1.5182356102773524e-27 5.0689381740938612e-28 0.0000000000000000e+00  1.2245899670939727e-28 -4.9086640062842457e-30 0.0000000000000000e+00  -3.6571140541345358e-28 -1.3630260950503239e-28 0.0000000000000000e+00  -1.1137905300140598e-29 1.2441275009979101e-29 0.0000000000000000e+00  8.6161566236695772e-29 3.4654743902468554e-29 0.0000000000000000e+00  -7.4289341614182821e-30 -8.4747362898135106e-30 0.0000000000000000e+00  -1.8905571118858162e-29 -7.8927011977710689e-30 0.0000000000000000e+00  4.1676147708677606e-30 3.2706159868399383e-30 0.0000000000000000e+00  3.3823124718028986e-30 1.3422562135741101e-30 0.0000000000000000e+00  -1.5727335436384193e-30 -1.0596658019277182e-30 0.0000000000000000e+00  -4.2909743247184722e-31 -1.1808142474902510e-31 0.0000000000000000e+00  4.3394033164871990e-31 2.7150128347884748e-31 0.0000000000000000e+00  -1.8060605740615458e-32 -3.8982343575563673e-32 0.0000000000000000e+00  -8.7430923571365095e-32 -5.1519693413731772e-32 0.0000000000000000e+00  2.7380207791928286e-32 2.2093003581034930e-32 0.0000000000000000e+00  1.0627272785076113e-32 5.1353640971747540e-33 0.0000000000000000e+00  -9.0034423081138490e-33 -6.2703628337579335e-33 0.0000000000000000e+00  7.5427464203274004e-34 8.4503169205694639e-34 0.0000000000000000e+00  1.4189885261188830e-33 9.3147628476005585e-34 0.0000000000000000e+00  -6.6497770134326323e-34 -4.9650981697098867e-34 0.0000000000000000e+00  -2.3571527724134383e-35 -4.6962239902508384e-36 0.0000000000000000e+00  1.3289814954169180e-34 9.7023901629196359e-35 0.0000000000000000e+00  -4.7925875668795340e-35 -3.6058547906228193e-35 0.0000000000000000e+00  -3.7058954452271166e-36 -3.2519368646388843e-36 0.0000000000000000e+00  9.5193824625035370e-36 7.5168510266388650e-36 0.0000000000000000e+00  -3.3413241877873902e-36 -2.5043170248588463e-36 0.0000000000000000e+00  -1.4956076555671269e-37 -2.4058379379386205e-37 0.0000000000000000e+00  5.9942812501487317e-37 5.2023060169984380e-37 0.0000000000000000e+00  -2.3729216178016777e-37 -1.8476222345629347e-37 0.0000000000000000e+00  1.2445172727577128e-38 -3.0882191376350005e-39 0.0000000000000000e+00  3.0609702607473439e-38 3.0985269484076823e-38 0.0000000000000000e+00  -1.6172825120234612e-38 -1.4006970183429065e-38 0.0000000000000000e+00  2.7516969669011613e-39 1.4610832679712623e-39 0.0000000000000000e+00  1.1037982657880694e-39 1.4898147614511945e-39 0.0000000000000000e+00  -9.1277440702427790e-40 -9.3015434022021866e-40 0.0000000000000000e+00  2.8471677692112952e-40 2.4120987634238853e-40 0.0000000000000000e+00  2.9584695801502420e-41 7.2322315968492684e-41 0.0000000000000000e+00  2.1454036416537158e-40 2.0748252481594943e-40 0.0000000000000000e+00  -3.8668670569105003e-40 -5.2252779285238809e-40 0.0000000000000000e+00  8.8079782286275935e-40 1.1314517737561731e-39 0.0000000000000000e+00  -4.9409511834762386e-39 -7.1168331321098589e-39 0.0000000000000000e+00  4.5366987273936658e-38 5.3432116051396502e-38 0.0000000000000000e+00  -1.2484330529006288e-37 -1.3341539678678596e-37 0.0000000000000000e+00  1.8182641061708483e-37 2.0368673763183292e-37 0.0000000000000000e+00  -2.4588161844694400e-36 -2.9842005594708941e-36 0.0000000000000000e+00  7.8471601737308128e-36 1.0276123889334878e-35 0.0000000000000000e+00  -3.1384352566962684e-35 -4.3619211458083156e-35 0.0000000000000000e+00  6.0841038380237528e-35 8.4688916243214797e-35 0.0000000000000000e+00  -3.5920642714527844e-35 -8.5379189498621582e-35 0.0000000000000000e+00  1.9681278423256280e-34 4.3984849962511304e-34 0.0000000000000000e+00  1.5931935469889669e-33 1.5277861128474418e-33 0.0000000000000000e+00  -1.1643583506346132e-33 -1.2093570082085150e-34 0.0000000000000000e+00  2.5629324073601129e-32 3.3492722048484800e-32 0.0000000000000000e+00  -8.2458832916051865e-32 -1.1505038160056928e-31 0.0000000000000000e+00  -4.2440633166506473e-31 -6.0110344779682841e-31 0.0000000000000000e+00  1.1093808923784104e-30 1.5978105179481403e-30 0.0000000000000000e+00  -9.4650804925688683e-31 -1.5035439060391981e-30 0.0000000000000000e+00  -2.8353224221386473e-30 -5.8506030924902753e-30 0.0000000000000000e+00  1.0506179610182166e-29 2.5122108740368193e-29 0.0000000000000000e+00  1.2048019643242796e-29 2.8912645280034496e-29 0.0000000000000000e+00  -6.9099832333666509e-29 -1.7759104207116741e-28 0.0000000000000000e+00  1.8555607353326420e-29 4.3223295273075457e-29 0.0000000000000000e+00  9.0356870410300630e-29 1.8490345993159416e-28 0.0000000000000000e+00  1.0563475736009522e-29 7.1768185046119278e-29 0.0000000000000000e+00  1.3626833066052569e-28 5.5661362868154259e-28 0.0000000000000000e+00  6.9758850837654925e-29 2.3853832945981911e-28 0.0000000000000000e+00  -1.2916142438642650e-28 -4.1222435898799512e-28 0.0000000000000000e+00  -3.3394803426995621e-28 -1.3520469373480505e-27 0.0000000000000000e+00  2.1115189819353560e-28 8.9878682235779980e-28 0.0000000000000000e+00  3.1039872041807799e-28 1.3453335911590171e-27 0.0000000000000000e+00  3.0612564171823706e-28 1.4006156630196268e-27 0.0000000000000000e+00  2.9670288339763513e-28 1.2370829696495676e-27 0.0000000000000000e+00  -3.7500004455289447e-28 -1.8456047032613110e-27 0.0000000000000000e+00  2.2034646502873591e-29 7.9330323560630976e-29 0.0000000000000000e+00  7.2015777426399144e-29 3.0893103477165333e-28 0.0000000000000000e+00  -1.7259879184024217e-28 -1.0170003676549136e-27 0.0000000000000000e+00  -1.2316027651798622e-28 -9.6005819735593909e-28 0.0000000000000000e+00  -3.4570829820616563e-28 -3.3147536967078520e-27 0.0000000000000000e+00  -3.2732551694125641e-28 -2.6058399010315035e-27 0.0000000000000000e+00  -1.6850384967086832e-28 -3.7445620692414706e-28 0.0000000000000000e+00  -1.2951364799431128e-28 -1.5046681999083665e-27 0.0000000000000000e+00  1.3929148379530948e-28 -2.1693124970934385e-27 0.0000000000000000e+00  -2.4503448154281091e-28 -4.3288237403393548e-28 0.0000000000000000e+00  -2.1854303783854721e-28 -5.8154072790352192e-28 0.0000000000000000e+00  2.1930374092072227e-28 -1.9212476691960276e-27 0.0000000000000000e+00  6.0876143940152547e-29 -1.1344689641050979e-27 0.0000000000000000e+00  3.5841395144870012e-28 -2.1341836132028732e-27 0.0000000000000000e+00  -3.8552994825378875e-28 1.1654181393635701e-27 0.0000000000000000e+00  -3.6992297533822759e-28 1.0865481098312340e-27 0.0000000000000000e+00  4.9475735934206948e-28 -1.9664595786920336e-27 0.0000000000000000e+00  2.0264771634445910e-28 -6.7815816819508695e-28 0.0000000000000000e+00  4.1502708596442137e-28 -2.1954436233303058e-27 0.0000000000000000e+00  5.5578976443178207e-29 6.2200547743182055e-28 0.0000000000000000e+00  4.6059250426747500e-29 7.4707036707768516e-29 0.0000000000000000e+00  3.2498096899633944e-28 -1.3473356665220807e-27 0.0000000000000000e+00  1.5841975139866363e-28 -6.7840538827044987e-28 0.0000000000000000e+00  3.6757842359587366e-28 -2.4340908334836705e-27 0.0000000000000000e+00  4.6514853813625898e-28 -3.2060327225454758e-27 0.0000000000000000e+00  5.1306927589276533e-28 -3.8561510983014029e-27 0.0000000000000000e+00  1.5670811526842629e-28 -9.1003707596824538e-28 0.0000000000000000e+00  -1.5096110006723521e-28 1.3499706339371848e-27 0.0000000000000000e+00  -2.5941739634357671e-28 1.7728721873701247e-27 0.0000000000000000e+00  -2.9413417527381798e-28 1.7720129227272008e-27 0.0000000000000000e+00  -6.7535045705036112e-29 3.5807514074639610e-28 0.0000000000000000e+00  6.5200554335034315e-29 -4.1898882482272819e-28 0.0000000000000000e+00  3.8319239157680386e-29 -2.2263067824098566e-28 0.0000000000000000e+00  1.7178711317397595e-28 -8.8147000846262517e-28 0.0000000000000000e+00  5.7185074660817284e-29 -3.0668191988769179e-28 0.0000000000000000e+00  -7.0985648288037384e-29 3.3844388910371540e-28 0.0000000000000000e+00  1.4335725348526605e-29 -7.2070724386907732e-29 0.0000000000000000e+00  6.3569558505219753e-30 -1.7680824969539910e-29 0.0000000000000000e+00  8.6863865252612618e-30 -2.6093796762616014e-29 0.0000000000000000e+00  -3.4610925559330150e-30 7.7812075992666335e-30 0.0000000000000000e+00  -6.2632881325724539e-30 1.4971527651276088e-29 0.0000000000000000e+00  -2.029087