<?xml version="1.0"?>
<VTKFile type="UnstructuredGrid"  version="0.1"  >
<UnstructuredGrid>
<Piece  NumberOfPoints="11902" NumberOfCells="23402">
<Points>
<DataArray  type="Float64"  NumberOfComponents="3"  format="ascii">-5 -5 0  5 -5 0  5 5 0  -5 5 0  1.256579332779437 0.001349686648796464 0  -4.9 -5 0  -4.8 -5 0  -4.7 -5 0  -4.6 -5 0  -4.5 -5 0  -4.4 -5 0  -4.3 -5 0  -4.2 -5 0  -4.1 -5 0  -4 -5 0  -3.9 -5 0  -3.8 -5 0  -3.7 -5 0  -3.6 -5 0  -3.5 -5 0  -3.4 -5 0  -3.3 -5 0  -3.2 -5 0  -3.1 -5 0  -3 -5 0  -2.9 -5 0  -2.8 -5 0  -2.7 -5 0  -2.6 -5 0  -2.5 -5 0  -2.4 -5 0  -2.3 -5 0  -2.2 -5 0  -2.1 -5 0  -2 -5 0  -1.9 -5 0  -1.8 -5 0  -1.7 -5 0  -1.6 -5 0  -1.5 -5 0  -1.4 -5 0  -1.3 -5 0  -1.2 -5 0  -1.1 -5 0  -1 -5 0  -0.9000000000000004 -5 0  -0.7999999999999998 -5 0  -0.7000000000000002 -5 0  -0.5999999999999996 -5 0  -0.5 -5 0  -0.4000000000000004 -5 0  -0.2999999999999998 -5 0  -0.2000000000000002 -5 0  -0.09999999999999964 -5 0  0 -5 0  0.09999999999999964 -5 0  0.2000000000000002 -5 0  0.2999999999999998 -5 0  0.4000000000000004 -5 0  0.5 -5 0  0.5999999999999996 -5 0  0.7000000000000002 -5 0  0.7999999999999998 -5 0  0.9000000000000004 -5 0  1 -5 0  1.1 -5 0  1.2 -5 0  1.3 -5 0  1.4 -5 0  1.5 -5 0  1.6 -5 0  1.7 -5 0  1.8 -5 0  1.9 -5 0  2 -5 0  2.1 -5 0  2.2 -5 0  2.3 -5 0  2.4 -5 0  2.5 -5 0  2.6 -5 0  2.7 -5 0  2.8 -5 0  2.9 -5 0  3 -5 0  3.1 -5 0  3.199999999999999 -5 0  3.300000000000001 -5 0  3.4 -5 0  3.5 -5 0  3.6 -5 0  3.699999999999999 -5 0  3.800000000000001 -5 0  3.9 -5 0  4 -5 0  4.1 -5 0  4.199999999999999 -5 0  4.300000000000001 -5 0  4.4 -5 0  4.5 -5 0  4.6 -5 0  4.699999999999999 -5 0  4.800000000000001 -5 0  4.9 -5 0  5 -4.9 0  5 -4.8 0  5 -4.7 0  5 -4.6 0  5 -4.5 0  5 -4.4 0  5 -4.3 0  5 -4.2 0  5 -4.1 0  5 -4 0  5 -3.9 0  5 -3.8 0  5 -3.7 0  5 -3.6 0  5 -3.5 0  5 -3.4 0  5 -3.3 0  5 -3.2 0  5 -3.1 0  5 -3 0  5 -2.9 0  5 -2.8 0  5 -2.7 0  5 -2.6 0  5 -2.5 0  5 -2.4 0  5 -2.3 0  5 -2.2 0  5 -2.1 0  5 -2 0  5 -1.9 0  5 -1.8 0  5 -1.7 0  5 -1.6 0  5 -1.5 0  5 -1.4 0  5 -1.3 0  5 -1.2 0  5 -1.1 0  5 -1 0  5 -0.9000000000000004 0  5 -0.7999999999999998 0  5 -0.7000000000000002 0  5 -0.5999999999999996 0  5 -0.5 0  5 -0.4000000000000004 0  5 -0.2999999999999998 0  5 -0.2000000000000002 0  5 -0.09999999999999964 0  5 0 0  5 0.09999999999999964 0  5 0.2000000000000002 0  5 0.2999999999999998 0  5 0.4000000000000004 0  5 0.5 0  5 0.5999999999999996 0  5 0.7000000000000002 0  5 0.7999999999999998 0  5 0.9000000000000004 0  5 1 0  5 1.1 0  5 1.2 0  5 1.3 0  5 1.4 0  5 1.5 0  5 1.6 0  5 1.7 0  5 1.8 0  5 1.9 0  5 2 0  5 2.1 0  5 2.2 0  5 2.3 0  5 2.4 0  5 2.5 0  5 2.6 0  5 2.7 0  5 2.8 0  5 2.9 0  5 3 0  5 3.1 0  5 3.199999999999999 0  5 3.300000000000001 0  5 3.4 0  5 3.5 0  5 3.6 0  5 3.699999999999999 0  5 3.800000000000001 0  5 3.9 0  5 4 0  5 4.1 0  5 4.199999999999999 0  5 4.300000000000001 0  5 4.4 0  5 4.5 0  5 4.6 0  5 4.699999999999999 0  5 4.800000000000001 0  5 4.9 0  4.9 5 0  4.8 5 0  4.7 5 0  4.6 5 0  4.5 5 0  4.4 5 0  4.3 5 0  4.2 5 0  4.1 5 0  4 5 0  3.9 5 0  3.8 5 0  3.7 5 0  3.6 5 0  3.5 5 0  3.4 5 0  3.3 5 0  3.2 5 0  3.1 5 0  3 5 0  2.9 5 0  2.8 5 0  2.7 5 0  2.6 5 0  2.5 5 0  2.4 5 0  2.3 5 0  2.2 5 0  2.1 5 0  2 5 0  1.9 5 0  1.8 5 0  1.7 5 0  1.6 5 0  1.5 5 0  1.4 5 0  1.3 5 0  1.2 5 0  1.1 5 0  1 5 0  0.9000000000000004 5 0  0.7999999999999998 5 0  0.7000000000000002 5 0  0.5999999999999996 5 0  0.5 5 0  0.4000000000000004 5 0  0.2999999999999998 5 0  0.2000000000000002 5 0  0.09999999999999964 5 0  0 5 0  -0.09999999999999964 5 0  -0.2000000000000002 5 0  -0.2999999999999998 5 0  -0.4000000000000004 5 0  -0.5 5 0  -0.5999999999999996 5 0  -0.7000000000000002 5 0  -0.7999999999999998 5 0  -0.9000000000000004 5 0  -1 5 0  -1.1 5 0  -1.2 5 0  -1.3 5 0  -1.4 5 0  -1.5 5 0  -1.6 5 0  -1.7 5 0  -1.8 5 0  -1.9 5 0  -2 5 0  -2.1 5 0  -2.2 5 0  -2.3 5 0  -2.4 5 0  -2.5 5 0  -2.6 5 0  -2.7 5 0  -2.8 5 0  -2.9 5 0  -3 5 0  -3.1 5 0  -3.199999999999999 5 0  -3.300000000000001 5 0  -3.4 5 0  -3.5 5 0  -3.6 5 0  -3.699999999999999 5 0  -3.800000000000001 5 0  -3.9 5 0  -4 5 0  -4.1 5 0  -4.199999999999999 5 0  -4.300000000000001 5 0  -4.4 5 0  -4.5 5 0  -4.6 5 0  -4.699999999999999 5 0  -4.800000000000001 5 0  -4.9 5 0  -5 4.9 0  -5 4.8 0  -5 4.7 0  -5 4.6 0  -5 4.5 0  -5 4.4 0  -5 4.3 0  -5 4.2 0  -5 4.1 0  -5 4 0  -5 3.9 0  -5 3.8 0  -5 3.7 0  -5 3.6 0  -5 3.5 0  -5 3.4 0  -5 3.3 0  -5 3.2 0  -5 3.1 0  -5 3 0  -5 2.9 0  -5 2.8 0  -5 2.7 0  -5 2.6 0  -5 2.5 0  -5 2.4 0  -5 2.3 0  -5 2.2 0  -5 2.1 0  -5 2 0  -5 1.9 0  -5 1.8 0  -5 1.7 0  -5 1.6 0  -5 1.5 0  -5 1.4 0  -5 1.3 0  -5 1.2 0  -5 1.1 0  -5 1 0  -5 0.9000000000000004 0  -5 0.7999999999999998 0  -5 0.7000000000000002 0  -5 0.5999999999999996 0  -5 0.5 0  -5 0.4000000000000004 0  -5 0.2999999999999998 0  -5 0.2000000000000002 0  -5 0.09999999999999964 0  -5 0 0  -5 -0.09999999999999964 0  -5 -0.2000000000000002 0  -5 -0.2999999999999998 0  -5 -0.4000000000000004 0  -5 -0.5 0  -5 -0.5999999999999996 0  -5 -0.7000000000000002 0  -5 -0.7999999999999998 0  -5 -0.9000000000000004 0  -5 -1 0  -5 -1.1 0  -5 -1.2 0  -5 -1.3 0  -5 -1.4 0  -5 -1.5 0  -5 -1.6 0  -5 -1.7 0  -5 -1.8 0  -5 -1.9 0  -5 -2 0  -5 -2.1 0  -5 -2.2 0  -5 -2.3 0  -5 -2.4 0  -5 -2.5 0  -5 -2.6 0  -5 -2.7 0  -5 -2.8 0  -5 -2.9 0  -5 -3 0  -5 -3.1 0  -5 -3.199999999999999 0  -5 -3.300000000000001 0  -5 -3.4 0  -5 -3.5 0  -5 -3.6 0  -5 -3.699999999999999 0  -5 -3.800000000000001 0  -5 -3.9 0  -5 -4 0  -5 -4.1 0  -5 -4.199999999999999 0  -5 -4.300000000000001 0  -5 -4.4 0  -5 -4.5 0  -5 -4.6 0  -5 -4.699999999999999 0  -5 -4.800000000000001 0  -5 -4.9 0  1.248595792802613 0.0951337222894187 0  1.227107964856496 0.1926246634815305 0  1.193730733723957 0.2891252793225094 0  1.150909585746839 0.3780108102077177 0  1.093235108983507 0.4687789999864024 0  1.027678675628163 0.5531796942902311 0  0.9495814251854253 0.6330779641920289 0  0.8630142889395133 0.7075640316625234 0  0.7712916649402779 0.7729805981684359 0  0.6689911527703305 0.8303559978243163 0  0.5575825007846491 0.8826461480655858 0  0.4452892755806503 0.9268508808529836 0  0.3327250408872612 0.9591695191826691 0  0.2086342625138724 0.980721612206559 0  0.08912081430386076 0.999531727538379 0  -0.02721296741698046 1.002786030772613 0  -0.1449543882721689 0.9891747982862655 0  -0.2715940115468847 0.9703657614646009 0  -0.3906656980283487 0.9460314898911493 0  -0.5014488886348053 0.9099126357549681 0  -0.6106106319405554 0.8634728819058743 0  -0.7127786535977487 0.8089088589707348 0  -0.8073937493676844 0.7440932394551163 0  -0.8981474610925195 0.6708240371724912 0  -0.9833486259691209 0.5912409352204105 0  -1.057303215024247 0.5101570284579534 0  -1.118998849664459 0.4246488512382563 0  -1.171795853594634 0.3325542426791702 0  -1.20977185477421 0.2428244875175162 0  -1.234267125650028 0.1485361957219103 0  -1.245532415869198 0.05139080242059244 0  -1.245482138006438 -0.04929741188216285 0  -1.234231174334905 -0.1457001791526324 0  -1.209457498801676 -0.238491419701334 0  -1.168406359173029 -0.3332958352086237 0  -1.119319301995377 -0.424907160907304 0  -1.058914743288604 -0.50995756141242 0  -0.9857351758362104 -0.5902133807268117 0  -0.9011603584164867 -0.6686495609455904 0  -0.8108541564716716 -0.7401954623513518 0  -0.7148992526273756 -0.8012101633714241 0  -0.6103025544604678 -0.8543223687403821 0  -0.4969349948455513 -0.9037428583658691 0  -0.3841043140887543 -0.9434227048426794 0  -0.268323838584018 -0.969999672154889 0  -0.1435207959756738 -0.9889251862654683 0  -0.02794012270714932 -1.0019844912072 0  0.08861316337512211 -0.9948319414017913 0  0.2138317410307639 -0.9774427286591083 0  0.3352040948684977 -0.9576023813113967 0  0.4494215116777313 -0.9255244369143842 0  0.5599374183424081 -0.8818261337363617 0  0.6699157634552568 -0.8304207345482323 0  0.7712596389428857 -0.7741069142369762 0  0.8631201866280568 -0.7085633958606006 0  0.9487699143134328 -0.6331490285267779 0  1.025074856387053 -0.5522311124427486 0  1.093869652120166 -0.4677138555518611 0  1.151772327385682 -0.3782885273156661 0  1.19548042498633 -0.2871135217653724 0  1.227761687091228 -0.1917528640779118 0  1.248918170669232 -0.09487043134289116 0  -2.448563504256104 4.918117857689361 0  -2.448437878074723 -4.910496533587937 0  4.910420947697915 2.447895233261477 0  4.918547309060286 -2.449356710131256 0  2.446167927157037 -4.8957284713344 0  2.44060140743999 4.899491106259029 0  -4.910447947635619 -2.447921584184177 0  -4.910445235267433 2.447925494413838 0  -1.748517675182745 4.911007588818731 0  -1.744304254958267 -4.914448947365218 0  4.920597466265721 1.744069996771271 0  4.909126096415977 -1.747831076384182 0  -4.909420323811901 -1.747565336469838 0  -4.910242911828719 1.747310197635001 0  1.745790651410921 4.904863488277062 0  1.747203852036788 -4.893006923240434 0  -1.148828202568678 4.908789657602408 0  -1.129686002787647 -4.916707647703404 0  -4.909130288440751 -1.147893926471417 0  -4.908948496796096 1.147694321567766 0  1.143823679620753 -4.912890519222844 0  1.148838163156458 4.90877630075582 0  4.909269993445744 1.146169168773613 0  4.920108974867834 -1.151955051711703 0  -0.5466619994124535 -4.909977431499431 0  -0.5464452874931471 4.918666727778278 0  -4.907856667815077 -0.548689666007701 0  -4.90788063214018 0.5472474301524465 0  4.907174991627037 -0.5490077535195907 0  4.918841947914141 0.5457675830796338 0  0.5424436390080428 -4.89684746830758 0  0.5511738063162427 4.915487577794673 0  -4.911876873547619 -3.048279802110661 0  4.918448985240169 3.046296878764669 0  4.911384502432481 -3.048255326826428 0  -4.912724777685534 3.045371494083154 0  3.055289457988584 -4.91737197418851 0  -3.04861947016566 -4.911306754511266 0  3.052186997596406 4.91338489051765 0  -3.048065179366377 4.912196701400681 0  -4.90696245174404 -0.04990589672363903 0  0.04511935641793358 -4.91192719062841 0  0.04956696110126593 4.918958785808542 0  4.914023572164314 -0.05128808290819392 0  3.545610366002323 -4.919019291663539 0  -3.548890083800462 4.911
[...]
<PointData  Vectors="f_4674"> 
<DataArray  type="Float64"  Name="f_4674"  NumberOfComponents="3" format="ascii">-8.5801869322945994e-41 -1.2261613780735497e-40 0.0000000000000000e+00  7.2756093694371135e-41 -1.0519176883753410e-40 0.0000000000000000e+00  -1.5803071758050310e-40 -1.5638396074722499e-40 0.0000000000000000e+00  -1.8169702611079869e-40 1.9087627024900252e-40 0.0000000000000000e+00  1.1707962878674463e+01 -2.7567861802391802e-01 0.0000000000000000e+00  2.2002282464311654e-40 2.7165132735185641e-40 0.0000000000000000e+00  9.2756349540349191e-40 8.6011808834411801e-40 0.0000000000000000e+00  -2.5387833858699055e-39 -2.4949709703683339e-39 0.0000000000000000e+00  1.7286187986935525e-38 1.9531731400122678e-38 0.0000000000000000e+00  -6.3759221006567033e-38 -7.0712222490542923e-38 0.0000000000000000e+00  2.2881565665622291e-37 2.8898249257105363e-37 0.0000000000000000e+00  -9.0189843058395844e-37 -1.1655266286663613e-36 0.0000000000000000e+00  4.1794181341962837e-36 5.5521899494719035e-36 0.0000000000000000e+00  -2.1418520603861241e-35 -2.7806047468859030e-35 0.0000000000000000e+00  9.5283209816145404e-35 1.2162607690477168e-34 0.0000000000000000e+00  -2.0707162699261983e-34 -2.4652902312428436e-34 0.0000000000000000e+00  3.7714244639513952e-34 4.1608826141314454e-34 0.0000000000000000e+00  1.6931496268697415e-33 1.8405108072306549e-33 0.0000000000000000e+00  -6.7219966273887955e-33 -8.3935294829938056e-33 0.0000000000000000e+00  1.5204656271414866e-32 2.2796039945323436e-32 0.0000000000000000e+00  -9.8015766965047197e-32 -1.3729732655927541e-31 0.0000000000000000e+00  2.7162703262576039e-31 3.8025495671031093e-31 0.0000000000000000e+00  1.5920533455514425e-31 1.2370608054605528e-31 0.0000000000000000e+00  -1.3694410405700562e-30 -1.3714409316633241e-30 0.0000000000000000e+00  -6.5975797143251693e-31 -1.5166166201762686e-30 0.0000000000000000e+00  -1.6266902936909905e-30 -4.1549376948495999e-30 0.0000000000000000e+00  3.9310654676416492e-30 8.2155079697465315e-30 0.0000000000000000e+00  -7.5410293898089063e-30 -2.9112297337544512e-29 0.0000000000000000e+00  3.0531469985820927e-29 8.4343184528494374e-29 0.0000000000000000e+00  1.6189997580687963e-29 5.0890539005732166e-29 0.0000000000000000e+00  -1.4556359159205421e-28 -3.9219894509467939e-28 0.0000000000000000e+00  -6.8524665307358756e-29 -1.8192564044933063e-28 0.0000000000000000e+00  -9.9922528297485933e-29 -3.1775895803170876e-28 0.0000000000000000e+00  1.3704983471469323e-28 4.2877042490502691e-28 0.0000000000000000e+00  3.3320351454293189e-28 1.2182307340324272e-27 0.0000000000000000e+00  9.3644006251857453e-29 7.1967974267311528e-29 0.0000000000000000e+00  1.8021786177541634e-28 4.4623314330329969e-28 0.0000000000000000e+00  -2.4819102751496923e-29 -1.6438998825516830e-28 0.0000000000000000e+00  -4.0671843791228217e-28 -1.2402818614902853e-27 0.0000000000000000e+00  -4.0634947271337886e-28 -1.2213669424075553e-27 0.0000000000000000e+00  -8.8359701881406622e-29 -3.4170927718176111e-28 0.0000000000000000e+00  2.5568924606587038e-28 9.0508719490112600e-28 0.0000000000000000e+00  1.7433903426977847e-28 4.6680773230244012e-28 0.0000000000000000e+00  -1.3412392397441417e-29 -3.0417813573130845e-28 0.0000000000000000e+00  9.8698441113256350e-29 1.7612359696437422e-28 0.0000000000000000e+00  -2.6142227075135713e-28 1.0752064596737856e-27 0.0000000000000000e+00  -1.9261966786005301e-28 1.3318764636931539e-27 0.0000000000000000e+00  2.0252614693947130e-28 -7.8756296661633356e-28 0.0000000000000000e+00  -1.8462108699975967e-28 3.6947174386404725e-27 0.0000000000000000e+00  -2.7747124649375434e-28 1.7362674022971890e-29 0.0000000000000000e+00  -4.6195434420282229e-28 -3.1122266146827894e-27 0.0000000000000000e+00  -6.0418267410566585e-28 -1.7562985650258629e-27 0.0000000000000000e+00  -4.0657218914247699e-28 -2.8221015655870712e-27 0.0000000000000000e+00  1.4741597629551696e-28 -7.2054504703757764e-27 0.0000000000000000e+00  2.7941803020259535e-28 -8.2339104856931234e-27 0.0000000000000000e+00  -4.6899884550817140e-29 -1.3806625428973024e-27 0.0000000000000000e+00  -1.1896641362099700e-28 -4.4889172851466882e-27 0.0000000000000000e+00  -2.1557409207693690e-28 -1.6800490954292412e-27 0.0000000000000000e+00  -7.9862983462443177e-29 -2.8881625418683921e-27 0.0000000000000000e+00  -1.4051653287592626e-28 1.5175966422163893e-27 0.0000000000000000e+00  5.2723187330361778e-29 -3.7609771324426667e-27 0.0000000000000000e+00  2.0647616214599637e-28 -3.3658481009663094e-27 0.0000000000000000e+00  -3.2922330029116995e-29 9.9520354297308132e-28 0.0000000000000000e+00  -2.9542406831660604e-28 5.6980923234949127e-27 0.0000000000000000e+00  -1.9113099482167975e-28 2.2367148791385788e-27 0.0000000000000000e+00  -1.9886890961733653e-28 9.3795961526093721e-28 0.0000000000000000e+00  -3.9269772192505271e-28 3.0906027090351461e-27 0.0000000000000000e+00  -2.2617529661048218e-28 1.5973609070263956e-27 0.0000000000000000e+00  2.5023548571635724e-28 -2.0877766046996336e-27 0.0000000000000000e+00  2.0085839349273508e-28 -8.8802935762931500e-28 0.0000000000000000e+00  1.4626820521914636e-29 -1.2584413667119265e-29 0.0000000000000000e+00  1.8532882692421782e-28 -4.8114442802211500e-28 0.0000000000000000e+00  1.1595995623946577e-28 -4.6164725952308355e-28 0.0000000000000000e+00  -1.1726679222929959e-28 4.6713313154015582e-28 0.0000000000000000e+00  -4.6757155689788334e-29 2.3378717650150236e-28 0.0000000000000000e+00  -3.3630150036605077e-29 1.3150122924960803e-28 0.0000000000000000e+00  3.0728824188759328e-29 -1.2052263561960605e-28 0.0000000000000000e+00  1.9557070277938757e-29 -5.7183009845999794e-29 0.0000000000000000e+00  4.0532185053857889e-29 -1.1346545215318928e-28 0.0000000000000000e+00  -9.5818695665342540e-30 1.7394407754178359e-29 0.0000000000000000e+00  -4.7216085377659206e-29 1.1732734602061377e-28 0.0000000000000000e+00  7.1861544337951518e-30 -1.7271810388049742e-29 0.0000000000000000e+00  3.1875457567798236e-30 -7.8062228767957145e-30 0.0000000000000000e+00  -9.6517280451616321e-30 1.8746231457102444e-29 0.0000000000000000e+00  -9.5058497736599328e-31 1.2656056448875147e-30 0.0000000000000000e+00  1.1537870721825251e-30 -1.8951996965518702e-30 0.0000000000000000e+00  -5.0183497967775625e-31 8.0179220268273702e-31 0.0000000000000000e+00  1.0372166512784737e-31 -1.5843140645284465e-31 0.0000000000000000e+00  -1.0124241363403002e-32 1.5978252892856164e-32 0.0000000000000000e+00  -4.8245718449069606e-33 5.7390175637252908e-33 0.0000000000000000e+00  6.5039472543319395e-33 -7.4662672540508707e-33 0.0000000000000000e+00  -4.0342446717166064e-34 5.5715234650659215e-34 0.0000000000000000e+00  -1.1235131495397251e-34 8.7434252999044398e-35 0.0000000000000000e+00  -7.9904990752604056e-36 2.2784913501788466e-35 0.0000000000000000e+00  -1.0138420907559128e-36 5.2106636430199447e-37 0.0000000000000000e+00  2.1610421888100270e-36 -2.2713656063077044e-36 0.0000000000000000e+00  -1.6221014004532051e-36 1.6554953905015814e-36 0.0000000000000000e+00  4.8234288242205694e-37 -5.4126318017013395e-37 0.0000000000000000e+00  -2.2964385832814421e-37 2.3950287756237713e-37 0.0000000000000000e+00  7.4038755706965392e-38 -7.4051603750076906e-38 0.0000000000000000e+00  -1.3443211734326434e-38 1.3681553728343613e-38 0.0000000000000000e+00  4.9025593565674981e-39 -4.9536333566187632e-39 0.0000000000000000e+00  -4.1418333973684208e-40 3.4459988368680052e-40 0.0000000000000000e+00  -1.2851521523338596e-40 1.8422625178495987e-40 0.0000000000000000e+00  6.2316101940128680e-42 -1.7140785471156986e-42 0.0000000000000000e+00  3.3697341290679191e-40 -2.7484839801014435e-40 0.0000000000000000e+00  -7.5023163106893253e-40 6.1061023549652901e-40 0.0000000000000000e+00  1.8881042054530006e-39 -1.9831834187115690e-39 0.0000000000000000e+00  7.4109784807513298e-40 5.9963581997769356e-40 0.0000000000000000e+00  -1.5036048048849140e-38 1.0917691015838665e-38 0.0000000000000000e+00  4.2045926891880257e-38 -3.6962582158484773e-38 0.0000000000000000e+00  -2.8981250904614408e-38 4.0637370477938880e-38 0.0000000000000000e+00  -1.9246471592262694e-37 1.1650952051411205e-37 0.0000000000000000e+00  7.6912531313862252e-37 -5.9219132969240453e-37 0.0000000000000000e+00  -9.1627758315492831e-37 8.8193234232284311e-37 0.0000000000000000e+00  -2.3191255891824185e-36 1.2594109096750420e-36 0.0000000000000000e+00  1.1503987243059130e-35 -8.2444314740918698e-36 0.0000000000000000e+00  -1.6774149473650213e-35 1.3777333097224359e-35 0.0000000000000000e+00  -2.9075719060218986e-35 1.6219737992558369e-35 0.0000000000000000e+00  1.6975536327222438e-34 -1.1678384158611698e-34 0.0000000000000000e+00  -2.1416564575128318e-34 1.6042086542282965e-34 0.0000000000000000e+00  -4.8049174251774829e-34 2.9908243104804580e-34 0.0000000000000000e+00  2.2513047813471835e-33 -1.4973560339959713e-33 0.0000000000000000e+00  -1.7205857255363130e-33 1.1741910555221693e-33 0.0000000000000000e+00  -9.0011536004962408e-33 5.7882789946310608e-33 0.0000000000000000e+00  2.4972518754091588e-32 -1.5734152537793214e-32 0.0000000000000000e+00  6.4318240348451465e-33 -5.0408398221866784e-33 0.0000000000000000e+00  -1.4194233781454617e-31 8.7704773984339611e-32 0.0000000000000000e+00  1.7287430235609703e-31 -9.4704071063183267e-32 0.0000000000000000e+00  4.8219082546415409e-31 -3.0394730011132711e-31 0.0000000000000000e+00  -1.3656754084854904e-30 7.5022608754361572e-31 0.0000000000000000e+00  -8.2722637431878213e-31 6.3977723834485639e-31 0.0000000000000000e+00  7.3713641960118318e-30 -3.9956124709127902e-30 0.0000000000000000e+00  -2.4114650437915137e-30 1.7818300374860219e-31 0.0000000000000000e+00  -3.2468585307522844e-29 1.7406602833682624e-29 0.0000000000000000e+00  2.9860156231917054e-29 -8.9700588825532018e-30 0.0000000000000000e+00  1.3119218003996717e-28 -6.9817472755031060e-29 0.0000000000000000e+00  -1.7274193332201031e-28 5.0268238860759303e-29 0.0000000000000000e+00  -5.4653992243543284e-28 2.7960665618769782e-28 0.0000000000000000e+00  7.3203541423509004e-28 -1.5798241911325336e-28 0.0000000000000000e+00  2.3045306947255693e-27 -1.0710779330174346e-27 0.0000000000000000e+00  -2.5326897662691952e-27 2.4214674143305887e-28 0.0000000000000000e+00  -9.5164968514540434e-27 3.3735866094988502e-27 0.0000000000000000e+00  5.7006045410291549e-27 7.1098013779287177e-28 0.0000000000000000e+00  3.3468952427504566e-26 -8.4703327292826745e-27 0.0000000000000000e+00  9.7085277529835693e-27 -8.2028221948664229e-27 0.0000000000000000e+00  -9.7525420223481997e-26 1.2626232240211471e-26 0.0000000000000000e+00  -1.1422310830493481e-25 1.4349042762682957e-26 0.0000000000000000e+00  2.3783675271465870e-25 -6.9157138582464947e-26 0.0000000000000000e+00  1.0252665752222492e-24 -2.5132626668102475e-25 0.0000000000000000e+00  1.7032711997552976e-24 -3.9450868210862122e-25 0.0000000000000000e+00  1.8901818373204743e-24 -3.8740788217117758e-25 0.0000000000000000e+00  1.6431701408596201e-24 -2.1058500898252420e-25 0.0000000000000000e+00  1.5117279844202272e-24 2.3972029395964762e-26 0.0000000000000000e+00  1.6114396656808738e-24 2.1282534929914843e-25 0.0000000000000000e+00  1.5592375663211952e-24 2.7526493110917538e-25 0.0000000000000000e+00  1.0826116448024511e-24 2.0462792678807154e-25 0.0000000000000000e+00  3.7432209779940101e-25 6.9262994083699556e-26 0.0000000000000000e+00  -8.7294917095817708e-26 -2.3099758900666564e-26 0.0000000000000000e+00  -1.5871238576093857e-25 -3.3196531144189387e-26 0.0000000000000000e+00  -2.8656288349757387e-26 1.0425613763679009e-27 0.0000000000000000e+00  4.8511345664027647e-26 1.9148001555974523e-26 0.0000000000000000e+00  3.0652395136656021e-26 1.0627682139053011e-26 0.0000000000000000e+00  -2.3663910166666987e-27 -7.8624404142913371e-28 0.0000000000000000e+00  -7.4187862144303964e-27 -2.3812039549802792e-27 0.0000000000000000e+00  -4.0729026092016812e-28 3.8853247514973297e-29 0.0000000000000000e+00  1.8375227632391523e-27 6.8736263774251682e-28 0.0000000000000000e+00  1.6410047317768358e-28 9.0933444902205143e-30 0.0000000000000000e+00  -4.5129141567562429e-28 -1.8465282690877786e-28 0.0000000000000000e+00  -2.4723263868478772e-29 5.9932313345504546e-30 0.0000000000000000e+00  1.0715507224699156e-28 4.6441327193691892e-29 0.0000000000000000e+00  -5.5586442629141426e-30 -7.4687008776292621e-30 0.0000000000000000e+00  -2.3742699951478946e-29 -1.0640509082508591e-29 0.0000000000000000e+00  4.3023670621769494e-30 3.3248538158948942e-30 0.0000000000000000e+00  4.3281581247675256e-30 1.9064430913551217e-30 0.0000000000000000e+00  -1.7718680902124140e-30 -1.1714491075183057e-30 0.0000000000000000e+00  -5.7596822110706305e-31 -2.1297201586167129e-31 0.0000000000000000e+00  5.0412448699147062e-31 3.1530212534470136e-31 0.0000000000000000e+00  -7.6679898812199728e-33 -3.0922303266910648e-32 0.0000000000000000e+00  -1.0306263448614805e-31 -6.2375931177369506e-32 0.0000000000000000e+00  2.9375372226107417e-32 2.3354102457728430e-32 0.0000000000000000e+00  1.3114456657037373e-32 7.0420479518830507e-33 0.0000000000000000e+00  -1.0113833505504965e-32 -7.1284637701261422e-33 0.0000000000000000e+00  6.3441553081463743e-34 7.4887722077650491e-34 0.0000000000000000e+00  1.6496038880987434e-33 1.1234447894898566e-33 0.0000000000000000e+00  -7.2032812943549919e-34 -5.4743032148261654e-34 0.0000000000000000e+00  -4.7634348491267439e-35 -2.3410161760751697e-35 0.0000000000000000e+00  1.5170667017690164e-34 1.1387221445052227e-34 0.0000000000000000e+00  -5.0596219059708065e-35 -3.9221038161162650e-35 0.0000000000000000e+00  -6.0656782248716801e-36 -5.0575263897039561e-36 0.0000000000000000e+00  1.0914211625768100e-35 8.8047756604395347e-36 0.0000000000000000e+00  -3.5040549013847940e-36 -2.7280626144970288e-36 0.0000000000000000e+00  -3.3070474659690101e-37 -3.7430727153296541e-37 0.0000000000000000e+00  7.0993986887160562e-37 6.1936680856118541e-37 0.0000000000000000e+00  -2.5631173043139877e-37 -2.0636119499323187e-37 0.0000000000000000e+00  2.1415600518429574e-39 -1.0264096261925561e-38 0.0000000000000000e+00  3.8791702394045739e-38 3.8032424257377357e-38 0.0000000000000000e+00  -1.8559211753867458e-38 -1.6265597981439296e-38 0.0000000000000000e+00  2.5351878724455864e-39 1.3447984266079313e-39 0.0000000000000000e+00  1.6006210671193565e-39 1.9187301000052737e-39 0.0000000000000000e+00  -1.1353260908356283e-39 -1.1278148337670082e-39 0.0000000000000000e+00  3.2534691790098785e-40 2.7808002069737760e-40 0.0000000000000000e+00  5.3725942954306590e-41 9.7338924093451520e-41 0.0000000000000000e+00  2.6690087021449962e-40 2.5140782907654246e-40 0.0000000000000000e+00  -5.1808410678676110e-40 -6.5992655929933478e-40 0.0000000000000000e+00  1.1301569205657277e-39 1.4118682166200975e-39 0.0000000000000000e+00  -6.6990579034428240e-39 -9.1499932304263586e-39 0.0000000000000000e+00  6.0536699373169550e-38 6.8324513398392641e-38 0.0000000000000000e+00  -1.6843611972044239e-37 -1.7345662333689469e-37 0.0000000000000000e+00  2.3529442126078232e-37 2.6053689421509275e-37 0.0000000000000000e+00  -3.0420421854141484e-36 -3.6826871298178889e-36 0.0000000000000000e+00  9.0201172950019925e-36 1.2206654888836068e-35 0.0000000000000000e+00  -3.4907366750978029e-35 -5.1030445346985578e-35 0.0000000000000000e+00  6.9879001074357358e-35 1.0022468597832362e-34 0.0000000000000000e+00  -5.0956156579042913e-35 -1.0700744093992733e-34 0.0000000000000000e+00  3.6338903252372375e-34 6.1728343960653479e-34 0.0000000000000000e+00  1.3218303225553255e-33 1.4687308000792441e-33 0.0000000000000000e+00  -9.0611064130282127e-34 1.3162448953112964e-36 0.0000000000000000e+00  3.2768380204701217e-32 4.2980596439501356e-32 0.0000000000000000e+00  -1.1044319133244356e-31 -1.5043475249029276e-31 0.0000000000000000e+00  -5.3063712798869277e-31 -7.4568359683250309e-31 0.0000000000000000e+00  1.3599746578466912e-30 1.9471630527560650e-30 0.0000000000000000e+00  -1.1144229563089107e-30 -1.7512515051123135e-30 0.0000000000000000e+00  -3.1769754907857541e-30 -6.3634217270051928e-30 0.0000000000000000e+00  1.1151158625690502e-29 2.6298378507390629e-29 0.0000000000000000e+00  1.2599554588390994e-29 2.9967481569808199e-29 0.0000000000000000e+00  -7.0877571131439158e-29 -1.8177201508182738e-28 0.0000000000000000e+00  1.9352998344240363e-29 4.4188742154669182e-29 0.0000000000000000e+00  9.1389737004176085e-29 1.9230067091517548e-28 0.0000000000000000e+00  1.2710785687474902e-29 7.0896575704217926e-29 0.0000000000000000e+00  1.4439667033673037e-28 5.4556779473253014e-28 0.0000000000000000e+00  7.2487966245058658e-29 2.3643369388463984e-28 0.0000000000000000e+00  -1.2929384795156869e-28 -3.9298368042085702e-28 0.0000000000000000e+00  -3.4385881801104410e-28 -1.3108395021972891e-27 0.0000000000000000e+00  2.1087806612322602e-28 8.3529455282062783e-28 0.0000000000000000e+00  3.1887389358919580e-28 1.1855369584143621e-27 0.0000000000000000e+00  2.9106684822652401e-28 1.3694235066234116e-27 0.0000000000000000e+00  2.8470657853263326e-28 1.2860498866233058e-27 0.0000000000000000e+00  -3.5741100290295221e-28 -1.6621300038540793e-27 0.0000000000000000e+00  1.3453466991184406e-29 2.0893053449371305e-28 0.0000000000000000e+00  7.3356559116622723e-29 3.2616525628263641e-28 0.0000000000000000e+00  -1.4993632271050054e-28 -9.6879499510184713e-28 0.0000000000000000e+00  -1.0067702868487151e-28 -9.6069760594813983e-28 0.0000000000000000e+00  -3.2111958618756353e-28 -3.3414556801741568e-27 0.0000000000000000e+00  -3.1182078360208493e-28 -2.5882145222861194e-27 0.0000000000000000e+00  -1.7261761587521660e-28 -3.0056869478155168e-28 0.0000000000000000e+00  -1.4093270812963126e-28 -1.4756901079638084e-27 0.0000000000000000e+00  1.0204830122110345e-28 -2.1911358356264323e-27 0.0000000000000000e+00  -2.1413914241107706e-28 -4.5726672723105581e-28 0.0000000000000000e+00  -1.9582668483192971e-28 -6.0403817019831650e-28 0.0000000000000000e+00  1.6954342471826931e-28 -1.9805079207994269e-27 0.0000000000000000e+00  4.4103858062160864e-29 -1.2188730258169590e-27 0.0000000000000000e+00  2.9533508269593626e-28 -2.1926275837867504e-27 0.0000000000000000e+00  -3.0837932657311772e-28 8.8898874687655422e-28 0.0000000000000000e+00  -2.9650251373568507e-28 8.2846527617970882e-28 0.0000000000000000e+00  4.4109325025444119e-28 -2.0799732778483184e-27 0.0000000000000000e+00  1.9957211418711255e-28 -8.7013779050797389e-28 0.0000000000000000e+00  3.7764233921208337e-28 -2.1568652145679889e-27 0.0000000000000000e+00  1.0447338040567876e-28 1.3439008029852949e-28 0.0000000000000000e+00  8.3730089153539096e-29 -2.5791106772929165e-28 0.0000000000000000e+00  3.6641625898261595e-28 -1.7036948699994073e-27 0.0000000000000000e+00  1.9761633029132160e-28 -9.7058415480230974e-28 0.0000000000000000e+00  3.7656382350909678e-28 -2.4243490435825681e-27 0.0000000000000000e+00  5.3698669148303160e-28 -3.4778725887043524e-27 0.0000000000000000e+00  5.8283916765609538e-28 -3.9851491880141694e-27 0.0000000000000000e+00  1.5944409252584153e-28 -8.8470032538005565e-28 0.0000000000000000e+00  -2.2071217319221164e-28 1.5929114508225233e-27 0.0000000000000000e+00  -3.2493195496893595e-28 1.9038510524197365e-27 0.0000000000000000e+00  -3.5865732491377915e-28 1.8789450635544817e-27 0.0000000000000000e+00  -7.4051281273833071e-29 3.5565143856331281e-28 0.0000000000000000e+00  8.7727546309739857e-29 -4.6354585800096938e-28 0.0000000000000000e+00  4.9127622060494821e-29 -2.4529309441799936e-28 0.0000000000000000e+00  2.0943953142489685e-28 -9.3354703868399467e-28 0.0000000000000000e+00  8.3833708774119219e-29 -3.6895247165694392e-28 0.0000000000000000e+00  -8.1982452894748137e-29 3.4376690398324466e-28 0.0000000000000000e+00  4.7514173554888663e-30 -3.2914455144293322e-29 0.0000000000000000e+00  8.6266247331135324e-30 -2.5348551831110629e-29 0.0000000000000000e+00  1.6338765601533435e-29 -5.1300531521086000e-29 0.0000000000000000e+00  -4.4528258957986863e-30 1.1720608721356468e-29 0.0000000000000000e+00  -7.4222244954536562e-30 1.8902548570142141e-29 0.0000000000000000e+00  1.6527566