<?xml version="1.0"?>
<VTKFile type="UnstructuredGrid"  version="0.1"  >
<UnstructuredGrid>
<Piece  NumberOfPoints="11902" NumberOfCells="23402">
<Points>
<DataArray  type="Float64"  NumberOfComponents="3"  format="ascii">-5 -5 0  5 -5 0  5 5 0  -5 5 0  1.179880857931229 0.001187810876965612 0  -4.9 -5 0  -4.8 -5 0  -4.7 -5 0  -4.6 -5 0  -4.5 -5 0  -4.4 -5 0  -4.3 -5 0  -4.2 -5 0  -4.1 -5 0  -4 -5 0  -3.9 -5 0  -3.8 -5 0  -3.7 -5 0  -3.6 -5 0  -3.5 -5 0  -3.4 -5 0  -3.3 -5 0  -3.2 -5 0  -3.1 -5 0  -3 -5 0  -2.9 -5 0  -2.8 -5 0  -2.7 -5 0  -2.6 -5 0  -2.5 -5 0  -2.4 -5 0  -2.3 -5 0  -2.2 -5 0  -2.1 -5 0  -2 -5 0  -1.9 -5 0  -1.8 -5 0  -1.7 -5 0  -1.6 -5 0  -1.5 -5 0  -1.4 -5 0  -1.3 -5 0  -1.2 -5 0  -1.1 -5 0  -1 -5 0  -0.9000000000000004 -5 0  -0.7999999999999998 -5 0  -0.7000000000000002 -5 0  -0.5999999999999996 -5 0  -0.5 -5 0  -0.4000000000000004 -5 0  -0.2999999999999998 -5 0  -0.2000000000000002 -5 0  -0.09999999999999964 -5 0  0 -5 0  0.09999999999999964 -5 0  0.2000000000000002 -5 0  0.2999999999999998 -5 0  0.4000000000000004 -5 0  0.5 -5 0  0.5999999999999996 -5 0  0.7000000000000002 -5 0  0.7999999999999998 -5 0  0.9000000000000004 -5 0  1 -5 0  1.1 -5 0  1.2 -5 0  1.3 -5 0  1.4 -5 0  1.5 -5 0  1.6 -5 0  1.7 -5 0  1.8 -5 0  1.9 -5 0  2 -5 0  2.1 -5 0  2.2 -5 0  2.3 -5 0  2.4 -5 0  2.5 -5 0  2.6 -5 0  2.7 -5 0  2.8 -5 0  2.9 -5 0  3 -5 0  3.1 -5 0  3.199999999999999 -5 0  3.300000000000001 -5 0  3.4 -5 0  3.5 -5 0  3.6 -5 0  3.699999999999999 -5 0  3.800000000000001 -5 0  3.9 -5 0  4 -5 0  4.1 -5 0  4.199999999999999 -5 0  4.300000000000001 -5 0  4.4 -5 0  4.5 -5 0  4.6 -5 0  4.699999999999999 -5 0  4.800000000000001 -5 0  4.9 -5 0  5 -4.9 0  5 -4.8 0  5 -4.7 0  5 -4.6 0  5 -4.5 0  5 -4.4 0  5 -4.3 0  5 -4.2 0  5 -4.1 0  5 -4 0  5 -3.9 0  5 -3.8 0  5 -3.7 0  5 -3.6 0  5 -3.5 0  5 -3.4 0  5 -3.3 0  5 -3.2 0  5 -3.1 0  5 -3 0  5 -2.9 0  5 -2.8 0  5 -2.7 0  5 -2.6 0  5 -2.5 0  5 -2.4 0  5 -2.3 0  5 -2.2 0  5 -2.1 0  5 -2 0  5 -1.9 0  5 -1.8 0  5 -1.7 0  5 -1.6 0  5 -1.5 0  5 -1.4 0  5 -1.3 0  5 -1.2 0  5 -1.1 0  5 -1 0  5 -0.9000000000000004 0  5 -0.7999999999999998 0  5 -0.7000000000000002 0  5 -0.5999999999999996 0  5 -0.5 0  5 -0.4000000000000004 0  5 -0.2999999999999998 0  5 -0.2000000000000002 0  5 -0.09999999999999964 0  5 0 0  5 0.09999999999999964 0  5 0.2000000000000002 0  5 0.2999999999999998 0  5 0.4000000000000004 0  5 0.5 0  5 0.5999999999999996 0  5 0.7000000000000002 0  5 0.7999999999999998 0  5 0.9000000000000004 0  5 1 0  5 1.1 0  5 1.2 0  5 1.3 0  5 1.4 0  5 1.5 0  5 1.6 0  5 1.7 0  5 1.8 0  5 1.9 0  5 2 0  5 2.1 0  5 2.2 0  5 2.3 0  5 2.4 0  5 2.5 0  5 2.6 0  5 2.7 0  5 2.8 0  5 2.9 0  5 3 0  5 3.1 0  5 3.199999999999999 0  5 3.300000000000001 0  5 3.4 0  5 3.5 0  5 3.6 0  5 3.699999999999999 0  5 3.800000000000001 0  5 3.9 0  5 4 0  5 4.1 0  5 4.199999999999999 0  5 4.300000000000001 0  5 4.4 0  5 4.5 0  5 4.6 0  5 4.699999999999999 0  5 4.800000000000001 0  5 4.9 0  4.9 5 0  4.8 5 0  4.7 5 0  4.6 5 0  4.5 5 0  4.4 5 0  4.3 5 0  4.2 5 0  4.1 5 0  4 5 0  3.9 5 0  3.8 5 0  3.7 5 0  3.6 5 0  3.5 5 0  3.4 5 0  3.3 5 0  3.2 5 0  3.1 5 0  3 5 0  2.9 5 0  2.8 5 0  2.7 5 0  2.6 5 0  2.5 5 0  2.4 5 0  2.3 5 0  2.2 5 0  2.1 5 0  2 5 0  1.9 5 0  1.8 5 0  1.7 5 0  1.6 5 0  1.5 5 0  1.4 5 0  1.3 5 0  1.2 5 0  1.1 5 0  1 5 0  0.9000000000000004 5 0  0.7999999999999998 5 0  0.7000000000000002 5 0  0.5999999999999996 5 0  0.5 5 0  0.4000000000000004 5 0  0.2999999999999998 5 0  0.2000000000000002 5 0  0.09999999999999964 5 0  0 5 0  -0.09999999999999964 5 0  -0.2000000000000002 5 0  -0.2999999999999998 5 0  -0.4000000000000004 5 0  -0.5 5 0  -0.5999999999999996 5 0  -0.7000000000000002 5 0  -0.7999999999999998 5 0  -0.9000000000000004 5 0  -1 5 0  -1.1 5 0  -1.2 5 0  -1.3 5 0  -1.4 5 0  -1.5 5 0  -1.6 5 0  -1.7 5 0  -1.8 5 0  -1.9 5 0  -2 5 0  -2.1 5 0  -2.2 5 0  -2.3 5 0  -2.4 5 0  -2.5 5 0  -2.6 5 0  -2.7 5 0  -2.8 5 0  -2.9 5 0  -3 5 0  -3.1 5 0  -3.199999999999999 5 0  -3.300000000000001 5 0  -3.4 5 0  -3.5 5 0  -3.6 5 0  -3.699999999999999 5 0  -3.800000000000001 5 0  -3.9 5 0  -4 5 0  -4.1 5 0  -4.199999999999999 5 0  -4.300000000000001 5 0  -4.4 5 0  -4.5 5 0  -4.6 5 0  -4.699999999999999 5 0  -4.800000000000001 5 0  -4.9 5 0  -5 4.9 0  -5 4.8 0  -5 4.7 0  -5 4.6 0  -5 4.5 0  -5 4.4 0  -5 4.3 0  -5 4.2 0  -5 4.1 0  -5 4 0  -5 3.9 0  -5 3.8 0  -5 3.7 0  -5 3.6 0  -5 3.5 0  -5 3.4 0  -5 3.3 0  -5 3.2 0  -5 3.1 0  -5 3 0  -5 2.9 0  -5 2.8 0  -5 2.7 0  -5 2.6 0  -5 2.5 0  -5 2.4 0  -5 2.3 0  -5 2.2 0  -5 2.1 0  -5 2 0  -5 1.9 0  -5 1.8 0  -5 1.7 0  -5 1.6 0  -5 1.5 0  -5 1.4 0  -5 1.3 0  -5 1.2 0  -5 1.1 0  -5 1 0  -5 0.9000000000000004 0  -5 0.7999999999999998 0  -5 0.7000000000000002 0  -5 0.5999999999999996 0  -5 0.5 0  -5 0.4000000000000004 0  -5 0.2999999999999998 0  -5 0.2000000000000002 0  -5 0.09999999999999964 0  -5 0 0  -5 -0.09999999999999964 0  -5 -0.2000000000000002 0  -5 -0.2999999999999998 0  -5 -0.4000000000000004 0  -5 -0.5 0  -5 -0.5999999999999996 0  -5 -0.7000000000000002 0  -5 -0.7999999999999998 0  -5 -0.9000000000000004 0  -5 -1 0  -5 -1.1 0  -5 -1.2 0  -5 -1.3 0  -5 -1.4 0  -5 -1.5 0  -5 -1.6 0  -5 -1.7 0  -5 -1.8 0  -5 -1.9 0  -5 -2 0  -5 -2.1 0  -5 -2.2 0  -5 -2.3 0  -5 -2.4 0  -5 -2.5 0  -5 -2.6 0  -5 -2.7 0  -5 -2.8 0  -5 -2.9 0  -5 -3 0  -5 -3.1 0  -5 -3.199999999999999 0  -5 -3.300000000000001 0  -5 -3.4 0  -5 -3.5 0  -5 -3.6 0  -5 -3.699999999999999 0  -5 -3.800000000000001 0  -5 -3.9 0  -5 -4 0  -5 -4.1 0  -5 -4.199999999999999 0  -5 -4.300000000000001 0  -5 -4.4 0  -5 -4.5 0  -5 -4.6 0  -5 -4.699999999999999 0  -5 -4.800000000000001 0  -5 -4.9 0  1.174099915343296 0.09960978898532781 0  1.155872631685502 0.1981702076706143 0  1.125237331279572 0.295636408824729 0  1.085432423254781 0.3876978173149138 0  1.0338495496585 0.4784948300006887 0  0.9728868147904001 0.5637756735036324 0  0.901258342503454 0.6435434874131241 0  0.8202964492811167 0.7163485551972143 0  0.7322826992044728 0.78221537897976 0  0.6365303463977204 0.8408792367043236 0  0.5337660416450356 0.8913858251933614 0  0.4264627836954888 0.9330730227596877 0  0.3166638261104548 0.9658154577304785 0  0.2019455150813052 0.9882052078304961 0  0.0876688344404645 1.002133194316309 0  -0.0276110949215359 1.004840792639428 0  -0.1429153355859539 0.9957402860381436 0  -0.2585563022415251 0.9782769684267684 0  -0.3713509427089041 0.9518288656512788 0  -0.4794864503950411 0.9152331814085266 0  -0.582706246286407 0.8697955103308357 0  -0.6808561565345366 0.8150781197858181 0  -0.7720880199792342 0.7523962477664331 0  -0.8564751485710375 0.6822027964816807 0  -0.9333060846927436 0.6042744094442725 0  -1.000068978299817 0.5215902302576515 0  -1.057581518774572 0.4343797709646843 0  -1.103900010034117 0.342010833475817 0  -1.138685569215905 0.2474044533445358 0  -1.162181207932663 0.150321290864896 0  -1.17412226958227 0.05084173931030856 0  -1.174132279341856 -0.04926427003261738 0  -1.162164466508463 -0.1484637999712915 0  -1.13973680686439 -0.2455582497289826 0  -1.103562270368357 -0.3415676334826942 0  -1.057956235911418 -0.4331080727277513 0  -1.000954081453483 -0.5206086713137916 0  -0.9346031378544459 -0.6028872281818258 0  -0.8579675233178341 -0.6797489189855354 0  -0.7730913499370172 -0.7491580556152443 0  -0.6807700142571257 -0.810576793068574 0  -0.58301192365578 -0.8650746121399139 0  -0.4771441738827574 -0.9114110327754057 0  -0.3686590134273347 -0.9492306240804458 0  -0.2560147017180921 -0.9768056803204086 0  -0.1415332367161607 -0.9947398686311133 0  -0.02702071301641603 -1.004054962174177 0  0.08827272885803475 -1.000119498626843 0  0.2043571518954918 -0.9861662082582238 0  0.3180084065660371 -0.9641862167541186 0  0.4295107625144122 -0.9316731123470532 0  0.5352074243743332 -0.8904021315107765 0  0.6371899914918985 -0.8403402533934399 0  0.7324876172410456 -0.7830633177338727 0  0.8203964931656598 -0.7169676857553159 0  0.9008001176187094 -0.6429639549481423 0  0.9716564037314521 -0.563080697133679 0  1.033785844462234 -0.4779799671813988 0  1.086502400320435 -0.3877910210695781 0  1.126555733167489 -0.2944052183689749 0  1.156068779594807 -0.1974007860968354 0  1.174111514388543 -0.09917241997328442 0  -2.448866199714253 4.918674702199466 0  -2.448767562259056 -4.911103882998257 0  4.911042228139149 2.448330562201551 0  4.919111184907304 -2.449752556746439 0  2.446551567654531 -4.896441880066282 0  2.440972448088996 4.900181164630843 0  -4.911064308903777 -2.448352253066142 0  -4.911062996215786 2.448356072399469 0  -1.748831227997417 4.91181136977101 0  -1.744604276376192 -4.915220659564225 0  4.921383156809037 1.744464382859253 0  4.910023259223228 -1.748283148473686 0  -4.910307723461176 -1.748010794597815 0  -4.911123811648102 1.74775098506245 0  1.746123684951554 4.905727207102992 0  1.747577097459866 -4.893976653120488 0  -1.14907817268631 4.909764716783897 0  -1.129910748289213 -4.917599221780626 0  -4.910242184581398 -1.148260766217409 0  -4.910063926436761 1.148060738007904 0  1.144057541739485 -4.913823680091392 0  1.149085282391545 4.909754217968374 0  4.910390851286595 1.146538836936666 0  4.921093684607439 -1.152282005845611 0  -0.5467923071549026 -4.911037859686277 0  -0.5465629644085999 4.919627463564898 0  -4.909149344871137 -0.5488936945755682 0  -4.909173943738431 0.5474493759617733 0  4.908489062191201 -0.549215627690098 0  4.919991473281526 0.5459477075110596 0  0.5425865879555665 -4.898065631969341 0  0.5512937554673836 4.916486721352215 0  -4.912292362591029 -3.048635461036182 0  4.918836668001038 3.046629611654225 0  4.911804644661798 -3.048616680015158 0  -4.913138189351692 3.045724281360189 0  3.055559050329737 -4.91777922657216 0  -3.048909257696258 -4.911742174427467 0  3.052470592143587 4.91381285790005 0  -3.048353137990027 4.912628712187012 0  -4.908322807248314 -0.04992618488420515 0  0.04512751123953016 -4.912996106626229 0  0.04957605973511591 4.919944800974965 0  4.915292061027006 -0.05130710650252204 0  3.545823695939228 -4.919303980078799 0  -3.549122010956645 4.9
[...]
<PointData  Vectors="f_1970"> 
<DataArray  type="Float64"  Name="f_1970"  NumberOfComponents="3" format="ascii">-1.3754812771450561e-40 -1.4806175235546292e-40 0.0000000000000000e+00  1.6807511135995499e-40 -1.7575315460571154e-40 0.0000000000000000e+00  -2.2050772048557598e-40 -2.1826306091923439e-40 0.0000000000000000e+00  -2.6554420586578741e-40 2.7216481676606039e-40 0.0000000000000000e+00  1.5344572954733948e+01 -3.2081645724093633e-01 0.0000000000000000e+00  3.1512509832284573e-40 3.3031954512717019e-40 0.0000000000000000e+00  7.5545571603923775e-40 8.0253470951744280e-40 0.0000000000000000e+00  -1.6921039002163638e-39 -1.9354692213258433e-39 0.0000000000000000e+00  1.6778743732225150e-38 1.8938060864623781e-38 0.0000000000000000e+00  -5.4214813617406180e-38 -6.0303599178733997e-38 0.0000000000000000e+00  2.0360046402868264e-37 2.3419687250853252e-37 0.0000000000000000e+00  -7.3114067584711156e-37 -8.6965314211764618e-37 0.0000000000000000e+00  4.3541433196416227e-36 5.4055834876852287e-36 0.0000000000000000e+00  -2.7063183524972809e-35 -3.4057675162110016e-35 0.0000000000000000e+00  1.0985545871531812e-34 1.4093008368760906e-34 0.0000000000000000e+00  -2.3752885484891661e-34 -3.1008192917961964e-34 0.0000000000000000e+00  4.7489076522650117e-34 6.2447644609880921e-34 0.0000000000000000e+00  1.7063573027192818e-33 2.2933208345437354e-33 0.0000000000000000e+00  -7.5877214673566369e-33 -1.0584026104616201e-32 0.0000000000000000e+00  2.1618945453605176e-32 3.1621914045436007e-32 0.0000000000000000e+00  -1.2345448350521824e-31 -1.8248965498643831e-31 0.0000000000000000e+00  3.2525789680771457e-31 4.8392899732370852e-31 0.0000000000000000e+00  1.8883397735540974e-31 2.9915260482425701e-31 0.0000000000000000e+00  -1.5736992226908485e-30 -2.4690887823875184e-30 0.0000000000000000e+00  -7.3789745410833190e-31 -1.2494942967630754e-30 0.0000000000000000e+00  -1.8402431035971198e-30 -3.1565610033708603e-30 0.0000000000000000e+00  4.8036583799861551e-30 8.6300220237598918e-30 0.0000000000000000e+00  -1.1223985219092812e-29 -2.3124287197664278e-29 0.0000000000000000e+00  3.9201346839061792e-29 7.7464002379085860e-29 0.0000000000000000e+00  2.2821879419962889e-29 4.8288321678716761e-29 0.0000000000000000e+00  -1.9511164638779421e-28 -4.0581367455946590e-28 0.0000000000000000e+00  -6.8226247407000375e-29 -1.5468648568466469e-28 0.0000000000000000e+00  -1.1624722241077168e-28 -2.9148069697250592e-28 0.0000000000000000e+00  1.9538150301111857e-28 4.6222103055770445e-28 0.0000000000000000e+00  5.7527265895656636e-28 1.4705030262187869e-27 0.0000000000000000e+00  -3.9581784217404675e-29 -1.0514646278604536e-28 0.0000000000000000e+00  1.4711379768782368e-28 4.1163719746979281e-28 0.0000000000000000e+00  -9.6041925457088247e-29 -2.6672131638092785e-28 0.0000000000000000e+00  -4.8679317751687520e-28 -1.4564335577345818e-27 0.0000000000000000e+00  -4.4501314071912655e-28 -1.4467840232460434e-27 0.0000000000000000e+00  -1.7932314040330512e-29 -1.5141052286395659e-28 0.0000000000000000e+00  4.6936395777585381e-28 1.7232755784750381e-27 0.0000000000000000e+00  2.6814052472034282e-28 1.0393981026389783e-27 0.0000000000000000e+00  -2.8033268490391862e-29 -1.8132245967045985e-28 0.0000000000000000e+00  1.0177921276143122e-28 4.2412821635304896e-28 0.0000000000000000e+00  1.2327633708977043e-28 1.0814292171606215e-27 0.0000000000000000e+00  2.3867024498796563e-28 1.8139319378516294e-27 0.0000000000000000e+00  -9.9855422608390470e-29 -1.0573157982924778e-27 0.0000000000000000e+00  5.9522376360526069e-28 5.8030427914182717e-27 0.0000000000000000e+00  -8.3460392308341047e-29 -2.0098642961696423e-29 0.0000000000000000e+00  -4.7581718868016961e-28 -4.9864205563944690e-27 0.0000000000000000e+00  -2.5509297136411898e-28 -2.8904894349162511e-27 0.0000000000000000e+00  -2.3232641815319992e-28 -4.1324994507298473e-27 0.0000000000000000e+00  -2.2894889381309200e-28 -1.0413164696746420e-26 0.0000000000000000e+00  -5.8884748781554893e-29 -1.1936084058771802e-26 0.0000000000000000e+00  1.0034482442914148e-31 -2.0631228170176089e-27 0.0000000000000000e+00  1.2053968196956522e-28 -6.4781548831397625e-27 0.0000000000000000e+00  1.3917972232156957e-28 -2.3161661873774647e-27 0.0000000000000000e+00  3.2812765977049970e-28 -4.1798020939988639e-27 0.0000000000000000e+00  -1.9141213902637501e-28 1.9207205790878866e-27 0.0000000000000000e+00  6.4403962832885382e-28 -5.5978771147394884e-27 0.0000000000000000e+00  7.4681955899195016e-28 -5.0823608792135323e-27 0.0000000000000000e+00  -1.2703223704053382e-28 1.0579268350830732e-27 0.0000000000000000e+00  -1.3258986880004629e-27 7.5929118262919803e-27 0.0000000000000000e+00  -6.0422544962592447e-28 3.0166703037777888e-27 0.0000000000000000e+00  -3.8039857361401380e-28 1.7417179612994414e-27 0.0000000000000000e+00  -1.0175043827839298e-27 4.3485594282108395e-27 0.0000000000000000e+00  -5.9978752882826247e-28 2.2992398945767819e-27 0.0000000000000000e+00  6.8093691554447889e-28 -2.6031167487433591e-27 0.0000000000000000e+00  3.6883709999442923e-28 -1.2239777906366401e-27 0.0000000000000000e+00  7.7412270374992774e-29 -2.4196281060825436e-28 0.0000000000000000e+00  3.2668528117023797e-28 -9.2847363758727012e-28 0.0000000000000000e+00  2.6269046636063692e-28 -7.2649587799443134e-28 0.0000000000000000e+00  -2.2546021407340482e-28 6.1335378573800331e-28 0.0000000000000000e+00  -1.6344852013602023e-28 4.1777460792386984e-28 0.0000000000000000e+00  -1.2264556954793690e-28 2.9678095431878039e-28 0.0000000000000000e+00  1.8990849036310195e-29 -5.2499176724918113e-29 0.0000000000000000e+00  8.6629984802046474e-29 -1.9653083876370709e-28 0.0000000000000000e+00  1.2405736084604303e-28 -2.6230953056272884e-28 0.0000000000000000e+00  -6.1591135866665685e-30 1.4069269294343351e-29 0.0000000000000000e+00  -8.8711530349276755e-29 1.7433752246902413e-28 0.0000000000000000e+00  1.4480634170664996e-29 -2.8528169409348925e-29 0.0000000000000000e+00  4.9036195686600188e-30 -8.8467134203272022e-30 0.0000000000000000e+00  -1.3409065117238023e-29 2.3685470650545416e-29 0.0000000000000000e+00  -1.0898515240312391e-30 1.6340930171460704e-30 0.0000000000000000e+00  1.5479299122386877e-30 -2.5146213181338388e-30 0.0000000000000000e+00  -7.9070052172629133e-31 1.2580473242957110e-30 0.0000000000000000e+00  1.0165261017718399e-31 -1.6126572205719975e-31 0.0000000000000000e+00  -1.1902055128517021e-32 1.8203966675630556e-32 0.0000000000000000e+00  -9.2338948092858823e-34 1.3125340578004150e-33 0.0000000000000000e+00  6.5662343932890661e-33 -9.0699100300336197e-33 0.0000000000000000e+00  2.8339750970749020e-34 -3.2435154488542518e-34 0.0000000000000000e+00  -3.9709373136534769e-34 5.1762380339636058e-34 0.0000000000000000e+00  4.3153827506685156e-35 -5.6524168735304686e-35 0.0000000000000000e+00  -1.6339901546686709e-35 2.0975821743518280e-35 0.0000000000000000e+00  4.0855115914661212e-36 -5.0126712977816991e-36 0.0000000000000000e+00  -1.5429940758386015e-36 1.7911800182877618e-36 0.0000000000000000e+00  4.8774800460563293e-37 -5.6194377657279587e-37 0.0000000000000000e+00  -2.4301786734511976e-37 2.7242878368243129e-37 0.0000000000000000e+00  8.1614735152797622e-38 -8.9961167732851422e-38 0.0000000000000000e+00  -1.6276629660400168e-38 1.7796614311558856e-38 0.0000000000000000e+00  6.5572789157044106e-39 -6.9750927003070384e-39 0.0000000000000000e+00  -4.2680179046187466e-40 4.4333646228271659e-40 0.0000000000000000e+00  -2.9014630243917479e-40 3.0501446222278516e-40 0.0000000000000000e+00  -6.7422900935735454e-42 4.6683203373228945e-42 0.0000000000000000e+00  3.8608365686972282e-40 -3.5979487625344737e-40 0.0000000000000000e+00  -8.8495072988967036e-40 8.0055834618296977e-40 0.0000000000000000e+00  3.2129701190643563e-39 -2.9406904872958005e-39 0.0000000000000000e+00  -1.8332315412331629e-39 1.7897016231622177e-39 0.0000000000000000e+00  -1.5141418587427624e-38 1.2849570504342782e-38 0.0000000000000000e+00  5.7896246378158082e-38 -4.9292484421028354e-38 0.0000000000000000e+00  -7.6717286997036645e-38 6.5803105818170381e-38 0.0000000000000000e+00  -1.4386769014297299e-37 1.1187758459137994e-37 0.0000000000000000e+00  8.9767514486809951e-37 -7.1081785539591025e-37 0.0000000000000000e+00  -1.5424643244243579e-36 1.2230923165896581e-36 0.0000000000000000e+00  -1.3811275637448951e-36 9.7095986556161072e-37 0.0000000000000000e+00  1.2435314755821991e-35 -9.1657264693555244e-36 0.0000000000000000e+00  -2.3782308334306503e-35 1.7419782928473456e-35 0.0000000000000000e+00  -1.7906914018724203e-35 1.1770772047736010e-35 0.0000000000000000e+00  1.7998090993246257e-34 -1.2291820412073017e-34 0.0000000000000000e+00  -2.8592015762566509e-34 1.9478366824890004e-34 0.0000000000000000e+00  -3.9563368042353545e-34 2.4917862727362981e-34 0.0000000000000000e+00  2.4294332933909467e-33 -1.5307091479608869e-33 0.0000000000000000e+00  -2.3760499565216858e-33 1.4937993680631571e-33 0.0000000000000000e+00  -8.8350462162654748e-33 5.1823152286630184e-33 0.0000000000000000e+00  2.7706735068209690e-32 -1.6080230393333678e-32 0.0000000000000000e+00  2.7871567465020887e-33 -1.0758852998937564e-33 0.0000000000000000e+00  -1.5090694384266151e-31 8.0953470951388568e-32 0.0000000000000000e+00  1.9825175907278904e-31 -1.0377833134764929e-31 0.0000000000000000e+00  5.0561596640910388e-31 -2.5021403621774082e-31 0.0000000000000000e+00  -1.4924050961186635e-30 7.1903972681939967e-31 0.0000000000000000e+00  -8.7478627229232909e-31 3.9856908188382656e-31 0.0000000000000000e+00  7.9759337866181484e-30 -3.5333629187147402e-30 0.0000000000000000e+00  -2.3241897825486442e-30 9.7092779704275583e-31 0.0000000000000000e+00  -3.5221442991452964e-29 1.4267946682410446e-29 0.0000000000000000e+00  2.9053268878691224e-29 -1.0843110447591159e-29 0.0000000000000000e+00  1.4344673559581432e-28 -5.3125593251946342e-29 0.0000000000000000e+00  -1.6248277250225380e-28 5.3633380852781094e-29 0.0000000000000000e+00  -5.9734165647981476e-28 1.9950765062587870e-28 0.0000000000000000e+00  6.3525117743203637e-28 -1.8238239713019868e-28 0.0000000000000000e+00  2.4865200103820944e-27 -7.3552222397677461e-28 0.0000000000000000e+00  -1.9062748619923802e-27 4.2232592204872517e-28 0.0000000000000000e+00  -9.5870697768130508e-27 2.3293927906671181e-27 0.0000000000000000e+00  2.5978515552765094e-27 -1.3735131660496553e-28 0.0000000000000000e+00  3.0151931213394215e-26 -5.7014489756656803e-27 0.0000000000000000e+00  1.4584427551494435e-26 -3.3292488835141241e-27 0.0000000000000000e+00  -8.5380458608248823e-26 1.2048788912082763e-26 0.0000000000000000e+00  -1.2941660611800374e-25 1.6815144135609018e-26 0.0000000000000000e+00  1.4320062323094769e-25 -1.9445556398756514e-26 0.0000000000000000e+00  8.3713033142421963e-25 -8.7260797269788572e-26 0.0000000000000000e+00  1.5244222256288956e-24 -1.2605225754865300e-25 0.0000000000000000e+00  1.8540874249447471e-24 -1.1103964553153584e-25 0.0000000000000000e+00  1.8079096668749963e-24 -5.6378546966582764e-26 0.0000000000000000e+00  1.8224895693103515e-24 4.7736082040854372e-27 0.0000000000000000e+00  1.9453432625825215e-24 6.5176847295868266e-26 0.0000000000000000e+00  1.8016835236779742e-24 1.0298493985093403e-25 0.0000000000000000e+00  1.1830499628827634e-24 9.0421215465699252e-26 0.0000000000000000e+00  3.5729592233450076e-25 3.3061531924452124e-26 0.0000000000000000e+00  -1.5008982267611141e-25 -1.7898700630726396e-26 0.0000000000000000e+00  -2.0364861280236199e-25 -2.6578890657393590e-26 0.0000000000000000e+00  -3.6233076150465339e-26 -3.9255568669725951e-27 0.0000000000000000e+00  5.7723511641443415e-26 1.1306735670043543e-26 0.0000000000000000e+00  3.5345427761409662e-26 7.1865499438099368e-27 0.0000000000000000e+00  -4.8346496882834306e-27 -1.1974162094100775e-27 0.0000000000000000e+00  -1.0212587982708286e-26 -2.5007953201319566e-27 0.0000000000000000e+00  -6.2322713486635996e-28 -1.4001879219258870e-28 0.0000000000000000e+00  2.5756542733117976e-27 7.3016310509551738e-28 0.0000000000000000e+00  3.4347451919242786e-28 9.9451258423001920e-29 0.0000000000000000e+00  -6.1530497247150633e-28 -1.9731396998331061e-28 0.0000000000000000e+00  -7.7466987835723577e-29 -2.5474907938122130e-29 0.0000000000000000e+00  1.4293747351436868e-28 5.1534956542604562e-29 0.0000000000000000e+00  4.8495518533807228e-30 1.6839914490064512e-30 0.0000000000000000e+00  -3.1801255189403969e-29 -1.2688752665390056e-29 0.0000000000000000e+00  2.9698480571092165e-30 1.2919214276676871e-30 0.0000000000000000e+00  6.0065080505204792e-30 2.6488418255120667e-30 0.0000000000000000e+00  -1.8024741032004129e-30 -8.3217508398968515e-31 0.0000000000000000e+00  -8.7688054125656787e-31 -4.1917950643596282e-31 0.0000000000000000e+00  5.7298939485094739e-31 2.8751516789361627e-31 0.0000000000000000e+00  2.9483521876257358e-32 1.5158132286177876e-32 0.0000000000000000e+00  -1.2482407321449350e-31 -6.7131195837204348e-32 0.0000000000000000e+00  2.8185854042694338e-32 1.5673320851868791e-32 0.0000000000000000e+00  1.7793854536877759e-32 1.0224435077567868e-32 0.0000000000000000e+00  -1.1376753633074702e-32 -6.7464150809742689e-33 0.0000000000000000e+00  1.6689267751159165e-34 9.0529074128657204e-35 0.0000000000000000e+00  2.0379003157130284e-33 1.2989500042963489e-33 0.0000000000000000e+00  -7.6996918775737040e-34 -4.9901392124574718e-34 0.0000000000000000e+00  -1.0759184708701192e-34 -7.5080997540475211e-35 0.0000000000000000e+00  1.8456367388507148e-34 1.2758448989353603e-34 0.0000000000000000e+00  -5.1933474017208242e-35 -3.6447126463584547e-35 0.0000000000000000e+00  -1.1930872703011598e-35 -8.9339862118189267e-36 0.0000000000000000e+00  1.3573647691141474e-35 1.0153123319134855e-35 0.0000000000000000e+00  -3.5524278358967442e-36 -2.6712459808171446e-36 0.0000000000000000e+00  -8.1848124881695780e-37 -6.6582489473987844e-37 0.0000000000000000e+00  9.4449630536588056e-37 7.5992759938985987e-37 0.0000000000000000e+00  -2.7585787552399296e-37 -2.2311235182904264e-37 0.0000000000000000e+00  -3.1700185180302947e-38 -2.8667646613002447e-38 0.0000000000000000e+00  5.8627347780669514e-38 5.0782722309080061e-38 0.0000000000000000e+00  -2.2605004262188975e-38 -1.9640956876512595e-38 0.0000000000000000e+00  9.8158606610337007e-40 6.9802656769679396e-40 0.0000000000000000e+00  3.0742831416913517e-39 2.8644770836758368e-39 0.0000000000000000e+00  -1.6356316155402386e-39 -1.5196973863636954e-39 0.0000000000000000e+00  3.6149459177792129e-40 3.3357820514451108e-40 0.0000000000000000e+00  1.6059930774073362e-40 1.6416466961773325e-40 0.0000000000000000e+00  3.3376622406975723e-40 3.4127681145021580e-40 0.0000000000000000e+00  -9.3264623913302189e-40 -1.0011514070049552e-39 0.0000000000000000e+00  1.8569378950598963e-39 2.0420819986677954e-39 0.0000000000000000e+00  -1.2561324420227200e-38 -1.3865920124783475e-38 0.0000000000000000e+00  9.2896160306677561e-38 9.9944385224338267e-38 0.0000000000000000e+00  -2.2453851827877764e-37 -2.3821929800024227e-37 0.0000000000000000e+00  2.6848537935718264e-37 2.9625984428905642e-37 0.0000000000000000e+00  -3.9063850372438261e-36 -4.5971152170408803e-36 0.0000000000000000e+00  1.1800675594287557e-35 1.4646784305996176e-35 0.0000000000000000e+00  -4.9569097387960893e-35 -6.4031457307114889e-35 0.0000000000000000e+00  1.0983956327425259e-34 1.4498347356226344e-34 0.0000000000000000e+00  -2.0987646642429673e-34 -2.9834090915739999e-34 0.0000000000000000e+00  1.1612227120948967e-33 1.5867309127559931e-33 0.0000000000000000e+00  -7.5425592277343547e-34 -1.0126560837739294e-33 0.0000000000000000e+00  4.4097775804657013e-33 6.1503606513912818e-33 0.0000000000000000e+00  3.9116366133525112e-32 5.7854754047885108e-32 0.0000000000000000e+00  -1.7899965430472823e-31 -2.6383112126003468e-31 0.0000000000000000e+00  -5.2317920337954957e-31 -8.1461764995241003e-31 0.0000000000000000e+00  1.0482841894441930e-30 1.6480618564699577e-30 0.0000000000000000e+00  -2.2584864995086657e-31 -3.2426663276081318e-31 0.0000000000000000e+00  -3.0627957689911844e-30 -5.4370339367095030e-30 0.0000000000000000e+00  9.1171548619404924e-30 1.7049529583568843e-29 0.0000000000000000e+00  1.3480986741851410e-29 2.6620185865689253e-29 0.0000000000000000e+00  -8.6653839642593822e-29 -1.7251448167380693e-28 0.0000000000000000e+00  2.7973082573001170e-29 5.4925614162182938e-29 0.0000000000000000e+00  9.5585995913540945e-29 1.9693848018318071e-28 0.0000000000000000e+00  3.1213761449669147e-29 7.2795155138969101e-29 0.0000000000000000e+00  2.7524491336073175e-28 6.5487574254261966e-28 0.0000000000000000e+00  1.1972868167143572e-28 3.0822871039376559e-28 0.0000000000000000e+00  -3.1473131769648101e-28 -7.7469229099338702e-28 0.0000000000000000e+00  -3.8846485791544877e-28 -1.0806976716347260e-27 0.0000000000000000e+00  3.4708606745165360e-28 9.5851104195904834e-28 0.0000000000000000e+00  6.1598694520063217e-28 1.8078911522444382e-27 0.0000000000000000e+00  3.5366933691385611e-28 1.1709146518030913e-27 0.0000000000000000e+00  1.3317187525872114e-28 5.3063510045592023e-28 0.0000000000000000e+00  -7.0206559119080814e-28 -2.4627330072908984e-27 0.0000000000000000e+00  -2.2150209996862280e-28 -7.8550380472991813e-28 0.0000000000000000e+00  -8.2465016664818232e-29 -3.1180663760352387e-28 0.0000000000000000e+00  -3.3646763449835505e-28 -1.5224092625865961e-27 0.0000000000000000e+00  -2.8832149601885241e-28 -1.4241712991195876e-27 0.0000000000000000e+00  -3.2625593865128341e-28 -2.0071024862387410e-27 0.0000000000000000e+00  -5.8980775400669211e-29 -5.8648417180748463e-28 0.0000000000000000e+00  2.3129184644603109e-28 1.5654082616585183e-27 0.0000000000000000e+00  -5.3301430413525187e-30 -7.7274812923252810e-29 0.0000000000000000e+00  -1.9198606481971707e-28 -2.2117138421375057e-27 0.0000000000000000e+00  6.0124238348064694e-29 8.4225260140363751e-28 0.0000000000000000e+00  2.6433301951488811e-29 7.0675815475765922e-28 0.0000000000000000e+00  -3.1426441259201830e-29 -1.3784351397907319e-27 0.0000000000000000e+00  -3.4637017745411401e-30 -3.9530176532471593e-28 0.0000000000000000e+00  4.1495452797224309e-29 -1.4998407520388256e-27 0.0000000000000000e+00  -8.5642290458988330e-29 1.8756547775603113e-27 0.0000000000000000e+00  -1.2661925675290324e-28 1.7459722670479361e-27 0.0000000000000000e+00  1.3423134639029522e-28 -1.6244605421407317e-27 0.0000000000000000e+00  3.3025333154048622e-29 -3.0400803077662765e-28 0.0000000000000000e+00  2.5634470907124848e-28 -2.1884488451338421e-27 0.0000000000000000e+00  -1.6567994567364782e-28 1.3706094123463904e-27 0.0000000000000000e+00  -8.5939309123048430e-29 5.2392016810432273e-28 0.0000000000000000e+00  1.4632167476724115e-28 -8.4180714190576376e-28 0.0000000000000000e+00  5.1707925394552148e-29 -3.6334841413542215e-28 0.0000000000000000e+00  5.2455228071893683e-28 -2.6347054959039022e-27 0.0000000000000000e+00  7.1330563811209586e-28 -3.3297509483717179e-27 0.0000000000000000e+00  1.0760217693883886e-27 -4.4940949849258289e-27 0.0000000000000000e+00  3.3110070612728577e-28 -1.2162407748134790e-27 0.0000000000000000e+00  -3.3313185022448421e-28 1.2880122231766517e-27 0.0000000000000000e+00  -7.1618123999515559e-28 2.4277196639636076e-27 0.0000000000000000e+00  -8.3460816672678462e-28 2.6341162468504059e-27 0.0000000000000000e+00  -2.2180747868978718e-28 6.3953230737843263e-28 0.0000000000000000e+00  1.5974563354877081e-28 -4.7224841424545826e-28 0.0000000000000000e+00  1.6533734629912620e-28 -4.7486624927864283e-28 0.0000000000000000e+00  6.8323322534578724e-28 -1.7602641676971937e-27 0.0000000000000000e+00  2.8755176245799781e-28 -6.9369598999253724e-28 0.0000000000000000e+00  -2.3878703176361304e-28 5.6883177479610539e-28 0.0000000000000000e+00  -1.0898447876436616e-29 2.0859710269305679e-29 0.0000000000000000e+00  2.8006993101031976e-29 -6.2764379306105342e-29 0.0000000000000000e+00  6.7071878008292235e-29 -1.3992268537801688e-28 0.0000000000000000e+00  -1.4128269889720588e-29 2.8934582396109646e-29 0.0000000000000000e+00  -2.0771445375248394e-29 3.9930274622585314e-29 0.0000000000000000e+00  1.780