<?xml version="1.0"?>
<VTKFile type="UnstructuredGrid"  version="0.1"  >
<UnstructuredGrid>
<Piece  NumberOfPoints="11902" NumberOfCells="23402">
<Points>
<DataArray  type="Float64"  NumberOfComponents="3"  format="ascii">-5 -5 0  5 -5 0  5 5 0  -5 5 0  1.26466159434596 0.001264291635559718 0  -4.9 -5 0  -4.8 -5 0  -4.7 -5 0  -4.6 -5 0  -4.5 -5 0  -4.4 -5 0  -4.3 -5 0  -4.2 -5 0  -4.1 -5 0  -4 -5 0  -3.9 -5 0  -3.8 -5 0  -3.7 -5 0  -3.6 -5 0  -3.5 -5 0  -3.4 -5 0  -3.3 -5 0  -3.2 -5 0  -3.1 -5 0  -3 -5 0  -2.9 -5 0  -2.8 -5 0  -2.7 -5 0  -2.6 -5 0  -2.5 -5 0  -2.4 -5 0  -2.3 -5 0  -2.2 -5 0  -2.1 -5 0  -2 -5 0  -1.9 -5 0  -1.8 -5 0  -1.7 -5 0  -1.6 -5 0  -1.5 -5 0  -1.4 -5 0  -1.3 -5 0  -1.2 -5 0  -1.1 -5 0  -1 -5 0  -0.9000000000000004 -5 0  -0.7999999999999998 -5 0  -0.7000000000000002 -5 0  -0.5999999999999996 -5 0  -0.5 -5 0  -0.4000000000000004 -5 0  -0.2999999999999998 -5 0  -0.2000000000000002 -5 0  -0.09999999999999964 -5 0  0 -5 0  0.09999999999999964 -5 0  0.2000000000000002 -5 0  0.2999999999999998 -5 0  0.4000000000000004 -5 0  0.5 -5 0  0.5999999999999996 -5 0  0.7000000000000002 -5 0  0.7999999999999998 -5 0  0.9000000000000004 -5 0  1 -5 0  1.1 -5 0  1.2 -5 0  1.3 -5 0  1.4 -5 0  1.5 -5 0  1.6 -5 0  1.7 -5 0  1.8 -5 0  1.9 -5 0  2 -5 0  2.1 -5 0  2.2 -5 0  2.3 -5 0  2.4 -5 0  2.5 -5 0  2.6 -5 0  2.7 -5 0  2.8 -5 0  2.9 -5 0  3 -5 0  3.1 -5 0  3.199999999999999 -5 0  3.300000000000001 -5 0  3.4 -5 0  3.5 -5 0  3.6 -5 0  3.699999999999999 -5 0  3.800000000000001 -5 0  3.9 -5 0  4 -5 0  4.1 -5 0  4.199999999999999 -5 0  4.300000000000001 -5 0  4.4 -5 0  4.5 -5 0  4.6 -5 0  4.699999999999999 -5 0  4.800000000000001 -5 0  4.9 -5 0  5 -4.9 0  5 -4.8 0  5 -4.7 0  5 -4.6 0  5 -4.5 0  5 -4.4 0  5 -4.3 0  5 -4.2 0  5 -4.1 0  5 -4 0  5 -3.9 0  5 -3.8 0  5 -3.7 0  5 -3.6 0  5 -3.5 0  5 -3.4 0  5 -3.3 0  5 -3.2 0  5 -3.1 0  5 -3 0  5 -2.9 0  5 -2.8 0  5 -2.7 0  5 -2.6 0  5 -2.5 0  5 -2.4 0  5 -2.3 0  5 -2.2 0  5 -2.1 0  5 -2 0  5 -1.9 0  5 -1.8 0  5 -1.7 0  5 -1.6 0  5 -1.5 0  5 -1.4 0  5 -1.3 0  5 -1.2 0  5 -1.1 0  5 -1 0  5 -0.9000000000000004 0  5 -0.7999999999999998 0  5 -0.7000000000000002 0  5 -0.5999999999999996 0  5 -0.5 0  5 -0.4000000000000004 0  5 -0.2999999999999998 0  5 -0.2000000000000002 0  5 -0.09999999999999964 0  5 0 0  5 0.09999999999999964 0  5 0.2000000000000002 0  5 0.2999999999999998 0  5 0.4000000000000004 0  5 0.5 0  5 0.5999999999999996 0  5 0.7000000000000002 0  5 0.7999999999999998 0  5 0.9000000000000004 0  5 1 0  5 1.1 0  5 1.2 0  5 1.3 0  5 1.4 0  5 1.5 0  5 1.6 0  5 1.7 0  5 1.8 0  5 1.9 0  5 2 0  5 2.1 0  5 2.2 0  5 2.3 0  5 2.4 0  5 2.5 0  5 2.6 0  5 2.7 0  5 2.8 0  5 2.9 0  5 3 0  5 3.1 0  5 3.199999999999999 0  5 3.300000000000001 0  5 3.4 0  5 3.5 0  5 3.6 0  5 3.699999999999999 0  5 3.800000000000001 0  5 3.9 0  5 4 0  5 4.1 0  5 4.199999999999999 0  5 4.300000000000001 0  5 4.4 0  5 4.5 0  5 4.6 0  5 4.699999999999999 0  5 4.800000000000001 0  5 4.9 0  4.9 5 0  4.8 5 0  4.7 5 0  4.6 5 0  4.5 5 0  4.4 5 0  4.3 5 0  4.2 5 0  4.1 5 0  4 5 0  3.9 5 0  3.8 5 0  3.7 5 0  3.6 5 0  3.5 5 0  3.4 5 0  3.3 5 0  3.2 5 0  3.1 5 0  3 5 0  2.9 5 0  2.8 5 0  2.7 5 0  2.6 5 0  2.5 5 0  2.4 5 0  2.3 5 0  2.2 5 0  2.1 5 0  2 5 0  1.9 5 0  1.8 5 0  1.7 5 0  1.6 5 0  1.5 5 0  1.4 5 0  1.3 5 0  1.2 5 0  1.1 5 0  1 5 0  0.9000000000000004 5 0  0.7999999999999998 5 0  0.7000000000000002 5 0  0.5999999999999996 5 0  0.5 5 0  0.4000000000000004 5 0  0.2999999999999998 5 0  0.2000000000000002 5 0  0.09999999999999964 5 0  0 5 0  -0.09999999999999964 5 0  -0.2000000000000002 5 0  -0.2999999999999998 5 0  -0.4000000000000004 5 0  -0.5 5 0  -0.5999999999999996 5 0  -0.7000000000000002 5 0  -0.7999999999999998 5 0  -0.9000000000000004 5 0  -1 5 0  -1.1 5 0  -1.2 5 0  -1.3 5 0  -1.4 5 0  -1.5 5 0  -1.6 5 0  -1.7 5 0  -1.8 5 0  -1.9 5 0  -2 5 0  -2.1 5 0  -2.2 5 0  -2.3 5 0  -2.4 5 0  -2.5 5 0  -2.6 5 0  -2.7 5 0  -2.8 5 0  -2.9 5 0  -3 5 0  -3.1 5 0  -3.199999999999999 5 0  -3.300000000000001 5 0  -3.4 5 0  -3.5 5 0  -3.6 5 0  -3.699999999999999 5 0  -3.800000000000001 5 0  -3.9 5 0  -4 5 0  -4.1 5 0  -4.199999999999999 5 0  -4.300000000000001 5 0  -4.4 5 0  -4.5 5 0  -4.6 5 0  -4.699999999999999 5 0  -4.800000000000001 5 0  -4.9 5 0  -5 4.9 0  -5 4.8 0  -5 4.7 0  -5 4.6 0  -5 4.5 0  -5 4.4 0  -5 4.3 0  -5 4.2 0  -5 4.1 0  -5 4 0  -5 3.9 0  -5 3.8 0  -5 3.7 0  -5 3.6 0  -5 3.5 0  -5 3.4 0  -5 3.3 0  -5 3.2 0  -5 3.1 0  -5 3 0  -5 2.9 0  -5 2.8 0  -5 2.7 0  -5 2.6 0  -5 2.5 0  -5 2.4 0  -5 2.3 0  -5 2.2 0  -5 2.1 0  -5 2 0  -5 1.9 0  -5 1.8 0  -5 1.7 0  -5 1.6 0  -5 1.5 0  -5 1.4 0  -5 1.3 0  -5 1.2 0  -5 1.1 0  -5 1 0  -5 0.9000000000000004 0  -5 0.7999999999999998 0  -5 0.7000000000000002 0  -5 0.5999999999999996 0  -5 0.5 0  -5 0.4000000000000004 0  -5 0.2999999999999998 0  -5 0.2000000000000002 0  -5 0.09999999999999964 0  -5 0 0  -5 -0.09999999999999964 0  -5 -0.2000000000000002 0  -5 -0.2999999999999998 0  -5 -0.4000000000000004 0  -5 -0.5 0  -5 -0.5999999999999996 0  -5 -0.7000000000000002 0  -5 -0.7999999999999998 0  -5 -0.9000000000000004 0  -5 -1 0  -5 -1.1 0  -5 -1.2 0  -5 -1.3 0  -5 -1.4 0  -5 -1.5 0  -5 -1.6 0  -5 -1.7 0  -5 -1.8 0  -5 -1.9 0  -5 -2 0  -5 -2.1 0  -5 -2.2 0  -5 -2.3 0  -5 -2.4 0  -5 -2.5 0  -5 -2.6 0  -5 -2.7 0  -5 -2.8 0  -5 -2.9 0  -5 -3 0  -5 -3.1 0  -5 -3.199999999999999 0  -5 -3.300000000000001 0  -5 -3.4 0  -5 -3.5 0  -5 -3.6 0  -5 -3.699999999999999 0  -5 -3.800000000000001 0  -5 -3.9 0  -5 -4 0  -5 -4.1 0  -5 -4.199999999999999 0  -5 -4.300000000000001 0  -5 -4.4 0  -5 -4.5 0  -5 -4.6 0  -5 -4.699999999999999 0  -5 -4.800000000000001 0  -5 -4.9 0  1.256581647614195 0.09309690256439758 0  1.234411917432636 0.190920507027266 0  1.200624261723077 0.2876827695664835 0  1.15791684313436 0.3760676369480321 0  1.099250079859176 0.4672085363769158 0  1.032646390052494 0.5506688817197412 0  0.9540282470391318 0.6311646169532381 0  0.8667229761722225 0.706099219264986 0  0.7748890444534452 0.7713239394987709 0  0.6729837928112952 0.8287769589641444 0  0.5595784370867493 0.8810110188281052 0  0.4460354476423373 0.9260085398430462 0  0.3352978045816223 0.9576033066814543 0  0.2088046589179799 0.9800626596084934 0  0.08760513955121298 0.9985726085997489 0  -0.0263090184171958 1.002113808554545 0  -0.1439864622555069 0.9884440401873142 0  -0.2739406356023828 0.9685742609377991 0  -0.3940922772599765 0.9443983956216314 0  -0.5035925003344563 0.9092512505140926 0  -0.6131704412704573 0.8628319458486494 0  -0.7151263658649269 0.8077144076729306 0  -0.8095855675158097 0.7432473582770687 0  -0.9012381488913239 0.6694397388663391 0  -0.9878847611014793 0.5890858611236015 0  -1.062885311762856 0.5073971316085003 0  -1.12507063018272 0.4230455189204161 0  -1.180277805477481 0.3291984170921761 0  -1.217662268300426 0.2423587898506179 0  -1.242005393614443 0.1486445790413897 0  -1.252272079974234 0.05262338909491499 0  -1.252220190271459 -0.05031154401372115 0  -1.241893198800659 -0.145604209239827 0  -1.217291543812272 -0.2363682638521734 0  -1.175030415461049 -0.3316599019881509 0  -1.125368728452848 -0.4240981581694228 0  -1.065011595776024 -0.5072440014234986 0  -0.9904478450102566 -0.588107502782268 0  -0.9044074130317391 -0.6674181968250653 0  -0.8136562681173599 -0.7387812601506867 0  -0.7183666839676417 -0.7994100401243345 0  -0.6137326843595945 -0.8527793405490278 0  -0.4978217592274017 -0.9025277614951751 0  -0.385415558197997 -0.9424459982548103 0  -0.2706109025549573 -0.968432874560618 0  -0.1422525181004005 -0.9884982063678309 0  -0.02750903189876864 -1.001354018066383 0  0.08603293656597105 -0.9939422657970227 0  0.2153800817329792 -0.9759271066135586 0  0.338250165680964 -0.9557680660173092 0  0.450255509371933 -0.9246806293247093 0  0.5623331256210864 -0.8802343927254991 0  0.6742718446942628 -0.8286117565438341 0  0.774669076971593 -0.7725314751936403 0  0.8659408066074236 -0.7077356806020539 0  0.9517598723546637 -0.6318953038612101 0  1.030239348944218 -0.5492717256473512 0  1.100918172575138 -0.4655028872546401 0  1.158779644312086 -0.3763780732526709 0  1.202445381865541 -0.2857639158402726 0  1.235146215975047 -0.1902849163024966 0  1.256998917717365 -0.09320390755487309 0  -2.448521013143226 4.918042337459123 0  -2.448391275218789 -4.910413936181672 0  4.910335353271032 2.447836961325458 0  4.918469658563357 -2.449303987450159 0  2.446113954154283 -4.895631652629328 0  2.440548991137629 4.899397262574444 0  -4.910362691822689 -2.447864020517205 0  -4.910359998852265 2.44786818183256 0  -1.748473473256193 4.910897881463155 0  -1.74426153450258 -4.914343368957328 0  4.920489612830046 1.744017284859634 0  4.909002957155983 -1.747771054655763 0  -4.909298006536035 -1.747505926381673 0  -4.91012171141232 1.747251698124436 0  1.745743137221732 4.904745366131801 0  1.747150970961843 -4.892874481053492 0  -1.148792946975449 4.908655895978682 0  -1.129653804781768 -4.916585098065264 0  -4.908977430169611 -1.147845052761187 0  -4.908795339827104 1.147645817864996 0  1.143790370295099 -4.912762420989687 0  1.148802529131552 4.908641972812473 0  4.90911651769295 1.146119764559534 0  4.91997414543573 -1.151911778100475 0  -0.5466432285772028 -4.909831238781678 0  -0.5464288765255662 4.918534446860809 0  -4.907679285532518 -0.5486624395530088 0  -4.90770326849787 0.5472208045626246 0  4.906995350878117 -0.5489804089772568 0  4.918684803472787 0.5457434121211591 0  0.5424232364349337 -4.896679628955837 0  0.5511561801579409 4.915349925445572 0  -4.911819239709013 -3.048232170540603 0  4.918395411835361 3.046252270637316 0  4.911326486776841 -3.048207084580293 0  -4.912667607429919 3.045324427730194 0  3.055251742318762 -4.917316980862455 0  -3.04857873524841 -4.911247814458623 0  3.052147212106666 4.913326952325099 0  -3.048024925610406 4.912138399441099 0  -4.906775921861062 -0.04990304231073405 0  0.04511826272312374 -4.911779718151381 0  0.04956519226454469 4.9188228350606 0  4.91385024877805 -0.05128581783329139 0  3.545580631881897 -4.918980975732926 0  -3.548857763120602 4.9
[...]
<PointData  Vectors="f_6338"> 
<DataArray  type="Float64"  Name="f_6338"  NumberOfComponents="3" format="ascii">1.0923974427204519e-40 7.0816590212304784e-41 0.0000000000000000e+00  -9.3973311418239752e-41 7.2036434684505561e-41 0.0000000000000000e+00  -1.6485776034722323e-41 -9.9339219187678843e-42 0.0000000000000000e+00  1.5722801370812261e-40 -1.2519771698858621e-40 0.0000000000000000e+00  1.1211771477135340e+01 -3.3097950534823922e-02 0.0000000000000000e+00  -1.8688130249808239e-40 -1.2756350041786027e-40 0.0000000000000000e+00  4.5249061193379838e-40 2.6497766745494805e-40 0.0000000000000000e+00  -1.3807174729609684e-39 -7.9369293007441241e-40 0.0000000000000000e+00  -2.3241284140400014e-39 -2.2206022041076187e-39 0.0000000000000000e+00  -1.8731360225468623e-39 6.7022524249197133e-40 0.0000000000000000e+00  -6.2084405092887214e-38 -4.0071312947551454e-38 0.0000000000000000e+00  9.0670218921944939e-38 5.7405863381601274e-38 0.0000000000000000e+00  -1.2004898534257900e-36 -1.0976921872990599e-36 0.0000000000000000e+00  9.9463576178241747e-36 9.7953727423452049e-36 0.0000000000000000e+00  -3.1393585001137417e-35 -3.4990712532242036e-35 0.0000000000000000e+00  4.1947244136432561e-35 7.0900729366021428e-35 0.0000000000000000e+00  -7.4746484789110059e-35 -1.7306062524162487e-34 0.0000000000000000e+00  -1.8346394854059215e-34 -3.1694839669438395e-34 0.0000000000000000e+00  1.7263763728257405e-33 2.4522923374808319e-33 0.0000000000000000e+00  -7.9495667992823597e-33 -1.1164451920664285e-32 0.0000000000000000e+00  3.9842621006385514e-32 5.6021255963851762e-32 0.0000000000000000e+00  -9.6108730208652604e-32 -1.3706167442258990e-31 0.0000000000000000e+00  -9.9675263905056213e-32 -9.4001505222567380e-32 0.0000000000000000e+00  6.8590815027669107e-31 7.0551288206886304e-31 0.0000000000000000e+00  6.6064640929223669e-32 3.4446771191524017e-31 0.0000000000000000e+00  -2.8630408958297622e-31 3.0300534272389846e-31 0.0000000000000000e+00  -7.6698444911962257e-31 -1.9219945139774253e-30 0.0000000000000000e+00  1.5715733980147604e-30 9.6382075856851034e-30 0.0000000000000000e+00  -6.4069093476951239e-30 -2.4060781513210208e-29 0.0000000000000000e+00  -4.3708352445464208e-30 -1.7455555320628133e-29 0.0000000000000000e+00  4.0547854105722079e-29 1.2300391624049458e-28 0.0000000000000000e+00  1.1366310609722888e-29 4.2853445084277732e-29 0.0000000000000000e+00  -4.3957097747245040e-30 -1.5966270418508808e-29 0.0000000000000000e+00  -1.9346696008796736e-29 -4.7499464178141342e-29 0.0000000000000000e+00  -4.5901344233628749e-29 5.0478718814480861e-29 0.0000000000000000e+00  -2.7333179287525568e-29 -3.1756985471766400e-28 0.0000000000000000e+00  -2.5833362210795015e-29 -2.9325400554125903e-28 0.0000000000000000e+00  -9.3510994456593320e-30 -4.6812150093834608e-29 0.0000000000000000e+00  1.6589879662046598e-29 6.0142481038099174e-28 0.0000000000000000e+00  6.1061139762926412e-29 7.2692052957959056e-28 0.0000000000000000e+00  1.5617513069549208e-28 3.6235987677534015e-28 0.0000000000000000e+00  1.0322285729522094e-28 -2.7158390945516521e-28 0.0000000000000000e+00  9.0008194874897172e-29 -8.2664351815965430e-29 0.0000000000000000e+00  1.1876101269046620e-28 2.1613120522137005e-28 0.0000000000000000e+00  3.0031645648269432e-29 -7.4523305982541284e-29 0.0000000000000000e+00  -2.9860759279656947e-28 -3.6928160156744470e-28 0.0000000000000000e+00  -1.8852201516194759e-28 -1.6433170859143342e-28 0.0000000000000000e+00  1.4874113372783629e-28 2.1860126189644105e-28 0.0000000000000000e+00  -1.7297642888960928e-28 2.0911651479776079e-28 0.0000000000000000e+00  -7.7707610668694236e-29 -2.9999781058157258e-28 0.0000000000000000e+00  -3.2623192128086723e-29 -1.0031177144859759e-27 0.0000000000000000e+00  -4.8311949756056132e-29 -1.1765945835836371e-27 0.0000000000000000e+00  6.8968098932245959e-30 -1.0571946016709921e-27 0.0000000000000000e+00  1.2650280755105102e-28 -6.5712351098652919e-28 0.0000000000000000e+00  1.8624698496389912e-28 -8.2197238437081516e-28 0.0000000000000000e+00  5.9640075956258235e-29 -6.0683065357558513e-28 0.0000000000000000e+00  1.3454993308479378e-28 -1.4606076577325390e-27 0.0000000000000000e+00  7.0743453644175478e-29 -1.3697860380826153e-27 0.0000000000000000e+00  1.1171726645802342e-28 -1.3781836401569737e-27 0.0000000000000000e+00  2.4059297316924651e-29 -9.5017976790451398e-28 0.0000000000000000e+00  1.4774737038805076e-28 -2.1467757706165693e-27 0.0000000000000000e+00  1.1053871040529561e-28 -1.8721228958432678e-27 0.0000000000000000e+00  3.2509777828084938e-29 -6.3454180799750795e-28 0.0000000000000000e+00  -6.9646033163739850e-29 4.4614858981771355e-28 0.0000000000000000e+00  -1.2965013845242022e-30 1.4293313734621145e-28 0.0000000000000000e+00  -1.9618394595567215e-30 5.8689447635388216e-28 0.0000000000000000e+00  2.6492083724993996e-29 3.8692690845651998e-28 0.0000000000000000e+00  1.5846355732709092e-29 1.7394538281577085e-28 0.0000000000000000e+00  -3.9300700061350351e-29 1.0122003889841394e-28 0.0000000000000000e+00  -4.5776852565648331e-29 -5.0617665044024120e-29 0.0000000000000000e+00  3.1120617080690771e-31 -4.1102045199149030e-29 0.0000000000000000e+00  -6.2048650418889112e-29 6.4344305466068519e-29 0.0000000000000000e+00  -4.1769257217250907e-29 1.1770731361023556e-28 0.0000000000000000e+00  5.0526858770668502e-29 -1.8616206482893528e-28 0.0000000000000000e+00  5.5605857927095513e-29 -3.1289645076767210e-28 0.0000000000000000e+00  7.2712797077774810e-30 -3.0096462396325725e-29 0.0000000000000000e+00  -2.7016410606412529e-29 1.3367029527766767e-28 0.0000000000000000e+00  3.1376293807308700e-30 -1.7457526966345899e-29 0.0000000000000000e+00  -4.8924625960061526e-30 1.6424538494983568e-29 0.0000000000000000e+00  3.7439845831565900e-30 -4.9441824204372065e-30 0.0000000000000000e+00  1.3630782420813400e-29 -4.2246608046613525e-29 0.0000000000000000e+00  -2.0688436232536419e-30 5.6482854451501156e-30 0.0000000000000000e+00  -9.7097086224207047e-31 3.2010272272998317e-30 0.0000000000000000e+00  3.7666671251669511e-30 -7.4632849828221605e-30 0.0000000000000000e+00  4.6432104038805627e-31 -5.5792151426069125e-31 0.0000000000000000e+00  -4.9408333305653122e-31 7.8610307032708020e-31 0.0000000000000000e+00  2.1169409050700914e-31 -3.5003281447312129e-31 0.0000000000000000e+00  -4.5864927932237324e-32 5.9973539047887091e-32 0.0000000000000000e+00  4.6600705881630450e-33 -6.5176149089647350e-33 0.0000000000000000e+00  2.2611940678906070e-33 -1.6465064493807455e-33 0.0000000000000000e+00  -4.0608832604762487e-33 3.9640322239761057e-33 0.0000000000000000e+00  -9.2524237026613634e-36 8.3640253308260797e-35 0.0000000000000000e+00  2.1386978694353490e-34 -2.3797804267043069e-34 0.0000000000000000e+00  -3.4696401925681925e-35 4.2758922198904259e-35 0.0000000000000000e+00  2.0029702032158768e-35 -1.9995602603560678e-35 0.0000000000000000e+00  -2.5562796545600186e-36 2.5608896183837438e-36 0.0000000000000000e+00  -5.0124529085585597e-37 4.2213106303351695e-37 0.0000000000000000e+00  1.1559785428178296e-37 -1.0598971494337329e-37 0.0000000000000000e+00  -6.3623657408233386e-38 5.5438115128280682e-38 0.0000000000000000e+00  2.0246454210231088e-38 -1.7270379917113799e-38 0.0000000000000000e+00  -1.4532596182734538e-39 9.7649397055495232e-40 0.0000000000000000e+00  3.1923577400651305e-40 -3.5329690878980695e-40 0.0000000000000000e+00  -2.2493070234284312e-40 1.9502704293905894e-40 0.0000000000000000e+00  1.4836563207027411e-40 -1.1266538496614062e-40 0.0000000000000000e+00  2.5830005567382292e-41 -2.4594363350790516e-41 0.0000000000000000e+00  1.9656797185415625e-40 -1.4793629837874419e-40 0.0000000000000000e+00  -4.0578463698725845e-40 2.8398953100407898e-40 0.0000000000000000e+00  -9.7826229402215269e-43 -1.3542507176228646e-40 0.0000000000000000e+00  2.7747214687164451e-39 -1.4134270340507065e-39 0.0000000000000000e+00  -9.5199426004492658e-39 5.5317777277533743e-39 0.0000000000000000e+00  1.3963507784717764e-38 -9.3906638718982169e-39 0.0000000000000000e+00  1.7034177761370375e-38 -4.5832095912595197e-39 0.0000000000000000e+00  -1.5016165146383825e-37 7.5075074719153133e-38 0.0000000000000000e+00  3.8243620241282313e-37 -2.1299791791495043e-37 0.0000000000000000e+00  -1.8666719632768552e-37 1.6319457598605396e-37 0.0000000000000000e+00  -1.8442692785318179e-36 8.2851919048065015e-37 0.0000000000000000e+00  6.2932488876174864e-36 -3.2651000598200529e-36 0.0000000000000000e+00  -7.1428342248275358e-36 4.4246140206249553e-36 0.0000000000000000e+00  -1.9723140180119974e-35 8.3557911962548755e-36 0.0000000000000000e+00  9.3854390657570436e-35 -4.7978848314771285e-35 0.0000000000000000e+00  -1.1397262494684322e-34 6.6624441742289304e-35 0.0000000000000000e+00  -2.5744053436331302e-34 1.1746262774696927e-34 0.0000000000000000e+00  1.2421656133790679e-33 -6.5149230192600875e-34 0.0000000000000000e+00  -1.1526727442009931e-33 6.6698501782106794e-34 0.0000000000000000e+00  -4.4157661183505764e-33 2.2886438726108571e-33 0.0000000000000000e+00  1.4323179929563879e-32 -7.7554541483967736e-33 0.0000000000000000e+00  -1.5537286257012832e-33 6.0984773142254551e-34 0.0000000000000000e+00  -7.1530701056135410e-32 4.0059501017930584e-32 0.0000000000000000e+00  1.1464189403157217e-31 -5.9386189826608880e-32 0.0000000000000000e+00  1.9718232615802907e-31 -1.2559240657641136e-31 0.0000000000000000e+00  -7.4715956086886998e-31 4.0195368164752168e-31 0.0000000000000000e+00  -1.0797032414274544e-31 2.0556431722095953e-31 0.0000000000000000e+00  3.5316156720819844e-30 -1.9915467325791576e-30 0.0000000000000000e+00  -2.4709731869400708e-30 3.9260615679500841e-31 0.0000000000000000e+00  -1.3747832294746267e-29 8.2030233242237568e-30 0.0000000000000000e+00  1.8958554317813139e-29 -4.5980216880876057e-30 0.0000000000000000e+00  4.7976078148640127e-29 -3.0275519540397562e-29 0.0000000000000000e+00  -1.0051756510954868e-28 2.2367989771402631e-29 0.0000000000000000e+00  -1.7083118596133942e-28 1.0303155285864370e-28 0.0000000000000000e+00  4.7945147371660974e-28 -9.3904866957153292e-29 0.0000000000000000e+00  6.5592644742232135e-28 -3.1986971115561605e-28 0.0000000000000000e+00  -2.2131806371356841e-27 4.7506408006777335e-28 0.0000000000000000e+00  -4.0085520141862858e-27 1.4613096810551688e-27 0.0000000000000000e+00  8.1809005342932871e-27 -1.7036526888663242e-27 0.0000000000000000e+00  2.1633691910572512e-26 -6.8084371923925383e-27 0.0000000000000000e+00  -1.3980845395498208e-27 -3.9455646627799563e-27 0.0000000000000000e+00  -7.0326432994582388e-26 1.1691102508578512e-26 0.0000000000000000e+00  -7.6531382575394000e-26 1.5185733632834807e-26 0.0000000000000000e+00  1.2700484361877790e-25 -2.7532087428544630e-26 0.0000000000000000e+00  5.4418379559798304e-25 -1.1311879239322456e-25 0.0000000000000000e+00  8.5220844153158022e-25 -1.6715342426033860e-25 0.0000000000000000e+00  8.5332980400703257e-25 -1.4808505309806889e-25 0.0000000000000000e+00  6.3390857367208980e-25 -7.4656466376531157e-26 0.0000000000000000e+00  5.2390504280879029e-25 -8.8651401723316130e-28 0.0000000000000000e+00  6.1380338805148674e-25 5.4950258956110257e-26 0.0000000000000000e+00  6.9051705367287688e-25 8.5804259746466698e-26 0.0000000000000000e+00  5.5776015242163126e-25 7.9003852353064141e-26 0.0000000000000000e+00  2.5419776272992276e-25 3.5740973132635484e-26 0.0000000000000000e+00  1.1920845684310728e-26 -5.6178886785004661e-27 0.0000000000000000e+00  -6.0034473439213025e-26 -1.5059757712676231e-26 0.0000000000000000e+00  -1.6028700038524601e-26 5.6883727396100666e-28 0.0000000000000000e+00  2.3055107557415525e-26 1.1532731999100245e-26 0.0000000000000000e+00  1.9133940143684791e-26 8.0075438413382593e-27 0.0000000000000000e+00  2.1168476852832039e-27 9.8376138002864425e-28 0.0000000000000000e+00  -3.3761439134167206e-27 -1.1805352255103593e-27 0.0000000000000000e+00  -1.0197656404262218e-27 -3.5575360046502388e-28 0.0000000000000000e+00  5.9682671917668318e-28 1.8465186897899940e-28 0.0000000000000000e+00  1.9596869105651565e-28 3.1813885152876263e-29 0.0000000000000000e+00  -1.4296944688619040e-28 -5.6236152991203355e-29 0.0000000000000000e+00  -2.9983668855587920e-29 1.9656907199224094e-30 0.0000000000000000e+00  3.7407051228592512e-29 1.7232849601463525e-29 0.0000000000000000e+00  1.8449795141868315e-30 -2.5654222053568533e-30 0.0000000000000000e+00  -9.2131954787183861e-30 -4.3488555989530859e-30 0.0000000000000000e+00  8.9112979193051017e-31 1.0513105567408922e-30 0.0000000000000000e+00  1.8594978121740092e-30 8.3942204980074892e-31 0.0000000000000000e+00  -5.5633258839579561e-31 -3.6730020278123056e-31 0.0000000000000000e+00  -2.8976853815357709e-31 -1.1866789780477994e-31 0.0000000000000000e+00  1.8269964608886337e-31 1.0068598021096919e-31 0.0000000000000000e+00  1.3175996329279163e-32 6.6236443617641535e-34 0.0000000000000000e+00  -4.1163153833771226e-32 -2.0537704607015754e-32 0.0000000000000000e+00  8.6972760774457497e-33 5.2192226234543869e-33 0.0000000000000000e+00  5.9637534788876152e-33 2.6744525040955721e-33 0.0000000000000000e+00  -3.7252715296219184e-33 -1.8744250854428145e-33 0.0000000000000000e+00  1.0306794560551362e-34 1.0190177086221077e-34 0.0000000000000000e+00  6.3831569010892945e-34 2.9828267428620165e-34 0.0000000000000000e+00  -2.6777119895613140e-34 -1.3218673471092109e-34 0.0000000000000000e+00  -1.3274554900822587e-35 -3.2627474486986811e-36 0.0000000000000000e+00  5.4445804902098747e-35 2.5197344677708880e-35 0.0000000000000000e+00  -2.0669778801446249e-35 -1.0037760792812326e-35 0.0000000000000000e+00  -2.7443286640455991e-37 1.1174300459503077e-37 0.0000000000000000e+00  3.5685799969362873e-36 1.6274264692746690e-36 0.0000000000000000e+00  -1.5663729543903481e-36 -7.6261919007989552e-37 0.0000000000000000e+00  1.4477051195662069e-37 9.2288374918788086e-38 0.0000000000000000e+00  1.8077417348643357e-37 7.9047936256898789e-38 0.0000000000000000e+00  -1.1015987679330086e-37 -5.4463497126739029e-38 0.0000000000000000e+00  2.6919531968258714e-38 1.5465047563457334e-38 0.0000000000000000e+00  3.3857280098015651e-39 7.1089928124365535e-40 0.0000000000000000e+00  -5.9628361722399588e-39 -2.9503857509670559e-39 0.0000000000000000e+00  2.6512677792773284e-39 1.5335186100169824e-39 0.0000000000000000e+00  -5.1178101537816328e-40 -3.7331877426374202e-40 0.0000000000000000e+00  -1.2144116889469714e-40 -4.2248656399948096e-41 0.0000000000000000e+00  1.2576406763532609e-40 6.9400403041429128e-41 0.0000000000000000e+00  -8.0073028021425372e-41 -5.8252240423453055e-41 0.0000000000000000e+00  5.6047847746744307e-41 3.7580378204512996e-41 0.0000000000000000e+00  2.0593919983172584e-40 1.6720446032243640e-40 0.0000000000000000e+00  -4.3871727410695742e-40 -4.0855722882556634e-40 0.0000000000000000e+00  5.5852876392554034e-39 4.7707093689285542e-39 0.0000000000000000e+00  -2.5641683940542757e-38 -2.2086865881766281e-38 0.0000000000000000e+00  9.3195087688892320e-38 7.9325372010868268e-38 0.0000000000000000e+00  -2.3607358121927824e-37 -2.0831967114122761e-37 0.0000000000000000e+00  1.7210184447848889e-36 1.6238133624061621e-36 0.0000000000000000e+00  -3.4853165270307722e-36 -3.8760391796119681e-36 0.0000000000000000e+00  4.6076664622268094e-36 8.1569633769304211e-36 0.0000000000000000e+00  2.9901769967803917e-35 1.8329447982847493e-35 0.0000000000000000e+00  -2.5132314964051354e-34 -2.1605907382433725e-34 0.0000000000000000e+00  4.8098969769627453e-34 4.7837357496723610e-34 0.0000000000000000e+00  -1.4007396228342209e-33 -1.7062978454956185e-33 0.0000000000000000e+00  3.3197378235216784e-33 3.2979501160012041e-33 0.0000000000000000e+00  -3.4382333195794629e-34 -1.6964150430556222e-33 0.0000000000000000e+00  -1.9188338450260338e-32 -1.2396357168933413e-32 0.0000000000000000e+00  -9.6180436554929410e-33 -1.2665387514828519e-32 0.0000000000000000e+00  -1.7892554515306529e-32 3.1615989934229243e-32 0.0000000000000000e+00  -6.7019279432177553e-32 -2.5545537078563735e-31 0.0000000000000000e+00  -2.8415746046645134e-31 -6.8705434053187031e-31 0.0000000000000000e+00  2.5593599946895735e-30 5.4853157012516964e-30 0.0000000000000000e+00  1.3147849581252799e-30 2.1778363159647589e-30 0.0000000000000000e+00  -9.9180882438350901e-30 -1.7750803250692924e-29 0.0000000000000000e+00  -2.6918417678930391e-30 -7.0340167072350763e-30 0.0000000000000000e+00  -9.7880906754720642e-30 -5.5916974820688284e-29 0.0000000000000000e+00  1.5475160753785213e-29 6.4649018156759130e-29 0.0000000000000000e+00  5.8280110387233223e-29 2.6628655446244789e-28 0.0000000000000000e+00  1.4284814216471745e-29 7.1277847403268917e-29 0.0000000000000000e+00  -6.9997468829121536e-30 -8.1081052818794756e-29 0.0000000000000000e+00  -8.9905386957819447e-29 -4.8546569490942895e-28 0.0000000000000000e+00  4.3087146751669419e-29 3.3625344390419160e-28 0.0000000000000000e+00  5.7986682530572142e-29 6.0968078276227733e-28 0.0000000000000000e+00  6.4150830459641041e-29 4.6419369931766305e-28 0.0000000000000000e+00  7.0261789390790999e-29 1.8951312451365595e-28 0.0000000000000000e+00  -6.2131734819308233e-29 -1.1845605096430504e-27 0.0000000000000000e+00  1.8116691483633597e-29 -5.2358629934708548e-28 0.0000000000000000e+00  2.7863205269015200e-29 -3.4163346986141119e-28 0.0000000000000000e+00  -1.2509653077316094e-29 -8.1315466303868279e-28 0.0000000000000000e+00  6.1113794720072157e-30 -7.3247918446797697e-28 0.0000000000000000e+00  -3.6003926656541362e-29 2.4054186427057059e-29 0.0000000000000000e+00  -8.5224342017215726e-29 8.9987507889533304e-28 0.0000000000000000e+00  -1.2892529543415871e-28 1.7399683928537465e-27 0.0000000000000000e+00  -4.8689619606956392e-29 9.8069994934625601e-28 0.0000000000000000e+00  1.2149119420824452e-28 -3.6753618706685076e-28 0.0000000000000000e+00  -1.1574910106549715e-28 1.2762743619973083e-27 0.0000000000000000e+00  -1.1462842020666717e-28 1.3261056293548107e-27 0.0000000000000000e+00  8.1620686605078271e-29 6.9731951902988610e-28 0.0000000000000000e+00  3.3751721031670585e-32 1.0395744542672258e-27 0.0000000000000000e+00  6.1541637736556562e-29 1.0188799600885842e-27 0.0000000000000000e+00  -1.1815588025671086e-28 1.3711874591895937e-27 0.0000000000000000e+00  -1.2732677170913555e-28 1.2907585208870754e-27 0.0000000000000000e+00  4.5829606930437787e-29 9.8043322438093082e-28 0.0000000000000000e+00  -2.4117033139675429e-29 1.0821474193125517e-27 0.0000000000000000e+00  3.1018934327666773e-29 1.6873599179227037e-28 0.0000000000000000e+00  -1.1886367894626640e-28 2.1417663562452633e-27 0.0000000000000000e+00  -8.6071331679190836e-29 1.4382843320678424e-27 0.0000000000000000e+00  -1.0819837915052169e-28 1.5909582479388033e-27 0.0000000000000000e+00  -8.2891871436323096e-29 1.2054875448797483e-27 0.0000000000000000e+00  8.3622671349123799e-30 -5.8514120451316680e-29 0.0000000000000000e+00  -5.6706680562623407e-29 8.2597036463439947e-28 0.0000000000000000e+00  2.4349002860322967e-29 8.8727059057853005e-30 0.0000000000000000e+00  3.4530549874256927e-29 -2.3215527151334363e-28 0.0000000000000000e+00  4.9326836325584883e-29 -7.3510585306139247e-28 0.0000000000000000e+00  -3.7958281706875025e-29 1.8382728134590272e-30 0.0000000000000000e+00  -5.7857630590885957e-29 1.8253757774592452e-28 0.0000000000000000e+00  -2.0585320990306701e-29 1.8080436325539203e-28 0.0000000000000000e+00  9.5012418754564659e-30 1.1688534102739668e-28 0.0000000000000000e+00  6.9163947183871717e-30 -8.9540431601434417e-29 0.0000000000000000e+00  2.8333524731839976e-29 -3.1772061356275692e-28 0.0000000000000000e+00  6.1860876444007935e-30 -6.1735467946349262e-29 0.0000000000000000e+00  -1.0102061232785366e-29 6.3312251901518892e-29 0.0000000000000000e+00  7.3342686804303752e-30 -3.4033435326156430e-29 0.0000000000000000e+00  -2.0726843359421362e-30 9.6519089994734211e-30 0.0000000000000000e+00  -3.1789300628252128e-30 1.4814021720185841e-29 0.0000000000000000e+00  2.0346632253508884e-30 -5.9706243118549256e-30 0.0000000000000000e+00  2.9344402373053310e-30 -8.1550863387188565e-30 0.0000000000000000e+00  3.847606086107