<?xml version="1.0"?>
<VTKFile type="UnstructuredGrid"  version="0.1"  >
<UnstructuredGrid>
<Piece  NumberOfPoints="11902" NumberOfCells="23402">
<Points>
<DataArray  type="Float64"  NumberOfComponents="3"  format="ascii">-5 -5 0  5 -5 0  5 5 0  -5 5 0  1.093139592288615 0.0006203329760325213 0  -4.9 -5 0  -4.8 -5 0  -4.7 -5 0  -4.6 -5 0  -4.5 -5 0  -4.4 -5 0  -4.3 -5 0  -4.2 -5 0  -4.1 -5 0  -4 -5 0  -3.9 -5 0  -3.8 -5 0  -3.7 -5 0  -3.6 -5 0  -3.5 -5 0  -3.4 -5 0  -3.3 -5 0  -3.2 -5 0  -3.1 -5 0  -3 -5 0  -2.9 -5 0  -2.8 -5 0  -2.7 -5 0  -2.6 -5 0  -2.5 -5 0  -2.4 -5 0  -2.3 -5 0  -2.2 -5 0  -2.1 -5 0  -2 -5 0  -1.9 -5 0  -1.8 -5 0  -1.7 -5 0  -1.6 -5 0  -1.5 -5 0  -1.4 -5 0  -1.3 -5 0  -1.2 -5 0  -1.1 -5 0  -1 -5 0  -0.9000000000000004 -5 0  -0.7999999999999998 -5 0  -0.7000000000000002 -5 0  -0.5999999999999996 -5 0  -0.5 -5 0  -0.4000000000000004 -5 0  -0.2999999999999998 -5 0  -0.2000000000000002 -5 0  -0.09999999999999964 -5 0  0 -5 0  0.09999999999999964 -5 0  0.2000000000000002 -5 0  0.2999999999999998 -5 0  0.4000000000000004 -5 0  0.5 -5 0  0.5999999999999996 -5 0  0.7000000000000002 -5 0  0.7999999999999998 -5 0  0.9000000000000004 -5 0  1 -5 0  1.1 -5 0  1.2 -5 0  1.3 -5 0  1.4 -5 0  1.5 -5 0  1.6 -5 0  1.7 -5 0  1.8 -5 0  1.9 -5 0  2 -5 0  2.1 -5 0  2.2 -5 0  2.3 -5 0  2.4 -5 0  2.5 -5 0  2.6 -5 0  2.7 -5 0  2.8 -5 0  2.9 -5 0  3 -5 0  3.1 -5 0  3.199999999999999 -5 0  3.300000000000001 -5 0  3.4 -5 0  3.5 -5 0  3.6 -5 0  3.699999999999999 -5 0  3.800000000000001 -5 0  3.9 -5 0  4 -5 0  4.1 -5 0  4.199999999999999 -5 0  4.300000000000001 -5 0  4.4 -5 0  4.5 -5 0  4.6 -5 0  4.699999999999999 -5 0  4.800000000000001 -5 0  4.9 -5 0  5 -4.9 0  5 -4.8 0  5 -4.7 0  5 -4.6 0  5 -4.5 0  5 -4.4 0  5 -4.3 0  5 -4.2 0  5 -4.1 0  5 -4 0  5 -3.9 0  5 -3.8 0  5 -3.7 0  5 -3.6 0  5 -3.5 0  5 -3.4 0  5 -3.3 0  5 -3.2 0  5 -3.1 0  5 -3 0  5 -2.9 0  5 -2.8 0  5 -2.7 0  5 -2.6 0  5 -2.5 0  5 -2.4 0  5 -2.3 0  5 -2.2 0  5 -2.1 0  5 -2 0  5 -1.9 0  5 -1.8 0  5 -1.7 0  5 -1.6 0  5 -1.5 0  5 -1.4 0  5 -1.3 0  5 -1.2 0  5 -1.1 0  5 -1 0  5 -0.9000000000000004 0  5 -0.7999999999999998 0  5 -0.7000000000000002 0  5 -0.5999999999999996 0  5 -0.5 0  5 -0.4000000000000004 0  5 -0.2999999999999998 0  5 -0.2000000000000002 0  5 -0.09999999999999964 0  5 0 0  5 0.09999999999999964 0  5 0.2000000000000002 0  5 0.2999999999999998 0  5 0.4000000000000004 0  5 0.5 0  5 0.5999999999999996 0  5 0.7000000000000002 0  5 0.7999999999999998 0  5 0.9000000000000004 0  5 1 0  5 1.1 0  5 1.2 0  5 1.3 0  5 1.4 0  5 1.5 0  5 1.6 0  5 1.7 0  5 1.8 0  5 1.9 0  5 2 0  5 2.1 0  5 2.2 0  5 2.3 0  5 2.4 0  5 2.5 0  5 2.6 0  5 2.7 0  5 2.8 0  5 2.9 0  5 3 0  5 3.1 0  5 3.199999999999999 0  5 3.300000000000001 0  5 3.4 0  5 3.5 0  5 3.6 0  5 3.699999999999999 0  5 3.800000000000001 0  5 3.9 0  5 4 0  5 4.1 0  5 4.199999999999999 0  5 4.300000000000001 0  5 4.4 0  5 4.5 0  5 4.6 0  5 4.699999999999999 0  5 4.800000000000001 0  5 4.9 0  4.9 5 0  4.8 5 0  4.7 5 0  4.6 5 0  4.5 5 0  4.4 5 0  4.3 5 0  4.2 5 0  4.1 5 0  4 5 0  3.9 5 0  3.8 5 0  3.7 5 0  3.6 5 0  3.5 5 0  3.4 5 0  3.3 5 0  3.2 5 0  3.1 5 0  3 5 0  2.9 5 0  2.8 5 0  2.7 5 0  2.6 5 0  2.5 5 0  2.4 5 0  2.3 5 0  2.2 5 0  2.1 5 0  2 5 0  1.9 5 0  1.8 5 0  1.7 5 0  1.6 5 0  1.5 5 0  1.4 5 0  1.3 5 0  1.2 5 0  1.1 5 0  1 5 0  0.9000000000000004 5 0  0.7999999999999998 5 0  0.7000000000000002 5 0  0.5999999999999996 5 0  0.5 5 0  0.4000000000000004 5 0  0.2999999999999998 5 0  0.2000000000000002 5 0  0.09999999999999964 5 0  0 5 0  -0.09999999999999964 5 0  -0.2000000000000002 5 0  -0.2999999999999998 5 0  -0.4000000000000004 5 0  -0.5 5 0  -0.5999999999999996 5 0  -0.7000000000000002 5 0  -0.7999999999999998 5 0  -0.9000000000000004 5 0  -1 5 0  -1.1 5 0  -1.2 5 0  -1.3 5 0  -1.4 5 0  -1.5 5 0  -1.6 5 0  -1.7 5 0  -1.8 5 0  -1.9 5 0  -2 5 0  -2.1 5 0  -2.2 5 0  -2.3 5 0  -2.4 5 0  -2.5 5 0  -2.6 5 0  -2.7 5 0  -2.8 5 0  -2.9 5 0  -3 5 0  -3.1 5 0  -3.199999999999999 5 0  -3.300000000000001 5 0  -3.4 5 0  -3.5 5 0  -3.6 5 0  -3.699999999999999 5 0  -3.800000000000001 5 0  -3.9 5 0  -4 5 0  -4.1 5 0  -4.199999999999999 5 0  -4.300000000000001 5 0  -4.4 5 0  -4.5 5 0  -4.6 5 0  -4.699999999999999 5 0  -4.800000000000001 5 0  -4.9 5 0  -5 4.9 0  -5 4.8 0  -5 4.7 0  -5 4.6 0  -5 4.5 0  -5 4.4 0  -5 4.3 0  -5 4.2 0  -5 4.1 0  -5 4 0  -5 3.9 0  -5 3.8 0  -5 3.7 0  -5 3.6 0  -5 3.5 0  -5 3.4 0  -5 3.3 0  -5 3.2 0  -5 3.1 0  -5 3 0  -5 2.9 0  -5 2.8 0  -5 2.7 0  -5 2.6 0  -5 2.5 0  -5 2.4 0  -5 2.3 0  -5 2.2 0  -5 2.1 0  -5 2 0  -5 1.9 0  -5 1.8 0  -5 1.7 0  -5 1.6 0  -5 1.5 0  -5 1.4 0  -5 1.3 0  -5 1.2 0  -5 1.1 0  -5 1 0  -5 0.9000000000000004 0  -5 0.7999999999999998 0  -5 0.7000000000000002 0  -5 0.5999999999999996 0  -5 0.5 0  -5 0.4000000000000004 0  -5 0.2999999999999998 0  -5 0.2000000000000002 0  -5 0.09999999999999964 0  -5 0 0  -5 -0.09999999999999964 0  -5 -0.2000000000000002 0  -5 -0.2999999999999998 0  -5 -0.4000000000000004 0  -5 -0.5 0  -5 -0.5999999999999996 0  -5 -0.7000000000000002 0  -5 -0.7999999999999998 0  -5 -0.9000000000000004 0  -5 -1 0  -5 -1.1 0  -5 -1.2 0  -5 -1.3 0  -5 -1.4 0  -5 -1.5 0  -5 -1.6 0  -5 -1.7 0  -5 -1.8 0  -5 -1.9 0  -5 -2 0  -5 -2.1 0  -5 -2.2 0  -5 -2.3 0  -5 -2.4 0  -5 -2.5 0  -5 -2.6 0  -5 -2.7 0  -5 -2.8 0  -5 -2.9 0  -5 -3 0  -5 -3.1 0  -5 -3.199999999999999 0  -5 -3.300000000000001 0  -5 -3.4 0  -5 -3.5 0  -5 -3.6 0  -5 -3.699999999999999 0  -5 -3.800000000000001 0  -5 -3.9 0  -5 -4 0  -5 -4.1 0  -5 -4.199999999999999 0  -5 -4.300000000000001 0  -5 -4.4 0  -5 -4.5 0  -5 -4.6 0  -5 -4.699999999999999 0  -5 -4.800000000000001 0  -5 -4.9 0  1.087824812887748 0.1004056233402572 0  1.071395337623339 0.1997186386708339 0  1.043727548845172 0.2973753865933812 0  1.006810976381716 0.391030785558317 0  0.959607731188901 0.4819113196140744 0  0.9032611318931565 0.567634763306048 0  0.837421643853921 0.6474588188472442 0  0.7627114046256133 0.7206560342325357 0  0.6811247232652463 0.7870200233861553 0  0.5927659917667761 0.845835375021627 0  0.4981166500974179 0.8958441806868046 0  0.398456074130124 0.937096750217702 0  0.2958461870305109 0.9694192495707805 0  0.1895601361365683 0.9914892421308125 0  0.08211703364867216 1.00420581280227 0  -0.02649124838033926 1.006769463682491 0  -0.1348450318229199 0.9989067670566285 0  -0.2420023395102995 0.9818355366816192 0  -0.3467387671985624 0.9548933798585069 0  -0.4478700338552527 0.9181422707052963 0  -0.5443868999088509 0.8726966040653905 0  -0.635715114321949 0.8181998866230132 0  -0.7207377164448303 0.7557695736982356 0  -0.7986933025512538 0.6859673582725849 0  -0.868922775637271 0.6085858219166044 0  -0.930163577628617 0.5254481896755749 0  -0.982723976035962 0.437507785809317 0  -1.025032708931618 0.3447604291169539 0  -1.056961506645047 0.2489831068049068 0  -1.078650993704384 0.1507689857837612 0  -1.089662858509163 0.0507004906958041 0  -1.089686093297741 -0.04992989578917593 0  -1.078698371180802 -0.1498754824680845 0  -1.058002410469418 -0.2480585908296153 0  -1.025002613356904 -0.3443005653710134 0  -0.9829221825338513 -0.4365984659416552 0  -0.9305645971419689 -0.5247072650077352 0  -0.8694119197832795 -0.6076119136509656 0  -0.7991482307956337 -0.6844741627952701 0  -0.7208240380742107 -0.7540967110076228 0  -0.6353722844935277 -0.8160472139064175 0  -0.5446702261944596 -0.8708486330522465 0  -0.446965931475707 -0.9163628995173027 0  -0.3457577798136229 -0.9534834041791351 0  -0.240837909278179 -0.9806978419339892 0  -0.1339501461840732 -0.9981055076758644 0  -0.02588648465180593 -1.006416050492051 0  0.0823877777324325 -1.003495892670994 0  0.1904477551645782 -0.9905288298501528 0  0.296237232612975 -0.968397418942012 0  0.3998808048416312 -0.9361552379165423 0  0.4986351850331261 -0.8950209876393382 0  0.593116380954105 -0.8451128918147577 0  0.6813444905041903 -0.7872933336446303 0  0.7628899506542375 -0.7209097016730189 0  0.837153329169202 -0.6470849370174661 0  0.9027149909047312 -0.5670085562017154 0  0.9597913064987575 -0.4815181844825525 0  1.007693754595575 -0.3910897375299567 0  1.044504427178518 -0.2969608977617674 0  1.071457907388624 -0.1993256919877434 0  1.087861062039286 -0.100212409941224 0  -2.449329093119672 4.919532192436219 0  -2.449271380889121 -4.912038767807014 0  4.911999384380024 2.449005496565937 0  4.919979725937922 -2.450366324371962 0  2.447137797269898 -4.897540406868859 0  2.441539674222176 4.901243902030096 0  -4.912013351725559 -2.449019679596673 0  -4.91201457481932 2.449023367144561 0  -1.749308355703333 4.913043357530062 0  -1.745060489803369 -4.916402955283665 0  4.922591141767968 1.745074474759528 0  4.911402350798909 -1.748982620605096 0  -4.911671364975501 -1.748699700804407 0  -4.912477876653523 1.748432552750872 0  1.74663020102933 4.907051207727253 0  1.748144442596947 -4.895462795704383 0  -1.149457139481796 4.911253953901345 0  -1.130251237274978 -4.91896021250223 0  -4.911947783277024 -1.148827085952537 0  -4.911775298073436 1.148626149315133 0  1.144411496002698 -4.915248609955542 0  1.149459609011351 4.911247946432529 0  4.91211095106865 1.147109569675394 0  4.92260472659048 -1.152786985389507 0  -0.5469893825438104 -4.91265285862521 0  -0.546740975535621 4.921091284135858 0  -4.911129601044669 -0.5492083336064582 0  -4.911155369371589 0.5477604245861039 0  4.91050273631061 -0.5495363308542495 0  4.921753112932082 0.5462253223575153 0  0.5428021606443703 -4.899921059250505 0  0.5514748661441008 4.918009135409059 0  -4.912933024957714 -3.049187480172878 0  4.91943482613599 3.047146310702113 0  4.912452687760765 -3.049177811588466 0  -4.913775946485058 3.04627190314139 0  3.055972780922876 -4.918408836727897 0  -3.049353908957811 -4.912415000272465 0  3.052905982249959 4.914474574092005 0  -3.048795270077497 4.913296494682031 0  -4.910405863227938 -0.04995765146022466 0  0.04513951538938322 -4.914622889367857 0  0.04958962671615368 4.921446016531772 0  4.917235053997915 -0.05133657813658522 0  3.546152060693144 -4.919745339470856 0  -3.549479158009271 4.91270
[...]
<PointData  Vectors="f_930"> 
<DataArray  type="Float64"  Name="f_930"  NumberOfComponents="3" format="ascii">-1.6349923245977870e-40 -1.6763969062386835e-40 0.0000000000000000e+00  2.1028296492457615e-40 -2.1034561576524516e-40 0.0000000000000000e+00  -2.4880355754109092e-40 -2.5271116563792477e-40 0.0000000000000000e+00  -3.1397777290264729e-40 3.3047396207396501e-40 0.0000000000000000e+00  1.3429011836294789e+01 -6.2518188851263656e-01 0.0000000000000000e+00  3.6380054324191698e-40 3.7267745019803801e-40 0.0000000000000000e+00  8.2009145261719535e-40 9.2025063323094482e-40 0.0000000000000000e+00  -1.8192213619687079e-39 -2.1523786477765122e-39 0.0000000000000000e+00  1.8800528565332339e-38 2.1063636502276863e-38 0.0000000000000000e+00  -6.0547114213696680e-38 -6.5727214625290564e-38 0.0000000000000000e+00  2.3456835046935644e-37 2.4970811513260861e-37 0.0000000000000000e+00  -8.5569139492173290e-37 -9.2700506380674349e-37 0.0000000000000000e+00  5.0249399409268681e-36 6.0526696622348714e-36 0.0000000000000000e+00  -3.0496348366679435e-35 -3.9185040628947881e-35 0.0000000000000000e+00  1.2273288815065871e-34 1.6039884424466325e-34 0.0000000000000000e+00  -2.5845831580297724e-34 -3.5335768360192647e-34 0.0000000000000000e+00  5.0072034569735658e-34 7.1643052909440364e-34 0.0000000000000000e+00  1.8037001556763996e-33 2.6357761226947808e-33 0.0000000000000000e+00  -8.2608375532557346e-33 -1.2096275170891922e-32 0.0000000000000000e+00  2.4286903694576063e-32 3.6104505711166659e-32 0.0000000000000000e+00  -1.3579698028267255e-31 -2.0825127002848695e-31 0.0000000000000000e+00  3.5625513707358909e-31 5.5050722199056102e-31 0.0000000000000000e+00  1.8811645867757555e-31 3.5227931764650110e-31 0.0000000000000000e+00  -1.6086290139589113e-30 -2.8647832636504932e-30 0.0000000000000000e+00  -8.7073560127879846e-31 -1.3602320945364944e-30 0.0000000000000000e+00  -2.3147653037542131e-30 -3.6738308769163396e-30 0.0000000000000000e+00  5.5253326293867959e-30 9.7119315729773021e-30 0.0000000000000000e+00  -1.4091853290948353e-29 -2.2159693241048801e-29 0.0000000000000000e+00  4.6379799664104869e-29 8.0831889112604363e-29 0.0000000000000000e+00  2.7917965015432669e-29 5.2066208392087650e-29 0.0000000000000000e+00  -2.2952480964629327e-28 -4.4411365254454754e-28 0.0000000000000000e+00  -7.5110405232768432e-29 -1.5414303479994087e-28 0.0000000000000000e+00  -1.2402550163665007e-28 -2.4877137022162680e-28 0.0000000000000000e+00  2.2100086617435006e-28 4.5735736585560757e-28 0.0000000000000000e+00  6.7170374316990779e-28 1.4857138599732776e-27 0.0000000000000000e+00  -8.3210488566009010e-29 -1.2303573553488970e-28 0.0000000000000000e+00  1.3135903833896842e-28 3.9409067426444013e-28 0.0000000000000000e+00  -1.1458992652149872e-28 -2.6615938735486590e-28 0.0000000000000000e+00  -4.8041408278389035e-28 -1.4058853254091808e-27 0.0000000000000000e+00  -4.3403769802610062e-28 -1.4158097528285450e-27 0.0000000000000000e+00  -3.6181530594655142e-29 -1.8933225262672121e-28 0.0000000000000000e+00  4.7226807397262733e-28 1.7006670326042167e-27 0.0000000000000000e+00  2.5093503123542756e-28 1.0411328528505071e-27 0.0000000000000000e+00  -6.1799445656997223e-29 -1.9735909463036822e-28 0.0000000000000000e+00  7.8280941864044938e-29 4.2452024852122503e-28 0.0000000000000000e+00  3.4905685378416969e-28 1.1342951678582670e-27 0.0000000000000000e+00  4.4586145126662074e-28 1.9011845462148494e-27 0.0000000000000000e+00  -2.3810031579183758e-28 -1.0706467955332449e-27 0.0000000000000000e+00  9.0865971460760511e-28 6.1398827144330223e-27 0.0000000000000000e+00  8.9412977303846209e-30 -4.9311950979271299e-29 0.0000000000000000e+00  -4.4227706241547523e-28 -5.3548452644660594e-27 0.0000000000000000e+00  -7.6572147475540485e-29 -3.1707627303061405e-27 0.0000000000000000e+00  -1.6783395808968114e-28 -4.4984473888881759e-27 0.0000000000000000e+00  -4.0633961065650326e-28 -1.1095811348147498e-26 0.0000000000000000e+00  -2.2200778259494428e-28 -1.2715737103541576e-26 0.0000000000000000e+00  1.7818901640825081e-29 -2.2141342993054455e-27 0.0000000000000000e+00  1.8214153203782318e-28 -7.0053832882328017e-27 0.0000000000000000e+00  2.2176818436153134e-28 -2.5932572682799834e-27 0.0000000000000000e+00  4.5200768845736848e-28 -4.5695006133151582e-27 0.0000000000000000e+00  -2.5483567580132262e-28 1.9621878392026430e-27 0.0000000000000000e+00  7.7678626034951988e-28 -6.1824096758192200e-27 0.0000000000000000e+00  8.5285866329651059e-28 -5.6013258714370644e-27 0.0000000000000000e+00  -1.8956457147819272e-28 1.0782118264744616e-27 0.0000000000000000e+00  -1.7239653761918146e-27 8.1570431074193195e-27 0.0000000000000000e+00  -7.5682963930253308e-28 3.2334866802720186e-27 0.0000000000000000e+00  -4.0345806484658378e-28 1.9383406139624249e-27 0.0000000000000000e+00  -1.2324417960636859e-27 4.6572436642280283e-27 0.0000000000000000e+00  -7.2953779159630603e-28 2.4577629703168787e-27 0.0000000000000000e+00  8.6026626048126407e-28 -2.7245666792674332e-27 0.0000000000000000e+00  4.2242384548472128e-28 -1.2796036589768270e-27 0.0000000000000000e+00  8.8035257324152792e-29 -2.9570460478621004e-28 0.0000000000000000e+00  3.3698034764304280e-28 -9.8899014529113723e-28 0.0000000000000000e+00  3.0735028343206102e-28 -7.7334245455453657e-28 0.0000000000000000e+00  -2.6072375447894030e-28 6.3609752174608609e-28 0.0000000000000000e+00  -2.1761538529728146e-28 4.8527179885640759e-28 0.0000000000000000e+00  -1.5537991902650846e-28 3.3217941790657672e-28 0.0000000000000000e+00  1.8659116717418557e-29 -4.2906690091061087e-29 0.0000000000000000e+00  1.1209634386887799e-28 -2.2846422459309329e-28 0.0000000000000000e+00  1.5840511983121061e-28 -2.9827213137385351e-28 0.0000000000000000e+00  -5.0718506524491944e-30 1.5385518896889021e-29 0.0000000000000000e+00  -1.0823814500475292e-28 1.9230215183430506e-28 0.0000000000000000e+00  1.7680086032205314e-29 -3.1869902537079513e-29 0.0000000000000000e+00  5.9193518621773053e-30 -9.4496415538606582e-30 0.0000000000000000e+00  -1.4938753148707721e-29 2.5848361440220296e-29 0.0000000000000000e+00  -1.0469420705261397e-30 1.7715467173602479e-30 0.0000000000000000e+00  1.6512154779856639e-30 -2.7572562524162756e-30 0.0000000000000000e+00  -8.5922846798012578e-31 1.4102762019211206e-30 0.0000000000000000e+00  1.0711904086164372e-31 -1.7253490120715234e-31 0.0000000000000000e+00  -1.3063963501528041e-32 1.9874655751155026e-32 0.0000000000000000e+00  -3.8545481632923079e-34 7.7339964724054107e-34 0.0000000000000000e+00  6.9542562931217383e-33 -1.0348321822200242e-32 0.0000000000000000e+00  4.0589767214729608e-34 -5.0646739829056489e-34 0.0000000000000000e+00  -4.6769151385950236e-34 6.5178725837753616e-34 0.0000000000000000e+00  5.2339198666540794e-35 -7.7482147633557308e-35 0.0000000000000000e+00  -2.1102204981079336e-35 2.7880776610197228e-35 0.0000000000000000e+00  4.8153850678622991e-36 -6.1310816740657935e-36 0.0000000000000000e+00  -1.5549119851579473e-36 1.9407936813487244e-36 0.0000000000000000e+00  5.1019412524283267e-37 -6.0766387154526381e-37 0.0000000000000000e+00  -2.5431280864147401e-37 2.9918521843505518e-37 0.0000000000000000e+00  8.6005819350523640e-38 -1.0003583367837821e-37 0.0000000000000000e+00  -1.7853387495228813e-38 2.0135830768178095e-38 0.0000000000000000e+00  7.2528971599749381e-39 -8.0107627724596182e-39 0.0000000000000000e+00  -4.2717758437522757e-40 4.9428763466265298e-40 0.0000000000000000e+00  -3.5889417303175286e-40 3.6428744954640789e-40 0.0000000000000000e+00  -1.4566194199761350e-41 7.6986911257664388e-42 0.0000000000000000e+00  4.0193177210102615e-40 -4.0386928805801677e-40 0.0000000000000000e+00  -9.3489060780997649e-40 8.9719454057260094e-40 0.0000000000000000e+00  3.6603385820911744e-39 -3.3841098426882965e-39 0.0000000000000000e+00  -2.5555040079996670e-39 2.2390752418386733e-39 0.0000000000000000e+00  -1.5737187113528331e-38 1.4082137973348998e-38 0.0000000000000000e+00  6.3949063347448987e-38 -5.5326396829659963e-38 0.0000000000000000e+00  -9.0441964714474117e-38 7.5839015501986258e-38 0.0000000000000000e+00  -1.4168969093028173e-37 1.1772588734238752e-37 0.0000000000000000e+00  9.7159698103276628e-37 -7.8036657292844664e-37 0.0000000000000000e+00  -1.7454722235837732e-36 1.3684599230990693e-36 0.0000000000000000e+00  -1.3032218600205015e-36 9.7602149288773750e-37 0.0000000000000000e+00  1.3381711606755424e-35 -9.9016462909191855e-36 0.0000000000000000e+00  -2.6488385331097628e-35 1.9120139313448361e-35 0.0000000000000000e+00  -1.7290886071198823e-35 1.1651848340220166e-35 0.0000000000000000e+00  1.9394044051827427e-34 -1.3087671569337129e-34 0.0000000000000000e+00  -3.1766940868205966e-34 2.1181761328458856e-34 0.0000000000000000e+00  -4.0802612185700555e-34 2.5152233129657724e-34 0.0000000000000000e+00  2.6302669606436168e-33 -1.6097273905350655e-33 0.0000000000000000e+00  -2.6737924895605377e-33 1.6363358533105178e-33 0.0000000000000000e+00  -9.3714173500701448e-33 5.2357760079608344e-33 0.0000000000000000e+00  3.0161814460923494e-32 -1.6795246424966004e-32 0.0000000000000000e+00  1.7446849620428315e-33 1.2608203989093019e-34 0.0000000000000000e+00  -1.6179156195466114e-31 8.1274872957930791e-32 0.0000000000000000e+00  2.1853155636767759e-31 -1.0989824527469169e-31 0.0000000000000000e+00  5.3158688449044300e-31 -2.3621812596858016e-31 0.0000000000000000e+00  -1.6062467356588076e-30 7.2189985701225356e-31 0.0000000000000000e+00  -8.7460947373997544e-31 3.0612860950756808e-31 0.0000000000000000e+00  8.4382769116409410e-30 -3.3843936605524823e-30 0.0000000000000000e+00  -2.6377129675699587e-30 1.3298803595702983e-30 0.0000000000000000e+00  -3.6722180297204322e-29 1.2959041080858602e-29 0.0000000000000000e+00  3.0628195281815554e-29 -1.1788238758067090e-29 0.0000000000000000e+00  1.4754527791232082e-28 -4.5491741368219161e-29 0.0000000000000000e+00  -1.6668400939721549e-28 5.5706871294042010e-29 0.0000000000000000e+00  -6.0655540094935906e-28 1.6170512487587642e-28 0.0000000000000000e+00  6.3718333687263950e-28 -1.9787981464488440e-28 0.0000000000000000e+00  2.5006270201371349e-27 -5.7537543858604641e-28 0.0000000000000000e+00  -1.8740632390269599e-27 5.3644271401603192e-28 0.0000000000000000e+00  -9.5568594958129139e-27 1.8622721440758371e-27 0.0000000000000000e+00  2.3404233760280985e-27 -7.8803545478830874e-28 0.0000000000000000e+00  2.9597943487211607e-26 -4.9483638405416624e-27 0.0000000000000000e+00  1.4479506613124482e-26 -1.2798486778727210e-27 0.0000000000000000e+00  -8.4244300498662385e-26 1.2043008477501456e-26 0.0000000000000000e+00  -1.2764131677173027e-25 1.4608375799623244e-26 0.0000000000000000e+00  1.4613713353705552e-25 -1.2225552352043078e-26 0.0000000000000000e+00  8.4787100794213056e-25 -4.7347338237498637e-26 0.0000000000000000e+00  1.5488921439626647e-24 -4.7975668013055360e-26 0.0000000000000000e+00  1.8900853843341787e-24 -2.0728517075973734e-26 0.0000000000000000e+00  1.8486557210650374e-24 -1.1940230721985941e-27 0.0000000000000000e+00  1.8717204412429218e-24 -3.4125813199578059e-27 0.0000000000000000e+00  2.0085831091258463e-24 3.4490159966059323e-27 0.0000000000000000e+00  1.8650395090995316e-24 3.0080272883691858e-26 0.0000000000000000e+00  1.2200910144009461e-24 4.4689821472349083e-26 0.0000000000000000e+00  3.5745965818252928e-25 2.3818855709364972e-26 0.0000000000000000e+00  -1.6899979194541555e-25 -9.5813076068443471e-27 0.0000000000000000e+00  -2.1845928197956219e-25 -2.0777176047076444e-26 0.0000000000000000e+00  -3.9008652233601656e-26 -6.0146139373435312e-27 0.0000000000000000e+00  6.0421088804943395e-26 7.2897797415546789e-27 0.0000000000000000e+00  3.6951013391546188e-26 5.8223137339240192e-27 0.0000000000000000e+00  -5.1978224321703040e-27 -7.2425387568097168e-28 0.0000000000000000e+00  -1.0863121100032804e-26 -2.1318340872663069e-27 0.0000000000000000e+00  -7.7074869946615731e-28 -2.1271639276286501e-28 0.0000000000000000e+00  2.6930122455765047e-27 6.3220515900485279e-28 0.0000000000000000e+00  3.9670872105173533e-28 1.1306470358132094e-28 0.0000000000000000e+00  -6.3623891864836933e-28 -1.7621545087964542e-28 0.0000000000000000e+00  -9.0053234615442532e-29 -2.9954414802556388e-29 0.0000000000000000e+00  1.4782602525072663e-28 4.8082540825376549e-29 0.0000000000000000e+00  7.1633256299864575e-30 3.3809407250107296e-30 0.0000000000000000e+00  -3.3193529453947364e-29 -1.2373970127659175e-29 0.0000000000000000e+00  2.7293790109486009e-30 8.5673303410807327e-31 0.0000000000000000e+00  6.3529293993813589e-30 2.7176983560143084e-30 0.0000000000000000e+00  -1.8462190234965547e-30 -7.5369579122349879e-31 0.0000000000000000e+00  -9.4216243401460787e-31 -4.5595888668268780e-31 0.0000000000000000e+00  6.0341213798811558e-31 2.8340578924804092e-31 0.0000000000000000e+00  3.4263260803255726e-32 2.4159617371438037e-32 0.0000000000000000e+00  -1.3367823638959762e-31 -6.9321081344150297e-32 0.0000000000000000e+00  3.0073269317248013e-32 1.4652044494722607e-32 0.0000000000000000e+00  1.9247492529706226e-32 1.1119089587352543e-32 0.0000000000000000e+00  -1.2330527167465018e-32 -6.9334192148244808e-33 0.0000000000000000e+00  1.8689174463900054e-34 -1.3129229204171525e-35 0.0000000000000000e+00  2.2233515187396834e-33 1.3898031621533155e-33 0.0000000000000000e+00  -8.4513805757680626e-34 -5.1871244218774730e-34 0.0000000000000000e+00  -1.1749312736704885e-34 -8.6254004489853615e-35 0.0000000000000000e+00  2.0352824994448760e-34 1.3732575779764246e-34 0.0000000000000000e+00  -5.7411966091001274e-35 -3.8725159128661855e-35 0.0000000000000000e+00  -1.3319123891216073e-35 -9.9331035289222234e-36 0.0000000000000000e+00  1.5116521669730515e-35 1.1076717959209534e-35 0.0000000000000000e+00  -3.9372589043235893e-36 -2.9018174028549999e-36 0.0000000000000000e+00  -9.3515553863510912e-37 -7.4164485473195099e-37 0.0000000000000000e+00  1.0625991076393889e-36 8.4117610766570649e-37 0.0000000000000000e+00  -3.0679968250359418e-37 -2.4757711897253517e-37 0.0000000000000000e+00  -3.8414466213089772e-38 -3.2128548421297404e-38 0.0000000000000000e+00  6.6919188838663523e-38 5.6997555588030647e-38 0.0000000000000000e+00  -2.5400805360494962e-38 -2.2149327186798103e-38 0.0000000000000000e+00  8.6354952204059291e-40 8.0585116546908838e-40 0.0000000000000000e+00  3.5921410634113285e-39 3.2484689550721955e-39 0.0000000000000000e+00  -1.8680068821807818e-39 -1.7340403904623019e-39 0.0000000000000000e+00  4.0076487111160339e-40 3.8304821889049621e-40 0.0000000000000000e+00  1.9578960857026317e-40 1.8704734707653687e-40 0.0000000000000000e+00  3.6807112870302077e-40 3.9601122008284159e-40 0.0000000000000000e+00  -1.0877262524215845e-39 -1.1498057657427713e-39 0.0000000000000000e+00  2.1322941342947946e-39 2.3234141004302721e-39 0.0000000000000000e+00  -1.4441352672947006e-38 -1.5665131562957134e-38 0.0000000000000000e+00  1.0261469278893175e-37 1.1333857248533680e-37 0.0000000000000000e+00  -2.3376880502820492e-37 -2.6550693110380271e-37 0.0000000000000000e+00  2.6698342625426723e-37 3.1663836236021125e-37 0.0000000000000000e+00  -4.2604838109121272e-36 -5.1357662041916365e-36 0.0000000000000000e+00  1.3721873492446238e-35 1.6552488969155992e-35 0.0000000000000000e+00  -6.0277477313129836e-35 -7.3680202950974637e-35 0.0000000000000000e+00  1.3456458132074945e-34 1.7153654210350448e-34 0.0000000000000000e+00  -2.8562916339341126e-34 -3.8168636704647247e-34 0.0000000000000000e+00  1.4469204955037994e-33 1.9517488780018487e-33 0.0000000000000000e+00  -1.1494450936447670e-33 -1.5602375301628765e-33 0.0000000000000000e+00  5.9885612181844437e-33 7.8310322298289212e-33 0.0000000000000000e+00  4.3643627361812760e-32 6.8151348566205814e-32 0.0000000000000000e+00  -2.0749490124756219e-31 -3.1623574445136947e-31 0.0000000000000000e+00  -5.6263967274785710e-31 -9.3474747787914116e-31 0.0000000000000000e+00  1.0669744882903894e-30 1.8176324277327754e-30 0.0000000000000000e+00  -8.2029266661733703e-32 -1.3720154450848043e-31 0.0000000000000000e+00  -3.3319034570016750e-30 -5.6856267790955262e-30 0.0000000000000000e+00  9.8472957090557595e-30 1.6140143664499946e-29 0.0000000000000000e+00  1.4970540449636849e-29 2.7541664882643791e-29 0.0000000000000000e+00  -9.8284649793401632e-29 -1.7924601924590526e-28 0.0000000000000000e+00  3.1850634257400610e-29 6.0213361119689394e-29 0.0000000000000000e+00  9.9693592991225343e-29 2.1093509600885880e-28 0.0000000000000000e+00  4.1211200727119263e-29 7.4532436271908281e-29 0.0000000000000000e+00  3.5142044307817261e-28 7.0324665686131593e-28 0.0000000000000000e+00  1.4891706993018158e-28 3.4010104327785502e-28 0.0000000000000000e+00  -4.3309872028782192e-28 -8.9871190147445577e-28 0.0000000000000000e+00  -4.0024049925517041e-28 -1.0467869792589767e-27 0.0000000000000000e+00  4.1860921724745318e-28 9.9434151219918133e-28 0.0000000000000000e+00  7.6715247987941650e-28 1.9312100867644690e-27 0.0000000000000000e+00  3.9396335226062655e-28 1.1789854787262624e-27 0.0000000000000000e+00  6.4771005087964954e-29 4.3529944646434555e-28 0.0000000000000000e+00  -8.8143438896929934e-28 -2.6340415799514301e-27 0.0000000000000000e+00  -3.3166914548879483e-28 -9.3163718241610698e-28 0.0000000000000000e+00  -1.5977919829641688e-28 -4.4274759449026488e-28 0.0000000000000000e+00  -4.3639534788201693e-28 -1.6900620746781643e-27 0.0000000000000000e+00  -3.9118974128207828e-28 -1.6333612660473588e-27 0.0000000000000000e+00  -3.3250942279707786e-28 -1.9928521730687953e-27 0.0000000000000000e+00  7.0010781595405082e-29 -2.3201385630111745e-28 0.0000000000000000e+00  4.3760804926546585e-28 2.2762569204101972e-27 0.0000000000000000e+00  6.6762106895049597e-29 2.3731423631855693e-28 0.0000000000000000e+00  -2.9410975527783027e-28 -2.6053811260034363e-27 0.0000000000000000e+00  1.8321847031633037e-28 1.4636229376892246e-27 0.0000000000000000e+00  1.1194274115912977e-28 1.3189450880331916e-27 0.0000000000000000e+00  -7.5583693790262474e-29 -1.4088190272945692e-27 0.0000000000000000e+00  -9.9373217353528917e-30 -1.3569359012203003e-28 0.0000000000000000e+00  -2.9953168590723702e-29 -1.4799799660426781e-27 0.0000000000000000e+00  -3.8421895378330827e-29 2.6047004746892142e-27 0.0000000000000000e+00  -1.2412950485441177e-28 2.4396112668612016e-27 0.0000000000000000e+00  3.5030455827580229e-29 -1.6980685244164055e-27 0.0000000000000000e+00  -4.8531296270583063e-29 -1.2982897859625656e-28 0.0000000000000000e+00  2.2840263272714266e-28 -2.4125897060715971e-27 0.0000000000000000e+00  -3.4775760184356019e-28 1.8970476244529811e-27 0.0000000000000000e+00  -2.2114454106829079e-28 8.8528091363669853e-28 0.0000000000000000e+00  -2.1103484489952885e-30 -6.7620884149672234e-28 0.0000000000000000e+00  -6.9391066946071308e-29 -1.6499615967174801e-28 0.0000000000000000e+00  6.0134612906900403e-28 -2.8745696108002928e-27 0.0000000000000000e+00  7.3324851205962312e-28 -3.3983829001216408e-27 0.0000000000000000e+00  1.2640323370286370e-27 -4.7472551264202785e-27 0.0000000000000000e+00  4.1886509788462121e-28 -1.3177442389736319e-27 0.0000000000000000e+00  -3.1364151747277636e-28 1.2132515029846312e-27 0.0000000000000000e+00  -8.4249916631361614e-28 2.5139196692888903e-27 0.0000000000000000e+00  -1.0058833110982296e-27 2.7540330367911343e-27 0.0000000000000000e+00  -2.9671499726811116e-28 7.1064617593830654e-28 0.0000000000000000e+00  1.6123371090513870e-28 -4.3960661915226419e-28 0.0000000000000000e+00  2.2102544987310306e-28 -5.3454380660116624e-28 0.0000000000000000e+00  9.0393079008994726e-28 -1.9434889986387776e-27 0.0000000000000000e+00  3.7191132031263027e-28 -7.5671957297598836e-28 0.0000000000000000e+00  -3.0621163498460156e-28 6.0884472371805694e-28 0.0000000000000000e+00  -1.0682801471550825e-29 3.1508891358326966e-29 0.0000000000000000e+00  3.3050813726911594e-29 -6.8390668319247462e-29 0.0000000000000000e+00  8.3260032828388740e-29 -1.5510794607754036e-28 0.0000000000000000e+00  -1.6754142862528027e-29 3.1511127334528471e-29 0.0000000000000000e+00  -2.4546111179350760e-29 4.2469054267284459e-29 0.0000000000000000e+00  2.4588