<?xml version="1.0"?>
<VTKFile type="UnstructuredGrid"  version="0.1"  >
<UnstructuredGrid>
<Piece  NumberOfPoints="11902" NumberOfCells="23402">
<Points>
<DataArray  type="Float64"  NumberOfComponents="3"  format="ascii">-5 -5 0  5 -5 0  5 5 0  -5 5 0  1.261671113010833 0.00131346724352455 0  -4.9 -5 0  -4.8 -5 0  -4.7 -5 0  -4.6 -5 0  -4.5 -5 0  -4.4 -5 0  -4.3 -5 0  -4.2 -5 0  -4.1 -5 0  -4 -5 0  -3.9 -5 0  -3.8 -5 0  -3.7 -5 0  -3.6 -5 0  -3.5 -5 0  -3.4 -5 0  -3.3 -5 0  -3.2 -5 0  -3.1 -5 0  -3 -5 0  -2.9 -5 0  -2.8 -5 0  -2.7 -5 0  -2.6 -5 0  -2.5 -5 0  -2.4 -5 0  -2.3 -5 0  -2.2 -5 0  -2.1 -5 0  -2 -5 0  -1.9 -5 0  -1.8 -5 0  -1.7 -5 0  -1.6 -5 0  -1.5 -5 0  -1.4 -5 0  -1.3 -5 0  -1.2 -5 0  -1.1 -5 0  -1 -5 0  -0.9000000000000004 -5 0  -0.7999999999999998 -5 0  -0.7000000000000002 -5 0  -0.5999999999999996 -5 0  -0.5 -5 0  -0.4000000000000004 -5 0  -0.2999999999999998 -5 0  -0.2000000000000002 -5 0  -0.09999999999999964 -5 0  0 -5 0  0.09999999999999964 -5 0  0.2000000000000002 -5 0  0.2999999999999998 -5 0  0.4000000000000004 -5 0  0.5 -5 0  0.5999999999999996 -5 0  0.7000000000000002 -5 0  0.7999999999999998 -5 0  0.9000000000000004 -5 0  1 -5 0  1.1 -5 0  1.2 -5 0  1.3 -5 0  1.4 -5 0  1.5 -5 0  1.6 -5 0  1.7 -5 0  1.8 -5 0  1.9 -5 0  2 -5 0  2.1 -5 0  2.2 -5 0  2.3 -5 0  2.4 -5 0  2.5 -5 0  2.6 -5 0  2.7 -5 0  2.8 -5 0  2.9 -5 0  3 -5 0  3.1 -5 0  3.199999999999999 -5 0  3.300000000000001 -5 0  3.4 -5 0  3.5 -5 0  3.6 -5 0  3.699999999999999 -5 0  3.800000000000001 -5 0  3.9 -5 0  4 -5 0  4.1 -5 0  4.199999999999999 -5 0  4.300000000000001 -5 0  4.4 -5 0  4.5 -5 0  4.6 -5 0  4.699999999999999 -5 0  4.800000000000001 -5 0  4.9 -5 0  5 -4.9 0  5 -4.8 0  5 -4.7 0  5 -4.6 0  5 -4.5 0  5 -4.4 0  5 -4.3 0  5 -4.2 0  5 -4.1 0  5 -4 0  5 -3.9 0  5 -3.8 0  5 -3.7 0  5 -3.6 0  5 -3.5 0  5 -3.4 0  5 -3.3 0  5 -3.2 0  5 -3.1 0  5 -3 0  5 -2.9 0  5 -2.8 0  5 -2.7 0  5 -2.6 0  5 -2.5 0  5 -2.4 0  5 -2.3 0  5 -2.2 0  5 -2.1 0  5 -2 0  5 -1.9 0  5 -1.8 0  5 -1.7 0  5 -1.6 0  5 -1.5 0  5 -1.4 0  5 -1.3 0  5 -1.2 0  5 -1.1 0  5 -1 0  5 -0.9000000000000004 0  5 -0.7999999999999998 0  5 -0.7000000000000002 0  5 -0.5999999999999996 0  5 -0.5 0  5 -0.4000000000000004 0  5 -0.2999999999999998 0  5 -0.2000000000000002 0  5 -0.09999999999999964 0  5 0 0  5 0.09999999999999964 0  5 0.2000000000000002 0  5 0.2999999999999998 0  5 0.4000000000000004 0  5 0.5 0  5 0.5999999999999996 0  5 0.7000000000000002 0  5 0.7999999999999998 0  5 0.9000000000000004 0  5 1 0  5 1.1 0  5 1.2 0  5 1.3 0  5 1.4 0  5 1.5 0  5 1.6 0  5 1.7 0  5 1.8 0  5 1.9 0  5 2 0  5 2.1 0  5 2.2 0  5 2.3 0  5 2.4 0  5 2.5 0  5 2.6 0  5 2.7 0  5 2.8 0  5 2.9 0  5 3 0  5 3.1 0  5 3.199999999999999 0  5 3.300000000000001 0  5 3.4 0  5 3.5 0  5 3.6 0  5 3.699999999999999 0  5 3.800000000000001 0  5 3.9 0  5 4 0  5 4.1 0  5 4.199999999999999 0  5 4.300000000000001 0  5 4.4 0  5 4.5 0  5 4.6 0  5 4.699999999999999 0  5 4.800000000000001 0  5 4.9 0  4.9 5 0  4.8 5 0  4.7 5 0  4.6 5 0  4.5 5 0  4.4 5 0  4.3 5 0  4.2 5 0  4.1 5 0  4 5 0  3.9 5 0  3.8 5 0  3.7 5 0  3.6 5 0  3.5 5 0  3.4 5 0  3.3 5 0  3.2 5 0  3.1 5 0  3 5 0  2.9 5 0  2.8 5 0  2.7 5 0  2.6 5 0  2.5 5 0  2.4 5 0  2.3 5 0  2.2 5 0  2.1 5 0  2 5 0  1.9 5 0  1.8 5 0  1.7 5 0  1.6 5 0  1.5 5 0  1.4 5 0  1.3 5 0  1.2 5 0  1.1 5 0  1 5 0  0.9000000000000004 5 0  0.7999999999999998 5 0  0.7000000000000002 5 0  0.5999999999999996 5 0  0.5 5 0  0.4000000000000004 5 0  0.2999999999999998 5 0  0.2000000000000002 5 0  0.09999999999999964 5 0  0 5 0  -0.09999999999999964 5 0  -0.2000000000000002 5 0  -0.2999999999999998 5 0  -0.4000000000000004 5 0  -0.5 5 0  -0.5999999999999996 5 0  -0.7000000000000002 5 0  -0.7999999999999998 5 0  -0.9000000000000004 5 0  -1 5 0  -1.1 5 0  -1.2 5 0  -1.3 5 0  -1.4 5 0  -1.5 5 0  -1.6 5 0  -1.7 5 0  -1.8 5 0  -1.9 5 0  -2 5 0  -2.1 5 0  -2.2 5 0  -2.3 5 0  -2.4 5 0  -2.5 5 0  -2.6 5 0  -2.7 5 0  -2.8 5 0  -2.9 5 0  -3 5 0  -3.1 5 0  -3.199999999999999 5 0  -3.300000000000001 5 0  -3.4 5 0  -3.5 5 0  -3.6 5 0  -3.699999999999999 5 0  -3.800000000000001 5 0  -3.9 5 0  -4 5 0  -4.1 5 0  -4.199999999999999 5 0  -4.300000000000001 5 0  -4.4 5 0  -4.5 5 0  -4.6 5 0  -4.699999999999999 5 0  -4.800000000000001 5 0  -4.9 5 0  -5 4.9 0  -5 4.8 0  -5 4.7 0  -5 4.6 0  -5 4.5 0  -5 4.4 0  -5 4.3 0  -5 4.2 0  -5 4.1 0  -5 4 0  -5 3.9 0  -5 3.8 0  -5 3.7 0  -5 3.6 0  -5 3.5 0  -5 3.4 0  -5 3.3 0  -5 3.2 0  -5 3.1 0  -5 3 0  -5 2.9 0  -5 2.8 0  -5 2.7 0  -5 2.6 0  -5 2.5 0  -5 2.4 0  -5 2.3 0  -5 2.2 0  -5 2.1 0  -5 2 0  -5 1.9 0  -5 1.8 0  -5 1.7 0  -5 1.6 0  -5 1.5 0  -5 1.4 0  -5 1.3 0  -5 1.2 0  -5 1.1 0  -5 1 0  -5 0.9000000000000004 0  -5 0.7999999999999998 0  -5 0.7000000000000002 0  -5 0.5999999999999996 0  -5 0.5 0  -5 0.4000000000000004 0  -5 0.2999999999999998 0  -5 0.2000000000000002 0  -5 0.09999999999999964 0  -5 0 0  -5 -0.09999999999999964 0  -5 -0.2000000000000002 0  -5 -0.2999999999999998 0  -5 -0.4000000000000004 0  -5 -0.5 0  -5 -0.5999999999999996 0  -5 -0.7000000000000002 0  -5 -0.7999999999999998 0  -5 -0.9000000000000004 0  -5 -1 0  -5 -1.1 0  -5 -1.2 0  -5 -1.3 0  -5 -1.4 0  -5 -1.5 0  -5 -1.6 0  -5 -1.7 0  -5 -1.8 0  -5 -1.9 0  -5 -2 0  -5 -2.1 0  -5 -2.2 0  -5 -2.3 0  -5 -2.4 0  -5 -2.5 0  -5 -2.6 0  -5 -2.7 0  -5 -2.8 0  -5 -2.9 0  -5 -3 0  -5 -3.1 0  -5 -3.199999999999999 0  -5 -3.300000000000001 0  -5 -3.4 0  -5 -3.5 0  -5 -3.6 0  -5 -3.699999999999999 0  -5 -3.800000000000001 0  -5 -3.9 0  -5 -4 0  -5 -4.1 0  -5 -4.199999999999999 0  -5 -4.300000000000001 0  -5 -4.4 0  -5 -4.5 0  -5 -4.6 0  -5 -4.699999999999999 0  -5 -4.800000000000001 0  -5 -4.9 0  1.253469199132288 0.09424161804966626 0  1.231542737768337 0.191956371831649 0  1.198031789825617 0.2884961578949962 0  1.155206134843791 0.3769756508507055 0  1.096978218138502 0.4679039025308758 0  1.030921219295475 0.5519204707676532 0  0.9523813372765397 0.6320897412368152 0  0.8653152049309665 0.7069086344950078 0  0.7734850865940421 0.7723193243774968 0  0.6711731722717806 0.8297110295584289 0  0.5587246579710454 0.8819571967427138 0  0.4458584063522708 0.9266454251364636 0  0.3339334440766809 0.9586304315222288 0  0.2087559163005574 0.9804205760853477 0  0.08852601675581959 0.9993314922677571 0  -0.02682542999141579 1.002707054655517 0  -0.1444969319098461 0.9889034547822024 0  -0.27268282656054 0.9696427271298708 0  -0.3922396967648826 0.9455046585944978 0  -0.5025698930052941 0.909766336688296 0  -0.6121749646113339 0.8632897405327026 0  -0.7142918202093004 0.8084817894254827 0  -0.8089612172978582 0.743662535192391 0  -0.9002718097650703 0.6699772298276284 0  -0.9862762239180387 0.5900142464442469 0  -1.060894452459962 0.5087679498299584 0  -1.122802105766439 0.4237464519280446 0  -1.17674149613104 0.3310109503835532 0  -1.214554574651901 0.2426593691462617 0  -1.239009713412659 0.1486122636790631 0  -1.249756093106518 0.05195357319168128 0  -1.249715271053354 -0.04973733585436829 0  -1.238986284228139 -0.1456559709026181 0  -1.21416941688442 -0.2375510089362923 0  -1.172431411808699 -0.3324260863276079 0  -1.123142307544632 -0.4244245333690888 0  -1.062717893158983 -0.5086482175567333 0  -0.9887635388004946 -0.5890140276433168 0  -0.9033913154572143 -0.6679016384696587 0  -0.8127077169783906 -0.7395566107328529 0  -0.7169183722813469 -0.8005156379559824 0  -0.6121644619542358 -0.853667962928175 0  -0.4976201215013565 -0.9032703364384796 0  -0.3848475220313853 -0.9431659650685699 0  -0.269351397713926 -0.9694151541541575 0  -0.1429183324648974 -0.9888260882963824 0  -0.02777382682657299 -1.001933671009269 0  0.08757087582902753 -0.9945799125137487 0  0.2146240139996367 -0.9767925865193666 0  0.3366463778113448 -0.9569788368488483 0  0.4500274004521092 -0.9253241370768143 0  0.5612254993012796 -0.8811964614289391 0  0.6722495063101556 -0.8296986961605614 0  0.7734130607394003 -0.7734390566335541 0  0.8651985117347404 -0.7080958808384291 0  0.9511055767241529 -0.6323711030420303 0  1.028346955850912 -0.5507924706647588 0  1.09801814180273 -0.466689814468827 0  1.156006196519823 -0.3773935914593807 0  1.199778387447231 -0.2865590635808811 0  1.232246470195279 -0.1911471855196333 0  1.253860597251458 -0.09408018710074385 0  -2.448541433576584 4.918078214189169 0  -2.448413719825299 -4.910453192714053 0  4.910376364311921 2.447864573195691 0  4.918506874840704 -2.449328942072016 0  2.44613993322851 -4.895677674367873 0  2.440574218447399 4.899441903984993 0  -4.910403615529454 -2.447891250059121 0  -4.910400880939703 2.447895273827696 0  -1.748494712786686 4.910950072995389 0  -1.744282122703137 -4.914393613223864 0  4.920541242282474 1.744042242607493 0  4.909061917796161 -1.747799437323798 0  -4.909356667716773 -1.747533999938973 0  -4.910179803986811 1.747279321300029 0  1.745766044772441 4.904801617166396 0  1.747176456752976 -4.892937512854674 0  -1.148809869071249 4.908719603855755 0  -1.129669325275268 -4.916643479046636 0  -4.909050684060103 -1.147868129819735 0  -4.908868709336166 1.147668701797008 0  1.143806443212138 -4.912823444890749 0  1.14881974736108 4.908705993325501 0  4.909189936478517 1.146143145437709 0  4.920038654274805 -1.151932224419396 0  -0.5466522698758741 -4.909900929970504 0  -0.5464367172655521 4.918597503763542 0  -4.907764244590468 -0.5486752909576851 0  -4.907788203249664 0.5472333569389677 0  4.90708125267839 -0.5489933145009557 0  4.918759942523255 0.5457548540933709 0  0.5424330990764231 -4.896759639563958 0  0.5511647404446303 4.915415563856182 0  -4.911846922806317 -3.048254720747972 0  4.918421098849037 3.046273421848982 0  4.911354313453283 -3.048229935226164 0  -4.91269504109377 3.04534669543656 0  3.055269878994268 -4.917343096512789 0  -3.048598341476623 -4.911275798936231 0  3.052166339051713 4.913354489562645 0  -3.048044266397673 4.912166066520322 0  -4.906865241602105 -0.04990439578818624 0  0.0451188084435637 -4.911850034855916 0  0.04956611526018082 4.918887666786363 0  4.913933113831496 -0.05128687035635703 0  3.545594921650172 -4.918999160274411 0  -3.54887328837026
[...]
<PointData  Vectors="f_5402"> 
<DataArray  type="Float64"  Name="f_5402"  NumberOfComponents="3" format="ascii">-1.2594883529169713e-42 -5.2138079140690017e-41 0.0000000000000000e+00  2.3910224517427605e-41 -4.2845767884121179e-41 0.0000000000000000e+00  -9.1712905064447246e-41 -8.5846321392691267e-41 0.0000000000000000e+00  -9.5953538434678715e-41 1.1124547598381922e-40 0.0000000000000000e+00  1.1418817031288448e+01 3.0438736758370850e-02 0.0000000000000000e+00  4.5359407234325605e-41 1.2228826803405559e-40 0.0000000000000000e+00  4.6000739124575852e-40 3.2258937254397500e-40 0.0000000000000000e+00  -1.2187754976445301e-39 -7.7425005765834431e-40 0.0000000000000000e+00  5.9411897802227039e-39 7.1451857885406631e-39 0.0000000000000000e+00  -2.2870936726595395e-38 -2.3502764199647546e-38 0.0000000000000000e+00  4.8634878907018705e-38 8.1940314180222156e-38 0.0000000000000000e+00  -1.7868873597098484e-37 -2.8064465529629995e-37 0.0000000000000000e+00  7.6400990031811922e-37 1.4013114910297290e-36 0.0000000000000000e+00  -4.7706364132188140e-36 -8.2687681232495355e-36 0.0000000000000000e+00  2.4539503228499341e-35 3.4626220466512337e-35 0.0000000000000000e+00  -7.6187991878761961e-35 -7.5332499639212295e-35 0.0000000000000000e+00  1.7223573163229102e-34 1.3266336620804698e-34 0.0000000000000000e+00  8.4162510872901099e-34 8.1521979472459540e-34 0.0000000000000000e+00  -1.8306087170027058e-33 -2.0027409939201260e-33 0.0000000000000000e+00  -1.7666824069468002e-33 -1.0219110100131389e-33 0.0000000000000000e+00  -5.9209816014074098e-33 -1.0643621127123762e-32 0.0000000000000000e+00  3.5752672228000030e-32 5.5021608069593625e-32 0.0000000000000000e+00  -7.2402633011611488e-32 -1.3529261056485871e-31 0.0000000000000000e+00  2.9239423697513853e-31 5.6473980780589299e-31 0.0000000000000000e+00  -4.3404290054939803e-31 -7.6105739409557398e-31 0.0000000000000000e+00  -2.6433055557505297e-30 -5.2498350371119122e-30 0.0000000000000000e+00  1.8581690434377516e-30 3.5911476672153069e-30 0.0000000000000000e+00  3.8276194521930432e-30 1.1347747881706551e-29 0.0000000000000000e+00  2.6814020545314749e-30 -4.3108203608987483e-32 0.0000000000000000e+00  -3.0782445807905001e-30 -1.4810626790672760e-29 0.0000000000000000e+00  -2.5253859802535244e-30 3.5807853419409567e-29 0.0000000000000000e+00  -1.9155272577305864e-29 -4.8510095077408444e-29 0.0000000000000000e+00  -7.4923930693253257e-29 -3.0144102770369590e-28 0.0000000000000000e+00  4.6960017903136869e-29 1.8926057607138059e-28 0.0000000000000000e+00  1.0600780864386397e-28 6.2077636741551688e-28 0.0000000000000000e+00  2.6752763963544591e-29 -1.6270285423539680e-28 0.0000000000000000e+00  6.2527319366265289e-29 3.9689588344852758e-29 0.0000000000000000e+00  -1.3973490123060950e-29 -1.1344955072250748e-28 0.0000000000000000e+00  -1.7856969738699197e-28 -2.9600851178115555e-28 0.0000000000000000e+00  -1.5671698458957660e-28 -1.6729493075697017e-28 0.0000000000000000e+00  9.8356397364774154e-29 1.9314656390742441e-28 0.0000000000000000e+00  2.9056016087858088e-28 4.9742972949270403e-28 0.0000000000000000e+00  2.3525411861450249e-28 3.3408167106716662e-28 0.0000000000000000e+00  1.2132913706337252e-28 8.3824825774775085e-29 0.0000000000000000e+00  1.0963190797814938e-28 7.3692661858631233e-29 0.0000000000000000e+00  -4.7763338333196567e-28 2.8892066921206836e-28 0.0000000000000000e+00  -2.7825118463572181e-28 7.4710232130007480e-28 0.0000000000000000e+00  2.5512004529500250e-28 -4.0259575076494389e-28 0.0000000000000000e+00  -1.2068860829380251e-28 2.7141625458105233e-27 0.0000000000000000e+00  -2.6645688641524834e-28 -2.4147785331087106e-29 0.0000000000000000e+00  -5.0907668399066133e-28 -2.4087731544221284e-27 0.0000000000000000e+00  -5.5415516551980392e-28 -1.2754896285051584e-27 0.0000000000000000e+00  -3.6536937565418954e-28 -2.0001743177334914e-27 0.0000000000000000e+00  -5.4669624995261752e-29 -5.4559499394760903e-27 0.0000000000000000e+00  3.6667125749444567e-29 -6.2409211611695620e-27 0.0000000000000000e+00  -4.5943957237195626e-29 -1.0292983244728912e-27 0.0000000000000000e+00  -1.1535977267891893e-28 -3.1841745222834462e-27 0.0000000000000000e+00  -8.3780554914927124e-29 -9.0628066164517874e-28 0.0000000000000000e+00  -4.1223109531428709e-29 -1.9433644489473799e-27 0.0000000000000000e+00  -1.6305865487233868e-29 1.1711726517841371e-27 0.0000000000000000e+00  1.0176946060254375e-28 -2.4183388462678470e-27 0.0000000000000000e+00  2.0304661335484794e-28 -2.1585513443512209e-27 0.0000000000000000e+00  -3.1392998897082944e-30 5.9161960400981211e-28 0.0000000000000000e+00  -2.0168592715487123e-28 3.6167921594128160e-27 0.0000000000000000e+00  -1.2521609151477367e-28 1.4153439979796699e-27 0.0000000000000000e+00  -1.1992295159799221e-28 7.0331772646918897e-28 0.0000000000000000e+00  -2.4504002416293565e-28 2.0150618996589110e-27 0.0000000000000000e+00  -1.3122434375993420e-28 1.0688239935545380e-27 0.0000000000000000e+00  1.6128552637261990e-28 -1.3177390564286214e-27 0.0000000000000000e+00  1.2129956589350935e-28 -6.2654899802786180e-28 0.0000000000000000e+00  -7.9746550597389437e-30 -3.0255521974697364e-29 0.0000000000000000e+00  8.8774191477533820e-29 -4.4819838770386302e-28 0.0000000000000000e+00  6.1549190927654996e-29 -3.6134351584655296e-28 0.0000000000000000e+00  -7.4865160127275573e-29 3.7601655554966468e-28 0.0000000000000000e+00  -3.4180990341083821e-29 2.3651824229591913e-28 0.0000000000000000e+00  -1.9027327674222886e-29 8.2080352263991686e-29 0.0000000000000000e+00  2.9912784441055193e-29 -1.2520790136280381e-28 0.0000000000000000e+00  1.1568079473288798e-29 -2.0132152785158219e-29 0.0000000000000000e+00  2.4741107515972701e-29 -5.6871756181279137e-29 0.0000000000000000e+00  2.7716406939059538e-31 -2.5144655475997233e-30 0.0000000000000000e+00  -2.2252928013163900e-29 5.2849409493295002e-29 0.0000000000000000e+00  2.6057379121128812e-30 -6.4579670989703617e-30 0.0000000000000000e+00  1.6517026642930586e-30 -3.6654461934385682e-30 0.0000000000000000e+00  -2.0268300114935503e-31 1.1088704484655551e-30 0.0000000000000000e+00  4.5079294833767404e-31 -9.0295449015574769e-31 0.0000000000000000e+00  -2.2738033293598662e-31 4.0906953128454898e-31 0.0000000000000000e+00  1.6443076964942171e-31 -2.4786383274424373e-31 0.0000000000000000e+00  2.4798995306227016e-32 -1.6144583773464116e-32 0.0000000000000000e+00  -1.6042284644143903e-33 1.1389410649773826e-33 0.0000000000000000e+00  -4.5181175771507232e-33 4.2845915242886937e-33 0.0000000000000000e+00  2.3515983754744256e-33 -2.1195692211827624e-33 0.0000000000000000e+00  -6.6384773485519980e-34 6.2893938823514246e-34 0.0000000000000000e+00  1.8187102877723977e-34 -1.7206377773462554e-34 0.0000000000000000e+00  -5.8205195624522597e-35 5.7465522638033545e-35 0.0000000000000000e+00  1.4483259835933604e-35 -1.1847873131223874e-35 0.0000000000000000e+00  -3.5320243861629920e-37 1.8545807080492778e-37 0.0000000000000000e+00  -1.3225794098576563e-36 1.0998715421818401e-36 0.0000000000000000e+00  4.0275580325585792e-37 -3.6022339761121701e-37 0.0000000000000000e+00  -1.8807982927543243e-37 1.6267563869876311e-37 0.0000000000000000e+00  5.9602579841457438e-38 -5.0788014302037551e-38 0.0000000000000000e+00  -1.0002747082918610e-38 8.6292090224531277e-39 0.0000000000000000e+00  3.5416272948328244e-39 -3.2201380800181881e-39 0.0000000000000000e+00  -3.6664244609366026e-40 2.8454865295198868e-40 0.0000000000000000e+00  -4.3855155258930235e-41 7.8821965848218503e-41 0.0000000000000000e+00  1.2169106487273939e-41 -8.8437220409314240e-42 0.0000000000000000e+00  2.7938991344955893e-40 -2.2291684939101101e-40 0.0000000000000000e+00  -6.1192761954356010e-40 4.8594496743427646e-40 0.0000000000000000e+00  1.2921324215371909e-39 -1.3552560157448219e-39 0.0000000000000000e+00  1.1791192519627862e-39 3.7973451330646537e-41 0.0000000000000000e+00  -1.2641752699497578e-38 8.7375260616813603e-39 0.0000000000000000e+00  3.2445390207202593e-38 -2.7380799872925985e-38 0.0000000000000000e+00  -1.6352891294375769e-38 2.7013212677157761e-38 0.0000000000000000e+00  -1.6912521936615816e-37 9.5940844639599353e-38 0.0000000000000000e+00  6.3089232184459528e-37 -4.5639947008368484e-37 0.0000000000000000e+00  -7.0680544966670173e-37 6.6341881276294585e-37 0.0000000000000000e+00  -2.0202015036478736e-36 9.9849402748913176e-37 0.0000000000000000e+00  9.6489520802332726e-36 -6.4381769494124805e-36 0.0000000000000000e+00  -1.4169273227028358e-35 1.1068085574205957e-35 0.0000000000000000e+00  -2.3769996918648869e-35 1.1652745480406687e-35 0.0000000000000000e+00  1.4346366758424208e-34 -9.2144798066154896e-35 0.0000000000000000e+00  -1.9254063867928199e-34 1.3785854300026110e-34 0.0000000000000000e+00  -3.7552928596503110e-34 2.1105587557849554e-34 0.0000000000000000e+00  1.9242954382109115e-33 -1.2164728387002006e-33 0.0000000000000000e+00  -1.7343238601965508e-33 1.1728400470685990e-33 0.0000000000000000e+00  -7.1406257745460480e-33 4.3467578397199401e-33 0.0000000000000000e+00  2.2019536099528690e-32 -1.3655225720145400e-32 0.0000000000000000e+00  1.0920870077188204e-33 -8.8786762049670391e-34 0.0000000000000000e+00  -1.1732902601015121e-31 7.2102406809781120e-32 0.0000000000000000e+00  1.6471082369768308e-31 -9.5226454915788961e-32 0.0000000000000000e+00  3.6985542561410429e-31 -2.3596194101848140e-31 0.0000000000000000e+00  -1.1823149266696398e-30 6.8361357064178536e-31 0.0000000000000000e+00  -5.1836182265340684e-31 4.3666272499016529e-31 0.0000000000000000e+00  6.0973328020345796e-30 -3.5288299554466049e-30 0.0000000000000000e+00  -2.4540204163757212e-30 4.8883750589293024e-31 0.0000000000000000e+00  -2.6254271928403206e-29 1.5254379264886723e-29 0.0000000000000000e+00  2.4497157931026639e-29 -7.9895169246612056e-30 0.0000000000000000e+00  1.0532796259211244e-28 -6.1303134366435764e-29 0.0000000000000000e+00  -1.3238569652126488e-28 3.8751724628712834e-29 0.0000000000000000e+00  -4.3673530595879454e-28 2.4306939778690452e-28 0.0000000000000000e+00  5.3687585292743773e-28 -1.0107799980920403e-28 0.0000000000000000e+00  1.8277230778902846e-27 -9.0852358271969672e-28 0.0000000000000000e+00  -1.8041268409966037e-27 6.9041663882601453e-29 0.0000000000000000e+00  -7.5298165651864230e-27 2.8213904023402195e-27 0.0000000000000000e+00  3.5724291343007259e-27 1.2648630164928517e-27 0.0000000000000000e+00  2.6052189185011715e-26 -6.5291911637568999e-27 0.0000000000000000e+00  1.1790811563275857e-26 -9.4148180002766442e-27 0.0000000000000000e+00  -6.7214944247578788e-26 2.7084719420055842e-27 0.0000000000000000e+00  -8.0604252334099983e-26 4.1959248715114372e-27 0.0000000000000000e+00  1.8944795228708386e-25 -5.1115055677132779e-26 0.0000000000000000e+00  7.9736533524829127e-25 -1.7364517307113586e-25 0.0000000000000000e+00  1.3081206834648821e-24 -2.6957403246969661e-25 0.0000000000000000e+00  1.4127675401171788e-24 -2.6582646156007202e-25 0.0000000000000000e+00  1.1833308103167593e-24 -1.4976071214115270e-25 0.0000000000000000e+00  1.0947817167734113e-24 9.4869070749117633e-27 0.0000000000000000e+00  1.2540808028788816e-24 1.5055277997324651e-25 0.0000000000000000e+00  1.3000790488335466e-24 2.1128543754372551e-25 0.0000000000000000e+00  9.5198432247033360e-25 1.6888264500786778e-25 0.0000000000000000e+00  3.5692700096083106e-25 6.3231875946469464e-26 0.0000000000000000e+00  -5.2848915832027333e-26 -1.6020100419502459e-26 0.0000000000000000e+00  -1.2979599860966756e-25 -2.8043274940951867e-26 0.0000000000000000e+00  -2.5701721346755911e-26 -1.0910555418631079e-28 0.0000000000000000e+00  3.9849302919100460e-26 1.6030509617663142e-26 0.0000000000000000e+00  2.6418130147339173e-26 9.5767795091860802e-27 0.0000000000000000e+00  -8.4690666485094180e-28 -1.2170995413342435e-28 0.0000000000000000e+00  -5.7351575908434036e-27 -1.9128752475215136e-27 0.0000000000000000e+00  -5.3043967314587836e-28 -1.3464197601110277e-28 0.0000000000000000e+00  1.3001418635967773e-27 4.6505987985085746e-28 0.0000000000000000e+00  1.3586319805812894e-28 1.9086096007183441e-29 0.0000000000000000e+00  -3.1287321505045498e-28 -1.2328388713949451e-28 0.0000000000000000e+00  -1.6922533615533073e-29 4.7600430160913342e-30 0.0000000000000000e+00  7.4220754129498238e-29 3.1494736880983332e-29 0.0000000000000000e+00  -4.2232100353770557e-30 -5.4442551409512570e-30 0.0000000000000000e+00  -1.6452957294049989e-29 -7.2303602398413728e-30 0.0000000000000000e+00  3.0291709621587718e-30 2.3098050594347809e-30 0.0000000000000000e+00  3.0136855575067848e-30 1.2834060554524835e-30 0.0000000000000000e+00  -1.2311550905850243e-30 -7.9135537357527190e-31 0.0000000000000000e+00  -4.0778574299350899e-31 -1.4192427073409186e-31 0.0000000000000000e+00  3.5255949633494267e-31 2.0956589457586570e-31 0.0000000000000000e+00  -3.8439754798113896e-33 -2.0630409597545337e-32 0.0000000000000000e+00  -7.2991621236598705e-32 -4.0842224842684536e-32 0.0000000000000000e+00  2.0752341480130780e-32 1.5373841618410905e-32 0.0000000000000000e+00  9.2963255521570960e-33 4.4426105772497415e-33 0.0000000000000000e+00  -7.2522792148968052e-33 -4.6144061247061275e-33 0.0000000000000000e+00  5.2794052719339295e-34 5.3970774774491683e-34 0.0000000000000000e+00  1.1577331183316817e-33 6.9526377056376062e-34 0.0000000000000000e+00  -5.3514732440085077e-34 -3.5715591287622182e-34 0.0000000000000000e+00  -1.6249041572287999e-35 -3.4587339841047731e-36 0.0000000000000000e+00  1.0569501855454900e-34 6.9015098738414710e-35 0.0000000000000000e+00  -3.9610547819177091e-35 -2.6285229297568401e-35 0.0000000000000000e+00  -1.8527619462722015e-36 -1.6369990589058780e-36 0.0000000000000000e+00  7.3900520911258828e-36 5.1555169646807454e-36 0.0000000000000000e+00  -2.8430724321693009e-36 -1.8716925598311862e-36 0.0000000000000000e+00  2.8131454405906105e-38 -6.8396823902539733e-38 0.0000000000000000e+00  4.4024364452012607e-37 3.3687352822576232e-37 0.0000000000000000e+00  -2.0163444770535596e-37 -1.3778678647959656e-37 0.0000000000000000e+00  2.4672344314732664e-38 8.6950965124858809e-39 0.0000000000000000e+00  1.9133696365849431e-38 1.7640259609381944e-38 0.0000000000000000e+00  -1.2947285198356932e-38 -9.8242871485584325e-39 0.0000000000000000e+00  3.2773260248133596e-39 1.8792913132413864e-39 0.0000000000000000e+00  3.0993215109568056e-40 5.8331626238278967e-40 0.0000000000000000e+00  -6.1604379470917590e-40 -5.6269143630692720e-40 0.0000000000000000e+00  2.5438707542117774e-40 1.9288516295274354e-40 0.0000000000000000e+00  -3.4811770360498927e-41 -4.8546629273816374e-43 0.0000000000000000e+00  1.7770405057711080e-40 1.5577436067232410e-40 0.0000000000000000e+00  -1.0188145714946445e-40 -1.8175378330682737e-40 0.0000000000000000e+00  2.9599003230818960e-40 4.2665286176848509e-40 0.0000000000000000e+00  -5.4045693653859638e-40 -2.1148619201836435e-39 0.0000000000000000e+00  2.4175654438128212e-38 2.9599936949077613e-38 0.0000000000000000e+00  -8.9880228385066694e-38 -1.0226269326706816e-37 0.0000000000000000e+00  1.1292152969865309e-37 1.4914359482822535e-37 0.0000000000000000e+00  -1.1551685659634088e-36 -1.5023127719710048e-36 0.0000000000000000e+00  2.3114443945788428e-36 3.3512688712341211e-36 0.0000000000000000e+00  -5.3733181292128633e-36 -9.0425244879031340e-36 0.0000000000000000e+00  1.4353140531826016e-35 1.6407618177569286e-35 0.0000000000000000e+00  1.9573737454580572e-35 4.2697254954330173e-35 0.0000000000000000e+00  -4.6716318861607705e-35 -7.8373599818878857e-35 0.0000000000000000e+00  9.1424371000409344e-34 1.2992892646859282e-33 0.0000000000000000e+00  -2.6615553966885632e-33 -3.9945895385681656e-33 0.0000000000000000e+00  1.4405169765406490e-32 1.9995974756350769e-32 0.0000000000000000e+00  -2.3226897475506171e-32 -2.5949126648388715e-32 0.0000000000000000e+00  -3.1005679638584255e-31 -4.7715322589512197e-31 0.0000000000000000e+00  9.9523647362346495e-31 1.5846330750553777e-30 0.0000000000000000e+00  -1.3969915546473974e-30 -2.3698301853839911e-30 0.0000000000000000e+00  -1.9288773671004545e-30 -3.5659135217002965e-30 0.0000000000000000e+00  9.0853019118440651e-30 1.8114178019774822e-29 0.0000000000000000e+00  5.5901971966353203e-30 1.0023078944168964e-29 0.0000000000000000e+00  -2.3015133001194183e-29 -4.8727648121278203e-29 0.0000000000000000e+00  -1.7225274181195584e-30 -7.5098691693479926e-30 0.0000000000000000e+00  -2.8441975443511711e-30 -7.8609225606762721e-29 0.0000000000000000e+00  2.2184471442038217e-29 1.1886226721036156e-28 0.0000000000000000e+00  1.1211701177695408e-28 5.4296414629194440e-28 0.0000000000000000e+00  3.5539390254417412e-29 1.5870702736614395e-28 0.0000000000000000e+00  -6.2705241782498814e-29 -2.2318122466900583e-28 0.0000000000000000e+00  -1.9280063523500898e-28 -1.0670253143573487e-27 0.0000000000000000e+00  1.3782638052432207e-28 7.4576182921286124e-28 0.0000000000000000e+00  2.1346440679616718e-28 1.2094127518028854e-27 0.0000000000000000e+00  2.0318922581118440e-28 1.1338050390158910e-27 0.0000000000000000e+00  1.3285937167288412e-28 7.2860904724875415e-28 0.0000000000000000e+00  -3.5036467052330483e-28 -2.0087962242783732e-27 0.0000000000000000e+00  -6.7776587069778708e-29 -3.8045176838652446e-28 0.0000000000000000e+00  -2.6846579509173560e-29 -1.2915924680782071e-28 0.0000000000000000e+00  -2.0809452101653784e-28 -1.2909018224586720e-27 0.0000000000000000e+00  -1.8077323990894686e-28 -1.2821048898170846e-27 0.0000000000000000e+00  -2.4328029120113943e-28 -2.6512099049762188e-27 0.0000000000000000e+00  -1.1915254428010031e-28 -1.3731452165224577e-27 0.0000000000000000e+00  6.7271131632083169e-29 1.0193895840653468e-27 0.0000000000000000e+00  -1.9906470804050190e-29 -6.7187204022601241e-28 0.0000000000000000e+00  -1.7051428486798256e-29 -2.5629973176386576e-27 0.0000000000000000e+00  -1.1642936357405582e-28 4.7189944796390293e-28 0.0000000000000000e+00  -1.0395261067815698e-28 3.1929898206316310e-28 0.0000000000000000e+00  6.6917155142163882e-29 -1.9160346159879167e-27 0.0000000000000000e+00  -1.0245642345680786e-29 -8.4201410991536875e-28 0.0000000000000000e+00  1.8052309210858810e-28 -1.9710335567222049e-27 0.0000000000000000e+00  -3.5483314889469925e-28 1.4655483863886021e-27 0.0000000000000000e+00  -3.3182712990953419e-28 1.4130679875642271e-27 0.0000000000000000e+00  2.7497460248794176e-28 -1.8924307056047877e-27 0.0000000000000000e+00  6.7927484390810686e-29 -5.7236090162344341e-28 0.0000000000000000e+00  3.1129650914765677e-28 -1.9154225380444179e-27 0.0000000000000000e+00  -1.0240152167385897e-28 6.2272468977128528e-28 0.0000000000000000e+00  -6.0268017323771368e-29 1.6718683523612984e-28 0.0000000000000000e+00  2.1237856009919683e-28 -1.0016293593733075e-27 0.0000000000000000e+00  7.5505980763641286e-29 -4.7310635340336697e-28 0.0000000000000000e+00  3.4353190020135775e-28 -1.9946394240524140e-27 0.0000000000000000e+00  4.2670121246687859e-28 -2.6170175608138355e-27 0.0000000000000000e+00  5.1032235599828708e-28 -3.3078695975174230e-27 0.0000000000000000e+00  1.1829264014930070e-28 -8.1998164667480861e-28 0.0000000000000000e+00  -1.9247781313171813e-28 1.1493203661071068e-27 0.0000000000000000e+00  -2.6375488506752404e-28 1.7885172662239921e-27 0.0000000000000000e+00  -2.7432364586071652e-28 1.8546705827896877e-27 0.0000000000000000e+00  -5.1736721308727678e-29 3.4132055480535577e-28 0.0000000000000000e+00  7.4749370105606426e-29 -4.9099660872113722e-28 0.0000000000000000e+00  3.6263104238505606e-29 -2.0965035379356571e-28 0.0000000000000000e+00  1.7574047736642106e-28 -9.3044007094459243e-28 0.0000000000000000e+00  6.2986389148119510e-29 -3.1566762521966135e-28 0.0000000000000000e+00  -7.7156266909566003e-29 3.9044018717388465e-28 0.0000000000000000e+00  1.3811176694803595e-29 -9.8453285655489978e-29 0.0000000000000000e+00  4.7896580308342902e-30 -1.3215758363570623e-29 0.0000000000000000e+00  8.7710434526050600e-30 -1.6826017336980350e-29 0.0000000000000000e+00  8.1866758850911459e-31 -2.7108886053359419e-30 0.0000000000000000e+00  5.2610833557763304e-31 5.9135061078128648e-31 0.0000000000000000e+00 