<?xml version="1.0"?>
<VTKFile type="UnstructuredGrid"  version="0.1"  >
<UnstructuredGrid>
<Piece  NumberOfPoints="11902" NumberOfCells="23402">
<Points>
<DataArray  type="Float64"  NumberOfComponents="3"  format="ascii">-5 -5 0  5 -5 0  5 5 0  -5 5 0  1.265515895604602 0.001279147315371278 0  -4.9 -5 0  -4.8 -5 0  -4.7 -5 0  -4.6 -5 0  -4.5 -5 0  -4.4 -5 0  -4.3 -5 0  -4.2 -5 0  -4.1 -5 0  -4 -5 0  -3.9 -5 0  -3.8 -5 0  -3.7 -5 0  -3.6 -5 0  -3.5 -5 0  -3.4 -5 0  -3.3 -5 0  -3.2 -5 0  -3.1 -5 0  -3 -5 0  -2.9 -5 0  -2.8 -5 0  -2.7 -5 0  -2.6 -5 0  -2.5 -5 0  -2.4 -5 0  -2.3 -5 0  -2.2 -5 0  -2.1 -5 0  -2 -5 0  -1.9 -5 0  -1.8 -5 0  -1.7 -5 0  -1.6 -5 0  -1.5 -5 0  -1.4 -5 0  -1.3 -5 0  -1.2 -5 0  -1.1 -5 0  -1 -5 0  -0.9000000000000004 -5 0  -0.7999999999999998 -5 0  -0.7000000000000002 -5 0  -0.5999999999999996 -5 0  -0.5 -5 0  -0.4000000000000004 -5 0  -0.2999999999999998 -5 0  -0.2000000000000002 -5 0  -0.09999999999999964 -5 0  0 -5 0  0.09999999999999964 -5 0  0.2000000000000002 -5 0  0.2999999999999998 -5 0  0.4000000000000004 -5 0  0.5 -5 0  0.5999999999999996 -5 0  0.7000000000000002 -5 0  0.7999999999999998 -5 0  0.9000000000000004 -5 0  1 -5 0  1.1 -5 0  1.2 -5 0  1.3 -5 0  1.4 -5 0  1.5 -5 0  1.6 -5 0  1.7 -5 0  1.8 -5 0  1.9 -5 0  2 -5 0  2.1 -5 0  2.2 -5 0  2.3 -5 0  2.4 -5 0  2.5 -5 0  2.6 -5 0  2.7 -5 0  2.8 -5 0  2.9 -5 0  3 -5 0  3.1 -5 0  3.199999999999999 -5 0  3.300000000000001 -5 0  3.4 -5 0  3.5 -5 0  3.6 -5 0  3.699999999999999 -5 0  3.800000000000001 -5 0  3.9 -5 0  4 -5 0  4.1 -5 0  4.199999999999999 -5 0  4.300000000000001 -5 0  4.4 -5 0  4.5 -5 0  4.6 -5 0  4.699999999999999 -5 0  4.800000000000001 -5 0  4.9 -5 0  5 -4.9 0  5 -4.8 0  5 -4.7 0  5 -4.6 0  5 -4.5 0  5 -4.4 0  5 -4.3 0  5 -4.2 0  5 -4.1 0  5 -4 0  5 -3.9 0  5 -3.8 0  5 -3.7 0  5 -3.6 0  5 -3.5 0  5 -3.4 0  5 -3.3 0  5 -3.2 0  5 -3.1 0  5 -3 0  5 -2.9 0  5 -2.8 0  5 -2.7 0  5 -2.6 0  5 -2.5 0  5 -2.4 0  5 -2.3 0  5 -2.2 0  5 -2.1 0  5 -2 0  5 -1.9 0  5 -1.8 0  5 -1.7 0  5 -1.6 0  5 -1.5 0  5 -1.4 0  5 -1.3 0  5 -1.2 0  5 -1.1 0  5 -1 0  5 -0.9000000000000004 0  5 -0.7999999999999998 0  5 -0.7000000000000002 0  5 -0.5999999999999996 0  5 -0.5 0  5 -0.4000000000000004 0  5 -0.2999999999999998 0  5 -0.2000000000000002 0  5 -0.09999999999999964 0  5 0 0  5 0.09999999999999964 0  5 0.2000000000000002 0  5 0.2999999999999998 0  5 0.4000000000000004 0  5 0.5 0  5 0.5999999999999996 0  5 0.7000000000000002 0  5 0.7999999999999998 0  5 0.9000000000000004 0  5 1 0  5 1.1 0  5 1.2 0  5 1.3 0  5 1.4 0  5 1.5 0  5 1.6 0  5 1.7 0  5 1.8 0  5 1.9 0  5 2 0  5 2.1 0  5 2.2 0  5 2.3 0  5 2.4 0  5 2.5 0  5 2.6 0  5 2.7 0  5 2.8 0  5 2.9 0  5 3 0  5 3.1 0  5 3.199999999999999 0  5 3.300000000000001 0  5 3.4 0  5 3.5 0  5 3.6 0  5 3.699999999999999 0  5 3.800000000000001 0  5 3.9 0  5 4 0  5 4.1 0  5 4.199999999999999 0  5 4.300000000000001 0  5 4.4 0  5 4.5 0  5 4.6 0  5 4.699999999999999 0  5 4.800000000000001 0  5 4.9 0  4.9 5 0  4.8 5 0  4.7 5 0  4.6 5 0  4.5 5 0  4.4 5 0  4.3 5 0  4.2 5 0  4.1 5 0  4 5 0  3.9 5 0  3.8 5 0  3.7 5 0  3.6 5 0  3.5 5 0  3.4 5 0  3.3 5 0  3.2 5 0  3.1 5 0  3 5 0  2.9 5 0  2.8 5 0  2.7 5 0  2.6 5 0  2.5 5 0  2.4 5 0  2.3 5 0  2.2 5 0  2.1 5 0  2 5 0  1.9 5 0  1.8 5 0  1.7 5 0  1.6 5 0  1.5 5 0  1.4 5 0  1.3 5 0  1.2 5 0  1.1 5 0  1 5 0  0.9000000000000004 5 0  0.7999999999999998 5 0  0.7000000000000002 5 0  0.5999999999999996 5 0  0.5 5 0  0.4000000000000004 5 0  0.2999999999999998 5 0  0.2000000000000002 5 0  0.09999999999999964 5 0  0 5 0  -0.09999999999999964 5 0  -0.2000000000000002 5 0  -0.2999999999999998 5 0  -0.4000000000000004 5 0  -0.5 5 0  -0.5999999999999996 5 0  -0.7000000000000002 5 0  -0.7999999999999998 5 0  -0.9000000000000004 5 0  -1 5 0  -1.1 5 0  -1.2 5 0  -1.3 5 0  -1.4 5 0  -1.5 5 0  -1.6 5 0  -1.7 5 0  -1.8 5 0  -1.9 5 0  -2 5 0  -2.1 5 0  -2.2 5 0  -2.3 5 0  -2.4 5 0  -2.5 5 0  -2.6 5 0  -2.7 5 0  -2.8 5 0  -2.9 5 0  -3 5 0  -3.1 5 0  -3.199999999999999 5 0  -3.300000000000001 5 0  -3.4 5 0  -3.5 5 0  -3.6 5 0  -3.699999999999999 5 0  -3.800000000000001 5 0  -3.9 5 0  -4 5 0  -4.1 5 0  -4.199999999999999 5 0  -4.300000000000001 5 0  -4.4 5 0  -4.5 5 0  -4.6 5 0  -4.699999999999999 5 0  -4.800000000000001 5 0  -4.9 5 0  -5 4.9 0  -5 4.8 0  -5 4.7 0  -5 4.6 0  -5 4.5 0  -5 4.4 0  -5 4.3 0  -5 4.2 0  -5 4.1 0  -5 4 0  -5 3.9 0  -5 3.8 0  -5 3.7 0  -5 3.6 0  -5 3.5 0  -5 3.4 0  -5 3.3 0  -5 3.2 0  -5 3.1 0  -5 3 0  -5 2.9 0  -5 2.8 0  -5 2.7 0  -5 2.6 0  -5 2.5 0  -5 2.4 0  -5 2.3 0  -5 2.2 0  -5 2.1 0  -5 2 0  -5 1.9 0  -5 1.8 0  -5 1.7 0  -5 1.6 0  -5 1.5 0  -5 1.4 0  -5 1.3 0  -5 1.2 0  -5 1.1 0  -5 1 0  -5 0.9000000000000004 0  -5 0.7999999999999998 0  -5 0.7000000000000002 0  -5 0.5999999999999996 0  -5 0.5 0  -5 0.4000000000000004 0  -5 0.2999999999999998 0  -5 0.2000000000000002 0  -5 0.09999999999999964 0  -5 0 0  -5 -0.09999999999999964 0  -5 -0.2000000000000002 0  -5 -0.2999999999999998 0  -5 -0.4000000000000004 0  -5 -0.5 0  -5 -0.5999999999999996 0  -5 -0.7000000000000002 0  -5 -0.7999999999999998 0  -5 -0.9000000000000004 0  -5 -1 0  -5 -1.1 0  -5 -1.2 0  -5 -1.3 0  -5 -1.4 0  -5 -1.5 0  -5 -1.6 0  -5 -1.7 0  -5 -1.8 0  -5 -1.9 0  -5 -2 0  -5 -2.1 0  -5 -2.2 0  -5 -2.3 0  -5 -2.4 0  -5 -2.5 0  -5 -2.6 0  -5 -2.7 0  -5 -2.8 0  -5 -2.9 0  -5 -3 0  -5 -3.1 0  -5 -3.199999999999999 0  -5 -3.300000000000001 0  -5 -3.4 0  -5 -3.5 0  -5 -3.6 0  -5 -3.699999999999999 0  -5 -3.800000000000001 0  -5 -3.9 0  -5 -4 0  -5 -4.1 0  -5 -4.199999999999999 0  -5 -4.300000000000001 0  -5 -4.4 0  -5 -4.5 0  -5 -4.6 0  -5 -4.699999999999999 0  -5 -4.800000000000001 0  -5 -4.9 0  1.257771166815677 0.09175148054544628 0  1.235633446825716 0.1892978888807411 0  1.201489410964583 0.2863784742521591 0  1.158824814404569 0.3752619885031647 0  1.09990236306579 0.4665176565213448 0  1.032715415239369 0.5495832389348624 0  0.9544589746603215 0.6302688948446477 0  0.8673807622529822 0.7049512105115826 0  0.7755619727588273 0.7698630333831825 0  0.6742551981686736 0.8273768893149629 0  0.5602173681703387 0.8796569894751778 0  0.4458910434888719 0.9247798634037093 0  0.3365755827450291 0.9560269620965577 0  0.2087969415125834 0.9793950008818577 0  0.08656145422786382 0.9971799926403325 0  -0.02594788870324442 1.000861971737895 0  -0.1435889374176564 0.9875927905600133 0  -0.275124299385504 0.9671325126119757 0  -0.3959529512866809 0.9426656464597742 0  -0.5045406414181128 0.9081556699443606 0  -0.6135548454594397 0.8618652455835765 0  -0.715410584000529 0.8064548368692246 0  -0.8095279494247808 0.7425596963943878 0  -0.9012373657751765 0.6689149385498508 0  -0.9880825297225484 0.5883997870371609 0  -1.062990781721534 0.5063192232409622 0  -1.125566090886128 0.4224515304817033 0  -1.182130389129293 0.3270031363139571 0  -1.219044045646857 0.2413748916672492 0  -1.243110942445163 0.148255154768868 0  -1.253048844896242 0.05306652077688726 0  -1.252963517347343 -0.05077947756893218 0  -1.242871132539516 -0.1452234383256064 0  -1.218686527932274 -0.2347175449890421 0  -1.176022041640194 -0.3307147072701628 0  -1.125857472970861 -0.4236834865774918 0  -1.0655222556658 -0.5059070246824315 0  -0.9907323991523443 -0.5873989576513011 0  -0.9044838045997295 -0.6668442999828819 0  -0.813965080595042 -0.737583058698333 0  -0.7191315879315506 -0.797829829021681 0  -0.6148930593311197 -0.8514541518829513 0  -0.4978315866567317 -0.9013067872128718 0  -0.385828427222707 -0.9410825372594424 0  -0.2718402174942854 -0.9669921740991456 0  -0.1416880115174315 -0.9877208390277536 0  -0.02740616472129401 -1.000065476028557 0  0.08429934669780323 -0.9927585489800298 0  0.2160945973968338 -0.9746509246799957 0  0.3398619901339751 -0.9539492351487578 0  0.4502487636017377 -0.9234046801344129 0  0.5632393227801081 -0.8788133958040522 0  0.6756954510219786 -0.8270950297398655 0  0.7750917570675431 -0.7712138848680491 0  0.8656549217550115 -0.7071960315556122 0  0.9508262392022437 -0.6316485616347501 0  1.030506784016745 -0.5478161087476258 0  1.102244957346995 -0.4640268669765749 0  1.159869017058126 -0.3752404857401826 0  1.203393373662144 -0.2844631077180063 0  1.236385643327011 -0.1888197869538461 0  1.258175562386635 -0.09210873834769839 0  -2.448503267318792 4.918011733847042 0  -2.448371772404409 -4.910380441169742 0  4.910299920143376 2.447813596434838 0  4.918437498933304 -2.449282890799129 0  2.446091330446893 -4.895592480033786 0  2.440527021500487 4.89935919262351 0  -4.910327179436864 -2.447840959753969 0  -4.910324503796438 2.447845232264618 0  -1.748455043870771 4.910853270380739 0  -1.744243661629318 -4.914300420679503 0  4.920445076550461 1.743996206262127 0  4.908952092132029 -1.747747085425791 0  -4.909247141686145 -1.747482198746063 0  -4.910071318178201 1.74722832606347 0  1.745723120793303 4.904697295900637 0  1.747128711703031 -4.892820712418 0  -1.148778317533793 4.908601354944712 0  -1.129640367121737 -4.91653512886037 0  -4.908913956799638 -1.147825586893418 0  -4.90873174764607 1.1476264634968 0  1.1437762763242 -4.91271026865792 0  1.148787412346289 4.908587173634642 0  4.90905326382179 1.14610005227433 0  4.91991856584606 -1.151894518104078 0  -0.5466354672297493 -4.909771547586583 0  -0.5464221801027475 4.918480404736187 0  -4.907605707718642 -0.5486516321329558 0  -4.907629701378493 0.5472101723397936 0  4.906921406537912 -0.5489695038858174 0  4.918620124022163 0.5457337883955991 0  0.5424145018708267 -4.896611150476334 0  0.5511485759252688 4.91529367637533 0  -4.911795205527703 -3.048213045157901 0  4.918373190955099 3.046234347368721 0  4.911302409861115 -3.048187746948001 0  -4.912643776388742 3.04530554394458 0  3.055235977457243 -4.917294788332609 0  -3.048561697373214 -4.91122397262766 0  3.052130588840044 4.913303507755268 0  -3.048008112527215 4.912114835936026 0  -4.906698577803441 -0.04990194392524927 0  0.04511766057894182 -4.911719495174415 0  0.04956423832797456 4.918767254987812 0  4.913778938792595 -0.05128490295664723 0  3.545568224868831 -4.918965538946243 0  -3.548844267307042 4.911860
[...]
<PointData  Vectors="f_7387"> 
<DataArray  type="Float64"  Name="f_7387"  NumberOfComponents="3" format="ascii">-0.0000000000000000e+00 -0.0000000000000000e+00 0.0000000000000000e+00  -0.0000000000000000e+00 -0.0000000000000000e+00 0.0000000000000000e+00  -0.0000000000000000e+00 -0.0000000000000000e+00 0.0000000000000000e+00  -0.0000000000000000e+00 -0.0000000000000000e+00 0.0000000000000000e+00  5.1034555422482658e-05 1.8322866551283673e-05 0.0000000000000000e+00  -0.0000000000000000e+00 -0.0000000000000000e+00 0.0000000000000000e+00  -0.0000000000000000e+00 -0.0000000000000000e+00 0.0000000000000000e+00  -0.0000000000000000e+00 -0.0000000000000000e+00 0.0000000000000000e+00  -0.0000000000000000e+00 -0.0000000000000000e+00 0.0000000000000000e+00  -0.0000000000000000e+00 -0.0000000000000000e+00 0.0000000000000000e+00  -0.0000000000000000e+00 -0.0000000000000000e+00 0.0000000000000000e+00  -0.0000000000000000e+00 -0.0000000000000000e+00 0.0000000000000000e+00  -0.0000000000000000e+00 -0.0000000000000000e+00 0.0000000000000000e+00  -0.0000000000000000e+00 -0.0000000000000000e+00 0.0000000000000000e+00  -0.0000000000000000e+00 -0.0000000000000000e+00 0.0000000000000000e+00  -0.0000000000000000e+00 -0.0000000000000000e+00 0.0000000000000000e+00  -0.0000000000000000e+00 -0.0000000000000000e+00 0.0000000000000000e+00  -0.0000000000000000e+00 -0.0000000000000000e+00 0.0000000000000000e+00  -0.0000000000000000e+00 -0.0000000000000000e+00 0.0000000000000000e+00  -0.0000000000000000e+00 -0.0000000000000000e+00 0.0000000000000000e+00  -0.0000000000000000e+00 -0.0000000000000000e+00 0.0000000000000000e+00  -0.0000000000000000e+00 -0.0000000000000000e+00 0.0000000000000000e+00  -0.0000000000000000e+00 -0.0000000000000000e+00 0.0000000000000000e+00  -0.0000000000000000e+00 -0.0000000000000000e+00 0.0000000000000000e+00  -0.0000000000000000e+00 -0.0000000000000000e+00 0.0000000000000000e+00  -0.0000000000000000e+00 -0.0000000000000000e+00 0.0000000000000000e+00  -0.0000000000000000e+00 -0.0000000000000000e+00 0.0000000000000000e+00  -0.0000000000000000e+00 -0.0000000000000000e+00 0.0000000000000000e+00  -0.0000000000000000e+00 -0.0000000000000000e+00 0.0000000000000000e+00  -0.0000000000000000e+00 -0.0000000000000000e+00 0.0000000000000000e+00  -0.0000000000000000e+00 -0.0000000000000000e+00 0.0000000000000000e+00  -0.0000000000000000e+00 -0.0000000000000000e+00 0.0000000000000000e+00  -0.0000000000000000e+00 -0.0000000000000000e+00 0.0000000000000000e+00  -0.0000000000000000e+00 -0.0000000000000000e+00 0.0000000000000000e+00  -0.0000000000000000e+00 -0.0000000000000000e+00 0.0000000000000000e+00  -0.0000000000000000e+00 -0.0000000000000000e+00 0.0000000000000000e+00  -0.0000000000000000e+00 -0.0000000000000000e+00 0.0000000000000000e+00  -0.0000000000000000e+00 -0.0000000000000000e+00 0.0000000000000000e+00  -0.0000000000000000e+00 -0.0000000000000000e+00 0.0000000000000000e+00  -0.0000000000000000e+00 -0.0000000000000000e+00 0.0000000000000000e+00  -0.0000000000000000e+00 -0.0000000000000000e+00 0.0000000000000000e+00  -0.0000000000000000e+00 -0.0000000000000000e+00 0.0000000000000000e+00  -0.0000000000000000e+00 -0.0000000000000000e+00 0.0000000000000000e+00  -0.0000000000000000e+00 -0.0000000000000000e+00 0.0000000000000000e+00  -0.0000000000000000e+00 -0.0000000000000000e+00 0.0000000000000000e+00  -0.0000000000000000e+00 -0.0000000000000000e+00 0.0000000000000000e+00  -0.0000000000000000e+00 -0.0000000000000000e+00 0.0000000000000000e+00  -0.0000000000000000e+00 -0.0000000000000000e+00 0.0000000000000000e+00  -0.0000000000000000e+00 -0.0000000000000000e+00 0.0000000000000000e+00  -0.0000000000000000e+00 -0.0000000000000000e+00 0.0000000000000000e+00  -0.0000000000000000e+00 -0.0000000000000000e+00 0.0000000000000000e+00  -0.0000000000000000e+00 -0.0000000000000000e+00 0.0000000000000000e+00  -0.0000000000000000e+00 -0.0000000000000000e+00 0.0000000000000000e+00  -0.0000000000000000e+00 -0.0000000000000000e+00 0.0000000000000000e+00  -0.0000000000000000e+00 -0.0000000000000000e+00 0.0000000000000000e+00  -0.0000000000000000e+00 -0.0000000000000000e+00 0.0000000000000000e+00  -0.0000000000000000e+00 -0.0000000000000000e+00 0.0000000000000000e+00  -0.0000000000000000e+00 -0.0000000000000000e+00 0.0000000000000000e+00  -0.0000000000000000e+00 -0.0000000000000000e+00 0.0000000000000000e+00  -0.0000000000000000e+00 -0.0000000000000000e+00 0.0000000000000000e+00  -0.0000000000000000e+00 -0.0000000000000000e+00 0.0000000000000000e+00  -0.0000000000000000e+00 -0.0000000000000000e+00 0.0000000000000000e+00  -0.0000000000000000e+00 -0.0000000000000000e+00 0.0000000000000000e+00  -0.0000000000000000e+00 -0.0000000000000000e+00 0.0000000000000000e+00  -0.0000000000000000e+00 -0.0000000000000000e+00 0.0000000000000000e+00  -0.0000000000000000e+00 -0.0000000000000000e+00 0.0000000000000000e+00  -0.0000000000000000e+00 -0.0000000000000000e+00 0.0000000000000000e+00  -0.0000000000000000e+00 -0.0000000000000000e+00 0.0000000000000000e+00  -0.0000000000000000e+00 -0.0000000000000000e+00 0.0000000000000000e+00  -0.0000000000000000e+00 -0.0000000000000000e+00 0.0000000000000000e+00  -0.0000000000000000e+00 -0.0000000000000000e+00 0.0000000000000000e+00  -0.0000000000000000e+00 -0.0000000000000000e+00 0.0000000000000000e+00  -0.0000000000000000e+00 -0.0000000000000000e+00 0.0000000000000000e+00  -0.0000000000000000e+00 -0.0000000000000000e+00 0.0000000000000000e+00  -0.0000000000000000e+00 -0.0000000000000000e+00 0.0000000000000000e+00  -0.0000000000000000e+00 -0.0000000000000000e+00 0.0000000000000000e+00  -0.0000000000000000e+00 -0.0000000000000000e+00 0.0000000000000000e+00  -0.0000000000000000e+00 -0.0000000000000000e+00 0.0000000000000000e+00  -0.0000000000000000e+00 -0.0000000000000000e+00 0.0000000000000000e+00  -0.0000000000000000e+00 -0.0000000000000000e+00 0.0000000000000000e+00  -0.0000000000000000e+00 -0.0000000000000000e+00 0.0000000000000000e+00  -0.0000000000000000e+00 -0.0000000000000000e+00 0.0000000000000000e+00  -0.0000000000000000e+00 -0.0000000000000000e+00 0.0000000000000000e+00  -0.0000000000000000e+00 -0.0000000000000000e+00 0.0000000000000000e+00  -0.0000000000000000e+00 -0.0000000000000000e+00 0.0000000000000000e+00  -0.0000000000000000e+00 -0.0000000000000000e+00 0.0000000000000000e+00  -0.0000000000000000e+00 -0.0000000000000000e+00 0.0000000000000000e+00  -0.0000000000000000e+00 -0.0000000000000000e+00 0.0000000000000000e+00  -0.0000000000000000e+00 -0.0000000000000000e+00 0.0000000000000000e+00  -0.0000000000000000e+00 -0.0000000000000000e+00 0.0000000000000000e+00  -0.0000000000000000e+00 -0.0000000000000000e+00 0.0000000000000000e+00  -0.0000000000000000e+00 -0.0000000000000000e+00 0.0000000000000000e+00  -0.0000000000000000e+00 -0.0000000000000000e+00 0.0000000000000000e+00  -0.0000000000000000e+00 -0.0000000000000000e+00 0.0000000000000000e+00  -0.0000000000000000e+00 -0.0000000000000000e+00 0.0000000000000000e+00  -0.0000000000000000e+00 -0.0000000000000000e+00 0.0000000000000000e+00  -0.0000000000000000e+00 -0.0000000000000000e+00 0.0000000000000000e+00  -0.0000000000000000e+00 -0.0000000000000000e+00 0.0000000000000000e+00  -0.0000000000000000e+00 -0.0000000000000000e+00 0.0000000000000000e+00  -0.0000000000000000e+00 -0.0000000000000000e+00 0.0000000000000000e+00  -0.0000000000000000e+00 -0.0000000000000000e+00 0.0000000000000000e+00  -0.0000000000000000e+00 -0.0000000000000000e+00 0.0000000000000000e+00  -0.0000000000000000e+00 -0.0000000000000000e+00 0.0000000000000000e+00  -0.0000000000000000e+00 -0.0000000000000000e+00 0.0000000000000000e+00  -0.0000000000000000e+00 -0.0000000000000000e+00 0.0000000000000000e+00  -0.0000000000000000e+00 -0.0000000000000000e+00 0.0000000000000000e+00  -0.0000000000000000e+00 -0.0000000000000000e+00 0.0000000000000000e+00  -0.0000000000000000e+00 -0.0000000000000000e+00 0.0000000000000000e+00  -0.0000000000000000e+00 -0.0000000000000000e+00 0.0000000000000000e+00  -0.0000000000000000e+00 -0.0000000000000000e+00 0.0000000000000000e+00  -0.0000000000000000e+00 -0.0000000000000000e+00 0.0000000000000000e+00  -0.0000000000000000e+00 -0.0000000000000000e+00 0.0000000000000000e+00  -0.0000000000000000e+00 -0.0000000000000000e+00 0.0000000000000000e+00  -0.0000000000000000e+00 -0.0000000000000000e+00 0.0000000000000000e+00  -0.0000000000000000e+00 -0.0000000000000000e+00 0.0000000000000000e+00  -0.0000000000000000e+00 -0.0000000000000000e+00 0.0000000000000000e+00  -0.0000000000000000e+00 -0.0000000000000000e+00 0.0000000000000000e+00  -0.0000000000000000e+00 -0.0000000000000000e+00 0.0000000000000000e+00  -0.0000000000000000e+00 -0.0000000000000000e+00 0.0000000000000000e+00  -0.0000000000000000e+00 -0.0000000000000000e+00 0.0000000000000000e+00  -0.0000000000000000e+00 -0.0000000000000000e+00 0.0000000000000000e+00  -0.0000000000000000e+00 -0.0000000000000000e+00 0.0000000000000000e+00  -0.0000000000000000e+00 -0.0000000000000000e+00 0.0000000000000000e+00  -0.0000000000000000e+00 -0.0000000000000000e+00 0.0000000000000000e+00  -0.0000000000000000e+00 -0.0000000000000000e+00 0.0000000000000000e+00  -0.0000000000000000e+00 -0.0000000000000000e+00 0.0000000000000000e+00  -0.0000000000000000e+00 -0.0000000000000000e+00 0.0000000000000000e+00  -0.0000000000000000e+00 -0.0000000000000000e+00 0.0000000000000000e+00  -0.0000000000000000e+00 -0.0000000000000000e+00 0.0000000000000000e+00  -0.0000000000000000e+00 -0.0000000000000000e+00 0.0000000000000000e+00  -0.0000000000000000e+00 -0.0000000000000000e+00 0.0000000000000000e+00  -0.0000000000000000e+00 -0.0000000000000000e+00 0.0000000000000000e+00  -0.0000000000000000e+00 -0.0000000000000000e+00 0.0000000000000000e+00  -0.0000000000000000e+00 -0.0000000000000000e+00 0.0000000000000000e+00  -0.0000000000000000e+00 -0.0000000000000000e+00 0.0000000000000000e+00  -0.0000000000000000e+00 -0.0000000000000000e+00 0.0000000000000000e+00  -0.0000000000000000e+00 -0.0000000000000000e+00 0.0000000000000000e+00  -0.0000000000000000e+00 -0.0000000000000000e+00 0.0000000000000000e+00  -0.0000000000000000e+00 -0.0000000000000000e+00 0.0000000000000000e+00  -0.0000000000000000e+00 -0.0000000000000000e+00 0.0000000000000000e+00  -0.0000000000000000e+00 -0.0000000000000000e+00 0.0000000000000000e+00  -0.0000000000000000e+00 -0.0000000000000000e+00 0.0000000000000000e+00  -0.0000000000000000e+00 -0.0000000000000000e+00 0.0000000000000000e+00  -0.0000000000000000e+00 -0.0000000000000000e+00 0.0000000000000000e+00  -0.0000000000000000e+00 -0.0000000000000000e+00 0.0000000000000000e+00  -0.0000000000000000e+00 -0.0000000000000000e+00 0.0000000000000000e+00  -0.0000000000000000e+00 -0.0000000000000000e+00 0.0000000000000000e+00  -0.0000000000000000e+00 -0.0000000000000000e+00 0.0000000000000000e+00  -0.0000000000000000e+00 -0.0000000000000000e+00 0.0000000000000000e+00  -0.0000000000000000e+00 -0.0000000000000000e+00 0.0000000000000000e+00  -0.0000000000000000e+00 -0.0000000000000000e+00 0.0000000000000000e+00  -0.0000000000000000e+00 -0.0000000000000000e+00 0.0000000000000000e+00  -0.0000000000000000e+00 -0.0000000000000000e+00 0.0000000000000000e+00  -0.0000000000000000e+00 -0.0000000000000000e+00 0.0000000000000000e+00  -0.0000000000000000e+00 -0.0000000000000000e+00 0.0000000000000000e+00  -0.0000000000000000e+00 -0.0000000000000000e+00 0.0000000000000000e+00  -0.0000000000000000e+00 -0.0000000000000000e+00 0.0000000000000000e+00  -0.0000000000000000e+00 -0.0000000000000000e+00 0.0000000000000000e+00  -0.0000000000000000e+00 -0.0000000000000000e+00 0.0000000000000000e+00  -0.0000000000000000e+00 -0.0000000000000000e+00 0.0000000000000000e+00  -0.0000000000000000e+00 -0.0000000000000000e+00 0.0000000000000000e+00  -0.0000000000000000e+00 -0.0000000000000000e+00 0.0000000000000000e+00  -0.0000000000000000e+00 -0.0000000000000000e+00 0.0000000000000000e+00  -0.0000000000000000e+00 -0.0000000000000000e+00 0.0000000000000000e+00  -0.0000000000000000e+00 -0.0000000000000000e+00 0.0000000000000000e+00  -0.0000000000000000e+00 -0.0000000000000000e+00 0.0000000000000000e+00  -0.0000000000000000e+00 -0.0000000000000000e+00 0.0000000000000000e+00  -0.0000000000000000e+00 -0.0000000000000000e+00 0.0000000000000000e+00  -0.0000000000000000e+00 -0.0000000000000000e+00 0.0000000000000000e+00  -0.0000000000000000e+00 -0.0000000000000000e+00 0.0000000000000000e+00  -0.0000000000000000e+00 -0.0000000000000000e+00 0.0000000000000000e+00  -0.0000000000000000e+00 -0.0000000000000000e+00 0.0000000000000000e+00  -0.0000000000000000e+00 -0.0000000000000000e+00 0.0000000000000000e+00  -0.0000000000000000e+00 -0.0000000000000000e+00 0.0000000000000000e+00  -0.0000000000000000e+00 -0.0000000000000000e+00 0.0000000000000000e+00  -0.0000000000000000e+00 -0.0000000000000000e+00 0.0000000000000000e+00  -0.0000000000000000e+00 -0.0000000000000000e+00 0.0000000000000000e+00  -0.0000000000000000e+00 -0.0000000000000000e+00 0.0000000000000000e+00  -0.0000000000000000e+00 -0.0000000000000000e+00 0.0000000000000000e+00  -0.0000000000000000e+00 -0.0000000000000000e+00 0.0000000000000000e+00  -0.0000000000000000e+00 -0.0000000000000000e+00 0.0000000000000000e+00  -0.0000000000000000e+00 -0.0000000000000000e+00 0.0000000000000000e+00  -0.0000000000000000e+00 -0.0000000000000000e+00 0.0000000000000000e+00  -0.0000000000000000e+00 -0.0000000000000000e+00 0.0000000000000000e+00  -0.0000000000000000e+00 -0.0000000000000000e+00 0.0000000000000000e+00  -0.0000000000000000e+00 -0.0000000000000000e+00 0.0000000000000000e+00  -0.0000000000000000e+00 -0.0000000000000000e+00 0.0000000000000000e+00  -0.0000000000000000e+00 -0.0000000000000000e+00 0.0000000000000000e+00  -0.0000000000000000e+00 -0.0000000000000000e+00 0.0000000000000000e+00  -0.0000000000000000e+00 -0.0000000000000000e+00 0.0000000000000000e+00  -0.0000000000000000e+00 -0.0000000000000000e+00 0.0000000000000000e+00  -0.0000000000000000e+00 -0.0000000000000000e+00 0.0000000000000000e+00  -0.0000000000000000e+00 -0.0000000000000000e+00 0.0000000000000000e+00  -0.0000000000000000e+00 -0.0000000000000000e+00 0.0000000000000000e+00  -0.0000000000000000e+00 -0.0000000000000000e+00 0.0000000000000000e+00  -0.0000000000000000e+00 -0.0000000000000000e+00 0.0000000000000000e+00  -0.0000000000000000e+00 -0.0000000000000000e+00 0.0000000000000000e+00  -0.0000000000000000e+00 -0.0000000000000000e+00 0.0000000000000000e+00  -0.0000000000000000e+00 -0.0000000000000000e+00 0.0000000000000000e+00  -0.0000000000000000e+00 -0.0000000000000000e+00 0.0000000000000000e+00  -0.0000000000000000e+00 -0.0000000000000000e+00 0.0000000000000000e+00  -0.0000000000000000e+00 -0.0000000000000000e+00 0.0000000000000000e+00  -0.0000000000000000e+00 -0.0000000000000000e+00 0.0000000000000000e+00  -0.0000000000000000e+00 -0.0000000000000000e+00 0.0000000000000000e+00  -0.0000000000000000e+00 -0.0000000000000000e+00 0.0000000000000000e+00  -0.0000000000000000e+00 -0.0000000000000000e+00 0.0000000000000000e+00  -0.0000000000000000e+00 -0.0000000000000000e+00 0.0000000000000000e+00  -0.0000000000000000e+00 -0.0000000000000000e+00 0.0000000000000000e+00  -0.0000000000000000e+00 -0.0000000000000000e+00 0.0000000000000000e+00  -0.0000000000000000e+00 -0.0000000000000000e+00 0.0000000000000000e+00  -0.0000000000000000e+00 -0.0000000000000000e+00 0.0000000000000000e+00  -0.0000000000000000e+00 -0.0000000000000000e+00 0.0000000000000000e+00  -0.0000000000000000e+00 -0.0000000000000000e+00 0.0000000000000000e+00  -0.0000000000000000e+00 -0.0000000000000000e+00 0.0000000000000000e+00  -0.0000000000000000e+00 -0.0000000000000000e+00 0.0000000000000000e+00  -0.0000000000000000e+00 -0.0000000000000000e+00 0.0000000000000000e+00  -0.0000000000000000e+00 -0.0000000000000000e+00 0.0000000000000000e+00  -0.0000000000000000e+00 -0.0000000000000000e+00 0.0000000000000000e+00  -0.0000000000000000e+00 -0.0000000000000000e+00 0.0000000000000000e+00  -0.0000000000000000e+00 -0.0000000000000000e+00 0.0000000000000000e+00  -0.0000000000000000e+00 -0.0000000000000000e+00 0.0000000000000000e+00  -0.0000000000000000e+00 -0.0000000000000000e+00 0.0000000000000000e+00  -0.0000000000000000e+00 -0.0000000000000000e+00 0.0000000000000000e+00  -0.0000000000000000e+00 -0.0000000000000000e+00 0.0000000000000000e+00  -0.0000000000000000e+00 -0.0000000000000000e+00 0.0000000000000000e+00  -0.0000000000000000e+00 -0.0000000000000000e+00 0.0000000000000000e+00  -0.0000000000000000e+00 -0.0000000000000000e+00 0.0000000000000000e+00  -0.0000000000000000e+00 -0.0000000000000000e+00 0.0000000000000000e+00  -0.0000000000000000e+00 -0.0000000000000000e+00 0.0000000000000000e+00  -0.0000000000000000e+00 -0.0000000000000000e+00 0.0000000000000000e+00  -0.0000000000000000e+00 -0.0000000000000000e+00 0.0000000000000000e+00  -0.0000000000000000e+00 -0.0000000000000000e+00 0.0000000000000000e+00  -0.0000000000000000e+00 -0.0000000000000000e+00 0.0000000000000000e+00  -0.0000000000000000e+00 -0.0000000000000000e+00 0.0000000000000000e+00  -0.0000000000000000e+00 -0.0000000000000000e+00 0.0000000000000000e+00  -0.0000000000000000e+00 -0.0000000000000000e+00 0.0000000000000000e+00  -0.0000000000000000e+00 -0.0000000000000000e+00 0.0000000000000000e+00  -0.0000000000000000e+00 -0.0000000000000000e+00 0.0000000000000000e+00  -0.0000000000000000e+00 -0.0000000000000000e+00 0.0000000000000000e+00  -0.0000000000000000e+00 -0.0000000000000000e+00 0.0000000000000000e+00  -0.0000000000000000e+00 -0.0000000000000000e+00 0.0000000000000000e+00  -0.0000000000000000e+00 -0.0000000000000000e+00 0.0000000000000000e+00  -0.0000000000000000e+00 -0.0000000000000000e+00 0.0000000000000000e+00  -0.0000000000000000e+00 -0.0000000000000000e+00 0.0000000000000000e+00  -0.0000000000000000e+00 -0.0000000000000000e+00 0.0000000000000000e+00  -0.0000000000000000e+00 -0.0000000000000000e+00 0.0000000000000000e+00  -0.0000000000000000e+00 -0.0000000000000000e+00 0.0000000000000000e+00  -0.0000000000000000e+00 -0.0000000000000000e+00 0.0000000000000000e+00  -0.0000000000000000e+00 -0.0000000000000000e+00 0.0000000000000000e+00  -0.0000000000000000e+00 -0.0000000000000000e+00 0.0000000000000000e+00  -0.0000000000000000e+00 -0.0000000000000000e+00 0.0000000000000000e+00  -0.0000000000000000e+00 -0.0000000000000000e+00 0.0000000000000000e+00  -0.0000000000000000e+00 -0.0000000000000000e+00 0.0000000000000000e+00  -0.0000000000000000e+00 -0.0000000000000000e+00 0.0000000000000000e+00  -0.0000000000000000e+00 -0.0000000000000000e+00 0.0000000000000000e+00  -0.0000000000000000e+00 -0.0000000000000000e+00 0.0000000000000000e+00  -0.0000000000000000e+00 -0.0000000000000000e+00 0.0000000000000000e+00  -0.0000000000000000e+00 -0.0000000000000000e+00 0.0000000000000000e+00  -0.0000000000000000e+00 -0.0000000000000000e+00 0.0000000000000000e+00  -0.0000000000000000e+00 -0.0000000000000000e+00 0.0000000000000000e+00  -0.0000000000000000e+00 -0.0000000000000000e+00 0.0000000000000000e+00  -0.0000000000000000e+00 -0.0000000000000000e+00 0.0000000000000000e+00  -0.0000000000000000e+00 -0.0000000000000000e+00 0.0000000000000000e+00  -0.0000000000000000e+00 -0.0000000000000000e+00 0.0000000000000000e+00  -0.0000000000000000e+00 -0.0000000000000000e+00 0.0000000000000000e+00  -0.0000000000000000e+00 -0.0000000000000000e+00 0.0000000000000000e+00  -0.0000000000000000e+00 -0.0000000000000000e+00 0.0000000000000000e+00  -0.0000000000000000e+00 -0.0000000000000000e+00 0.0000000000000000e+00  -0.0000000000000000e+00 -0.0000000000000000e+00 0.0000000000000000e+00  -0.0000000000000000e+00 -0.0000000000000000e+00 0.0000000000000000e+00  -0.0000000000000000e+00 -0.0000000000000000e+00 0.0000000000000000e+00  -0.0000000000000000e+00 -0.0000000000000000e+00 0.0000000000000000e+00  -0.0000000000000000e+00 -0.0000000000000000e+00 0.0000000000000000e+00  -0.0000000000000000e+00 -0.0000000000000000e+00 0.0000000000000000e+00  -0.0000000000000000e+00 -0.0000000000000000e+00 0.0000000000000000e+00  -0.0000000000000000e+00 -0.0000000000000000e+00 0.0000000000000000e+00  -0.000000000000000