<?xml version="1.0"?>
<VTKFile type="UnstructuredGrid"  version="0.1"  >
<UnstructuredGrid>
<Piece  NumberOfPoints="11902" NumberOfCells="23402">
<Points>
<DataArray  type="Float64"  NumberOfComponents="3"  format="ascii">-5 -5 0  5 -5 0  5 5 0  -5 5 0  1.197211427963226 0.001277235513226914 0  -4.9 -5 0  -4.8 -5 0  -4.7 -5 0  -4.6 -5 0  -4.5 -5 0  -4.4 -5 0  -4.3 -5 0  -4.2 -5 0  -4.1 -5 0  -4 -5 0  -3.9 -5 0  -3.8 -5 0  -3.7 -5 0  -3.6 -5 0  -3.5 -5 0  -3.4 -5 0  -3.3 -5 0  -3.2 -5 0  -3.1 -5 0  -3 -5 0  -2.9 -5 0  -2.8 -5 0  -2.7 -5 0  -2.6 -5 0  -2.5 -5 0  -2.4 -5 0  -2.3 -5 0  -2.2 -5 0  -2.1 -5 0  -2 -5 0  -1.9 -5 0  -1.8 -5 0  -1.7 -5 0  -1.6 -5 0  -1.5 -5 0  -1.4 -5 0  -1.3 -5 0  -1.2 -5 0  -1.1 -5 0  -1 -5 0  -0.9000000000000004 -5 0  -0.7999999999999998 -5 0  -0.7000000000000002 -5 0  -0.5999999999999996 -5 0  -0.5 -5 0  -0.4000000000000004 -5 0  -0.2999999999999998 -5 0  -0.2000000000000002 -5 0  -0.09999999999999964 -5 0  0 -5 0  0.09999999999999964 -5 0  0.2000000000000002 -5 0  0.2999999999999998 -5 0  0.4000000000000004 -5 0  0.5 -5 0  0.5999999999999996 -5 0  0.7000000000000002 -5 0  0.7999999999999998 -5 0  0.9000000000000004 -5 0  1 -5 0  1.1 -5 0  1.2 -5 0  1.3 -5 0  1.4 -5 0  1.5 -5 0  1.6 -5 0  1.7 -5 0  1.8 -5 0  1.9 -5 0  2 -5 0  2.1 -5 0  2.2 -5 0  2.3 -5 0  2.4 -5 0  2.5 -5 0  2.6 -5 0  2.7 -5 0  2.8 -5 0  2.9 -5 0  3 -5 0  3.1 -5 0  3.199999999999999 -5 0  3.300000000000001 -5 0  3.4 -5 0  3.5 -5 0  3.6 -5 0  3.699999999999999 -5 0  3.800000000000001 -5 0  3.9 -5 0  4 -5 0  4.1 -5 0  4.199999999999999 -5 0  4.300000000000001 -5 0  4.4 -5 0  4.5 -5 0  4.6 -5 0  4.699999999999999 -5 0  4.800000000000001 -5 0  4.9 -5 0  5 -4.9 0  5 -4.8 0  5 -4.7 0  5 -4.6 0  5 -4.5 0  5 -4.4 0  5 -4.3 0  5 -4.2 0  5 -4.1 0  5 -4 0  5 -3.9 0  5 -3.8 0  5 -3.7 0  5 -3.6 0  5 -3.5 0  5 -3.4 0  5 -3.3 0  5 -3.2 0  5 -3.1 0  5 -3 0  5 -2.9 0  5 -2.8 0  5 -2.7 0  5 -2.6 0  5 -2.5 0  5 -2.4 0  5 -2.3 0  5 -2.2 0  5 -2.1 0  5 -2 0  5 -1.9 0  5 -1.8 0  5 -1.7 0  5 -1.6 0  5 -1.5 0  5 -1.4 0  5 -1.3 0  5 -1.2 0  5 -1.1 0  5 -1 0  5 -0.9000000000000004 0  5 -0.7999999999999998 0  5 -0.7000000000000002 0  5 -0.5999999999999996 0  5 -0.5 0  5 -0.4000000000000004 0  5 -0.2999999999999998 0  5 -0.2000000000000002 0  5 -0.09999999999999964 0  5 0 0  5 0.09999999999999964 0  5 0.2000000000000002 0  5 0.2999999999999998 0  5 0.4000000000000004 0  5 0.5 0  5 0.5999999999999996 0  5 0.7000000000000002 0  5 0.7999999999999998 0  5 0.9000000000000004 0  5 1 0  5 1.1 0  5 1.2 0  5 1.3 0  5 1.4 0  5 1.5 0  5 1.6 0  5 1.7 0  5 1.8 0  5 1.9 0  5 2 0  5 2.1 0  5 2.2 0  5 2.3 0  5 2.4 0  5 2.5 0  5 2.6 0  5 2.7 0  5 2.8 0  5 2.9 0  5 3 0  5 3.1 0  5 3.199999999999999 0  5 3.300000000000001 0  5 3.4 0  5 3.5 0  5 3.6 0  5 3.699999999999999 0  5 3.800000000000001 0  5 3.9 0  5 4 0  5 4.1 0  5 4.199999999999999 0  5 4.300000000000001 0  5 4.4 0  5 4.5 0  5 4.6 0  5 4.699999999999999 0  5 4.800000000000001 0  5 4.9 0  4.9 5 0  4.8 5 0  4.7 5 0  4.6 5 0  4.5 5 0  4.4 5 0  4.3 5 0  4.2 5 0  4.1 5 0  4 5 0  3.9 5 0  3.8 5 0  3.7 5 0  3.6 5 0  3.5 5 0  3.4 5 0  3.3 5 0  3.2 5 0  3.1 5 0  3 5 0  2.9 5 0  2.8 5 0  2.7 5 0  2.6 5 0  2.5 5 0  2.4 5 0  2.3 5 0  2.2 5 0  2.1 5 0  2 5 0  1.9 5 0  1.8 5 0  1.7 5 0  1.6 5 0  1.5 5 0  1.4 5 0  1.3 5 0  1.2 5 0  1.1 5 0  1 5 0  0.9000000000000004 5 0  0.7999999999999998 5 0  0.7000000000000002 5 0  0.5999999999999996 5 0  0.5 5 0  0.4000000000000004 5 0  0.2999999999999998 5 0  0.2000000000000002 5 0  0.09999999999999964 5 0  0 5 0  -0.09999999999999964 5 0  -0.2000000000000002 5 0  -0.2999999999999998 5 0  -0.4000000000000004 5 0  -0.5 5 0  -0.5999999999999996 5 0  -0.7000000000000002 5 0  -0.7999999999999998 5 0  -0.9000000000000004 5 0  -1 5 0  -1.1 5 0  -1.2 5 0  -1.3 5 0  -1.4 5 0  -1.5 5 0  -1.6 5 0  -1.7 5 0  -1.8 5 0  -1.9 5 0  -2 5 0  -2.1 5 0  -2.2 5 0  -2.3 5 0  -2.4 5 0  -2.5 5 0  -2.6 5 0  -2.7 5 0  -2.8 5 0  -2.9 5 0  -3 5 0  -3.1 5 0  -3.199999999999999 5 0  -3.300000000000001 5 0  -3.4 5 0  -3.5 5 0  -3.6 5 0  -3.699999999999999 5 0  -3.800000000000001 5 0  -3.9 5 0  -4 5 0  -4.1 5 0  -4.199999999999999 5 0  -4.300000000000001 5 0  -4.4 5 0  -4.5 5 0  -4.6 5 0  -4.699999999999999 5 0  -4.800000000000001 5 0  -4.9 5 0  -5 4.9 0  -5 4.8 0  -5 4.7 0  -5 4.6 0  -5 4.5 0  -5 4.4 0  -5 4.3 0  -5 4.2 0  -5 4.1 0  -5 4 0  -5 3.9 0  -5 3.8 0  -5 3.7 0  -5 3.6 0  -5 3.5 0  -5 3.4 0  -5 3.3 0  -5 3.2 0  -5 3.1 0  -5 3 0  -5 2.9 0  -5 2.8 0  -5 2.7 0  -5 2.6 0  -5 2.5 0  -5 2.4 0  -5 2.3 0  -5 2.2 0  -5 2.1 0  -5 2 0  -5 1.9 0  -5 1.8 0  -5 1.7 0  -5 1.6 0  -5 1.5 0  -5 1.4 0  -5 1.3 0  -5 1.2 0  -5 1.1 0  -5 1 0  -5 0.9000000000000004 0  -5 0.7999999999999998 0  -5 0.7000000000000002 0  -5 0.5999999999999996 0  -5 0.5 0  -5 0.4000000000000004 0  -5 0.2999999999999998 0  -5 0.2000000000000002 0  -5 0.09999999999999964 0  -5 0 0  -5 -0.09999999999999964 0  -5 -0.2000000000000002 0  -5 -0.2999999999999998 0  -5 -0.4000000000000004 0  -5 -0.5 0  -5 -0.5999999999999996 0  -5 -0.7000000000000002 0  -5 -0.7999999999999998 0  -5 -0.9000000000000004 0  -5 -1 0  -5 -1.1 0  -5 -1.2 0  -5 -1.3 0  -5 -1.4 0  -5 -1.5 0  -5 -1.6 0  -5 -1.7 0  -5 -1.8 0  -5 -1.9 0  -5 -2 0  -5 -2.1 0  -5 -2.2 0  -5 -2.3 0  -5 -2.4 0  -5 -2.5 0  -5 -2.6 0  -5 -2.7 0  -5 -2.8 0  -5 -2.9 0  -5 -3 0  -5 -3.1 0  -5 -3.199999999999999 0  -5 -3.300000000000001 0  -5 -3.4 0  -5 -3.5 0  -5 -3.6 0  -5 -3.699999999999999 0  -5 -3.800000000000001 0  -5 -3.9 0  -5 -4 0  -5 -4.1 0  -5 -4.199999999999999 0  -5 -4.300000000000001 0  -5 -4.4 0  -5 -4.5 0  -5 -4.6 0  -5 -4.699999999999999 0  -5 -4.800000000000001 0  -5 -4.9 0  1.191252969315409 0.09913703392926262 0  1.172559132749819 0.1973392874042279 0  1.141273666711512 0.2946060307848732 0  1.100784473592248 0.3861551920825379 0  1.048142930649958 0.4768378742926173 0  0.9861341453426818 0.5619588067565436 0  0.9132347889667148 0.6417275475225844 0  0.831059445711171 0.7145464375272255 0  0.7418479106534576 0.7802385830865444 0  0.6445012209334512 0.8387658671129684 0  0.5400500698368852 0.8895878538908399 0  0.431405721828501 0.9314863499808747 0  0.3204074712549516 0.9642986785409284 0  0.2038900322578934 0.9866994166763474 0  0.08843655738045574 1.001270625436163 0  -0.02770000193039553 1.004040538623792 0  -0.1440086319421875 0.9943309474419549 0  -0.2616029311229622 0.9766627431485334 0  -0.375924955466006 0.950472026300591 0  -0.4851540212818369 0.9139496808889762 0  -0.5896374183510236 0.8683781119272611 0  -0.6890372934444672 0.8136538177075412 0  -0.7813224360820317 0.7507474154646577 0  -0.867076925541432 0.6802353483644391 0  -0.9454946293265134 0.6021530381277528 0  -1.013571990746874 0.5197184711537767 0  -1.072162587685438 0.4327743195021722 0  -1.119466737692335 0.3406472733848226 0  -1.154935900399427 0.2465495419251126 0  -1.178785081600327 0.1499488318880328 0  -1.190874912585881 0.05078742111898203 0  -1.19087107532758 -0.04904139672548943 0  -1.17872400182527 -0.1478745288587526 0  -1.155775493408097 -0.2444746853906975 0  -1.118955524008984 -0.3402803058038994 0  -1.072524718370831 -0.4315612856298185 0  -1.014558270998448 -0.5188061554756463 0  -0.9470020810055764 -0.6007972809985819 0  -0.8688951547080966 -0.6777154228996964 0  -0.7827329709788835 -0.7472411134303717 0  -0.6891605446151168 -0.8085342678193314 0  -0.5898449479360817 -0.8628720675496366 0  -0.4824368246221503 -0.9096662174739779 0  -0.3726706428048833 -0.9476917802899848 0  -0.2587700786392184 -0.9753086011852162 0  -0.1426124471635725 -0.9934146815688034 0  -0.02728902861106011 -1.003169506234097 0  0.08905037328245807 -0.9987838804084161 0  0.2067498933529305 -0.9844272367257273 0  0.32200936961026 -0.9626322636636293 0  0.4347724424909838 -0.9300644354057185 0  0.5417070138318768 -0.8886265891780034 0  0.6452222080001325 -0.8383560451051388 0  0.7420205558309717 -0.7812085446317197 0  0.8311259053781553 -0.7152552697847362 0  0.9127369057066151 -0.6411682155373457 0  0.9847138278645143 -0.5612970232569451 0  1.048002495580657 -0.4762778052630646 0  1.101819487799095 -0.3862255469706914 0  1.142690012417752 -0.2931684024243928 0  1.172814765152311 -0.1965109920688516 0  1.19127382210305 -0.09867344974834276 0  -2.448790475850735 4.918534846152168 0  -2.448685124770027 -4.910951388939243 0  4.910886135789021 2.448220814927444 0  4.918969534431005 -2.449652758148995 0  2.446455640090591 -4.896262693383404 0  2.440879644380352 4.900007825986787 0  -4.910909526354196 -2.448243722910365 0  -4.91090781205763 2.44824755942664 0  -1.748752947738688 4.911609863132475 0  -1.74452940830763 -4.915027256675564 0  4.921185784859416 1.7443649888435 0  4.909797911883309 -1.748169201714863 0  -4.910084905187492 -1.747898561736375 0  -4.910902569021959 1.747639939353654 0  1.74604057008906 4.905510648017354 0  1.747483982276322 -4.8937335502982 0  -1.14901586140542 4.909520617361372 0  -1.129854747967554 -4.917376102854825 0  -4.90996304509791 -1.148168358653799 0  -4.909783849951828 1.147968466943654 0  1.14399931287457 -4.913590095059209 0  1.149023720406264 4.909509381612979 0  4.910109343471451 1.146445705391617 0  4.920846387789684 -1.152199614552874 0  -0.5467598541966812 -4.910772730173046 0  -0.5465336530882769 4.919387185247778 0  -4.908824869065976 -0.5488422970367743 0  -4.90884927989462 0.5473985504914707 0  4.908159106491932 -0.5491632467449958 0  4.919702822178476 0.5459023484499623 0  0.5425510619691756 -4.897761032712449 0  0.5512639213874759 4.916236825625871 0  -4.912188019139447 -3.048545821728126 0  4.918739260128781 3.046545713606819 0  4.91169910006005 -3.048525565445582 0  -4.913034329579909 3.045635354423168 0  3.055491519339256 -4.917676778270143 0  -3.048836678028387 -4.911632686271084 0  3.05239953584172 4.913705190577445 0  -3.048280983909591 4.912520051597297 0  -4.907981353688202 -0.04992104967812306 0  0.04512551950566249 -4.912728924179338 0  0.04957381815202459 4.91969827292943 0  4.91497356564636 -0.05130229817638356 0  3.545770194274368 -4.9192322882685 0  -3.54906383003043 4.912148
[...]
<PointData  Vectors="f_2291"> 
<DataArray  type="Float64"  Name="f_2291"  NumberOfComponents="3" format="ascii">-0.0000000000000000e+00 -0.0000000000000000e+00 0.0000000000000000e+00  -0.0000000000000000e+00 -0.0000000000000000e+00 0.0000000000000000e+00  -0.0000000000000000e+00 -0.0000000000000000e+00 0.0000000000000000e+00  -0.0000000000000000e+00 -0.0000000000000000e+00 0.0000000000000000e+00  5.0559227425327244e-02 2.2573398561087340e-04 0.0000000000000000e+00  -0.0000000000000000e+00 -0.0000000000000000e+00 0.0000000000000000e+00  -0.0000000000000000e+00 -0.0000000000000000e+00 0.0000000000000000e+00  -0.0000000000000000e+00 -0.0000000000000000e+00 0.0000000000000000e+00  -0.0000000000000000e+00 -0.0000000000000000e+00 0.0000000000000000e+00  -0.0000000000000000e+00 -0.0000000000000000e+00 0.0000000000000000e+00  -0.0000000000000000e+00 -0.0000000000000000e+00 0.0000000000000000e+00  -0.0000000000000000e+00 -0.0000000000000000e+00 0.0000000000000000e+00  -0.0000000000000000e+00 -0.0000000000000000e+00 0.0000000000000000e+00  -0.0000000000000000e+00 -0.0000000000000000e+00 0.0000000000000000e+00  -0.0000000000000000e+00 -0.0000000000000000e+00 0.0000000000000000e+00  -0.0000000000000000e+00 -0.0000000000000000e+00 0.0000000000000000e+00  -0.0000000000000000e+00 -0.0000000000000000e+00 0.0000000000000000e+00  -0.0000000000000000e+00 -0.0000000000000000e+00 0.0000000000000000e+00  -0.0000000000000000e+00 -0.0000000000000000e+00 0.0000000000000000e+00  -0.0000000000000000e+00 -0.0000000000000000e+00 0.0000000000000000e+00  -0.0000000000000000e+00 -0.0000000000000000e+00 0.0000000000000000e+00  -0.0000000000000000e+00 -0.0000000000000000e+00 0.0000000000000000e+00  -0.0000000000000000e+00 -0.0000000000000000e+00 0.0000000000000000e+00  -0.0000000000000000e+00 -0.0000000000000000e+00 0.0000000000000000e+00  -0.0000000000000000e+00 -0.0000000000000000e+00 0.0000000000000000e+00  -0.0000000000000000e+00 -0.0000000000000000e+00 0.0000000000000000e+00  -0.0000000000000000e+00 -0.0000000000000000e+00 0.0000000000000000e+00  -0.0000000000000000e+00 -0.0000000000000000e+00 0.0000000000000000e+00  -0.0000000000000000e+00 -0.0000000000000000e+00 0.0000000000000000e+00  -0.0000000000000000e+00 -0.0000000000000000e+00 0.0000000000000000e+00  -0.0000000000000000e+00 -0.0000000000000000e+00 0.0000000000000000e+00  -0.0000000000000000e+00 -0.0000000000000000e+00 0.0000000000000000e+00  -0.0000000000000000e+00 -0.0000000000000000e+00 0.0000000000000000e+00  -0.0000000000000000e+00 -0.0000000000000000e+00 0.0000000000000000e+00  -0.0000000000000000e+00 -0.0000000000000000e+00 0.0000000000000000e+00  -0.0000000000000000e+00 -0.0000000000000000e+00 0.0000000000000000e+00  -0.0000000000000000e+00 -0.0000000000000000e+00 0.0000000000000000e+00  -0.0000000000000000e+00 -0.0000000000000000e+00 0.0000000000000000e+00  -0.0000000000000000e+00 -0.0000000000000000e+00 0.0000000000000000e+00  -0.0000000000000000e+00 -0.0000000000000000e+00 0.0000000000000000e+00  -0.0000000000000000e+00 -0.0000000000000000e+00 0.0000000000000000e+00  -0.0000000000000000e+00 -0.0000000000000000e+00 0.0000000000000000e+00  -0.0000000000000000e+00 -0.0000000000000000e+00 0.0000000000000000e+00  -0.0000000000000000e+00 -0.0000000000000000e+00 0.0000000000000000e+00  -0.0000000000000000e+00 -0.0000000000000000e+00 0.0000000000000000e+00  -0.0000000000000000e+00 -0.0000000000000000e+00 0.0000000000000000e+00  -0.0000000000000000e+00 -0.0000000000000000e+00 0.0000000000000000e+00  -0.0000000000000000e+00 -0.0000000000000000e+00 0.0000000000000000e+00  -0.0000000000000000e+00 -0.0000000000000000e+00 0.0000000000000000e+00  -0.0000000000000000e+00 -0.0000000000000000e+00 0.0000000000000000e+00  -0.0000000000000000e+00 -0.0000000000000000e+00 0.0000000000000000e+00  -0.0000000000000000e+00 -0.0000000000000000e+00 0.0000000000000000e+00  -0.0000000000000000e+00 -0.0000000000000000e+00 0.0000000000000000e+00  -0.0000000000000000e+00 -0.0000000000000000e+00 0.0000000000000000e+00  -0.0000000000000000e+00 -0.0000000000000000e+00 0.0000000000000000e+00  -0.0000000000000000e+00 -0.0000000000000000e+00 0.0000000000000000e+00  -0.0000000000000000e+00 -0.0000000000000000e+00 0.0000000000000000e+00  -0.0000000000000000e+00 -0.0000000000000000e+00 0.0000000000000000e+00  -0.0000000000000000e+00 -0.0000000000000000e+00 0.0000000000000000e+00  -0.0000000000000000e+00 -0.0000000000000000e+00 0.0000000000000000e+00  -0.0000000000000000e+00 -0.0000000000000000e+00 0.0000000000000000e+00  -0.0000000000000000e+00 -0.0000000000000000e+00 0.0000000000000000e+00  -0.0000000000000000e+00 -0.0000000000000000e+00 0.0000000000000000e+00  -0.0000000000000000e+00 -0.0000000000000000e+00 0.0000000000000000e+00  -0.0000000000000000e+00 -0.0000000000000000e+00 0.0000000000000000e+00  -0.0000000000000000e+00 -0.0000000000000000e+00 0.0000000000000000e+00  -0.0000000000000000e+00 -0.0000000000000000e+00 0.0000000000000000e+00  -0.0000000000000000e+00 -0.0000000000000000e+00 0.0000000000000000e+00  -0.0000000000000000e+00 -0.0000000000000000e+00 0.0000000000000000e+00  -0.0000000000000000e+00 -0.0000000000000000e+00 0.0000000000000000e+00  -0.0000000000000000e+00 -0.0000000000000000e+00 0.0000000000000000e+00  -0.0000000000000000e+00 -0.0000000000000000e+00 0.0000000000000000e+00  -0.0000000000000000e+00 -0.0000000000000000e+00 0.0000000000000000e+00  -0.0000000000000000e+00 -0.0000000000000000e+00 0.0000000000000000e+00  -0.0000000000000000e+00 -0.0000000000000000e+00 0.0000000000000000e+00  -0.0000000000000000e+00 -0.0000000000000000e+00 0.0000000000000000e+00  -0.0000000000000000e+00 -0.0000000000000000e+00 0.0000000000000000e+00  -0.0000000000000000e+00 -0.0000000000000000e+00 0.0000000000000000e+00  -0.0000000000000000e+00 -0.0000000000000000e+00 0.0000000000000000e+00  -0.0000000000000000e+00 -0.0000000000000000e+00 0.0000000000000000e+00  -0.0000000000000000e+00 -0.0000000000000000e+00 0.0000000000000000e+00  -0.0000000000000000e+00 -0.0000000000000000e+00 0.0000000000000000e+00  -0.0000000000000000e+00 -0.0000000000000000e+00 0.0000000000000000e+00  -0.0000000000000000e+00 -0.0000000000000000e+00 0.0000000000000000e+00  -0.0000000000000000e+00 -0.0000000000000000e+00 0.0000000000000000e+00  -0.0000000000000000e+00 -0.0000000000000000e+00 0.0000000000000000e+00  -0.0000000000000000e+00 -0.0000000000000000e+00 0.0000000000000000e+00  -0.0000000000000000e+00 -0.0000000000000000e+00 0.0000000000000000e+00  -0.0000000000000000e+00 -0.0000000000000000e+00 0.0000000000000000e+00  -0.0000000000000000e+00 -0.0000000000000000e+00 0.0000000000000000e+00  -0.0000000000000000e+00 -0.0000000000000000e+00 0.0000000000000000e+00  -0.0000000000000000e+00 -0.0000000000000000e+00 0.0000000000000000e+00  -0.0000000000000000e+00 -0.0000000000000000e+00 0.0000000000000000e+00  -0.0000000000000000e+00 -0.0000000000000000e+00 0.0000000000000000e+00  -0.0000000000000000e+00 -0.0000000000000000e+00 0.0000000000000000e+00  -0.0000000000000000e+00 -0.0000000000000000e+00 0.0000000000000000e+00  -0.0000000000000000e+00 -0.0000000000000000e+00 0.0000000000000000e+00  -0.0000000000000000e+00 -0.0000000000000000e+00 0.0000000000000000e+00  -0.0000000000000000e+00 -0.0000000000000000e+00 0.0000000000000000e+00  -0.0000000000000000e+00 -0.0000000000000000e+00 0.0000000000000000e+00  -0.0000000000000000e+00 -0.0000000000000000e+00 0.0000000000000000e+00  -0.0000000000000000e+00 -0.0000000000000000e+00 0.0000000000000000e+00  -0.0000000000000000e+00 -0.0000000000000000e+00 0.0000000000000000e+00  -0.0000000000000000e+00 -0.0000000000000000e+00 0.0000000000000000e+00  -0.0000000000000000e+00 -0.0000000000000000e+00 0.0000000000000000e+00  -0.0000000000000000e+00 -0.0000000000000000e+00 0.0000000000000000e+00  -0.0000000000000000e+00 -0.0000000000000000e+00 0.0000000000000000e+00  -0.0000000000000000e+00 -0.0000000000000000e+00 0.0000000000000000e+00  -0.0000000000000000e+00 -0.0000000000000000e+00 0.0000000000000000e+00  -0.0000000000000000e+00 -0.0000000000000000e+00 0.0000000000000000e+00  -0.0000000000000000e+00 -0.0000000000000000e+00 0.0000000000000000e+00  -0.0000000000000000e+00 -0.0000000000000000e+00 0.0000000000000000e+00  -0.0000000000000000e+00 -0.0000000000000000e+00 0.0000000000000000e+00  -0.0000000000000000e+00 -0.0000000000000000e+00 0.0000000000000000e+00  -0.0000000000000000e+00 -0.0000000000000000e+00 0.0000000000000000e+00  -0.0000000000000000e+00 -0.0000000000000000e+00 0.0000000000000000e+00  -0.0000000000000000e+00 -0.0000000000000000e+00 0.0000000000000000e+00  -0.0000000000000000e+00 -0.0000000000000000e+00 0.0000000000000000e+00  -0.0000000000000000e+00 -0.0000000000000000e+00 0.0000000000000000e+00  -0.0000000000000000e+00 -0.0000000000000000e+00 0.0000000000000000e+00  -0.0000000000000000e+00 -0.0000000000000000e+00 0.0000000000000000e+00  -0.0000000000000000e+00 -0.0000000000000000e+00 0.0000000000000000e+00  -0.0000000000000000e+00 -0.0000000000000000e+00 0.0000000000000000e+00  -0.0000000000000000e+00 -0.0000000000000000e+00 0.0000000000000000e+00  -0.0000000000000000e+00 -0.0000000000000000e+00 0.0000000000000000e+00  -0.0000000000000000e+00 -0.0000000000000000e+00 0.0000000000000000e+00  -0.0000000000000000e+00 -0.0000000000000000e+00 0.0000000000000000e+00  -0.0000000000000000e+00 -0.0000000000000000e+00 0.0000000000000000e+00  -0.0000000000000000e+00 -0.0000000000000000e+00 0.0000000000000000e+00  -0.0000000000000000e+00 -0.0000000000000000e+00 0.0000000000000000e+00  -0.0000000000000000e+00 -0.0000000000000000e+00 0.0000000000000000e+00  -0.0000000000000000e+00 -0.0000000000000000e+00 0.0000000000000000e+00  -0.0000000000000000e+00 -0.0000000000000000e+00 0.0000000000000000e+00  -0.0000000000000000e+00 -0.0000000000000000e+00 0.0000000000000000e+00  -0.0000000000000000e+00 -0.0000000000000000e+00 0.0000000000000000e+00  -0.0000000000000000e+00 -0.0000000000000000e+00 0.0000000000000000e+00  -0.0000000000000000e+00 -0.0000000000000000e+00 0.0000000000000000e+00  -0.0000000000000000e+00 -0.0000000000000000e+00 0.0000000000000000e+00  -0.0000000000000000e+00 -0.0000000000000000e+00 0.0000000000000000e+00  -0.0000000000000000e+00 -0.0000000000000000e+00 0.0000000000000000e+00  -0.0000000000000000e+00 -0.0000000000000000e+00 0.0000000000000000e+00  -0.0000000000000000e+00 -0.0000000000000000e+00 0.0000000000000000e+00  -0.0000000000000000e+00 -0.0000000000000000e+00 0.0000000000000000e+00  -0.0000000000000000e+00 -0.0000000000000000e+00 0.0000000000000000e+00  -0.0000000000000000e+00 -0.0000000000000000e+00 0.0000000000000000e+00  -0.0000000000000000e+00 -0.0000000000000000e+00 0.0000000000000000e+00  -0.0000000000000000e+00 -0.0000000000000000e+00 0.0000000000000000e+00  -0.0000000000000000e+00 -0.0000000000000000e+00 0.0000000000000000e+00  -0.0000000000000000e+00 -0.0000000000000000e+00 0.0000000000000000e+00  -0.0000000000000000e+00 -0.0000000000000000e+00 0.0000000000000000e+00  -0.0000000000000000e+00 -0.0000000000000000e+00 0.0000000000000000e+00  -0.0000000000000000e+00 -0.0000000000000000e+00 0.0000000000000000e+00  -0.0000000000000000e+00 -0.0000000000000000e+00 0.0000000000000000e+00  -0.0000000000000000e+00 -0.0000000000000000e+00 0.0000000000000000e+00  -0.0000000000000000e+00 -0.0000000000000000e+00 0.0000000000000000e+00  -0.0000000000000000e+00 -0.0000000000000000e+00 0.0000000000000000e+00  -0.0000000000000000e+00 -0.0000000000000000e+00 0.0000000000000000e+00  -0.0000000000000000e+00 -0.0000000000000000e+00 0.0000000000000000e+00  -0.0000000000000000e+00 -0.0000000000000000e+00 0.0000000000000000e+00  -0.0000000000000000e+00 -0.0000000000000000e+00 0.0000000000000000e+00  -0.0000000000000000e+00 -0.0000000000000000e+00 0.0000000000000000e+00  -0.0000000000000000e+00 -0.0000000000000000e+00 0.0000000000000000e+00  -0.0000000000000000e+00 -0.0000000000000000e+00 0.0000000000000000e+00  -0.0000000000000000e+00 -0.0000000000000000e+00 0.0000000000000000e+00  -0.0000000000000000e+00 -0.0000000000000000e+00 0.0000000000000000e+00  -0.0000000000000000e+00 -0.0000000000000000e+00 0.0000000000000000e+00  -0.0000000000000000e+00 -0.0000000000000000e+00 0.0000000000000000e+00  -0.0000000000000000e+00 -0.0000000000000000e+00 0.0000000000000000e+00  -0.0000000000000000e+00 -0.0000000000000000e+00 0.0000000000000000e+00  -0.0000000000000000e+00 -0.0000000000000000e+00 0.0000000000000000e+00  -0.0000000000000000e+00 -0.0000000000000000e+00 0.0000000000000000e+00  -0.0000000000000000e+00 -0.0000000000000000e+00 0.0000000000000000e+00  -0.0000000000000000e+00 -0.0000000000000000e+00 0.0000000000000000e+00  -0.0000000000000000e+00 -0.0000000000000000e+00 0.0000000000000000e+00  -0.0000000000000000e+00 -0.0000000000000000e+00 0.0000000000000000e+00  -0.0000000000000000e+00 -0.0000000000000000e+00 0.0000000000000000e+00  -0.0000000000000000e+00 -0.0000000000000000e+00 0.0000000000000000e+00  -0.0000000000000000e+00 -0.0000000000000000e+00 0.0000000000000000e+00  -0.0000000000000000e+00 -0.0000000000000000e+00 0.0000000000000000e+00  -0.0000000000000000e+00 -0.0000000000000000e+00 0.0000000000000000e+00  -0.0000000000000000e+00 -0.0000000000000000e+00 0.0000000000000000e+00  -0.0000000000000000e+00 -0.0000000000000000e+00 0.0000000000000000e+00  -0.0000000000000000e+00 -0.0000000000000000e+00 0.0000000000000000e+00  -0.0000000000000000e+00 -0.0000000000000000e+00 0.0000000000000000e+00  -0.0000000000000000e+00 -0.0000000000000000e+00 0.0000000000000000e+00  -0.0000000000000000e+00 -0.0000000000000000e+00 0.0000000000000000e+00  -0.0000000000000000e+00 -0.0000000000000000e+00 0.0000000000000000e+00  -0.0000000000000000e+00 -0.0000000000000000e+00 0.0000000000000000e+00  -0.0000000000000000e+00 -0.0000000000000000e+00 0.0000000000000000e+00  -0.0000000000000000e+00 -0.0000000000000000e+00 0.0000000000000000e+00  -0.0000000000000000e+00 -0.0000000000000000e+00 0.0000000000000000e+00  -0.0000000000000000e+00 -0.0000000000000000e+00 0.0000000000000000e+00  -0.0000000000000000e+00 -0.0000000000000000e+00 0.0000000000000000e+00  -0.0000000000000000e+00 -0.0000000000000000e+00 0.0000000000000000e+00  -0.0000000000000000e+00 -0.0000000000000000e+00 0.0000000000000000e+00  -0.0000000000000000e+00 -0.0000000000000000e+00 0.0000000000000000e+00  -0.0000000000000000e+00 -0.0000000000000000e+00 0.0000000000000000e+00  -0.0000000000000000e+00 -0.0000000000000000e+00 0.0000000000000000e+00  -0.0000000000000000e+00 -0.0000000000000000e+00 0.0000000000000000e+00  -0.0000000000000000e+00 -0.0000000000000000e+00 0.0000000000000000e+00  -0.0000000000000000e+00 -0.0000000000000000e+00 0.0000000000000000e+00  -0.0000000000000000e+00 -0.0000000000000000e+00 0.0000000000000000e+00  -0.0000000000000000e+00 -0.0000000000000000e+00 0.0000000000000000e+00  -0.0000000000000000e+00 -0.0000000000000000e+00 0.0000000000000000e+00  -0.0000000000000000e+00 -0.0000000000000000e+00 0.0000000000000000e+00  -0.0000000000000000e+00 -0.0000000000000000e+00 0.0000000000000000e+00  -0.0000000000000000e+00 -0.0000000000000000e+00 0.0000000000000000e+00  -0.0000000000000000e+00 -0.0000000000000000e+00 0.0000000000000000e+00  -0.0000000000000000e+00 -0.0000000000000000e+00 0.0000000000000000e+00  -0.0000000000000000e+00 -0.0000000000000000e+00 0.0000000000000000e+00  -0.0000000000000000e+00 -0.0000000000000000e+00 0.0000000000000000e+00  -0.0000000000000000e+00 -0.0000000000000000e+00 0.0000000000000000e+00  -0.0000000000000000e+00 -0.0000000000000000e+00 0.0000000000000000e+00  -0.0000000000000000e+00 -0.0000000000000000e+00 0.0000000000000000e+00  -0.0000000000000000e+00 -0.0000000000000000e+00 0.0000000000000000e+00  -0.0000000000000000e+00 -0.0000000000000000e+00 0.0000000000000000e+00  -0.0000000000000000e+00 -0.0000000000000000e+00 0.0000000000000000e+00  -0.0000000000000000e+00 -0.0000000000000000e+00 0.0000000000000000e+00  -0.0000000000000000e+00 -0.0000000000000000e+00 0.0000000000000000e+00  -0.0000000000000000e+00 -0.0000000000000000e+00 0.0000000000000000e+00  -0.0000000000000000e+00 -0.0000000000000000e+00 0.0000000000000000e+00  -0.0000000000000000e+00 -0.0000000000000000e+00 0.0000000000000000e+00  -0.0000000000000000e+00 -0.0000000000000000e+00 0.0000000000000000e+00  -0.0000000000000000e+00 -0.0000000000000000e+00 0.0000000000000000e+00  -0.0000000000000000e+00 -0.0000000000000000e+00 0.0000000000000000e+00  -0.0000000000000000e+00 -0.0000000000000000e+00 0.0000000000000000e+00  -0.0000000000000000e+00 -0.0000000000000000e+00 0.0000000000000000e+00  -0.0000000000000000e+00 -0.0000000000000000e+00 0.0000000000000000e+00  -0.0000000000000000e+00 -0.0000000000000000e+00 0.0000000000000000e+00  -0.0000000000000000e+00 -0.0000000000000000e+00 0.0000000000000000e+00  -0.0000000000000000e+00 -0.0000000000000000e+00 0.0000000000000000e+00  -0.0000000000000000e+00 -0.0000000000000000e+00 0.0000000000000000e+00  -0.0000000000000000e+00 -0.0000000000000000e+00 0.0000000000000000e+00  -0.0000000000000000e+00 -0.0000000000000000e+00 0.0000000000000000e+00  -0.0000000000000000e+00 -0.0000000000000000e+00 0.0000000000000000e+00  -0.0000000000000000e+00 -0.0000000000000000e+00 0.0000000000000000e+00  -0.0000000000000000e+00 -0.0000000000000000e+00 0.0000000000000000e+00  -0.0000000000000000e+00 -0.0000000000000000e+00 0.0000000000000000e+00  -0.0000000000000000e+00 -0.0000000000000000e+00 0.0000000000000000e+00  -0.0000000000000000e+00 -0.0000000000000000e+00 0.0000000000000000e+00  -0.0000000000000000e+00 -0.0000000000000000e+00 0.0000000000000000e+00  -0.0000000000000000e+00 -0.0000000000000000e+00 0.0000000000000000e+00  -0.0000000000000000e+00 -0.0000000000000000e+00 0.0000000000000000e+00  -0.0000000000000000e+00 -0.0000000000000000e+00 0.0000000000000000e+00  -0.0000000000000000e+00 -0.0000000000000000e+00 0.0000000000000000e+00  -0.0000000000000000e+00 -0.0000000000000000e+00 0.0000000000000000e+00  -0.0000000000000000e+00 -0.0000000000000000e+00 0.0000000000000000e+00  -0.0000000000000000e+00 -0.0000000000000000e+00 0.0000000000000000e+00  -0.0000000000000000e+00 -0.0000000000000000e+00 0.0000000000000000e+00  -0.0000000000000000e+00 -0.0000000000000000e+00 0.0000000000000000e+00  -0.0000000000000000e+00 -0.0000000000000000e+00 0.0000000000000000e+00  -0.0000000000000000e+00 -0.0000000000000000e+00 0.0000000000000000e+00  -0.0000000000000000e+00 -0.0000000000000000e+00 0.0000000000000000e+00  -0.0000000000000000e+00 -0.0000000000000000e+00 0.0000000000000000e+00  -0.0000000000000000e+00 -0.0000000000000000e+00 0.0000000000000000e+00  -0.0000000000000000e+00 -0.0000000000000000e+00 0.0000000000000000e+00  -0.0000000000000000e+00 -0.0000000000000000e+00 0.0000000000000000e+00  -0.0000000000000000e+00 -0.0000000000000000e+00 0.0000000000000000e+00  -0.0000000000000000e+00 -0.0000000000000000e+00 0.0000000000000000e+00  -0.0000000000000000e+00 -0.0000000000000000e+00 0.0000000000000000e+00  -0.0000000000000000e+00 -0.0000000000000000e+00 0.0000000000000000e+00  -0.0000000000000000e+00 -0.0000000000000000e+00 0.0000000000000000e+00  -0.0000000000000000e+00 -0.0000000000000000e+00 0.0000000000000000e+00  -0.0000000000000000e+00 -0.0000000000000000e+00 0.0000000000000000e+00  -0.0000000000000000e+00 -0.0000000000000000e+00 0.0000000000000000e+00  -0.0000000000000000e+00 -0.0000000000000000e+00 0.0000000000000000e+00  -0.0000000000000000e+00 -0.0000000000000000e+00 0.0000000000000000e+00  -0.0000000000000000e+00 -0.0000000000000000e+00 0.0000000000000000e+00  -0.0000000000000000e+00 -0.0000000000000000e+00 0.0000000000000000e+00  -0.0000000000000000e+00 -0.0000000000000000e+00 0.0000000000000000e+00  -0.0000000000000000e+00 -0.0000000000000000e+00 0.0000000000000000e+00  -0.0000000000000000e+00 -0.0000000000000000e+00 0.0000000000000000e+00  -0.0000000000000000e+00 -0.0000000000000000e+00 0.0000000000000000e+00  -0.0000000000000000e+00 -0.0000000000000000e+00 0.0000000000000000e+00  -0.0000000000000000e+00 -0.0000000000000000e+00 0.0000000000000000e+00  -0.0000000000000000e+00 -0.0000000000000000e+00 0.0000000000000000e+00  -0.000000000000000