<?xml version="1.0"?>
<VTKFile type="UnstructuredGrid"  version="0.1"  >
<UnstructuredGrid>
<Piece  NumberOfPoints="11902" NumberOfCells="23402">
<Points>
<DataArray  type="Float64"  NumberOfComponents="3"  format="ascii">-5 -5 0  5 -5 0  5 5 0  -5 5 0  1.261126123029412 0.001323512349028628 0  -4.9 -5 0  -4.8 -5 0  -4.7 -5 0  -4.6 -5 0  -4.5 -5 0  -4.4 -5 0  -4.3 -5 0  -4.2 -5 0  -4.1 -5 0  -4 -5 0  -3.9 -5 0  -3.8 -5 0  -3.7 -5 0  -3.6 -5 0  -3.5 -5 0  -3.4 -5 0  -3.3 -5 0  -3.2 -5 0  -3.1 -5 0  -3 -5 0  -2.9 -5 0  -2.8 -5 0  -2.7 -5 0  -2.6 -5 0  -2.5 -5 0  -2.4 -5 0  -2.3 -5 0  -2.2 -5 0  -2.1 -5 0  -2 -5 0  -1.9 -5 0  -1.8 -5 0  -1.7 -5 0  -1.6 -5 0  -1.5 -5 0  -1.4 -5 0  -1.3 -5 0  -1.2 -5 0  -1.1 -5 0  -1 -5 0  -0.9000000000000004 -5 0  -0.7999999999999998 -5 0  -0.7000000000000002 -5 0  -0.5999999999999996 -5 0  -0.5 -5 0  -0.4000000000000004 -5 0  -0.2999999999999998 -5 0  -0.2000000000000002 -5 0  -0.09999999999999964 -5 0  0 -5 0  0.09999999999999964 -5 0  0.2000000000000002 -5 0  0.2999999999999998 -5 0  0.4000000000000004 -5 0  0.5 -5 0  0.5999999999999996 -5 0  0.7000000000000002 -5 0  0.7999999999999998 -5 0  0.9000000000000004 -5 0  1 -5 0  1.1 -5 0  1.2 -5 0  1.3 -5 0  1.4 -5 0  1.5 -5 0  1.6 -5 0  1.7 -5 0  1.8 -5 0  1.9 -5 0  2 -5 0  2.1 -5 0  2.2 -5 0  2.3 -5 0  2.4 -5 0  2.5 -5 0  2.6 -5 0  2.7 -5 0  2.8 -5 0  2.9 -5 0  3 -5 0  3.1 -5 0  3.199999999999999 -5 0  3.300000000000001 -5 0  3.4 -5 0  3.5 -5 0  3.6 -5 0  3.699999999999999 -5 0  3.800000000000001 -5 0  3.9 -5 0  4 -5 0  4.1 -5 0  4.199999999999999 -5 0  4.300000000000001 -5 0  4.4 -5 0  4.5 -5 0  4.6 -5 0  4.699999999999999 -5 0  4.800000000000001 -5 0  4.9 -5 0  5 -4.9 0  5 -4.8 0  5 -4.7 0  5 -4.6 0  5 -4.5 0  5 -4.4 0  5 -4.3 0  5 -4.2 0  5 -4.1 0  5 -4 0  5 -3.9 0  5 -3.8 0  5 -3.7 0  5 -3.6 0  5 -3.5 0  5 -3.4 0  5 -3.3 0  5 -3.2 0  5 -3.1 0  5 -3 0  5 -2.9 0  5 -2.8 0  5 -2.7 0  5 -2.6 0  5 -2.5 0  5 -2.4 0  5 -2.3 0  5 -2.2 0  5 -2.1 0  5 -2 0  5 -1.9 0  5 -1.8 0  5 -1.7 0  5 -1.6 0  5 -1.5 0  5 -1.4 0  5 -1.3 0  5 -1.2 0  5 -1.1 0  5 -1 0  5 -0.9000000000000004 0  5 -0.7999999999999998 0  5 -0.7000000000000002 0  5 -0.5999999999999996 0  5 -0.5 0  5 -0.4000000000000004 0  5 -0.2999999999999998 0  5 -0.2000000000000002 0  5 -0.09999999999999964 0  5 0 0  5 0.09999999999999964 0  5 0.2000000000000002 0  5 0.2999999999999998 0  5 0.4000000000000004 0  5 0.5 0  5 0.5999999999999996 0  5 0.7000000000000002 0  5 0.7999999999999998 0  5 0.9000000000000004 0  5 1 0  5 1.1 0  5 1.2 0  5 1.3 0  5 1.4 0  5 1.5 0  5 1.6 0  5 1.7 0  5 1.8 0  5 1.9 0  5 2 0  5 2.1 0  5 2.2 0  5 2.3 0  5 2.4 0  5 2.5 0  5 2.6 0  5 2.7 0  5 2.8 0  5 2.9 0  5 3 0  5 3.1 0  5 3.199999999999999 0  5 3.300000000000001 0  5 3.4 0  5 3.5 0  5 3.6 0  5 3.699999999999999 0  5 3.800000000000001 0  5 3.9 0  5 4 0  5 4.1 0  5 4.199999999999999 0  5 4.300000000000001 0  5 4.4 0  5 4.5 0  5 4.6 0  5 4.699999999999999 0  5 4.800000000000001 0  5 4.9 0  4.9 5 0  4.8 5 0  4.7 5 0  4.6 5 0  4.5 5 0  4.4 5 0  4.3 5 0  4.2 5 0  4.1 5 0  4 5 0  3.9 5 0  3.8 5 0  3.7 5 0  3.6 5 0  3.5 5 0  3.4 5 0  3.3 5 0  3.2 5 0  3.1 5 0  3 5 0  2.9 5 0  2.8 5 0  2.7 5 0  2.6 5 0  2.5 5 0  2.4 5 0  2.3 5 0  2.2 5 0  2.1 5 0  2 5 0  1.9 5 0  1.8 5 0  1.7 5 0  1.6 5 0  1.5 5 0  1.4 5 0  1.3 5 0  1.2 5 0  1.1 5 0  1 5 0  0.9000000000000004 5 0  0.7999999999999998 5 0  0.7000000000000002 5 0  0.5999999999999996 5 0  0.5 5 0  0.4000000000000004 5 0  0.2999999999999998 5 0  0.2000000000000002 5 0  0.09999999999999964 5 0  0 5 0  -0.09999999999999964 5 0  -0.2000000000000002 5 0  -0.2999999999999998 5 0  -0.4000000000000004 5 0  -0.5 5 0  -0.5999999999999996 5 0  -0.7000000000000002 5 0  -0.7999999999999998 5 0  -0.9000000000000004 5 0  -1 5 0  -1.1 5 0  -1.2 5 0  -1.3 5 0  -1.4 5 0  -1.5 5 0  -1.6 5 0  -1.7 5 0  -1.8 5 0  -1.9 5 0  -2 5 0  -2.1 5 0  -2.2 5 0  -2.3 5 0  -2.4 5 0  -2.5 5 0  -2.6 5 0  -2.7 5 0  -2.8 5 0  -2.9 5 0  -3 5 0  -3.1 5 0  -3.199999999999999 5 0  -3.300000000000001 5 0  -3.4 5 0  -3.5 5 0  -3.6 5 0  -3.699999999999999 5 0  -3.800000000000001 5 0  -3.9 5 0  -4 5 0  -4.1 5 0  -4.199999999999999 5 0  -4.300000000000001 5 0  -4.4 5 0  -4.5 5 0  -4.6 5 0  -4.699999999999999 5 0  -4.800000000000001 5 0  -4.9 5 0  -5 4.9 0  -5 4.8 0  -5 4.7 0  -5 4.6 0  -5 4.5 0  -5 4.4 0  -5 4.3 0  -5 4.2 0  -5 4.1 0  -5 4 0  -5 3.9 0  -5 3.8 0  -5 3.7 0  -5 3.6 0  -5 3.5 0  -5 3.4 0  -5 3.3 0  -5 3.2 0  -5 3.1 0  -5 3 0  -5 2.9 0  -5 2.8 0  -5 2.7 0  -5 2.6 0  -5 2.5 0  -5 2.4 0  -5 2.3 0  -5 2.2 0  -5 2.1 0  -5 2 0  -5 1.9 0  -5 1.8 0  -5 1.7 0  -5 1.6 0  -5 1.5 0  -5 1.4 0  -5 1.3 0  -5 1.2 0  -5 1.1 0  -5 1 0  -5 0.9000000000000004 0  -5 0.7999999999999998 0  -5 0.7000000000000002 0  -5 0.5999999999999996 0  -5 0.5 0  -5 0.4000000000000004 0  -5 0.2999999999999998 0  -5 0.2000000000000002 0  -5 0.09999999999999964 0  -5 0 0  -5 -0.09999999999999964 0  -5 -0.2000000000000002 0  -5 -0.2999999999999998 0  -5 -0.4000000000000004 0  -5 -0.5 0  -5 -0.5999999999999996 0  -5 -0.7000000000000002 0  -5 -0.7999999999999998 0  -5 -0.9000000000000004 0  -5 -1 0  -5 -1.1 0  -5 -1.2 0  -5 -1.3 0  -5 -1.4 0  -5 -1.5 0  -5 -1.6 0  -5 -1.7 0  -5 -1.8 0  -5 -1.9 0  -5 -2 0  -5 -2.1 0  -5 -2.2 0  -5 -2.3 0  -5 -2.4 0  -5 -2.5 0  -5 -2.6 0  -5 -2.7 0  -5 -2.8 0  -5 -2.9 0  -5 -3 0  -5 -3.1 0  -5 -3.199999999999999 0  -5 -3.300000000000001 0  -5 -3.4 0  -5 -3.5 0  -5 -3.6 0  -5 -3.699999999999999 0  -5 -3.800000000000001 0  -5 -3.9 0  -5 -4 0  -5 -4.1 0  -5 -4.199999999999999 0  -5 -4.300000000000001 0  -5 -4.4 0  -5 -4.5 0  -5 -4.6 0  -5 -4.699999999999999 0  -5 -4.800000000000001 0  -5 -4.9 0  1.252934333067434 0.09436468589033216 0  1.231056807380363 0.1920502904601975 0  1.197568067789126 0.2885768498993384 0  1.154733174776619 0.3771007664364522 0  1.096568456537401 0.4680051721661929 0  1.030576020693378 0.5520853557900666 0  0.9520766590643253 0.6322129236575882 0  0.8650669346180579 0.7069952367769972 0  0.7732449145836455 0.7724158759536602 0  0.6709153473458127 0.8297979862570403 0  0.5586010408917749 0.8820476947817255 0  0.445814761933677 0.9266848043904571 0  0.3337798644113968 0.958714985055601 0  0.2087510485892499 0.980453668259576 0  0.08862313829563588 0.9993776542902946 0  -0.02688466890783427 1.002736441470251 0  -0.1445631495328478 0.9889393371729818 0  -0.272537270878873 0.9697466315020015 0  -0.3920278997028512 0.9455935090118622 0  -0.5024425080532856 0.9097926799790839 0  -0.6120096767469786 0.8633162851575705 0  -0.7141362358251108 0.8085469635316443 0  -0.8088119642858516 0.743709383856719 0  -0.9000597991074512 0.6700654884766218 0  -0.9859633796636913 0.5901568844443957 0  -1.060508345146828 0.5089503331267293 0  -1.122387350328278 0.423853940996505 0  -1.176176564532628 0.3312210759804181 0  -1.214028652598134 0.2426767528266626 0  -1.23849006332172 0.1486011393325156 0  -1.249304116676221 0.05187145707517897 0  -1.249262520003767 -0.0496770289383329 0  -1.238469570081791 -0.1456581304291019 0  -1.213650192173372 -0.2376797783238464 0  -1.171986077792131 -0.3325272667990644 0  -1.122733267418147 -0.4244737988825177 0  -1.062301172349958 -0.5088226626343332 0  -0.9884401609046903 -0.5891523998611042 0  -0.9031693510412073 -0.6679781672463548 0  -0.8125198632131811 -0.7396379696910539 0  -0.7166890872256401 -0.8006201470891486 0  -0.6119435347694149 -0.8537535616514299 0  -0.4975656599871776 -0.9033350919659732 0  -0.3847662179701887 -0.9432139234577036 0  -0.2692105258611903 -0.9695035309097982 0  -0.1430049464232601 -0.9888413390280103 0  -0.02780427166602911 -1.001960400284798 0  0.08773341543033616 -0.9946243066655851 0  0.214527036520516 -0.9768787911335405 0  0.3364608008911131 -0.9570799516759536 0  0.4499788347031798 -0.9253630140671533 0  0.5610748549202508 -0.8812839791374246 0  0.6719652462947913 -0.8298034370256742 0  0.7731833952458542 -0.7735301549438939 0  0.8650021019801152 -0.7081441711697729 0  0.9508877909704037 -0.6324556096507774 0  1.027990094651551 -0.5509820693769333 0  1.097545453385918 -0.4668257826829075 0  1.155537311086526 -0.3775095581174499 0  1.19931075392883 -0.2866360048120995 0  1.2317546045364 -0.1912282049762655 0  1.253319038954047 -0.09417849533175096 0  -2.448544145552354 4.918083045304625 0  -2.448416694553063 -4.910458477511376 0  4.910381828082413 2.447868304561182 0  4.918511830690933 -2.449332316637558 0  2.446143376932409 -4.895683868206892 0  2.440577565021946 4.899447906841583 0  -4.910409055948368 -2.447894936877938 0  -4.910406319765467 2.447898943684635 0  -1.748497534374377 4.910957089251779 0  -1.744284850270762 -4.91440036678255 0  4.920548127102409 1.744045619096728 0  4.909069777626636 -1.747803279085471 0  -4.909364473223413 -1.747537806185493 0  -4.91018753777722 1.747283067814363 0  1.745769078787588 4.904809171172952 0  1.747179830418722 -4.892945984158957 0  -1.148812119876288 4.90872815670469 0  -1.129671381813134 -4.916651316743261 0  -4.909060438742186 -1.147871262031192 0  -4.90887848265234 1.147671808290496 0  1.143808567755098 -4.912831637153067 0  1.148822023107563 4.908714582078229 0  4.909199734000043 1.146146311360055 0  4.920047261028285 -1.151934993741293 0  -0.5466534699029971 -4.909910278625484 0  -0.5464377650126592 4.91860596068447 0  -4.907775564520991 -0.5486770367975485 0  -4.907799521732595 0.5472350616874233 0  4.907092720722457 -0.5489950630491249 0  4.918769974621126 0.545756404472389 0  0.542434399255675 -4.896770372295498 0  0.5511658663449259 4.915424364038199 0  -4.911850600627027 -3.04825777078575 0  4.918424518616362 3.046276277635069 0  4.911358015915778 -3.048233022834383 0  -4.912698689084411 3.045349708702537 0  3.05527228554702 -4.917346615092127 0  -3.048600941344879 -4.911279570791447 0  3.05216887899203 4.913358196408562 0  -3.048046835342687 4.912169796917279 0  -4.906877145318401 -0.04990458010366299 0  0.04511887632610743 -4.911859464928129 0  0.04956622846480994 4.91889635786721 0  4.913944178879702 -0.05128701274629315 0  3.545596818983193 -4.919001611998 0  -3.548875350936734 4.9118
[...]
<PointData  Scalars="f_27"> 
<DataArray  type="Float64"  Name="f_27"  format="ascii">0.0000000000000000e+00  0.0000000000000000e+00  0.0000000000000000e+00  0.0000000000000000e+00  9.7779945384748046e-01  0.0000000000000000e+00  0.0000000000000000e+00  0.0000000000000000e+00  0.0000000000000000e+00  0.0000000000000000e+00  0.0000000000000000e+00  0.0000000000000000e+00  0.0000000000000000e+00  0.0000000000000000e+00  0.0000000000000000e+00  0.0000000000000000e+00  0.0000000000000000e+00  0.0000000000000000e+00  0.0000000000000000e+00  0.0000000000000000e+00  0.0000000000000000e+00  0.0000000000000000e+00  0.0000000000000000e+00  0.0000000000000000e+00  0.0000000000000000e+00  0.0000000000000000e+00  0.0000000000000000e+00  0.0000000000000000e+00  0.0000000000000000e+00  0.0000000000000000e+00  0.0000000000000000e+00  0.0000000000000000e+00  0.0000000000000000e+00  0.0000000000000000e+00  0.0000000000000000e+00  0.0000000000000000e+00  0.0000000000000000e+00  0.0000000000000000e+00  0.0000000000000000e+00  0.0000000000000000e+00  0.0000000000000000e+00  0.0000000000000000e+00  0.0000000000000000e+00  0.0000000000000000e+00  0.0000000000000000e+00  0.0000000000000000e+00  0.0000000000000000e+00  0.0000000000000000e+00  0.0000000000000000e+00  0.0000000000000000e+00  0.0000000000000000e+00  0.0000000000000000e+00  0.0000000000000000e+00  0.0000000000000000e+00  0.0000000000000000e+00  0.0000000000000000e+00  0.0000000000000000e+00  0.0000000000000000e+00  0.0000000000000000e+00  0.0000000000000000e+00  0.0000000000000000e+00  0.0000000000000000e+00  0.0000000000000000e+00  0.0000000000000000e+00  0.0000000000000000e+00  0.0000000000000000e+00  0.0000000000000000e+00  0.0000000000000000e+00  0.0000000000000000e+00  0.0000000000000000e+00  0.0000000000000000e+00  0.0000000000000000e+00  0.0000000000000000e+00  0.0000000000000000e+00  0.0000000000000000e+00  0.0000000000000000e+00  0.0000000000000000e+00  0.0000000000000000e+00  0.0000000000000000e+00  0.0000000000000000e+00  0.0000000000000000e+00  0.0000000000000000e+00  0.0000000000000000e+00  0.0000000000000000e+00  0.0000000000000000e+00  0.0000000000000000e+00  0.0000000000000000e+00  0.0000000000000000e+00  0.0000000000000000e+00  0.0000000000000000e+00  0.0000000000000000e+00  0.0000000000000000e+00  0.0000000000000000e+00  0.0000000000000000e+00  0.0000000000000000e+00  0.0000000000000000e+00  0.0000000000000000e+00  0.0000000000000000e+00  0.0000000000000000e+00  0.0000000000000000e+00  0.0000000000000000e+00  0.0000000000000000e+00  0.0000000000000000e+00  0.0000000000000000e+00  0.0000000000000000e+00  0.0000000000000000e+00  0.0000000000000000e+00  0.0000000000000000e+00  0.0000000000000000e+00  0.0000000000000000e+00  0.0000000000000000e+00  0.0000000000000000e+00  0.0000000000000000e+00  0.0000000000000000e+00  0.0000000000000000e+00  0.0000000000000000e+00  0.0000000000000000e+00  0.0000000000000000e+00  0.0000000000000000e+00  0.0000000000000000e+00  0.0000000000000000e+00  0.0000000000000000e+00  0.0000000000000000e+00  0.0000000000000000e+00  0.0000000000000000e+00  0.0000000000000000e+00  0.0000000000000000e+00  0.0000000000000000e+00  0.0000000000000000e+00  0.0000000000000000e+00  0.0000000000000000e+00  0.0000000000000000e+00  0.0000000000000000e+00  0.0000000000000000e+00  0.0000000000000000e+00  0.0000000000000000e+00  0.0000000000000000e+00  0.0000000000000000e+00  0.0000000000000000e+00  0.0000000000000000e+00  0.0000000000000000e+00  0.0000000000000000e+00  0.0000000000000000e+00  0.0000000000000000e+00  0.0000000000000000e+00  0.0000000000000000e+00  0.0000000000000000e+00  0.0000000000000000e+00  0.0000000000000000e+00  0.0000000000000000e+00  0.0000000000000000e+00  0.0000000000000000e+00  0.0000000000000000e+00  0.0000000000000000e+00  0.0000000000000000e+00  0.0000000000000000e+00  0.0000000000000000e+00  0.0000000000000000e+00  0.0000000000000000e+00  0.0000000000000000e+00  0.0000000000000000e+00  0.0000000000000000e+00  0.0000000000000000e+00  0.0000000000000000e+00  0.0000000000000000e+00  0.0000000000000000e+00  0.0000000000000000e+00  0.0000000000000000e+00  0.0000000000000000e+00  0.0000000000000000e+00  0.0000000000000000e+00  0.0000000000000000e+00  0.0000000000000000e+00  0.0000000000000000e+00  0.0000000000000000e+00  0.0000000000000000e+00  0.0000000000000000e+00  0.0000000000000000e+00  0.0000000000000000e+00  0.0000000000000000e+00  0.0000000000000000e+00  0.0000000000000000e+00  0.0000000000000000e+00  0.0000000000000000e+00  0.0000000000000000e+00  0.0000000000000000e+00  0.0000000000000000e+00  0.0000000000000000e+00  0.0000000000000000e+00  0.0000000000000000e+00  0.0000000000000000e+00  0.0000000000000000e+00  0.0000000000000000e+00  0.0000000000000000e+00  0.0000000000000000e+00  0.0000000000000000e+00  0.0000000000000000e+00  0.0000000000000000e+00  0.0000000000000000e+00  0.0000000000000000e+00  0.0000000000000000e+00  0.0000000000000000e+00  0.0000000000000000e+00  0.0000000000000000e+00  0.0000000000000000e+00  0.0000000000000000e+00  0.0000000000000000e+00  0.0000000000000000e+00  0.0000000000000000e+00  0.0000000000000000e+00  0.0000000000000000e+00  0.0000000000000000e+00  0.0000000000000000e+00  0.0000000000000000e+00  0.0000000000000000e+00  0.0000000000000000e+00  0.0000000000000000e+00  0.0000000000000000e+00  0.0000000000000000e+00  0.0000000000000000e+00  0.0000000000000000e+00  0.0000000000000000e+00  0.0000000000000000e+00  0.0000000000000000e+00  0.0000000000000000e+00  0.0000000000000000e+00  0.0000000000000000e+00  0.0000000000000000e+00  0.0000000000000000e+00  0.0000000000000000e+00  0.0000000000000000e+00  0.0000000000000000e+00  0.0000000000000000e+00  0.0000000000000000e+00  0.0000000000000000e+00  0.0000000000000000e+00  0.0000000000000000e+00  0.0000000000000000e+00  0.0000000000000000e+00  0.0000000000000000e+00  0.0000000000000000e+00  0.0000000000000000e+00  0.0000000000000000e+00  0.0000000000000000e+00  0.0000000000000000e+00  0.0000000000000000e+00  0.0000000000000000e+00  0.0000000000000000e+00  0.0000000000000000e+00  0.0000000000000000e+00  0.0000000000000000e+00  0.0000000000000000e+00  0.0000000000000000e+00  0.0000000000000000e+00  0.0000000000000000e+00  0.0000000000000000e+00  0.0000000000000000e+00  0.0000000000000000e+00  0.0000000000000000e+00  0.0000000000000000e+00  0.0000000000000000e+00  0.0000000000000000e+00  0.0000000000000000e+00  0.0000000000000000e+00  0.0000000000000000e+00  0.0000000000000000e+00  0.0000000000000000e+00  0.0000000000000000e+00  0.0000000000000000e+00  0.0000000000000000e+00  0.0000000000000000e+00  0.0000000000000000e+00  0.0000000000000000e+00  0.0000000000000000e+00  0.0000000000000000e+00  0.0000000000000000e+00  0.0000000000000000e+00  0.0000000000000000e+00  0.0000000000000000e+00  0.0000000000000000e+00  0.0000000000000000e+00  0.0000000000000000e+00  0.0000000000000000e+00  0.0000000000000000e+00  0.0000000000000000e+00  0.0000000000000000e+00  0.0000000000000000e+00  0.0000000000000000e+00  0.0000000000000000e+00  0.0000000000000000e+00  0.0000000000000000e+00  0.0000000000000000e+00  0.0000000000000000e+00  0.0000000000000000e+00  0.0000000000000000e+00  0.0000000000000000e+00  0.0000000000000000e+00  0.0000000000000000e+00  0.0000000000000000e+00  0.0000000000000000e+00  0.0000000000000000e+00  0.0000000000000000e+00  0.0000000000000000e+00  0.0000000000000000e+00  0.0000000000000000e+00  0.0000000000000000e+00  0.0000000000000000e+00  0.0000000000000000e+00  0.0000000000000000e+00  0.0000000000000000e+00  0.0000000000000000e+00  0.0000000000000000e+00  0.0000000000000000e+00  0.0000000000000000e+00  0.0000000000000000e+00  0.0000000000000000e+00  0.0000000000000000e+00  0.0000000000000000e+00  0.0000000000000000e+00  0.0000000000000000e+00  0.0000000000000000e+00  0.0000000000000000e+00  0.0000000000000000e+00  0.0000000000000000e+00  0.0000000000000000e+00  0.0000000000000000e+00  0.0000000000000000e+00  0.0000000000000000e+00  0.0000000000000000e+00  0.0000000000000000e+00  0.0000000000000000e+00  0.0000000000000000e+00  0.0000000000000000e+00  0.0000000000000000e+00  0.0000000000000000e+00  0.0000000000000000e+00  0.0000000000000000e+00  0.0000000000000000e+00  0.0000000000000000e+00  0.0000000000000000e+00  0.0000000000000000e+00  0.0000000000000000e+00  0.0000000000000000e+00  0.0000000000000000e+00  0.0000000000000000e+00  0.0000000000000000e+00  0.0000000000000000e+00  0.0000000000000000e+00  0.0000000000000000e+00  0.0000000000000000e+00  0.0000000000000000e+00  0.0000000000000000e+00  0.0000000000000000e+00  0.0000000000000000e+00  0.0000000000000000e+00  0.0000000000000000e+00  0.0000000000000000e+00  0.0000000000000000e+00  0.0000000000000000e+00  0.0000000000000000e+00  0.0000000000000000e+00  0.0000000000000000e+00  0.0000000000000000e+00  0.0000000000000000e+00  0.0000000000000000e+00  0.0000000000000000e+00  0.0000000000000000e+00  0.0000000000000000e+00  0.0000000000000000e+00  0.0000000000000000e+00  0.0000000000000000e+00  0.0000000000000000e+00  0.0000000000000000e+00  0.0000000000000000e+00  0.0000000000000000e+00  0.0000000000000000e+00  0.0000000000000000e+00  0.0000000000000000e+00  0.0000000000000000e+00  0.0000000000000000e+00  0.0000000000000000e+00  0.0000000000000000e+00  0.0000000000000000e+00  0.0000000000000000e+00  0.0000000000000000e+00  0.0000000000000000e+00  0.0000000000000000e+00  0.0000000000000000e+00  0.0000000000000000e+00  0.0000000000000000e+00  0.0000000000000000e+00  0.0000000000000000e+00  0.0000000000000000e+00  0.0000000000000000e+00  0.0000000000000000e+00  0.0000000000000000e+00  0.0000000000000000e+00  0.0000000000000000e+00  0.0000000000000000e+00  0.0000000000000000e+00  0.0000000000000000e+00  9.7869562603427562e-01  9.8300831906254160e-01  9.8627542458586881e-01  9.8698017657174020e-01  9.8509188307030149e-01  9.7782811393795410e-01  9.8150749363615253e-01  9.8502345550673009e-01  9.8053620625298565e-01  9.8135026345369825e-01  9.8564129505897125e-01  9.7776793554783414e-01  9.7394687860366214e-01  9.8921078609131874e-01  9.7882758097185463e-01  9.7625579246447913e-01  9.8898820159734979e-01  9.8816747469163690e-01  9.7637989977285367e-01  9.8167189627561713e-01  9.8080579086368436e-01  9.8010451412851085e-01  9.8231851333154030e-01  9.8294562302493849e-01  9.8563827339531940e-01  9.8324859406385090e-01  9.8354127334552532e-01  9.8418366020692183e-01  9.8257755628023946e-01  9.8317838569152327e-01  9.8494070238394726e-01  9.8436010754329872e-01  9.8223580714604752e-01  9.8070901279453981e-01  9.8498261514262264e-01  9.7962357760215535e-01  9.8131997019590289e-01  9.8361046756899739e-01  9.8202478380152736e-01  9.7983086707695810e-01  9.8527089348756347e-01  9.8239281038241155e-01  9.8587015649444920e-01  9.7302529532766635e-01  9.8407797931371166e-01  9.8702409752080289e-01  9.5911074039171740e-01  9.8029984048737828e-01  9.8804503979170044e-01  9.7680173526025516e-01  9.7897525422839771e-01  9.8721938730066594e-01  9.8211166592301302e-01  9.7320556117476753e-01  9.8029484787522159e-01  9.8452521957598160e-01  9.8618414512953234e-01  9.8277927010999511e-01  9.7591634515034131e-01  9.7909109638877889e-01  9.8251952198862791e-01  9.7985887468889377e-01  -1.2949655259068925e-32  1.3552792595226558e-32  1.2253971395862583e-35  3.1669328767028945e-35  1.8885360015205976e-32  2.9758192521203023e-32  1.1834273596457472e-35  4.2222536404270888e-36  -6.4346259468462695e-32  -3.2930540628136531e-32  1.4610503250686370e-33  5.9295393249640213e-33  6.1089192938228394e-33  5.3325904931149785e-33  3.7111640258900820e-31  1.8872177270667028e-31  -5.2468390393474076e-31  2.1565853169518800e-32  -6.7343963338293851e-31  -8.0584380314928711e-31  -1.4884376948558515e-31  -2.9729241802087885e-31  -1.8784457994112727e-31  -4.7044513069657971e-31  -1.8734734173734222e-31  -2.2932472205657739e-31  -2.0134604880151839e-29  -1.1159273982600434e-29  -7.6085071609293373e-31  -1.1878532678307889e-29  5.7115508558641869e-31  -2.2389957820857226e-31  -2.0123520917780769e-37  2.4074870318874425e-37  2.2216407445719177e-37  -2.5667191096320757e-37  3.5077210380458116e-34  2.9122699689894545e-34  3.1559687571196419e-34  2.7302686026983115e-34  -3.5620644028403921e-29  5.9929925293216599e-31  1.1324135559339557e-31  1.2304489766602137e-28  8.5961068942688073e-37  7.8949424221740216e-37  1.0172595022156049e-36  -2.6697585359491146e-39  -1.5642159668403673e-39  -3.1664894904266671e-39  -4.3882961170328256e-40  6.4291121820893997e-38  8.7705474955297225e-41  -1.1553827025103902e-38  -4.0690495600176178e-40  -5.1518027938240456e-41  -1.2881202610638057e-38  1.0043319431814389e-40  -5.6690441410439275e-39  -8.7350628949691104e-41  -3.4192340324224792e-41  -3.5708021661836279e-41  -3.4132586184027627e-41  -1.7066424532099399e-42  -1.1831370143754440e-42  2.5667541776774742e-42  3.2390390781447983e-42  -3.5408271460819791e-41  1.1553206130491615e-28  1.4645254254825271e-31  3.2069984640776919e-32  1.1838279438716729e-28  3.8205637260518217e-31  8.2440401774133883e-32  2.2662519914659725e-30  1.8845950883838812e-30  9.2828860623644175e-32  1.7688125914195156e-31  -2.8936473804906106e-32  -7.4641896986017190e-31  -2.2452338304983768e-31  -2.0424725358803702e-32  2.4900241272744303e-30  3.2556466450933368e-30  -7.8500913785285085e-33  2.0517952933721988e-31  -6.3830815406934716e-32  7.8679205343066851e-32  -1.5164290565584477e-31  -1.6057282740092114e-31  -7.5811200144402414e-34  -7.9985211586343529e-34  -2.7605214771142195e-32  -1.8798144259932471e-32  4.0039265324545658e-34  4.6423365418537552e-34  2.9297289272528697e-36  2.2646556719022814e-35  3.4976142928097249e-33  -1.9865130259803745e-36  7.8344645551043969e-34  -1.2971953273157526e-36  2.3700828704190984e-36  2.5791627599959654e-33  9.3529523298008656e-44  5.2428952818203875e-43  -1.2901771291816230e-43  -9.5343240959525175e-45  -8.0637067507063464e-44  4.4768261158390492e-44  1.5738754325478204e-43  1.6013205446072171e-43  4.9889015822625583e-29  1.0608440666055487e-30  5.0564727571498356e-31  1.3531970299201702e-28  2.9772864539009864e-33  -8.7894475079825782e-35  -1.3613176458752177e-34  -7.7717530633933164e-34  7.3372142927931824e-35  1.4177098955981853e-32  1.4258473068583883e-32  9.3262057912100813e-35  -4.3660706630096738e-38  -6.3881709158002916e-35  -2.5615562065009613e-35  -2.0672298126281764e-38  -3.1665877394883552e-38  4.2015946943364596e-36  -4.1359053817059832e-35  -6.3038553902190905e-39  -1.5165321044024913e-41  -8.5241449512060402e-42  -9.1448169534368081e-38  -5.5226530454402114e-40  -8.0986325254947994e-39  -3.3333177327636524e-40  7.5041031215114536e-40  -1.4192149277524702e-41  -3.7949439952688788e-38  -5.0092575940390826e-40  -1.7275574338099838e-40  -7.8766027216431733e-42  7.4897854328354200e-40  -1.0630317290620344e-41  -1.4636158865200303e-38  -3.1810773051322763e-40  -4.4284103262984329e-44  3.2196709899560054e-44  -1.4584980684239602e-44  -5.9394669909022766e-44  4.3711322544876331e-30  -1.2502833189676192e-28  -2.2868530474503721e-28  7.7155577795300680e-28  7.5854527411726801e-28  -3.2833876511078171e-27  -1.8506844655490455e-27  1.0737095382476909e-26  2.2341805551506215e-27  -2.5741455806757400e-26  7.5444282016386190e-27  2.8660846740793280e-26  -6.6426439995606106e-26  1.1702086644293434e-25  2.9312341483176609e-25  -9.6566245964479518e-25  -9.4458138675741000e-25  4.1547293000238565e-24  2.3049688191005637e-24  -1.3119356035915912e-23  -3.7130693128358050e-24  -1.4005740186679036e-23  3.1219795873147535e-23  1.0289917973164064e-25  -4.7798864514826334e-23  2.5554303836986257e-23  -1.2718124543742025e-23  -1.0379973104377816e-22  3.7479390649523081e-22  2.3692918057405910e-22  -1.4157783293350616e-21  -2.0860949184944419e-22  -3.5487561435133274e-22  3.0316931889104795e-21  -8.7989493581605163e-22  -1.7526365707067103e-21  4.7546925014777900e-21  -1.4823519820293027e-20  -1.0911872263653123e-20  6.7003287067478082e-20  4.1787914933202375e-21  -1.3096809269167342e-19  6.3277227587969105e-20  -2.4107041103598181e-19  -3.3744729230965589e-20  -2.3014887551122299e-19  1.0447509009819212e-18  2.4709492646126885e-19  3.2019663916008686e-20  -2.6227632173150627e-19  8.5244614785855273e-19  3.8962985081029571e-19  1.2116121158491163e-20  -2.7204561124550667e-19  4.5933745240357260e-20  2.0451811880901389e-20  3.4315129700543110e-19  -2.6132921244499945e-19  3.8711828798722157e-20  4.5998821934508349e-20  -1.8230777888586306e-20  2.1472509262479982e-20  -1.9768907246910815e-19  5.5221644176293238e-20  -1.5122025702688067e-20  7.6769879807067653e-21  -1.3752061942045236e-19  6.0392880702167274e-20  -1.1734637795593485e-20  -5.7324637488012801e-21  -6.9854345072803189e-20  5.8443785816988738e-20  -2.9359435505364149e-19  4.0362049517775080e-21  4.5787458514401007e-20  1.3200180503095258e-19  -1.6706950581239595e-19  8.2672712401779128e-19  -7.7559049573533990e-20  -1.2311396633760842e-18  1.0851443104281251e-18  -6.8940672697123956e-18  -1.0656080094129253e-19  2.3166629923586681e-18  -7.3183473193525781e-18  2.4938027611394201e-19  9.7123368910236522e-18  -6.4612419020831796e-18  3.7619428143431544e-17  -1.2306061435975122e-17  4.6236571461755537e-17  -9.5774144562834235e-18  1.8993239347530727e-17  -1.1026796739315591e-19  -1.3394557790400054e-17  3.2352704645376503e-18  -1.5598017295258847e-18  -2.7424946679125450e-01  4.1639438587264264e-18  -7.3471676990396214e-18  -2.7895616358499118e-18  3.0095520749859534e-17  -3.1885250387437120e-01  -1.1861641254509071e-17  4.9977973968418040e-17  -2.5523487662099165e-01  -1.1818124482914579e-17  3.1041391538883591e-17  -1.6673546026043343e-16  -5.4047070252065066e-17  7.2690892676882777e-19  3.2429769664117549e-17  -1.7429828518431797e-16  3.5035992859398530e-18  -1.1836430084801303e-17  4.0290298437549389e-17  -1.6712737262905986e-16  -1.0161814194435745e-16  1.4409736523855489e-17  -1.4854062069562277e-17  1.8578734315421787e-16  -1.9390121491533859e-17  1.0988991683754502e-17  -3.2216198522290539e-17  1.4664671276827730e-16  5.1270621487143216e-17  -8.6113928754719554e-19  -2.2296972220333833e-17  1.2737278827999852e-17  7.1249590644605584e-17  -6.2185968196426959e-18  -2.4436838453845877e-17  -3.5993249464665666e-17  1.2577917361986405e-16  -1.6551540672491472e-17  -2.1691965614071723e-17  -1.4742157094728745e-16  1.8496153123188494e-16  -6.5345364578030692e-16  -2.3485397788781761e-16  -2.3132469546665006e-17  2.3598817929125783e-16  -9.0123898672113417e-16  -1.7646638205307378e-16  -4.4777652829969634e-17  2.5155976468775178e-16  -1.2602835617423441e-15  8.4672293844653383e-17  1.7002595884459600e-15  -1.2866320243099037e-15  5.7435560846117752e-15  -3.6026170093562621e-16  3.7109322939819068e-16  -6.5246519184087813e-16  5.4391355038063046e-15  -1.9417761075922850e-15  6.4288823751672370e-15  -3.7747491192950225e-16  -4.2049729573269050e-15  1.9049854629653584e-15  -3.0168060099020769e-15  -3.3891280238606209e-15  -1.0678565788063819e-16  2.5990120845540368e-15  -1.6469678104552383e-14  5.8561399554092545e-15  -2.4882851029221748e-14  6.6084204286540449e-15  -2.2994464179587646e-14  5.8589846825592347e-15  -2.2319628197355477e-14  6.9580575653619047e-15  -3.0782844625949814e-14  9.5116825677862452e-15  -3.7912679959126652e-14  9.7374697234475281e-15  -3.1139993048745623e-14  6.1566527650418545e-15  -1.3632347483461750e-14  1.4335383990314428e-15  1.0022899773426441e-15  -1.1406803580430254e-15  5.0045480050937680e-15  -1.0136031903794058e-15  1.7476966373070300e-15  -3.0427955498303738e-17  -8.9208959118843724e-16  1.3794441787459294e-16  -5.5671887358862485e-17  -5.6383639595853568e-18  1.8087424449165929e-17  -3.3974684090983494e-18  -3.3833863889101873e-18  1.2565917756541910e-18  3.3815841302015143e-19  -2.5619450489203339e-19  2.6084116390083418e-20  -3.1799713500607000e-19  3.0481930812596748e-20  -1.6630324899404411e-15  6.9600002686755460e-20  -8.7367008780932388e-20  -8.5788061200363636e-21  9.0107765023536117e-20  -1.8115449666851340e-20  1.5936745620828264e-20  3.3005860669628235e-2