<?xml version="1.0"?>
<VTKFile type="UnstructuredGrid"  version="0.1"  >
<UnstructuredGrid>
<Piece  NumberOfPoints="11902" NumberOfCells="23402">
<Points>
<DataArray  type="Float64"  NumberOfComponents="3"  format="ascii">-5 -5 0  5 -5 0  5 5 0  -5 5 0  1.249158123461791 0.001367190120957591 0  -4.9 -5 0  -4.8 -5 0  -4.7 -5 0  -4.6 -5 0  -4.5 -5 0  -4.4 -5 0  -4.3 -5 0  -4.2 -5 0  -4.1 -5 0  -4 -5 0  -3.9 -5 0  -3.8 -5 0  -3.7 -5 0  -3.6 -5 0  -3.5 -5 0  -3.4 -5 0  -3.3 -5 0  -3.2 -5 0  -3.1 -5 0  -3 -5 0  -2.9 -5 0  -2.8 -5 0  -2.7 -5 0  -2.6 -5 0  -2.5 -5 0  -2.4 -5 0  -2.3 -5 0  -2.2 -5 0  -2.1 -5 0  -2 -5 0  -1.9 -5 0  -1.8 -5 0  -1.7 -5 0  -1.6 -5 0  -1.5 -5 0  -1.4 -5 0  -1.3 -5 0  -1.2 -5 0  -1.1 -5 0  -1 -5 0  -0.9000000000000004 -5 0  -0.7999999999999998 -5 0  -0.7000000000000002 -5 0  -0.5999999999999996 -5 0  -0.5 -5 0  -0.4000000000000004 -5 0  -0.2999999999999998 -5 0  -0.2000000000000002 -5 0  -0.09999999999999964 -5 0  0 -5 0  0.09999999999999964 -5 0  0.2000000000000002 -5 0  0.2999999999999998 -5 0  0.4000000000000004 -5 0  0.5 -5 0  0.5999999999999996 -5 0  0.7000000000000002 -5 0  0.7999999999999998 -5 0  0.9000000000000004 -5 0  1 -5 0  1.1 -5 0  1.2 -5 0  1.3 -5 0  1.4 -5 0  1.5 -5 0  1.6 -5 0  1.7 -5 0  1.8 -5 0  1.9 -5 0  2 -5 0  2.1 -5 0  2.2 -5 0  2.3 -5 0  2.4 -5 0  2.5 -5 0  2.6 -5 0  2.7 -5 0  2.8 -5 0  2.9 -5 0  3 -5 0  3.1 -5 0  3.199999999999999 -5 0  3.300000000000001 -5 0  3.4 -5 0  3.5 -5 0  3.6 -5 0  3.699999999999999 -5 0  3.800000000000001 -5 0  3.9 -5 0  4 -5 0  4.1 -5 0  4.199999999999999 -5 0  4.300000000000001 -5 0  4.4 -5 0  4.5 -5 0  4.6 -5 0  4.699999999999999 -5 0  4.800000000000001 -5 0  4.9 -5 0  5 -4.9 0  5 -4.8 0  5 -4.7 0  5 -4.6 0  5 -4.5 0  5 -4.4 0  5 -4.3 0  5 -4.2 0  5 -4.1 0  5 -4 0  5 -3.9 0  5 -3.8 0  5 -3.7 0  5 -3.6 0  5 -3.5 0  5 -3.4 0  5 -3.3 0  5 -3.2 0  5 -3.1 0  5 -3 0  5 -2.9 0  5 -2.8 0  5 -2.7 0  5 -2.6 0  5 -2.5 0  5 -2.4 0  5 -2.3 0  5 -2.2 0  5 -2.1 0  5 -2 0  5 -1.9 0  5 -1.8 0  5 -1.7 0  5 -1.6 0  5 -1.5 0  5 -1.4 0  5 -1.3 0  5 -1.2 0  5 -1.1 0  5 -1 0  5 -0.9000000000000004 0  5 -0.7999999999999998 0  5 -0.7000000000000002 0  5 -0.5999999999999996 0  5 -0.5 0  5 -0.4000000000000004 0  5 -0.2999999999999998 0  5 -0.2000000000000002 0  5 -0.09999999999999964 0  5 0 0  5 0.09999999999999964 0  5 0.2000000000000002 0  5 0.2999999999999998 0  5 0.4000000000000004 0  5 0.5 0  5 0.5999999999999996 0  5 0.7000000000000002 0  5 0.7999999999999998 0  5 0.9000000000000004 0  5 1 0  5 1.1 0  5 1.2 0  5 1.3 0  5 1.4 0  5 1.5 0  5 1.6 0  5 1.7 0  5 1.8 0  5 1.9 0  5 2 0  5 2.1 0  5 2.2 0  5 2.3 0  5 2.4 0  5 2.5 0  5 2.6 0  5 2.7 0  5 2.8 0  5 2.9 0  5 3 0  5 3.1 0  5 3.199999999999999 0  5 3.300000000000001 0  5 3.4 0  5 3.5 0  5 3.6 0  5 3.699999999999999 0  5 3.800000000000001 0  5 3.9 0  5 4 0  5 4.1 0  5 4.199999999999999 0  5 4.300000000000001 0  5 4.4 0  5 4.5 0  5 4.6 0  5 4.699999999999999 0  5 4.800000000000001 0  5 4.9 0  4.9 5 0  4.8 5 0  4.7 5 0  4.6 5 0  4.5 5 0  4.4 5 0  4.3 5 0  4.2 5 0  4.1 5 0  4 5 0  3.9 5 0  3.8 5 0  3.7 5 0  3.6 5 0  3.5 5 0  3.4 5 0  3.3 5 0  3.2 5 0  3.1 5 0  3 5 0  2.9 5 0  2.8 5 0  2.7 5 0  2.6 5 0  2.5 5 0  2.4 5 0  2.3 5 0  2.2 5 0  2.1 5 0  2 5 0  1.9 5 0  1.8 5 0  1.7 5 0  1.6 5 0  1.5 5 0  1.4 5 0  1.3 5 0  1.2 5 0  1.1 5 0  1 5 0  0.9000000000000004 5 0  0.7999999999999998 5 0  0.7000000000000002 5 0  0.5999999999999996 5 0  0.5 5 0  0.4000000000000004 5 0  0.2999999999999998 5 0  0.2000000000000002 5 0  0.09999999999999964 5 0  0 5 0  -0.09999999999999964 5 0  -0.2000000000000002 5 0  -0.2999999999999998 5 0  -0.4000000000000004 5 0  -0.5 5 0  -0.5999999999999996 5 0  -0.7000000000000002 5 0  -0.7999999999999998 5 0  -0.9000000000000004 5 0  -1 5 0  -1.1 5 0  -1.2 5 0  -1.3 5 0  -1.4 5 0  -1.5 5 0  -1.6 5 0  -1.7 5 0  -1.8 5 0  -1.9 5 0  -2 5 0  -2.1 5 0  -2.2 5 0  -2.3 5 0  -2.4 5 0  -2.5 5 0  -2.6 5 0  -2.7 5 0  -2.8 5 0  -2.9 5 0  -3 5 0  -3.1 5 0  -3.199999999999999 5 0  -3.300000000000001 5 0  -3.4 5 0  -3.5 5 0  -3.6 5 0  -3.699999999999999 5 0  -3.800000000000001 5 0  -3.9 5 0  -4 5 0  -4.1 5 0  -4.199999999999999 5 0  -4.300000000000001 5 0  -4.4 5 0  -4.5 5 0  -4.6 5 0  -4.699999999999999 5 0  -4.800000000000001 5 0  -4.9 5 0  -5 4.9 0  -5 4.8 0  -5 4.7 0  -5 4.6 0  -5 4.5 0  -5 4.4 0  -5 4.3 0  -5 4.2 0  -5 4.1 0  -5 4 0  -5 3.9 0  -5 3.8 0  -5 3.7 0  -5 3.6 0  -5 3.5 0  -5 3.4 0  -5 3.3 0  -5 3.2 0  -5 3.1 0  -5 3 0  -5 2.9 0  -5 2.8 0  -5 2.7 0  -5 2.6 0  -5 2.5 0  -5 2.4 0  -5 2.3 0  -5 2.2 0  -5 2.1 0  -5 2 0  -5 1.9 0  -5 1.8 0  -5 1.7 0  -5 1.6 0  -5 1.5 0  -5 1.4 0  -5 1.3 0  -5 1.2 0  -5 1.1 0  -5 1 0  -5 0.9000000000000004 0  -5 0.7999999999999998 0  -5 0.7000000000000002 0  -5 0.5999999999999996 0  -5 0.5 0  -5 0.4000000000000004 0  -5 0.2999999999999998 0  -5 0.2000000000000002 0  -5 0.09999999999999964 0  -5 0 0  -5 -0.09999999999999964 0  -5 -0.2000000000000002 0  -5 -0.2999999999999998 0  -5 -0.4000000000000004 0  -5 -0.5 0  -5 -0.5999999999999996 0  -5 -0.7000000000000002 0  -5 -0.7999999999999998 0  -5 -0.9000000000000004 0  -5 -1 0  -5 -1.1 0  -5 -1.2 0  -5 -1.3 0  -5 -1.4 0  -5 -1.5 0  -5 -1.6 0  -5 -1.7 0  -5 -1.8 0  -5 -1.9 0  -5 -2 0  -5 -2.1 0  -5 -2.2 0  -5 -2.3 0  -5 -2.4 0  -5 -2.5 0  -5 -2.6 0  -5 -2.7 0  -5 -2.8 0  -5 -2.9 0  -5 -3 0  -5 -3.1 0  -5 -3.199999999999999 0  -5 -3.300000000000001 0  -5 -3.4 0  -5 -3.5 0  -5 -3.6 0  -5 -3.699999999999999 0  -5 -3.800000000000001 0  -5 -3.9 0  -5 -4 0  -5 -4.1 0  -5 -4.199999999999999 0  -5 -4.300000000000001 0  -5 -4.4 0  -5 -4.5 0  -5 -4.6 0  -5 -4.699999999999999 0  -5 -4.800000000000001 0  -5 -4.9 0  1.241642322287621 0.096051310503718 0  1.220713026014526 0.1933454520805838 0  1.187504174670719 0.2899094017494636 0  1.144856047802527 0.3792891517356057 0  1.08798342520879 0.46989639297408 0  1.022910304431343 0.5545455377082328 0  0.9455559049625476 0.6343147864976423 0  0.8596032355700193 0.7083830536673088 0  0.7680135327632994 0.7737565433222506 0  0.666060564096468 0.8312816791902914 0  0.5558010405830632 0.8835411499960533 0  0.4439752528958652 0.9271185033457507 0  0.331126918656731 0.9597427420001597 0  0.2082176164593022 0.9813249761854743 0  0.08937021450299068 0.9996115813238767 0  -0.02746168032136102 1.002734764712205 0  -0.145197288460426 0.9896527072342526 0  -0.2703571187661127 0.9711590212231398 0  -0.3888378233557009 0.9464992203019068 0  -0.4996941577698403 0.9102090881528608 0  -0.6082325191097679 0.8638461521792808 0  -0.7103161865285262 0.8094071776840646 0  -0.8047322006553889 0.7448545391677671 0  -0.8948273962196136 0.6721219611960343 0  -0.9790521990599427 0.5928899219107211 0  -1.052084678621287 0.5116992775782059 0  -1.113552081217143 0.4257946579038953 0  -1.165193315974273 0.3340890085101803 0  -1.203002971815286 0.2431639942278873 0  -1.227504798677191 0.1486221676693726 0  -1.239246520650313 0.05101240791950806 0  -1.239197333437485 -0.04889966129425902 0  -1.227424044227322 -0.1458603965228678 0  -1.202780786623987 -0.2395093140770714 0  -1.162709679790563 -0.334410647710386 0  -1.113795590532829 -0.4256595608496089 0  -1.053530908957733 -0.5113800721641022 0  -0.9813046476578435 -0.5918329070220452 0  -0.8976977048193019 -0.6698368789338246 0  -0.8079337730064089 -0.7410121319762935 0  -0.7120078426336993 -0.8019802582471102 0  -0.6078604065685459 -0.8552834050027761 0  -0.4955718849649002 -0.9043932747530844 0  -0.3829167505244176 -0.9436753203387005 0  -0.2670582718280047 -0.9706325918764527 0  -0.1438478562882781 -0.9892443520334386 0  -0.02797412730852998 -1.001894677424413 0  0.08931583477391386 -0.9951040117763817 0  0.2129581988512844 -0.978290444033365 0  0.3334965349380022 -0.9581742389867671 0  0.4480654809994561 -0.9257840103504965 0  0.558066454079104 -0.8826610529358835 0  0.6669476039894233 -0.8313040949243227 0  0.7680267103557901 -0.774917187345354 0  0.8597021955379658 -0.7093408710186376 0  0.9448973041896748 -0.6342543279326335 0  1.020444318272826 -0.5537533179427957 0  1.088275777554535 -0.4689220467404168 0  1.145763274020723 -0.3794569835150061 0  1.189212779841161 -0.2879244282257882 0  1.2212956703317 -0.1924600860073688 0  1.241881517532327 -0.09571366794562973 0  -2.448591105799504 4.918168101971027 0  -2.448467977289441 -4.910551377803825 0  4.910477016559416 2.447934164216218 0  4.918598203248292 -2.449392099244062 0  2.446202944405135 -4.895792813826984 0  2.440635266817621 4.89955334308087 0  -4.910503644084654 -2.447960147567978 0  -4.910501011994923 2.447964032273275 0  -1.748546372833522 4.91108035350266 0  -1.744331749792312 -4.91451886313192 0  4.920668295901225 1.744105247298806 0  4.909206984821661 -1.747871463692851 0  -4.909500427970048 -1.747605196024609 0  -4.910322376853622 1.74734963110442 0  1.745821175000788 4.904941650643236 0  1.747238071976453 -4.893094689203692 0  -1.148851141102467 4.908878154798622 0  -1.129706655350874 -4.916788629885423 0  -4.909230585363619 -1.147926734113634 0  -4.909049065632473 1.147727096797815 0  1.143845203617274 -4.912975212065724 0  1.148860898001502 4.90886503401978 0  4.909370971138797 1.146202203061878 0  4.920197693165037 -1.151984246469644 0  -0.5466739821560208 -4.910073906109318 0  -0.5464560925501634 4.918754079722121 0  -4.907973216500358 -0.548707901990092 0  -4.907997210779395 0.5472654986931135 0  4.907293334876778 -0.5490263027837348 0  4.918945468087337 0.545783684329695 0  0.542456847001082 -4.896958253271038 0  0.5511848853641029 4.91557840924553 0  -4.911914452578086 -3.048311668065036 0  4.918484005588076 3.046326650431698 0  4.911422460946065 -3.0482876523133 0  -4.912762133833635 3.045403084555768 0  3.055313982032795 -4.917408602591548 0  -3.04864584734691 -4.911345971276179 0  3.052212790038842 4.913423384266468 0  -3.048091359650702 4.912235581570101 0  -4.90708507693998 -0.04990769895723298 0  0.04512013933841519 -4.912024474970763 0  0.04956783324107882 4.919048482222912 0  4.914137795192372 -0.05128976611265518 0  3.54562972904851 -4.919044849312702 0  -3.548911126535714 4.911946
[...]
<PointData  Scalars="f_27"> 
<DataArray  type="Float64"  Name="f_27"  format="ascii">0.0000000000000000e+00  0.0000000000000000e+00  0.0000000000000000e+00  0.0000000000000000e+00  9.6162533497121594e-01  0.0000000000000000e+00  0.0000000000000000e+00  0.0000000000000000e+00  0.0000000000000000e+00  0.0000000000000000e+00  0.0000000000000000e+00  0.0000000000000000e+00  0.0000000000000000e+00  0.0000000000000000e+00  0.0000000000000000e+00  0.0000000000000000e+00  0.0000000000000000e+00  0.0000000000000000e+00  0.0000000000000000e+00  0.0000000000000000e+00  0.0000000000000000e+00  0.0000000000000000e+00  0.0000000000000000e+00  0.0000000000000000e+00  0.0000000000000000e+00  0.0000000000000000e+00  0.0000000000000000e+00  0.0000000000000000e+00  0.0000000000000000e+00  0.0000000000000000e+00  0.0000000000000000e+00  0.0000000000000000e+00  0.0000000000000000e+00  0.0000000000000000e+00  0.0000000000000000e+00  0.0000000000000000e+00  0.0000000000000000e+00  0.0000000000000000e+00  0.0000000000000000e+00  0.0000000000000000e+00  0.0000000000000000e+00  0.0000000000000000e+00  0.0000000000000000e+00  0.0000000000000000e+00  0.0000000000000000e+00  0.0000000000000000e+00  0.0000000000000000e+00  0.0000000000000000e+00  0.0000000000000000e+00  0.0000000000000000e+00  0.0000000000000000e+00  0.0000000000000000e+00  0.0000000000000000e+00  0.0000000000000000e+00  0.0000000000000000e+00  0.0000000000000000e+00  0.0000000000000000e+00  0.0000000000000000e+00  0.0000000000000000e+00  0.0000000000000000e+00  0.0000000000000000e+00  0.0000000000000000e+00  0.0000000000000000e+00  0.0000000000000000e+00  0.0000000000000000e+00  0.0000000000000000e+00  0.0000000000000000e+00  0.0000000000000000e+00  0.0000000000000000e+00  0.0000000000000000e+00  0.0000000000000000e+00  0.0000000000000000e+00  0.0000000000000000e+00  0.0000000000000000e+00  0.0000000000000000e+00  0.0000000000000000e+00  0.0000000000000000e+00  0.0000000000000000e+00  0.0000000000000000e+00  0.0000000000000000e+00  0.0000000000000000e+00  0.0000000000000000e+00  0.0000000000000000e+00  0.0000000000000000e+00  0.0000000000000000e+00  0.0000000000000000e+00  0.0000000000000000e+00  0.0000000000000000e+00  0.0000000000000000e+00  0.0000000000000000e+00  0.0000000000000000e+00  0.0000000000000000e+00  0.0000000000000000e+00  0.0000000000000000e+00  0.0000000000000000e+00  0.0000000000000000e+00  0.0000000000000000e+00  0.0000000000000000e+00  0.0000000000000000e+00  0.0000000000000000e+00  0.0000000000000000e+00  0.0000000000000000e+00  0.0000000000000000e+00  0.0000000000000000e+00  0.0000000000000000e+00  0.0000000000000000e+00  0.0000000000000000e+00  0.0000000000000000e+00  0.0000000000000000e+00  0.0000000000000000e+00  0.0000000000000000e+00  0.0000000000000000e+00  0.0000000000000000e+00  0.0000000000000000e+00  0.0000000000000000e+00  0.0000000000000000e+00  0.0000000000000000e+00  0.0000000000000000e+00  0.0000000000000000e+00  0.0000000000000000e+00  0.0000000000000000e+00  0.0000000000000000e+00  0.0000000000000000e+00  0.0000000000000000e+00  0.0000000000000000e+00  0.0000000000000000e+00  0.0000000000000000e+00  0.0000000000000000e+00  0.0000000000000000e+00  0.0000000000000000e+00  0.0000000000000000e+00  0.0000000000000000e+00  0.0000000000000000e+00  0.0000000000000000e+00  0.0000000000000000e+00  0.0000000000000000e+00  0.0000000000000000e+00  0.0000000000000000e+00  0.0000000000000000e+00  0.0000000000000000e+00  0.0000000000000000e+00  0.0000000000000000e+00  0.0000000000000000e+00  0.0000000000000000e+00  0.0000000000000000e+00  0.0000000000000000e+00  0.0000000000000000e+00  0.0000000000000000e+00  0.0000000000000000e+00  0.0000000000000000e+00  0.0000000000000000e+00  0.0000000000000000e+00  0.0000000000000000e+00  0.0000000000000000e+00  0.0000000000000000e+00  0.0000000000000000e+00  0.0000000000000000e+00  0.0000000000000000e+00  0.0000000000000000e+00  0.0000000000000000e+00  0.0000000000000000e+00  0.0000000000000000e+00  0.0000000000000000e+00  0.0000000000000000e+00  0.0000000000000000e+00  0.0000000000000000e+00  0.0000000000000000e+00  0.0000000000000000e+00  0.0000000000000000e+00  0.0000000000000000e+00  0.0000000000000000e+00  0.0000000000000000e+00  0.0000000000000000e+00  0.0000000000000000e+00  0.0000000000000000e+00  0.0000000000000000e+00  0.0000000000000000e+00  0.0000000000000000e+00  0.0000000000000000e+00  0.0000000000000000e+00  0.0000000000000000e+00  0.0000000000000000e+00  0.0000000000000000e+00  0.0000000000000000e+00  0.0000000000000000e+00  0.0000000000000000e+00  0.0000000000000000e+00  0.0000000000000000e+00  0.0000000000000000e+00  0.0000000000000000e+00  0.0000000000000000e+00  0.0000000000000000e+00  0.0000000000000000e+00  0.0000000000000000e+00  0.0000000000000000e+00  0.0000000000000000e+00  0.0000000000000000e+00  0.0000000000000000e+00  0.0000000000000000e+00  0.0000000000000000e+00  0.0000000000000000e+00  0.0000000000000000e+00  0.0000000000000000e+00  0.0000000000000000e+00  0.0000000000000000e+00  0.0000000000000000e+00  0.0000000000000000e+00  0.0000000000000000e+00  0.0000000000000000e+00  0.0000000000000000e+00  0.0000000000000000e+00  0.0000000000000000e+00  0.0000000000000000e+00  0.0000000000000000e+00  0.0000000000000000e+00  0.0000000000000000e+00  0.0000000000000000e+00  0.0000000000000000e+00  0.0000000000000000e+00  0.0000000000000000e+00  0.0000000000000000e+00  0.0000000000000000e+00  0.0000000000000000e+00  0.0000000000000000e+00  0.0000000000000000e+00  0.0000000000000000e+00  0.0000000000000000e+00  0.0000000000000000e+00  0.0000000000000000e+00  0.0000000000000000e+00  0.0000000000000000e+00  0.0000000000000000e+00  0.0000000000000000e+00  0.0000000000000000e+00  0.0000000000000000e+00  0.0000000000000000e+00  0.0000000000000000e+00  0.0000000000000000e+00  0.0000000000000000e+00  0.0000000000000000e+00  0.0000000000000000e+00  0.0000000000000000e+00  0.0000000000000000e+00  0.0000000000000000e+00  0.0000000000000000e+00  0.0000000000000000e+00  0.0000000000000000e+00  0.0000000000000000e+00  0.0000000000000000e+00  0.0000000000000000e+00  0.0000000000000000e+00  0.0000000000000000e+00  0.0000000000000000e+00  0.0000000000000000e+00  0.0000000000000000e+00  0.0000000000000000e+00  0.0000000000000000e+00  0.0000000000000000e+00  0.0000000000000000e+00  0.0000000000000000e+00  0.0000000000000000e+00  0.0000000000000000e+00  0.0000000000000000e+00  0.0000000000000000e+00  0.0000000000000000e+00  0.0000000000000000e+00  0.0000000000000000e+00  0.0000000000000000e+00  0.0000000000000000e+00  0.0000000000000000e+00  0.0000000000000000e+00  0.0000000000000000e+00  0.0000000000000000e+00  0.0000000000000000e+00  0.0000000000000000e+00  0.0000000000000000e+00  0.0000000000000000e+00  0.0000000000000000e+00  0.0000000000000000e+00  0.0000000000000000e+00  0.0000000000000000e+00  0.0000000000000000e+00  0.0000000000000000e+00  0.0000000000000000e+00  0.0000000000000000e+00  0.0000000000000000e+00  0.0000000000000000e+00  0.0000000000000000e+00  0.0000000000000000e+00  0.0000000000000000e+00  0.0000000000000000e+00  0.0000000000000000e+00  0.0000000000000000e+00  0.0000000000000000e+00  0.0000000000000000e+00  0.0000000000000000e+00  0.0000000000000000e+00  0.0000000000000000e+00  0.0000000000000000e+00  0.0000000000000000e+00  0.0000000000000000e+00  0.0000000000000000e+00  0.0000000000000000e+00  0.0000000000000000e+00  0.0000000000000000e+00  0.0000000000000000e+00  0.0000000000000000e+00  0.0000000000000000e+00  0.0000000000000000e+00  0.0000000000000000e+00  0.0000000000000000e+00  0.0000000000000000e+00  0.0000000000000000e+00  0.0000000000000000e+00  0.0000000000000000e+00  0.0000000000000000e+00  0.0000000000000000e+00  0.0000000000000000e+00  0.0000000000000000e+00  0.0000000000000000e+00  0.0000000000000000e+00  0.0000000000000000e+00  0.0000000000000000e+00  0.0000000000000000e+00  0.0000000000000000e+00  0.0000000000000000e+00  0.0000000000000000e+00  0.0000000000000000e+00  0.0000000000000000e+00  0.0000000000000000e+00  0.0000000000000000e+00  0.0000000000000000e+00  0.0000000000000000e+00  0.0000000000000000e+00  0.0000000000000000e+00  0.0000000000000000e+00  0.0000000000000000e+00  0.0000000000000000e+00  0.0000000000000000e+00  0.0000000000000000e+00  0.0000000000000000e+00  0.0000000000000000e+00  0.0000000000000000e+00  0.0000000000000000e+00  0.0000000000000000e+00  0.0000000000000000e+00  0.0000000000000000e+00  0.0000000000000000e+00  0.0000000000000000e+00  0.0000000000000000e+00  0.0000000000000000e+00  0.0000000000000000e+00  0.0000000000000000e+00  0.0000000000000000e+00  0.0000000000000000e+00  0.0000000000000000e+00  0.0000000000000000e+00  0.0000000000000000e+00  0.0000000000000000e+00  0.0000000000000000e+00  0.0000000000000000e+00  0.0000000000000000e+00  0.0000000000000000e+00  0.0000000000000000e+00  0.0000000000000000e+00  0.0000000000000000e+00  0.0000000000000000e+00  0.0000000000000000e+00  0.0000000000000000e+00  0.0000000000000000e+00  0.0000000000000000e+00  0.0000000000000000e+00  0.0000000000000000e+00  0.0000000000000000e+00  0.0000000000000000e+00  0.0000000000000000e+00  0.0000000000000000e+00  0.0000000000000000e+00  0.0000000000000000e+00  0.0000000000000000e+00  0.0000000000000000e+00  0.0000000000000000e+00  0.0000000000000000e+00  0.0000000000000000e+00  0.0000000000000000e+00  0.0000000000000000e+00  0.0000000000000000e+00  0.0000000000000000e+00  0.0000000000000000e+00  0.0000000000000000e+00  0.0000000000000000e+00  0.0000000000000000e+00  0.0000000000000000e+00  0.0000000000000000e+00  0.0000000000000000e+00  0.0000000000000000e+00  0.0000000000000000e+00  0.0000000000000000e+00  0.0000000000000000e+00  0.0000000000000000e+00  0.0000000000000000e+00  9.6082423085301083e-01  9.6591386798353662e-01  9.7110325207980364e-01  9.7442915097001337e-01  9.6830466035650986e-01  9.5706644385201423e-01  9.6101358690911454e-01  9.6795938624427513e-01  9.6431314208423802e-01  9.5850217071104360e-01  9.6300601493452820e-01  9.5910983151353402e-01  9.6042515127484374e-01  9.6579213302966871e-01  9.6795250870619021e-01  9.6602083239555636e-01  9.7001185987012961e-01  9.6888440716823154e-01  9.6135019222705509e-01  9.6421200204485180e-01  9.6524075898621242e-01  9.6586135038765986e-01  9.6235210053763565e-01  9.6152166603517331e-01  9.6460105885125758e-01  9.6657403826785604e-01  9.6376843944787993e-01  9.6589412288233811e-01  9.7079379631280049e-01  9.6790360320210966e-01  9.6688435003777318e-01  9.6472304998645853e-01  9.6326513690125626e-01  9.5311072223225324e-01  9.6520716011995678e-01  9.5998974761900846e-01  9.6340349977681539e-01  9.6039432446377460e-01  9.6188554403699167e-01  9.6366295540561697e-01  9.7038339499220516e-01  9.5707753303852150e-01  9.6630532137808678e-01  9.5913537411570859e-01  9.6529724629094149e-01  9.6439915314266289e-01  9.4471105547176282e-01  9.5792202050270148e-01  9.6486310700763889e-01  9.6480498931242431e-01  9.6431340358431283e-01  9.6927824722000677e-01  9.6532589888667975e-01  9.5609535644346977e-01  9.6311484368755940e-01  9.6566932550936124e-01  9.6723432023899147e-01  9.6665899501695862e-01  9.5514477294345401e-01  9.5955970812241986e-01  9.6197832185806786e-01  9.6114644355150758e-01  -2.9732798069500679e-32  2.9022749292146606e-32  4.5838201518589587e-35  8.7719841206806271e-35  3.7415633010310818e-32  6.4362054987536417e-32  6.7014848367661128e-36  6.8052214583852721e-37  -1.1254157344479619e-31  -4.4883807446791512e-32  9.9619633290031076e-33  1.7609585392515956e-32  1.0610795179836882e-32  1.2603342568115545e-32  6.7395433554815868e-31  3.4244866776443532e-31  -1.0332846877188330e-30  -1.2367852076727127e-32  -1.4856386832327464e-30  -2.0301124781926854e-30  -3.0218371891949522e-31  -4.2519886740797557e-31  -7.9941561842920895e-31  -1.2167249126264543e-30  -5.2920346611201147e-31  -5.5557755910930607e-31  -2.4420814992409497e-29  -4.3413645250690164e-30  -4.5396072582251767e-30  -3.5855663550455003e-29  1.3993709862349930e-30  -4.8329852835246265e-31  -7.8140024178258789e-37  5.7829178147940000e-37  4.9598854757719297e-37  -7.7656436298306867e-37  7.9113854695336920e-34  4.5592847031278372e-34  4.8403520521344408e-34  4.6589913033065636e-34  -1.5578494399603688e-28  1.7075510839496218e-30  -9.4766887974969356e-32  2.9911722798403714e-28  1.9999004267626769e-36  1.3078266690787054e-36  2.4214785609409650e-36  -6.9517025546543282e-39  -1.0044451238365153e-39  -8.1226413976863811e-39  1.2747646847717336e-39  -1.0653837715511264e-37  1.7743968717380353e-40  -2.8323236908181332e-38  -3.3537551332746207e-39  -2.2562003583844170e-40  -3.0085451929911777e-38  2.2465014436810245e-40  -1.4842268317882696e-38  -3.0491907343141507e-40  -7.9911881596009197e-41  -8.7922587321978274e-41  -7.9916091084376337e-41  -3.1440986035504307e-42  -1.3944395950886327e-42  7.8781163415231453e-42  9.8886330989826214e-42  -8.5861594497047767e-41  2.8257215565359408e-28  4.8869149264945022e-31  -2.7888472348416995e-31  2.7691313359828535e-28  4.3542440643169916e-31  2.8687219299199215e-31  2.5397201773477073e-30  2.0709020450961778e-30  3.0424157471664616e-31  3.2155671323381827e-31  -4.7624180853788938e-31  -1.6582613456822742e-30  -3.5568546072795858e-31  -8.5740612214698763e-32  6.5308162988488824e-30  9.6470757693793584e-30  -6.4663372444548145e-32  3.8908212922434595e-31  -1.3409597198482898e-32  1.3431286552559409e-31  -3.3331391114836302e-31  -3.3299991675769140e-31  -2.9508857948656535e-33  -2.6644521038198851e-33  -6.4943335924318424e-32  -6.4810515285450341e-32  1.5392500087536646e-33  1.6322378511986704e-33  7.4360259418800708e-36  -2.6766719817702694e-33  6.3652566181770414e-33  -6.5257357458393786e-36  1.3429531783033524e-33  -6.5210627220174539e-36  6.5420253865998284e-36  6.1677606509715829e-33  3.5300811586255883e-43  1.4446089629967770e-42  -2.9830808826176660e-43  -4.5562376938961928e-43  -1.8340246452968880e-43  -2.7666760559561796e-43  5.5983661837140257e-43  4.2744003658295856e-43  6.2796013266370231e-29  2.7266297857901351e-30  7.1793530928971260e-31  3.2848817728037617e-28  7.3320276447299160e-33  -3.2647856942543638e-34  -4.1367058075154602e-34  -2.0282295509214725e-32  3.7596340909958620e-34  2.6680830530083537e-32  4.9350960163468959e-32  3.3196956348698272e-34  -1.1050301551105785e-37  -1.5759870202415191e-34  -6.9442792057954702e-35  -1.6248798583723034e-38  -8.4160616932560111e-38  6.0897582948583378e-36  -9.2038841328021337e-35  8.9218823252497932e-39  3.7831176174869182e-40  -3.0693143941482440e-41  -2.8249274612014255e-37  -8.8372607127323137e-40  -6.3363985058392123e-38  -7.1198257170709856e-40  1.9608928103621481e-39  -2.5926862799606260e-41  -1.3643249530026206e-37  -8.8319370590771094e-40  -1.5777169680482797e-40  -2.5458736410338551e-41  1.8642658968194093e-39  -1.6658274436749758e-41  -5.6911281781600980e-38  -7.2657851920000221e-40  -1.3921998927969304e-43  7.1491693898752389e-44  -6.6505147755810387e-44  -1.9922930701485621e-43  -6.1507301965200726e-29  -3.0760702988986308e-29  -3.8116847318018427e-28  9.8858071935983940e-28  1.4717736639939540e-27  -5.4980407377643408e-27  -4.2341842239957669e-27  2.0850763690040492e-26  8.0706900936304384e-27  -5.9143584503135592e-26  -2.1362685528064605e-29  1.0894325487069164e-25  -8.5195600606114111e-26  1.8284949425858296e-26  4.7723155241992694e-25  -1.2583935932452091e-24  -1.7696051268077687e-24  6.8206186641628498e-24  4.9596607203867352e-24  -2.4853020659275166e-23  -9.8693815591652152e-24  -1.8529641799476171e-23  6.8563705606767793e-23  6.9861209085348902e-24  -1.3226137033225702e-22  4.6942211722595357e-23  6.7395072310381143e-23  -2.6157487061156562e-22  7.3312488748899292e-22  7.6187175514719195e-22  -3.7491675362997353e-21  -1.1693909770872486e-21  5.2720014691981039e-22  1.0356305220155532e-20  -1.1677197307690757e-21  -1.3328402455100929e-20  1.3282562556355189e-20  -2.6778332920057466e-20  -3.9698011144251196e-20  1.9995281223991146e-19  4.0798289489597227e-20  -5.0692150630492261e-19  1.4627717808633762e-19  -5.2801544612453498e-19  2.5170892534995629e-19  -7.1772289109386212e-19  2.7356130948527159e-18  1.0295518361880929e-18  4.0468987246276541e-20  -7.5256959826751425e-19  1.9309755980810616e-18  1.4063155619216517e-18  -2.5287539904240874e-20  -7.4740592801795303e-19  1.4737634548550964e-19  -1.7320679024691336e-20  1.3408813125949386e-18  -7.2900279760774835e-19  1.3247462516759961e-19  4.9850240809195598e-20  -4.5262833276095094e-20  9.2807173069155048e-20  -6.2756756742257215e-19  1.1377811767586759e-19  -4.3338026803896984e-20  4.4696032142562606e-20  -4.4684306591589904e-19  1.3920936845582291e-19  -3.4366293048019566e-20  5.4847005049326489e-21  -2.7265576194986291e-19  1.5036332137582178e-19  -5.8141953638901645e-19  8.1311865726710854e-21  6.6492874634515238e-21  8.3759722919563132e-19  -4.8397108964416656e-19  1.7178149024112751e-18  1.5136653467743959e-19  -5.1020641779819784e-18  3.2579299607652489e-18  -1.8356427728328135e-17  -4.0863089710825446e-19  5.5342827670268441e-18  -1.4921922592774643e-17  -8.1242323131057227e-19  3.0147636771458624e-17  -1.7187802927046119e-17  9.3388971806780862e-17  -2.8675603025481365e-17  9.9425235172549348e-17  -1.7362114887085792e-17  1.6132182236053764e-17  9.1289414277734484e-18  -6.9337100737219187e-17  6.9206594094427080e-18  6.8745630824425512e-19  -2.8350766672993427e-01  1.9479558060912965e-17  -4.8739388930710127e-17  2.7431460868552770e-19  5.1411593585198091e-17  -3.1696445411541346e-01  -2.4008910284698905e-17  1.0728152368593055e-16  -2.6274034665356039e-01  -2.6137158777023846e-17  7.0808170564699147e-17  -3.6805958531538593e-16  -1.3383256508853571e-16  6.5706294321661402e-18  5.2443843119400190e-17  -4.0740928334708700e-16  7.5087198201316218e-18  -2.2113045511476479e-17  8.0509474598168537e-17  -3.1118422103748126e-16  -2.1996627470372550e-16  3.4814686652817671e-17  -4.9186061833685171e-17  4.6210973309176270e-16  -3.8503013889136337e-18  2.1186050064544619e-17  -8.0806890007168237e-17  3.0672688871358892e-16  1.5237906572176594e-16  -4.7207065388272189e-18  -6.9701800986553516e-17  3.3251305096039671e-17  2.4215726117928471e-16  -2.3223056058320688e-17  -7.4838421592160295e-17  -1.3873858480192762e-16  3.9437533328935095e-16  -5.1944555531252139e-17  -6.8534051403892710e-17  -4.2174255419562073e-16  5.3493101737416368e-16  -1.9768475806284265e-15  -5.8565625297549175e-16  -7.4653946312536746e-17  6.2238230063510654e-16  -2.4799798091909310e-15  -3.8055903887156143e-16  -1.2295873202354203e-16  5.9674273973568743e-16  -3.0287065730393841e-15  2.1315375931898310e-16  3.7337702237526010e-15  -2.7554474586455001e-15  1.2078403475989751e-14  -6.2856992426952081e-16  7.4634815014416012e-16  -1.2716722399529180e-15  9.7803547100415899e-15  -2.9916600921052617e-15  7.0003175329190620e-15  1.3438297944514899e-15  -1.7266510222625782e-14  6.0790883579581781e-15  -1.4698582320966259e-14  -3.6838456676289106e-15  -8.7537757654383124e-16  3.9943447474223876e-15  -2.7360744718194999e-14  1.0264858554029335e-14  -4.6422203561068982e-14  1.3556383294287797e-14  -5.2679735891240498e-14  1.4742249412280584e-14  -5.8463631032111707e-14  1.7420875017338639e-14  -7.2094527158863003e-14  2.1105732642704306e-14  -8.1667119324633922e-14  2.1089791637759964e-14  -6.9331030753851836e-14  1.4399321027526484e-14  -3.4722228426794575e-14  4.2958214230206835e-15  -3.5059546591036239e-16  -2.4050458541642696e-15  1.2474818265236193e-14  -2.8074355939092315e-15  5.8418644988540066e-15  -4.0505053775314822e-16  -1.5612591522693887e-15  4.4594724740958715e-16  -8.6919399166964412e-17  -3.7882582215939979e-17  4.0374855289094760e-17  -4.4677877076071469e-18  -8.6918558927469819e-18  2.7098021711106386e-18  1.0415711265850018e-18  -6.4180868807858818e-19  2.6647745194944452e-20  -7.9625379165859703e-19  8.8973615949770348e-20  -3.8021598935590417e-15  1.9672455553066481e-19  -3.2609965187353005e-19  -5.0226466849990230e-21  2.2866764180068761e-19  -5.4330535577830345e-20  7.7218525345870996e-20  3.2700945458081034e-2