<?xml version="1.0"?>
<VTKFile type="UnstructuredGrid"  version="0.1"  >
<UnstructuredGrid>
<Piece  NumberOfPoints="11902" NumberOfCells="23402">
<Points>
<DataArray  type="Float64"  NumberOfComponents="3"  format="ascii">-5 -5 0  5 -5 0  5 5 0  -5 5 0  1.222952155949677 0.001367851683446856 0  -4.9 -5 0  -4.8 -5 0  -4.7 -5 0  -4.6 -5 0  -4.5 -5 0  -4.4 -5 0  -4.3 -5 0  -4.2 -5 0  -4.1 -5 0  -4 -5 0  -3.9 -5 0  -3.8 -5 0  -3.7 -5 0  -3.6 -5 0  -3.5 -5 0  -3.4 -5 0  -3.3 -5 0  -3.2 -5 0  -3.1 -5 0  -3 -5 0  -2.9 -5 0  -2.8 -5 0  -2.7 -5 0  -2.6 -5 0  -2.5 -5 0  -2.4 -5 0  -2.3 -5 0  -2.2 -5 0  -2.1 -5 0  -2 -5 0  -1.9 -5 0  -1.8 -5 0  -1.7 -5 0  -1.6 -5 0  -1.5 -5 0  -1.4 -5 0  -1.3 -5 0  -1.2 -5 0  -1.1 -5 0  -1 -5 0  -0.9000000000000004 -5 0  -0.7999999999999998 -5 0  -0.7000000000000002 -5 0  -0.5999999999999996 -5 0  -0.5 -5 0  -0.4000000000000004 -5 0  -0.2999999999999998 -5 0  -0.2000000000000002 -5 0  -0.09999999999999964 -5 0  0 -5 0  0.09999999999999964 -5 0  0.2000000000000002 -5 0  0.2999999999999998 -5 0  0.4000000000000004 -5 0  0.5 -5 0  0.5999999999999996 -5 0  0.7000000000000002 -5 0  0.7999999999999998 -5 0  0.9000000000000004 -5 0  1 -5 0  1.1 -5 0  1.2 -5 0  1.3 -5 0  1.4 -5 0  1.5 -5 0  1.6 -5 0  1.7 -5 0  1.8 -5 0  1.9 -5 0  2 -5 0  2.1 -5 0  2.2 -5 0  2.3 -5 0  2.4 -5 0  2.5 -5 0  2.6 -5 0  2.7 -5 0  2.8 -5 0  2.9 -5 0  3 -5 0  3.1 -5 0  3.199999999999999 -5 0  3.300000000000001 -5 0  3.4 -5 0  3.5 -5 0  3.6 -5 0  3.699999999999999 -5 0  3.800000000000001 -5 0  3.9 -5 0  4 -5 0  4.1 -5 0  4.199999999999999 -5 0  4.300000000000001 -5 0  4.4 -5 0  4.5 -5 0  4.6 -5 0  4.699999999999999 -5 0  4.800000000000001 -5 0  4.9 -5 0  5 -4.9 0  5 -4.8 0  5 -4.7 0  5 -4.6 0  5 -4.5 0  5 -4.4 0  5 -4.3 0  5 -4.2 0  5 -4.1 0  5 -4 0  5 -3.9 0  5 -3.8 0  5 -3.7 0  5 -3.6 0  5 -3.5 0  5 -3.4 0  5 -3.3 0  5 -3.2 0  5 -3.1 0  5 -3 0  5 -2.9 0  5 -2.8 0  5 -2.7 0  5 -2.6 0  5 -2.5 0  5 -2.4 0  5 -2.3 0  5 -2.2 0  5 -2.1 0  5 -2 0  5 -1.9 0  5 -1.8 0  5 -1.7 0  5 -1.6 0  5 -1.5 0  5 -1.4 0  5 -1.3 0  5 -1.2 0  5 -1.1 0  5 -1 0  5 -0.9000000000000004 0  5 -0.7999999999999998 0  5 -0.7000000000000002 0  5 -0.5999999999999996 0  5 -0.5 0  5 -0.4000000000000004 0  5 -0.2999999999999998 0  5 -0.2000000000000002 0  5 -0.09999999999999964 0  5 0 0  5 0.09999999999999964 0  5 0.2000000000000002 0  5 0.2999999999999998 0  5 0.4000000000000004 0  5 0.5 0  5 0.5999999999999996 0  5 0.7000000000000002 0  5 0.7999999999999998 0  5 0.9000000000000004 0  5 1 0  5 1.1 0  5 1.2 0  5 1.3 0  5 1.4 0  5 1.5 0  5 1.6 0  5 1.7 0  5 1.8 0  5 1.9 0  5 2 0  5 2.1 0  5 2.2 0  5 2.3 0  5 2.4 0  5 2.5 0  5 2.6 0  5 2.7 0  5 2.8 0  5 2.9 0  5 3 0  5 3.1 0  5 3.199999999999999 0  5 3.300000000000001 0  5 3.4 0  5 3.5 0  5 3.6 0  5 3.699999999999999 0  5 3.800000000000001 0  5 3.9 0  5 4 0  5 4.1 0  5 4.199999999999999 0  5 4.300000000000001 0  5 4.4 0  5 4.5 0  5 4.6 0  5 4.699999999999999 0  5 4.800000000000001 0  5 4.9 0  4.9 5 0  4.8 5 0  4.7 5 0  4.6 5 0  4.5 5 0  4.4 5 0  4.3 5 0  4.2 5 0  4.1 5 0  4 5 0  3.9 5 0  3.8 5 0  3.7 5 0  3.6 5 0  3.5 5 0  3.4 5 0  3.3 5 0  3.2 5 0  3.1 5 0  3 5 0  2.9 5 0  2.8 5 0  2.7 5 0  2.6 5 0  2.5 5 0  2.4 5 0  2.3 5 0  2.2 5 0  2.1 5 0  2 5 0  1.9 5 0  1.8 5 0  1.7 5 0  1.6 5 0  1.5 5 0  1.4 5 0  1.3 5 0  1.2 5 0  1.1 5 0  1 5 0  0.9000000000000004 5 0  0.7999999999999998 5 0  0.7000000000000002 5 0  0.5999999999999996 5 0  0.5 5 0  0.4000000000000004 5 0  0.2999999999999998 5 0  0.2000000000000002 5 0  0.09999999999999964 5 0  0 5 0  -0.09999999999999964 5 0  -0.2000000000000002 5 0  -0.2999999999999998 5 0  -0.4000000000000004 5 0  -0.5 5 0  -0.5999999999999996 5 0  -0.7000000000000002 5 0  -0.7999999999999998 5 0  -0.9000000000000004 5 0  -1 5 0  -1.1 5 0  -1.2 5 0  -1.3 5 0  -1.4 5 0  -1.5 5 0  -1.6 5 0  -1.7 5 0  -1.8 5 0  -1.9 5 0  -2 5 0  -2.1 5 0  -2.2 5 0  -2.3 5 0  -2.4 5 0  -2.5 5 0  -2.6 5 0  -2.7 5 0  -2.8 5 0  -2.9 5 0  -3 5 0  -3.1 5 0  -3.199999999999999 5 0  -3.300000000000001 5 0  -3.4 5 0  -3.5 5 0  -3.6 5 0  -3.699999999999999 5 0  -3.800000000000001 5 0  -3.9 5 0  -4 5 0  -4.1 5 0  -4.199999999999999 5 0  -4.300000000000001 5 0  -4.4 5 0  -4.5 5 0  -4.6 5 0  -4.699999999999999 5 0  -4.800000000000001 5 0  -4.9 5 0  -5 4.9 0  -5 4.8 0  -5 4.7 0  -5 4.6 0  -5 4.5 0  -5 4.4 0  -5 4.3 0  -5 4.2 0  -5 4.1 0  -5 4 0  -5 3.9 0  -5 3.8 0  -5 3.7 0  -5 3.6 0  -5 3.5 0  -5 3.4 0  -5 3.3 0  -5 3.2 0  -5 3.1 0  -5 3 0  -5 2.9 0  -5 2.8 0  -5 2.7 0  -5 2.6 0  -5 2.5 0  -5 2.4 0  -5 2.3 0  -5 2.2 0  -5 2.1 0  -5 2 0  -5 1.9 0  -5 1.8 0  -5 1.7 0  -5 1.6 0  -5 1.5 0  -5 1.4 0  -5 1.3 0  -5 1.2 0  -5 1.1 0  -5 1 0  -5 0.9000000000000004 0  -5 0.7999999999999998 0  -5 0.7000000000000002 0  -5 0.5999999999999996 0  -5 0.5 0  -5 0.4000000000000004 0  -5 0.2999999999999998 0  -5 0.2000000000000002 0  -5 0.09999999999999964 0  -5 0 0  -5 -0.09999999999999964 0  -5 -0.2000000000000002 0  -5 -0.2999999999999998 0  -5 -0.4000000000000004 0  -5 -0.5 0  -5 -0.5999999999999996 0  -5 -0.7000000000000002 0  -5 -0.7999999999999998 0  -5 -0.9000000000000004 0  -5 -1 0  -5 -1.1 0  -5 -1.2 0  -5 -1.3 0  -5 -1.4 0  -5 -1.5 0  -5 -1.6 0  -5 -1.7 0  -5 -1.8 0  -5 -1.9 0  -5 -2 0  -5 -2.1 0  -5 -2.2 0  -5 -2.3 0  -5 -2.4 0  -5 -2.5 0  -5 -2.6 0  -5 -2.7 0  -5 -2.8 0  -5 -2.9 0  -5 -3 0  -5 -3.1 0  -5 -3.199999999999999 0  -5 -3.300000000000001 0  -5 -3.4 0  -5 -3.5 0  -5 -3.6 0  -5 -3.699999999999999 0  -5 -3.800000000000001 0  -5 -3.9 0  -5 -4 0  -5 -4.1 0  -5 -4.199999999999999 0  -5 -4.300000000000001 0  -5 -4.4 0  -5 -4.5 0  -5 -4.6 0  -5 -4.699999999999999 0  -5 -4.800000000000001 0  -5 -4.9 0  1.216537821490589 0.09806343238861964 0  1.19697068008051 0.195649315310842 0  1.164677315510974 0.2925507420747037 0  1.12307824239109 0.3831939280891452 0  1.068619821709445 0.4737156882756589 0  1.005024045174555 0.558629812143752 0  0.9300882187233219 0.6384009068200016 0  0.846100350229493 0.7115150753853637 0  0.755383632650924 0.7769602270917439 0  0.6556157171547642 0.8351292388215037 0  0.5485297239043273 0.8866489252409142 0  0.438130750200047 0.9290473438125417 0  0.325751311820632 0.9619353393960876 0  0.2063203235151892 0.984096788930477 0  0.08922401373077385 1.000165524706554 0  -0.02770754706703851 1.00305629480887 0  -0.1450541852574732 0.991986590662389 0  -0.2659986784724107 0.9739733106236365 0  -0.3824592449988472 0.9483585875027576 0  -0.4928807462268245 0.9119510018638003 0  -0.5992852049872104 0.8660230725665026 0  -0.7003225332663677 0.8114093817639787 0  -0.7938780845025418 0.7478931603415103 0  -0.8817431016641416 0.6765663212726272 0  -0.9628224379489432 0.5981078575226468 0  -1.033093253318399 0.5161946012877038 0  -1.093282896028003 0.4296856023219741 0  -1.14232640872162 0.3379658815813846 0  -1.178926296372419 0.2449316628761953 0  -1.203232296724699 0.1492700357409114 0  -1.215431228590164 0.0507099448947735 0  -1.215403026725352 -0.04872924936098916 0  -1.203106107360128 -0.1468443994593058 0  -1.179278074059223 -0.2423827678692987 0  -1.141314739427872 -0.3377818441024467 0  -1.093564575277954 -0.4287555474830583 0  -1.034249011918985 -0.5155012895206866 0  -0.9646741014230136 -0.5968805044182128 0  -0.8840959551805878 -0.6740718520615827 0  -0.796097274698194 -0.7441105659828554 0  -0.7009771274982955 -0.8051971576017619 0  -0.5992227451682961 -0.859172357686288 0  -0.4895650086165363 -0.9069612043837686 0  -0.378115042942379 -0.9454004932845017 0  -0.262803840447745 -0.9729445424647187 0  -0.143682726679465 -0.9912760503418974 0  -0.02769715918890714 -1.0021289739109 0  0.08972431221792476 -0.9967507490452797 0  0.2099864736216075 -0.981488778820086 0  0.3277491978049826 -0.9602802260866615 0  0.4419207483051756 -0.927644886915258 0  0.5505006222549428 -0.8857234975934738 0  0.6564220362640255 -0.834936505808326 0  0.755494208491108 -0.7780789818695132 0  0.8461454909725845 -0.712361224525715 0  0.929530380475515 -0.637979949818957 0  1.003205826670268 -0.5579952150089688 0  1.068456609789501 -0.4730123784888485 0  1.124056572000064 -0.3832399430418409 0  1.166242346049504 -0.2908104284453951 0  1.197355066629286 -0.1947645367877497 0  1.216612407421991 -0.09760861127884106 0  -2.448687267729739 4.918344590318442 0  -2.448572742090832 -4.910743912631547 0  4.91067383550959 2.448071795283989 0  4.918776860266063 -2.449517248914288 0  2.44632486311431 -4.896018928240909 0  2.440753147467017 4.899772032764459 0  -4.910698965732776 -2.448096335137108 0  -4.910696734275115 2.448100194546412 0  -1.748646119536328 4.911335418517753 0  -1.744427214805558 -4.914763808586561 0  4.920917230399069 1.744229961923672 0  4.90949126926805 -1.74801441376917 0  -4.909781670695104 -1.747746079911927 0  -4.9106015109068 1.74748905940516 0  1.74592712958166 4.905215715417457 0  1.747356865224751 -4.893402436133843 0  -1.148930744059587 4.909187864687036 0  -1.129778236431346 -4.917071896227617 0  -4.909583024553728 -1.148042766225586 0  -4.909402581587759 1.147843037174147 0  1.14391973075217 -4.913271649260625 0  1.148939607663726 4.909175635267292 0  4.909726159274193 1.146319129939352 0  4.920509757892681 -1.152087650066859 0  -0.5467154967012535 -4.910411030919501 0  -0.5464935909553587 4.919059439534481 0  -4.908383004242729 -0.5487724297357282 0  -4.908407174729436 0.5473294276895092 0  4.907709828747332 -0.5490920493316139 0  4.919309795954987 0.5458406747711326 0  0.5425024593443059 -4.897345502025099 0  0.5512231240804403 4.915895967662252 0  -4.912046112675061 -3.048424125878983 0  4.918606814263996 3.046431831585148 0  4.911555574446041 -3.04840188558015 0  -4.912893103409808 3.045514629755966 0  3.055399556271407 -4.917537546914911 0  -3.048737835711167 -4.911483865020981 0  3.052302786594624 4.913558874719061 0  -3.048182741582337 4.912372372015509 0  -4.907516329503295 -0.04991408532069032 0  0.04512277366446829 -4.912364359534465 0  0.049570742305035 4.919361938820756 0  4.914539854826528 -0.05129577240413488 0  3.545697391034598 -4.919134923577039 0  -3.548984671258957 4.912043322365068 0 
[...]
<PointData  Scalars="f_27"> 
<DataArray  type="Float64"  Name="f_27"  format="ascii">0.0000000000000000e+00  0.0000000000000000e+00  0.0000000000000000e+00  0.0000000000000000e+00  9.1060827270951650e-01  0.0000000000000000e+00  0.0000000000000000e+00  0.0000000000000000e+00  0.0000000000000000e+00  0.0000000000000000e+00  0.0000000000000000e+00  0.0000000000000000e+00  0.0000000000000000e+00  0.0000000000000000e+00  0.0000000000000000e+00  0.0000000000000000e+00  0.0000000000000000e+00  0.0000000000000000e+00  0.0000000000000000e+00  0.0000000000000000e+00  0.0000000000000000e+00  0.0000000000000000e+00  0.0000000000000000e+00  0.0000000000000000e+00  0.0000000000000000e+00  0.0000000000000000e+00  0.0000000000000000e+00  0.0000000000000000e+00  0.0000000000000000e+00  0.0000000000000000e+00  0.0000000000000000e+00  0.0000000000000000e+00  0.0000000000000000e+00  0.0000000000000000e+00  0.0000000000000000e+00  0.0000000000000000e+00  0.0000000000000000e+00  0.0000000000000000e+00  0.0000000000000000e+00  0.0000000000000000e+00  0.0000000000000000e+00  0.0000000000000000e+00  0.0000000000000000e+00  0.0000000000000000e+00  0.0000000000000000e+00  0.0000000000000000e+00  0.0000000000000000e+00  0.0000000000000000e+00  0.0000000000000000e+00  0.0000000000000000e+00  0.0000000000000000e+00  0.0000000000000000e+00  0.0000000000000000e+00  0.0000000000000000e+00  0.0000000000000000e+00  0.0000000000000000e+00  0.0000000000000000e+00  0.0000000000000000e+00  0.0000000000000000e+00  0.0000000000000000e+00  0.0000000000000000e+00  0.0000000000000000e+00  0.0000000000000000e+00  0.0000000000000000e+00  0.0000000000000000e+00  0.0000000000000000e+00  0.0000000000000000e+00  0.0000000000000000e+00  0.0000000000000000e+00  0.0000000000000000e+00  0.0000000000000000e+00  0.0000000000000000e+00  0.0000000000000000e+00  0.0000000000000000e+00  0.0000000000000000e+00  0.0000000000000000e+00  0.0000000000000000e+00  0.0000000000000000e+00  0.0000000000000000e+00  0.0000000000000000e+00  0.0000000000000000e+00  0.0000000000000000e+00  0.0000000000000000e+00  0.0000000000000000e+00  0.0000000000000000e+00  0.0000000000000000e+00  0.0000000000000000e+00  0.0000000000000000e+00  0.0000000000000000e+00  0.0000000000000000e+00  0.0000000000000000e+00  0.0000000000000000e+00  0.0000000000000000e+00  0.0000000000000000e+00  0.0000000000000000e+00  0.0000000000000000e+00  0.0000000000000000e+00  0.0000000000000000e+00  0.0000000000000000e+00  0.0000000000000000e+00  0.0000000000000000e+00  0.0000000000000000e+00  0.0000000000000000e+00  0.0000000000000000e+00  0.0000000000000000e+00  0.0000000000000000e+00  0.0000000000000000e+00  0.0000000000000000e+00  0.0000000000000000e+00  0.0000000000000000e+00  0.0000000000000000e+00  0.0000000000000000e+00  0.0000000000000000e+00  0.0000000000000000e+00  0.0000000000000000e+00  0.0000000000000000e+00  0.0000000000000000e+00  0.0000000000000000e+00  0.0000000000000000e+00  0.0000000000000000e+00  0.0000000000000000e+00  0.0000000000000000e+00  0.0000000000000000e+00  0.0000000000000000e+00  0.0000000000000000e+00  0.0000000000000000e+00  0.0000000000000000e+00  0.0000000000000000e+00  0.0000000000000000e+00  0.0000000000000000e+00  0.0000000000000000e+00  0.0000000000000000e+00  0.0000000000000000e+00  0.0000000000000000e+00  0.0000000000000000e+00  0.0000000000000000e+00  0.0000000000000000e+00  0.0000000000000000e+00  0.0000000000000000e+00  0.0000000000000000e+00  0.0000000000000000e+00  0.0000000000000000e+00  0.0000000000000000e+00  0.0000000000000000e+00  0.0000000000000000e+00  0.0000000000000000e+00  0.0000000000000000e+00  0.0000000000000000e+00  0.0000000000000000e+00  0.0000000000000000e+00  0.0000000000000000e+00  0.0000000000000000e+00  0.0000000000000000e+00  0.0000000000000000e+00  0.0000000000000000e+00  0.0000000000000000e+00  0.0000000000000000e+00  0.0000000000000000e+00  0.0000000000000000e+00  0.0000000000000000e+00  0.0000000000000000e+00  0.0000000000000000e+00  0.0000000000000000e+00  0.0000000000000000e+00  0.0000000000000000e+00  0.0000000000000000e+00  0.0000000000000000e+00  0.0000000000000000e+00  0.0000000000000000e+00  0.0000000000000000e+00  0.0000000000000000e+00  0.0000000000000000e+00  0.0000000000000000e+00  0.0000000000000000e+00  0.0000000000000000e+00  0.0000000000000000e+00  0.0000000000000000e+00  0.0000000000000000e+00  0.0000000000000000e+00  0.0000000000000000e+00  0.0000000000000000e+00  0.0000000000000000e+00  0.0000000000000000e+00  0.0000000000000000e+00  0.0000000000000000e+00  0.0000000000000000e+00  0.0000000000000000e+00  0.0000000000000000e+00  0.0000000000000000e+00  0.0000000000000000e+00  0.0000000000000000e+00  0.0000000000000000e+00  0.0000000000000000e+00  0.0000000000000000e+00  0.0000000000000000e+00  0.0000000000000000e+00  0.0000000000000000e+00  0.0000000000000000e+00  0.0000000000000000e+00  0.0000000000000000e+00  0.0000000000000000e+00  0.0000000000000000e+00  0.0000000000000000e+00  0.0000000000000000e+00  0.0000000000000000e+00  0.0000000000000000e+00  0.0000000000000000e+00  0.0000000000000000e+00  0.0000000000000000e+00  0.0000000000000000e+00  0.0000000000000000e+00  0.0000000000000000e+00  0.0000000000000000e+00  0.0000000000000000e+00  0.0000000000000000e+00  0.0000000000000000e+00  0.0000000000000000e+00  0.0000000000000000e+00  0.0000000000000000e+00  0.0000000000000000e+00  0.0000000000000000e+00  0.0000000000000000e+00  0.0000000000000000e+00  0.0000000000000000e+00  0.0000000000000000e+00  0.0000000000000000e+00  0.0000000000000000e+00  0.0000000000000000e+00  0.0000000000000000e+00  0.0000000000000000e+00  0.0000000000000000e+00  0.0000000000000000e+00  0.0000000000000000e+00  0.0000000000000000e+00  0.0000000000000000e+00  0.0000000000000000e+00  0.0000000000000000e+00  0.0000000000000000e+00  0.0000000000000000e+00  0.0000000000000000e+00  0.0000000000000000e+00  0.0000000000000000e+00  0.0000000000000000e+00  0.0000000000000000e+00  0.0000000000000000e+00  0.0000000000000000e+00  0.0000000000000000e+00  0.0000000000000000e+00  0.0000000000000000e+00  0.0000000000000000e+00  0.0000000000000000e+00  0.0000000000000000e+00  0.0000000000000000e+00  0.0000000000000000e+00  0.0000000000000000e+00  0.0000000000000000e+00  0.0000000000000000e+00  0.0000000000000000e+00  0.0000000000000000e+00  0.0000000000000000e+00  0.0000000000000000e+00  0.0000000000000000e+00  0.0000000000000000e+00  0.0000000000000000e+00  0.0000000000000000e+00  0.0000000000000000e+00  0.0000000000000000e+00  0.0000000000000000e+00  0.0000000000000000e+00  0.0000000000000000e+00  0.0000000000000000e+00  0.0000000000000000e+00  0.0000000000000000e+00  0.0000000000000000e+00  0.0000000000000000e+00  0.0000000000000000e+00  0.0000000000000000e+00  0.0000000000000000e+00  0.0000000000000000e+00  0.0000000000000000e+00  0.0000000000000000e+00  0.0000000000000000e+00  0.0000000000000000e+00  0.0000000000000000e+00  0.0000000000000000e+00  0.0000000000000000e+00  0.0000000000000000e+00  0.0000000000000000e+00  0.0000000000000000e+00  0.0000000000000000e+00  0.0000000000000000e+00  0.0000000000000000e+00  0.0000000000000000e+00  0.0000000000000000e+00  0.0000000000000000e+00  0.0000000000000000e+00  0.0000000000000000e+00  0.0000000000000000e+00  0.0000000000000000e+00  0.0000000000000000e+00  0.0000000000000000e+00  0.0000000000000000e+00  0.0000000000000000e+00  0.0000000000000000e+00  0.0000000000000000e+00  0.0000000000000000e+00  0.0000000000000000e+00  0.0000000000000000e+00  0.0000000000000000e+00  0.0000000000000000e+00  0.0000000000000000e+00  0.0000000000000000e+00  0.0000000000000000e+00  0.0000000000000000e+00  0.0000000000000000e+00  0.0000000000000000e+00  0.0000000000000000e+00  0.0000000000000000e+00  0.0000000000000000e+00  0.0000000000000000e+00  0.0000000000000000e+00  0.0000000000000000e+00  0.0000000000000000e+00  0.0000000000000000e+00  0.0000000000000000e+00  0.0000000000000000e+00  0.0000000000000000e+00  0.0000000000000000e+00  0.0000000000000000e+00  0.0000000000000000e+00  0.0000000000000000e+00  0.0000000000000000e+00  0.0000000000000000e+00  0.0000000000000000e+00  0.0000000000000000e+00  0.0000000000000000e+00  0.0000000000000000e+00  0.0000000000000000e+00  0.0000000000000000e+00  0.0000000000000000e+00  0.0000000000000000e+00  0.0000000000000000e+00  0.0000000000000000e+00  0.0000000000000000e+00  0.0000000000000000e+00  0.0000000000000000e+00  0.0000000000000000e+00  0.0000000000000000e+00  0.0000000000000000e+00  0.0000000000000000e+00  0.0000000000000000e+00  0.0000000000000000e+00  0.0000000000000000e+00  0.0000000000000000e+00  0.0000000000000000e+00  0.0000000000000000e+00  0.0000000000000000e+00  0.0000000000000000e+00  0.0000000000000000e+00  0.0000000000000000e+00  0.0000000000000000e+00  0.0000000000000000e+00  0.0000000000000000e+00  0.0000000000000000e+00  0.0000000000000000e+00  0.0000000000000000e+00  0.0000000000000000e+00  0.0000000000000000e+00  0.0000000000000000e+00  0.0000000000000000e+00  0.0000000000000000e+00  0.0000000000000000e+00  0.0000000000000000e+00  0.0000000000000000e+00  0.0000000000000000e+00  0.0000000000000000e+00  0.0000000000000000e+00  0.0000000000000000e+00  0.0000000000000000e+00  0.0000000000000000e+00  0.0000000000000000e+00  0.0000000000000000e+00  0.0000000000000000e+00  0.0000000000000000e+00  0.0000000000000000e+00  0.0000000000000000e+00  0.0000000000000000e+00  0.0000000000000000e+00  0.0000000000000000e+00  0.0000000000000000e+00  0.0000000000000000e+00  0.0000000000000000e+00  0.0000000000000000e+00  0.0000000000000000e+00  0.0000000000000000e+00  0.0000000000000000e+00  0.0000000000000000e+00  0.0000000000000000e+00  0.0000000000000000e+00  0.0000000000000000e+00  0.0000000000000000e+00  9.0747678563019674e-01  9.1381796869259635e-01  9.3211507914946390e-01  9.3296356490686005e-01  9.2136948930657925e-01  8.9746758396428905e-01  9.0305178045886225e-01  9.2472667162976174e-01  9.1614301717941404e-01  8.9703573309012219e-01  9.0677204889854046e-01  9.0843159977623000e-01  8.9452961966279754e-01  9.1846797996082563e-01  9.1695319071179304e-01  9.1698845472711465e-01  9.2945351383285968e-01  9.1634449286462016e-01  9.0681317265784878e-01  9.1775046639449820e-01  9.1383462767544532e-01  9.1695328901097450e-01  9.1200926031293661e-01  9.0425530610543869e-01  9.1306270851533300e-01  9.2217907184178427e-01  9.1019647052352715e-01  9.1565845139269275e-01  9.2835682369308681e-01  9.2199447070019569e-01  9.1626727410085085e-01  9.1347031827418257e-01  9.1704127852611428e-01  8.8568111522279225e-01  9.1743285777274874e-01  9.0643951867223194e-01  9.1500611031167367e-01  9.0310320053615833e-01  9.0502716117269977e-01  9.1656842205077049e-01  9.3455889167324913e-01  8.9669229211734391e-01  9.2006633952601746e-01  9.0383493110628144e-01  9.1137641975432615e-01  9.1603362254601273e-01  8.7732639863428119e-01  8.9597167655892540e-01  9.1387347751919557e-01  9.0971343577916797e-01  9.1594178692875050e-01  9.2507947058714968e-01  9.1650108457334212e-01  8.9948891204520398e-01  9.1068100628840620e-01  9.1447459478027149e-01  9.2327989525293108e-01  9.1475726107648525e-01  8.8823627719481368e-01  9.0616562756199803e-01  9.0919641187330236e-01  9.0438991107672773e-01  -8.0540151246361945e-32  6.2661032348665212e-32  1.1730713846048574e-34  2.0380562306868156e-34  9.8634305348422999e-32  1.4342907387636402e-31  4.9339637098266362e-36  -1.0999605038514077e-35  -1.9692082983257487e-31  -6.7614514081670240e-32  2.7380462229043334e-32  4.0466460241995644e-32  2.2483279293780413e-32  2.7434177115570406e-32  1.4363853552544756e-30  7.4748468669881964e-31  -2.2644178217311518e-30  3.1891914129493213e-32  -3.2164843904014014e-30  -4.5053453782887490e-30  -7.1195328142478951e-31  -8.3695940711701462e-31  -2.0621593621097201e-30  -2.7144121370067607e-30  -1.4842854502888778e-30  -1.1919201869392486e-30  -3.4968923135354666e-29  5.3048990159969487e-30  -1.6670705587106487e-29  -8.9049713191818410e-29  3.2628414277619549e-30  -8.3196085754581729e-31  -1.9155450293949196e-36  1.3197766047616274e-36  1.0728650029216819e-36  -1.8778967512716517e-36  1.8448227309229058e-33  1.1476405139717982e-33  1.0204737788135326e-33  1.1877285325401954e-33  -3.9475778461226309e-28  4.3702877257284331e-30  -2.4292746854266643e-31  7.0613635932642163e-28  4.3064215496887045e-36  2.6372417250736131e-36  5.5284263230582726e-36  -1.7161122389800244e-38  -2.8812768788405451e-40  -1.9225450762613910e-38  5.4937520690553646e-39  -8.3535842060793398e-37  3.7269632594990172e-40  -6.5923175762478041e-38  -1.3034769608860702e-38  -5.7529036374725386e-40  -7.0224291443706101e-38  5.1275791739495136e-40  -3.7747365531090321e-38  -7.6970817622940473e-40  -1.7162808097892705e-40  -2.0593861615185315e-40  -1.7269663919380631e-40  -6.1307327772449830e-42  -1.5264372173395492e-42  1.8882259912574464e-41  2.4048981606823319e-41  -2.1307251017498871e-40  6.7854558328377059e-28  9.8863162658842522e-31  -6.2013274677661016e-31  6.4088966250701813e-28  1.1035639517543362e-30  6.7281768666569165e-31  3.6457733379123287e-30  2.9226060685711225e-30  7.1176299732057695e-31  7.0549732964320792e-31  -7.1839240295837358e-31  -3.9582574659021757e-30  -7.3775218252073713e-31  -2.0525757030070719e-31  1.4419250116359752e-29  2.2901685711159526e-29  -1.4793165312937427e-31  7.9031732956365532e-31  -3.3768106534530257e-31  3.0109437401196504e-31  -8.6205040224894667e-31  -7.1462190248598295e-31  -7.0492301570727486e-33  -6.3603909513435311e-33  -1.6694446299625751e-31  -1.7943137261731844e-31  3.6986157263839597e-33  3.7029539009162702e-33  1.6776878630694198e-35  -6.8246984607438352e-33  1.2283709294592785e-32  -1.6271662343652690e-35  3.7129547770095870e-33  -1.6396606320024496e-35  1.5482639686046683e-35  1.5017711484855515e-32  8.8953113821423629e-43  3.3813312722939821e-42  -6.8243957405727314e-43  -1.2467998789151515e-42  -3.8493016308715099e-43  -9.2830670943571773e-43  1.4217386230963593e-42  1.0705360668746509e-42  1.3465576029031077e-28  6.5909667604994592e-30  1.2074785197358288e-30  7.3546157207619610e-28  2.3446600313432596e-32  -8.0038293836797783e-34  -9.4572986027473706e-34  -6.3915692891237025e-32  9.2482116302215317e-34  6.9658263920888522e-32  1.2429471229234922e-31  8.2058676414031871e-34  -2.5963128729487729e-37  -3.8812697342957049e-34  -1.7547246871639085e-34  -1.3383813430352661e-38  -2.0747620184860675e-37  -2.7234331123627408e-37  -2.3490831440909436e-34  5.0068853440622290e-38  1.2805327800307549e-39  -8.0182235444761720e-41  -7.1095730589360903e-37  -1.5025936743071930e-39  -2.4363576052301055e-37  -1.4086320339801013e-39  4.4559363556107650e-39  -5.1708812192493595e-41  -3.4063737302035609e-37  -1.9409268486799225e-39  -4.6383295832553197e-41  -6.8929739279474321e-41  4.1420943364715291e-39  -2.7903146130817915e-41  -1.6582419111373371e-37  -1.7613076374412684e-39  -3.3780035822641424e-43  1.5482772771998777e-43  -2.0253536957208882e-43  -4.9668244251154071e-43  -1.7138798575107970e-28  1.3252072278275180e-29  -8.8448164382201635e-28  2.1261489446707326e-27  3.5741777615207882e-27  -1.2753707555036497e-26  -1.0898297268650681e-26  5.0611204805304422e-26  2.3802355820978124e-26  -1.5238215259076269e-25  -1.9695831517527909e-26  3.2452321631740974e-25  -1.3331639299743629e-25  -2.3515227612094250e-25  9.3057789973929554e-25  -2.0169775571716216e-24  -3.7220963681744003e-24  1.3381360759012523e-23  1.0966263642108751e-23  -5.2456982085427758e-23  -2.3060696371934900e-23  -3.0372150151592953e-23  1.5226715463537667e-22  2.0030705546485476e-23  -3.1073571912581848e-22  9.5994068147819774e-23  2.1188766631568251e-22  -5.8699199403986742e-22  1.5336780295005239e-21  1.7863096640912586e-21  -8.4922648812259228e-21  -2.9168665029069954e-21  2.0073652777741027e-21  2.4462729953363703e-20  -2.1212699082403938e-21  -3.3889145104958552e-20  3.0144831593469058e-20  -5.4894289397294502e-20  -9.3466996086639405e-20  4.5854991826945959e-19  1.0250582574066194e-19  -1.2007924025055329e-18  3.2409058755606196e-19  -1.1408136614157003e-18  6.8401257040938272e-19  -1.6619690113243439e-18  6.1874497006567010e-18  2.4558511867017799e-18  7.8847683640817825e-20  -1.7360432433617381e-18  4.2899970429195994e-18  3.3604657621853469e-18  -8.1804865660690872e-20  -1.7159626130413320e-18  3.4853670555613342e-19  -7.9815618920528364e-20  3.2989080826892145e-18  -1.6831105031356570e-18  3.1985105648817433e-19  6.7329314529594541e-20  -1.0118120493552550e-19  2.3561597804206711e-19  -1.5026401319830833e-18  2.3844002741693663e-19  -1.0142598591378219e-19  1.1980353397533401e-19  -1.0960619048399374e-18  3.1722685085880645e-19  -8.2321321150173146e-20  2.0434391623477317e-20  -6.4855142759477828e-19  3.2841264669483370e-19  -1.1278448005113123e-18  1.7822284656814284e-20  -9.2617505560869041e-20  2.4027255541558425e-18  -1.1846852885460900e-18  3.7163323064224959e-18  6.3408239334959192e-19  -1.3506441082610211e-17  8.0077657196021872e-18  -4.3310419440096987e-17  -1.0677989131334603e-18  1.2411564606191367e-17  -2.9902196602076777e-17  -4.0763735246507438e-18  8.0938789617984614e-17  -4.3147705178816558e-17  2.2859861157163556e-16  -6.9254736866021716e-17  2.3863233221805941e-16  -4.1953347430957129e-17  4.2346833711858271e-17  2.0117739727691869e-17  -1.5863127413676398e-16  1.6639850451834875e-17  5.2859798410079326e-18  -2.6798373200325820e-01  4.5554484701864376e-17  -1.1936307781720885e-16  3.8943297872654886e-18  1.0238440944596219e-16  -2.8067040608252775e-01  -5.0739591777662360e-17  2.3210886130447286e-16  -2.5797513558782248e-01  -5.7548065142832779e-17  1.5947761516159908e-16  -8.1058690197348789e-16  -3.1658274376145797e-16  2.0679871797044259e-17  9.6262800506213546e-17  -9.8330314474275842e-16  1.6239845321468091e-17  -4.5507036842259958e-17  1.7310652198443337e-16  -6.4244863047844411e-16  -4.8886419282631207e-16  7.9476870220416583e-17  -1.1687137771839872e-16  1.0594845214178526e-15  2.0028005659215548e-18  4.6212165788487184e-17  -1.7639726259227761e-16  6.8339070002884186e-16  2.9685702779789818e-16  3.2738814551190281e-18  -1.9823425935051902e-16  2.9883394428082820e-16  5.8801967064397141e-16  -4.3711724581693775e-17  -2.3305365581336578e-16  -1.1676582593825007e-16  1.0209467676407359e-15  -1.2140060592986188e-16  -2.1898283433840533e-16  -8.6284014701931225e-16  1.3737844155689786e-15  -5.4701983434660709e-15  -1.2632233411621367e-15  -2.3014381612105539e-16  1.5547762403467678e-15  -6.5322265514919031e-15  -7.5353986281774493e-16  -3.3572050305443350e-16  1.4378584313308008e-15  -7.5228923035345392e-15  6.2043838160086253e-16  8.4989028159109020e-15  -6.5087791837502071e-15  2.8848151435555516e-14  -1.5659605883277902e-15  1.7503114693406771e-15  -2.8394303245951594e-15  2.0855765448692178e-14  -5.5255351465204690e-15  6.7232593163678750e-15  6.7625107497519586e-15  -5.4272881500106642e-14  1.6268999397938154e-14  -3.0515608760776991e-14  -1.3902539373132407e-14  -1.7101746657908671e-15  1.1755492429549769e-14  -7.5606085947017013e-14  2.7301121006998056e-14  -1.2043802814199670e-13  3.4696627844789939e-14  -1.3349012651180678e-13  3.7006369390384829e-14  -1.4445695788127767e-13  4.1879131694924705e-14  -1.6875829254935441e-13  4.8396045183377072e-14  -1.8571454897949778e-13  4.8442050392589500e-14  -1.6312399131937412e-13  3.5308381360401869e-14  -9.1175046053998783e-14  1.2842574515806340e-14  -9.1173626329753292e-15  -4.4471260803195731e-15  2.8814157208576277e-14  -7.1035167696922414e-15  1.6546872940165674e-14  -1.5676067018847402e-15  -2.5024445129136921e-15  1.2421146602145508e-15  -1.0986379458247295e-16  -1.3413109887868535e-16  8.6882007419390411e-17  -3.0678332960223843e-18  -2.1097354472636789e-17  5.6215146402465679e-18  2.8710002242045387e-18  -1.5287863925378908e-18  -2.6364145894138418e-20  -1.8018894441928585e-18  2.3781549177098383e-19  -9.6469155195190317e-15  4.8605114315750211e-19  -9.1597494359596230e-19  1.6252170905182813e-20  5.1333990049946334e-19  -1.3284541795199549e-19  2.1446289669077535e-19  2.2787875748431257e-21