<?xml version="1.0"?>
<VTKFile type="UnstructuredGrid"  version="0.1"  >
<UnstructuredGrid>
<Piece  NumberOfPoints="11902" NumberOfCells="23402">
<Points>
<DataArray  type="Float64"  NumberOfComponents="3"  format="ascii">-5 -5 0  5 -5 0  5 5 0  -5 5 0  1.081589080587751 0.0005410072067761849 0  -4.9 -5 0  -4.8 -5 0  -4.7 -5 0  -4.6 -5 0  -4.5 -5 0  -4.4 -5 0  -4.3 -5 0  -4.2 -5 0  -4.1 -5 0  -4 -5 0  -3.9 -5 0  -3.8 -5 0  -3.7 -5 0  -3.6 -5 0  -3.5 -5 0  -3.4 -5 0  -3.3 -5 0  -3.2 -5 0  -3.1 -5 0  -3 -5 0  -2.9 -5 0  -2.8 -5 0  -2.7 -5 0  -2.6 -5 0  -2.5 -5 0  -2.4 -5 0  -2.3 -5 0  -2.2 -5 0  -2.1 -5 0  -2 -5 0  -1.9 -5 0  -1.8 -5 0  -1.7 -5 0  -1.6 -5 0  -1.5 -5 0  -1.4 -5 0  -1.3 -5 0  -1.2 -5 0  -1.1 -5 0  -1 -5 0  -0.9000000000000004 -5 0  -0.7999999999999998 -5 0  -0.7000000000000002 -5 0  -0.5999999999999996 -5 0  -0.5 -5 0  -0.4000000000000004 -5 0  -0.2999999999999998 -5 0  -0.2000000000000002 -5 0  -0.09999999999999964 -5 0  0 -5 0  0.09999999999999964 -5 0  0.2000000000000002 -5 0  0.2999999999999998 -5 0  0.4000000000000004 -5 0  0.5 -5 0  0.5999999999999996 -5 0  0.7000000000000002 -5 0  0.7999999999999998 -5 0  0.9000000000000004 -5 0  1 -5 0  1.1 -5 0  1.2 -5 0  1.3 -5 0  1.4 -5 0  1.5 -5 0  1.6 -5 0  1.7 -5 0  1.8 -5 0  1.9 -5 0  2 -5 0  2.1 -5 0  2.2 -5 0  2.3 -5 0  2.4 -5 0  2.5 -5 0  2.6 -5 0  2.7 -5 0  2.8 -5 0  2.9 -5 0  3 -5 0  3.1 -5 0  3.199999999999999 -5 0  3.300000000000001 -5 0  3.4 -5 0  3.5 -5 0  3.6 -5 0  3.699999999999999 -5 0  3.800000000000001 -5 0  3.9 -5 0  4 -5 0  4.1 -5 0  4.199999999999999 -5 0  4.300000000000001 -5 0  4.4 -5 0  4.5 -5 0  4.6 -5 0  4.699999999999999 -5 0  4.800000000000001 -5 0  4.9 -5 0  5 -4.9 0  5 -4.8 0  5 -4.7 0  5 -4.6 0  5 -4.5 0  5 -4.4 0  5 -4.3 0  5 -4.2 0  5 -4.1 0  5 -4 0  5 -3.9 0  5 -3.8 0  5 -3.7 0  5 -3.6 0  5 -3.5 0  5 -3.4 0  5 -3.3 0  5 -3.2 0  5 -3.1 0  5 -3 0  5 -2.9 0  5 -2.8 0  5 -2.7 0  5 -2.6 0  5 -2.5 0  5 -2.4 0  5 -2.3 0  5 -2.2 0  5 -2.1 0  5 -2 0  5 -1.9 0  5 -1.8 0  5 -1.7 0  5 -1.6 0  5 -1.5 0  5 -1.4 0  5 -1.3 0  5 -1.2 0  5 -1.1 0  5 -1 0  5 -0.9000000000000004 0  5 -0.7999999999999998 0  5 -0.7000000000000002 0  5 -0.5999999999999996 0  5 -0.5 0  5 -0.4000000000000004 0  5 -0.2999999999999998 0  5 -0.2000000000000002 0  5 -0.09999999999999964 0  5 0 0  5 0.09999999999999964 0  5 0.2000000000000002 0  5 0.2999999999999998 0  5 0.4000000000000004 0  5 0.5 0  5 0.5999999999999996 0  5 0.7000000000000002 0  5 0.7999999999999998 0  5 0.9000000000000004 0  5 1 0  5 1.1 0  5 1.2 0  5 1.3 0  5 1.4 0  5 1.5 0  5 1.6 0  5 1.7 0  5 1.8 0  5 1.9 0  5 2 0  5 2.1 0  5 2.2 0  5 2.3 0  5 2.4 0  5 2.5 0  5 2.6 0  5 2.7 0  5 2.8 0  5 2.9 0  5 3 0  5 3.1 0  5 3.199999999999999 0  5 3.300000000000001 0  5 3.4 0  5 3.5 0  5 3.6 0  5 3.699999999999999 0  5 3.800000000000001 0  5 3.9 0  5 4 0  5 4.1 0  5 4.199999999999999 0  5 4.300000000000001 0  5 4.4 0  5 4.5 0  5 4.6 0  5 4.699999999999999 0  5 4.800000000000001 0  5 4.9 0  4.9 5 0  4.8 5 0  4.7 5 0  4.6 5 0  4.5 5 0  4.4 5 0  4.3 5 0  4.2 5 0  4.1 5 0  4 5 0  3.9 5 0  3.8 5 0  3.7 5 0  3.6 5 0  3.5 5 0  3.4 5 0  3.3 5 0  3.2 5 0  3.1 5 0  3 5 0  2.9 5 0  2.8 5 0  2.7 5 0  2.6 5 0  2.5 5 0  2.4 5 0  2.3 5 0  2.2 5 0  2.1 5 0  2 5 0  1.9 5 0  1.8 5 0  1.7 5 0  1.6 5 0  1.5 5 0  1.4 5 0  1.3 5 0  1.2 5 0  1.1 5 0  1 5 0  0.9000000000000004 5 0  0.7999999999999998 5 0  0.7000000000000002 5 0  0.5999999999999996 5 0  0.5 5 0  0.4000000000000004 5 0  0.2999999999999998 5 0  0.2000000000000002 5 0  0.09999999999999964 5 0  0 5 0  -0.09999999999999964 5 0  -0.2000000000000002 5 0  -0.2999999999999998 5 0  -0.4000000000000004 5 0  -0.5 5 0  -0.5999999999999996 5 0  -0.7000000000000002 5 0  -0.7999999999999998 5 0  -0.9000000000000004 5 0  -1 5 0  -1.1 5 0  -1.2 5 0  -1.3 5 0  -1.4 5 0  -1.5 5 0  -1.6 5 0  -1.7 5 0  -1.8 5 0  -1.9 5 0  -2 5 0  -2.1 5 0  -2.2 5 0  -2.3 5 0  -2.4 5 0  -2.5 5 0  -2.6 5 0  -2.7 5 0  -2.8 5 0  -2.9 5 0  -3 5 0  -3.1 5 0  -3.199999999999999 5 0  -3.300000000000001 5 0  -3.4 5 0  -3.5 5 0  -3.6 5 0  -3.699999999999999 5 0  -3.800000000000001 5 0  -3.9 5 0  -4 5 0  -4.1 5 0  -4.199999999999999 5 0  -4.300000000000001 5 0  -4.4 5 0  -4.5 5 0  -4.6 5 0  -4.699999999999999 5 0  -4.800000000000001 5 0  -4.9 5 0  -5 4.9 0  -5 4.8 0  -5 4.7 0  -5 4.6 0  -5 4.5 0  -5 4.4 0  -5 4.3 0  -5 4.2 0  -5 4.1 0  -5 4 0  -5 3.9 0  -5 3.8 0  -5 3.7 0  -5 3.6 0  -5 3.5 0  -5 3.4 0  -5 3.3 0  -5 3.2 0  -5 3.1 0  -5 3 0  -5 2.9 0  -5 2.8 0  -5 2.7 0  -5 2.6 0  -5 2.5 0  -5 2.4 0  -5 2.3 0  -5 2.2 0  -5 2.1 0  -5 2 0  -5 1.9 0  -5 1.8 0  -5 1.7 0  -5 1.6 0  -5 1.5 0  -5 1.4 0  -5 1.3 0  -5 1.2 0  -5 1.1 0  -5 1 0  -5 0.9000000000000004 0  -5 0.7999999999999998 0  -5 0.7000000000000002 0  -5 0.5999999999999996 0  -5 0.5 0  -5 0.4000000000000004 0  -5 0.2999999999999998 0  -5 0.2000000000000002 0  -5 0.09999999999999964 0  -5 0 0  -5 -0.09999999999999964 0  -5 -0.2000000000000002 0  -5 -0.2999999999999998 0  -5 -0.4000000000000004 0  -5 -0.5 0  -5 -0.5999999999999996 0  -5 -0.7000000000000002 0  -5 -0.7999999999999998 0  -5 -0.9000000000000004 0  -5 -1 0  -5 -1.1 0  -5 -1.2 0  -5 -1.3 0  -5 -1.4 0  -5 -1.5 0  -5 -1.6 0  -5 -1.7 0  -5 -1.8 0  -5 -1.9 0  -5 -2 0  -5 -2.1 0  -5 -2.2 0  -5 -2.3 0  -5 -2.4 0  -5 -2.5 0  -5 -2.6 0  -5 -2.7 0  -5 -2.8 0  -5 -2.9 0  -5 -3 0  -5 -3.1 0  -5 -3.199999999999999 0  -5 -3.300000000000001 0  -5 -3.4 0  -5 -3.5 0  -5 -3.6 0  -5 -3.699999999999999 0  -5 -3.800000000000001 0  -5 -3.9 0  -5 -4 0  -5 -4.1 0  -5 -4.199999999999999 0  -5 -4.300000000000001 0  -5 -4.4 0  -5 -4.5 0  -5 -4.6 0  -5 -4.699999999999999 0  -5 -4.800000000000001 0  -5 -4.9 0  1.076318463455974 0.1003777645342095 0  1.060096461661735 0.1996756891541193 0  1.032809934124808 0.2972656079213454 0  0.99624610494418 0.3910152542500169 0  0.9495591461136957 0.4818289014123763 0  0.8937719446152655 0.5675369436728573 0  0.8286571452034248 0.6473510690245671 0  0.7547975266078573 0.7205811022877083 0  0.6740649092665613 0.7869497918717184 0  0.5866421514840032 0.8457331129890554 0  0.4930447799248592 0.8957291360249166 0  0.3944587615255259 0.936957443904143 0  0.2928518909115929 0.9692151167107929 0  0.1876842132411437 0.9912801490205854 0  0.08124829558618646 1.003940509759102 0  -0.02629916955579279 1.006495077834653 0  -0.1335943107801789 0.9986976266548774 0  -0.2396546290002374 0.9816136309761845 0  -0.3433039302604526 0.9546505667935667 0  -0.4434198206733456 0.9179115730304018 0  -0.5389923045404318 0.8724415526713803 0  -0.6293855120703582 0.8179777620111114 0  -0.7135395488206407 0.7555556837684392 0  -0.7906679248452199 0.6857594486557119 0  -0.8601074777582085 0.6084685644427295 0  -0.9206911889577691 0.5253589304870971 0  -0.9726313827226689 0.4374026339187276 0  -1.014470468362857 0.3447010854188857 0  -1.046064465244107 0.2489011670350608 0  -1.067514782603512 0.1506645641104819 0  -1.078394847084956 0.05062961179386343 0  -1.078415379177024 -0.04996009604050652 0  -1.067558081209535 -0.149889989941494 0  -1.047011397092799 -0.2480920863375043 0  -1.014452976769562 -0.3442763272562188 0  -0.9727997426249552 -0.4365872804141236 0  -0.9210341846026729 -0.5246938612176285 0  -0.8605178591090475 -0.6075966496612927 0  -0.7910427585150053 -0.6844376642964828 0  -0.7135865278761535 -0.7540927688616224 0  -0.6290633594244697 -0.8160983340252979 0  -0.5392439514874321 -0.8708737804075619 0  -0.4426548759061371 -0.9163719057054289 0  -0.3424721152221376 -0.9534138127850217 0  -0.2386490902313432 -0.9805937664810526 0  -0.1328006391809946 -0.9979771022018773 0  -0.02575751496531258 -1.006185563763139 0  0.08147189773837132 -1.003334816665732 0  0.1884294299990235 -0.9904455025938866 0  0.2931632394842193 -0.9683090252078743 0  0.3956846621591883 -0.936112908885281 0  0.4934715368112751 -0.89497366744996 0  0.5869511025386098 -0.8450529228881302 0  0.6742674789509612 -0.7871655633407856 0  0.754966141736316 -0.7207945494466567 0  0.8284182064603384 -0.6470197377191178 0  0.8933033682618565 -0.5669596667874626 0  0.9497429884043684 -0.4814643278624081 0  0.9970497654054252 -0.3910599624758206 0  1.033499972136582 -0.2969259484658106 0  1.060150146999597 -0.1993339147023835 0  1.076355749700325 -0.1002160253479934 0  -2.449401960838303 4.919667493054151 0  -2.449350682022276 -4.91218627799875 0  4.912150407104533 2.449112253371145 0  4.920116765697781 -2.450463408686264 0  2.447230066041894 -4.897713718368052 0  2.441628956255124 4.901411568665123 0  -4.912163105732037 -2.449125259540182 0  -4.912164726674543 2.449128921385979 0  -1.749383263807194 4.913237233074045 0  -1.745132103885059 -4.916589004596861 0  4.922781352736263 1.745170783888669 0  4.911619497011015 -1.749093044553184 0  -4.911886107178303 -1.748808463753549 0  -4.91269110558851 1.748540153378422 0  1.746709716808059 4.907259547907731 0  1.748233500874012 -4.895696642254616 0  -1.149516517776033 4.911487851883474 0  -1.130304576765531 -4.919173950089566 0  -4.912215920046769 -1.148916346247141 0  -4.912044336092499 1.1487152654151 0  1.144466944493864 -4.915472389178371 0  1.149518257357753 4.911482538579653 0  4.912381331851033 1.147199518399069 0  4.922842250927286 -1.152866575529529 0  -0.5470202170433424 -4.912906160558952 0  -0.5467688282064791 4.921320885287817 0  -4.911440524877507 -0.5492578636761137 0  -4.911466472326783 0.5478093909139616 0  4.91081886707081 -0.5495868185853172 0  4.922029678173518 0.54626902067667 0  0.5428358846034038 -4.900212062178079 0  0.5515032047111524 4.918247921738955 0  -4.913034270192831 -3.049274932435574 0  4.919529351870783 3.047228160892447 0  4.912555090951159 -3.049266699631593 0  -4.913876732404038 3.04635865436626 0  3.056038048900923 -4.918508397415524 0  -3.049424055010945 -4.912521399892171 0  3.052974670313717 4.914579212363641 0  -3.048865024557079 4.913402095484533 0  -4.910732790582983 -0.04996260172825924 0  0.04514139007913995 -4.914877932260948 0  0.04959174956408265 4.921681382911227 0  4.917539964482541 -0.05134121794656642 0  3.546203947556352 -4.919815247450006 0  -3.54953
[...]
<PointData  Scalars="f_27"> 
<DataArray  type="Float64"  Name="f_27"  format="ascii">0.0000000000000000e+00  0.0000000000000000e+00  0.0000000000000000e+00  0.0000000000000000e+00  6.2670064227813849e-01  0.0000000000000000e+00  0.0000000000000000e+00  0.0000000000000000e+00  0.0000000000000000e+00  0.0000000000000000e+00  0.0000000000000000e+00  0.0000000000000000e+00  0.0000000000000000e+00  0.0000000000000000e+00  0.0000000000000000e+00  0.0000000000000000e+00  0.0000000000000000e+00  0.0000000000000000e+00  0.0000000000000000e+00  0.0000000000000000e+00  0.0000000000000000e+00  0.0000000000000000e+00  0.0000000000000000e+00  0.0000000000000000e+00  0.0000000000000000e+00  0.0000000000000000e+00  0.0000000000000000e+00  0.0000000000000000e+00  0.0000000000000000e+00  0.0000000000000000e+00  0.0000000000000000e+00  0.0000000000000000e+00  0.0000000000000000e+00  0.0000000000000000e+00  0.0000000000000000e+00  0.0000000000000000e+00  0.0000000000000000e+00  0.0000000000000000e+00  0.0000000000000000e+00  0.0000000000000000e+00  0.0000000000000000e+00  0.0000000000000000e+00  0.0000000000000000e+00  0.0000000000000000e+00  0.0000000000000000e+00  0.0000000000000000e+00  0.0000000000000000e+00  0.0000000000000000e+00  0.0000000000000000e+00  0.0000000000000000e+00  0.0000000000000000e+00  0.0000000000000000e+00  0.0000000000000000e+00  0.0000000000000000e+00  0.0000000000000000e+00  0.0000000000000000e+00  0.0000000000000000e+00  0.0000000000000000e+00  0.0000000000000000e+00  0.0000000000000000e+00  0.0000000000000000e+00  0.0000000000000000e+00  0.0000000000000000e+00  0.0000000000000000e+00  0.0000000000000000e+00  0.0000000000000000e+00  0.0000000000000000e+00  0.0000000000000000e+00  0.0000000000000000e+00  0.0000000000000000e+00  0.0000000000000000e+00  0.0000000000000000e+00  0.0000000000000000e+00  0.0000000000000000e+00  0.0000000000000000e+00  0.0000000000000000e+00  0.0000000000000000e+00  0.0000000000000000e+00  0.0000000000000000e+00  0.0000000000000000e+00  0.0000000000000000e+00  0.0000000000000000e+00  0.0000000000000000e+00  0.0000000000000000e+00  0.0000000000000000e+00  0.0000000000000000e+00  0.0000000000000000e+00  0.0000000000000000e+00  0.0000000000000000e+00  0.0000000000000000e+00  0.0000000000000000e+00  0.0000000000000000e+00  0.0000000000000000e+00  0.0000000000000000e+00  0.0000000000000000e+00  0.0000000000000000e+00  0.0000000000000000e+00  0.0000000000000000e+00  0.0000000000000000e+00  0.0000000000000000e+00  0.0000000000000000e+00  0.0000000000000000e+00  0.0000000000000000e+00  0.0000000000000000e+00  0.0000000000000000e+00  0.0000000000000000e+00  0.0000000000000000e+00  0.0000000000000000e+00  0.0000000000000000e+00  0.0000000000000000e+00  0.0000000000000000e+00  0.0000000000000000e+00  0.0000000000000000e+00  0.0000000000000000e+00  0.0000000000000000e+00  0.0000000000000000e+00  0.0000000000000000e+00  0.0000000000000000e+00  0.0000000000000000e+00  0.0000000000000000e+00  0.0000000000000000e+00  0.0000000000000000e+00  0.0000000000000000e+00  0.0000000000000000e+00  0.0000000000000000e+00  0.0000000000000000e+00  0.0000000000000000e+00  0.0000000000000000e+00  0.0000000000000000e+00  0.0000000000000000e+00  0.0000000000000000e+00  0.0000000000000000e+00  0.0000000000000000e+00  0.0000000000000000e+00  0.0000000000000000e+00  0.0000000000000000e+00  0.0000000000000000e+00  0.0000000000000000e+00  0.0000000000000000e+00  0.0000000000000000e+00  0.0000000000000000e+00  0.0000000000000000e+00  0.0000000000000000e+00  0.0000000000000000e+00  0.0000000000000000e+00  0.0000000000000000e+00  0.0000000000000000e+00  0.0000000000000000e+00  0.0000000000000000e+00  0.0000000000000000e+00  0.0000000000000000e+00  0.0000000000000000e+00  0.0000000000000000e+00  0.0000000000000000e+00  0.0000000000000000e+00  0.0000000000000000e+00  0.0000000000000000e+00  0.0000000000000000e+00  0.0000000000000000e+00  0.0000000000000000e+00  0.0000000000000000e+00  0.0000000000000000e+00  0.0000000000000000e+00  0.0000000000000000e+00  0.0000000000000000e+00  0.0000000000000000e+00  0.0000000000000000e+00  0.0000000000000000e+00  0.0000000000000000e+00  0.0000000000000000e+00  0.0000000000000000e+00  0.0000000000000000e+00  0.0000000000000000e+00  0.0000000000000000e+00  0.0000000000000000e+00  0.0000000000000000e+00  0.0000000000000000e+00  0.0000000000000000e+00  0.0000000000000000e+00  0.0000000000000000e+00  0.0000000000000000e+00  0.0000000000000000e+00  0.0000000000000000e+00  0.0000000000000000e+00  0.0000000000000000e+00  0.0000000000000000e+00  0.0000000000000000e+00  0.0000000000000000e+00  0.0000000000000000e+00  0.0000000000000000e+00  0.0000000000000000e+00  0.0000000000000000e+00  0.0000000000000000e+00  0.0000000000000000e+00  0.0000000000000000e+00  0.0000000000000000e+00  0.0000000000000000e+00  0.0000000000000000e+00  0.0000000000000000e+00  0.0000000000000000e+00  0.0000000000000000e+00  0.0000000000000000e+00  0.0000000000000000e+00  0.0000000000000000e+00  0.0000000000000000e+00  0.0000000000000000e+00  0.0000000000000000e+00  0.0000000000000000e+00  0.0000000000000000e+00  0.0000000000000000e+00  0.0000000000000000e+00  0.0000000000000000e+00  0.0000000000000000e+00  0.0000000000000000e+00  0.0000000000000000e+00  0.0000000000000000e+00  0.0000000000000000e+00  0.0000000000000000e+00  0.0000000000000000e+00  0.0000000000000000e+00  0.0000000000000000e+00  0.0000000000000000e+00  0.0000000000000000e+00  0.0000000000000000e+00  0.0000000000000000e+00  0.0000000000000000e+00  0.0000000000000000e+00  0.0000000000000000e+00  0.0000000000000000e+00  0.0000000000000000e+00  0.0000000000000000e+00  0.0000000000000000e+00  0.0000000000000000e+00  0.0000000000000000e+00  0.0000000000000000e+00  0.0000000000000000e+00  0.0000000000000000e+00  0.0000000000000000e+00  0.0000000000000000e+00  0.0000000000000000e+00  0.0000000000000000e+00  0.0000000000000000e+00  0.0000000000000000e+00  0.0000000000000000e+00  0.0000000000000000e+00  0.0000000000000000e+00  0.0000000000000000e+00  0.0000000000000000e+00  0.0000000000000000e+00  0.0000000000000000e+00  0.0000000000000000e+00  0.0000000000000000e+00  0.0000000000000000e+00  0.0000000000000000e+00  0.0000000000000000e+00  0.0000000000000000e+00  0.0000000000000000e+00  0.0000000000000000e+00  0.0000000000000000e+00  0.0000000000000000e+00  0.0000000000000000e+00  0.0000000000000000e+00  0.0000000000000000e+00  0.0000000000000000e+00  0.0000000000000000e+00  0.0000000000000000e+00  0.0000000000000000e+00  0.0000000000000000e+00  0.0000000000000000e+00  0.0000000000000000e+00  0.0000000000000000e+00  0.0000000000000000e+00  0.0000000000000000e+00  0.0000000000000000e+00  0.0000000000000000e+00  0.0000000000000000e+00  0.0000000000000000e+00  0.0000000000000000e+00  0.0000000000000000e+00  0.0000000000000000e+00  0.0000000000000000e+00  0.0000000000000000e+00  0.0000000000000000e+00  0.0000000000000000e+00  0.0000000000000000e+00  0.0000000000000000e+00  0.0000000000000000e+00  0.0000000000000000e+00  0.0000000000000000e+00  0.0000000000000000e+00  0.0000000000000000e+00  0.0000000000000000e+00  0.0000000000000000e+00  0.0000000000000000e+00  0.0000000000000000e+00  0.0000000000000000e+00  0.0000000000000000e+00  0.0000000000000000e+00  0.0000000000000000e+00  0.0000000000000000e+00  0.0000000000000000e+00  0.0000000000000000e+00  0.0000000000000000e+00  0.0000000000000000e+00  0.0000000000000000e+00  0.0000000000000000e+00  0.0000000000000000e+00  0.0000000000000000e+00  0.0000000000000000e+00  0.0000000000000000e+00  0.0000000000000000e+00  0.0000000000000000e+00  0.0000000000000000e+00  0.0000000000000000e+00  0.0000000000000000e+00  0.0000000000000000e+00  0.0000000000000000e+00  0.0000000000000000e+00  0.0000000000000000e+00  0.0000000000000000e+00  0.0000000000000000e+00  0.0000000000000000e+00  0.0000000000000000e+00  0.0000000000000000e+00  0.0000000000000000e+00  0.0000000000000000e+00  0.0000000000000000e+00  0.0000000000000000e+00  0.0000000000000000e+00  0.0000000000000000e+00  0.0000000000000000e+00  0.0000000000000000e+00  0.0000000000000000e+00  0.0000000000000000e+00  0.0000000000000000e+00  0.0000000000000000e+00  0.0000000000000000e+00  0.0000000000000000e+00  0.0000000000000000e+00  0.0000000000000000e+00  0.0000000000000000e+00  0.0000000000000000e+00  0.0000000000000000e+00  0.0000000000000000e+00  0.0000000000000000e+00  0.0000000000000000e+00  0.0000000000000000e+00  0.0000000000000000e+00  0.0000000000000000e+00  0.0000000000000000e+00  0.0000000000000000e+00  0.0000000000000000e+00  0.0000000000000000e+00  0.0000000000000000e+00  0.0000000000000000e+00  0.0000000000000000e+00  0.0000000000000000e+00  0.0000000000000000e+00  0.0000000000000000e+00  0.0000000000000000e+00  0.0000000000000000e+00  0.0000000000000000e+00  0.0000000000000000e+00  0.0000000000000000e+00  0.0000000000000000e+00  0.0000000000000000e+00  0.0000000000000000e+00  0.0000000000000000e+00  0.0000000000000000e+00  0.0000000000000000e+00  0.0000000000000000e+00  0.0000000000000000e+00  0.0000000000000000e+00  0.0000000000000000e+00  0.0000000000000000e+00  0.0000000000000000e+00  0.0000000000000000e+00  0.0000000000000000e+00  0.0000000000000000e+00  0.0000000000000000e+00  0.0000000000000000e+00  0.0000000000000000e+00  0.0000000000000000e+00  0.0000000000000000e+00  0.0000000000000000e+00  0.0000000000000000e+00  0.0000000000000000e+00  0.0000000000000000e+00  0.0000000000000000e+00  0.0000000000000000e+00  0.0000000000000000e+00  0.0000000000000000e+00  0.0000000000000000e+00  0.0000000000000000e+00  0.0000000000000000e+00  0.0000000000000000e+00  0.0000000000000000e+00  0.0000000000000000e+00  0.0000000000000000e+00  0.0000000000000000e+00  0.0000000000000000e+00  6.1651354072347375e-01  6.2965869244015904e-01  7.0310183010288718e-01  6.9863215103548360e-01  6.5277988697232847e-01  5.7985978200241750e-01  5.9235551231571637e-01  6.7137203042219418e-01  6.4044697606295853e-01  5.7183401829799685e-01  5.9838530456806949e-01  6.1765972386464862e-01  5.5242508088782238e-01  6.4082889521358832e-01  6.3301110528464510e-01  6.4142375084775172e-01  6.8353279776614306e-01  6.2310727456559456e-01  6.0685786970985611e-01  6.4588739284929342e-01  6.2552970846573064e-01  6.3709794084143201e-01  6.2542033340803671e-01  5.9394854039120970e-01  6.2724393073484552e-01  6.6548400800448593e-01  6.1803476624333531e-01  6.4158627192404416e-01  6.8393213164167743e-01  6.6204876330858831e-01  6.3844651055808288e-01  6.3361913916312185e-01  6.5338299938476230e-01  5.4879993681199113e-01  6.4516015436946783e-01  6.1341929903835835e-01  6.4071418572326977e-01  5.9558705126044797e-01  5.9668643977939551e-01  6.4325212947763233e-01  7.1104363429515349e-01  5.7668494779703749e-01  6.5012692819914053e-01  5.9812050299001351e-01  6.1103551151791191e-01  6.3636497410366455e-01  5.1723748084604637e-01  5.6943009856374871e-01  6.2429621068050389e-01  6.0481539178123078e-01  6.3769097266333419e-01  6.6530380153307100e-01  6.3665030891310426e-01  5.8763760256938424e-01  6.1830306527386947e-01  6.3159705316095760e-01  6.6583750768159022e-01  6.2938094469676698e-01  5.5076395188174831e-01  6.1206108486594002e-01  6.2209966527448368e-01  6.0256861145923946e-01  -2.1763413566645430e-31  1.5163715024092425e-31  3.0842021714269891e-34  5.1332813774249794e-34  2.6941804866728945e-31  3.4273758359526731e-31  -2.8848431988047185e-36  -6.0338027084612326e-35  -3.4439368109897393e-31  -1.2057705453158855e-31  7.2312123832034498e-32  9.7307803375665958e-32  5.3731843870411720e-32  6.1794436899485419e-32  3.2274166584294006e-30  1.7195101174513774e-30  -5.4222718715580481e-30  2.9815216833646855e-31  -7.8433707522654189e-30  -1.0860239723004755e-29  -1.8198441383758409e-30  -1.9907403672228732e-30  -5.4435180350642008e-30  -6.2276537083310479e-30  -3.8000390596713187e-30  -3.0582560369148892e-30  -1.1379275642791347e-28  4.0216427056809496e-30  -4.3799679360399691e-29  -2.4465782968851460e-28  8.0926140222827778e-30  -2.0905823710802706e-30  -4.8304852722541462e-36  3.3346471516434470e-36  2.5962874382300904e-36  -4.9065186085818277e-36  4.7773892841747224e-33  3.4453602410609939e-33  2.7815105920467642e-33  3.0981869023018487e-33  -1.0872755807886311e-27  1.0931870529927419e-29  -3.2597229007062406e-31  1.7911973308013155e-27  1.0967667732502813e-35  6.4955681056439748e-36  1.4253019509197164e-35  -4.4843926573537110e-38  4.2075688381203720e-39  -4.7897909692641578e-38  1.8844326863862541e-38  -3.0011370144386993e-36  8.5819731848935952e-40  -1.7480273026582971e-37  -4.3245201488159924e-38  -1.5133555711330565e-39  -1.8482612920229332e-37  1.3096181772248430e-39  -1.0389240960611175e-37  -2.0730944867948275e-39  -4.0835544323876879e-40  -5.3985245994377006e-40  -4.2745936722453280e-40  -1.4589931921452789e-41  -9.3868137781566272e-43  4.7742437473093414e-41  6.3081540478059650e-41  -5.6339799719182100e-40  1.7708684118974001e-27  2.1465395203700755e-30  -1.4166917431283261e-30  1.6007661366769670e-27  3.4173453032573959e-30  1.6094111421426165e-30  8.6957773948399995e-30  9.1627236973526461e-30  1.7395520701941128e-30  1.6676176096747458e-30  -1.2237853710536588e-30  -9.8380217554331777e-30  -1.6997086596143996e-30  -4.7635732264913129e-31  3.2716079171374428e-29  5.7234993861504089e-29  -3.2718935891255859e-31  1.7222433477010410e-30  -1.5248018145519983e-30  7.3572409676499143e-31  -2.2129875417071209e-30  -1.5462936127259491e-30  -1.6972416020960293e-32  -1.6134570702578222e-32  -4.3605963910490021e-31  -4.9417026913824604e-31  9.0721322317400216e-33  8.8289240944806792e-33  4.1558503925338053e-35  -1.6083790332547690e-32  2.7499011500439449e-32  -4.3571985131613604e-35  9.8626321494735474e-33  -4.1909889514957718e-35  3.9426901348552461e-35  4.0043676016223015e-32  2.3585290399816918e-42  8.4096479309192128e-42  -1.7471751727878040e-42  -3.8154164722752616e-42  -8.5464290625513210e-43  -2.5813831470045640e-42  3.9095670139100273e-42  2.8201052823235390e-42  3.6380761003166695e-28  1.6382849158173653e-29  3.8855803576195709e-30  1.7721027143606440e-27  7.1394256355080443e-32  -2.0240194381282110e-33  -2.3217345614773689e-33  -2.0937968107005032e-31  2.2672877847591298e-33  1.8845022008111773e-31  3.1901949248284919e-31  2.1778215524173723e-33  -6.5035128457519798e-37  -1.0439145471721068e-33  -4.6700836605008174e-34  2.5289576543183590e-38  -5.4071405545016325e-37  -1.8672946759704578e-35  -6.6294746848794386e-34  1.8285933142214528e-37  3.6408847359320957e-39  -2.0834328101657399e-40  -1.8264153564242027e-36  -3.5174441374154964e-39  -7.7813523559375219e-37  -3.1493433947898900e-39  1.0506354386027506e-38  -1.0660843572562129e-40  -8.9798223887711655e-37  -4.8111647305613993e-39  1.6231811611204953e-40  -1.8700297140278245e-40  1.0069415101005678e-38  -4.4733482144483534e-41  -4.8369438553666378e-37  -4.6378776435857565e-39  -8.7727808545767857e-43  3.8209371320219581e-43  -6.0077372113591837e-43  -1.3599925440645316e-42  -4.5549616670216552e-28  5.9271001418101523e-31  -2.3339258503597952e-27  5.7481654541763613e-27  9.2303949197005977e-27  -3.3644732729020764e-26  -2.7323367601324638e-26  1.3055537589645413e-25  5.6187649706451732e-26  -3.8114107693255164e-25  -2.8775507007185594e-26  7.6086020470682256e-25  -4.1372699677555577e-25  -2.9073611892114521e-25  2.5650966148498498e-24  -6.1801480801782061e-24  -9.8378041897691467e-24  3.6735894897543293e-23  2.8192886402840441e-23  -1.3822757014098902e-22  -5.7772082916945954e-23  -9.1966503253932899e-23  3.9025664593841019e-22  4.7141437075127312e-23  -7.7659388008476154e-22  2.4773421802443957e-22  4.8981890840509033e-22  -1.4692582966433714e-21  3.9127496221608887e-21  4.4319933725271450e-21  -2.1158755819216032e-20  -7.2884664692584352e-21  4.5132079019087365e-21  6.0612798064554411e-20  -4.5980037940030031e-21  -8.5254167797609717e-20  7.1740947652087800e-20  -1.2472398602644414e-19  -2.2483392490094672e-19  1.0928151636473373e-18  2.5228926727707962e-19  -2.8945742931340298e-18  7.5813820166752603e-19  -2.6407532596464445e-18  1.7353850962693023e-18  -3.9608193484492455e-18  1.4616173527621518e-17  5.9096268092886095e-18  1.8251732651234587e-19  -4.1740247675031003e-18  1.0193470165966455e-17  8.2420500547364343e-18  -2.2670587962568317e-19  -4.1299058332280423e-18  8.5636394891789995e-19  -2.7627660066003075e-19  8.4003076301352698e-18  -4.0634047923013702e-18  8.0516772418805837e-19  3.6801400464169012e-20  -2.3533589200439661e-19  6.2763300913505301e-19  -3.7742065483368474e-18  4.9934631157356831e-19  -2.4877091107544808e-19  3.4647085214740462e-19  -2.9180807723164972e-18  7.9676068900300979e-19  -2.1469301465677001e-19  6.0311290861303118e-20  -1.6325910354417267e-18  7.8150513706841739e-19  -2.4279499818350469e-18  4.3824134055193532e-20  -4.1772750999019970e-19  6.9133579141569608e-18  -3.1945026819090092e-18  9.8502106203448931e-18  1.6094769608279044e-18  -3.4805184494013063e-17  2.0609241264673739e-17  -1.1134117298449671e-16  -2.7465794680119192e-18  3.1783268426175525e-17  -7.4916507017762530e-17  -1.1984476325201353e-17  2.1987144289000583e-16  -1.1645520967482966e-16  6.1870858552673831e-16  -1.8872158060700835e-16  6.6037974114223888e-16  -1.2089428480889161e-16  1.5591850475334398e-16  4.0449377143768372e-17  -3.7343309152773670e-16  4.6057561767761575e-17  1.3572239209507434e-17  -1.7053467310232800e-01  1.1023100836270136e-16  -2.9191367240404772e-16  9.1733091702119295e-18  2.5482108084797491e-16  -1.8898794898281862e-01  -1.2557570424410697e-16  5.7369139205260228e-16  -1.7085699651152678e-01  -1.4208677444511575e-16  3.9532856884623010e-16  -2.0023416763590076e-15  -8.0141903886312481e-16  6.1457628206453118e-17  1.8129548662406772e-16  -2.6813434824532944e-15  4.0089205069728047e-17  -9.5085870905026639e-17  3.6545663464795538e-16  -1.3413621432120327e-15  -1.0254666952901668e-15  1.6548191010789042e-16  -2.4082418925496739e-16  2.2025623747808312e-15  5.6371235456532032e-18  9.2189726949178156e-17  -3.3983088446251493e-16  1.3702339032259144e-15  4.8429442418795005e-16  4.2059727654121862e-17  -5.1286672615512339e-16  1.1513635890308788e-15  1.3724494259443203e-15  -8.0267206491256042e-17  -6.3118845664818572e-16  5.6141681621950830e-17  2.5477863704356648e-15  -2.8749321722417797e-16  -5.9038790983887831e-16  -1.9397864833569603e-15  3.4497885615135356e-15  -1.4094851534101995e-14  -2.9926023735827377e-15  -6.1184743100951540e-16  3.9038061642530786e-15  -1.6671896062936114e-14  -1.7699789503672161e-15  -8.6520424631959248e-16  3.6060070351940363e-15  -1.9038241049793394e-14  1.6187370701953925e-15  2.1125482718908847e-14  -1.6316599325891154e-14  7.2827641386633508e-14  -4.2103449267608279e-15  4.3646093317522579e-15  -6.7003446598144886e-15  4.7547898086055116e-14  -1.0878649577350455e-14  -1.2312372468281181e-15  2.3312168241577136e-14  -1.5929583427349186e-13  4.3801874341909561e-14  -6.7507454933043018e-14  -4.4402012031830616e-14  -3.5615696058102407e-15  3.3698925615098894e-14  -2.1051611087372707e-13  7.4839143758015847e-14  -3.2845711641695344e-13  9.4859689998843295e-14  -3.6721191733839781e-13  1.0192498036971079e-13  -3.9579908744249733e-13  1.1254002236527052e-13  -4.4478310198746845e-13  1.2550216291387019e-13  -4.7898855493827718e-13  1.2575307872009706e-13  -4.3061387304224765e-13  9.5317204711722668e-14  -2.5463185122248222e-13  3.7639031938109913e-14  -3.4395885972126900e-14  -1.0506426809857057e-14  7.7088313315862693e-14  -1.9810340420769548e-14  4.8533611455191627e-14  -5.1633304131950769e-15  -4.5595093146308556e-15  3.6155355233042524e-15  -1.3041924480748998e-16  -4.2871577729323503e-16  2.1482974248835139e-16  4.1825352238922971e-18  -5.6751556322215237e-17  1.3571095557706198e-17  8.4073119816040644e-18  -4.0714235667626811e-18  -2.8213151568237025e-19  -4.3439396253568946e-18  6.8340130577175526e-19  -2.6497990471319131e-14  1.2643758815842588e-18  -2.5901945898556778e-18  9.8336740752705085e-20  1.2208018579741868e-18  -3.3767318177568817e-19  5.8778307788513676e-19  -3.5115517463452922e-21  