<?xml version="1.0"?>
<VTKFile type="UnstructuredGrid"  version="0.1"  >
<UnstructuredGrid>
<Piece  NumberOfPoints="11902" NumberOfCells="23402">
<Points>
<DataArray  type="Float64"  NumberOfComponents="3"  format="ascii">-5 -5 0  5 -5 0  5 5 0  -5 5 0  1.25986874789274 0.001337993802756003 0  -4.9 -5 0  -4.8 -5 0  -4.7 -5 0  -4.6 -5 0  -4.5 -5 0  -4.4 -5 0  -4.3 -5 0  -4.2 -5 0  -4.1 -5 0  -4 -5 0  -3.9 -5 0  -3.8 -5 0  -3.7 -5 0  -3.6 -5 0  -3.5 -5 0  -3.4 -5 0  -3.3 -5 0  -3.2 -5 0  -3.1 -5 0  -3 -5 0  -2.9 -5 0  -2.8 -5 0  -2.7 -5 0  -2.6 -5 0  -2.5 -5 0  -2.4 -5 0  -2.3 -5 0  -2.2 -5 0  -2.1 -5 0  -2 -5 0  -1.9 -5 0  -1.8 -5 0  -1.7 -5 0  -1.6 -5 0  -1.5 -5 0  -1.4 -5 0  -1.3 -5 0  -1.2 -5 0  -1.1 -5 0  -1 -5 0  -0.9000000000000004 -5 0  -0.7999999999999998 -5 0  -0.7000000000000002 -5 0  -0.5999999999999996 -5 0  -0.5 -5 0  -0.4000000000000004 -5 0  -0.2999999999999998 -5 0  -0.2000000000000002 -5 0  -0.09999999999999964 -5 0  0 -5 0  0.09999999999999964 -5 0  0.2000000000000002 -5 0  0.2999999999999998 -5 0  0.4000000000000004 -5 0  0.5 -5 0  0.5999999999999996 -5 0  0.7000000000000002 -5 0  0.7999999999999998 -5 0  0.9000000000000004 -5 0  1 -5 0  1.1 -5 0  1.2 -5 0  1.3 -5 0  1.4 -5 0  1.5 -5 0  1.6 -5 0  1.7 -5 0  1.8 -5 0  1.9 -5 0  2 -5 0  2.1 -5 0  2.2 -5 0  2.3 -5 0  2.4 -5 0  2.5 -5 0  2.6 -5 0  2.7 -5 0  2.8 -5 0  2.9 -5 0  3 -5 0  3.1 -5 0  3.199999999999999 -5 0  3.300000000000001 -5 0  3.4 -5 0  3.5 -5 0  3.6 -5 0  3.699999999999999 -5 0  3.800000000000001 -5 0  3.9 -5 0  4 -5 0  4.1 -5 0  4.199999999999999 -5 0  4.300000000000001 -5 0  4.4 -5 0  4.5 -5 0  4.6 -5 0  4.699999999999999 -5 0  4.800000000000001 -5 0  4.9 -5 0  5 -4.9 0  5 -4.8 0  5 -4.7 0  5 -4.6 0  5 -4.5 0  5 -4.4 0  5 -4.3 0  5 -4.2 0  5 -4.1 0  5 -4 0  5 -3.9 0  5 -3.8 0  5 -3.7 0  5 -3.6 0  5 -3.5 0  5 -3.4 0  5 -3.3 0  5 -3.2 0  5 -3.1 0  5 -3 0  5 -2.9 0  5 -2.8 0  5 -2.7 0  5 -2.6 0  5 -2.5 0  5 -2.4 0  5 -2.3 0  5 -2.2 0  5 -2.1 0  5 -2 0  5 -1.9 0  5 -1.8 0  5 -1.7 0  5 -1.6 0  5 -1.5 0  5 -1.4 0  5 -1.3 0  5 -1.2 0  5 -1.1 0  5 -1 0  5 -0.9000000000000004 0  5 -0.7999999999999998 0  5 -0.7000000000000002 0  5 -0.5999999999999996 0  5 -0.5 0  5 -0.4000000000000004 0  5 -0.2999999999999998 0  5 -0.2000000000000002 0  5 -0.09999999999999964 0  5 0 0  5 0.09999999999999964 0  5 0.2000000000000002 0  5 0.2999999999999998 0  5 0.4000000000000004 0  5 0.5 0  5 0.5999999999999996 0  5 0.7000000000000002 0  5 0.7999999999999998 0  5 0.9000000000000004 0  5 1 0  5 1.1 0  5 1.2 0  5 1.3 0  5 1.4 0  5 1.5 0  5 1.6 0  5 1.7 0  5 1.8 0  5 1.9 0  5 2 0  5 2.1 0  5 2.2 0  5 2.3 0  5 2.4 0  5 2.5 0  5 2.6 0  5 2.7 0  5 2.8 0  5 2.9 0  5 3 0  5 3.1 0  5 3.199999999999999 0  5 3.300000000000001 0  5 3.4 0  5 3.5 0  5 3.6 0  5 3.699999999999999 0  5 3.800000000000001 0  5 3.9 0  5 4 0  5 4.1 0  5 4.199999999999999 0  5 4.300000000000001 0  5 4.4 0  5 4.5 0  5 4.6 0  5 4.699999999999999 0  5 4.800000000000001 0  5 4.9 0  4.9 5 0  4.8 5 0  4.7 5 0  4.6 5 0  4.5 5 0  4.4 5 0  4.3 5 0  4.2 5 0  4.1 5 0  4 5 0  3.9 5 0  3.8 5 0  3.7 5 0  3.6 5 0  3.5 5 0  3.4 5 0  3.3 5 0  3.2 5 0  3.1 5 0  3 5 0  2.9 5 0  2.8 5 0  2.7 5 0  2.6 5 0  2.5 5 0  2.4 5 0  2.3 5 0  2.2 5 0  2.1 5 0  2 5 0  1.9 5 0  1.8 5 0  1.7 5 0  1.6 5 0  1.5 5 0  1.4 5 0  1.3 5 0  1.2 5 0  1.1 5 0  1 5 0  0.9000000000000004 5 0  0.7999999999999998 5 0  0.7000000000000002 5 0  0.5999999999999996 5 0  0.5 5 0  0.4000000000000004 5 0  0.2999999999999998 5 0  0.2000000000000002 5 0  0.09999999999999964 5 0  0 5 0  -0.09999999999999964 5 0  -0.2000000000000002 5 0  -0.2999999999999998 5 0  -0.4000000000000004 5 0  -0.5 5 0  -0.5999999999999996 5 0  -0.7000000000000002 5 0  -0.7999999999999998 5 0  -0.9000000000000004 5 0  -1 5 0  -1.1 5 0  -1.2 5 0  -1.3 5 0  -1.4 5 0  -1.5 5 0  -1.6 5 0  -1.7 5 0  -1.8 5 0  -1.9 5 0  -2 5 0  -2.1 5 0  -2.2 5 0  -2.3 5 0  -2.4 5 0  -2.5 5 0  -2.6 5 0  -2.7 5 0  -2.8 5 0  -2.9 5 0  -3 5 0  -3.1 5 0  -3.199999999999999 5 0  -3.300000000000001 5 0  -3.4 5 0  -3.5 5 0  -3.6 5 0  -3.699999999999999 5 0  -3.800000000000001 5 0  -3.9 5 0  -4 5 0  -4.1 5 0  -4.199999999999999 5 0  -4.300000000000001 5 0  -4.4 5 0  -4.5 5 0  -4.6 5 0  -4.699999999999999 5 0  -4.800000000000001 5 0  -4.9 5 0  -5 4.9 0  -5 4.8 0  -5 4.7 0  -5 4.6 0  -5 4.5 0  -5 4.4 0  -5 4.3 0  -5 4.2 0  -5 4.1 0  -5 4 0  -5 3.9 0  -5 3.8 0  -5 3.7 0  -5 3.6 0  -5 3.5 0  -5 3.4 0  -5 3.3 0  -5 3.2 0  -5 3.1 0  -5 3 0  -5 2.9 0  -5 2.8 0  -5 2.7 0  -5 2.6 0  -5 2.5 0  -5 2.4 0  -5 2.3 0  -5 2.2 0  -5 2.1 0  -5 2 0  -5 1.9 0  -5 1.8 0  -5 1.7 0  -5 1.6 0  -5 1.5 0  -5 1.4 0  -5 1.3 0  -5 1.2 0  -5 1.1 0  -5 1 0  -5 0.9000000000000004 0  -5 0.7999999999999998 0  -5 0.7000000000000002 0  -5 0.5999999999999996 0  -5 0.5 0  -5 0.4000000000000004 0  -5 0.2999999999999998 0  -5 0.2000000000000002 0  -5 0.09999999999999964 0  -5 0 0  -5 -0.09999999999999964 0  -5 -0.2000000000000002 0  -5 -0.2999999999999998 0  -5 -0.4000000000000004 0  -5 -0.5 0  -5 -0.5999999999999996 0  -5 -0.7000000000000002 0  -5 -0.7999999999999998 0  -5 -0.9000000000000004 0  -5 -1 0  -5 -1.1 0  -5 -1.2 0  -5 -1.3 0  -5 -1.4 0  -5 -1.5 0  -5 -1.6 0  -5 -1.7 0  -5 -1.8 0  -5 -1.9 0  -5 -2 0  -5 -2.1 0  -5 -2.2 0  -5 -2.3 0  -5 -2.4 0  -5 -2.5 0  -5 -2.6 0  -5 -2.7 0  -5 -2.8 0  -5 -2.9 0  -5 -3 0  -5 -3.1 0  -5 -3.199999999999999 0  -5 -3.300000000000001 0  -5 -3.4 0  -5 -3.5 0  -5 -3.6 0  -5 -3.699999999999999 0  -5 -3.800000000000001 0  -5 -3.9 0  -5 -4 0  -5 -4.1 0  -5 -4.199999999999999 0  -5 -4.300000000000001 0  -5 -4.4 0  -5 -4.5 0  -5 -4.6 0  -5 -4.699999999999999 0  -5 -4.800000000000001 0  -5 -4.9 0  1.251716913228948 0.09460946035319288 0  1.229950934033085 0.1922342779005596 0  1.196501381002075 0.2887438093391164 0  1.153657338972432 0.3773705104121186 0  1.095631339473452 0.468229535415957 0  1.029773162082753 0.5524314656908162 0  0.9513747009230412 0.6324770317459696 0  0.8644955364007445 0.7071734220986406 0  0.7726993348302724 0.7726028929733681 0  0.6703506748549591 0.829970241974423 0  0.5583192651366875 0.8822308671751509 0  0.4456990116546631 0.9267486059203948 0  0.3334633334731812 0.9588709055655925 0  0.2087339702565117 0.9805239292370217 0  0.08880863946684972 0.9994489432078244 0  -0.02700131648662496 1.002773949230246 0  -0.1446987812199109 0.9890083379019536 0  -0.2722401243128637 0.969948951472375 0  -0.3915979492800973 0.9457524879684112 0  -0.5021680441639693 0.9098317617475191 0  -0.6116311503400297 0.8633615191118157 0  -0.7137724933337573 0.8086688540503854 0  -0.8084431672517718 0.7438139504885097 0  -0.8995497238580291 0.6702715619790305 0  -0.9852389970885186 0.5904709267437149 0  -1.059615362906235 0.509332630673846 0  -1.121434154785465 0.4240940277805195 0  -1.174913570380152 0.3316532792810241 0  -1.212831711513268 0.2427150206136452 0  -1.237305081090411 0.1485781346494485 0  -1.248262013284718 0.0517066320996003 0  -1.24821788120858 -0.04955710533050725 0  -1.237284765021562 -0.1456660207960438 0  -1.212474864146174 -0.2379395661102957 0  -1.170976161589101 -0.3327483915686048 0  -1.121787752006491 -0.4245898241497884 0  -1.061348295545345 -0.5091838322470689 0  -0.98769289059934 -0.5894567404139009 0  -0.9026362023934241 -0.6681569012266285 0  -0.8120713492038582 -0.7398083320277185 0  -0.7161758091940519 -0.8008209330774921 0  -0.6114604693562415 -0.8539262186894184 0  -0.4974178961275154 -0.9034621611964804 0  -0.3845829080051641 -0.943295638819702 0  -0.2689301515188567 -0.9696699459825506 0  -0.1431830877323026 -0.9888655600445199 0  -0.02786024863263304 -1.001991770262152 0  0.08804638578485272 -0.9947012076988331 0  0.2143187905172614 -0.9770529575291057 0  0.3360754886878922 -0.9572655425117731 0  0.4498532425667743 -0.9254260339018049 0  0.5607463099523486 -0.8814541212907105 0  0.6713525165813428 -0.8300067396797538 0  0.7726511066156586 -0.7737141260947547 0  0.8645125670738932 -0.7082580518131245 0  0.950342062449982 -0.632650498359926 0  1.027172453701135 -0.5513758855382717 0  1.096488380557098 -0.4671043562694704 0  1.154475477524943 -0.3777483484968569 0  1.198243635343058 -0.2867834961939326 0  1.230636880020943 -0.1913896879247625 0  1.2520850461079 -0.09438729088694089 0  -2.448549951039674 4.918093431123176 0  -2.448423054642664 -4.91046983617596 0  4.910393536265504 2.447876332170305 0  4.918522450073897 -2.449339581174548 0  2.446150742889576 -4.89569718045625 0  2.440584721571374 4.899460803896441 0  -4.910420704933109 -2.447902873612592 0  -4.91041797040211 2.447906848748053 0  -1.748503575421383 4.910972164367285 0  -1.744290680060641 -4.914414875500157 0  4.920562886220054 1.744052884881818 0  4.909086626314786 -1.747811552582764 0  -4.909381192633545 -1.747546002323558 0  -4.910204108628752 1.74729114200214 0  1.745775561445814 4.904825394578451 0  1.747187042709678 -4.892964183056319 0  -1.14881694192662 4.908746525198481 0  -1.129675776677826 -4.916668148233782 0  -4.909081339752018 -1.147878007411258 0  -4.908899427724136 1.147678506427922 0  1.143813107395562 -4.912849230215997 0  1.148826880046065 4.908733022340074 0  4.909220743288489 1.14615312448042 0  4.920065716465095 -1.151940959980476 0  -0.5466560348027943 -4.909930349966894 0  -0.5464400153035937 4.918624117081347 0  -4.907799824997875 -0.5486807949625868 0  -4.907823781378095 0.5472387405069884 0  4.907117316843893 -0.5489988328264082 0  4.918791491213147 0.5457597395795046 0  0.5424371756915199 -4.896793415221162 0  0.551168262689033 4.915443254802937 0  -4.911858473318533 -3.04826433500303 0  4.918431844436899 3.046282420231208 0  4.911365947077226 -3.048239667738375 0  -4.912706502168052 3.045356197083495 0  3.05527743513612 -4.917354180155852 0  -3.048606501563966 -4.911287680571777 0  3.052174313436922 4.913366162992182 0  -3.048052334933526 4.912177819808793 0  -4.906902659522606 -0.04990497258007576 0  0.04511901994488733 -4.911879709447097 0  0.04956645948033497 4.918915014059632 0  4.913967912320582 -0.05128732341369268 0  3.5456008799785 -4.91900688450029 0  -3.548879766834403 4.9119
[...]
<PointData  Scalars="f_27"> 
<DataArray  type="Float64"  Name="f_27"  format="ascii">0.0000000000000000e+00  0.0000000000000000e+00  0.0000000000000000e+00  0.0000000000000000e+00  9.7656393929799012e-01  0.0000000000000000e+00  0.0000000000000000e+00  0.0000000000000000e+00  0.0000000000000000e+00  0.0000000000000000e+00  0.0000000000000000e+00  0.0000000000000000e+00  0.0000000000000000e+00  0.0000000000000000e+00  0.0000000000000000e+00  0.0000000000000000e+00  0.0000000000000000e+00  0.0000000000000000e+00  0.0000000000000000e+00  0.0000000000000000e+00  0.0000000000000000e+00  0.0000000000000000e+00  0.0000000000000000e+00  0.0000000000000000e+00  0.0000000000000000e+00  0.0000000000000000e+00  0.0000000000000000e+00  0.0000000000000000e+00  0.0000000000000000e+00  0.0000000000000000e+00  0.0000000000000000e+00  0.0000000000000000e+00  0.0000000000000000e+00  0.0000000000000000e+00  0.0000000000000000e+00  0.0000000000000000e+00  0.0000000000000000e+00  0.0000000000000000e+00  0.0000000000000000e+00  0.0000000000000000e+00  0.0000000000000000e+00  0.0000000000000000e+00  0.0000000000000000e+00  0.0000000000000000e+00  0.0000000000000000e+00  0.0000000000000000e+00  0.0000000000000000e+00  0.0000000000000000e+00  0.0000000000000000e+00  0.0000000000000000e+00  0.0000000000000000e+00  0.0000000000000000e+00  0.0000000000000000e+00  0.0000000000000000e+00  0.0000000000000000e+00  0.0000000000000000e+00  0.0000000000000000e+00  0.0000000000000000e+00  0.0000000000000000e+00  0.0000000000000000e+00  0.0000000000000000e+00  0.0000000000000000e+00  0.0000000000000000e+00  0.0000000000000000e+00  0.0000000000000000e+00  0.0000000000000000e+00  0.0000000000000000e+00  0.0000000000000000e+00  0.0000000000000000e+00  0.0000000000000000e+00  0.0000000000000000e+00  0.0000000000000000e+00  0.0000000000000000e+00  0.0000000000000000e+00  0.0000000000000000e+00  0.0000000000000000e+00  0.0000000000000000e+00  0.0000000000000000e+00  0.0000000000000000e+00  0.0000000000000000e+00  0.0000000000000000e+00  0.0000000000000000e+00  0.0000000000000000e+00  0.0000000000000000e+00  0.0000000000000000e+00  0.0000000000000000e+00  0.0000000000000000e+00  0.0000000000000000e+00  0.0000000000000000e+00  0.0000000000000000e+00  0.0000000000000000e+00  0.0000000000000000e+00  0.0000000000000000e+00  0.0000000000000000e+00  0.0000000000000000e+00  0.0000000000000000e+00  0.0000000000000000e+00  0.0000000000000000e+00  0.0000000000000000e+00  0.0000000000000000e+00  0.0000000000000000e+00  0.0000000000000000e+00  0.0000000000000000e+00  0.0000000000000000e+00  0.0000000000000000e+00  0.0000000000000000e+00  0.0000000000000000e+00  0.0000000000000000e+00  0.0000000000000000e+00  0.0000000000000000e+00  0.0000000000000000e+00  0.0000000000000000e+00  0.0000000000000000e+00  0.0000000000000000e+00  0.0000000000000000e+00  0.0000000000000000e+00  0.0000000000000000e+00  0.0000000000000000e+00  0.0000000000000000e+00  0.0000000000000000e+00  0.0000000000000000e+00  0.0000000000000000e+00  0.0000000000000000e+00  0.0000000000000000e+00  0.0000000000000000e+00  0.0000000000000000e+00  0.0000000000000000e+00  0.0000000000000000e+00  0.0000000000000000e+00  0.0000000000000000e+00  0.0000000000000000e+00  0.0000000000000000e+00  0.0000000000000000e+00  0.0000000000000000e+00  0.0000000000000000e+00  0.0000000000000000e+00  0.0000000000000000e+00  0.0000000000000000e+00  0.0000000000000000e+00  0.0000000000000000e+00  0.0000000000000000e+00  0.0000000000000000e+00  0.0000000000000000e+00  0.0000000000000000e+00  0.0000000000000000e+00  0.0000000000000000e+00  0.0000000000000000e+00  0.0000000000000000e+00  0.0000000000000000e+00  0.0000000000000000e+00  0.0000000000000000e+00  0.0000000000000000e+00  0.0000000000000000e+00  0.0000000000000000e+00  0.0000000000000000e+00  0.0000000000000000e+00  0.0000000000000000e+00  0.0000000000000000e+00  0.0000000000000000e+00  0.0000000000000000e+00  0.0000000000000000e+00  0.0000000000000000e+00  0.0000000000000000e+00  0.0000000000000000e+00  0.0000000000000000e+00  0.0000000000000000e+00  0.0000000000000000e+00  0.0000000000000000e+00  0.0000000000000000e+00  0.0000000000000000e+00  0.0000000000000000e+00  0.0000000000000000e+00  0.0000000000000000e+00  0.0000000000000000e+00  0.0000000000000000e+00  0.0000000000000000e+00  0.0000000000000000e+00  0.0000000000000000e+00  0.0000000000000000e+00  0.0000000000000000e+00  0.0000000000000000e+00  0.0000000000000000e+00  0.0000000000000000e+00  0.0000000000000000e+00  0.0000000000000000e+00  0.0000000000000000e+00  0.0000000000000000e+00  0.0000000000000000e+00  0.0000000000000000e+00  0.0000000000000000e+00  0.0000000000000000e+00  0.0000000000000000e+00  0.0000000000000000e+00  0.0000000000000000e+00  0.0000000000000000e+00  0.0000000000000000e+00  0.0000000000000000e+00  0.0000000000000000e+00  0.0000000000000000e+00  0.0000000000000000e+00  0.0000000000000000e+00  0.0000000000000000e+00  0.0000000000000000e+00  0.0000000000000000e+00  0.0000000000000000e+00  0.0000000000000000e+00  0.0000000000000000e+00  0.0000000000000000e+00  0.0000000000000000e+00  0.0000000000000000e+00  0.0000000000000000e+00  0.0000000000000000e+00  0.0000000000000000e+00  0.0000000000000000e+00  0.0000000000000000e+00  0.0000000000000000e+00  0.0000000000000000e+00  0.0000000000000000e+00  0.0000000000000000e+00  0.0000000000000000e+00  0.0000000000000000e+00  0.0000000000000000e+00  0.0000000000000000e+00  0.0000000000000000e+00  0.0000000000000000e+00  0.0000000000000000e+00  0.0000000000000000e+00  0.0000000000000000e+00  0.0000000000000000e+00  0.0000000000000000e+00  0.0000000000000000e+00  0.0000000000000000e+00  0.0000000000000000e+00  0.0000000000000000e+00  0.0000000000000000e+00  0.0000000000000000e+00  0.0000000000000000e+00  0.0000000000000000e+00  0.0000000000000000e+00  0.0000000000000000e+00  0.0000000000000000e+00  0.0000000000000000e+00  0.0000000000000000e+00  0.0000000000000000e+00  0.0000000000000000e+00  0.0000000000000000e+00  0.0000000000000000e+00  0.0000000000000000e+00  0.0000000000000000e+00  0.0000000000000000e+00  0.0000000000000000e+00  0.0000000000000000e+00  0.0000000000000000e+00  0.0000000000000000e+00  0.0000000000000000e+00  0.0000000000000000e+00  0.0000000000000000e+00  0.0000000000000000e+00  0.0000000000000000e+00  0.0000000000000000e+00  0.0000000000000000e+00  0.0000000000000000e+00  0.0000000000000000e+00  0.0000000000000000e+00  0.0000000000000000e+00  0.0000000000000000e+00  0.0000000000000000e+00  0.0000000000000000e+00  0.0000000000000000e+00  0.0000000000000000e+00  0.0000000000000000e+00  0.0000000000000000e+00  0.0000000000000000e+00  0.0000000000000000e+00  0.0000000000000000e+00  0.0000000000000000e+00  0.0000000000000000e+00  0.0000000000000000e+00  0.0000000000000000e+00  0.0000000000000000e+00  0.0000000000000000e+00  0.0000000000000000e+00  0.0000000000000000e+00  0.0000000000000000e+00  0.0000000000000000e+00  0.0000000000000000e+00  0.0000000000000000e+00  0.0000000000000000e+00  0.0000000000000000e+00  0.0000000000000000e+00  0.0000000000000000e+00  0.0000000000000000e+00  0.0000000000000000e+00  0.0000000000000000e+00  0.0000000000000000e+00  0.0000000000000000e+00  0.0000000000000000e+00  0.0000000000000000e+00  0.0000000000000000e+00  0.0000000000000000e+00  0.0000000000000000e+00  0.0000000000000000e+00  0.0000000000000000e+00  0.0000000000000000e+00  0.0000000000000000e+00  0.0000000000000000e+00  0.0000000000000000e+00  0.0000000000000000e+00  0.0000000000000000e+00  0.0000000000000000e+00  0.0000000000000000e+00  0.0000000000000000e+00  0.0000000000000000e+00  0.0000000000000000e+00  0.0000000000000000e+00  0.0000000000000000e+00  0.0000000000000000e+00  0.0000000000000000e+00  0.0000000000000000e+00  0.0000000000000000e+00  0.0000000000000000e+00  0.0000000000000000e+00  0.0000000000000000e+00  0.0000000000000000e+00  0.0000000000000000e+00  0.0000000000000000e+00  0.0000000000000000e+00  0.0000000000000000e+00  0.0000000000000000e+00  0.0000000000000000e+00  0.0000000000000000e+00  0.0000000000000000e+00  0.0000000000000000e+00  0.0000000000000000e+00  0.0000000000000000e+00  0.0000000000000000e+00  0.0000000000000000e+00  0.0000000000000000e+00  0.0000000000000000e+00  0.0000000000000000e+00  0.0000000000000000e+00  0.0000000000000000e+00  0.0000000000000000e+00  0.0000000000000000e+00  0.0000000000000000e+00  0.0000000000000000e+00  0.0000000000000000e+00  0.0000000000000000e+00  0.0000000000000000e+00  0.0000000000000000e+00  0.0000000000000000e+00  0.0000000000000000e+00  0.0000000000000000e+00  0.0000000000000000e+00  0.0000000000000000e+00  0.0000000000000000e+00  0.0000000000000000e+00  0.0000000000000000e+00  0.0000000000000000e+00  0.0000000000000000e+00  0.0000000000000000e+00  0.0000000000000000e+00  0.0000000000000000e+00  0.0000000000000000e+00  0.0000000000000000e+00  0.0000000000000000e+00  0.0000000000000000e+00  0.0000000000000000e+00  0.0000000000000000e+00  0.0000000000000000e+00  0.0000000000000000e+00  0.0000000000000000e+00  0.0000000000000000e+00  0.0000000000000000e+00  0.0000000000000000e+00  0.0000000000000000e+00  0.0000000000000000e+00  0.0000000000000000e+00  0.0000000000000000e+00  0.0000000000000000e+00  0.0000000000000000e+00  0.0000000000000000e+00  0.0000000000000000e+00  0.0000000000000000e+00  0.0000000000000000e+00  0.0000000000000000e+00  0.0000000000000000e+00  0.0000000000000000e+00  0.0000000000000000e+00  0.0000000000000000e+00  0.0000000000000000e+00  0.0000000000000000e+00  0.0000000000000000e+00  0.0000000000000000e+00  0.0000000000000000e+00  0.0000000000000000e+00  0.0000000000000000e+00  0.0000000000000000e+00  0.0000000000000000e+00  0.0000000000000000e+00  0.0000000000000000e+00  9.7738219737024823e-01  9.8173773795629793e-01  9.8525182278737933e-01  9.8602445569132191e-01  9.8407115190204364e-01  9.7610280285441187e-01  9.8020962337215589e-01  9.8396710353695405e-01  9.7923984937510022e-01  9.8008615768035878e-01  9.8407447137306736e-01  9.7649810053866426e-01  9.7269640029598758e-01  9.8672407124455686e-01  9.7772349463305852e-01  9.7517809316807724e-01  9.8684471345144287e-01  9.8713358349444258e-01  9.7482308092673930e-01  9.8054975632016383e-01  9.7981312706119483e-01  9.7879188090463176e-01  9.8109486875996699e-01  9.8160026829137514e-01  9.8412807968493865e-01  9.8213792327580429e-01  9.8218285011975848e-01  9.8292595003913863e-01  9.8158804810739586e-01  9.8207639764831089e-01  9.8365768091100503e-01  9.8310090817307749e-01  9.8017251066994793e-01  9.7878505996859499e-01  9.8272861259240951e-01  9.7843251729301706e-01  9.8007555732029783e-01  9.8211160163670252e-01  9.8075460417016846e-01  9.7862052591737858e-01  9.8363252089410247e-01  9.7987895996199115e-01  9.8415425991905137e-01  9.7185336936588873e-01  9.8302298555075673e-01  9.8451126481274043e-01  9.5726523445660594e-01  9.7904952747169705e-01  9.8543507926838736e-01  9.7561825279724179e-01  9.7780982023374774e-01  9.8601853276593676e-01  9.8113324814602465e-01  9.7155262422491895e-01  9.7915928341400593e-01  9.8333549729188874e-01  9.8401034326067172e-01  9.8188302020877849e-01  9.7419908691962376e-01  9.7773037439290345e-01  9.8117175420633362e-01  9.7852111608532211e-01  -1.3773832774487022e-32  1.5292347681026104e-32  1.5245777306006202e-35  3.7965018800124035e-35  2.1829239541327108e-32  3.3167329487000692e-32  1.0514570794418229e-35  3.9345042075079218e-36  -7.0801719914721437e-32  -3.6556320970247632e-32  2.1702122307258017e-33  7.2973703572272282e-33  6.4571811799708562e-33  6.2406259494371149e-33  4.1427513795047960e-31  2.1656058824520241e-31  -5.8400620288774974e-31  1.1720521189328597e-32  -7.6090542850076495e-31  -9.5585240777964071e-31  -1.7087797700919338e-31  -3.2325239749132527e-31  -2.5120449093258870e-31  -5.6315134221807354e-31  -2.1195420591397952e-31  -2.6697990643717154e-31  -2.2671055783804470e-29  -1.0781996647008405e-29  -1.0924165005927093e-30  -1.4365961758209355e-29  6.8975931293577210e-31  -2.6324885159246136e-31  -2.6798528152095131e-37  2.7230623514447743e-37  2.5077177919344316e-37  -3.1377233932461961e-37  3.6037755025147293e-34  2.4070392382798987e-34  2.9754072556808756e-34  2.8017683847224672e-34  -4.5555088965475483e-29  7.1821599145166516e-31  1.0301392277769312e-31  1.4150524366977248e-28  9.7623466848742476e-37  8.7632624183241969e-37  1.1164617239040717e-36  -2.9904677268022061e-39  -1.4134089006831323e-39  -3.6127542997166245e-39  -1.6689736742684802e-40  8.9618121869312958e-38  9.5544493304332753e-41  -1.2868512414512313e-38  -3.4322039394223402e-40  -7.0701113419664477e-41  -1.3959376261709702e-38  1.1065904591611658e-40  -6.1233648499983449e-39  -1.0935851038583638e-40  -3.7816394748363770e-41  -3.9517908929296807e-41  -3.8738355099808632e-41  -1.8594162099835990e-42  -1.2188358277559052e-42  3.1023498786566372e-42  3.8030345307865015e-42  -3.8625498808901949e-41  1.2393284532001976e-28  2.2011427226529894e-31  8.2688924628385602e-33  1.3291945346751936e-28  4.2477306865705366e-31  1.0434559745569898e-31  2.3356303301922332e-30  2.0637295118992673e-30  1.1839067811213699e-31  2.0097150104604316e-31  -6.5607772379767304e-32  -8.5954413271183193e-31  -2.4746267085306432e-31  -2.6866289408448887e-32  3.0058831544352247e-30  3.8720545123732502e-30  -1.5037875288685684e-32  2.2596510146987416e-31  -2.8958158210810010e-32  8.4329546009172298e-32  -1.6763560251834019e-31  -1.8032144428901502e-31  -1.0053313104893597e-33  -1.0151187440810443e-33  -3.2541027048305424e-32  -2.6304642023007314e-32  5.2233298811699423e-34  6.0666502545000512e-34  3.4212178334277232e-36  -3.8562195522342456e-34  3.6724902760161871e-33  -2.5001683123287010e-36  8.4713662180416002e-34  -1.9323992282674347e-36  2.7646555780537395e-36  2.9489029085049823e-33  1.2050131743943233e-43  5.9445970269327599e-43  -1.4300662881540165e-43  -6.8908830099020248e-44  -8.9530628850309406e-44  1.7291980070989481e-44  1.9397978037547077e-43  1.7726964457177192e-43  5.5734615662832330e-29  1.2726785508900154e-30  5.7063229427594180e-31  1.6004157212167241e-28  2.6856470567167552e-33  -1.1192891080901708e-34  -1.6876305794037160e-34  5.0885665504509154e-34  1.0942747138788676e-34  1.6319736462267511e-32  1.8710838207700463e-32  1.2007779339459072e-34  -5.0080536545164631e-38  -6.6477123630411437e-35  -2.5932320061045375e-35  -1.8945025706731592e-38  -3.5754719806791056e-38  5.8081805740534736e-36  -4.1489461422942639e-35  -3.8106834583980692e-39  1.6393481557784652e-41  -1.0262495216798578e-41  -1.0471516306412553e-37  -5.9409838537720464e-40  -6.1623957857537479e-39  -3.6696888702310814e-40  8.6776262801163911e-40  -1.5046578329286649e-41  -4.3030736338433860e-38  -5.2024414055881136e-40  -1.8117994240184781e-40  -8.9854031949859849e-42  8.4157348513429761e-40  -1.0425825552691995e-41  -1.5668937733753526e-38  -3.4573340477570390e-40  -5.3674938159453805e-44  3.5826721146160278e-44  -1.6992042108426375e-44  -7.1410342427039070e-44  4.1938362456289983e-30  -1.4043725995332139e-28  -2.5282613995184739e-28  8.6191353551233040e-28  8.2775476229178726e-28  -3.6256888896768956e-27  -1.9825033654836042e-27  1.1695492071961140e-26  2.2462453734141981e-27  -2.7510025220929747e-26  8.8709232600837741e-27  2.8523449350493720e-26  -7.4164551209652892e-26  1.3624798491335990e-25  3.2424542389648863e-25  -1.0748076020343237e-24  -1.0458148415713684e-24  4.5890179284478324e-24  2.5765530047105636e-24  -1.4530805761493639e-23  -4.2599239594084113e-24  -1.5538008451024751e-23  3.5007186538171653e-23  5.2474520146883827e-25  -5.5377556729538650e-23  2.8366063216317343e-23  -7.9711664132564050e-24  -1.2109647243105094e-22  4.1877759096680759e-22  2.9334388235234151e-22  -1.6696808543017989e-21  -3.1464000954521223e-22  -3.0491222604226057e-22  3.8247706304061387e-21  -8.9569215153613640e-22  -3.0614928394052103e-21  5.6463745927156484e-21  -1.5869008720673455e-20  -1.4074552070753370e-20  8.1070525200403491e-20  8.5927954566693914e-21  -1.7286367572377898e-19  7.1133923797814179e-20  -2.6849656641735253e-19  3.8765960911387058e-21  -2.8252592826185783e-19  1.2154144605372064e-18  3.3706421287839789e-19  3.1724371861108138e-20  -3.1443198300170400e-19  9.5570886936151995e-19  5.0466154491199193e-19  6.7656705094934739e-21  -3.2221112321249224e-19  5.7144591981012099e-20  1.4686079997350765e-20  4.5717240777433888e-19  -3.0991941148520216e-19  4.9095190818224840e-20  4.4231367671506709e-20  -2.0839372447992889e-20  2.9553313920138083e-20  -2.4224091558956780e-19  5.9166493872521028e-20  -1.7883743243856008e-20  1.2311815688033601e-20  -1.7091871596982460e-19  6.7252354258902830e-20  -1.4076800704784816e-20  -3.8397220267108535e-21  -9.4331431310298037e-20  6.8653798915058619e-20  -3.2646267463004534e-19  4.3536253657350651e-21  4.3865219605893712e-20  1.9096828681892140e-19  -1.9467010583345292e-19  9.1172077601442690e-19  -6.4383319575454171e-20  -1.5225474365843785e-18  1.2574756884153661e-18  -7.8502290863777220e-18  -1.2921437141932404e-19  2.6105800491212118e-18  -8.2268150212714221e-18  3.1089883376112448e-19  1.0427039025279696e-17  -6.9261489147465605e-18  3.9833861276526957e-17  -1.2720891611209826e-17  4.5927715234599936e-17  -8.6473169867740563e-18  1.2159871106781596e-17  2.4019417667395679e-18  -2.3631034833611415e-17  3.1982479269526339e-18  -1.4404164812979642e-18  -2.7362541910335086e-01  6.4566964550170772e-18  -1.2480759039262312e-17  -2.5893993319001376e-18  3.3384456885449743e-17  -3.2278023180761295e-01  -1.3364574678650027e-17  5.6199654604347682e-17  -2.6100189001379742e-01  -1.3178141382017179e-17  3.4101612835371020e-17  -1.8563759100399620e-16  -5.7576007712101507e-17  2.5431673448730012e-19  3.7091119828316199e-17  -1.8073144932547427e-16  3.9401952862773892e-18  -1.3228917281378192e-17  4.4642118138869583e-17  -1.8606533609147358e-16  -1.1307116613166827e-16  1.6309527162195104e-17  -1.8211923413088530e-17  2.1212224858992079e-16  -1.7255667204852049e-17  1.2017894074364665e-17  -3.8081178777660481e-17  1.6330154666507376e-16  6.6795888117777001e-17  -2.2022463352107881e-18  -2.6439809103157597e-17  2.0496429700632271e-18  9.4446098628828881e-17  -9.6147966101035815e-18  -2.6644720849817233e-17  -7.0269625751331981e-17  1.5723907698627678e-16  -2.2124369528722651e-17  -2.1900590718691938e-17  -2.0540040298949304e-16  2.2342517641616748e-16  -7.5108268095522889e-16  -3.0193501854788204e-16  -2.3601713605725134e-17  2.7960127867546760e-16  -1.0352221275767758e-15  -2.2417608585481470e-16  -4.9515220940493751e-17  2.9402396045744887e-16  -1.4459256511355570e-15  8.4984520753582049e-17  2.0088443809614500e-15  -1.4702773981380912e-15  6.4797658298456396e-15  -3.7784058432442138e-16  4.1669143473581173e-16  -7.4073182111227610e-16  6.1037250730906296e-15  -2.1558938167632525e-15  6.9796416437030074e-15  -3.0296893895447863e-16  -5.5373893616811359e-15  2.5225586577758402e-15  -5.5369225931223450e-15  -3.0359886242801460e-15  -2.8046536286514739e-16  2.7033634599036426e-15  -1.7884788326154350e-14  6.5493461648144517e-15  -2.8489581627550292e-14  7.7340608442808562e-15  -2.7332495192808309e-14  6.9337048521806819e-15  -2.5734940651256952e-14  7.7104750755529930e-15  -3.3017733797227039e-14  9.9990738336822239e-15  -3.9367948363097166e-14  1.0025365614783170e-14  -3.1805161542549923e-14  6.2156902601518216e-15  -1.3445409532510126e-14  1.3042712244036629e-15  1.6471741789507863e-15  -1.3175958651280192e-15  5.5658481313160076e-15  -1.1176771249627697e-15  1.9426045347378710e-15  -4.0922305977537118e-17  -9.5331413931510066e-16  1.5240514413757708e-16  -5.9467614364873559e-17  -6.5609005333647957e-18  1.9626939362885679e-17  -3.6302661294133344e-18  -3.7023481911554792e-18  1.3618835391690790e-18  3.7357776494776462e-19  -2.7938794952357636e-19  2.8375254626490075e-20  -3.5339022848619076e-19  3.3409224923945819e-20  -1.9722367440542016e-15  7.8317563346716908e-20  -1.0271715903811972e-19  -8.8723381195271312e-21  1.0208736290365525e-19  -2.1152205722990580e-20  2.1307370236912474e-20  3.2577341322484912e-21  