<?xml version="1.0"?>
<VTKFile type="UnstructuredGrid"  version="0.1"  >
<UnstructuredGrid>
<Piece  NumberOfPoints="11902" NumberOfCells="23402">
<Points>
<DataArray  type="Float64"  NumberOfComponents="3"  format="ascii">-5 -5 0  5 -5 0  5 5 0  -5 5 0  1.263013449392372 0.001286899505281089 0  -4.9 -5 0  -4.8 -5 0  -4.7 -5 0  -4.6 -5 0  -4.5 -5 0  -4.4 -5 0  -4.3 -5 0  -4.2 -5 0  -4.1 -5 0  -4 -5 0  -3.9 -5 0  -3.8 -5 0  -3.7 -5 0  -3.6 -5 0  -3.5 -5 0  -3.4 -5 0  -3.3 -5 0  -3.2 -5 0  -3.1 -5 0  -3 -5 0  -2.9 -5 0  -2.8 -5 0  -2.7 -5 0  -2.6 -5 0  -2.5 -5 0  -2.4 -5 0  -2.3 -5 0  -2.2 -5 0  -2.1 -5 0  -2 -5 0  -1.9 -5 0  -1.8 -5 0  -1.7 -5 0  -1.6 -5 0  -1.5 -5 0  -1.4 -5 0  -1.3 -5 0  -1.2 -5 0  -1.1 -5 0  -1 -5 0  -0.9000000000000004 -5 0  -0.7999999999999998 -5 0  -0.7000000000000002 -5 0  -0.5999999999999996 -5 0  -0.5 -5 0  -0.4000000000000004 -5 0  -0.2999999999999998 -5 0  -0.2000000000000002 -5 0  -0.09999999999999964 -5 0  0 -5 0  0.09999999999999964 -5 0  0.2000000000000002 -5 0  0.2999999999999998 -5 0  0.4000000000000004 -5 0  0.5 -5 0  0.5999999999999996 -5 0  0.7000000000000002 -5 0  0.7999999999999998 -5 0  0.9000000000000004 -5 0  1 -5 0  1.1 -5 0  1.2 -5 0  1.3 -5 0  1.4 -5 0  1.5 -5 0  1.6 -5 0  1.7 -5 0  1.8 -5 0  1.9 -5 0  2 -5 0  2.1 -5 0  2.2 -5 0  2.3 -5 0  2.4 -5 0  2.5 -5 0  2.6 -5 0  2.7 -5 0  2.8 -5 0  2.9 -5 0  3 -5 0  3.1 -5 0  3.199999999999999 -5 0  3.300000000000001 -5 0  3.4 -5 0  3.5 -5 0  3.6 -5 0  3.699999999999999 -5 0  3.800000000000001 -5 0  3.9 -5 0  4 -5 0  4.1 -5 0  4.199999999999999 -5 0  4.300000000000001 -5 0  4.4 -5 0  4.5 -5 0  4.6 -5 0  4.699999999999999 -5 0  4.800000000000001 -5 0  4.9 -5 0  5 -4.9 0  5 -4.8 0  5 -4.7 0  5 -4.6 0  5 -4.5 0  5 -4.4 0  5 -4.3 0  5 -4.2 0  5 -4.1 0  5 -4 0  5 -3.9 0  5 -3.8 0  5 -3.7 0  5 -3.6 0  5 -3.5 0  5 -3.4 0  5 -3.3 0  5 -3.2 0  5 -3.1 0  5 -3 0  5 -2.9 0  5 -2.8 0  5 -2.7 0  5 -2.6 0  5 -2.5 0  5 -2.4 0  5 -2.3 0  5 -2.2 0  5 -2.1 0  5 -2 0  5 -1.9 0  5 -1.8 0  5 -1.7 0  5 -1.6 0  5 -1.5 0  5 -1.4 0  5 -1.3 0  5 -1.2 0  5 -1.1 0  5 -1 0  5 -0.9000000000000004 0  5 -0.7999999999999998 0  5 -0.7000000000000002 0  5 -0.5999999999999996 0  5 -0.5 0  5 -0.4000000000000004 0  5 -0.2999999999999998 0  5 -0.2000000000000002 0  5 -0.09999999999999964 0  5 0 0  5 0.09999999999999964 0  5 0.2000000000000002 0  5 0.2999999999999998 0  5 0.4000000000000004 0  5 0.5 0  5 0.5999999999999996 0  5 0.7000000000000002 0  5 0.7999999999999998 0  5 0.9000000000000004 0  5 1 0  5 1.1 0  5 1.2 0  5 1.3 0  5 1.4 0  5 1.5 0  5 1.6 0  5 1.7 0  5 1.8 0  5 1.9 0  5 2 0  5 2.1 0  5 2.2 0  5 2.3 0  5 2.4 0  5 2.5 0  5 2.6 0  5 2.7 0  5 2.8 0  5 2.9 0  5 3 0  5 3.1 0  5 3.199999999999999 0  5 3.300000000000001 0  5 3.4 0  5 3.5 0  5 3.6 0  5 3.699999999999999 0  5 3.800000000000001 0  5 3.9 0  5 4 0  5 4.1 0  5 4.199999999999999 0  5 4.300000000000001 0  5 4.4 0  5 4.5 0  5 4.6 0  5 4.699999999999999 0  5 4.800000000000001 0  5 4.9 0  4.9 5 0  4.8 5 0  4.7 5 0  4.6 5 0  4.5 5 0  4.4 5 0  4.3 5 0  4.2 5 0  4.1 5 0  4 5 0  3.9 5 0  3.8 5 0  3.7 5 0  3.6 5 0  3.5 5 0  3.4 5 0  3.3 5 0  3.2 5 0  3.1 5 0  3 5 0  2.9 5 0  2.8 5 0  2.7 5 0  2.6 5 0  2.5 5 0  2.4 5 0  2.3 5 0  2.2 5 0  2.1 5 0  2 5 0  1.9 5 0  1.8 5 0  1.7 5 0  1.6 5 0  1.5 5 0  1.4 5 0  1.3 5 0  1.2 5 0  1.1 5 0  1 5 0  0.9000000000000004 5 0  0.7999999999999998 5 0  0.7000000000000002 5 0  0.5999999999999996 5 0  0.5 5 0  0.4000000000000004 5 0  0.2999999999999998 5 0  0.2000000000000002 5 0  0.09999999999999964 5 0  0 5 0  -0.09999999999999964 5 0  -0.2000000000000002 5 0  -0.2999999999999998 5 0  -0.4000000000000004 5 0  -0.5 5 0  -0.5999999999999996 5 0  -0.7000000000000002 5 0  -0.7999999999999998 5 0  -0.9000000000000004 5 0  -1 5 0  -1.1 5 0  -1.2 5 0  -1.3 5 0  -1.4 5 0  -1.5 5 0  -1.6 5 0  -1.7 5 0  -1.8 5 0  -1.9 5 0  -2 5 0  -2.1 5 0  -2.2 5 0  -2.3 5 0  -2.4 5 0  -2.5 5 0  -2.6 5 0  -2.7 5 0  -2.8 5 0  -2.9 5 0  -3 5 0  -3.1 5 0  -3.199999999999999 5 0  -3.300000000000001 5 0  -3.4 5 0  -3.5 5 0  -3.6 5 0  -3.699999999999999 5 0  -3.800000000000001 5 0  -3.9 5 0  -4 5 0  -4.1 5 0  -4.199999999999999 5 0  -4.300000000000001 5 0  -4.4 5 0  -4.5 5 0  -4.6 5 0  -4.699999999999999 5 0  -4.800000000000001 5 0  -4.9 5 0  -5 4.9 0  -5 4.8 0  -5 4.7 0  -5 4.6 0  -5 4.5 0  -5 4.4 0  -5 4.3 0  -5 4.2 0  -5 4.1 0  -5 4 0  -5 3.9 0  -5 3.8 0  -5 3.7 0  -5 3.6 0  -5 3.5 0  -5 3.4 0  -5 3.3 0  -5 3.2 0  -5 3.1 0  -5 3 0  -5 2.9 0  -5 2.8 0  -5 2.7 0  -5 2.6 0  -5 2.5 0  -5 2.4 0  -5 2.3 0  -5 2.2 0  -5 2.1 0  -5 2 0  -5 1.9 0  -5 1.8 0  -5 1.7 0  -5 1.6 0  -5 1.5 0  -5 1.4 0  -5 1.3 0  -5 1.2 0  -5 1.1 0  -5 1 0  -5 0.9000000000000004 0  -5 0.7999999999999998 0  -5 0.7000000000000002 0  -5 0.5999999999999996 0  -5 0.5 0  -5 0.4000000000000004 0  -5 0.2999999999999998 0  -5 0.2000000000000002 0  -5 0.09999999999999964 0  -5 0 0  -5 -0.09999999999999964 0  -5 -0.2000000000000002 0  -5 -0.2999999999999998 0  -5 -0.4000000000000004 0  -5 -0.5 0  -5 -0.5999999999999996 0  -5 -0.7000000000000002 0  -5 -0.7999999999999998 0  -5 -0.9000000000000004 0  -5 -1 0  -5 -1.1 0  -5 -1.2 0  -5 -1.3 0  -5 -1.4 0  -5 -1.5 0  -5 -1.6 0  -5 -1.7 0  -5 -1.8 0  -5 -1.9 0  -5 -2 0  -5 -2.1 0  -5 -2.2 0  -5 -2.3 0  -5 -2.4 0  -5 -2.5 0  -5 -2.6 0  -5 -2.7 0  -5 -2.8 0  -5 -2.9 0  -5 -3 0  -5 -3.1 0  -5 -3.199999999999999 0  -5 -3.300000000000001 0  -5 -3.4 0  -5 -3.5 0  -5 -3.6 0  -5 -3.699999999999999 0  -5 -3.800000000000001 0  -5 -3.9 0  -5 -4 0  -5 -4.1 0  -5 -4.199999999999999 0  -5 -4.300000000000001 0  -5 -4.4 0  -5 -4.5 0  -5 -4.6 0  -5 -4.699999999999999 0  -5 -4.800000000000001 0  -5 -4.9 0  1.254814941821269 0.09386636016639542 0  1.232768610694988 0.191651456482033 0  1.199180218940992 0.2882509935505097 0  1.156392448002781 0.3766333608241909 0  1.097994529806409 0.4676364175306422 0  1.031750369848716 0.551459128113524 0  0.9531254117172009 0.6317520971871925 0  0.8659258937919033 0.7066538862332351 0  0.7740845365679528 0.7720185830245239 0  0.6718690427446324 0.8294329258529315 0  0.5590511922785615 0.8816729113404702 0  0.4459520997362036 0.92649177664732 0  0.334392803813357 0.9583404126717465 0  0.2087695350492675 0.9803186673794813 0  0.08822773965989496 0.9991469771197677 0  -0.02664439080431361 1.002572982614818 0  -0.1443069461915678 0.9887819674658068 0  -0.2731107088480265 0.9693153277671657 0  -0.3928679853678338 0.9451961111444602 0  -0.5029325221730346 0.9096503489458948 0  -0.6125950740548212 0.8631841393531846 0  -0.7146665908783109 0.8082668867824815 0  -0.8092912102329435 0.7435321814996249 0  -0.9007596129858844 0.6697597884760761 0  -0.9870346737938369 0.5896405854977186 0  -1.061834728831108 0.5082564782183731 0  -1.123826769548471 0.4234680012202829 0  -1.178202001090052 0.330399001107016 0  -1.215881846232073 0.2426018529179547 0  -1.240312752266908 0.148643388900744 0  -1.250874878788112 0.05219287741276423 0  -1.250834572822139 -0.04992269246253789 0  -1.240270713122926 -0.1456488074066105 0  -1.215493032558331 -0.2371653223300396 0  -1.173558943062086 -0.3321511457661543 0  -1.12414537203645 -0.4243024043057239 0  -1.0637493438721 -0.5081533525583303 0  -0.9895487348981367 -0.5886529785632778 0  -0.9039000738822686 -0.6677129447841765 0  -0.813150877690308 -0.7393162013740779 0  -0.717514505011222 -0.8001797495827856 0  -0.6127629589193112 -0.8533993958216974 0  -0.4977292002829434 -0.9030593216018741 0  -0.3850598317534903 -0.942986505663753 0  -0.2697744214237403 -0.9691266402235931 0  -0.1426722879291576 -0.9887574207843486 0  -0.027676986897558 -1.001809214825957 0  0.08706722279368442 -0.9944165632988056 0  0.2148971651611055 -0.9765268433839119 0  0.3371903980428186 -0.9566345582561881 0  0.4501335996192047 -0.9251703610430403 0  0.56163786380631 -0.8809127069583904 0  0.673024154714333 -0.8293666663857687 0  0.7739724496557102 -0.7731619193998643 0  0.8656187648440425 -0.7079732621354903 0  0.9515598605186835 -0.632163492983378 0  1.029226420622681 -0.5502463898315155 0  1.099237626684377 -0.46629007207221 0  1.157194382314001 -0.3770503941299223 0  1.200946792962042 -0.286318349148617 0  1.233486871955261 -0.1908962435609527 0  1.25522058326231 -0.09379388252864278 0  -2.448533924529203 4.918064919662339 0  -2.448405472794243 -4.910438647794012 0  4.910361255882763 2.447854317665125 0  4.918493169012298 -2.449319671398634 0  2.446130390238611 -4.89566062318263 0  2.440564946249739 4.899425372273494 0  -4.910388558996985 -2.447881127561627 0  -4.91038583628699 2.447885202083215 0  -1.748486900456666 4.910930750771671 0  -1.744274558056146 -4.914375013377167 0  4.920522212554806 1.744032966211841 0  4.909040191101483 -1.747788887965567 0  -4.909335075803074 -1.747523554853036 0  -4.9101584180718 1.747269045582976 0  1.745757632673676 4.904780802186941 0  1.747167102740882 -4.892914178189767 0  -1.148803639702155 4.908696035661747 0  -1.129663620450221 -4.916621881672627 0  -4.909023710714613 -1.147859537230171 0  -4.908841690784135 1.147660185996964 0  1.143800549815382 -4.912800868291732 0  1.148813432075485 4.908682317239993 0  4.909162865071361 1.146134449731393 0  4.920014871772015 -1.151924622853573 0  -0.5466489411823872 -4.909875159625022 0  -0.5464338227199309 4.918574189233264 0  -4.907732952309898 -0.5486705013924366 0  -4.907756918477713 0.5472286866881836 0  4.907049572174265 -0.5489885171977925 0  4.918732229438242 0.5457505955058125 0  0.5424294905817469 -4.896730052380635 0  0.5511616097754926 4.915391298638212 0  -4.911836740817397 -3.048246343062839 0  4.918411639380502 3.046265570158539 0  4.911344070235666 -3.048221449860746 0  -4.912684947852663 3.045338421689724 0  3.055263212950718 -4.917333414592299 0  -3.048591136095718 -4.911265423356564 0  3.052159305042469 4.91334428553259 0  -3.048037154238635 4.912155806903726 0  -4.906832339704151 -0.04990388713698393 0  0.04511861889130307 -4.911824036495098 0  0.04956579122534304 4.918863701623686 0  4.913902549338152 -0.05128648210576889 0  3.545589667606517 -4.918992415993849 0  -3.548867578836485 4.911889
[...]
<PointData  Scalars="f_27"> 
<DataArray  type="Float64"  Name="f_27"  format="ascii">0.0000000000000000e+00  0.0000000000000000e+00  0.0000000000000000e+00  0.0000000000000000e+00  9.7984621154278417e-01  0.0000000000000000e+00  0.0000000000000000e+00  0.0000000000000000e+00  0.0000000000000000e+00  0.0000000000000000e+00  0.0000000000000000e+00  0.0000000000000000e+00  0.0000000000000000e+00  0.0000000000000000e+00  0.0000000000000000e+00  0.0000000000000000e+00  0.0000000000000000e+00  0.0000000000000000e+00  0.0000000000000000e+00  0.0000000000000000e+00  0.0000000000000000e+00  0.0000000000000000e+00  0.0000000000000000e+00  0.0000000000000000e+00  0.0000000000000000e+00  0.0000000000000000e+00  0.0000000000000000e+00  0.0000000000000000e+00  0.0000000000000000e+00  0.0000000000000000e+00  0.0000000000000000e+00  0.0000000000000000e+00  0.0000000000000000e+00  0.0000000000000000e+00  0.0000000000000000e+00  0.0000000000000000e+00  0.0000000000000000e+00  0.0000000000000000e+00  0.0000000000000000e+00  0.0000000000000000e+00  0.0000000000000000e+00  0.0000000000000000e+00  0.0000000000000000e+00  0.0000000000000000e+00  0.0000000000000000e+00  0.0000000000000000e+00  0.0000000000000000e+00  0.0000000000000000e+00  0.0000000000000000e+00  0.0000000000000000e+00  0.0000000000000000e+00  0.0000000000000000e+00  0.0000000000000000e+00  0.0000000000000000e+00  0.0000000000000000e+00  0.0000000000000000e+00  0.0000000000000000e+00  0.0000000000000000e+00  0.0000000000000000e+00  0.0000000000000000e+00  0.0000000000000000e+00  0.0000000000000000e+00  0.0000000000000000e+00  0.0000000000000000e+00  0.0000000000000000e+00  0.0000000000000000e+00  0.0000000000000000e+00  0.0000000000000000e+00  0.0000000000000000e+00  0.0000000000000000e+00  0.0000000000000000e+00  0.0000000000000000e+00  0.0000000000000000e+00  0.0000000000000000e+00  0.0000000000000000e+00  0.0000000000000000e+00  0.0000000000000000e+00  0.0000000000000000e+00  0.0000000000000000e+00  0.0000000000000000e+00  0.0000000000000000e+00  0.0000000000000000e+00  0.0000000000000000e+00  0.0000000000000000e+00  0.0000000000000000e+00  0.0000000000000000e+00  0.0000000000000000e+00  0.0000000000000000e+00  0.0000000000000000e+00  0.0000000000000000e+00  0.0000000000000000e+00  0.0000000000000000e+00  0.0000000000000000e+00  0.0000000000000000e+00  0.0000000000000000e+00  0.0000000000000000e+00  0.0000000000000000e+00  0.0000000000000000e+00  0.0000000000000000e+00  0.0000000000000000e+00  0.0000000000000000e+00  0.0000000000000000e+00  0.0000000000000000e+00  0.0000000000000000e+00  0.0000000000000000e+00  0.0000000000000000e+00  0.0000000000000000e+00  0.0000000000000000e+00  0.0000000000000000e+00  0.0000000000000000e+00  0.0000000000000000e+00  0.0000000000000000e+00  0.0000000000000000e+00  0.0000000000000000e+00  0.0000000000000000e+00  0.0000000000000000e+00  0.0000000000000000e+00  0.0000000000000000e+00  0.0000000000000000e+00  0.0000000000000000e+00  0.0000000000000000e+00  0.0000000000000000e+00  0.0000000000000000e+00  0.0000000000000000e+00  0.0000000000000000e+00  0.0000000000000000e+00  0.0000000000000000e+00  0.0000000000000000e+00  0.0000000000000000e+00  0.0000000000000000e+00  0.0000000000000000e+00  0.0000000000000000e+00  0.0000000000000000e+00  0.0000000000000000e+00  0.0000000000000000e+00  0.0000000000000000e+00  0.0000000000000000e+00  0.0000000000000000e+00  0.0000000000000000e+00  0.0000000000000000e+00  0.0000000000000000e+00  0.0000000000000000e+00  0.0000000000000000e+00  0.0000000000000000e+00  0.0000000000000000e+00  0.0000000000000000e+00  0.0000000000000000e+00  0.0000000000000000e+00  0.0000000000000000e+00  0.0000000000000000e+00  0.0000000000000000e+00  0.0000000000000000e+00  0.0000000000000000e+00  0.0000000000000000e+00  0.0000000000000000e+00  0.0000000000000000e+00  0.0000000000000000e+00  0.0000000000000000e+00  0.0000000000000000e+00  0.0000000000000000e+00  0.0000000000000000e+00  0.0000000000000000e+00  0.0000000000000000e+00  0.0000000000000000e+00  0.0000000000000000e+00  0.0000000000000000e+00  0.0000000000000000e+00  0.0000000000000000e+00  0.0000000000000000e+00  0.0000000000000000e+00  0.0000000000000000e+00  0.0000000000000000e+00  0.0000000000000000e+00  0.0000000000000000e+00  0.0000000000000000e+00  0.0000000000000000e+00  0.0000000000000000e+00  0.0000000000000000e+00  0.0000000000000000e+00  0.0000000000000000e+00  0.0000000000000000e+00  0.0000000000000000e+00  0.0000000000000000e+00  0.0000000000000000e+00  0.0000000000000000e+00  0.0000000000000000e+00  0.0000000000000000e+00  0.0000000000000000e+00  0.0000000000000000e+00  0.0000000000000000e+00  0.0000000000000000e+00  0.0000000000000000e+00  0.0000000000000000e+00  0.0000000000000000e+00  0.0000000000000000e+00  0.0000000000000000e+00  0.0000000000000000e+00  0.0000000000000000e+00  0.0000000000000000e+00  0.0000000000000000e+00  0.0000000000000000e+00  0.0000000000000000e+00  0.0000000000000000e+00  0.0000000000000000e+00  0.0000000000000000e+00  0.0000000000000000e+00  0.0000000000000000e+00  0.0000000000000000e+00  0.0000000000000000e+00  0.0000000000000000e+00  0.0000000000000000e+00  0.0000000000000000e+00  0.0000000000000000e+00  0.0000000000000000e+00  0.0000000000000000e+00  0.0000000000000000e+00  0.0000000000000000e+00  0.0000000000000000e+00  0.0000000000000000e+00  0.0000000000000000e+00  0.0000000000000000e+00  0.0000000000000000e+00  0.0000000000000000e+00  0.0000000000000000e+00  0.0000000000000000e+00  0.0000000000000000e+00  0.0000000000000000e+00  0.0000000000000000e+00  0.0000000000000000e+00  0.0000000000000000e+00  0.0000000000000000e+00  0.0000000000000000e+00  0.0000000000000000e+00  0.0000000000000000e+00  0.0000000000000000e+00  0.0000000000000000e+00  0.0000000000000000e+00  0.0000000000000000e+00  0.0000000000000000e+00  0.0000000000000000e+00  0.0000000000000000e+00  0.0000000000000000e+00  0.0000000000000000e+00  0.0000000000000000e+00  0.0000000000000000e+00  0.0000000000000000e+00  0.0000000000000000e+00  0.0000000000000000e+00  0.0000000000000000e+00  0.0000000000000000e+00  0.0000000000000000e+00  0.0000000000000000e+00  0.0000000000000000e+00  0.0000000000000000e+00  0.0000000000000000e+00  0.0000000000000000e+00  0.0000000000000000e+00  0.0000000000000000e+00  0.0000000000000000e+00  0.0000000000000000e+00  0.0000000000000000e+00  0.0000000000000000e+00  0.0000000000000000e+00  0.0000000000000000e+00  0.0000000000000000e+00  0.0000000000000000e+00  0.0000000000000000e+00  0.0000000000000000e+00  0.0000000000000000e+00  0.0000000000000000e+00  0.0000000000000000e+00  0.0000000000000000e+00  0.0000000000000000e+00  0.0000000000000000e+00  0.0000000000000000e+00  0.0000000000000000e+00  0.0000000000000000e+00  0.0000000000000000e+00  0.0000000000000000e+00  0.0000000000000000e+00  0.0000000000000000e+00  0.0000000000000000e+00  0.0000000000000000e+00  0.0000000000000000e+00  0.0000000000000000e+00  0.0000000000000000e+00  0.0000000000000000e+00  0.0000000000000000e+00  0.0000000000000000e+00  0.0000000000000000e+00  0.0000000000000000e+00  0.0000000000000000e+00  0.0000000000000000e+00  0.0000000000000000e+00  0.0000000000000000e+00  0.0000000000000000e+00  0.0000000000000000e+00  0.0000000000000000e+00  0.0000000000000000e+00  0.0000000000000000e+00  0.0000000000000000e+00  0.0000000000000000e+00  0.0000000000000000e+00  0.0000000000000000e+00  0.0000000000000000e+00  0.0000000000000000e+00  0.0000000000000000e+00  0.0000000000000000e+00  0.0000000000000000e+00  0.0000000000000000e+00  0.0000000000000000e+00  0.0000000000000000e+00  0.0000000000000000e+00  0.0000000000000000e+00  0.0000000000000000e+00  0.0000000000000000e+00  0.0000000000000000e+00  0.0000000000000000e+00  0.0000000000000000e+00  0.0000000000000000e+00  0.0000000000000000e+00  0.0000000000000000e+00  0.0000000000000000e+00  0.0000000000000000e+00  0.0000000000000000e+00  0.0000000000000000e+00  0.0000000000000000e+00  0.0000000000000000e+00  0.0000000000000000e+00  0.0000000000000000e+00  0.0000000000000000e+00  0.0000000000000000e+00  0.0000000000000000e+00  0.0000000000000000e+00  0.0000000000000000e+00  0.0000000000000000e+00  0.0000000000000000e+00  0.0000000000000000e+00  0.0000000000000000e+00  0.0000000000000000e+00  0.0000000000000000e+00  0.0000000000000000e+00  0.0000000000000000e+00  0.0000000000000000e+00  0.0000000000000000e+00  0.0000000000000000e+00  0.0000000000000000e+00  0.0000000000000000e+00  0.0000000000000000e+00  0.0000000000000000e+00  0.0000000000000000e+00  0.0000000000000000e+00  0.0000000000000000e+00  0.0000000000000000e+00  0.0000000000000000e+00  0.0000000000000000e+00  0.0000000000000000e+00  0.0000000000000000e+00  0.0000000000000000e+00  0.0000000000000000e+00  0.0000000000000000e+00  0.0000000000000000e+00  0.0000000000000000e+00  0.0000000000000000e+00  0.0000000000000000e+00  0.0000000000000000e+00  0.0000000000000000e+00  0.0000000000000000e+00  0.0000000000000000e+00  0.0000000000000000e+00  0.0000000000000000e+00  0.0000000000000000e+00  0.0000000000000000e+00  0.0000000000000000e+00  0.0000000000000000e+00  0.0000000000000000e+00  0.0000000000000000e+00  0.0000000000000000e+00  0.0000000000000000e+00  0.0000000000000000e+00  0.0000000000000000e+00  0.0000000000000000e+00  0.0000000000000000e+00  0.0000000000000000e+00  0.0000000000000000e+00  0.0000000000000000e+00  0.0000000000000000e+00  0.0000000000000000e+00  0.0000000000000000e+00  0.0000000000000000e+00  0.0000000000000000e+00  0.0000000000000000e+00  0.0000000000000000e+00  0.0000000000000000e+00  0.0000000000000000e+00  0.0000000000000000e+00  0.0000000000000000e+00  0.0000000000000000e+00  0.0000000000000000e+00  0.0000000000000000e+00  0.0000000000000000e+00  9.8063758387083755e-01  9.8481840401187115e-01  9.8778514214270852e-01  9.8832239397109489e-01  9.8653609876223203e-01  9.8058576687989862e-01  9.8334303348908814e-01  9.8668352701398832e-01  9.8265899489805530e-01  9.8316601092852207e-01  9.8795099300662759e-01  9.7983405652805933e-01  9.7591371013016892e-01  9.9303754377390363e-01  9.8061086097070738e-01  9.7798779780593370e-01  9.9232337441853180e-01  9.8966290057237105e-01  9.7892459703992663e-01  9.8343547633344541e-01  9.8227981764871131e-01  9.8221039569383473e-01  9.8425850561544515e-01  9.8503412080985520e-01  9.8751860759462762e-01  9.8516877597136887e-01  9.8558108043781889e-01  9.8603492502954981e-01  9.8403686348328301e-01  9.8483221779732755e-01  9.8689410883203665e-01  9.8616740269489200e-01  9.8546630278649328e-01  9.8260961137613922e-01  9.8834064991449222e-01  9.8147766273951498e-01  9.8338252550565841e-01  9.8586226139835487e-01  9.8390424115057540e-01  9.8188397687595441e-01  9.8733441660395271e-01  9.8637840355023276e-01  9.8769372634777541e-01  9.7518007288775654e-01  9.8562960567115798e-01  9.9096106622867997e-01  9.6218761979861522e-01  9.8223164129068397e-01  9.9207937937173796e-01  9.7872025314834199e-01  9.8074738872672074e-01  9.8898612666257790e-01  9.8358666107839010e-01  9.7598662677802084e-01  9.8199328660665763e-01  9.8639996496126847e-01  9.8897996054886106e-01  9.8410414121357948e-01  9.7838714640294577e-01  9.8126561639887300e-01  9.8464789045439716e-01  9.8192226454262077e-01  -1.1950146358136119e-32  1.1062312186241873e-32  8.2032737048025767e-36  1.9924984503965248e-35  1.5450878851926937e-32  2.2704813009273751e-32  1.4785419918839396e-35  5.9936037634195192e-36  -5.2494826419050748e-32  -2.3705340997434934e-32  6.0010310404029478e-34  3.3459550021195205e-33  5.4358708321928561e-33  4.0245066703739491e-33  2.8670729808994484e-31  1.2908061042301257e-31  -4.0671863262756538e-31  2.7706581416869567e-32  -4.8739374160635563e-31  -5.4395232977124879e-31  -1.0381013233499688e-31  -2.5344097566658714e-31  -1.2151095261779543e-31  -3.0425121423529076e-31  -1.4253184490369099e-31  -1.6505605031029321e-31  -1.5651965241983492e-29  -1.0004727762360245e-29  -1.3427744721107887e-30  -7.2568916327359145e-30  4.1300424036199436e-31  -1.7357128896259583e-31  -1.1132301425819458e-37  1.8979129803178617e-37  1.6965245882789190e-37  -1.7041239600140349e-37  3.2343769124869322e-34  3.2580739940596446e-34  2.5015259811812057e-34  2.8212214808703719e-34  -4.5412337589653353e-30  4.4268821781000925e-31  1.1547692803274747e-31  9.2198099032710900e-29  7.2444467165683113e-37  6.5101257010378285e-37  8.8351666912407132e-37  -2.2713511811128275e-39  -1.7990600419702911e-39  -2.4037609584370508e-39  -7.6699608323567365e-40  2.2139123521845880e-38  7.2064095096989964e-41  -1.0434869531111975e-38  -9.2515673154905093e-40  -3.1464271875697387e-41  -1.1424575190887154e-38  8.3911032188681676e-41  -5.3606502512232869e-39  -6.0486528782207346e-41  -2.7841198302044207e-41  -3.0018734505091597e-41  -2.9779280304615183e-41  -1.3646397357062907e-42  -1.0091834515092831e-42  2.0719383438359164e-42  2.5388206052117511e-42  -2.9906913889983765e-41  9.8419684026619640e-29  6.2189217601455897e-32  4.9872238039261726e-32  9.3193449533397030e-29  2.8829413399509672e-31  4.6501145237981056e-32  1.9524807286319051e-30  1.3389657421571198e-30  4.7712653394623289e-32  1.2616075336989208e-31  3.3230745436222031e-32  -5.8189375338313473e-31  -1.8322638776137616e-31  -7.3621488946948073e-33  1.6237157594938436e-30  2.2379625143279186e-30  3.2405269812796283e-33  1.6450338756754963e-31  -9.3619213750812449e-32  5.8742187291318105e-32  -1.2385857677842207e-31  -1.2353785878279569e-31  -3.7324649674949754e-34  -4.0135220444866735e-34  -1.8522308542765601e-32  -8.7258613295295235e-33  1.9641547919908350e-34  2.1925786375913528e-34  2.0393927255473098e-36  2.6029028575888823e-34  2.3615331678345235e-33  -1.1176151772485057e-36  8.6317584738193153e-34  -3.5033101545097418e-37  1.7669549876126058e-36  2.1537540917240779e-33  7.2363876713557394e-44  4.1073533454120081e-43  -1.0388880399719879e-43  2.4086977880513976e-44  -6.1929088851320662e-44  4.5856906490895886e-44  1.1639327458763648e-43  1.3542066493012990e-43  4.8039746480211135e-29  7.8628839800910872e-31  4.2668249892122344e-31  9.7586446785910511e-29  3.5238812532785028e-33  -5.0314052597826015e-35  -7.7500750251332645e-35  -6.0665806512259061e-33  1.6383251553186081e-35  1.1511799211951331e-32  7.9830846886071110e-33  4.1034296289957484e-35  -3.2344376664727471e-38  -6.1776462970396839e-35  -2.5466330113486184e-35  -2.4005573846444067e-38  -2.6567510781431275e-38  1.9013926483716478e-36  -3.6646099295389248e-35  -9.8737558403282497e-39  -4.9775326819696133e-41  -6.0696648021996797e-42  -8.0737380695974119e-38  -4.7934862303233032e-40  -1.6553864879622074e-38  -2.6810028758548696e-40  6.2617206570064811e-40  -1.3311539941904167e-41  -3.5101571885081754e-38  -4.3587604570243165e-40  -1.3391453481196564e-40  -6.8816257523314001e-42  6.2065840382990735e-40  -1.0386279292857166e-41  -1.4713845444526024e-38  -2.6527588005893263e-40  -3.7555813406640487e-44  2.4071447741616991e-44  -1.5231671703774327e-44  -4.6421345612967602e-44  1.9407601298102040e-29  -1.4658401200146821e-28  -2.0469610254736805e-28  7.3788746956425558e-28  6.6088372802035069e-28  -2.9301884257162699e-27  -1.6128101160575670e-27  9.3510711288781632e-27  2.0931039553479484e-27  -2.2463060105843519e-26  5.3991970199963800e-27  2.7225433261671119e-26  -5.1961650831780172e-26  8.4855981727498441e-26  2.3214015755327049e-25  -7.5737796321221516e-25  -7.4744863668036950e-25  3.2936117223012499e-24  1.8079058573912517e-24  -1.0369687295974112e-23  -2.8642795877123313e-24  -1.1018068897817816e-23  2.4386040963267285e-23  6.8005468589140370e-26  -3.6453488835205395e-23  1.8543474222609635e-23  -1.0487148812083224e-23  -7.0752785341408466e-23  2.6998363061855375e-22  1.4320763141390902e-22  -9.4437965680596196e-22  -5.9701154696513349e-23  -2.8812909744715434e-22  1.7454553002490938e-21  -7.6667200015205074e-22  1.5678253083815621e-23  3.1682199740849089e-21  -1.2040056754109927e-20  -5.8124374810028640e-21  4.2884657210855051e-20  -2.3901659537078700e-21  -6.4463822602280580e-20  4.9929226195397347e-20  -1.8387709270867104e-19  -8.8294709097676133e-20  -1.4756394239114561e-19  7.7081962700334070e-19  1.0543048041710571e-19  3.3279020836859326e-20  -1.8545794843828522e-19  7.1227000399695884e-19  2.1504961784755032e-19  2.1993943554315863e-20  -2.0480833395851088e-19  3.0045653224850975e-20  3.0900860300594954e-20  1.8064236985304026e-19  -2.0179508937877188e-19  2.5029330557609140e-20  5.0756465545616111e-20  -1.5371890587376595e-20  1.1564364311682270e-20  -1.4722990929054614e-19  5.2667575403044436e-20  -1.2236626717219184e-20  2.4174906594232998e-21  -1.0322783465805728e-19  5.4850471050419851e-20  -9.4929041786335495e-21  -7.9089466198720531e-21  -4.5365568722237432e-20  4.8741725520645109e-20  -2.5770483917840972e-19  3.8081979992800302e-21  4.1643055875176869e-20  1.2147627541097247e-19  -1.5931863563235686e-19  8.1527883385660870e-19  -9.6049783292738724e-20  -9.8786441506138011e-19  9.3889268106220060e-19  -5.9819475400604380e-18  -8.8207011128731255e-20  1.9693644048155606e-18  -5.8625557020686600e-18  -6.2068591010354868e-20  1.0132423406963250e-17  -6.2474176362848983e-18  3.5789055069296983e-17  -1.1757955034198762e-17  4.5156416261699221e-17  -9.9775604483463863e-18  2.3619743894744111e-17  -2.0847756326398421e-18  -4.8240070595855241e-18  3.1756399920849603e-18  -1.8184280100489325e-18  -2.6764748367649499e-01  2.2688993048421181e-18  -3.7482244373643981e-18  -2.4711913642385446e-18  2.4412592077738541e-17  -3.0898308045365186e-01  -9.6479886659214763e-18  4.1206927837139781e-17  -2.4897537590460170e-01  -9.9423895048621828e-18  2.6993467354902777e-17  -1.4050515673654170e-16  -5.0835664292329203e-17  2.1550623476851421e-18  2.2175178499703506e-17  -1.6604672452915590e-16  2.8882286464588307e-18  -8.8671666524793376e-18  3.0986919430657895e-17  -1.2591172050767328e-16  -7.8098278818081547e-17  1.0955516868789229e-17  -1.0694549022753746e-17  1.3939564205708581e-16  -1.5077927373888628e-17  7.8434904117527674e-18  -2.1219088107225254e-17  1.0120743625763802e-16  3.0579382767529766e-17  -1.2186076066946525e-19  -1.3414335678248124e-17  1.1333220651012419e-17  3.7706011794562612e-17  -2.0905792264696782e-18  -1.9348126804933933e-17  1.1465653422342368e-18  8.3242542824162170e-17  -9.5337314546539313e-18  -2.0308195510727716e-17  -7.7583960709992635e-17  1.3621902813308693e-16  -5.2598341599061020e-16  -1.5099269758780283e-16  -2.2446430050075924e-17  1.8148871678956972e-16  -7.4125963990115997e-16  -1.0881468269383748e-16  -3.9709604856297516e-17  1.9454223339488935e-16  -1.0265126005381023e-15  9.8200818331213268e-17  1.1891450027614363e-15  -1.0013202181949595e-15  4.7065690524432762e-15  -4.2560396922452116e-16  3.0682383840936668e-16  -4.5199188254270896e-16  3.9865768917687216e-15  -1.4432599707328556e-15  4.8598182275657019e-15  -3.3606175473721274e-16  -2.4524017857002520e-15  9.3879592430288395e-16  1.1719937668535510e-15  -4.0028865753380921e-15  1.7604764828921306e-16  2.4545289819508193e-15  -1.4445450147149276e-14  4.9178397762356894e-15  -2.0313927267006739e-14  5.3128897785446103e-15  -1.8450260382320860e-14  4.7986308234694413e-15  -1.8891741256829351e-14  6.0470934502075292e-15  -2.7183225420059127e-14  8.4752354389513468e-15  -3.4067456907782404e-14  8.8763246227398084e-15  -2.8962043396602371e-14  5.9026194949337796e-15  -1.3790490872085962e-14  1.6462450363231347e-15  -1.4146717130134595e-17  -9.0565100080535347e-16  4.4523061811462321e-15  -9.5069129734697108e-16  1.7683509887732770e-15  -6.9712083254594893e-17  -7.1833550000868750e-16  1.3846525967451624e-16  -4.3214713405428773e-17  -8.3465790027305752e-18  1.5530731559370901e-17  -2.5054245321903572e-18  -3.0508089417149205e-18  1.0686187683742325e-18  3.3497906528981542e-19  -2.3036539105006989e-19  1.3291469213128937e-20  -2.5607952726295808e-19  2.9705375041902836e-20  -1.3378254642368174e-15  5.8213468152461436e-20  -7.6777398796180095e-20  -5.3653751028759313e-21  6.7243668977758815e-20  -1.3230329886196241e-20  8.6915219451465559e-21  3.0700585814679093e-21  -