<?xml version="1.0"?>
<VTKFile type="UnstructuredGrid"  version="0.1"  >
<UnstructuredGrid>
<Piece  NumberOfPoints="11902" NumberOfCells="23402">
<Points>
<DataArray  type="Float64"  NumberOfComponents="3"  format="ascii">-5 -5 0  5 -5 0  5 5 0  -5 5 0  1.262165120669976 0.001303746374932397 0  -4.9 -5 0  -4.8 -5 0  -4.7 -5 0  -4.6 -5 0  -4.5 -5 0  -4.4 -5 0  -4.3 -5 0  -4.2 -5 0  -4.1 -5 0  -4 -5 0  -3.9 -5 0  -3.8 -5 0  -3.7 -5 0  -3.6 -5 0  -3.5 -5 0  -3.4 -5 0  -3.3 -5 0  -3.2 -5 0  -3.1 -5 0  -3 -5 0  -2.9 -5 0  -2.8 -5 0  -2.7 -5 0  -2.6 -5 0  -2.5 -5 0  -2.4 -5 0  -2.3 -5 0  -2.2 -5 0  -2.1 -5 0  -2 -5 0  -1.9 -5 0  -1.8 -5 0  -1.7 -5 0  -1.6 -5 0  -1.5 -5 0  -1.4 -5 0  -1.3 -5 0  -1.2 -5 0  -1.1 -5 0  -1 -5 0  -0.9000000000000004 -5 0  -0.7999999999999998 -5 0  -0.7000000000000002 -5 0  -0.5999999999999996 -5 0  -0.5 -5 0  -0.4000000000000004 -5 0  -0.2999999999999998 -5 0  -0.2000000000000002 -5 0  -0.09999999999999964 -5 0  0 -5 0  0.09999999999999964 -5 0  0.2000000000000002 -5 0  0.2999999999999998 -5 0  0.4000000000000004 -5 0  0.5 -5 0  0.5999999999999996 -5 0  0.7000000000000002 -5 0  0.7999999999999998 -5 0  0.9000000000000004 -5 0  1 -5 0  1.1 -5 0  1.2 -5 0  1.3 -5 0  1.4 -5 0  1.5 -5 0  1.6 -5 0  1.7 -5 0  1.8 -5 0  1.9 -5 0  2 -5 0  2.1 -5 0  2.2 -5 0  2.3 -5 0  2.4 -5 0  2.5 -5 0  2.6 -5 0  2.7 -5 0  2.8 -5 0  2.9 -5 0  3 -5 0  3.1 -5 0  3.199999999999999 -5 0  3.300000000000001 -5 0  3.4 -5 0  3.5 -5 0  3.6 -5 0  3.699999999999999 -5 0  3.800000000000001 -5 0  3.9 -5 0  4 -5 0  4.1 -5 0  4.199999999999999 -5 0  4.300000000000001 -5 0  4.4 -5 0  4.5 -5 0  4.6 -5 0  4.699999999999999 -5 0  4.800000000000001 -5 0  4.9 -5 0  5 -4.9 0  5 -4.8 0  5 -4.7 0  5 -4.6 0  5 -4.5 0  5 -4.4 0  5 -4.3 0  5 -4.2 0  5 -4.1 0  5 -4 0  5 -3.9 0  5 -3.8 0  5 -3.7 0  5 -3.6 0  5 -3.5 0  5 -3.4 0  5 -3.3 0  5 -3.2 0  5 -3.1 0  5 -3 0  5 -2.9 0  5 -2.8 0  5 -2.7 0  5 -2.6 0  5 -2.5 0  5 -2.4 0  5 -2.3 0  5 -2.2 0  5 -2.1 0  5 -2 0  5 -1.9 0  5 -1.8 0  5 -1.7 0  5 -1.6 0  5 -1.5 0  5 -1.4 0  5 -1.3 0  5 -1.2 0  5 -1.1 0  5 -1 0  5 -0.9000000000000004 0  5 -0.7999999999999998 0  5 -0.7000000000000002 0  5 -0.5999999999999996 0  5 -0.5 0  5 -0.4000000000000004 0  5 -0.2999999999999998 0  5 -0.2000000000000002 0  5 -0.09999999999999964 0  5 0 0  5 0.09999999999999964 0  5 0.2000000000000002 0  5 0.2999999999999998 0  5 0.4000000000000004 0  5 0.5 0  5 0.5999999999999996 0  5 0.7000000000000002 0  5 0.7999999999999998 0  5 0.9000000000000004 0  5 1 0  5 1.1 0  5 1.2 0  5 1.3 0  5 1.4 0  5 1.5 0  5 1.6 0  5 1.7 0  5 1.8 0  5 1.9 0  5 2 0  5 2.1 0  5 2.2 0  5 2.3 0  5 2.4 0  5 2.5 0  5 2.6 0  5 2.7 0  5 2.8 0  5 2.9 0  5 3 0  5 3.1 0  5 3.199999999999999 0  5 3.300000000000001 0  5 3.4 0  5 3.5 0  5 3.6 0  5 3.699999999999999 0  5 3.800000000000001 0  5 3.9 0  5 4 0  5 4.1 0  5 4.199999999999999 0  5 4.300000000000001 0  5 4.4 0  5 4.5 0  5 4.6 0  5 4.699999999999999 0  5 4.800000000000001 0  5 4.9 0  4.9 5 0  4.8 5 0  4.7 5 0  4.6 5 0  4.5 5 0  4.4 5 0  4.3 5 0  4.2 5 0  4.1 5 0  4 5 0  3.9 5 0  3.8 5 0  3.7 5 0  3.6 5 0  3.5 5 0  3.4 5 0  3.3 5 0  3.2 5 0  3.1 5 0  3 5 0  2.9 5 0  2.8 5 0  2.7 5 0  2.6 5 0  2.5 5 0  2.4 5 0  2.3 5 0  2.2 5 0  2.1 5 0  2 5 0  1.9 5 0  1.8 5 0  1.7 5 0  1.6 5 0  1.5 5 0  1.4 5 0  1.3 5 0  1.2 5 0  1.1 5 0  1 5 0  0.9000000000000004 5 0  0.7999999999999998 5 0  0.7000000000000002 5 0  0.5999999999999996 5 0  0.5 5 0  0.4000000000000004 5 0  0.2999999999999998 5 0  0.2000000000000002 5 0  0.09999999999999964 5 0  0 5 0  -0.09999999999999964 5 0  -0.2000000000000002 5 0  -0.2999999999999998 5 0  -0.4000000000000004 5 0  -0.5 5 0  -0.5999999999999996 5 0  -0.7000000000000002 5 0  -0.7999999999999998 5 0  -0.9000000000000004 5 0  -1 5 0  -1.1 5 0  -1.2 5 0  -1.3 5 0  -1.4 5 0  -1.5 5 0  -1.6 5 0  -1.7 5 0  -1.8 5 0  -1.9 5 0  -2 5 0  -2.1 5 0  -2.2 5 0  -2.3 5 0  -2.4 5 0  -2.5 5 0  -2.6 5 0  -2.7 5 0  -2.8 5 0  -2.9 5 0  -3 5 0  -3.1 5 0  -3.199999999999999 5 0  -3.300000000000001 5 0  -3.4 5 0  -3.5 5 0  -3.6 5 0  -3.699999999999999 5 0  -3.800000000000001 5 0  -3.9 5 0  -4 5 0  -4.1 5 0  -4.199999999999999 5 0  -4.300000000000001 5 0  -4.4 5 0  -4.5 5 0  -4.6 5 0  -4.699999999999999 5 0  -4.800000000000001 5 0  -4.9 5 0  -5 4.9 0  -5 4.8 0  -5 4.7 0  -5 4.6 0  -5 4.5 0  -5 4.4 0  -5 4.3 0  -5 4.2 0  -5 4.1 0  -5 4 0  -5 3.9 0  -5 3.8 0  -5 3.7 0  -5 3.6 0  -5 3.5 0  -5 3.4 0  -5 3.3 0  -5 3.2 0  -5 3.1 0  -5 3 0  -5 2.9 0  -5 2.8 0  -5 2.7 0  -5 2.6 0  -5 2.5 0  -5 2.4 0  -5 2.3 0  -5 2.2 0  -5 2.1 0  -5 2 0  -5 1.9 0  -5 1.8 0  -5 1.7 0  -5 1.6 0  -5 1.5 0  -5 1.4 0  -5 1.3 0  -5 1.2 0  -5 1.1 0  -5 1 0  -5 0.9000000000000004 0  -5 0.7999999999999998 0  -5 0.7000000000000002 0  -5 0.5999999999999996 0  -5 0.5 0  -5 0.4000000000000004 0  -5 0.2999999999999998 0  -5 0.2000000000000002 0  -5 0.09999999999999964 0  -5 0 0  -5 -0.09999999999999964 0  -5 -0.2000000000000002 0  -5 -0.2999999999999998 0  -5 -0.4000000000000004 0  -5 -0.5 0  -5 -0.5999999999999996 0  -5 -0.7000000000000002 0  -5 -0.7999999999999998 0  -5 -0.9000000000000004 0  -5 -1 0  -5 -1.1 0  -5 -1.2 0  -5 -1.3 0  -5 -1.4 0  -5 -1.5 0  -5 -1.6 0  -5 -1.7 0  -5 -1.8 0  -5 -1.9 0  -5 -2 0  -5 -2.1 0  -5 -2.2 0  -5 -2.3 0  -5 -2.4 0  -5 -2.5 0  -5 -2.6 0  -5 -2.7 0  -5 -2.8 0  -5 -2.9 0  -5 -3 0  -5 -3.1 0  -5 -3.199999999999999 0  -5 -3.300000000000001 0  -5 -3.4 0  -5 -3.5 0  -5 -3.6 0  -5 -3.699999999999999 0  -5 -3.800000000000001 0  -5 -3.9 0  -5 -4 0  -5 -4.1 0  -5 -4.199999999999999 0  -5 -4.300000000000001 0  -5 -4.4 0  -5 -4.5 0  -5 -4.6 0  -5 -4.699999999999999 0  -5 -4.800000000000001 0  -5 -4.9 0  1.253958859725109 0.0941166245886127 0  1.231987985299831 0.1918586741867062 0  1.198452933268289 0.2884159170419073 0  1.15563873154756 0.3768563284693633 0  1.097350959394581 0.4678092202554805 0  1.031230669062759 0.5517613720775567 0  0.9526563422347406 0.6319721933376684 0  0.865539671964027 0.7068235573840719 0  0.7737038571070401 0.7722212773914003 0  0.6714173368924308 0.8296214102134249 0  0.5588397236702617 0.8818651918257611 0  0.4458947663223873 0.9266004954877239 0  0.3340866834258075 0.9585399484279935 0  0.2087604393479544 0.9803873546687653 0  0.08842748378544166 0.9992776868900318 0  -0.02676539814732668 1.002670040155596 0  -0.1444317695216598 0.9888655750460574 0  -0.2728264769932263 0.9695363249304791 0  -0.3924501912081743 0.945408809583878 0  -0.5026937873201208 0.9097338563006766 0  -0.6123269824605053 0.8632591075701828 0  -0.7144307807926776 0.8084137511175681 0  -0.8090893873877903 0.7436178762069005 0  -0.9004581302060708 0.6698972915153726 0  -0.9865579110463065 0.589880807365972 0  -1.061242716507942 0.5085916409722171 0  -1.123178446845817 0.4236469203624542 0  -1.177265394170849 0.3308044469898569 0  -1.215036347814512 0.2426420118558918 0  -1.239484597420769 0.1486228950224259 0  -1.250166392507223 0.05203439679404474 0  -1.250125995193855 -0.04979849794709353 0  -1.239456564343256 -0.1456544561420741 0  -1.214647801787651 -0.2374226347505837 0  -1.172840166100553 -0.3323300440372751 0  -1.123511835819569 -0.4243803603140042 0  -1.063096407418622 -0.5084789533133729 0  -0.9890545295607487 -0.5888851504797229 0  -0.9035855239702406 -0.667832600674736 0  -0.8128745146031402 -0.7394761218901097 0  -0.7171319676554638 -0.8004069882212224 0  -0.6123741335351081 -0.8535806082327196 0  -0.4976643337217544 -0.9032030054577372 0  -0.3849230153323072 -0.9431122815812956 0  -0.2694924631696038 -0.9693228503644165 0  -0.1428339350435904 -0.9888071426072156 0  -0.02774234893860338 -1.001899619023716 0  0.08740502471835493 -0.9945305880016878 0  0.2147176769664717 -0.9767054989496263 0  0.3368291987885215 -0.9568711228609922 0  0.4500681340895178 -0.9252791474044949 0  0.5613689587066856 -0.8811056890624693 0  0.6725202836806345 -0.8295911257432148 0  0.7736195026999052 -0.7733480627131135 0  0.8653646057509342 -0.7080522481339959 0  0.9512888566782391 -0.6322945658821096 0  1.028671305934774 -0.5506064259913576 0  1.098456518004488 -0.4665555015820766 0  1.156437052597501 -0.3772785499955326 0  1.200205244827616 -0.2864803641332895 0  1.232697271975232 -0.1910652813482204 0  1.254355830415145 -0.09398356893913155 0  -2.448538832314939 4.918073595040192 0  -2.448410864849074 -4.910448139437141 0  4.910371127456421 2.447861007851488 0  4.918502124451633 -2.449325718337644 0  2.446136628522908 -4.895671751100289 0  2.440571007414426 4.899436162448628 0  -4.910398398637186 -2.447887729180535 0  -4.910395666873239 2.447891769676167 0  -1.748492006404434 4.910943362056338 0  -1.744279504516597 -4.91438715328067 0  4.920534644927208 1.744039016986112 0  4.909054385774868 -1.747795768137987 0  -4.909349184685098 -1.747530366011166 0  -4.910172391052927 1.747275745021199 0  1.745763132528276 4.904794389978487 0  1.747173218154372 -4.892929409162137 0  -1.148807710620169 4.908711420706132 0  -1.129667351130658 -4.916635980009412 0  -4.909041334230866 -1.147865140001205 0  -4.908859342775417 1.147665737161826 0  1.143804403041162 -4.912815606249009 0  1.148817561915844 4.908697774395836 0  4.909180549724783 1.146140121323044 0  4.920030408142151 -1.151929580032968 0  -0.5466511182098892 -4.909891983592825 0  -0.5464357134516206 4.918589410554934 0  -4.907753396116352 -0.5486736246032998 0  -4.907777356794368 0.5472317304054866 0  4.907070266700721 -0.5489916452878515 0  4.918750332232315 0.545753373078233 0  0.5424318498783822 -4.89674936842234 0  0.5511636580732142 4.915407141456969 0  -4.911843395479324 -3.048251807340855 0  4.918417820520392 3.046270692670239 0  4.911350763772411 -3.048226985084895 0  -4.912691543433534 3.045343817550693 0  3.055267570160136 -4.917339732432231 0  -3.048595846666413 -4.911272193289215 0  3.052163902604054 4.913350944883971 0  -3.048041802495643 4.912162500820548 0  -4.90685383440056 -0.04990421960818584 0  0.04511874255390419 -4.911841009938539 0  0.04956600474626065 4.918879348634364 0  4.913922514408921 -0.05128673491163817 0  3.545593101654495 -4.918996816562951 0  -3.548871
[...]
<PointData  Scalars="f_27"> 
<DataArray  type="Float64"  Name="f_27"  format="ascii">0.0000000000000000e+00  0.0000000000000000e+00  0.0000000000000000e+00  0.0000000000000000e+00  9.7887420486758048e-01  0.0000000000000000e+00  0.0000000000000000e+00  0.0000000000000000e+00  0.0000000000000000e+00  0.0000000000000000e+00  0.0000000000000000e+00  0.0000000000000000e+00  0.0000000000000000e+00  0.0000000000000000e+00  0.0000000000000000e+00  0.0000000000000000e+00  0.0000000000000000e+00  0.0000000000000000e+00  0.0000000000000000e+00  0.0000000000000000e+00  0.0000000000000000e+00  0.0000000000000000e+00  0.0000000000000000e+00  0.0000000000000000e+00  0.0000000000000000e+00  0.0000000000000000e+00  0.0000000000000000e+00  0.0000000000000000e+00  0.0000000000000000e+00  0.0000000000000000e+00  0.0000000000000000e+00  0.0000000000000000e+00  0.0000000000000000e+00  0.0000000000000000e+00  0.0000000000000000e+00  0.0000000000000000e+00  0.0000000000000000e+00  0.0000000000000000e+00  0.0000000000000000e+00  0.0000000000000000e+00  0.0000000000000000e+00  0.0000000000000000e+00  0.0000000000000000e+00  0.0000000000000000e+00  0.0000000000000000e+00  0.0000000000000000e+00  0.0000000000000000e+00  0.0000000000000000e+00  0.0000000000000000e+00  0.0000000000000000e+00  0.0000000000000000e+00  0.0000000000000000e+00  0.0000000000000000e+00  0.0000000000000000e+00  0.0000000000000000e+00  0.0000000000000000e+00  0.0000000000000000e+00  0.0000000000000000e+00  0.0000000000000000e+00  0.0000000000000000e+00  0.0000000000000000e+00  0.0000000000000000e+00  0.0000000000000000e+00  0.0000000000000000e+00  0.0000000000000000e+00  0.0000000000000000e+00  0.0000000000000000e+00  0.0000000000000000e+00  0.0000000000000000e+00  0.0000000000000000e+00  0.0000000000000000e+00  0.0000000000000000e+00  0.0000000000000000e+00  0.0000000000000000e+00  0.0000000000000000e+00  0.0000000000000000e+00  0.0000000000000000e+00  0.0000000000000000e+00  0.0000000000000000e+00  0.0000000000000000e+00  0.0000000000000000e+00  0.0000000000000000e+00  0.0000000000000000e+00  0.0000000000000000e+00  0.0000000000000000e+00  0.0000000000000000e+00  0.0000000000000000e+00  0.0000000000000000e+00  0.0000000000000000e+00  0.0000000000000000e+00  0.0000000000000000e+00  0.0000000000000000e+00  0.0000000000000000e+00  0.0000000000000000e+00  0.0000000000000000e+00  0.0000000000000000e+00  0.0000000000000000e+00  0.0000000000000000e+00  0.0000000000000000e+00  0.0000000000000000e+00  0.0000000000000000e+00  0.0000000000000000e+00  0.0000000000000000e+00  0.0000000000000000e+00  0.0000000000000000e+00  0.0000000000000000e+00  0.0000000000000000e+00  0.0000000000000000e+00  0.0000000000000000e+00  0.0000000000000000e+00  0.0000000000000000e+00  0.0000000000000000e+00  0.0000000000000000e+00  0.0000000000000000e+00  0.0000000000000000e+00  0.0000000000000000e+00  0.0000000000000000e+00  0.0000000000000000e+00  0.0000000000000000e+00  0.0000000000000000e+00  0.0000000000000000e+00  0.0000000000000000e+00  0.0000000000000000e+00  0.0000000000000000e+00  0.0000000000000000e+00  0.0000000000000000e+00  0.0000000000000000e+00  0.0000000000000000e+00  0.0000000000000000e+00  0.0000000000000000e+00  0.0000000000000000e+00  0.0000000000000000e+00  0.0000000000000000e+00  0.0000000000000000e+00  0.0000000000000000e+00  0.0000000000000000e+00  0.0000000000000000e+00  0.0000000000000000e+00  0.0000000000000000e+00  0.0000000000000000e+00  0.0000000000000000e+00  0.0000000000000000e+00  0.0000000000000000e+00  0.0000000000000000e+00  0.0000000000000000e+00  0.0000000000000000e+00  0.0000000000000000e+00  0.0000000000000000e+00  0.0000000000000000e+00  0.0000000000000000e+00  0.0000000000000000e+00  0.0000000000000000e+00  0.0000000000000000e+00  0.0000000000000000e+00  0.0000000000000000e+00  0.0000000000000000e+00  0.0000000000000000e+00  0.0000000000000000e+00  0.0000000000000000e+00  0.0000000000000000e+00  0.0000000000000000e+00  0.0000000000000000e+00  0.0000000000000000e+00  0.0000000000000000e+00  0.0000000000000000e+00  0.0000000000000000e+00  0.0000000000000000e+00  0.0000000000000000e+00  0.0000000000000000e+00  0.0000000000000000e+00  0.0000000000000000e+00  0.0000000000000000e+00  0.0000000000000000e+00  0.0000000000000000e+00  0.0000000000000000e+00  0.0000000000000000e+00  0.0000000000000000e+00  0.0000000000000000e+00  0.0000000000000000e+00  0.0000000000000000e+00  0.0000000000000000e+00  0.0000000000000000e+00  0.0000000000000000e+00  0.0000000000000000e+00  0.0000000000000000e+00  0.0000000000000000e+00  0.0000000000000000e+00  0.0000000000000000e+00  0.0000000000000000e+00  0.0000000000000000e+00  0.0000000000000000e+00  0.0000000000000000e+00  0.0000000000000000e+00  0.0000000000000000e+00  0.0000000000000000e+00  0.0000000000000000e+00  0.0000000000000000e+00  0.0000000000000000e+00  0.0000000000000000e+00  0.0000000000000000e+00  0.0000000000000000e+00  0.0000000000000000e+00  0.0000000000000000e+00  0.0000000000000000e+00  0.0000000000000000e+00  0.0000000000000000e+00  0.0000000000000000e+00  0.0000000000000000e+00  0.0000000000000000e+00  0.0000000000000000e+00  0.0000000000000000e+00  0.0000000000000000e+00  0.0000000000000000e+00  0.0000000000000000e+00  0.0000000000000000e+00  0.0000000000000000e+00  0.0000000000000000e+00  0.0000000000000000e+00  0.0000000000000000e+00  0.0000000000000000e+00  0.0000000000000000e+00  0.0000000000000000e+00  0.0000000000000000e+00  0.0000000000000000e+00  0.0000000000000000e+00  0.0000000000000000e+00  0.0000000000000000e+00  0.0000000000000000e+00  0.0000000000000000e+00  0.0000000000000000e+00  0.0000000000000000e+00  0.0000000000000000e+00  0.0000000000000000e+00  0.0000000000000000e+00  0.0000000000000000e+00  0.0000000000000000e+00  0.0000000000000000e+00  0.0000000000000000e+00  0.0000000000000000e+00  0.0000000000000000e+00  0.0000000000000000e+00  0.0000000000000000e+00  0.0000000000000000e+00  0.0000000000000000e+00  0.0000000000000000e+00  0.0000000000000000e+00  0.0000000000000000e+00  0.0000000000000000e+00  0.0000000000000000e+00  0.0000000000000000e+00  0.0000000000000000e+00  0.0000000000000000e+00  0.0000000000000000e+00  0.0000000000000000e+00  0.0000000000000000e+00  0.0000000000000000e+00  0.0000000000000000e+00  0.0000000000000000e+00  0.0000000000000000e+00  0.0000000000000000e+00  0.0000000000000000e+00  0.0000000000000000e+00  0.0000000000000000e+00  0.0000000000000000e+00  0.0000000000000000e+00  0.0000000000000000e+00  0.0000000000000000e+00  0.0000000000000000e+00  0.0000000000000000e+00  0.0000000000000000e+00  0.0000000000000000e+00  0.0000000000000000e+00  0.0000000000000000e+00  0.0000000000000000e+00  0.0000000000000000e+00  0.0000000000000000e+00  0.0000000000000000e+00  0.0000000000000000e+00  0.0000000000000000e+00  0.0000000000000000e+00  0.0000000000000000e+00  0.0000000000000000e+00  0.0000000000000000e+00  0.0000000000000000e+00  0.0000000000000000e+00  0.0000000000000000e+00  0.0000000000000000e+00  0.0000000000000000e+00  0.0000000000000000e+00  0.0000000000000000e+00  0.0000000000000000e+00  0.0000000000000000e+00  0.0000000000000000e+00  0.0000000000000000e+00  0.0000000000000000e+00  0.0000000000000000e+00  0.0000000000000000e+00  0.0000000000000000e+00  0.0000000000000000e+00  0.0000000000000000e+00  0.0000000000000000e+00  0.0000000000000000e+00  0.0000000000000000e+00  0.0000000000000000e+00  0.0000000000000000e+00  0.0000000000000000e+00  0.0000000000000000e+00  0.0000000000000000e+00  0.0000000000000000e+00  0.0000000000000000e+00  0.0000000000000000e+00  0.0000000000000000e+00  0.0000000000000000e+00  0.0000000000000000e+00  0.0000000000000000e+00  0.0000000000000000e+00  0.0000000000000000e+00  0.0000000000000000e+00  0.0000000000000000e+00  0.0000000000000000e+00  0.0000000000000000e+00  0.0000000000000000e+00  0.0000000000000000e+00  0.0000000000000000e+00  0.0000000000000000e+00  0.0000000000000000e+00  0.0000000000000000e+00  0.0000000000000000e+00  0.0000000000000000e+00  0.0000000000000000e+00  0.0000000000000000e+00  0.0000000000000000e+00  0.0000000000000000e+00  0.0000000000000000e+00  0.0000000000000000e+00  0.0000000000000000e+00  0.0000000000000000e+00  0.0000000000000000e+00  0.0000000000000000e+00  0.0000000000000000e+00  0.0000000000000000e+00  0.0000000000000000e+00  0.0000000000000000e+00  0.0000000000000000e+00  0.0000000000000000e+00  0.0000000000000000e+00  0.0000000000000000e+00  0.0000000000000000e+00  0.0000000000000000e+00  0.0000000000000000e+00  0.0000000000000000e+00  0.0000000000000000e+00  0.0000000000000000e+00  0.0000000000000000e+00  0.0000000000000000e+00  0.0000000000000000e+00  0.0000000000000000e+00  0.0000000000000000e+00  0.0000000000000000e+00  0.0000000000000000e+00  0.0000000000000000e+00  0.0000000000000000e+00  0.0000000000000000e+00  0.0000000000000000e+00  0.0000000000000000e+00  0.0000000000000000e+00  0.0000000000000000e+00  0.0000000000000000e+00  0.0000000000000000e+00  0.0000000000000000e+00  0.0000000000000000e+00  0.0000000000000000e+00  0.0000000000000000e+00  0.0000000000000000e+00  0.0000000000000000e+00  0.0000000000000000e+00  0.0000000000000000e+00  0.0000000000000000e+00  0.0000000000000000e+00  0.0000000000000000e+00  0.0000000000000000e+00  0.0000000000000000e+00  0.0000000000000000e+00  0.0000000000000000e+00  0.0000000000000000e+00  0.0000000000000000e+00  0.0000000000000000e+00  0.0000000000000000e+00  0.0000000000000000e+00  0.0000000000000000e+00  0.0000000000000000e+00  0.0000000000000000e+00  0.0000000000000000e+00  0.0000000000000000e+00  0.0000000000000000e+00  0.0000000000000000e+00  0.0000000000000000e+00  0.0000000000000000e+00  0.0000000000000000e+00  0.0000000000000000e+00  0.0000000000000000e+00  9.7974007093880622e-01  9.8402965153104816e-01  9.8711803951118582e-01  9.8773333935341745e-01  9.8590472611908975e-01  9.7932851933430720e-01  9.8253168886088083e-01  9.8591291743079701e-01  9.8165889616509472e-01  9.8234423931302506e-01  9.8690468791566799e-01  9.7885854048941956e-01  9.7501224567856470e-01  9.9129473452580619e-01  9.7978246806704750e-01  9.7718754681139064e-01  9.9079946173559330e-01  9.8900030720890719e-01  9.7773832691650309e-01  9.8262738052080956e-01  9.8161672924580667e-01  9.8122881572031051e-01  9.8335752126582099e-01  9.8409565273913402e-01  9.8666909194696317e-01  9.8425602465973738e-01  9.8465927797239983e-01  9.8520818988072678e-01  9.8338382954416959e-01  9.8408438560655620e-01  9.8601299211516902e-01  9.8535385535747033e-01  9.8398382934965700e-01  9.8171257117799138e-01  9.8698686487744436e-01  9.8061604550887882e-01  9.8241145389055928e-01  9.8484238015798098e-01  9.8306080453430156e-01  9.8089986495211456e-01  9.8657635438044466e-01  9.8455948697448881e-01  9.8688502333841288e-01  9.7414738813588508e-01  9.8493444257848151e-01  9.8914698238608068e-01  9.6072744782469288e-01  9.8135200400635569e-01  9.9023824055620047e-01  9.7782857635356624e-01  9.7993699376912879e-01  9.8817845113513236e-01  9.8291337055308270e-01  9.7467900728354562e-01  9.8122972978971656e-01  9.8552321023015821e-01  9.8798448100437186e-01  9.8346824482990380e-01  9.7728010795816267e-01  9.8024569531716998e-01  9.8367355307939575e-01  9.8098273049710327e-01  -1.2437114875313809e-32  1.2075265869369328e-32  9.9139706781775282e-36  2.5389655914586281e-35  1.6902141955632694e-32  2.5936314882411429e-32  1.3762674183468054e-35  4.9719141261470551e-36  -5.8301774163226534e-32  -2.7672206592049869e-32  9.2533762526271965e-34  4.5480847593667652e-33  5.8188938312861794e-33  4.5898201212570247e-33  3.2781621966976972e-31  1.5722674452426228e-31  -4.6571899110514279e-31  2.4915039314336957e-32  -5.7840919620208987e-31  -6.6604360279017441e-31  -1.2661373291883466e-31  -2.7566081951935705e-31  -1.4497946215115676e-31  -3.8258651833112888e-31  -1.6606887979257777e-31  -1.9570279374484534e-31  -1.7457784819433136e-29  -1.1054534554661698e-29  -1.0116454338553097e-30  -9.4516787877517941e-30  4.8512935234371385e-31  -1.9629989697172630e-31  -1.4308435794408920e-37  2.1387791341199610e-37  1.9478999447217325e-37  -2.0759048899802250e-37  3.3855386890635076e-34  3.1907877029379704e-34  2.7888266762587950e-34  2.7852776174657176e-34  -2.5296611562646570e-29  5.1624477293897353e-31  1.1584308510409790e-31  1.0629570912918163e-28  7.7447160925020217e-37  6.9158105691076524e-37  9.2969244475503911e-37  -2.4398436386331963e-39  -1.7420468345159961e-39  -2.7585574140058253e-39  -6.6224989754289868e-40  6.7072147853676960e-39  7.9783879727615143e-41  -1.0560327239435513e-38  -6.6245306603850803e-40  -3.6353394681455831e-41  -1.1937983188995067e-38  9.1710882720662675e-41  -5.4954695097746615e-39  -7.0537469335913410e-41  -3.0789393441901970e-41  -3.2291634254011196e-41  -3.0345836777363060e-41  -1.5375839980921810e-42  -1.1060315347887074e-42  2.1762445780138432e-42  2.8120668423189480e-42  -3.1956013354603524e-41  1.0918055896250180e-28  9.6325154734398205e-32  4.3199177455319699e-32  1.0434056612211946e-28  3.3348654703962021e-31  6.3189061772758290e-32  2.1433368416380296e-30  1.5617094168039846e-30  6.8180907278717550e-32  1.5061633580210416e-31  6.5414081153026290e-33  -6.5834347807951415e-31  -2.0384919503763714e-31  -1.4306557788116658e-32  2.0295726585659503e-30  2.7350394765581592e-30  -1.6015817230421391e-33  1.8492698568546597e-31  -8.2322808132593005e-32  6.7996220874395474e-32  -1.3741685947373025e-31  -1.4027610996725856e-31  -5.3952193804908837e-34  -5.8657248461488993e-34  -2.2824299724422300e-32  -1.2743120395136245e-32  2.9588975646213262e-34  3.3141211969108426e-34  2.4570338788286577e-36  2.4554821527434556e-34  2.7485767079439415e-33  -1.5089835262995252e-36  8.1538891739725070e-34  -7.0533080457683496e-37  2.0450271182263247e-36  2.3285576043556943e-33  7.4819194600097563e-44  4.6302556527567821e-43  -1.1620522789500355e-43  2.4090044638517213e-44  -7.1096622311569251e-44  5.4456560644367001e-44  1.3047668942900056e-43  1.4786979586161596e-43  4.3321349636603949e-29  9.1131757281808367e-31  4.6226291335575588e-31  1.1471517016637116e-28  3.3087331714744084e-33  -6.7879195839562159e-35  -1.0462672249862629e-34  -3.2150773707584315e-33  3.9826314254474849e-35  1.2655730804927834e-32  1.0445759272297466e-32  6.5790200239550349e-35  -3.7616791834115270e-38  -6.2828024314611669e-35  -2.5845035676440810e-35  -2.3061641313457456e-38  -2.8682014075543917e-38  2.7690237552361254e-36  -4.0026275046296090e-35  -8.5665694967682861e-39  -3.7129125905774842e-41  -7.1485469676702027e-42  -8.5954413350795954e-38  -4.9395848291655761e-40  -1.2557071306027514e-38  -2.9856101140762486e-40  6.6338353300419203e-40  -1.3646124585516417e-41  -3.5458085197772219e-38  -4.6862475199312500e-40  -1.5570876213467790e-40  -7.2655864476672850e-42  6.7737588600500382e-40  -1.0740968703575941e-41  -1.6308075087339746e-38  -2.8254681638397145e-40  -3.8003351911460804e-44  2.8257919323525433e-44  -1.4502839391874136e-44  -5.0697244962591796e-44  4.5730829581729615e-30  -1.0817557765093530e-28  -2.0078371716110271e-28  6.6996837058584401e-28  6.7550878338611980e-28  -2.8861687148235278e-27  -1.6812666083838737e-27  9.5793759147594362e-27  2.1602120413546617e-27  -2.3444282858147281e-26  6.1831371911789516e-27  2.8003836893932509e-26  -5.8049293995098986e-26  9.6907956181465322e-26  2.5990076938563583e-25  -8.4635109500823659e-25  -8.4220606511608815e-25  3.6899981522148624e-24  2.0568739504463469e-24  -1.1701700888297922e-23  -3.3080204653548862e-24  -1.2313299745133483e-23  2.7817948422702889e-23  1.5462291218163929e-25  -4.2359479647710631e-23  2.1831223008619618e-23  -1.0804828641368289e-23  -8.6456377828298632e-23  3.1960306779190553e-22  1.8695435532235151e-22  -1.1679595418890892e-21  -1.2516812625470305e-22  -3.1279523351250945e-22  2.3408045254950159e-21  -8.3644244929707425e-22  -7.3780600597255419e-22  3.9359414173690550e-21  -1.3583894179887809e-20  -8.1443039344100186e-21  5.4401162093380641e-20  3.0777161890284484e-22  -9.4322782822592495e-20  5.6800864298022411e-20  -2.1395376046767952e-19  -6.8334987342673089e-20  -1.8479278083087477e-19  9.0311379160047416e-19  1.6368750357476509e-19  3.3558115501025383e-20  -2.1870968962093750e-19  7.8088799077364425e-19  2.8439075853263232e-19  1.8508342493751766e-20  -2.3146735946135731e-19  3.6221685681219490e-20  2.7108516090231054e-20  2.4101884175723832e-19  -2.2280719949457516e-19  2.9902084858587477e-20  4.8943700428184329e-20  -1.6319403191399496e-20  1.4783446519041277e-20  -1.6338322927061047e-19  5.3482366427101862e-20  -1.3105551931224016e-20  3.7324557240767211e-21  -1.1149623177870014e-19  5.5813063183169880e-20  -9.9720868783076576e-21  -7.3986917022223817e-21  -5.0465074316407351e-20  5.0590863818257842e-20  -2.6661105072040289e-19  3.8390967011537965e-21  4.5006962116955011e-20  1.0165197885579786e-19  -1.5045385174909141e-19  7.6395379361640149e-19  -7.6405762759457873e-20  -1.1011467917077071e-18  9.8868793793701912e-19  -6.2647987554230738e-18  -9.6483110789819508e-20  2.0773586672487560e-18  -6.3166281455344741e-18  3.1545208258622228e-20  1.0057549269544946e-17  -6.3535024996103686e-18  3.6609863985828068e-17  -1.2017974446114401e-17  4.5866226921296664e-17  -9.9460473512328557e-18  2.2486260976103122e-17  -1.5516052829960428e-18  -7.1263285332214776e-18  3.2200490131320613e-18  -1.5298818303405246e-18  -2.7114238907467675e-01  2.7177755155395972e-18  -4.1493573973124163e-18  -2.8080271480193988e-18  2.7154168323817760e-17  -3.1430057595727123e-01  -1.0584169924400458e-17  4.4696666126103331e-17  -2.5125525863417508e-01  -1.0663261964952213e-17  2.8481447862003685e-17  -1.5056521232939322e-16  -5.1688767254704492e-17  1.4613066824915025e-18  2.6802664619617271e-17  -1.6990143731503036e-16  3.1341630073463044e-18  -1.0219546018848401e-17  3.5351195446892918e-17  -1.4477233781872890e-16  -8.9543254401806741e-17  1.2678186312849114e-17  -1.2802039260514408e-17  1.6259628849600500e-16  -1.7422915742911906e-17  9.4565597160580657e-18  -2.6705661780758540e-17  1.2462557379823576e-16  4.0175123302010252e-17  -3.2990474709075630e-19  -1.7983593920111841e-17  1.4365714760207810e-17  5.3236104580826403e-17  -3.8401300533347249e-18  -2.2256837096815798e-17  -1.3027170750535219e-17  1.0280751919990531e-16  -1.2570222374897187e-17  -2.1581814866076943e-17  -1.0624183076184258e-16  1.5854362140152442e-16  -5.8952407737442835e-16  -1.8660337646337492e-16  -2.3267747376281954e-17  2.0633123587888987e-16  -8.1699573263230493e-16  -1.3885783691825765e-16  -4.2217250158614168e-17  2.2080821695423783e-16  -1.1339848919814551e-15  9.0719228206418533e-17  1.4344941592000911e-15  -1.1364330107512402e-15  5.1838060700486814e-15  -3.8199098319896970e-16  3.3581701683264778e-16  -5.5243926029177913e-16  4.6948316623146428e-15  -1.6801171260478754e-15  5.5899988991838105e-15  -3.5288254597097325e-16  -3.2391853415064720e-15  1.3470443983644741e-15  -4.6140406689538685e-16  -3.8436266646884815e-15  6.8203434175915187e-17  2.5562952643033031e-15  -1.5470211282540892e-14  5.3473009483939050e-15  -2.2280052999072663e-14  5.8407124421998212e-15  -2.0215632661787898e-14  5.2035776601728438e-15  -2.0244215916861822e-14  6.4421683232088541e-15  -2.8894786057617852e-14  8.9972957519509529e-15  -3.6076588215493498e-14  9.3419639671392142e-15  -3.0204802003036477e-14  6.0735563712009807e-15  -1.3871901613664202e-14  1.5791920939438085e-15  3.6961179283100828e-16  -9.9640855627629946e-16  4.6541154213000057e-15  -9.6839919661186318e-16  1.7269635464890922e-15  -4.6202839690115392e-17  -8.0761069632168063e-16  1.3598313945861683e-16  -4.9643751911080113e-17  -6.7132337461289539e-18  1.6744412737571538e-17  -2.9675252653872132e-18  -3.1920418034631020e-18  1.1584607009434038e-18  3.3176406885745436e-19  -2.4154517205161924e-19  2.0113019395854584e-20  -2.8559399374256414e-19  2.9740006694789528e-20  -1.4647594683353322e-15  6.3267636472131320e-20  -8.0116639172843995e-20  -7.1805904825765429e-21  7.8286514877394077e-20  -1.5480401960303076e-20  1.1765482896769138e-20  3.2326808174532218e-21  