<?xml version="1.0"?>
<VTKFile type="UnstructuredGrid"  version="0.1"  >
<UnstructuredGrid>
<Piece  NumberOfPoints="11902" NumberOfCells="23402">
<Points>
<DataArray  type="Float64"  NumberOfComponents="3"  format="ascii">-5 -5 0  5 -5 0  5 5 0  -5 5 0  1.239801104054961 0.001381117188121178 0  -4.9 -5 0  -4.8 -5 0  -4.7 -5 0  -4.6 -5 0  -4.5 -5 0  -4.4 -5 0  -4.3 -5 0  -4.2 -5 0  -4.1 -5 0  -4 -5 0  -3.9 -5 0  -3.8 -5 0  -3.7 -5 0  -3.6 -5 0  -3.5 -5 0  -3.4 -5 0  -3.3 -5 0  -3.2 -5 0  -3.1 -5 0  -3 -5 0  -2.9 -5 0  -2.8 -5 0  -2.7 -5 0  -2.6 -5 0  -2.5 -5 0  -2.4 -5 0  -2.3 -5 0  -2.2 -5 0  -2.1 -5 0  -2 -5 0  -1.9 -5 0  -1.8 -5 0  -1.7 -5 0  -1.6 -5 0  -1.5 -5 0  -1.4 -5 0  -1.3 -5 0  -1.2 -5 0  -1.1 -5 0  -1 -5 0  -0.9000000000000004 -5 0  -0.7999999999999998 -5 0  -0.7000000000000002 -5 0  -0.5999999999999996 -5 0  -0.5 -5 0  -0.4000000000000004 -5 0  -0.2999999999999998 -5 0  -0.2000000000000002 -5 0  -0.09999999999999964 -5 0  0 -5 0  0.09999999999999964 -5 0  0.2000000000000002 -5 0  0.2999999999999998 -5 0  0.4000000000000004 -5 0  0.5 -5 0  0.5999999999999996 -5 0  0.7000000000000002 -5 0  0.7999999999999998 -5 0  0.9000000000000004 -5 0  1 -5 0  1.1 -5 0  1.2 -5 0  1.3 -5 0  1.4 -5 0  1.5 -5 0  1.6 -5 0  1.7 -5 0  1.8 -5 0  1.9 -5 0  2 -5 0  2.1 -5 0  2.2 -5 0  2.3 -5 0  2.4 -5 0  2.5 -5 0  2.6 -5 0  2.7 -5 0  2.8 -5 0  2.9 -5 0  3 -5 0  3.1 -5 0  3.199999999999999 -5 0  3.300000000000001 -5 0  3.4 -5 0  3.5 -5 0  3.6 -5 0  3.699999999999999 -5 0  3.800000000000001 -5 0  3.9 -5 0  4 -5 0  4.1 -5 0  4.199999999999999 -5 0  4.300000000000001 -5 0  4.4 -5 0  4.5 -5 0  4.6 -5 0  4.699999999999999 -5 0  4.800000000000001 -5 0  4.9 -5 0  5 -4.9 0  5 -4.8 0  5 -4.7 0  5 -4.6 0  5 -4.5 0  5 -4.4 0  5 -4.3 0  5 -4.2 0  5 -4.1 0  5 -4 0  5 -3.9 0  5 -3.8 0  5 -3.7 0  5 -3.6 0  5 -3.5 0  5 -3.4 0  5 -3.3 0  5 -3.2 0  5 -3.1 0  5 -3 0  5 -2.9 0  5 -2.8 0  5 -2.7 0  5 -2.6 0  5 -2.5 0  5 -2.4 0  5 -2.3 0  5 -2.2 0  5 -2.1 0  5 -2 0  5 -1.9 0  5 -1.8 0  5 -1.7 0  5 -1.6 0  5 -1.5 0  5 -1.4 0  5 -1.3 0  5 -1.2 0  5 -1.1 0  5 -1 0  5 -0.9000000000000004 0  5 -0.7999999999999998 0  5 -0.7000000000000002 0  5 -0.5999999999999996 0  5 -0.5 0  5 -0.4000000000000004 0  5 -0.2999999999999998 0  5 -0.2000000000000002 0  5 -0.09999999999999964 0  5 0 0  5 0.09999999999999964 0  5 0.2000000000000002 0  5 0.2999999999999998 0  5 0.4000000000000004 0  5 0.5 0  5 0.5999999999999996 0  5 0.7000000000000002 0  5 0.7999999999999998 0  5 0.9000000000000004 0  5 1 0  5 1.1 0  5 1.2 0  5 1.3 0  5 1.4 0  5 1.5 0  5 1.6 0  5 1.7 0  5 1.8 0  5 1.9 0  5 2 0  5 2.1 0  5 2.2 0  5 2.3 0  5 2.4 0  5 2.5 0  5 2.6 0  5 2.7 0  5 2.8 0  5 2.9 0  5 3 0  5 3.1 0  5 3.199999999999999 0  5 3.300000000000001 0  5 3.4 0  5 3.5 0  5 3.6 0  5 3.699999999999999 0  5 3.800000000000001 0  5 3.9 0  5 4 0  5 4.1 0  5 4.199999999999999 0  5 4.300000000000001 0  5 4.4 0  5 4.5 0  5 4.6 0  5 4.699999999999999 0  5 4.800000000000001 0  5 4.9 0  4.9 5 0  4.8 5 0  4.7 5 0  4.6 5 0  4.5 5 0  4.4 5 0  4.3 5 0  4.2 5 0  4.1 5 0  4 5 0  3.9 5 0  3.8 5 0  3.7 5 0  3.6 5 0  3.5 5 0  3.4 5 0  3.3 5 0  3.2 5 0  3.1 5 0  3 5 0  2.9 5 0  2.8 5 0  2.7 5 0  2.6 5 0  2.5 5 0  2.4 5 0  2.3 5 0  2.2 5 0  2.1 5 0  2 5 0  1.9 5 0  1.8 5 0  1.7 5 0  1.6 5 0  1.5 5 0  1.4 5 0  1.3 5 0  1.2 5 0  1.1 5 0  1 5 0  0.9000000000000004 5 0  0.7999999999999998 5 0  0.7000000000000002 5 0  0.5999999999999996 5 0  0.5 5 0  0.4000000000000004 5 0  0.2999999999999998 5 0  0.2000000000000002 5 0  0.09999999999999964 5 0  0 5 0  -0.09999999999999964 5 0  -0.2000000000000002 5 0  -0.2999999999999998 5 0  -0.4000000000000004 5 0  -0.5 5 0  -0.5999999999999996 5 0  -0.7000000000000002 5 0  -0.7999999999999998 5 0  -0.9000000000000004 5 0  -1 5 0  -1.1 5 0  -1.2 5 0  -1.3 5 0  -1.4 5 0  -1.5 5 0  -1.6 5 0  -1.7 5 0  -1.8 5 0  -1.9 5 0  -2 5 0  -2.1 5 0  -2.2 5 0  -2.3 5 0  -2.4 5 0  -2.5 5 0  -2.6 5 0  -2.7 5 0  -2.8 5 0  -2.9 5 0  -3 5 0  -3.1 5 0  -3.199999999999999 5 0  -3.300000000000001 5 0  -3.4 5 0  -3.5 5 0  -3.6 5 0  -3.699999999999999 5 0  -3.800000000000001 5 0  -3.9 5 0  -4 5 0  -4.1 5 0  -4.199999999999999 5 0  -4.300000000000001 5 0  -4.4 5 0  -4.5 5 0  -4.6 5 0  -4.699999999999999 5 0  -4.800000000000001 5 0  -4.9 5 0  -5 4.9 0  -5 4.8 0  -5 4.7 0  -5 4.6 0  -5 4.5 0  -5 4.4 0  -5 4.3 0  -5 4.2 0  -5 4.1 0  -5 4 0  -5 3.9 0  -5 3.8 0  -5 3.7 0  -5 3.6 0  -5 3.5 0  -5 3.4 0  -5 3.3 0  -5 3.2 0  -5 3.1 0  -5 3 0  -5 2.9 0  -5 2.8 0  -5 2.7 0  -5 2.6 0  -5 2.5 0  -5 2.4 0  -5 2.3 0  -5 2.2 0  -5 2.1 0  -5 2 0  -5 1.9 0  -5 1.8 0  -5 1.7 0  -5 1.6 0  -5 1.5 0  -5 1.4 0  -5 1.3 0  -5 1.2 0  -5 1.1 0  -5 1 0  -5 0.9000000000000004 0  -5 0.7999999999999998 0  -5 0.7000000000000002 0  -5 0.5999999999999996 0  -5 0.5 0  -5 0.4000000000000004 0  -5 0.2999999999999998 0  -5 0.2000000000000002 0  -5 0.09999999999999964 0  -5 0 0  -5 -0.09999999999999964 0  -5 -0.2000000000000002 0  -5 -0.2999999999999998 0  -5 -0.4000000000000004 0  -5 -0.5 0  -5 -0.5999999999999996 0  -5 -0.7000000000000002 0  -5 -0.7999999999999998 0  -5 -0.9000000000000004 0  -5 -1 0  -5 -1.1 0  -5 -1.2 0  -5 -1.3 0  -5 -1.4 0  -5 -1.5 0  -5 -1.6 0  -5 -1.7 0  -5 -1.8 0  -5 -1.9 0  -5 -2 0  -5 -2.1 0  -5 -2.2 0  -5 -2.3 0  -5 -2.4 0  -5 -2.5 0  -5 -2.6 0  -5 -2.7 0  -5 -2.8 0  -5 -2.9 0  -5 -3 0  -5 -3.1 0  -5 -3.199999999999999 0  -5 -3.300000000000001 0  -5 -3.4 0  -5 -3.5 0  -5 -3.6 0  -5 -3.699999999999999 0  -5 -3.800000000000001 0  -5 -3.9 0  -5 -4 0  -5 -4.1 0  -5 -4.199999999999999 0  -5 -4.300000000000001 0  -5 -4.4 0  -5 -4.5 0  -5 -4.6 0  -5 -4.699999999999999 0  -5 -4.800000000000001 0  -5 -4.9 0  1.232795253020232 0.0969400045319279 0  1.212437928065716 0.1942216873212257 0  1.17951512948413 0.2908923964179106 0  1.137194486293672 0.3807898328631193 0  1.081272113652109 0.4712997574964168 0  1.016706652501567 0.5560900630140014 0  0.9402679289851126 0.6358408799762035 0  0.8550425954606532 0.7094701577970545 0  0.7636705755712696 0.7748295049045056 0  0.6624003529542736 0.8326079558993298 0  0.553379352553707 0.8846586292581801 0  0.4420316560183987 0.9276686924930513 0  0.3291832828451564 0.9604840375251106 0  0.2075993619035347 0.9822729211442979 0  0.08942424103218581 0.9997333184638577 0  -0.02760221531059486 1.002742936078409 0  -0.1452652447548665 0.9904279743720132 0  -0.2688116062307704 0.9721536215512092 0  -0.3865777444445123 0.9471001626117614 0  -0.4973811354226485 0.9107534071352752 0  -0.6051387821213874 0.8645275123454556 0  -0.7069623187324987 0.8100622506572911 0  -0.8011089049985153 0.7459138918038006 0  -0.8904024296671064 0.6737611984549919 0  -0.9734560713515318 0.5948713225962239 0  -1.045414911697917 0.51342166162166 0  -1.106509773326752 0.4272385897224256 0  -1.157052858638853 0.3356637520341643 0  -1.194459540918086 0.2437480690137329 0  -1.218936912326197 0.1488267022225349 0  -1.230983157720385 0.05079141997995486 0  -1.230940433284226 -0.04870057987146666 0  -1.218815462701286 -0.146167917382676 0  -1.194418392551712 -0.2406358950170477 0  -1.155311111833386 -0.3357148854268558 0  -1.106734478532142 -0.4267308230050647 0  -1.04672918109364 -0.5129538842064926 0  -0.9755580920987617 -0.5937579533120146 0  -0.8930990795049303 -0.6713742473101911 0  -0.8039632988560836 -0.7420746646283687 0  -0.7082037986053972 -0.8030501906111264 0  -0.6048434358541508 -0.8566337622089357 0  -0.4936061257829865 -0.9052693860316433 0  -0.3812925276746458 -0.9441569693869817 0  -0.2655000123710722 -0.9714336371623502 0  -0.1439178463105734 -0.9898948852673347 0  -0.0279184208886858 -1.001860815989247 0  0.08966575755575959 -0.995591615763004 0  0.2119145683242446 -0.979425875219014 0  0.3314285702918387 -0.958879225934662 0  0.4460380089902387 -0.9263096331604795 0  0.5555418688346931 -0.8837537138207529 0  0.66325776467521 -0.8325577736523004 0  0.7637259526513051 -0.7759965014647189 0  0.8551132961291317 -0.7103932271862938 0  0.9396688812595203 -0.6356234350928177 0  1.014493252714961 -0.555399323476529 0  1.081299347612068 -0.4704325961482669 0  1.138136087060739 -0.3808798743568296 0  1.181173017702398 -0.288979829462731 0  1.212941001393079 -0.1933294269740741 0  1.23295612455657 -0.09654224621773867 0  -2.448624852797319 4.918229896589978 0  -2.448504753065141 -4.910618804240131 0  4.910545905576148 2.44798224008104 0  4.918660740341013 -2.449435814544878 0  2.446245742853145 -4.89587197812769 0  2.440676639427009 4.899629904208831 0  -4.910572032434129 -2.448007733364827 0  -4.910569525257293 2.448011607966659 0  -1.74858141072915 4.911169734024691 0  -1.744365291342849 -4.914604715758054 0  4.920755400074422 1.744148802834528 0  4.909306464699119 -1.74792138547606 0  -4.909598870579911 -1.74765441014219 0  -4.910420063594723 1.747398340944821 0  1.74585840029896 4.905037679550175 0  1.747279819682106 -4.893202528282216 0  -1.148879122795292 4.908986754145432 0  -1.129731821006407 -4.916887978891211 0  -4.909353922631762 -1.147967258053628 0  -4.909172763652427 1.147767599603211 0  1.143871420870539 -4.913079161402122 0  1.148888575198771 4.908973938279508 0  4.909495230936694 1.146243034438764 0  4.920306871057838 -1.152020351917339 0  -0.5466885779540286 -4.910192193704431 0  -0.5464692780860771 4.918861201561318 0  -4.90811660259076 -0.5487304310395144 0  -4.908140649116465 0.5472878356601873 0  4.907439028999629 -0.5490492559145842 0  4.919072911212032 0.5458035857439653 0  0.5424729102375588 -4.897094116584122 0  0.5511983421449287 4.915689806366442 0  -4.911960562657804 -3.048350970471714 0  4.918527001108166 3.046363397756944 0  4.911469068932098 -3.048327562314117 0  -4.912807990692746 3.045442064766542 0  3.055343996846164 -4.917453715610181 0  -3.048678114725674 -4.911394230422462 0  3.052244350714753 4.913470785809203 0  -3.048123405578186 4.912283445943319 0  -4.907235964297975 -0.04990991978426932 0  0.04512107926438375 -4.912143743150751 0  0.04956886240883177 4.919158458653314 0  4.914278433756346 -0.05129186024754031 0  3.545653448267764 -4.919076348584611 0  -3.548936904206037 4.9
[...]
<PointData  Scalars="f_27"> 
<DataArray  type="Float64"  Name="f_27"  format="ascii">0.0000000000000000e+00  0.0000000000000000e+00  0.0000000000000000e+00  0.0000000000000000e+00  9.4408503862655446e-01  0.0000000000000000e+00  0.0000000000000000e+00  0.0000000000000000e+00  0.0000000000000000e+00  0.0000000000000000e+00  0.0000000000000000e+00  0.0000000000000000e+00  0.0000000000000000e+00  0.0000000000000000e+00  0.0000000000000000e+00  0.0000000000000000e+00  0.0000000000000000e+00  0.0000000000000000e+00  0.0000000000000000e+00  0.0000000000000000e+00  0.0000000000000000e+00  0.0000000000000000e+00  0.0000000000000000e+00  0.0000000000000000e+00  0.0000000000000000e+00  0.0000000000000000e+00  0.0000000000000000e+00  0.0000000000000000e+00  0.0000000000000000e+00  0.0000000000000000e+00  0.0000000000000000e+00  0.0000000000000000e+00  0.0000000000000000e+00  0.0000000000000000e+00  0.0000000000000000e+00  0.0000000000000000e+00  0.0000000000000000e+00  0.0000000000000000e+00  0.0000000000000000e+00  0.0000000000000000e+00  0.0000000000000000e+00  0.0000000000000000e+00  0.0000000000000000e+00  0.0000000000000000e+00  0.0000000000000000e+00  0.0000000000000000e+00  0.0000000000000000e+00  0.0000000000000000e+00  0.0000000000000000e+00  0.0000000000000000e+00  0.0000000000000000e+00  0.0000000000000000e+00  0.0000000000000000e+00  0.0000000000000000e+00  0.0000000000000000e+00  0.0000000000000000e+00  0.0000000000000000e+00  0.0000000000000000e+00  0.0000000000000000e+00  0.0000000000000000e+00  0.0000000000000000e+00  0.0000000000000000e+00  0.0000000000000000e+00  0.0000000000000000e+00  0.0000000000000000e+00  0.0000000000000000e+00  0.0000000000000000e+00  0.0000000000000000e+00  0.0000000000000000e+00  0.0000000000000000e+00  0.0000000000000000e+00  0.0000000000000000e+00  0.0000000000000000e+00  0.0000000000000000e+00  0.0000000000000000e+00  0.0000000000000000e+00  0.0000000000000000e+00  0.0000000000000000e+00  0.0000000000000000e+00  0.0000000000000000e+00  0.0000000000000000e+00  0.0000000000000000e+00  0.0000000000000000e+00  0.0000000000000000e+00  0.0000000000000000e+00  0.0000000000000000e+00  0.0000000000000000e+00  0.0000000000000000e+00  0.0000000000000000e+00  0.0000000000000000e+00  0.0000000000000000e+00  0.0000000000000000e+00  0.0000000000000000e+00  0.0000000000000000e+00  0.0000000000000000e+00  0.0000000000000000e+00  0.0000000000000000e+00  0.0000000000000000e+00  0.0000000000000000e+00  0.0000000000000000e+00  0.0000000000000000e+00  0.0000000000000000e+00  0.0000000000000000e+00  0.0000000000000000e+00  0.0000000000000000e+00  0.0000000000000000e+00  0.0000000000000000e+00  0.0000000000000000e+00  0.0000000000000000e+00  0.0000000000000000e+00  0.0000000000000000e+00  0.0000000000000000e+00  0.0000000000000000e+00  0.0000000000000000e+00  0.0000000000000000e+00  0.0000000000000000e+00  0.0000000000000000e+00  0.0000000000000000e+00  0.0000000000000000e+00  0.0000000000000000e+00  0.0000000000000000e+00  0.0000000000000000e+00  0.0000000000000000e+00  0.0000000000000000e+00  0.0000000000000000e+00  0.0000000000000000e+00  0.0000000000000000e+00  0.0000000000000000e+00  0.0000000000000000e+00  0.0000000000000000e+00  0.0000000000000000e+00  0.0000000000000000e+00  0.0000000000000000e+00  0.0000000000000000e+00  0.0000000000000000e+00  0.0000000000000000e+00  0.0000000000000000e+00  0.0000000000000000e+00  0.0000000000000000e+00  0.0000000000000000e+00  0.0000000000000000e+00  0.0000000000000000e+00  0.0000000000000000e+00  0.0000000000000000e+00  0.0000000000000000e+00  0.0000000000000000e+00  0.0000000000000000e+00  0.0000000000000000e+00  0.0000000000000000e+00  0.0000000000000000e+00  0.0000000000000000e+00  0.0000000000000000e+00  0.0000000000000000e+00  0.0000000000000000e+00  0.0000000000000000e+00  0.0000000000000000e+00  0.0000000000000000e+00  0.0000000000000000e+00  0.0000000000000000e+00  0.0000000000000000e+00  0.0000000000000000e+00  0.0000000000000000e+00  0.0000000000000000e+00  0.0000000000000000e+00  0.0000000000000000e+00  0.0000000000000000e+00  0.0000000000000000e+00  0.0000000000000000e+00  0.0000000000000000e+00  0.0000000000000000e+00  0.0000000000000000e+00  0.0000000000000000e+00  0.0000000000000000e+00  0.0000000000000000e+00  0.0000000000000000e+00  0.0000000000000000e+00  0.0000000000000000e+00  0.0000000000000000e+00  0.0000000000000000e+00  0.0000000000000000e+00  0.0000000000000000e+00  0.0000000000000000e+00  0.0000000000000000e+00  0.0000000000000000e+00  0.0000000000000000e+00  0.0000000000000000e+00  0.0000000000000000e+00  0.0000000000000000e+00  0.0000000000000000e+00  0.0000000000000000e+00  0.0000000000000000e+00  0.0000000000000000e+00  0.0000000000000000e+00  0.0000000000000000e+00  0.0000000000000000e+00  0.0000000000000000e+00  0.0000000000000000e+00  0.0000000000000000e+00  0.0000000000000000e+00  0.0000000000000000e+00  0.0000000000000000e+00  0.0000000000000000e+00  0.0000000000000000e+00  0.0000000000000000e+00  0.0000000000000000e+00  0.0000000000000000e+00  0.0000000000000000e+00  0.0000000000000000e+00  0.0000000000000000e+00  0.0000000000000000e+00  0.0000000000000000e+00  0.0000000000000000e+00  0.0000000000000000e+00  0.0000000000000000e+00  0.0000000000000000e+00  0.0000000000000000e+00  0.0000000000000000e+00  0.0000000000000000e+00  0.0000000000000000e+00  0.0000000000000000e+00  0.0000000000000000e+00  0.0000000000000000e+00  0.0000000000000000e+00  0.0000000000000000e+00  0.0000000000000000e+00  0.0000000000000000e+00  0.0000000000000000e+00  0.0000000000000000e+00  0.0000000000000000e+00  0.0000000000000000e+00  0.0000000000000000e+00  0.0000000000000000e+00  0.0000000000000000e+00  0.0000000000000000e+00  0.0000000000000000e+00  0.0000000000000000e+00  0.0000000000000000e+00  0.0000000000000000e+00  0.0000000000000000e+00  0.0000000000000000e+00  0.0000000000000000e+00  0.0000000000000000e+00  0.0000000000000000e+00  0.0000000000000000e+00  0.0000000000000000e+00  0.0000000000000000e+00  0.0000000000000000e+00  0.0000000000000000e+00  0.0000000000000000e+00  0.0000000000000000e+00  0.0000000000000000e+00  0.0000000000000000e+00  0.0000000000000000e+00  0.0000000000000000e+00  0.0000000000000000e+00  0.0000000000000000e+00  0.0000000000000000e+00  0.0000000000000000e+00  0.0000000000000000e+00  0.0000000000000000e+00  0.0000000000000000e+00  0.0000000000000000e+00  0.0000000000000000e+00  0.0000000000000000e+00  0.0000000000000000e+00  0.0000000000000000e+00  0.0000000000000000e+00  0.0000000000000000e+00  0.0000000000000000e+00  0.0000000000000000e+00  0.0000000000000000e+00  0.0000000000000000e+00  0.0000000000000000e+00  0.0000000000000000e+00  0.0000000000000000e+00  0.0000000000000000e+00  0.0000000000000000e+00  0.0000000000000000e+00  0.0000000000000000e+00  0.0000000000000000e+00  0.0000000000000000e+00  0.0000000000000000e+00  0.0000000000000000e+00  0.0000000000000000e+00  0.0000000000000000e+00  0.0000000000000000e+00  0.0000000000000000e+00  0.0000000000000000e+00  0.0000000000000000e+00  0.0000000000000000e+00  0.0000000000000000e+00  0.0000000000000000e+00  0.0000000000000000e+00  0.0000000000000000e+00  0.0000000000000000e+00  0.0000000000000000e+00  0.0000000000000000e+00  0.0000000000000000e+00  0.0000000000000000e+00  0.0000000000000000e+00  0.0000000000000000e+00  0.0000000000000000e+00  0.0000000000000000e+00  0.0000000000000000e+00  0.0000000000000000e+00  0.0000000000000000e+00  0.0000000000000000e+00  0.0000000000000000e+00  0.0000000000000000e+00  0.0000000000000000e+00  0.0000000000000000e+00  0.0000000000000000e+00  0.0000000000000000e+00  0.0000000000000000e+00  0.0000000000000000e+00  0.0000000000000000e+00  0.0000000000000000e+00  0.0000000000000000e+00  0.0000000000000000e+00  0.0000000000000000e+00  0.0000000000000000e+00  0.0000000000000000e+00  0.0000000000000000e+00  0.0000000000000000e+00  0.0000000000000000e+00  0.0000000000000000e+00  0.0000000000000000e+00  0.0000000000000000e+00  0.0000000000000000e+00  0.0000000000000000e+00  0.0000000000000000e+00  0.0000000000000000e+00  0.0000000000000000e+00  0.0000000000000000e+00  0.0000000000000000e+00  0.0000000000000000e+00  0.0000000000000000e+00  0.0000000000000000e+00  0.0000000000000000e+00  0.0000000000000000e+00  0.0000000000000000e+00  0.0000000000000000e+00  0.0000000000000000e+00  0.0000000000000000e+00  0.0000000000000000e+00  0.0000000000000000e+00  0.0000000000000000e+00  0.0000000000000000e+00  0.0000000000000000e+00  0.0000000000000000e+00  0.0000000000000000e+00  0.0000000000000000e+00  0.0000000000000000e+00  0.0000000000000000e+00  0.0000000000000000e+00  0.0000000000000000e+00  0.0000000000000000e+00  0.0000000000000000e+00  0.0000000000000000e+00  0.0000000000000000e+00  0.0000000000000000e+00  0.0000000000000000e+00  0.0000000000000000e+00  0.0000000000000000e+00  0.0000000000000000e+00  0.0000000000000000e+00  0.0000000000000000e+00  0.0000000000000000e+00  0.0000000000000000e+00  0.0000000000000000e+00  0.0000000000000000e+00  0.0000000000000000e+00  0.0000000000000000e+00  0.0000000000000000e+00  0.0000000000000000e+00  0.0000000000000000e+00  0.0000000000000000e+00  0.0000000000000000e+00  0.0000000000000000e+00  0.0000000000000000e+00  0.0000000000000000e+00  0.0000000000000000e+00  0.0000000000000000e+00  0.0000000000000000e+00  0.0000000000000000e+00  0.0000000000000000e+00  0.0000000000000000e+00  0.0000000000000000e+00  0.0000000000000000e+00  0.0000000000000000e+00  0.0000000000000000e+00  0.0000000000000000e+00  0.0000000000000000e+00  0.0000000000000000e+00  0.0000000000000000e+00  0.0000000000000000e+00  0.0000000000000000e+00  0.0000000000000000e+00  0.0000000000000000e+00  0.0000000000000000e+00  0.0000000000000000e+00  9.4229394574317571e-01  9.4772740535459743e-01  9.5779614957920856e-01  9.5996290360707892e-01  9.5209588215031349e-01  9.3645119274139654e-01  9.4087708497132272e-01  9.5303323834207576e-01  9.4771337352607332e-01  9.3717805592933279e-01  9.4359072496829877e-01  9.4156159814354212e-01  9.3783799286498826e-01  9.4947988916069781e-01  9.5065281243149291e-01  9.4898720195347097e-01  9.5602933393244305e-01  9.5109026094009219e-01  9.4227342072404607e-01  9.4825733331876449e-01  9.4750742002159782e-01  9.4903421308353608e-01  9.4499890497996608e-01  9.4169106307815142e-01  9.4669273644311436e-01  9.5129102094441453e-01  9.4516022204678274e-01  9.4837214461980535e-01  9.5614640974185883e-01  9.5199082701668802e-01  9.4937561071133370e-01  9.4692164703414250e-01  9.4728576638923856e-01  9.2916854766264234e-01  9.4876976791020873e-01  9.4146913384916886e-01  9.4664353302986670e-01  9.4042579643275226e-01  9.4220575520902272e-01  9.4747108857680129e-01  9.5808924969964637e-01  9.3593357486549600e-01  9.5044918632332764e-01  9.3982646562475258e-01  9.4701162322940069e-01  9.4735300216241636e-01  9.2434126173181275e-01  9.3611178094171288e-01  9.4724524040820435e-01  9.4609901889108794e-01  9.4750627179517133e-01  9.5412011354982262e-01  9.4851443853446860e-01  9.3656896274978396e-01  9.4498254704521956e-01  9.4790414824299052e-01  9.5219774586387484e-01  9.4858474562137363e-01  9.3157599337324992e-01  9.4112150255128268e-01  9.4355776397358659e-01  9.4127379384828525e-01  -4.8848949792478830e-32  4.1532882177220535e-32  7.2904126310615588e-35  1.3145793414729410e-34  5.9907895197877528e-32  9.3813940982531794e-32  5.8849966318498664e-36  -3.2699257532820353e-36  -1.4896025745360515e-31  -5.1585735622307780e-32  1.6629175137453880e-32  2.6344267017747104e-32  1.4985549823221560e-32  1.8267722415781051e-32  9.7013717679342888e-31  4.9230485302246938e-31  -1.5191432608584121e-30  -9.2878674576985572e-33  -2.1318374951479055e-30  -2.9636724405076429e-30  -4.5332944849819512e-31  -5.8656024247447758e-31  -1.2793470225996649e-30  -1.7873247906930466e-30  -8.7846597428996772e-31  -8.1141425200309614e-31  -2.5938180853931457e-29  -2.1745736205444838e-31  -9.4222592845346643e-30  -5.5728113668013776e-29  2.0880013145950432e-30  -6.2923310533372896e-31  -1.2071256720472694e-36  8.5521296253328042e-37  7.1295961659629344e-37  -1.1845869116804766e-36  1.1770148556928305e-33  7.0361143812909422e-34  6.7683673886905121e-34  7.3617112797987509e-34  -2.4194622922333090e-28  2.6976983860386846e-30  -1.6419969711750069e-31  4.5067437329085857e-28  2.8511153685637101e-36  1.8069291816598624e-36  3.5661779160620860e-36  -1.0735027996283624e-38  -7.7671614861923049e-40  -1.2298231477258171e-38  2.7927385810848835e-39  -3.6497815107180485e-37  2.5152761820646920e-40  -4.1996567283030318e-38  -6.7116419121349704e-39  -3.5550738844870116e-40  -4.4744380120827557e-38  3.3122733909536802e-40  -2.3038456702527934e-38  -4.7602087901574999e-40  -1.1502120076580499e-40  -1.3117567737172628e-40  -1.1399464494205061e-40  -4.2655033352900099e-42  -1.4797682464029448e-42  1.1960644291680571e-41  1.5114571781426446e-41  -1.3270209669186822e-40  4.3262368250594026e-28  6.7866097051602131e-31  -4.2831713702181943e-31  4.1379010940626395e-28  6.7093008874500559e-31  4.3469475023151374e-31  2.9054817029714503e-30  2.2050782707881115e-30  4.5870183258872475e-31  4.6314856704607615e-31  -5.9034319256091378e-31  -2.5079100137639674e-30  -5.0486800282793955e-31  -1.3298384094604144e-31  9.5983839118903603e-30  1.4724776901125761e-29  -9.9421690780533086e-32  5.5148823251253193e-31  -1.0018663473497169e-31  1.8970195194143595e-31  -5.3489609013305962e-31  -4.8029300747832557e-31  -4.5125555883118879e-33  -4.0527180662809533e-33  -1.0199678029656985e-31  -1.0559563469484494e-31  2.3752111850090300e-33  2.4392188587192139e-33  1.0956643415490007e-35  -4.2173198502155393e-33  8.6589263658597271e-33  -1.0130430414217793e-35  2.2322026001303850e-33  -1.0236524686628946e-35  9.9079686572033722e-36  9.4151201527265216e-33  5.5016577776323192e-43  2.1798519758627865e-42  -4.4119303341582835e-43  -7.3202750287139962e-43  -2.6201304583727041e-43  -5.2082450178172454e-43  8.7450590123164371e-43  6.6600855337544267e-43  8.9135867359291907e-29  4.1603997089723370e-30  9.1477121788203527e-31  4.8124875460882876e-28  1.3308587591182204e-32  -5.0799713530471897e-34  -6.1712487082225781e-34  -3.6230263450366090e-32  5.8499708368570186e-34  4.2474492468028721e-32  7.7789477173567561e-32  5.1376665262736667e-34  -1.6643799827607198e-37  -2.4138799760580246e-34  -1.0818746861921798e-34  -1.5608199484160447e-38  -1.3004270262238492e-37  4.0742069123293193e-36  -1.4322103782209758e-34  2.3678340697595544e-38  7.1750331642362553e-40  -4.9355657170676049e-41  -4.4106354473322946e-37  -1.1041260736902140e-39  -1.2678806607333920e-37  -9.8380260270075258e-40  2.8997130212361168e-39  -3.5740657709090885e-41  -2.1141167348049755e-37  -1.2785882451627167e-39  -1.1682267458365157e-40  -4.1455774614304358e-41  2.7145838903502959e-39  -2.1179621264908011e-41  -9.5814992217501794e-38  -1.1064831781178744e-39  -2.1211835661406875e-43  1.0322921372640498e-43  -1.1567473363106732e-43  -3.0745639041172762e-43  -1.0243408816515785e-28  -1.1827826729425622e-29  -5.7002844472120459e-28  1.4050120150185261e-27  2.2764773345564568e-27  -8.2194560287604814e-27  -6.8532117982025016e-27  3.2245586944222637e-26  1.4558600893570883e-26  -9.5833417229704450e-26  -9.6730669019173148e-27  1.9820215762129824e-25  -9.6047415119337035e-26  -1.0900498287746903e-25  6.2879526352016828e-25  -1.4423685579767861e-24  -2.4662431083465815e-24  9.0290282892625710e-24  7.1748131905439469e-24  -3.4733390591677356e-23  -1.4870976792144009e-23  -2.1573381484008499e-23  9.9517610277378090e-23  1.2251720765404691e-23  -2.0005792853856120e-22  6.4455574364258542e-23  1.2664683748294182e-22  -3.8319461298831603e-22  1.0232952546859460e-21  1.1502333571936264e-21  -5.5294639249866942e-21  -1.8387220651794600e-21  1.1482823514378218e-21  1.5713915752861740e-20  -1.5179422408937812e-21  -2.1210643184535575e-20  1.9703798311206026e-20  -3.7372546753245189e-20  -6.0263171491550706e-20  2.9857443265543854e-19  6.4592070353111853e-20  -7.7238503227353390e-19  2.1341614364655451e-19  -7.6070626246670973e-19  4.1992058292427651e-19  -1.0766659339585623e-18  4.0420613015653894e-18  1.5746529996058413e-18  5.4089009919258173e-20  -1.1236581055206323e-18  2.8128947797394966e-18  2.1460279491436826e-18  -4.7209059692651131e-20  -1.1118786233514123e-18  2.2315000316961470e-19  -4.0603230362388346e-20  2.0766239344296782e-18  -1.0882549551229625e-18  2.0278549820630064e-19  5.7704812661820750e-20  -6.6403867096795985e-20  1.4587893100283887e-19  -9.5534278548592864e-19  1.6183307971788674e-19  -6.5142370836181758e-20  7.1956924072603797e-20  -6.8528394446478453e-19  2.0463180365272595e-19  -5.1997408843122520e-20  1.1256226316149256e-20  -4.1323709648782703e-19  2.1678950254078739e-19  -7.8623376555540268e-19  1.1677173410622228e-20  -2.9190107894784540e-20  1.4096569980533236e-18  -7.3875408445079815e-19  2.4277928122253112e-18  3.4149911760676095e-19  -8.2567994745266800e-18  5.0217839470201230e-18  -2.7582973633281481e-17  -6.5549810462309925e-19  8.0704116872715849e-18  -2.0459778862405629e-17  -1.9866088671524148e-18  4.8595897000473408e-17  -2.6619886350586764e-17  1.4248707155522701e-16  -4.3399090507136197e-17  1.4984852331672530e-16  -2.6228671417775432e-17  2.5281878054215793e-17  1.3257272879031065e-17  -1.0237408765163594e-16  1.0441214623916424e-17  2.5468927362749041e-18  -2.8015584804938720e-01  2.9111878908138028e-17  -7.4861215979299188e-17  1.6382842070964284e-18  7.0112729913871928e-17  -2.9984518448061109e-01  -3.3871229007559039e-17  1.5348772689604974e-16  -2.6393224388680164e-01  -3.7809512424596200e-17  1.0391971096420311e-16  -5.3250366561433786e-16  -2.0260506964249830e-16  1.1956296126116443e-17  6.8867776549947883e-17  -6.1632712177765015e-16  1.0741619142292237e-17  -3.1052812445043826e-17  1.1643931834851089e-16  -4.3788058588010171e-16  -3.2627316738836868e-16  5.2846628563325319e-17  -7.7760550440928200e-17  7.0423162210923175e-16  3.1278583781167997e-18  3.0595281127022538e-17  -1.1936170194388767e-16  4.5015991326743181e-16  2.1680046606359999e-16  -3.5010175283679551e-18  -1.1579933024722617e-16  1.1134021030281795e-16  3.7325831503161965e-16  -3.1907116679097942e-17  -1.3165053986660304e-16  -1.4249595160617074e-16  6.2609681344988964e-16  -7.7949399873576916e-17  -1.2399067741469477e-16  -5.8638129988224529e-16  8.4591137492216460e-16  -3.2738828944440386e-15  -8.3334693353736223e-16  -1.3293749100651530e-16  9.6804287185929262e-16  -3.9893516438662157e-15  -5.1395028494416763e-16  -2.0252872059244518e-16  9.0725519088910871e-16  -4.6924508462606926e-15  3.6507870762085782e-16  5.4850764564515990e-15  -4.1374469122223687e-15  1.8231141733398564e-14  -9.4882427590901716e-16  1.1136081689984118e-15  -1.8614957436480990e-15  1.3924170441823058e-14  -3.9441837294785853e-15  6.9934268960020516e-15  3.2962348865718916e-15  -3.0613482652089047e-14  9.7055579289057397e-15  -1.9883636368608907e-14  -7.6351398238926535e-15  -1.1372277048445977e-15  6.8946009908952130e-15  -4.5213898838984871e-14  1.6536162979811899e-14  -7.3575419753326898e-14  2.1299614436309975e-14  -8.2260276340716064e-14  2.2897585578441307e-14  -8.9991835979826051e-14  2.6395406727945098e-14  -1.0756903530645812e-13  3.1117937563228066e-14  -1.1980131808949447e-13  3.1100381623642763e-14  -1.0358531097381132e-13  2.2014031042485514e-14  -5.5190368093932545e-14  7.3699824722488668e-15  -3.3871757538083652e-15  -3.1812573746191309e-15  1.8486467689955775e-14  -4.3718997343609769e-15  9.6915487098353313e-15  -8.1096243886147701e-16  -1.9622687938353313e-15  7.3273754417050221e-16  -9.9419702605471419e-17  -7.1740095489059794e-17  5.8012809325001063e-17  -4.2514763853693399e-18  -1.3274717707991799e-17  3.8220593613944631e-18  1.7004436388485440e-18  -9.7025355924666463e-19  1.2486537360407034e-20  -1.1819924060782760e-18  1.4284228961147085e-19  -5.9422680864211784e-15  3.0526735279398052e-19  -5.4295916329317855e-19  1.7625948659404411e-21  3.3792088828948777e-19  -8.4014654932779284e-20  1.2846877431072094e-19  3.0385701793369418e-