<?xml version="1.0"?>
<VTKFile type="UnstructuredGrid"  version="0.1"  >
<UnstructuredGrid>
<Piece  NumberOfPoints="11902" NumberOfCells="23402">
<Points>
<DataArray  type="Float64"  NumberOfComponents="3"  format="ascii">-5 -5 0  5 -5 0  5 5 0  -5 5 0  1.029565873914105 0.00019088809368002 0  -4.9 -5 0  -4.8 -5 0  -4.7 -5 0  -4.6 -5 0  -4.5 -5 0  -4.4 -5 0  -4.3 -5 0  -4.2 -5 0  -4.1 -5 0  -4 -5 0  -3.9 -5 0  -3.8 -5 0  -3.7 -5 0  -3.6 -5 0  -3.5 -5 0  -3.4 -5 0  -3.3 -5 0  -3.2 -5 0  -3.1 -5 0  -3 -5 0  -2.9 -5 0  -2.8 -5 0  -2.7 -5 0  -2.6 -5 0  -2.5 -5 0  -2.4 -5 0  -2.3 -5 0  -2.2 -5 0  -2.1 -5 0  -2 -5 0  -1.9 -5 0  -1.8 -5 0  -1.7 -5 0  -1.6 -5 0  -1.5 -5 0  -1.4 -5 0  -1.3 -5 0  -1.2 -5 0  -1.1 -5 0  -1 -5 0  -0.9000000000000004 -5 0  -0.7999999999999998 -5 0  -0.7000000000000002 -5 0  -0.5999999999999996 -5 0  -0.5 -5 0  -0.4000000000000004 -5 0  -0.2999999999999998 -5 0  -0.2000000000000002 -5 0  -0.09999999999999964 -5 0  0 -5 0  0.09999999999999964 -5 0  0.2000000000000002 -5 0  0.2999999999999998 -5 0  0.4000000000000004 -5 0  0.5 -5 0  0.5999999999999996 -5 0  0.7000000000000002 -5 0  0.7999999999999998 -5 0  0.9000000000000004 -5 0  1 -5 0  1.1 -5 0  1.2 -5 0  1.3 -5 0  1.4 -5 0  1.5 -5 0  1.6 -5 0  1.7 -5 0  1.8 -5 0  1.9 -5 0  2 -5 0  2.1 -5 0  2.2 -5 0  2.3 -5 0  2.4 -5 0  2.5 -5 0  2.6 -5 0  2.7 -5 0  2.8 -5 0  2.9 -5 0  3 -5 0  3.1 -5 0  3.199999999999999 -5 0  3.300000000000001 -5 0  3.4 -5 0  3.5 -5 0  3.6 -5 0  3.699999999999999 -5 0  3.800000000000001 -5 0  3.9 -5 0  4 -5 0  4.1 -5 0  4.199999999999999 -5 0  4.300000000000001 -5 0  4.4 -5 0  4.5 -5 0  4.6 -5 0  4.699999999999999 -5 0  4.800000000000001 -5 0  4.9 -5 0  5 -4.9 0  5 -4.8 0  5 -4.7 0  5 -4.6 0  5 -4.5 0  5 -4.4 0  5 -4.3 0  5 -4.2 0  5 -4.1 0  5 -4 0  5 -3.9 0  5 -3.8 0  5 -3.7 0  5 -3.6 0  5 -3.5 0  5 -3.4 0  5 -3.3 0  5 -3.2 0  5 -3.1 0  5 -3 0  5 -2.9 0  5 -2.8 0  5 -2.7 0  5 -2.6 0  5 -2.5 0  5 -2.4 0  5 -2.3 0  5 -2.2 0  5 -2.1 0  5 -2 0  5 -1.9 0  5 -1.8 0  5 -1.7 0  5 -1.6 0  5 -1.5 0  5 -1.4 0  5 -1.3 0  5 -1.2 0  5 -1.1 0  5 -1 0  5 -0.9000000000000004 0  5 -0.7999999999999998 0  5 -0.7000000000000002 0  5 -0.5999999999999996 0  5 -0.5 0  5 -0.4000000000000004 0  5 -0.2999999999999998 0  5 -0.2000000000000002 0  5 -0.09999999999999964 0  5 0 0  5 0.09999999999999964 0  5 0.2000000000000002 0  5 0.2999999999999998 0  5 0.4000000000000004 0  5 0.5 0  5 0.5999999999999996 0  5 0.7000000000000002 0  5 0.7999999999999998 0  5 0.9000000000000004 0  5 1 0  5 1.1 0  5 1.2 0  5 1.3 0  5 1.4 0  5 1.5 0  5 1.6 0  5 1.7 0  5 1.8 0  5 1.9 0  5 2 0  5 2.1 0  5 2.2 0  5 2.3 0  5 2.4 0  5 2.5 0  5 2.6 0  5 2.7 0  5 2.8 0  5 2.9 0  5 3 0  5 3.1 0  5 3.199999999999999 0  5 3.300000000000001 0  5 3.4 0  5 3.5 0  5 3.6 0  5 3.699999999999999 0  5 3.800000000000001 0  5 3.9 0  5 4 0  5 4.1 0  5 4.199999999999999 0  5 4.300000000000001 0  5 4.4 0  5 4.5 0  5 4.6 0  5 4.699999999999999 0  5 4.800000000000001 0  5 4.9 0  4.9 5 0  4.8 5 0  4.7 5 0  4.6 5 0  4.5 5 0  4.4 5 0  4.3 5 0  4.2 5 0  4.1 5 0  4 5 0  3.9 5 0  3.8 5 0  3.7 5 0  3.6 5 0  3.5 5 0  3.4 5 0  3.3 5 0  3.2 5 0  3.1 5 0  3 5 0  2.9 5 0  2.8 5 0  2.7 5 0  2.6 5 0  2.5 5 0  2.4 5 0  2.3 5 0  2.2 5 0  2.1 5 0  2 5 0  1.9 5 0  1.8 5 0  1.7 5 0  1.6 5 0  1.5 5 0  1.4 5 0  1.3 5 0  1.2 5 0  1.1 5 0  1 5 0  0.9000000000000004 5 0  0.7999999999999998 5 0  0.7000000000000002 5 0  0.5999999999999996 5 0  0.5 5 0  0.4000000000000004 5 0  0.2999999999999998 5 0  0.2000000000000002 5 0  0.09999999999999964 5 0  0 5 0  -0.09999999999999964 5 0  -0.2000000000000002 5 0  -0.2999999999999998 5 0  -0.4000000000000004 5 0  -0.5 5 0  -0.5999999999999996 5 0  -0.7000000000000002 5 0  -0.7999999999999998 5 0  -0.9000000000000004 5 0  -1 5 0  -1.1 5 0  -1.2 5 0  -1.3 5 0  -1.4 5 0  -1.5 5 0  -1.6 5 0  -1.7 5 0  -1.8 5 0  -1.9 5 0  -2 5 0  -2.1 5 0  -2.2 5 0  -2.3 5 0  -2.4 5 0  -2.5 5 0  -2.6 5 0  -2.7 5 0  -2.8 5 0  -2.9 5 0  -3 5 0  -3.1 5 0  -3.199999999999999 5 0  -3.300000000000001 5 0  -3.4 5 0  -3.5 5 0  -3.6 5 0  -3.699999999999999 5 0  -3.800000000000001 5 0  -3.9 5 0  -4 5 0  -4.1 5 0  -4.199999999999999 5 0  -4.300000000000001 5 0  -4.4 5 0  -4.5 5 0  -4.6 5 0  -4.699999999999999 5 0  -4.800000000000001 5 0  -4.9 5 0  -5 4.9 0  -5 4.8 0  -5 4.7 0  -5 4.6 0  -5 4.5 0  -5 4.4 0  -5 4.3 0  -5 4.2 0  -5 4.1 0  -5 4 0  -5 3.9 0  -5 3.8 0  -5 3.7 0  -5 3.6 0  -5 3.5 0  -5 3.4 0  -5 3.3 0  -5 3.2 0  -5 3.1 0  -5 3 0  -5 2.9 0  -5 2.8 0  -5 2.7 0  -5 2.6 0  -5 2.5 0  -5 2.4 0  -5 2.3 0  -5 2.2 0  -5 2.1 0  -5 2 0  -5 1.9 0  -5 1.8 0  -5 1.7 0  -5 1.6 0  -5 1.5 0  -5 1.4 0  -5 1.3 0  -5 1.2 0  -5 1.1 0  -5 1 0  -5 0.9000000000000004 0  -5 0.7999999999999998 0  -5 0.7000000000000002 0  -5 0.5999999999999996 0  -5 0.5 0  -5 0.4000000000000004 0  -5 0.2999999999999998 0  -5 0.2000000000000002 0  -5 0.09999999999999964 0  -5 0 0  -5 -0.09999999999999964 0  -5 -0.2000000000000002 0  -5 -0.2999999999999998 0  -5 -0.4000000000000004 0  -5 -0.5 0  -5 -0.5999999999999996 0  -5 -0.7000000000000002 0  -5 -0.7999999999999998 0  -5 -0.9000000000000004 0  -5 -1 0  -5 -1.1 0  -5 -1.2 0  -5 -1.3 0  -5 -1.4 0  -5 -1.5 0  -5 -1.6 0  -5 -1.7 0  -5 -1.8 0  -5 -1.9 0  -5 -2 0  -5 -2.1 0  -5 -2.2 0  -5 -2.3 0  -5 -2.4 0  -5 -2.5 0  -5 -2.6 0  -5 -2.7 0  -5 -2.8 0  -5 -2.9 0  -5 -3 0  -5 -3.1 0  -5 -3.199999999999999 0  -5 -3.300000000000001 0  -5 -3.4 0  -5 -3.5 0  -5 -3.6 0  -5 -3.699999999999999 0  -5 -3.800000000000001 0  -5 -3.9 0  -5 -4 0  -5 -4.1 0  -5 -4.199999999999999 0  -5 -4.300000000000001 0  -5 -4.4 0  -5 -4.5 0  -5 -4.6 0  -5 -4.699999999999999 0  -5 -4.800000000000001 0  -5 -4.9 0  1.024486383471829 0.09997399707308173 0  1.009151658657815 0.1989285003198306 0  0.9835793759821283 0.2959904429627659 0  0.9485871899792008 0.3898392040778113 0  0.9041221277402692 0.4801208792199751 0  0.850779422774912 0.5655233746997008 0  0.7888375831216535 0.6451775197540325 0  0.7188327684206232 0.7183954442171907 0  0.6419224484576675 0.7845938552114546 0  0.5586490745187749 0.8430739792384349 0  0.4697142643801611 0.8930010762681757 0  0.3760304338322366 0.9341075219377541 0  0.2789529045022577 0.9660528029597115 0  0.178859152671645 0.9881805309006424 0  0.07715040239936896 1.000661468636039 0  -0.02541979604969719 1.003175016263124 0  -0.1277529356828785 0.9956073730152775 0  -0.2288161767166405 0.9783887008216995 0  -0.3275663663436006 0.9513799365115213 0  -0.4230366808128548 0.9147975889082662 0  -0.5142644386720167 0.8692773733612654 0  -0.6004235141512607 0.815015804586419 0  -0.6806288385336233 0.7527085331903607 0  -0.7540705500873861 0.6829883433857491 0  -0.8200619485488055 0.6062254613466284 0  -0.8777930894236217 0.5234822630139596 0  -0.926996415059841 0.435682015468905 0  -0.9668176352070227 0.3434179856815022 0  -0.9969789937428341 0.2478294948594589 0  -1.017349477819104 0.1497963681103573 0  -1.027624594264406 0.05018279578840548 0  -1.027631005564283 -0.04994925244788221 0  -1.017364917665666 -0.1495296725727163 0  -0.9973603345291049 -0.2475365264427256 0  -0.9668227154483994 -0.3432324092982388 0  -0.9270474638656387 -0.4353619499487357 0  -0.8779037178334699 -0.5232210900837178 0  -0.8201844548797772 -0.6058846288580075 0  -0.7541776353388221 -0.6824926990363814 0  -0.6806117177384101 -0.7521815852869435 0  -0.6002791438332883 -0.8143402712689461 0  -0.5143544156397359 -0.868776636631578 0  -0.4227953231022566 -0.9142668417184879 0  -0.3272979681996506 -0.9509322947146479 0  -0.2284712232762088 -0.9779938819458102 0  -0.1274571258749251 -0.9953241879170537 0  -0.02521766054528785 -1.003053517932522 0  0.07720604445056614 -1.00045491666605 0  0.1790815391761451 -0.9878834528567003 0  0.2790212580733953 -0.9657134879101887 0  0.3764383967857486 -0.933774938148021 0  0.4698265629593757 -0.8926778608063738 0  0.5587651530417286 -0.8427587141215096 0  0.6420078797388417 -0.7846309199190615 0  0.7189091742650739 -0.71845609175775 0  0.7887462601282792 -0.6450532108698924 0  0.8506279391724951 -0.565272549050011 0  0.9042217017450395 -0.4799542355828755 0  0.9489156710845817 -0.3898375418904019 0  0.9838396165473037 -0.2959008575262201 0  1.009170299800094 -0.1988087947004754 0  1.024508816312396 -0.09992834140112765 0  -2.449765319165442 4.920343357203961 0  -2.449746096328361 -4.912923139966454 0  4.912904748296264 2.449646521488587 0  4.920801273848859 -2.450949280648304 0  2.4476901291065 -4.898579354528178 0  2.442074128440004 4.902249000212365 0  -4.912911202722028 -2.449653712264465 0  -4.912914781528015 2.449657224552594 0  -1.749756006725952 4.914203635432177 0  -1.745488423680946 -4.917516392252551 0  4.92372980956934 1.745651973987537 0  4.912702250415248 -1.749644772875656 0  -4.912957039398813 -1.749351951292414 0  -4.913754447359531 1.749077824281062 0  1.747105374024933 4.908297955848419 0  1.748676629597873 -4.896862175470707 0  -1.149811516712419 4.912651928390468 0  -1.1305695426652 -4.92023764420754 0  -4.913551234723674 -1.149361756936595 0  -4.913384093812991 1.149159967573375 0  1.144742409247036 -4.91658603169864 0  1.149809641617763 4.912649994926351 0  4.913727597084662 1.147648326099714 0  4.92402495451948 -1.15326370487862 0  -0.5471732311545682 -4.914165464541815 0  -0.5469070436752348 4.922462373519191 0  -4.912987288140992 -0.5495047575651087 0  -4.913014097366815 0.5480535026186232 0  4.912391299550775 -0.5498384894934017 0  4.923405310797481 0.5464868393301366 0  0.5430032567623858 -4.901658747577632 0  0.551643867643648 4.919435037748917 0  -4.913540682317963 -3.049713190882473 0  4.920002116220318 3.047638292616086 0  4.913067242706383 -3.049712095742164 0  -4.914380831150888 3.04679337738015 0  3.056364074014708 -4.919006592673473 0  -3.049774449671842 -4.913053862827797 0  3.053317780869428 4.91510280955089 0  -3.049213476302059 4.913930544296663 0  -4.912358593275423 -0.04998725322044432 0  0.04515069831284529 -4.916145464223059 0  0.04960230338842678 4.92285113280259 0  4.919056070744126 -0.05136433797755102 0  3.546463474369135 -4.920165530839665 0  -3.5498179
[...]
<PointData  Scalars="f_27"> 
<DataArray  type="Float64"  Name="f_27"  format="ascii">0.0000000000000000e+00  0.0000000000000000e+00  0.0000000000000000e+00  0.0000000000000000e+00  5.3139622557707600e-01  0.0000000000000000e+00  0.0000000000000000e+00  0.0000000000000000e+00  0.0000000000000000e+00  0.0000000000000000e+00  0.0000000000000000e+00  0.0000000000000000e+00  0.0000000000000000e+00  0.0000000000000000e+00  0.0000000000000000e+00  0.0000000000000000e+00  0.0000000000000000e+00  0.0000000000000000e+00  0.0000000000000000e+00  0.0000000000000000e+00  0.0000000000000000e+00  0.0000000000000000e+00  0.0000000000000000e+00  0.0000000000000000e+00  0.0000000000000000e+00  0.0000000000000000e+00  0.0000000000000000e+00  0.0000000000000000e+00  0.0000000000000000e+00  0.0000000000000000e+00  0.0000000000000000e+00  0.0000000000000000e+00  0.0000000000000000e+00  0.0000000000000000e+00  0.0000000000000000e+00  0.0000000000000000e+00  0.0000000000000000e+00  0.0000000000000000e+00  0.0000000000000000e+00  0.0000000000000000e+00  0.0000000000000000e+00  0.0000000000000000e+00  0.0000000000000000e+00  0.0000000000000000e+00  0.0000000000000000e+00  0.0000000000000000e+00  0.0000000000000000e+00  0.0000000000000000e+00  0.0000000000000000e+00  0.0000000000000000e+00  0.0000000000000000e+00  0.0000000000000000e+00  0.0000000000000000e+00  0.0000000000000000e+00  0.0000000000000000e+00  0.0000000000000000e+00  0.0000000000000000e+00  0.0000000000000000e+00  0.0000000000000000e+00  0.0000000000000000e+00  0.0000000000000000e+00  0.0000000000000000e+00  0.0000000000000000e+00  0.0000000000000000e+00  0.0000000000000000e+00  0.0000000000000000e+00  0.0000000000000000e+00  0.0000000000000000e+00  0.0000000000000000e+00  0.0000000000000000e+00  0.0000000000000000e+00  0.0000000000000000e+00  0.0000000000000000e+00  0.0000000000000000e+00  0.0000000000000000e+00  0.0000000000000000e+00  0.0000000000000000e+00  0.0000000000000000e+00  0.0000000000000000e+00  0.0000000000000000e+00  0.0000000000000000e+00  0.0000000000000000e+00  0.0000000000000000e+00  0.0000000000000000e+00  0.0000000000000000e+00  0.0000000000000000e+00  0.0000000000000000e+00  0.0000000000000000e+00  0.0000000000000000e+00  0.0000000000000000e+00  0.0000000000000000e+00  0.0000000000000000e+00  0.0000000000000000e+00  0.0000000000000000e+00  0.0000000000000000e+00  0.0000000000000000e+00  0.0000000000000000e+00  0.0000000000000000e+00  0.0000000000000000e+00  0.0000000000000000e+00  0.0000000000000000e+00  0.0000000000000000e+00  0.0000000000000000e+00  0.0000000000000000e+00  0.0000000000000000e+00  0.0000000000000000e+00  0.0000000000000000e+00  0.0000000000000000e+00  0.0000000000000000e+00  0.0000000000000000e+00  0.0000000000000000e+00  0.0000000000000000e+00  0.0000000000000000e+00  0.0000000000000000e+00  0.0000000000000000e+00  0.0000000000000000e+00  0.0000000000000000e+00  0.0000000000000000e+00  0.0000000000000000e+00  0.0000000000000000e+00  0.0000000000000000e+00  0.0000000000000000e+00  0.0000000000000000e+00  0.0000000000000000e+00  0.0000000000000000e+00  0.0000000000000000e+00  0.0000000000000000e+00  0.0000000000000000e+00  0.0000000000000000e+00  0.0000000000000000e+00  0.0000000000000000e+00  0.0000000000000000e+00  0.0000000000000000e+00  0.0000000000000000e+00  0.0000000000000000e+00  0.0000000000000000e+00  0.0000000000000000e+00  0.0000000000000000e+00  0.0000000000000000e+00  0.0000000000000000e+00  0.0000000000000000e+00  0.0000000000000000e+00  0.0000000000000000e+00  0.0000000000000000e+00  0.0000000000000000e+00  0.0000000000000000e+00  0.0000000000000000e+00  0.0000000000000000e+00  0.0000000000000000e+00  0.0000000000000000e+00  0.0000000000000000e+00  0.0000000000000000e+00  0.0000000000000000e+00  0.0000000000000000e+00  0.0000000000000000e+00  0.0000000000000000e+00  0.0000000000000000e+00  0.0000000000000000e+00  0.0000000000000000e+00  0.0000000000000000e+00  0.0000000000000000e+00  0.0000000000000000e+00  0.0000000000000000e+00  0.0000000000000000e+00  0.0000000000000000e+00  0.0000000000000000e+00  0.0000000000000000e+00  0.0000000000000000e+00  0.0000000000000000e+00  0.0000000000000000e+00  0.0000000000000000e+00  0.0000000000000000e+00  0.0000000000000000e+00  0.0000000000000000e+00  0.0000000000000000e+00  0.0000000000000000e+00  0.0000000000000000e+00  0.0000000000000000e+00  0.0000000000000000e+00  0.0000000000000000e+00  0.0000000000000000e+00  0.0000000000000000e+00  0.0000000000000000e+00  0.0000000000000000e+00  0.0000000000000000e+00  0.0000000000000000e+00  0.0000000000000000e+00  0.0000000000000000e+00  0.0000000000000000e+00  0.0000000000000000e+00  0.0000000000000000e+00  0.0000000000000000e+00  0.0000000000000000e+00  0.0000000000000000e+00  0.0000000000000000e+00  0.0000000000000000e+00  0.0000000000000000e+00  0.0000000000000000e+00  0.0000000000000000e+00  0.0000000000000000e+00  0.0000000000000000e+00  0.0000000000000000e+00  0.0000000000000000e+00  0.0000000000000000e+00  0.0000000000000000e+00  0.0000000000000000e+00  0.0000000000000000e+00  0.0000000000000000e+00  0.0000000000000000e+00  0.0000000000000000e+00  0.0000000000000000e+00  0.0000000000000000e+00  0.0000000000000000e+00  0.0000000000000000e+00  0.0000000000000000e+00  0.0000000000000000e+00  0.0000000000000000e+00  0.0000000000000000e+00  0.0000000000000000e+00  0.0000000000000000e+00  0.0000000000000000e+00  0.0000000000000000e+00  0.0000000000000000e+00  0.0000000000000000e+00  0.0000000000000000e+00  0.0000000000000000e+00  0.0000000000000000e+00  0.0000000000000000e+00  0.0000000000000000e+00  0.0000000000000000e+00  0.0000000000000000e+00  0.0000000000000000e+00  0.0000000000000000e+00  0.0000000000000000e+00  0.0000000000000000e+00  0.0000000000000000e+00  0.0000000000000000e+00  0.0000000000000000e+00  0.0000000000000000e+00  0.0000000000000000e+00  0.0000000000000000e+00  0.0000000000000000e+00  0.0000000000000000e+00  0.0000000000000000e+00  0.0000000000000000e+00  0.0000000000000000e+00  0.0000000000000000e+00  0.0000000000000000e+00  0.0000000000000000e+00  0.0000000000000000e+00  0.0000000000000000e+00  0.0000000000000000e+00  0.0000000000000000e+00  0.0000000000000000e+00  0.0000000000000000e+00  0.0000000000000000e+00  0.0000000000000000e+00  0.0000000000000000e+00  0.0000000000000000e+00  0.0000000000000000e+00  0.0000000000000000e+00  0.0000000000000000e+00  0.0000000000000000e+00  0.0000000000000000e+00  0.0000000000000000e+00  0.0000000000000000e+00  0.0000000000000000e+00  0.0000000000000000e+00  0.0000000000000000e+00  0.0000000000000000e+00  0.0000000000000000e+00  0.0000000000000000e+00  0.0000000000000000e+00  0.0000000000000000e+00  0.0000000000000000e+00  0.0000000000000000e+00  0.0000000000000000e+00  0.0000000000000000e+00  0.0000000000000000e+00  0.0000000000000000e+00  0.0000000000000000e+00  0.0000000000000000e+00  0.0000000000000000e+00  0.0000000000000000e+00  0.0000000000000000e+00  0.0000000000000000e+00  0.0000000000000000e+00  0.0000000000000000e+00  0.0000000000000000e+00  0.0000000000000000e+00  0.0000000000000000e+00  0.0000000000000000e+00  0.0000000000000000e+00  0.0000000000000000e+00  0.0000000000000000e+00  0.0000000000000000e+00  0.0000000000000000e+00  0.0000000000000000e+00  0.0000000000000000e+00  0.0000000000000000e+00  0.0000000000000000e+00  0.0000000000000000e+00  0.0000000000000000e+00  0.0000000000000000e+00  0.0000000000000000e+00  0.0000000000000000e+00  0.0000000000000000e+00  0.0000000000000000e+00  0.0000000000000000e+00  0.0000000000000000e+00  0.0000000000000000e+00  0.0000000000000000e+00  0.0000000000000000e+00  0.0000000000000000e+00  0.0000000000000000e+00  0.0000000000000000e+00  0.0000000000000000e+00  0.0000000000000000e+00  0.0000000000000000e+00  0.0000000000000000e+00  0.0000000000000000e+00  0.0000000000000000e+00  0.0000000000000000e+00  0.0000000000000000e+00  0.0000000000000000e+00  0.0000000000000000e+00  0.0000000000000000e+00  0.0000000000000000e+00  0.0000000000000000e+00  0.0000000000000000e+00  0.0000000000000000e+00  0.0000000000000000e+00  0.0000000000000000e+00  0.0000000000000000e+00  0.0000000000000000e+00  0.0000000000000000e+00  0.0000000000000000e+00  0.0000000000000000e+00  0.0000000000000000e+00  0.0000000000000000e+00  0.0000000000000000e+00  0.0000000000000000e+00  0.0000000000000000e+00  0.0000000000000000e+00  0.0000000000000000e+00  0.0000000000000000e+00  0.0000000000000000e+00  0.0000000000000000e+00  0.0000000000000000e+00  0.0000000000000000e+00  0.0000000000000000e+00  0.0000000000000000e+00  0.0000000000000000e+00  0.0000000000000000e+00  0.0000000000000000e+00  0.0000000000000000e+00  0.0000000000000000e+00  0.0000000000000000e+00  0.0000000000000000e+00  0.0000000000000000e+00  0.0000000000000000e+00  0.0000000000000000e+00  0.0000000000000000e+00  0.0000000000000000e+00  0.0000000000000000e+00  0.0000000000000000e+00  0.0000000000000000e+00  0.0000000000000000e+00  0.0000000000000000e+00  0.0000000000000000e+00  0.0000000000000000e+00  0.0000000000000000e+00  0.0000000000000000e+00  0.0000000000000000e+00  0.0000000000000000e+00  0.0000000000000000e+00  0.0000000000000000e+00  0.0000000000000000e+00  0.0000000000000000e+00  0.0000000000000000e+00  0.0000000000000000e+00  0.0000000000000000e+00  0.0000000000000000e+00  0.0000000000000000e+00  0.0000000000000000e+00  0.0000000000000000e+00  0.0000000000000000e+00  0.0000000000000000e+00  0.0000000000000000e+00  0.0000000000000000e+00  0.0000000000000000e+00  0.0000000000000000e+00  0.0000000000000000e+00  0.0000000000000000e+00  0.0000000000000000e+00  0.0000000000000000e+00  0.0000000000000000e+00  0.0000000000000000e+00  0.0000000000000000e+00  0.0000000000000000e+00  0.0000000000000000e+00  5.2042762438002932e-01  5.3432534700638878e-01  6.1916329897657074e-01  6.1358474134602370e-01  5.5947541554121050e-01  4.8034738935037974e-01  4.9348251975177043e-01  5.8054150766191703e-01  5.4572557661677112e-01  4.7101041769749608e-01  4.9884059043253143e-01  5.1958133715814336e-01  4.4978873685076387e-01  5.4469105378558746e-01  5.3714759347622321e-01  5.4676262231892436e-01  5.9394544715402142e-01  5.2609357566816450e-01  5.0820585153497799e-01  5.5126401674492997e-01  5.2904770888512820e-01  5.4165953337416906e-01  5.2903579091946629e-01  4.9471124559968466e-01  5.3144537758801846e-01  5.7459309495594812e-01  5.2175211443948100e-01  5.4843427613441909e-01  5.9603105613085350e-01  5.7128626907972102e-01  5.4454250778578905e-01  5.3960096212694630e-01  5.6093336810054051e-01  4.4794399019053305e-01  5.5059987817508349e-01  5.1728134111469670e-01  5.4647084648572186e-01  4.9696408746914800e-01  4.9774234525990535e-01  5.4905703468932587e-01  6.2572208563109266e-01  4.7628779292508533e-01  5.5548353623887148e-01  4.9869379243564793e-01  5.1283448289492872e-01  5.3969939317263926e-01  4.1374130421590849e-01  4.6796835537286191e-01  5.2657990957344170e-01  5.0588064678324463e-01  5.4190985751226139e-01  5.7342794204789349e-01  5.4130449751145171e-01  4.8793038020300789e-01  5.2106551720229621e-01  5.3652626727639974e-01  5.7499778397509294e-01  5.3351604211083381e-01  4.4949882072181135e-01  5.1514185659313783e-01  5.2637952598557947e-01  5.0499319255660302e-01  -2.2458045445000045e-31  1.5397524961186320e-31  3.2169198295875869e-34  5.2884517690044022e-34  2.7812948758353890e-31  3.4396216804504960e-31  -4.7961103506696589e-36  -6.6605948361470487e-35  -3.3931253406408786e-31  -1.1250061569435508e-31  7.5548244164902568e-32  9.9492896555059450e-32  5.5221634819622350e-32  6.2910034245159112e-32  3.2588965414286484e-30  1.7072470112813002e-30  -5.6224555577225491e-30  3.2270664005893891e-31  -8.1622667565263151e-30  -1.1246764973121350e-29  -1.8491135742732159e-30  -2.0695554878866603e-30  -5.7057048953498159e-30  -6.2803489641198436e-30  -3.8384258219300875e-30  -3.2564383315055388e-30  -1.2693097834523377e-28  -3.3363745400471850e-30  -4.3790698808358937e-29  -2.5908667867235836e-28  8.2137018978120667e-30  -2.2620328807433059e-30  -4.9236323810965230e-36  3.4463123264701336e-36  2.6501690087512530e-36  -5.0616730038463888e-36  4.8928487437425512e-33  3.6718728443064799e-33  2.9252980073142825e-33  3.1691756600015416e-33  -1.1290649841412479e-27  1.1070394884107142e-29  -2.9154967805556977e-31  1.8415672525444488e-27  1.1381497112466134e-35  6.7848138259109915e-36  1.4656980704574630e-35  -4.6208727505416799e-38  4.9979197392980615e-39  -4.8938212244610927e-38  1.9923150684254764e-38  -3.1444222550712229e-36  8.6426823651569470e-40  -1.7982197463112128e-37  -4.5362353896278079e-38  -1.5468698571781870e-39  -1.9002927563492388e-37  1.3508261173769178e-39  -1.0609391070801866e-37  -2.1385815246397595e-39  -4.1546435199882436e-40  -5.5497299530849283e-40  -4.3536588798706905e-40  -1.5173804702909195e-41  -4.9593431985990701e-43  4.8542457127727882e-41  6.4825731616728624e-41  -5.7812351858411439e-40  1.8561855653205413e-27  2.1418251384295102e-30  -1.4961584335877841e-30  1.6523999393954404e-27  3.6507398389154671e-30  1.6407705490567841e-30  9.7103076118088985e-30  1.0726333725487946e-29  1.7924489785695025e-30  1.6708403230425065e-30  -1.2390226681007316e-30  -9.9813670815119365e-30  -1.7408672499793144e-30  -4.8744093419792985e-31  3.3084653813453869e-29  5.9584984693904300e-29  -3.3494171181206184e-31  1.7589822295702032e-30  -1.6054003837539222e-30  7.3422402826239728e-31  -2.2860178089072710e-30  -1.5347668676553100e-30  -1.7227202896449532e-32  -1.6670979405435833e-32  -4.4656754616827573e-31  -5.0108552692146294e-31  9.3798809371378802e-33  9.0416459479176929e-33  4.2648715653154385e-35  -1.5639056637391088e-32  2.7961166846658666e-32  -4.5157889750743921e-35  1.0139610923619770e-32  -4.2835038743034977e-35  4.0852556686378270e-35  4.1380149011118993e-32  2.4054513825972572e-42  8.5819055539668137e-42  -1.8060695536418423e-42  -3.9517381849001463e-42  -8.5349100778970415e-43  -2.5812884371105550e-42  4.0392167734137023e-42  2.9047046039375920e-42  3.9119411765095691e-28  1.6619228635719709e-29  4.3966469993478950e-30  1.8106723869691214e-27  7.3836834646521122e-32  -2.1015329112022857e-33  -2.3853054171679515e-33  -2.2362158290635487e-31  2.3043258152056982e-33  1.9414876184896844e-31  3.3146480112415875e-31  2.2619648435121977e-33  -6.6620707462335734e-37  -1.0717892117527422e-33  -4.7528461039234663e-34  3.4644669522430547e-38  -5.5846584779728689e-37  -1.7999103051733526e-35  -6.8677124547462422e-34  1.9431102487924644e-37  3.7855956321548707e-39  -2.1373155195656751e-40  -1.8472993220899247e-36  -3.6714823795844348e-39  -8.0727459797778000e-37  -3.1848070030649297e-39  1.0585062114109977e-38  -1.0552469116735660e-40  -9.1509820081584485e-37  -4.9513040429475312e-39  1.4701797283749468e-40  -1.9197678140146839e-40  1.0262404441356383e-38  -4.2310388602530528e-41  -5.0175464365412711e-37  -4.7526365965650823e-39  -8.9162674438668805e-43  3.9822432256556725e-43  -6.2785784217662420e-43  -1.4029702048231593e-42  -4.6334742638914022e-28  -5.2389759055355886e-29  -2.4652923419185204e-27  6.1738795047624125e-27  9.6578269730462688e-27  -3.5524781314298115e-26  -2.8287328350867808e-26  1.3655290193380213e-25  5.6933902376455905e-26  -3.9432947066896348e-25  -2.2538892544271335e-26  7.6921775359166111e-25  -4.5614761520305561e-25  -1.9596613400093149e-25  2.7351221247240067e-24  -6.7931722581398440e-24  -1.0343438620398270e-23  3.9131481440923917e-23  2.9309889690543997e-23  -1.4519995439412954e-22  -5.9219574251296279e-23  -1.0081046058219469e-22  4.0521926684689185e-22  4.5719939665254693e-23  -7.9467331715527585e-22  2.6385494714725374e-22  4.6371166618463974e-22  -1.5259562231713949e-21  4.1419127756097252e-21  4.5561811449485347e-21  -2.1923676773766970e-20  -7.4206779040182840e-21  4.0767419086663019e-21  6.2223263102629689e-20  -4.8732116214029384e-21  -8.6674504941170901e-20  7.3571906501722804e-20  -1.2942288293919294e-19  -2.2961678035907324e-19  1.1188346401712098e-18  2.5706539799271649e-19  -2.9551911719320013e-18  7.7255691537477810e-19  -2.7189849107483438e-18  1.7710386758156175e-18  -4.0331948893987494e-18  1.4884858363150785e-17  6.0195442691926559e-18  1.8536357453910553e-19  -4.2485864054387883e-18  1.0358776185883374e-17  8.4133788874089103e-18  -2.3571145564863195e-19  -4.1992945764407396e-18  8.7356997896273955e-19  -2.9539032734076476e-19  8.6202280006388248e-18  -4.1314687013947592e-18  8.2409441704925532e-19  1.6080020379021593e-20  -2.3764817327018467e-19  6.4770470234831836e-19  -3.8622444007095407e-18  4.9608147766681630e-19  -2.5353844923864817e-19  3.6075675191184361e-19  -3.0096653753073657e-18  8.1682695086075207e-19  -2.2069077862988462e-19  6.1113408348251573e-20  -1.6603279672638717e-18  7.9106856996504362e-19  -2.4334371976097620e-18  4.4881080665932263e-20  -4.4224875804528416e-19  7.1330130129674006e-18  -3.2865215418370190e-18  1.0199870097669277e-17  1.5803570590711661e-18  -3.5294412889345951e-17  2.1021510898359631e-17  -1.1408073360911747e-16  -2.7850039491461474e-18  3.2763163341321140e-17  -7.8345295283479646e-17  -1.1727833888704291e-17  2.2375801859061728e-16  -1.1945286740407644e-16  6.3801190712432298e-16  -1.9559210608687654e-16  6.8950912978724855e-16  -1.2810786561166849e-16  1.7716037101263766e-16  3.6947916427897237e-17  -3.6805530826981841e-16  4.8077067746075435e-17  1.3117354502990794e-17  -1.4243701194376457e-01  1.0982942793111921e-16  -2.9103830799873616e-16  8.0889486460958459e-18  2.6324171803583535e-16  -1.6215859908875072e-01  -1.2866063806416271e-16  5.8673720269798846e-16  -1.4295071929796660e-01  -1.4519519142215028e-16  4.0436905257312782e-16  -2.0471746768570330e-15  -8.2351930298717766e-16  6.5011405264214873e-17  1.7362728126785332e-16  -2.7800630537926345e-15  4.0978259149042585e-17  -9.3671987868597120e-17  3.6126144994556526e-16  -1.3215697707391314e-15  -1.0135168253726373e-15  1.6362043697053222e-16  -2.3925833114411847e-16  2.1782929316722636e-15  1.4025841970777454e-17  8.8778587092181881e-17  -3.2872945799425870e-16  1.3227031611077232e-15  4.5932414887082517e-16  4.5609428644650191e-17  -5.1801038345322800e-16  1.1983736573607780e-15  1.3766380867940844e-15  -7.8532142566771233e-17  -6.4184472616697686e-16  8.3928385025143115e-17  2.5790875479725244e-15  -2.8983296215075114e-16  -6.0118863811983026e-16  -1.9516908223691684e-15  3.5002782419712057e-15  -1.4332015559958604e-14  -3.0240204731924606e-15  -6.2430069156608826e-16  3.9680668505008411e-15  -1.6980869704187279e-14  -1.7855859257431466e-15  -8.8259313655787016e-16  3.6695541625103975e-15  -1.9409567814236682e-14  1.6632772225095184e-15  2.1453230412195589e-14  -1.6613256558359569e-14  7.4343638252247921e-14  -4.4012036807129085e-15  4.4474486168115634e-15  -6.7263270807112854e-15  4.7579564950180695e-14  -1.0614602005211546e-14  -3.7620491809434427e-15  2.4481397750149523e-14  -1.6410464264034532e-13  4.4315903303662571e-14  -6.3590931553075013e-14  -4.7848613010744699e-14  -3.2466361656278068e-15  3.5273178527748255e-14  -2.1877395813385040e-13  7.7510981544316280e-14  -3.4013507575742051e-13  9.8391586373201249e-14  -3.8212461937719060e-13  1.0627669335542698e-13  -4.1310305527333731e-13  1.1711553252757773e-13  -4.6128946771914034e-13  1.2960315733754654e-13  -4.9345285858435742e-13  1.2939644794423540e-13  -4.4346359887130920e-13  9.8241258312411745e-14  -2.6298496665302798e-13  3.8883568064956778e-14  -3.5395774112295716e-14  -1.0982850892073849e-14  8.0456592010489919e-14  -2.0692198264251550e-14  5.0887241795158593e-14  -5.4625978474102308e-15  -4.5103794969642690e-15  3.7856080257279931e-15  -1.1909484784321935e-16  -4.5197393645448429e-16  2.2152562251601005e-16  5.5198744832227254e-18  -5.9084071186712645e-17  1.3960619558865825e-17  8.8505755453277367e-18  -4.2322902038892196e-18  -3.2796424919490946e-19  -4.4203332035214269e-18  7.1702247046677123e-19  -2.7553533484432775e-14  1.3036968786307054e-18  -2.7071192882758210e-18  1.1106664409930296e-19  1.2392941018626070e-18  -3.4694975819658633e-19  6.1222006280663572e-19  -5.3813867854908902e-21