<?xml version="1.0"?>
<VTKFile type="UnstructuredGrid"  version="0.1"  >
<UnstructuredGrid>
<Piece  NumberOfPoints="11902" NumberOfCells="23402">
<Points>
<DataArray  type="Float64"  NumberOfComponents="3"  format="ascii">-5 -5 0  5 -5 0  5 5 0  -5 5 0  1.258363902379314 0.001344523330501971 0  -4.9 -5 0  -4.8 -5 0  -4.7 -5 0  -4.6 -5 0  -4.5 -5 0  -4.4 -5 0  -4.3 -5 0  -4.2 -5 0  -4.1 -5 0  -4 -5 0  -3.9 -5 0  -3.8 -5 0  -3.7 -5 0  -3.6 -5 0  -3.5 -5 0  -3.4 -5 0  -3.3 -5 0  -3.2 -5 0  -3.1 -5 0  -3 -5 0  -2.9 -5 0  -2.8 -5 0  -2.7 -5 0  -2.6 -5 0  -2.5 -5 0  -2.4 -5 0  -2.3 -5 0  -2.2 -5 0  -2.1 -5 0  -2 -5 0  -1.9 -5 0  -1.8 -5 0  -1.7 -5 0  -1.6 -5 0  -1.5 -5 0  -1.4 -5 0  -1.3 -5 0  -1.2 -5 0  -1.1 -5 0  -1 -5 0  -0.9000000000000004 -5 0  -0.7999999999999998 -5 0  -0.7000000000000002 -5 0  -0.5999999999999996 -5 0  -0.5 -5 0  -0.4000000000000004 -5 0  -0.2999999999999998 -5 0  -0.2000000000000002 -5 0  -0.09999999999999964 -5 0  0 -5 0  0.09999999999999964 -5 0  0.2000000000000002 -5 0  0.2999999999999998 -5 0  0.4000000000000004 -5 0  0.5 -5 0  0.5999999999999996 -5 0  0.7000000000000002 -5 0  0.7999999999999998 -5 0  0.9000000000000004 -5 0  1 -5 0  1.1 -5 0  1.2 -5 0  1.3 -5 0  1.4 -5 0  1.5 -5 0  1.6 -5 0  1.7 -5 0  1.8 -5 0  1.9 -5 0  2 -5 0  2.1 -5 0  2.2 -5 0  2.3 -5 0  2.4 -5 0  2.5 -5 0  2.6 -5 0  2.7 -5 0  2.8 -5 0  2.9 -5 0  3 -5 0  3.1 -5 0  3.199999999999999 -5 0  3.300000000000001 -5 0  3.4 -5 0  3.5 -5 0  3.6 -5 0  3.699999999999999 -5 0  3.800000000000001 -5 0  3.9 -5 0  4 -5 0  4.1 -5 0  4.199999999999999 -5 0  4.300000000000001 -5 0  4.4 -5 0  4.5 -5 0  4.6 -5 0  4.699999999999999 -5 0  4.800000000000001 -5 0  4.9 -5 0  5 -4.9 0  5 -4.8 0  5 -4.7 0  5 -4.6 0  5 -4.5 0  5 -4.4 0  5 -4.3 0  5 -4.2 0  5 -4.1 0  5 -4 0  5 -3.9 0  5 -3.8 0  5 -3.7 0  5 -3.6 0  5 -3.5 0  5 -3.4 0  5 -3.3 0  5 -3.2 0  5 -3.1 0  5 -3 0  5 -2.9 0  5 -2.8 0  5 -2.7 0  5 -2.6 0  5 -2.5 0  5 -2.4 0  5 -2.3 0  5 -2.2 0  5 -2.1 0  5 -2 0  5 -1.9 0  5 -1.8 0  5 -1.7 0  5 -1.6 0  5 -1.5 0  5 -1.4 0  5 -1.3 0  5 -1.2 0  5 -1.1 0  5 -1 0  5 -0.9000000000000004 0  5 -0.7999999999999998 0  5 -0.7000000000000002 0  5 -0.5999999999999996 0  5 -0.5 0  5 -0.4000000000000004 0  5 -0.2999999999999998 0  5 -0.2000000000000002 0  5 -0.09999999999999964 0  5 0 0  5 0.09999999999999964 0  5 0.2000000000000002 0  5 0.2999999999999998 0  5 0.4000000000000004 0  5 0.5 0  5 0.5999999999999996 0  5 0.7000000000000002 0  5 0.7999999999999998 0  5 0.9000000000000004 0  5 1 0  5 1.1 0  5 1.2 0  5 1.3 0  5 1.4 0  5 1.5 0  5 1.6 0  5 1.7 0  5 1.8 0  5 1.9 0  5 2 0  5 2.1 0  5 2.2 0  5 2.3 0  5 2.4 0  5 2.5 0  5 2.6 0  5 2.7 0  5 2.8 0  5 2.9 0  5 3 0  5 3.1 0  5 3.199999999999999 0  5 3.300000000000001 0  5 3.4 0  5 3.5 0  5 3.6 0  5 3.699999999999999 0  5 3.800000000000001 0  5 3.9 0  5 4 0  5 4.1 0  5 4.199999999999999 0  5 4.300000000000001 0  5 4.4 0  5 4.5 0  5 4.6 0  5 4.699999999999999 0  5 4.800000000000001 0  5 4.9 0  4.9 5 0  4.8 5 0  4.7 5 0  4.6 5 0  4.5 5 0  4.4 5 0  4.3 5 0  4.2 5 0  4.1 5 0  4 5 0  3.9 5 0  3.8 5 0  3.7 5 0  3.6 5 0  3.5 5 0  3.4 5 0  3.3 5 0  3.2 5 0  3.1 5 0  3 5 0  2.9 5 0  2.8 5 0  2.7 5 0  2.6 5 0  2.5 5 0  2.4 5 0  2.3 5 0  2.2 5 0  2.1 5 0  2 5 0  1.9 5 0  1.8 5 0  1.7 5 0  1.6 5 0  1.5 5 0  1.4 5 0  1.3 5 0  1.2 5 0  1.1 5 0  1 5 0  0.9000000000000004 5 0  0.7999999999999998 5 0  0.7000000000000002 5 0  0.5999999999999996 5 0  0.5 5 0  0.4000000000000004 5 0  0.2999999999999998 5 0  0.2000000000000002 5 0  0.09999999999999964 5 0  0 5 0  -0.09999999999999964 5 0  -0.2000000000000002 5 0  -0.2999999999999998 5 0  -0.4000000000000004 5 0  -0.5 5 0  -0.5999999999999996 5 0  -0.7000000000000002 5 0  -0.7999999999999998 5 0  -0.9000000000000004 5 0  -1 5 0  -1.1 5 0  -1.2 5 0  -1.3 5 0  -1.4 5 0  -1.5 5 0  -1.6 5 0  -1.7 5 0  -1.8 5 0  -1.9 5 0  -2 5 0  -2.1 5 0  -2.2 5 0  -2.3 5 0  -2.4 5 0  -2.5 5 0  -2.6 5 0  -2.7 5 0  -2.8 5 0  -2.9 5 0  -3 5 0  -3.1 5 0  -3.199999999999999 5 0  -3.300000000000001 5 0  -3.4 5 0  -3.5 5 0  -3.6 5 0  -3.699999999999999 5 0  -3.800000000000001 5 0  -3.9 5 0  -4 5 0  -4.1 5 0  -4.199999999999999 5 0  -4.300000000000001 5 0  -4.4 5 0  -4.5 5 0  -4.6 5 0  -4.699999999999999 5 0  -4.800000000000001 5 0  -4.9 5 0  -5 4.9 0  -5 4.8 0  -5 4.7 0  -5 4.6 0  -5 4.5 0  -5 4.4 0  -5 4.3 0  -5 4.2 0  -5 4.1 0  -5 4 0  -5 3.9 0  -5 3.8 0  -5 3.7 0  -5 3.6 0  -5 3.5 0  -5 3.4 0  -5 3.3 0  -5 3.2 0  -5 3.1 0  -5 3 0  -5 2.9 0  -5 2.8 0  -5 2.7 0  -5 2.6 0  -5 2.5 0  -5 2.4 0  -5 2.3 0  -5 2.2 0  -5 2.1 0  -5 2 0  -5 1.9 0  -5 1.8 0  -5 1.7 0  -5 1.6 0  -5 1.5 0  -5 1.4 0  -5 1.3 0  -5 1.2 0  -5 1.1 0  -5 1 0  -5 0.9000000000000004 0  -5 0.7999999999999998 0  -5 0.7000000000000002 0  -5 0.5999999999999996 0  -5 0.5 0  -5 0.4000000000000004 0  -5 0.2999999999999998 0  -5 0.2000000000000002 0  -5 0.09999999999999964 0  -5 0 0  -5 -0.09999999999999964 0  -5 -0.2000000000000002 0  -5 -0.2999999999999998 0  -5 -0.4000000000000004 0  -5 -0.5 0  -5 -0.5999999999999996 0  -5 -0.7000000000000002 0  -5 -0.7999999999999998 0  -5 -0.9000000000000004 0  -5 -1 0  -5 -1.1 0  -5 -1.2 0  -5 -1.3 0  -5 -1.4 0  -5 -1.5 0  -5 -1.6 0  -5 -1.7 0  -5 -1.8 0  -5 -1.9 0  -5 -2 0  -5 -2.1 0  -5 -2.2 0  -5 -2.3 0  -5 -2.4 0  -5 -2.5 0  -5 -2.6 0  -5 -2.7 0  -5 -2.8 0  -5 -2.9 0  -5 -3 0  -5 -3.1 0  -5 -3.199999999999999 0  -5 -3.300000000000001 0  -5 -3.4 0  -5 -3.5 0  -5 -3.6 0  -5 -3.699999999999999 0  -5 -3.800000000000001 0  -5 -3.9 0  -5 -4 0  -5 -4.1 0  -5 -4.199999999999999 0  -5 -4.300000000000001 0  -5 -4.4 0  -5 -4.5 0  -5 -4.6 0  -5 -4.699999999999999 0  -5 -4.800000000000001 0  -5 -4.9 0  1.250280683742022 0.09486402097433527 0  1.228644382600522 0.192425659224202 0  1.195229681632563 0.2889250401224872 0  1.152391055062966 0.3776720790381458 0  1.094525480578751 0.468487107978113 0  1.028812849834951 0.5527962692709146 0  0.9505453654945526 0.6327651037616114 0  0.8638159684925087 0.7073613733996758 0  0.7720558290125566 0.7727869087607849 0  0.6697154199660562 0.8301504121114013 0  0.5579858928060464 0.8824261415727004 0  0.4455293608342196 0.9267999999701253 0  0.3331174070627027 0.9590190609373758 0  0.2086985765660748 0.9806092645428258 0  0.08897703529707222 0.9994979367468119 0  -0.02711224107511371 1.002788377322118 0  -0.1448324064247923 0.9890829732138878 0  -0.2719285313513221 0.9701520040708426 0  -0.3911480333683406 0.9458951568054865 0  -0.5018429007144058 0.9098674721498936 0  -0.6111695975486519 0.8634094995639179 0  -0.7133286499042704 0.8087843558665242 0  -0.8079773235928328 0.7439375492125579 0  -0.8989145422828015 0.6705229052920899 0  -0.9843716433744433 0.5908312758838627 0  -1.058553046801483 0.5097339209934517 0  -1.120310056660291 0.4243602271907241 0  -1.173460105469426 0.332098230618359 0  -1.211422019947775 0.2427624264071067 0  -1.235906825658678 0.1485545446302256 0  -1.247014890637855 0.05154257427949606 0  -1.246967397442792 -0.04943314106693077 0  -1.235881630175214 -0.1456768976185065 0  -1.211086012883027 -0.238207750355978 0  -1.169789495123104 -0.3330062324014808 0  -1.120655991110258 -0.424734994327793 0  -1.060225980866533 -0.5095604206373947 0  -0.9867982569315635 -0.5898065182259246 0  -0.9019720824980919 -0.6683770907592883 0  -0.8115199049916498 -0.7399922343340057 0  -0.7155839914281569 -0.8010150958884686 0  -0.6109169616348646 -0.8541109829228493 0  -0.4972107958748453 -0.9035946754965569 0  -0.3843662085703702 -0.9433627435852627 0  -0.2686421357174839 -0.9698320191515327 0  -0.1433603632571545 -0.9888892583655635 0  -0.02790809738577733 -1.001997684406083 0  0.08834004643610616 -0.994768198433611 0  0.2140868312333378 -0.977237664781832 0  0.3356590212364151 -0.9574367287574191 0  0.4496731336126852 -0.9254765870252062 0  0.5603711368491747 -0.8816307638709058 0  0.6706731218770136 -0.8302087545409977 0  0.772015377306313 -0.7739030927073099 0  0.8638919035870131 -0.7083944578584308 0  0.9496427541381562 -0.6328794871638241 0  1.02620525823803 -0.5517920787177777 0  1.095269852604041 -0.4673972482484384 0  1.153230416328833 -0.3780028765763107 0  1.19697871226789 -0.2869351929933419 0  1.229316164624743 -0.1915631353801413 0  1.250627544694462 -0.09462064732745779 0  -2.448556359093972 4.918104953453765 0  -2.448430068613242 -4.910482433700955 0  4.910406484455472 2.447885246440787 0  4.918534192667868 -2.449347653716779 0  2.446158868359147 -4.89571194351982 0  2.440592615477827 4.899475103390129 0  -4.910433576937601 -2.447911694624409 0  -4.910430849474302 2.447915636020267 0  -1.748510242646127 4.910988879244826 0  -1.744297106420455 -4.914430957059051 0  4.920579216293453 1.744060955151202 0  4.909105266385879 -1.747820750898937 0  -4.909399676445489 -1.747555115930641 0  -4.910222433950929 1.747300120663076 0  1.745782704740548 4.904843374113233 0  1.747194992515207 -4.892984353974788 0  -1.148822265730092 4.90876688178302 0  -1.129680620379944 -4.916686795509325 0  -4.909104455632192 -1.147885510726085 0  -4.908922597399749 1.147685956775985 0  1.143818107446391 -4.912868720947869 0  1.148832225263064 4.908753451828202 0  4.909243996881595 1.146160692288957 0  4.920086141863882 -1.151947596521415 0  -0.5466588627768162 -4.909952579636435 0  -0.5464425049197345 4.918644231110704 0  -4.90782666435826 -0.5486849768813588 0  -4.907850622751103 0.5472428327498249 0  4.907144545651431 -0.5490030301641713 0  4.918815311727799 0.5457634419934936 0  0.542440230352696 -4.896818935737313 0  0.5511708930302679 4.915464179084249 0  -4.91186716933973 -3.048271627894191 0  4.918439942949244 3.046289239688384 0  4.911374713621207 -3.048247049075784 0  -4.912715136464109 3.045363407298819 0  3.055283118890624 -4.917362573404481 0  -3.048612635837645 -4.911296679006456 0  3.052180311785531 4.913374999062844 0  -3.048058406847967 4.912186724614703 0  -4.906930889475283 -0.04990541014792293 0  0.04511917481193593 -4.911902128538315 0  0.04956670333547214 4.918935678089438 0  4.913994188563368 -0.05128767480805975 0  3.545605363807109 -4.919012735907383 0  -3.54888464329
[...]
<PointData  Scalars="f_27"> 
<DataArray  type="Float64"  Name="f_27"  format="ascii">0.0000000000000000e+00  0.0000000000000000e+00  0.0000000000000000e+00  0.0000000000000000e+00  9.7510228386306252e-01  0.0000000000000000e+00  0.0000000000000000e+00  0.0000000000000000e+00  0.0000000000000000e+00  0.0000000000000000e+00  0.0000000000000000e+00  0.0000000000000000e+00  0.0000000000000000e+00  0.0000000000000000e+00  0.0000000000000000e+00  0.0000000000000000e+00  0.0000000000000000e+00  0.0000000000000000e+00  0.0000000000000000e+00  0.0000000000000000e+00  0.0000000000000000e+00  0.0000000000000000e+00  0.0000000000000000e+00  0.0000000000000000e+00  0.0000000000000000e+00  0.0000000000000000e+00  0.0000000000000000e+00  0.0000000000000000e+00  0.0000000000000000e+00  0.0000000000000000e+00  0.0000000000000000e+00  0.0000000000000000e+00  0.0000000000000000e+00  0.0000000000000000e+00  0.0000000000000000e+00  0.0000000000000000e+00  0.0000000000000000e+00  0.0000000000000000e+00  0.0000000000000000e+00  0.0000000000000000e+00  0.0000000000000000e+00  0.0000000000000000e+00  0.0000000000000000e+00  0.0000000000000000e+00  0.0000000000000000e+00  0.0000000000000000e+00  0.0000000000000000e+00  0.0000000000000000e+00  0.0000000000000000e+00  0.0000000000000000e+00  0.0000000000000000e+00  0.0000000000000000e+00  0.0000000000000000e+00  0.0000000000000000e+00  0.0000000000000000e+00  0.0000000000000000e+00  0.0000000000000000e+00  0.0000000000000000e+00  0.0000000000000000e+00  0.0000000000000000e+00  0.0000000000000000e+00  0.0000000000000000e+00  0.0000000000000000e+00  0.0000000000000000e+00  0.0000000000000000e+00  0.0000000000000000e+00  0.0000000000000000e+00  0.0000000000000000e+00  0.0000000000000000e+00  0.0000000000000000e+00  0.0000000000000000e+00  0.0000000000000000e+00  0.0000000000000000e+00  0.0000000000000000e+00  0.0000000000000000e+00  0.0000000000000000e+00  0.0000000000000000e+00  0.0000000000000000e+00  0.0000000000000000e+00  0.0000000000000000e+00  0.0000000000000000e+00  0.0000000000000000e+00  0.0000000000000000e+00  0.0000000000000000e+00  0.0000000000000000e+00  0.0000000000000000e+00  0.0000000000000000e+00  0.0000000000000000e+00  0.0000000000000000e+00  0.0000000000000000e+00  0.0000000000000000e+00  0.0000000000000000e+00  0.0000000000000000e+00  0.0000000000000000e+00  0.0000000000000000e+00  0.0000000000000000e+00  0.0000000000000000e+00  0.0000000000000000e+00  0.0000000000000000e+00  0.0000000000000000e+00  0.0000000000000000e+00  0.0000000000000000e+00  0.0000000000000000e+00  0.0000000000000000e+00  0.0000000000000000e+00  0.0000000000000000e+00  0.0000000000000000e+00  0.0000000000000000e+00  0.0000000000000000e+00  0.0000000000000000e+00  0.0000000000000000e+00  0.0000000000000000e+00  0.0000000000000000e+00  0.0000000000000000e+00  0.0000000000000000e+00  0.0000000000000000e+00  0.0000000000000000e+00  0.0000000000000000e+00  0.0000000000000000e+00  0.0000000000000000e+00  0.0000000000000000e+00  0.0000000000000000e+00  0.0000000000000000e+00  0.0000000000000000e+00  0.0000000000000000e+00  0.0000000000000000e+00  0.0000000000000000e+00  0.0000000000000000e+00  0.0000000000000000e+00  0.0000000000000000e+00  0.0000000000000000e+00  0.0000000000000000e+00  0.0000000000000000e+00  0.0000000000000000e+00  0.0000000000000000e+00  0.0000000000000000e+00  0.0000000000000000e+00  0.0000000000000000e+00  0.0000000000000000e+00  0.0000000000000000e+00  0.0000000000000000e+00  0.0000000000000000e+00  0.0000000000000000e+00  0.0000000000000000e+00  0.0000000000000000e+00  0.0000000000000000e+00  0.0000000000000000e+00  0.0000000000000000e+00  0.0000000000000000e+00  0.0000000000000000e+00  0.0000000000000000e+00  0.0000000000000000e+00  0.0000000000000000e+00  0.0000000000000000e+00  0.0000000000000000e+00  0.0000000000000000e+00  0.0000000000000000e+00  0.0000000000000000e+00  0.0000000000000000e+00  0.0000000000000000e+00  0.0000000000000000e+00  0.0000000000000000e+00  0.0000000000000000e+00  0.0000000000000000e+00  0.0000000000000000e+00  0.0000000000000000e+00  0.0000000000000000e+00  0.0000000000000000e+00  0.0000000000000000e+00  0.0000000000000000e+00  0.0000000000000000e+00  0.0000000000000000e+00  0.0000000000000000e+00  0.0000000000000000e+00  0.0000000000000000e+00  0.0000000000000000e+00  0.0000000000000000e+00  0.0000000000000000e+00  0.0000000000000000e+00  0.0000000000000000e+00  0.0000000000000000e+00  0.0000000000000000e+00  0.0000000000000000e+00  0.0000000000000000e+00  0.0000000000000000e+00  0.0000000000000000e+00  0.0000000000000000e+00  0.0000000000000000e+00  0.0000000000000000e+00  0.0000000000000000e+00  0.0000000000000000e+00  0.0000000000000000e+00  0.0000000000000000e+00  0.0000000000000000e+00  0.0000000000000000e+00  0.0000000000000000e+00  0.0000000000000000e+00  0.0000000000000000e+00  0.0000000000000000e+00  0.0000000000000000e+00  0.0000000000000000e+00  0.0000000000000000e+00  0.0000000000000000e+00  0.0000000000000000e+00  0.0000000000000000e+00  0.0000000000000000e+00  0.0000000000000000e+00  0.0000000000000000e+00  0.0000000000000000e+00  0.0000000000000000e+00  0.0000000000000000e+00  0.0000000000000000e+00  0.0000000000000000e+00  0.0000000000000000e+00  0.0000000000000000e+00  0.0000000000000000e+00  0.0000000000000000e+00  0.0000000000000000e+00  0.0000000000000000e+00  0.0000000000000000e+00  0.0000000000000000e+00  0.0000000000000000e+00  0.0000000000000000e+00  0.0000000000000000e+00  0.0000000000000000e+00  0.0000000000000000e+00  0.0000000000000000e+00  0.0000000000000000e+00  0.0000000000000000e+00  0.0000000000000000e+00  0.0000000000000000e+00  0.0000000000000000e+00  0.0000000000000000e+00  0.0000000000000000e+00  0.0000000000000000e+00  0.0000000000000000e+00  0.0000000000000000e+00  0.0000000000000000e+00  0.0000000000000000e+00  0.0000000000000000e+00  0.0000000000000000e+00  0.0000000000000000e+00  0.0000000000000000e+00  0.0000000000000000e+00  0.0000000000000000e+00  0.0000000000000000e+00  0.0000000000000000e+00  0.0000000000000000e+00  0.0000000000000000e+00  0.0000000000000000e+00  0.0000000000000000e+00  0.0000000000000000e+00  0.0000000000000000e+00  0.0000000000000000e+00  0.0000000000000000e+00  0.0000000000000000e+00  0.0000000000000000e+00  0.0000000000000000e+00  0.0000000000000000e+00  0.0000000000000000e+00  0.0000000000000000e+00  0.0000000000000000e+00  0.0000000000000000e+00  0.0000000000000000e+00  0.0000000000000000e+00  0.0000000000000000e+00  0.0000000000000000e+00  0.0000000000000000e+00  0.0000000000000000e+00  0.0000000000000000e+00  0.0000000000000000e+00  0.0000000000000000e+00  0.0000000000000000e+00  0.0000000000000000e+00  0.0000000000000000e+00  0.0000000000000000e+00  0.0000000000000000e+00  0.0000000000000000e+00  0.0000000000000000e+00  0.0000000000000000e+00  0.0000000000000000e+00  0.0000000000000000e+00  0.0000000000000000e+00  0.0000000000000000e+00  0.0000000000000000e+00  0.0000000000000000e+00  0.0000000000000000e+00  0.0000000000000000e+00  0.0000000000000000e+00  0.0000000000000000e+00  0.0000000000000000e+00  0.0000000000000000e+00  0.0000000000000000e+00  0.0000000000000000e+00  0.0000000000000000e+00  0.0000000000000000e+00  0.0000000000000000e+00  0.0000000000000000e+00  0.0000000000000000e+00  0.0000000000000000e+00  0.0000000000000000e+00  0.0000000000000000e+00  0.0000000000000000e+00  0.0000000000000000e+00  0.0000000000000000e+00  0.0000000000000000e+00  0.0000000000000000e+00  0.0000000000000000e+00  0.0000000000000000e+00  0.0000000000000000e+00  0.0000000000000000e+00  0.0000000000000000e+00  0.0000000000000000e+00  0.0000000000000000e+00  0.0000000000000000e+00  0.0000000000000000e+00  0.0000000000000000e+00  0.0000000000000000e+00  0.0000000000000000e+00  0.0000000000000000e+00  0.0000000000000000e+00  0.0000000000000000e+00  0.0000000000000000e+00  0.0000000000000000e+00  0.0000000000000000e+00  0.0000000000000000e+00  0.0000000000000000e+00  0.0000000000000000e+00  0.0000000000000000e+00  0.0000000000000000e+00  0.0000000000000000e+00  0.0000000000000000e+00  0.0000000000000000e+00  0.0000000000000000e+00  0.0000000000000000e+00  0.0000000000000000e+00  0.0000000000000000e+00  0.0000000000000000e+00  0.0000000000000000e+00  0.0000000000000000e+00  0.0000000000000000e+00  0.0000000000000000e+00  0.0000000000000000e+00  0.0000000000000000e+00  0.0000000000000000e+00  0.0000000000000000e+00  0.0000000000000000e+00  0.0000000000000000e+00  0.0000000000000000e+00  0.0000000000000000e+00  0.0000000000000000e+00  0.0000000000000000e+00  0.0000000000000000e+00  0.0000000000000000e+00  0.0000000000000000e+00  0.0000000000000000e+00  0.0000000000000000e+00  0.0000000000000000e+00  0.0000000000000000e+00  0.0000000000000000e+00  0.0000000000000000e+00  0.0000000000000000e+00  0.0000000000000000e+00  0.0000000000000000e+00  0.0000000000000000e+00  0.0000000000000000e+00  0.0000000000000000e+00  0.0000000000000000e+00  0.0000000000000000e+00  0.0000000000000000e+00  0.0000000000000000e+00  0.0000000000000000e+00  0.0000000000000000e+00  0.0000000000000000e+00  0.0000000000000000e+00  0.0000000000000000e+00  0.0000000000000000e+00  0.0000000000000000e+00  0.0000000000000000e+00  0.0000000000000000e+00  0.0000000000000000e+00  0.0000000000000000e+00  0.0000000000000000e+00  0.0000000000000000e+00  0.0000000000000000e+00  0.0000000000000000e+00  0.0000000000000000e+00  0.0000000000000000e+00  0.0000000000000000e+00  0.0000000000000000e+00  0.0000000000000000e+00  0.0000000000000000e+00  0.0000000000000000e+00  0.0000000000000000e+00  0.0000000000000000e+00  0.0000000000000000e+00  0.0000000000000000e+00  0.0000000000000000e+00  0.0000000000000000e+00  0.0000000000000000e+00  0.0000000000000000e+00  9.7573742533483154e-01  9.8024318342704719e-01  9.8370464103692701e-01  9.8485682893416604e-01  9.8280664905166737e-01  9.7410096534249924e-01  9.7871071738533888e-01  9.8205414304321514e-01  9.7783783573926186e-01  9.7843383535189277e-01  9.8082786612204087e-01  9.7526754408927541e-01  9.7107877658721498e-01  9.8378777546572094e-01  9.7644302664199034e-01  9.7391662875643548e-01  9.8444511539136359e-01  9.8504209213518545e-01  9.7319160418501272e-01  9.7917378024240354e-01  9.7854210517564333e-01  9.7733892754165319e-01  9.7903553354380712e-01  9.7967283914623959e-01  9.8127640407154870e-01  9.8041897690374946e-01  9.8057220308584658e-01  9.8139741076984222e-01  9.8038644714814960e-01  9.8072793666844915e-01  9.8218971970327384e-01  9.8107390560396313e-01  9.7786884018216158e-01  9.7554194557393814e-01  9.8020872405551285e-01  9.7686616415952054e-01  9.7861839858695576e-01  9.7921519946015034e-01  9.7939896978504226e-01  9.7721947333713499e-01  9.8172357526579279e-01  9.7691435116511893e-01  9.8166304886046263e-01  9.7056925193369759e-01  9.8168160058754605e-01  9.8156662357035940e-01  9.5516658076606653e-01  9.7755507753985227e-01  9.8233804153873128e-01  9.7422333062755706e-01  9.7655492607608263e-01  9.8370152750657514e-01  9.8009928557243975e-01  9.6967862222212697e-01  9.7777601401083791e-01  9.8191636232319657e-01  9.8142759549246084e-01  9.8075547675749075e-01  9.7210504491420102e-01  9.7617878236155786e-01  9.7945226522986406e-01  9.7687071467211162e-01  -1.5099278152221245e-32  1.7384041443730725e-32  1.8653607049019958e-35  4.4483633542025655e-35  2.4571985796249014e-32  3.7048206645489709e-32  9.4895644744208331e-36  3.6201938259248617e-36  -7.8092439719518978e-32  -4.0454863197180378e-32  3.1176281327252176e-33  8.7170479310781295e-33  6.7496215768040898e-33  7.0952863498476841e-33  4.6035214760480016e-31  2.4416536516136335e-31  -6.4956762539214011e-31  6.3066431391239402e-33  -8.4687673846629752e-31  -1.1080678629016711e-30  -1.9698812923344228e-31  -3.4989104594726275e-31  -3.2349432100523979e-31  -6.4957249168931543e-31  -2.5237077999438353e-31  -3.1309798502556403e-31  -2.3931538228410485e-29  -1.0188380285095672e-29  -1.0978807629122106e-30  -1.7282435359019565e-29  8.1431698174930689e-31  -3.0775685180872455e-31  -3.4205080619751369e-37  3.0680388842969448e-37  2.8072735898530507e-37  -3.7184955483806637e-37  4.1591802605166173e-34  2.3121552236550598e-34  3.0682859472410440e-34  2.9997388414052984e-34  -6.5159351925864921e-29  8.6479048458309461e-31  8.1331264228424480e-32  1.5939044476734509e-28  1.1055177787521920e-36  9.3867560555594946e-37  1.2749980591431088e-36  -3.3737618255775787e-39  -1.3034098056901717e-39  -4.1436729531893109e-39  7.4898481977639847e-42  9.5753837485136827e-38  1.0498586515789797e-40  -1.4795854852225884e-38  -6.5819422628393201e-40  -9.3555474330762396e-41  -1.6169805317458825e-38  1.2270383543439708e-40  -7.1952294323247942e-39  -1.3465952011878248e-40  -4.3160641874442080e-41  -4.6065122746414213e-41  -4.4469583325282030e-41  -2.0144641708903680e-42  -1.2419941612857955e-42  3.7809866161044390e-42  4.5962947340720845e-42  -4.2458948484259825e-41  1.4106269172257861e-28  2.7698155986827666e-31  -3.1324976332354076e-32  1.5046487134821686e-28  4.5392029803058002e-31  1.3101111247962348e-31  2.4259586857447334e-30  2.0328505134094742e-30  1.4370763192355811e-31  2.2650770849384842e-31  -1.1283309386562338e-31  -9.8855311999794841e-31  -2.7131398747584576e-31  -3.4200528801671352e-32  3.4594545362710545e-30  4.5724363701996523e-30  -2.2414287859894273e-32  2.4873665475124068e-31  -1.3879405553577241e-32  9.3838258138682730e-32  -1.8671295497536253e-31  -2.0483656266457732e-31  -1.2930169203915164e-33  -1.2319835337349157e-33  -3.8052360379996527e-32  -3.2578938971400680e-32  6.5250427463454044e-34  7.5173487223363754e-34  3.9327155784572585e-36  -9.2497222062188186e-34  3.9969331496261144e-33  -3.0019082706854960e-36  9.1042557564715989e-34  -2.6081814245370807e-36  3.1922401635084329e-36  3.4162418010481336e-33  1.5451966368880235e-43  7.0192877488508033e-43  -1.5915656271568541e-43  -1.3649153378354278e-43  -1.0174078519218399e-43  -1.9989901107950520e-44  2.4359974852434958e-43  2.0062893411754424e-43  4.9635766409398486e-29  1.5082428957327634e-30  6.3427403791315912e-31  1.7956228734812777e-28  2.5871867639080382e-33  -1.3819815589475524e-34  -2.0224983382627752e-34  -1.0970187771662419e-33  1.4996713056681097e-34  1.8253099651974912e-32  2.4622021102464657e-32  1.4742573301301203e-34  -5.7279428052963671e-38  -7.6613532807222629e-35  -3.1530221763317808e-35  -1.8010200731184097e-38  -4.0469599073913876e-38  5.8238655886718528e-36  -4.5954338609027529e-35  -2.4221307079422381e-39  6.1392101732748964e-41  -1.2730597834800753e-41  -1.2693899879908349e-37  -6.3969571729112812e-40  -1.2720177348431962e-38  -4.1221908035565227e-40  1.0159733587647664e-39  -1.6302114002357552e-41  -5.6766542228612912e-38  -5.6001276692299015e-40  -1.8687999076482350e-40  -1.0506739849927342e-41  9.7260382625098892e-40  -1.1137685372937481e-41  -2.1510958888561850e-38  -3.7567837196127984e-40  -6.5676103281086269e-44  3.9314128433753579e-44  -2.2118620498523063e-44  -8.9281073689395252e-44  -1.0537886839088965e-29  -9.9239301298205393e-29  -2.4196476986589212e-28  7.7246913744648956e-28  8.1826784770471454e-28  -3.4798291174513625e-27  -1.9933513231061681e-27  1.1574764443464822e-26  2.2632919453222988e-27  -2.7681780050685168e-26  9.3208447879359236e-27  2.8757816130551554e-26  -7.8177717467498513e-26  1.4276597218575002e-25  3.4591080792373007e-25  -1.1321927444631421e-24  -1.1353499209873989e-24  4.8984009858955625e-24  2.8723010024498791e-24  -1.5813064308173938e-23  -4.9987397192983571e-24  -1.6354102223841653e-23  3.9227008435095944e-23  1.5463980591997198e-24  -6.5770032460225845e-23  3.0258011937675151e-23  4.8692883630549403e-24  -1.3942809541639402e-22  4.5261827377116941e-22  3.6059758962569424e-22  -1.9467983509128553e-21  -4.5218306439665479e-22  -1.4797063311625210e-22  4.7810675458821481e-21  -8.8305874698097874e-22  -4.7728902146313227e-21  6.6782305049612282e-21  -1.6770127108013440e-20  -1.7904774225070418e-20  9.7648664798759299e-20  1.4117348090084827e-20  -2.2369225465097973e-19  8.0046616814290322e-20  -2.9779496858291760e-19  5.1108092269991030e-20  -3.4393938960757937e-19  1.4139614447056319e-18  4.4123399457330852e-19  3.1409156524516285e-20  -3.7411410514191424e-19  1.0763759693616124e-18  6.3187787186920366e-19  1.4466871999210769e-21  -3.7947660526133176e-19  6.9624673136991684e-20  9.3725762349181806e-21  5.8163499895039380e-19  -3.6663359383984011e-19  6.0766455957014926e-20  4.3596852931741831e-20  -2.4072618745616717e-20  3.8902839791952621e-20  -2.9696475904535003e-19  6.5989409785999357e-20  -2.1450074026756432e-20  1.7361122248856731e-20  -2.1133767346054861e-19  7.7029467313134172e-20  -1.7012050905485179e-20  -2.1036867762355877e-21  -1.2214637749940666e-19  8.0973474978124717e-20  -3.6597775791153079e-19  4.8463125652431811e-21  4.0072144623869010e-20  2.7384051209526554e-19  -2.3211043628780839e-19  1.0175510528113326e-18  -3.8139313372601701e-20  -1.9694839336401246e-18  1.5070757037666370e-18  -9.1658283012073679e-18  -1.6393146221242676e-19  2.9814330942500274e-18  -9.1182222190710859e-18  1.9977903412209803e-19  1.2694631116560915e-17  -8.1207067416058864e-18  4.5936421908772624e-17  -1.4427420646053536e-17  5.0818282987264356e-17  -8.9850585287281875e-18  8.8365016397912299e-18  4.4769949976423130e-18  -3.4209122449201028e-17  3.5305685790446418e-18  -1.1814616327325774e-18  -2.7281378021204838e-01  9.2427933957669758e-18  -2.0183696386940542e-17  -1.7999044395541125e-18  3.5544307977571327e-17  -3.2635893211186834e-01  -1.4937129451812596e-17  6.3918200761519161e-17  -2.6839122575794661e-01  -1.5098142054291511e-17  3.9267187393276785e-17  -2.1265258963346470e-16  -6.6972499850966167e-17  6.3508972001401060e-19  4.1099072221201894e-17  -2.0518282990327433e-16  4.4775714790731226e-18  -1.4831685254714534e-17  5.0327556394221460e-17  -2.0836522263064364e-16  -1.2860138750186219e-16  1.8826354899910742e-17  -2.2068605063335459e-17  2.4606860594572361e-16  -1.6769194466003915e-17  1.3627150960382683e-17  -4.5132886094971364e-17  1.8769871258188599e-16  8.2227182813945424e-17  -3.0694912042566992e-18  -3.2215658263894291e-17  -6.5087327028489498e-19  1.1828611971305841e-16  -1.2386219897581411e-17  -3.1966924557347353e-17  -9.1978289240920571e-17  1.9268457244012462e-16  -2.7279360241118828e-17  -2.6389512000983928e-17  -2.5026076698865933e-16  2.6927701480042599e-16  -9.0816795861333330e-16  -3.5817346949938697e-16  -2.8553504815275407e-17  3.3112834625520606e-16  -1.2280904101351079e-15  -2.6267580737332740e-16  -5.8196100097111934e-17  3.4240734560609447e-16  -1.6763038024727850e-15  9.2241059256303578e-17  2.3443919983878486e-15  -1.6846650993111461e-15  7.3433573300370559e-15  -3.8193022694969067e-16  4.6789011101120074e-16  -8.4927425271614593e-16  6.8661108306713700e-15  -2.3728110911817698e-15  7.4166221021849024e-15  -1.7079153729705449e-16  -7.0163232235672627e-15  3.0728334584953019e-15  -7.3189649479374340e-15  -2.9782574068812965e-15  -3.9989129697677394e-16  2.8768389330688293e-15  -1.9413884585982346e-14  7.2100181770617786e-15  -3.1794743603798713e-14  8.7841934795773589e-15  -3.1630908744789986e-14  8.1305026424461348e-15  -3.0270365401936260e-14  8.9674796831078071e-15  -3.7925883787218300e-14  1.1414591811253067e-14  -4.4912892793051194e-14  1.1505671105863641e-14  -3.6872042962303275e-14  7.3055876010400106e-15  -1.6183581166060896e-14  1.6674402190941020e-15  1.4903086609419721e-15  -1.4689487101128367e-15  6.4208957131477939e-15  -1.3160953073850630e-15  2.3713913497868563e-15  -7.6901472715355375e-17  -1.0327595439622169e-15  1.8521018169403789e-16  -6.3566067207435140e-17  -9.7542337966311090e-18  2.2059777955719846e-17  -3.8065948979001932e-18  -4.2524859089566572e-18  1.5242919873782144e-18  4.4108164794088327e-19  -3.2006427491401167e-19  3.0177665750973545e-20  -4.0701636177543509e-19  3.9183249992010508e-20  -2.2798616282363914e-15  9.1834415072118391e-20  -1.2639966967677358e-19  -9.0174294858958357e-21  1.1827079193580032e-19  -2.5250695960683988e-20  2.8245141462446051e-20  3.2455109136782994e-2