<?xml version="1.0"?>
<VTKFile type="UnstructuredGrid"  version="0.1"  >
<UnstructuredGrid>
<Piece  NumberOfPoints="11902" NumberOfCells="23402">
<Points>
<DataArray  type="Float64"  NumberOfComponents="3"  format="ascii">-5 -5 0  5 -5 0  5 5 0  -5 5 0  1.262611465895939 0.00129484877744381 0  -4.9 -5 0  -4.8 -5 0  -4.7 -5 0  -4.6 -5 0  -4.5 -5 0  -4.4 -5 0  -4.3 -5 0  -4.2 -5 0  -4.1 -5 0  -4 -5 0  -3.9 -5 0  -3.8 -5 0  -3.7 -5 0  -3.6 -5 0  -3.5 -5 0  -3.4 -5 0  -3.3 -5 0  -3.2 -5 0  -3.1 -5 0  -3 -5 0  -2.9 -5 0  -2.8 -5 0  -2.7 -5 0  -2.6 -5 0  -2.5 -5 0  -2.4 -5 0  -2.3 -5 0  -2.2 -5 0  -2.1 -5 0  -2 -5 0  -1.9 -5 0  -1.8 -5 0  -1.7 -5 0  -1.6 -5 0  -1.5 -5 0  -1.4 -5 0  -1.3 -5 0  -1.2 -5 0  -1.1 -5 0  -1 -5 0  -0.9000000000000004 -5 0  -0.7999999999999998 -5 0  -0.7000000000000002 -5 0  -0.5999999999999996 -5 0  -0.5 -5 0  -0.4000000000000004 -5 0  -0.2999999999999998 -5 0  -0.2000000000000002 -5 0  -0.09999999999999964 -5 0  0 -5 0  0.09999999999999964 -5 0  0.2000000000000002 -5 0  0.2999999999999998 -5 0  0.4000000000000004 -5 0  0.5 -5 0  0.5999999999999996 -5 0  0.7000000000000002 -5 0  0.7999999999999998 -5 0  0.9000000000000004 -5 0  1 -5 0  1.1 -5 0  1.2 -5 0  1.3 -5 0  1.4 -5 0  1.5 -5 0  1.6 -5 0  1.7 -5 0  1.8 -5 0  1.9 -5 0  2 -5 0  2.1 -5 0  2.2 -5 0  2.3 -5 0  2.4 -5 0  2.5 -5 0  2.6 -5 0  2.7 -5 0  2.8 -5 0  2.9 -5 0  3 -5 0  3.1 -5 0  3.199999999999999 -5 0  3.300000000000001 -5 0  3.4 -5 0  3.5 -5 0  3.6 -5 0  3.699999999999999 -5 0  3.800000000000001 -5 0  3.9 -5 0  4 -5 0  4.1 -5 0  4.199999999999999 -5 0  4.300000000000001 -5 0  4.4 -5 0  4.5 -5 0  4.6 -5 0  4.699999999999999 -5 0  4.800000000000001 -5 0  4.9 -5 0  5 -4.9 0  5 -4.8 0  5 -4.7 0  5 -4.6 0  5 -4.5 0  5 -4.4 0  5 -4.3 0  5 -4.2 0  5 -4.1 0  5 -4 0  5 -3.9 0  5 -3.8 0  5 -3.7 0  5 -3.6 0  5 -3.5 0  5 -3.4 0  5 -3.3 0  5 -3.2 0  5 -3.1 0  5 -3 0  5 -2.9 0  5 -2.8 0  5 -2.7 0  5 -2.6 0  5 -2.5 0  5 -2.4 0  5 -2.3 0  5 -2.2 0  5 -2.1 0  5 -2 0  5 -1.9 0  5 -1.8 0  5 -1.7 0  5 -1.6 0  5 -1.5 0  5 -1.4 0  5 -1.3 0  5 -1.2 0  5 -1.1 0  5 -1 0  5 -0.9000000000000004 0  5 -0.7999999999999998 0  5 -0.7000000000000002 0  5 -0.5999999999999996 0  5 -0.5 0  5 -0.4000000000000004 0  5 -0.2999999999999998 0  5 -0.2000000000000002 0  5 -0.09999999999999964 0  5 0 0  5 0.09999999999999964 0  5 0.2000000000000002 0  5 0.2999999999999998 0  5 0.4000000000000004 0  5 0.5 0  5 0.5999999999999996 0  5 0.7000000000000002 0  5 0.7999999999999998 0  5 0.9000000000000004 0  5 1 0  5 1.1 0  5 1.2 0  5 1.3 0  5 1.4 0  5 1.5 0  5 1.6 0  5 1.7 0  5 1.8 0  5 1.9 0  5 2 0  5 2.1 0  5 2.2 0  5 2.3 0  5 2.4 0  5 2.5 0  5 2.6 0  5 2.7 0  5 2.8 0  5 2.9 0  5 3 0  5 3.1 0  5 3.199999999999999 0  5 3.300000000000001 0  5 3.4 0  5 3.5 0  5 3.6 0  5 3.699999999999999 0  5 3.800000000000001 0  5 3.9 0  5 4 0  5 4.1 0  5 4.199999999999999 0  5 4.300000000000001 0  5 4.4 0  5 4.5 0  5 4.6 0  5 4.699999999999999 0  5 4.800000000000001 0  5 4.9 0  4.9 5 0  4.8 5 0  4.7 5 0  4.6 5 0  4.5 5 0  4.4 5 0  4.3 5 0  4.2 5 0  4.1 5 0  4 5 0  3.9 5 0  3.8 5 0  3.7 5 0  3.6 5 0  3.5 5 0  3.4 5 0  3.3 5 0  3.2 5 0  3.1 5 0  3 5 0  2.9 5 0  2.8 5 0  2.7 5 0  2.6 5 0  2.5 5 0  2.4 5 0  2.3 5 0  2.2 5 0  2.1 5 0  2 5 0  1.9 5 0  1.8 5 0  1.7 5 0  1.6 5 0  1.5 5 0  1.4 5 0  1.3 5 0  1.2 5 0  1.1 5 0  1 5 0  0.9000000000000004 5 0  0.7999999999999998 5 0  0.7000000000000002 5 0  0.5999999999999996 5 0  0.5 5 0  0.4000000000000004 5 0  0.2999999999999998 5 0  0.2000000000000002 5 0  0.09999999999999964 5 0  0 5 0  -0.09999999999999964 5 0  -0.2000000000000002 5 0  -0.2999999999999998 5 0  -0.4000000000000004 5 0  -0.5 5 0  -0.5999999999999996 5 0  -0.7000000000000002 5 0  -0.7999999999999998 5 0  -0.9000000000000004 5 0  -1 5 0  -1.1 5 0  -1.2 5 0  -1.3 5 0  -1.4 5 0  -1.5 5 0  -1.6 5 0  -1.7 5 0  -1.8 5 0  -1.9 5 0  -2 5 0  -2.1 5 0  -2.2 5 0  -2.3 5 0  -2.4 5 0  -2.5 5 0  -2.6 5 0  -2.7 5 0  -2.8 5 0  -2.9 5 0  -3 5 0  -3.1 5 0  -3.199999999999999 5 0  -3.300000000000001 5 0  -3.4 5 0  -3.5 5 0  -3.6 5 0  -3.699999999999999 5 0  -3.800000000000001 5 0  -3.9 5 0  -4 5 0  -4.1 5 0  -4.199999999999999 5 0  -4.300000000000001 5 0  -4.4 5 0  -4.5 5 0  -4.6 5 0  -4.699999999999999 5 0  -4.800000000000001 5 0  -4.9 5 0  -5 4.9 0  -5 4.8 0  -5 4.7 0  -5 4.6 0  -5 4.5 0  -5 4.4 0  -5 4.3 0  -5 4.2 0  -5 4.1 0  -5 4 0  -5 3.9 0  -5 3.8 0  -5 3.7 0  -5 3.6 0  -5 3.5 0  -5 3.4 0  -5 3.3 0  -5 3.2 0  -5 3.1 0  -5 3 0  -5 2.9 0  -5 2.8 0  -5 2.7 0  -5 2.6 0  -5 2.5 0  -5 2.4 0  -5 2.3 0  -5 2.2 0  -5 2.1 0  -5 2 0  -5 1.9 0  -5 1.8 0  -5 1.7 0  -5 1.6 0  -5 1.5 0  -5 1.4 0  -5 1.3 0  -5 1.2 0  -5 1.1 0  -5 1 0  -5 0.9000000000000004 0  -5 0.7999999999999998 0  -5 0.7000000000000002 0  -5 0.5999999999999996 0  -5 0.5 0  -5 0.4000000000000004 0  -5 0.2999999999999998 0  -5 0.2000000000000002 0  -5 0.09999999999999964 0  -5 0 0  -5 -0.09999999999999964 0  -5 -0.2000000000000002 0  -5 -0.2999999999999998 0  -5 -0.4000000000000004 0  -5 -0.5 0  -5 -0.5999999999999996 0  -5 -0.7000000000000002 0  -5 -0.7999999999999998 0  -5 -0.9000000000000004 0  -5 -1 0  -5 -1.1 0  -5 -1.2 0  -5 -1.3 0  -5 -1.4 0  -5 -1.5 0  -5 -1.6 0  -5 -1.7 0  -5 -1.8 0  -5 -1.9 0  -5 -2 0  -5 -2.1 0  -5 -2.2 0  -5 -2.3 0  -5 -2.4 0  -5 -2.5 0  -5 -2.6 0  -5 -2.7 0  -5 -2.8 0  -5 -2.9 0  -5 -3 0  -5 -3.1 0  -5 -3.199999999999999 0  -5 -3.300000000000001 0  -5 -3.4 0  -5 -3.5 0  -5 -3.6 0  -5 -3.699999999999999 0  -5 -3.800000000000001 0  -5 -3.9 0  -5 -4 0  -5 -4.1 0  -5 -4.199999999999999 0  -5 -4.300000000000001 0  -5 -4.4 0  -5 -4.5 0  -5 -4.6 0  -5 -4.699999999999999 0  -5 -4.800000000000001 0  -5 -4.9 0  1.254406537466559 0.0939911662308946 0  1.232395662044018 0.1917565791690787 0  1.198834895065781 0.2883344251040998 0  1.156033509478575 0.3767421103888071 0  1.097689123054039 0.4677200667981348 0  1.031506393725511 0.5516077622486629 0  0.9529033399590168 0.6318599689098825 0  0.8657423770586077 0.7067390228267025 0  0.7739029760058651 0.7721212880182409 0  0.6716490270023013 0.8295287444280627 0  0.5589480877816868 0.881770665382076 0  0.4459253634148863 0.9265494694621558 0  0.3342396408442824 0.9584433419350601 0  0.2087647958345652 0.9803535219458543 0  0.0883278321404778 0.9992161721403792 0  -0.02670506150235424 1.002625331598344 0  -0.1443684753535248 0.9888251746567446 0  -0.2729691836706982 0.9694271778157391 0  -0.3926596221584164 0.9453059375165357 0  -0.5028144909400502 0.909695201185988 0  -0.6124666708684472 0.8632240076896804 0  -0.7145552156281264 0.8083421755833052 0  -0.8091987123582562 0.7435746706352635 0  -0.9006198902076472 0.6698253082263474 0  -0.9868099829662216 0.5897564685240727 0  -1.061555434035889 0.5084212016643631 0  -1.123519126355432 0.4235544246710282 0  -1.177751274888563 0.3306007489505327 0  -1.215477643163943 0.2426231310433917 0  -1.239917892903956 0.1486332731740442 0  -1.250538288925433 0.05211432863264442 0  -1.250498113970971 -0.04986015936784615 0  -1.239883699744726 -0.145652260827962 0  -1.215088173759938 -0.2372941241993864 0  -1.173215186163748 -0.3322384876919829 0  -1.123845174734418 -0.4243399364636172 0  -1.063439480781241 -0.5083141086064208 0  -0.9893156187201805 -0.5887649056341056 0  -0.9037543622446832 -0.6677700545631958 0  -0.8130216670775682 -0.7393961778214601 0  -0.7173304827355401 -0.8002947718032885 0  -0.6125733549700035 -0.8534911468328744 0  -0.497699982373133 -0.9031327065625001 0  -0.3849932356712186 -0.9430526285981211 0  -0.2696333840802858 -0.9692267163460561 0  -0.1427517994504341 -0.9887843019595335 0  -0.02770992228021729 -1.001858145159756 0  0.08723694794011518 -0.9944761612217589 0  0.2148086958311907 -0.9766170135909591 0  0.3370104860457407 -0.956756373787652 0  0.4501030935592904 -0.9252279857574016 0  0.5615062082258906 -0.8810111371085426 0  0.6727783540508531 -0.829480440344644 0  0.7738054075528689 -0.7732558667432904 0  0.8655037181089258 -0.7080118143868183 0  0.9514391696004381 -0.6322258111592652 0  1.028964024870703 -0.5504246767230855 0  1.098862594444981 -0.4664221394714372 0  1.156832395018887 -0.3771641033318431 0  1.200593842554684 -0.286400247201484 0  1.233109775839657 -0.190981923981374 0  1.25480818678489 -0.09388825354115038 0  -2.448536332292976 4.918069169258754 0  -2.448408118768372 -4.910443297178679 0  4.910366097149415 2.447857593531351 0  4.918497561342885 -2.449322632307985 0  2.446133451296156 -4.895666074652663 0  2.440567919860814 4.899430658764958 0  -4.910393385562628 -2.447884359251206 0  -4.910390657898186 2.447888417006781 0  -1.748489405499322 4.910936929535072 0  -1.744276985556092 -4.914380961028811 0  4.920528309179613 1.744035928555358 0  4.909047152317121 -1.7477922565888 0  -4.909341995761211 -1.747526888646757 0  -4.910165270839654 1.747272324553093 0  1.74576033120013 4.904787460312054 0  1.747170103877719 -4.892921640779567 0  -1.148805636881244 4.90870357456647 0  -1.129665451361249 -4.916628789789498 0  -4.909032353684407 -1.147862279278367 0  -4.908850347267186 1.147662902642412 0  1.143802440995426 -4.912808090138467 0  1.148815458642581 4.908689892203483 0  4.909171536737428 1.146137226060375 0  4.920022490288597 -1.151927049868157 0  -0.5466500095525461 -4.909883404086379 0  -0.5464347501275291 4.918581648785068 0  -4.907742977699659 -0.5486720298339158 0  -4.907766940921984 0.5472301760931747 0  4.907059719411032 -0.5489900488182798 0  4.918741105725291 0.5457519549102395 0  0.5424306487067517 -4.896739518277243 0  0.5511626151378793 4.915399063127011 0  -4.911840005342498 -3.04824901829264 0  4.918414670958567 3.046268078678599 0  4.911347353458746 -3.048224160415238 0  -4.912688182979413 3.045341063351443 0  3.055265350779406 -4.917336509301611 0  -3.048593447485407 -4.911268739092297 0  3.052161560429474 4.913347547792057 0  -3.048039434584227 4.912159085412328 0  -4.906842880118755 -0.04990404989579519 0  0.0451186797460565 -4.91183235453749 0  0.04956589634423903 4.91887137021225 0  4.913912338654328 -0.05128660620228021 0  3.545591352386029 -4.918994571398534 0  -3.54886940934398 4
[...]
<PointData  Scalars="f_27"> 
<DataArray  type="Float64"  Name="f_27"  format="ascii">0.0000000000000000e+00  0.0000000000000000e+00  0.0000000000000000e+00  0.0000000000000000e+00  9.7937259631084184e-01  0.0000000000000000e+00  0.0000000000000000e+00  0.0000000000000000e+00  0.0000000000000000e+00  0.0000000000000000e+00  0.0000000000000000e+00  0.0000000000000000e+00  0.0000000000000000e+00  0.0000000000000000e+00  0.0000000000000000e+00  0.0000000000000000e+00  0.0000000000000000e+00  0.0000000000000000e+00  0.0000000000000000e+00  0.0000000000000000e+00  0.0000000000000000e+00  0.0000000000000000e+00  0.0000000000000000e+00  0.0000000000000000e+00  0.0000000000000000e+00  0.0000000000000000e+00  0.0000000000000000e+00  0.0000000000000000e+00  0.0000000000000000e+00  0.0000000000000000e+00  0.0000000000000000e+00  0.0000000000000000e+00  0.0000000000000000e+00  0.0000000000000000e+00  0.0000000000000000e+00  0.0000000000000000e+00  0.0000000000000000e+00  0.0000000000000000e+00  0.0000000000000000e+00  0.0000000000000000e+00  0.0000000000000000e+00  0.0000000000000000e+00  0.0000000000000000e+00  0.0000000000000000e+00  0.0000000000000000e+00  0.0000000000000000e+00  0.0000000000000000e+00  0.0000000000000000e+00  0.0000000000000000e+00  0.0000000000000000e+00  0.0000000000000000e+00  0.0000000000000000e+00  0.0000000000000000e+00  0.0000000000000000e+00  0.0000000000000000e+00  0.0000000000000000e+00  0.0000000000000000e+00  0.0000000000000000e+00  0.0000000000000000e+00  0.0000000000000000e+00  0.0000000000000000e+00  0.0000000000000000e+00  0.0000000000000000e+00  0.0000000000000000e+00  0.0000000000000000e+00  0.0000000000000000e+00  0.0000000000000000e+00  0.0000000000000000e+00  0.0000000000000000e+00  0.0000000000000000e+00  0.0000000000000000e+00  0.0000000000000000e+00  0.0000000000000000e+00  0.0000000000000000e+00  0.0000000000000000e+00  0.0000000000000000e+00  0.0000000000000000e+00  0.0000000000000000e+00  0.0000000000000000e+00  0.0000000000000000e+00  0.0000000000000000e+00  0.0000000000000000e+00  0.0000000000000000e+00  0.0000000000000000e+00  0.0000000000000000e+00  0.0000000000000000e+00  0.0000000000000000e+00  0.0000000000000000e+00  0.0000000000000000e+00  0.0000000000000000e+00  0.0000000000000000e+00  0.0000000000000000e+00  0.0000000000000000e+00  0.0000000000000000e+00  0.0000000000000000e+00  0.0000000000000000e+00  0.0000000000000000e+00  0.0000000000000000e+00  0.0000000000000000e+00  0.0000000000000000e+00  0.0000000000000000e+00  0.0000000000000000e+00  0.0000000000000000e+00  0.0000000000000000e+00  0.0000000000000000e+00  0.0000000000000000e+00  0.0000000000000000e+00  0.0000000000000000e+00  0.0000000000000000e+00  0.0000000000000000e+00  0.0000000000000000e+00  0.0000000000000000e+00  0.0000000000000000e+00  0.0000000000000000e+00  0.0000000000000000e+00  0.0000000000000000e+00  0.0000000000000000e+00  0.0000000000000000e+00  0.0000000000000000e+00  0.0000000000000000e+00  0.0000000000000000e+00  0.0000000000000000e+00  0.0000000000000000e+00  0.0000000000000000e+00  0.0000000000000000e+00  0.0000000000000000e+00  0.0000000000000000e+00  0.0000000000000000e+00  0.0000000000000000e+00  0.0000000000000000e+00  0.0000000000000000e+00  0.0000000000000000e+00  0.0000000000000000e+00  0.0000000000000000e+00  0.0000000000000000e+00  0.0000000000000000e+00  0.0000000000000000e+00  0.0000000000000000e+00  0.0000000000000000e+00  0.0000000000000000e+00  0.0000000000000000e+00  0.0000000000000000e+00  0.0000000000000000e+00  0.0000000000000000e+00  0.0000000000000000e+00  0.0000000000000000e+00  0.0000000000000000e+00  0.0000000000000000e+00  0.0000000000000000e+00  0.0000000000000000e+00  0.0000000000000000e+00  0.0000000000000000e+00  0.0000000000000000e+00  0.0000000000000000e+00  0.0000000000000000e+00  0.0000000000000000e+00  0.0000000000000000e+00  0.0000000000000000e+00  0.0000000000000000e+00  0.0000000000000000e+00  0.0000000000000000e+00  0.0000000000000000e+00  0.0000000000000000e+00  0.0000000000000000e+00  0.0000000000000000e+00  0.0000000000000000e+00  0.0000000000000000e+00  0.0000000000000000e+00  0.0000000000000000e+00  0.0000000000000000e+00  0.0000000000000000e+00  0.0000000000000000e+00  0.0000000000000000e+00  0.0000000000000000e+00  0.0000000000000000e+00  0.0000000000000000e+00  0.0000000000000000e+00  0.0000000000000000e+00  0.0000000000000000e+00  0.0000000000000000e+00  0.0000000000000000e+00  0.0000000000000000e+00  0.0000000000000000e+00  0.0000000000000000e+00  0.0000000000000000e+00  0.0000000000000000e+00  0.0000000000000000e+00  0.0000000000000000e+00  0.0000000000000000e+00  0.0000000000000000e+00  0.0000000000000000e+00  0.0000000000000000e+00  0.0000000000000000e+00  0.0000000000000000e+00  0.0000000000000000e+00  0.0000000000000000e+00  0.0000000000000000e+00  0.0000000000000000e+00  0.0000000000000000e+00  0.0000000000000000e+00  0.0000000000000000e+00  0.0000000000000000e+00  0.0000000000000000e+00  0.0000000000000000e+00  0.0000000000000000e+00  0.0000000000000000e+00  0.0000000000000000e+00  0.0000000000000000e+00  0.0000000000000000e+00  0.0000000000000000e+00  0.0000000000000000e+00  0.0000000000000000e+00  0.0000000000000000e+00  0.0000000000000000e+00  0.0000000000000000e+00  0.0000000000000000e+00  0.0000000000000000e+00  0.0000000000000000e+00  0.0000000000000000e+00  0.0000000000000000e+00  0.0000000000000000e+00  0.0000000000000000e+00  0.0000000000000000e+00  0.0000000000000000e+00  0.0000000000000000e+00  0.0000000000000000e+00  0.0000000000000000e+00  0.0000000000000000e+00  0.0000000000000000e+00  0.0000000000000000e+00  0.0000000000000000e+00  0.0000000000000000e+00  0.0000000000000000e+00  0.0000000000000000e+00  0.0000000000000000e+00  0.0000000000000000e+00  0.0000000000000000e+00  0.0000000000000000e+00  0.0000000000000000e+00  0.0000000000000000e+00  0.0000000000000000e+00  0.0000000000000000e+00  0.0000000000000000e+00  0.0000000000000000e+00  0.0000000000000000e+00  0.0000000000000000e+00  0.0000000000000000e+00  0.0000000000000000e+00  0.0000000000000000e+00  0.0000000000000000e+00  0.0000000000000000e+00  0.0000000000000000e+00  0.0000000000000000e+00  0.0000000000000000e+00  0.0000000000000000e+00  0.0000000000000000e+00  0.0000000000000000e+00  0.0000000000000000e+00  0.0000000000000000e+00  0.0000000000000000e+00  0.0000000000000000e+00  0.0000000000000000e+00  0.0000000000000000e+00  0.0000000000000000e+00  0.0000000000000000e+00  0.0000000000000000e+00  0.0000000000000000e+00  0.0000000000000000e+00  0.0000000000000000e+00  0.0000000000000000e+00  0.0000000000000000e+00  0.0000000000000000e+00  0.0000000000000000e+00  0.0000000000000000e+00  0.0000000000000000e+00  0.0000000000000000e+00  0.0000000000000000e+00  0.0000000000000000e+00  0.0000000000000000e+00  0.0000000000000000e+00  0.0000000000000000e+00  0.0000000000000000e+00  0.0000000000000000e+00  0.0000000000000000e+00  0.0000000000000000e+00  0.0000000000000000e+00  0.0000000000000000e+00  0.0000000000000000e+00  0.0000000000000000e+00  0.0000000000000000e+00  0.0000000000000000e+00  0.0000000000000000e+00  0.0000000000000000e+00  0.0000000000000000e+00  0.0000000000000000e+00  0.0000000000000000e+00  0.0000000000000000e+00  0.0000000000000000e+00  0.0000000000000000e+00  0.0000000000000000e+00  0.0000000000000000e+00  0.0000000000000000e+00  0.0000000000000000e+00  0.0000000000000000e+00  0.0000000000000000e+00  0.0000000000000000e+00  0.0000000000000000e+00  0.0000000000000000e+00  0.0000000000000000e+00  0.0000000000000000e+00  0.0000000000000000e+00  0.0000000000000000e+00  0.0000000000000000e+00  0.0000000000000000e+00  0.0000000000000000e+00  0.0000000000000000e+00  0.0000000000000000e+00  0.0000000000000000e+00  0.0000000000000000e+00  0.0000000000000000e+00  0.0000000000000000e+00  0.0000000000000000e+00  0.0000000000000000e+00  0.0000000000000000e+00  0.0000000000000000e+00  0.0000000000000000e+00  0.0000000000000000e+00  0.0000000000000000e+00  0.0000000000000000e+00  0.0000000000000000e+00  0.0000000000000000e+00  0.0000000000000000e+00  0.0000000000000000e+00  0.0000000000000000e+00  0.0000000000000000e+00  0.0000000000000000e+00  0.0000000000000000e+00  0.0000000000000000e+00  0.0000000000000000e+00  0.0000000000000000e+00  0.0000000000000000e+00  0.0000000000000000e+00  0.0000000000000000e+00  0.0000000000000000e+00  0.0000000000000000e+00  0.0000000000000000e+00  0.0000000000000000e+00  0.0000000000000000e+00  0.0000000000000000e+00  0.0000000000000000e+00  0.0000000000000000e+00  0.0000000000000000e+00  0.0000000000000000e+00  0.0000000000000000e+00  0.0000000000000000e+00  0.0000000000000000e+00  0.0000000000000000e+00  0.0000000000000000e+00  0.0000000000000000e+00  0.0000000000000000e+00  0.0000000000000000e+00  0.0000000000000000e+00  0.0000000000000000e+00  0.0000000000000000e+00  0.0000000000000000e+00  0.0000000000000000e+00  0.0000000000000000e+00  0.0000000000000000e+00  0.0000000000000000e+00  0.0000000000000000e+00  0.0000000000000000e+00  0.0000000000000000e+00  0.0000000000000000e+00  0.0000000000000000e+00  0.0000000000000000e+00  0.0000000000000000e+00  0.0000000000000000e+00  0.0000000000000000e+00  0.0000000000000000e+00  0.0000000000000000e+00  0.0000000000000000e+00  0.0000000000000000e+00  0.0000000000000000e+00  0.0000000000000000e+00  0.0000000000000000e+00  0.0000000000000000e+00  0.0000000000000000e+00  0.0000000000000000e+00  0.0000000000000000e+00  0.0000000000000000e+00  0.0000000000000000e+00  0.0000000000000000e+00  0.0000000000000000e+00  0.0000000000000000e+00  0.0000000000000000e+00  0.0000000000000000e+00  0.0000000000000000e+00  0.0000000000000000e+00  0.0000000000000000e+00  0.0000000000000000e+00  0.0000000000000000e+00  9.8020501623446243e-01  9.8444439823425678e-01  9.8746719068498301e-01  9.8804831141952076e-01  9.8623937732695466e-01  9.7997396595611308e-01  9.8295771705344803e-01  9.8631300414181611e-01  9.8217298151470211e-01  9.8277458914158355e-01  9.8745218658633049e-01  9.7936006090231731e-01  9.7548220358181870e-01  9.9220548663828323e-01  9.8021055684112168e-01  9.7760525481576188e-01  9.9159551460868389e-01  9.8935094472111573e-01  9.7835146234091241e-01  9.8304877662389634e-01  9.8196464403644601e-01  9.8173652610776896e-01  9.8382352459368028e-01  9.8459104078865745e-01  9.8711702903616183e-01  9.8472298766642397e-01  9.8514284741396896e-01  9.8564470318572694e-01  9.8372391091816058e-01  9.8447230494253501e-01  9.8647578039536932e-01  9.8578120267266700e-01  9.8475705774961364e-01  9.8215487860668660e-01  9.8786050579832418e-01  9.8104045250576055e-01  9.8291395249285074e-01  9.8537686806196301e-01  9.8350425683128573e-01  9.8140786059369023e-01  9.8696674056778277e-01  9.8550090134154689e-01  9.8730623249102978e-01  9.7467619854137977e-01  9.8530019692189519e-01  9.9008984685557733e-01  9.6147569684032463e-01  9.8181179528802043e-01  9.9119929180473088e-01  9.7829010306205011e-01  9.8035757435236304e-01  9.8859880853249815e-01  9.8326553165240627e-01  9.7535125414214741e-01  9.8163205657162866e-01  9.8598851524828557e-01  9.8849797332031608e-01  9.8380518223972657e-01  9.7786126775688020e-01  9.8077115317347541e-01  9.8418169663626298e-01  9.8147349693896702e-01  -1.2322872492358628e-32  1.1407140346735305e-32  9.0714696361397017e-36  2.2494889485396499e-35  1.6128111107724887e-32  2.4195537468023832e-32  1.4726864318901133e-35  5.7030741664773896e-36  -5.5545092464212124e-32  -2.5344311970427625e-32  7.4463373003214606e-34  3.9122427085288810e-33  5.6288738034832069e-33  4.2863465061173527e-33  3.0714280934885473e-31  1.4282710833736297e-31  -4.3726500323556966e-31  2.6084846595975873e-32  -5.2651589923586807e-31  -5.9990658359643884e-31  -1.1503488949873564e-31  -2.6523516646555816e-31  -1.3217700713613432e-31  -3.4281268876256685e-31  -1.5476527395614092e-31  -1.8003844817671455e-31  -1.6713627983680193e-29  -1.0609424352964371e-29  -1.1904448491181835e-30  -8.2786435140576649e-30  4.4703743962317833e-31  -1.8460601236239436e-31  -1.2048908555089843e-37  2.0248389056551587e-37  1.8206288955485630e-37  -1.8656352636083781e-37  3.3114090858476264e-34  3.2268677472710308e-34  2.6468231679772327e-34  2.8166540743866173e-34  -1.4583430355383059e-29  4.7855378033315054e-31  1.1594526570852631e-31  9.9089146303740505e-29  7.4439015942709273e-37  6.8437110983166773e-37  9.1758805581176773e-37  -2.3701833079799150e-39  -1.8077994733970567e-39  -2.5736366577408693e-39  -7.5984918783210997e-40  1.9948812935413996e-38  7.5980936404392744e-41  -1.0504526174217715e-38  -7.9994754439717804e-40  -3.1879696350891801e-41  -1.1752264060271583e-38  8.7987719709090949e-41  -5.5129926953259590e-39  -6.4671542132572327e-41  -2.9211213842957002e-41  -3.1413667139551546e-41  -2.9724866788949171e-41  -1.4444974212123673e-42  -1.0626341179312525e-42  2.0731989898086394e-42  2.6781050914981292e-42  -3.0889878260411203e-41  1.0399048207955316e-28  7.7628779383518631e-32  4.7005341421925052e-32  9.8332693277881754e-29  3.0971390763748676e-31  5.3441493581557504e-32  2.0444764534996184e-30  1.4503843875474250e-30  5.7065835731643090e-32  1.3811309751165285e-31  2.1475909570762041e-32  -6.1871130223787464e-31  -1.9394859965770140e-31  -1.0728454443926409e-32  1.8249923862727386e-30  2.4821816604883456e-30  1.0909207866744445e-33  1.7536383988391955e-31  -8.8179037443988436e-32  6.2976888324008015e-32  -1.3116946888284576e-31  -1.3116092902557597e-31  -4.3552512049416394e-34  -4.8460440916432342e-34  -2.0578261406858010e-32  -1.0562596160961663e-32  2.4584225605656054e-34  2.7177213165978932e-34  2.2399003494100747e-36  2.1675802104896638e-34  2.5286591814450522e-33  -1.2808559458849259e-36  8.4147446649166284e-34  -4.5357700274284934e-37  1.9125817070668830e-36  2.2288678942638759e-33  7.1293907775882528e-44  4.3531197143848557e-43  -1.0997280257354510e-43  3.5130768520737911e-44  -6.6551227536256485e-44  4.7613607447878220e-44  1.2232393015992966e-43  1.4188370600063929e-43  4.5026417606725930e-29  8.4568429389141732e-31  4.4354994683691904e-31  1.0587670538135548e-28  3.5293883860374746e-33  -5.9103415411805600e-35  -9.0272785602637927e-35  -4.6778812910828005e-33  2.4209893265701525e-35  1.2054181489577553e-32  9.0847062424280447e-33  5.1807154800316028e-35  -3.4858774437485342e-38  -6.2333073625873811e-35  -2.5542909376431237e-35  -2.4083669163106254e-38  -2.7786836607485842e-38  2.2298809514428620e-36  -3.8440106113184147e-35  -9.7508980787839174e-39  -4.5322780565517896e-41  -6.5634012188158392e-42  -8.4821537272951547e-38  -4.7831716950088897e-40  -1.4796851213052378e-38  -2.8221863794091023e-40  6.3579797281961665e-40  -1.3434218381338081e-41  -3.4705581894610162e-38  -4.6278150905402645e-40  -1.4311156340321234e-40  -7.1601890349472484e-42  6.5295064918379277e-40  -1.0809568036993874e-41  -1.5734525637538298e-38  -2.7345427791261650e-40  -3.7207115044525019e-44  2.5972927518759035e-44  -1.4701155315367765e-44  -4.8178251002569335e-44  1.1732207034856113e-29  -1.2536507968111402e-28  -1.9989621951879424e-28  6.9401303734311025e-28  6.5807644742462294e-28  -2.8681291065403695e-27  -1.6151253707637868e-27  9.3238864792896258e-27  2.0373621350817714e-27  -2.2509703001536245e-26  6.0083845817993571e-27  2.6379508033982097e-26  -5.5441320050608223e-26  9.3883570112713385e-26  2.4660932910652056e-25  -8.0780350792909299e-25  -7.9473714083968356e-25  3.4995488707463072e-24  1.9288588028642145e-24  -1.1033704209636038e-23  -3.0745914635575994e-24  -1.1746054300467378e-23  2.6050599093689840e-23  1.0048903154180502e-25  -3.9251327220578315e-23  2.0108641831671837e-23  -1.0747075680984217e-23  -7.8100795181076629e-23  2.9345533774318806e-22  1.6353388935431316e-22  -1.0484914691242133e-21  -9.0615023014515562e-23  -3.0107055204428596e-22  2.0209712653337102e-21  -7.9291865332681175e-22  -3.4092815421616897e-22  3.4899708523346926e-21  -1.2660060499234118e-20  -6.7736795555788421e-21  4.7692737457270744e-20  -1.3749228744301593e-21  -7.6533284219706530e-20  5.3020550822463158e-20  -1.9629618748121888e-19  -8.2015600792961269e-20  -1.6241348724342480e-19  8.2806344443344678e-19  1.2498086437259276e-19  3.4100542551391978e-20  -1.9881001475673832e-19  7.4780360488065703e-19  2.3733131832860844e-19  2.1579917450795941e-20  -2.1513536121080816e-19  3.2139342852710597e-20  3.0369397344408644e-20  1.9815248492623649e-19  -2.0887853578614582e-19  2.6477078676744355e-20  5.0635307922095907e-20  -1.5704714366138023e-20  1.2345198874510298e-20  -1.5154729308281533e-19  5.3036359167629532e-20  -1.2451363117662635e-20  2.5612592814371777e-21  -1.0404276234792620e-19  5.4651797638605450e-20  -9.5007840067011843e-21  -7.7962447079924056e-21  -4.5696479340674828e-20  4.8614975438230410e-20  -2.5775813340921884e-19  3.7872249228731479e-21  4.2677049394953577e-20  1.0931148474283078e-19  -1.5223624804534960e-19  7.6906257616552248e-19  -7.7008862099571288e-20  -1.0954623969416842e-18  9.8261944843860369e-19  -6.2106961840639205e-18  -9.6069509685369969e-20  2.0496343066909390e-18  -6.1870351880904200e-18  6.4525569102279671e-21  1.0042016442027076e-17  -6.2957533610983375e-18  3.6217645324446829e-17  -1.1900561277412911e-17  4.5576106204320921e-17  -9.9800219396137771e-18  2.3097393413852067e-17  -1.8135585587290519e-18  -6.0977890097920310e-18  3.2026224989377765e-18  -1.5471769259460338e-18  -2.6941847284953579e-01  2.5682362189721923e-18  -4.4009346930409761e-18  -2.4760510205811090e-18  2.5075392422235121e-17  -3.1161045127405823e-01  -9.9277448935456424e-18  4.2344053902429243e-17  -2.5009910830842880e-01  -1.0185660067582312e-17  2.7493388617616371e-17  -1.4390866751315812e-16  -5.0983890748293580e-17  1.8333058418289021e-18  2.4237529482589634e-17  -1.6814920810063078e-16  2.9679772528937350e-18  -9.4822416350543375e-18  3.3046465261529439e-17  -1.3453382770633442e-16  -8.3730793751561513e-17  1.1833069346102068e-17  -1.1827704104103498e-17  1.5127119651603148e-16  -1.6175083784635887e-17  8.6581476591360485e-18  -2.4018929462086875e-17  1.1316397105776934e-16  3.5351827435325419e-17  -1.9759277891457165e-19  -1.5789344461972507e-17  1.3416754330138617e-17  4.5387001765693153e-17  -2.9152465093868895e-18  -2.0924472919934762e-17  -5.0527442564418001e-18  9.2818735428426824e-17  -1.0970532813121751e-17  -2.1088098459953701e-17  -9.0666179171912419e-17  1.4700885852971156e-16  -5.5799801758171510e-16  -1.6741964796184503e-16  -2.2973118565488682e-17  1.9338180054999436e-16  -7.7833714707477228e-16  -1.2282632547808850e-16  -4.0980813910812473e-17  2.0711564221486428e-16  -1.0782878617280272e-15  9.4660520226959411e-17  1.3071919493311395e-15  -1.0665951330852613e-15  4.9359934801874138e-15  -4.0287235625055008e-16  3.2070716504646830e-16  -5.0159986234668915e-16  4.3343157579822821e-15  -1.5588600767131316e-15  5.2139525836360695e-15  -3.4338671920447070e-16  -2.8319451671647308e-15  1.1303273083788045e-15  4.3933141817468189e-16  -3.9542432978164294e-15  1.2837619001377206e-16  2.5135831398317051e-15  -1.4975755249909406e-14  5.1296764788090543e-15  -2.1248460625920212e-14  5.5529634687845550e-15  -1.9211472939577459e-14  4.9646115641661872e-15  -1.9435522321516912e-14  6.2148832998814570e-15  -2.7960825187720731e-14  8.7249007031291518e-15  -3.5064165724085453e-14  9.1145684710562528e-15  -2.9624145875806184e-14  6.0021579817855867e-15  -1.3886945306946046e-14  1.6265517082171815e-15  1.3550085917862225e-16  -9.4272053242170887e-16  4.5334540996752729e-15  -9.5659672145164330e-16  1.7430823775088201e-15  -5.7808860040330469e-17  -7.6134763366336036e-16  1.3689100104083339e-16  -4.6306890714582083e-17  -7.5202630466011009e-18  1.6089036290700722e-17  -2.7274179106531677e-18  -3.1096111788891139e-18  1.1100347560540085e-18  3.3132697964997693e-19  -2.3510710221146879e-19  1.6905958651450185e-20  -2.7052173348216900e-19  2.9574066130592489e-20  -1.3926781642640686e-15  6.0534666858557907e-20  -7.7690558432010556e-20  -6.3833049670536081e-21  7.2767361519214189e-20  -1.4305161093409652e-20  1.0016319652188281e-20  3.1808328548081349e-21  -