<?xml version="1.0"?>
<VTKFile type="UnstructuredGrid"  version="0.1"  >
<UnstructuredGrid>
<Piece  NumberOfPoints="11902" NumberOfCells="23402">
<Points>
<DataArray  type="Float64"  NumberOfComponents="3"  format="ascii">-5 -5 0  5 -5 0  5 5 0  -5 5 0  1.26466159434596 0.001264291635559718 0  -4.9 -5 0  -4.8 -5 0  -4.7 -5 0  -4.6 -5 0  -4.5 -5 0  -4.4 -5 0  -4.3 -5 0  -4.2 -5 0  -4.1 -5 0  -4 -5 0  -3.9 -5 0  -3.8 -5 0  -3.7 -5 0  -3.6 -5 0  -3.5 -5 0  -3.4 -5 0  -3.3 -5 0  -3.2 -5 0  -3.1 -5 0  -3 -5 0  -2.9 -5 0  -2.8 -5 0  -2.7 -5 0  -2.6 -5 0  -2.5 -5 0  -2.4 -5 0  -2.3 -5 0  -2.2 -5 0  -2.1 -5 0  -2 -5 0  -1.9 -5 0  -1.8 -5 0  -1.7 -5 0  -1.6 -5 0  -1.5 -5 0  -1.4 -5 0  -1.3 -5 0  -1.2 -5 0  -1.1 -5 0  -1 -5 0  -0.9000000000000004 -5 0  -0.7999999999999998 -5 0  -0.7000000000000002 -5 0  -0.5999999999999996 -5 0  -0.5 -5 0  -0.4000000000000004 -5 0  -0.2999999999999998 -5 0  -0.2000000000000002 -5 0  -0.09999999999999964 -5 0  0 -5 0  0.09999999999999964 -5 0  0.2000000000000002 -5 0  0.2999999999999998 -5 0  0.4000000000000004 -5 0  0.5 -5 0  0.5999999999999996 -5 0  0.7000000000000002 -5 0  0.7999999999999998 -5 0  0.9000000000000004 -5 0  1 -5 0  1.1 -5 0  1.2 -5 0  1.3 -5 0  1.4 -5 0  1.5 -5 0  1.6 -5 0  1.7 -5 0  1.8 -5 0  1.9 -5 0  2 -5 0  2.1 -5 0  2.2 -5 0  2.3 -5 0  2.4 -5 0  2.5 -5 0  2.6 -5 0  2.7 -5 0  2.8 -5 0  2.9 -5 0  3 -5 0  3.1 -5 0  3.199999999999999 -5 0  3.300000000000001 -5 0  3.4 -5 0  3.5 -5 0  3.6 -5 0  3.699999999999999 -5 0  3.800000000000001 -5 0  3.9 -5 0  4 -5 0  4.1 -5 0  4.199999999999999 -5 0  4.300000000000001 -5 0  4.4 -5 0  4.5 -5 0  4.6 -5 0  4.699999999999999 -5 0  4.800000000000001 -5 0  4.9 -5 0  5 -4.9 0  5 -4.8 0  5 -4.7 0  5 -4.6 0  5 -4.5 0  5 -4.4 0  5 -4.3 0  5 -4.2 0  5 -4.1 0  5 -4 0  5 -3.9 0  5 -3.8 0  5 -3.7 0  5 -3.6 0  5 -3.5 0  5 -3.4 0  5 -3.3 0  5 -3.2 0  5 -3.1 0  5 -3 0  5 -2.9 0  5 -2.8 0  5 -2.7 0  5 -2.6 0  5 -2.5 0  5 -2.4 0  5 -2.3 0  5 -2.2 0  5 -2.1 0  5 -2 0  5 -1.9 0  5 -1.8 0  5 -1.7 0  5 -1.6 0  5 -1.5 0  5 -1.4 0  5 -1.3 0  5 -1.2 0  5 -1.1 0  5 -1 0  5 -0.9000000000000004 0  5 -0.7999999999999998 0  5 -0.7000000000000002 0  5 -0.5999999999999996 0  5 -0.5 0  5 -0.4000000000000004 0  5 -0.2999999999999998 0  5 -0.2000000000000002 0  5 -0.09999999999999964 0  5 0 0  5 0.09999999999999964 0  5 0.2000000000000002 0  5 0.2999999999999998 0  5 0.4000000000000004 0  5 0.5 0  5 0.5999999999999996 0  5 0.7000000000000002 0  5 0.7999999999999998 0  5 0.9000000000000004 0  5 1 0  5 1.1 0  5 1.2 0  5 1.3 0  5 1.4 0  5 1.5 0  5 1.6 0  5 1.7 0  5 1.8 0  5 1.9 0  5 2 0  5 2.1 0  5 2.2 0  5 2.3 0  5 2.4 0  5 2.5 0  5 2.6 0  5 2.7 0  5 2.8 0  5 2.9 0  5 3 0  5 3.1 0  5 3.199999999999999 0  5 3.300000000000001 0  5 3.4 0  5 3.5 0  5 3.6 0  5 3.699999999999999 0  5 3.800000000000001 0  5 3.9 0  5 4 0  5 4.1 0  5 4.199999999999999 0  5 4.300000000000001 0  5 4.4 0  5 4.5 0  5 4.6 0  5 4.699999999999999 0  5 4.800000000000001 0  5 4.9 0  4.9 5 0  4.8 5 0  4.7 5 0  4.6 5 0  4.5 5 0  4.4 5 0  4.3 5 0  4.2 5 0  4.1 5 0  4 5 0  3.9 5 0  3.8 5 0  3.7 5 0  3.6 5 0  3.5 5 0  3.4 5 0  3.3 5 0  3.2 5 0  3.1 5 0  3 5 0  2.9 5 0  2.8 5 0  2.7 5 0  2.6 5 0  2.5 5 0  2.4 5 0  2.3 5 0  2.2 5 0  2.1 5 0  2 5 0  1.9 5 0  1.8 5 0  1.7 5 0  1.6 5 0  1.5 5 0  1.4 5 0  1.3 5 0  1.2 5 0  1.1 5 0  1 5 0  0.9000000000000004 5 0  0.7999999999999998 5 0  0.7000000000000002 5 0  0.5999999999999996 5 0  0.5 5 0  0.4000000000000004 5 0  0.2999999999999998 5 0  0.2000000000000002 5 0  0.09999999999999964 5 0  0 5 0  -0.09999999999999964 5 0  -0.2000000000000002 5 0  -0.2999999999999998 5 0  -0.4000000000000004 5 0  -0.5 5 0  -0.5999999999999996 5 0  -0.7000000000000002 5 0  -0.7999999999999998 5 0  -0.9000000000000004 5 0  -1 5 0  -1.1 5 0  -1.2 5 0  -1.3 5 0  -1.4 5 0  -1.5 5 0  -1.6 5 0  -1.7 5 0  -1.8 5 0  -1.9 5 0  -2 5 0  -2.1 5 0  -2.2 5 0  -2.3 5 0  -2.4 5 0  -2.5 5 0  -2.6 5 0  -2.7 5 0  -2.8 5 0  -2.9 5 0  -3 5 0  -3.1 5 0  -3.199999999999999 5 0  -3.300000000000001 5 0  -3.4 5 0  -3.5 5 0  -3.6 5 0  -3.699999999999999 5 0  -3.800000000000001 5 0  -3.9 5 0  -4 5 0  -4.1 5 0  -4.199999999999999 5 0  -4.300000000000001 5 0  -4.4 5 0  -4.5 5 0  -4.6 5 0  -4.699999999999999 5 0  -4.800000000000001 5 0  -4.9 5 0  -5 4.9 0  -5 4.8 0  -5 4.7 0  -5 4.6 0  -5 4.5 0  -5 4.4 0  -5 4.3 0  -5 4.2 0  -5 4.1 0  -5 4 0  -5 3.9 0  -5 3.8 0  -5 3.7 0  -5 3.6 0  -5 3.5 0  -5 3.4 0  -5 3.3 0  -5 3.2 0  -5 3.1 0  -5 3 0  -5 2.9 0  -5 2.8 0  -5 2.7 0  -5 2.6 0  -5 2.5 0  -5 2.4 0  -5 2.3 0  -5 2.2 0  -5 2.1 0  -5 2 0  -5 1.9 0  -5 1.8 0  -5 1.7 0  -5 1.6 0  -5 1.5 0  -5 1.4 0  -5 1.3 0  -5 1.2 0  -5 1.1 0  -5 1 0  -5 0.9000000000000004 0  -5 0.7999999999999998 0  -5 0.7000000000000002 0  -5 0.5999999999999996 0  -5 0.5 0  -5 0.4000000000000004 0  -5 0.2999999999999998 0  -5 0.2000000000000002 0  -5 0.09999999999999964 0  -5 0 0  -5 -0.09999999999999964 0  -5 -0.2000000000000002 0  -5 -0.2999999999999998 0  -5 -0.4000000000000004 0  -5 -0.5 0  -5 -0.5999999999999996 0  -5 -0.7000000000000002 0  -5 -0.7999999999999998 0  -5 -0.9000000000000004 0  -5 -1 0  -5 -1.1 0  -5 -1.2 0  -5 -1.3 0  -5 -1.4 0  -5 -1.5 0  -5 -1.6 0  -5 -1.7 0  -5 -1.8 0  -5 -1.9 0  -5 -2 0  -5 -2.1 0  -5 -2.2 0  -5 -2.3 0  -5 -2.4 0  -5 -2.5 0  -5 -2.6 0  -5 -2.7 0  -5 -2.8 0  -5 -2.9 0  -5 -3 0  -5 -3.1 0  -5 -3.199999999999999 0  -5 -3.300000000000001 0  -5 -3.4 0  -5 -3.5 0  -5 -3.6 0  -5 -3.699999999999999 0  -5 -3.800000000000001 0  -5 -3.9 0  -5 -4 0  -5 -4.1 0  -5 -4.199999999999999 0  -5 -4.300000000000001 0  -5 -4.4 0  -5 -4.5 0  -5 -4.6 0  -5 -4.699999999999999 0  -5 -4.800000000000001 0  -5 -4.9 0  1.256581647614195 0.09309690256439758 0  1.234411917432636 0.190920507027266 0  1.200624261723077 0.2876827695664835 0  1.15791684313436 0.3760676369480321 0  1.099250079859176 0.4672085363769158 0  1.032646390052494 0.5506688817197412 0  0.9540282470391318 0.6311646169532381 0  0.8667229761722225 0.706099219264986 0  0.7748890444534452 0.7713239394987709 0  0.6729837928112952 0.8287769589641444 0  0.5595784370867493 0.8810110188281052 0  0.4460354476423373 0.9260085398430462 0  0.3352978045816223 0.9576033066814543 0  0.2088046589179799 0.9800626596084934 0  0.08760513955121298 0.9985726085997489 0  -0.0263090184171958 1.002113808554545 0  -0.1439864622555069 0.9884440401873142 0  -0.2739406356023828 0.9685742609377991 0  -0.3940922772599765 0.9443983956216314 0  -0.5035925003344563 0.9092512505140926 0  -0.6131704412704573 0.8628319458486494 0  -0.7151263658649269 0.8077144076729306 0  -0.8095855675158097 0.7432473582770687 0  -0.9012381488913239 0.6694397388663391 0  -0.9878847611014793 0.5890858611236015 0  -1.062885311762856 0.5073971316085003 0  -1.12507063018272 0.4230455189204161 0  -1.180277805477481 0.3291984170921761 0  -1.217662268300426 0.2423587898506179 0  -1.242005393614443 0.1486445790413897 0  -1.252272079974234 0.05262338909491499 0  -1.252220190271459 -0.05031154401372115 0  -1.241893198800659 -0.145604209239827 0  -1.217291543812272 -0.2363682638521734 0  -1.175030415461049 -0.3316599019881509 0  -1.125368728452848 -0.4240981581694228 0  -1.065011595776024 -0.5072440014234986 0  -0.9904478450102566 -0.588107502782268 0  -0.9044074130317391 -0.6674181968250653 0  -0.8136562681173599 -0.7387812601506867 0  -0.7183666839676417 -0.7994100401243345 0  -0.6137326843595945 -0.8527793405490278 0  -0.4978217592274017 -0.9025277614951751 0  -0.385415558197997 -0.9424459982548103 0  -0.2706109025549573 -0.968432874560618 0  -0.1422525181004005 -0.9884982063678309 0  -0.02750903189876864 -1.001354018066383 0  0.08603293656597105 -0.9939422657970227 0  0.2153800817329792 -0.9759271066135586 0  0.338250165680964 -0.9557680660173092 0  0.450255509371933 -0.9246806293247093 0  0.5623331256210864 -0.8802343927254991 0  0.6742718446942628 -0.8286117565438341 0  0.774669076971593 -0.7725314751936403 0  0.8659408066074236 -0.7077356806020539 0  0.9517598723546637 -0.6318953038612101 0  1.030239348944218 -0.5492717256473512 0  1.100918172575138 -0.4655028872546401 0  1.158779644312086 -0.3763780732526709 0  1.202445381865541 -0.2857639158402726 0  1.235146215975047 -0.1902849163024966 0  1.256998917717365 -0.09320390755487309 0  -2.448521013143226 4.918042337459123 0  -2.448391275218789 -4.910413936181672 0  4.910335353271032 2.447836961325458 0  4.918469658563357 -2.449303987450159 0  2.446113954154283 -4.895631652629328 0  2.440548991137629 4.899397262574444 0  -4.910362691822689 -2.447864020517205 0  -4.910359998852265 2.44786818183256 0  -1.748473473256193 4.910897881463155 0  -1.74426153450258 -4.914343368957328 0  4.920489612830046 1.744017284859634 0  4.909002957155983 -1.747771054655763 0  -4.909298006536035 -1.747505926381673 0  -4.91012171141232 1.747251698124436 0  1.745743137221732 4.904745366131801 0  1.747150970961843 -4.892874481053492 0  -1.148792946975449 4.908655895978682 0  -1.129653804781768 -4.916585098065264 0  -4.908977430169611 -1.147845052761187 0  -4.908795339827104 1.147645817864996 0  1.143790370295099 -4.912762420989687 0  1.148802529131552 4.908641972812473 0  4.90911651769295 1.146119764559534 0  4.91997414543573 -1.151911778100475 0  -0.5466432285772028 -4.909831238781678 0  -0.5464288765255662 4.918534446860809 0  -4.907679285532518 -0.5486624395530088 0  -4.90770326849787 0.5472208045626246 0  4.906995350878117 -0.5489804089772568 0  4.918684803472787 0.5457434121211591 0  0.5424232364349337 -4.896679628955837 0  0.5511561801579409 4.915349925445572 0  -4.911819239709013 -3.048232170540603 0  4.918395411835361 3.046252270637316 0  4.911326486776841 -3.048207084580293 0  -4.912667607429919 3.045324427730194 0  3.055251742318762 -4.917316980862455 0  -3.04857873524841 -4.911247814458623 0  3.052147212106666 4.913326952325099 0  -3.048024925610406 4.912138399441099 0  -4.906775921861062 -0.04990304231073405 0  0.04511826272312374 -4.911779718151381 0  0.04956519226454469 4.9188228350606 0  4.91385024877805 -0.05128581783329139 0  3.545580631881897 -4.918980975732926 0  -3.548857763120602 4.9
[...]
<PointData  Scalars="f_27"> 
<DataArray  type="Float64"  Name="f_27"  format="ascii">0.0000000000000000e+00  0.0000000000000000e+00  0.0000000000000000e+00  0.0000000000000000e+00  9.8224142328124997e-01  0.0000000000000000e+00  0.0000000000000000e+00  0.0000000000000000e+00  0.0000000000000000e+00  0.0000000000000000e+00  0.0000000000000000e+00  0.0000000000000000e+00  0.0000000000000000e+00  0.0000000000000000e+00  0.0000000000000000e+00  0.0000000000000000e+00  0.0000000000000000e+00  0.0000000000000000e+00  0.0000000000000000e+00  0.0000000000000000e+00  0.0000000000000000e+00  0.0000000000000000e+00  0.0000000000000000e+00  0.0000000000000000e+00  0.0000000000000000e+00  0.0000000000000000e+00  0.0000000000000000e+00  0.0000000000000000e+00  0.0000000000000000e+00  0.0000000000000000e+00  0.0000000000000000e+00  0.0000000000000000e+00  0.0000000000000000e+00  0.0000000000000000e+00  0.0000000000000000e+00  0.0000000000000000e+00  0.0000000000000000e+00  0.0000000000000000e+00  0.0000000000000000e+00  0.0000000000000000e+00  0.0000000000000000e+00  0.0000000000000000e+00  0.0000000000000000e+00  0.0000000000000000e+00  0.0000000000000000e+00  0.0000000000000000e+00  0.0000000000000000e+00  0.0000000000000000e+00  0.0000000000000000e+00  0.0000000000000000e+00  0.0000000000000000e+00  0.0000000000000000e+00  0.0000000000000000e+00  0.0000000000000000e+00  0.0000000000000000e+00  0.0000000000000000e+00  0.0000000000000000e+00  0.0000000000000000e+00  0.0000000000000000e+00  0.0000000000000000e+00  0.0000000000000000e+00  0.0000000000000000e+00  0.0000000000000000e+00  0.0000000000000000e+00  0.0000000000000000e+00  0.0000000000000000e+00  0.0000000000000000e+00  0.0000000000000000e+00  0.0000000000000000e+00  0.0000000000000000e+00  0.0000000000000000e+00  0.0000000000000000e+00  0.0000000000000000e+00  0.0000000000000000e+00  0.0000000000000000e+00  0.0000000000000000e+00  0.0000000000000000e+00  0.0000000000000000e+00  0.0000000000000000e+00  0.0000000000000000e+00  0.0000000000000000e+00  0.0000000000000000e+00  0.0000000000000000e+00  0.0000000000000000e+00  0.0000000000000000e+00  0.0000000000000000e+00  0.0000000000000000e+00  0.0000000000000000e+00  0.0000000000000000e+00  0.0000000000000000e+00  0.0000000000000000e+00  0.0000000000000000e+00  0.0000000000000000e+00  0.0000000000000000e+00  0.0000000000000000e+00  0.0000000000000000e+00  0.0000000000000000e+00  0.0000000000000000e+00  0.0000000000000000e+00  0.0000000000000000e+00  0.0000000000000000e+00  0.0000000000000000e+00  0.0000000000000000e+00  0.0000000000000000e+00  0.0000000000000000e+00  0.0000000000000000e+00  0.0000000000000000e+00  0.0000000000000000e+00  0.0000000000000000e+00  0.0000000000000000e+00  0.0000000000000000e+00  0.0000000000000000e+00  0.0000000000000000e+00  0.0000000000000000e+00  0.0000000000000000e+00  0.0000000000000000e+00  0.0000000000000000e+00  0.0000000000000000e+00  0.0000000000000000e+00  0.0000000000000000e+00  0.0000000000000000e+00  0.0000000000000000e+00  0.0000000000000000e+00  0.0000000000000000e+00  0.0000000000000000e+00  0.0000000000000000e+00  0.0000000000000000e+00  0.0000000000000000e+00  0.0000000000000000e+00  0.0000000000000000e+00  0.0000000000000000e+00  0.0000000000000000e+00  0.0000000000000000e+00  0.0000000000000000e+00  0.0000000000000000e+00  0.0000000000000000e+00  0.0000000000000000e+00  0.0000000000000000e+00  0.0000000000000000e+00  0.0000000000000000e+00  0.0000000000000000e+00  0.0000000000000000e+00  0.0000000000000000e+00  0.0000000000000000e+00  0.0000000000000000e+00  0.0000000000000000e+00  0.0000000000000000e+00  0.0000000000000000e+00  0.0000000000000000e+00  0.0000000000000000e+00  0.0000000000000000e+00  0.0000000000000000e+00  0.0000000000000000e+00  0.0000000000000000e+00  0.0000000000000000e+00  0.0000000000000000e+00  0.0000000000000000e+00  0.0000000000000000e+00  0.0000000000000000e+00  0.0000000000000000e+00  0.0000000000000000e+00  0.0000000000000000e+00  0.0000000000000000e+00  0.0000000000000000e+00  0.0000000000000000e+00  0.0000000000000000e+00  0.0000000000000000e+00  0.0000000000000000e+00  0.0000000000000000e+00  0.0000000000000000e+00  0.0000000000000000e+00  0.0000000000000000e+00  0.0000000000000000e+00  0.0000000000000000e+00  0.0000000000000000e+00  0.0000000000000000e+00  0.0000000000000000e+00  0.0000000000000000e+00  0.0000000000000000e+00  0.0000000000000000e+00  0.0000000000000000e+00  0.0000000000000000e+00  0.0000000000000000e+00  0.0000000000000000e+00  0.0000000000000000e+00  0.0000000000000000e+00  0.0000000000000000e+00  0.0000000000000000e+00  0.0000000000000000e+00  0.0000000000000000e+00  0.0000000000000000e+00  0.0000000000000000e+00  0.0000000000000000e+00  0.0000000000000000e+00  0.0000000000000000e+00  0.0000000000000000e+00  0.0000000000000000e+00  0.0000000000000000e+00  0.0000000000000000e+00  0.0000000000000000e+00  0.0000000000000000e+00  0.0000000000000000e+00  0.0000000000000000e+00  0.0000000000000000e+00  0.0000000000000000e+00  0.0000000000000000e+00  0.0000000000000000e+00  0.0000000000000000e+00  0.0000000000000000e+00  0.0000000000000000e+00  0.0000000000000000e+00  0.0000000000000000e+00  0.0000000000000000e+00  0.0000000000000000e+00  0.0000000000000000e+00  0.0000000000000000e+00  0.0000000000000000e+00  0.0000000000000000e+00  0.0000000000000000e+00  0.0000000000000000e+00  0.0000000000000000e+00  0.0000000000000000e+00  0.0000000000000000e+00  0.0000000000000000e+00  0.0000000000000000e+00  0.0000000000000000e+00  0.0000000000000000e+00  0.0000000000000000e+00  0.0000000000000000e+00  0.0000000000000000e+00  0.0000000000000000e+00  0.0000000000000000e+00  0.0000000000000000e+00  0.0000000000000000e+00  0.0000000000000000e+00  0.0000000000000000e+00  0.0000000000000000e+00  0.0000000000000000e+00  0.0000000000000000e+00  0.0000000000000000e+00  0.0000000000000000e+00  0.0000000000000000e+00  0.0000000000000000e+00  0.0000000000000000e+00  0.0000000000000000e+00  0.0000000000000000e+00  0.0000000000000000e+00  0.0000000000000000e+00  0.0000000000000000e+00  0.0000000000000000e+00  0.0000000000000000e+00  0.0000000000000000e+00  0.0000000000000000e+00  0.0000000000000000e+00  0.0000000000000000e+00  0.0000000000000000e+00  0.0000000000000000e+00  0.0000000000000000e+00  0.0000000000000000e+00  0.0000000000000000e+00  0.0000000000000000e+00  0.0000000000000000e+00  0.0000000000000000e+00  0.0000000000000000e+00  0.0000000000000000e+00  0.0000000000000000e+00  0.0000000000000000e+00  0.0000000000000000e+00  0.0000000000000000e+00  0.0000000000000000e+00  0.0000000000000000e+00  0.0000000000000000e+00  0.0000000000000000e+00  0.0000000000000000e+00  0.0000000000000000e+00  0.0000000000000000e+00  0.0000000000000000e+00  0.0000000000000000e+00  0.0000000000000000e+00  0.0000000000000000e+00  0.0000000000000000e+00  0.0000000000000000e+00  0.0000000000000000e+00  0.0000000000000000e+00  0.0000000000000000e+00  0.0000000000000000e+00  0.0000000000000000e+00  0.0000000000000000e+00  0.0000000000000000e+00  0.0000000000000000e+00  0.0000000000000000e+00  0.0000000000000000e+00  0.0000000000000000e+00  0.0000000000000000e+00  0.0000000000000000e+00  0.0000000000000000e+00  0.0000000000000000e+00  0.0000000000000000e+00  0.0000000000000000e+00  0.0000000000000000e+00  0.0000000000000000e+00  0.0000000000000000e+00  0.0000000000000000e+00  0.0000000000000000e+00  0.0000000000000000e+00  0.0000000000000000e+00  0.0000000000000000e+00  0.0000000000000000e+00  0.0000000000000000e+00  0.0000000000000000e+00  0.0000000000000000e+00  0.0000000000000000e+00  0.0000000000000000e+00  0.0000000000000000e+00  0.0000000000000000e+00  0.0000000000000000e+00  0.0000000000000000e+00  0.0000000000000000e+00  0.0000000000000000e+00  0.0000000000000000e+00  0.0000000000000000e+00  0.0000000000000000e+00  0.0000000000000000e+00  0.0000000000000000e+00  0.0000000000000000e+00  0.0000000000000000e+00  0.0000000000000000e+00  0.0000000000000000e+00  0.0000000000000000e+00  0.0000000000000000e+00  0.0000000000000000e+00  0.0000000000000000e+00  0.0000000000000000e+00  0.0000000000000000e+00  0.0000000000000000e+00  0.0000000000000000e+00  0.0000000000000000e+00  0.0000000000000000e+00  0.0000000000000000e+00  0.0000000000000000e+00  0.0000000000000000e+00  0.0000000000000000e+00  0.0000000000000000e+00  0.0000000000000000e+00  0.0000000000000000e+00  0.0000000000000000e+00  0.0000000000000000e+00  0.0000000000000000e+00  0.0000000000000000e+00  0.0000000000000000e+00  0.0000000000000000e+00  0.0000000000000000e+00  0.0000000000000000e+00  0.0000000000000000e+00  0.0000000000000000e+00  0.0000000000000000e+00  0.0000000000000000e+00  0.0000000000000000e+00  0.0000000000000000e+00  0.0000000000000000e+00  0.0000000000000000e+00  0.0000000000000000e+00  0.0000000000000000e+00  0.0000000000000000e+00  0.0000000000000000e+00  0.0000000000000000e+00  0.0000000000000000e+00  0.0000000000000000e+00  0.0000000000000000e+00  0.0000000000000000e+00  0.0000000000000000e+00  0.0000000000000000e+00  0.0000000000000000e+00  0.0000000000000000e+00  0.0000000000000000e+00  0.0000000000000000e+00  0.0000000000000000e+00  0.0000000000000000e+00  0.0000000000000000e+00  0.0000000000000000e+00  0.0000000000000000e+00  0.0000000000000000e+00  0.0000000000000000e+00  0.0000000000000000e+00  0.0000000000000000e+00  0.0000000000000000e+00  0.0000000000000000e+00  0.0000000000000000e+00  0.0000000000000000e+00  0.0000000000000000e+00  0.0000000000000000e+00  0.0000000000000000e+00  0.0000000000000000e+00  0.0000000000000000e+00  0.0000000000000000e+00  0.0000000000000000e+00  0.0000000000000000e+00  0.0000000000000000e+00  0.0000000000000000e+00  0.0000000000000000e+00  0.0000000000000000e+00  9.8265374842532693e-01  9.8642071132300324e-01  9.8917291696013376e-01  9.8919467400803696e-01  9.8773924623911469e-01  9.8369348201326423e-01  9.8498376599656112e-01  9.8837914849451558e-01  9.8506208027720776e-01  9.8485389768003606e-01  9.9009990467525621e-01  9.8217908188181480e-01  9.7796090631479204e-01  9.9643460731740952e-01  9.8251474596194188e-01  9.7999851593111453e-01  9.9450030516206600e-01  9.9105173400954938e-01  9.8168829638296562e-01  9.8514158207188873e-01  9.8366285430881817e-01  9.8448828413692624e-01  9.8627331198105606e-01  9.8697597592669539e-01  9.8925070785815006e-01  9.8740841616940800e-01  9.8745659102065175e-01  9.8758278009835698e-01  9.8542066232202818e-01  9.8650465548215061e-01  9.8863944805411585e-01  9.8791535290792698e-01  9.8794178015013767e-01  9.8462514886638652e-01  9.9032809385299581e-01  9.8354965682906348e-01  9.8570384262145916e-01  9.8791929476541507e-01  9.8556798521476285e-01  9.8418101742720288e-01  9.8948569083235316e-01  9.8770564076220058e-01  9.8995224267444093e-01  9.7764012198229522e-01  9.8729885719928800e-01  9.9306609762625753e-01  9.6613163427623661e-01  9.8411679451605261e-01  9.9559581912153272e-01  9.8076727531021435e-01  9.8257776800032737e-01  9.9070818624966406e-01  9.8498722739995170e-01  9.7913395258486968e-01  9.8355957425726026e-01  9.8827025149521719e-01  9.9135809734097058e-01  9.8524063720431920e-01  9.8054736935386388e-01  9.8369507470452344e-01  9.8669977475228476e-01  9.8391286618420293e-01  -8.5037807291691115e-33  9.9268592917225294e-33  5.0135408470576358e-36  9.9601358971788944e-36  1.2404740474278461e-32  1.4243760277653660e-32  1.1189889212839639e-35  3.9149986353183744e-36  -4.6672837054211232e-32  -3.5204163516742105e-32  -4.1946181921617197e-35  1.0257605135501462e-33  3.9622851645816345e-33  2.7565771980391248e-33  2.0130957086238930e-31  7.7137198630434610e-32  -3.2292354908121673e-31  6.7701846014685662e-32  -2.9426706129956603e-31  -3.3248131051102343e-31  -3.0009608286333280e-32  -1.9249422378309565e-31  -5.7975003090752965e-32  -1.2433278597631151e-31  -1.4832623531516974e-31  -1.4072140843482812e-31  -8.2423291831166235e-30  -5.6248526147967242e-30  -1.3873616582250086e-30  -3.3979632507007987e-30  1.6960006530354401e-31  -1.3911673725647725e-31  -7.7397674651453532e-38  1.2399875500045517e-37  1.1283174989705404e-37  -1.2001899444537848e-37  2.8866700454497387e-34  2.5313593992191476e-34  1.4320755677698814e-34  2.5598047193080526e-34  2.2712024403160248e-29  3.0854100813274773e-31  7.3294872238600585e-32  5.9600216670406968e-29  7.1065690700726202e-37  6.2070834147200102e-37  7.2819635326835188e-37  -1.7351224757047292e-39  -1.1590724555653970e-39  -1.7191482689911983e-39  -2.1434248965760239e-40  1.1976848597879507e-37  4.9717074002221062e-41  -1.0056340853445514e-38  -1.6198265546100234e-39  -3.2502470115724155e-41  -1.0572786919620935e-38  6.0542791388189374e-41  -4.1463092260959128e-39  -5.3589819248374147e-41  -2.1662120743742741e-41  -2.5441412009566009e-41  -2.7904800273606881e-41  -9.2048822444180936e-43  -5.6466169858671196e-43  1.8351902061683210e-42  2.0245334375814159e-42  -2.8172045243317070e-41  7.1926724265037877e-29  -6.6785083770250439e-32  9.8810546850741599e-33  6.9612040723408587e-29  1.8193012912538080e-31  2.2748283096565771e-32  1.4106751118209617e-30  7.4517275853587248e-31  1.6610551071613373e-32  6.8286575125245880e-32  3.0890692595874682e-32  -3.8152186830887453e-31  -1.3478438039585008e-31  3.2808130062546926e-33  6.3731485511564671e-31  1.1516642021852580e-30  8.8274721664743108e-33  1.3585764881072070e-31  -2.0668078970790370e-31  8.2423236252469614e-32  -1.0018469122210378e-31  -1.1645618373863509e-31  -1.7021966279962541e-34  -1.1514615145580223e-34  -1.1295012661257825e-32  -7.4319438361782349e-33  1.4412473796556924e-35  3.3102911150344672e-35  1.2263943063817288e-36  -1.2147714262636991e-34  1.3042232482050413e-33  -7.2357177441284249e-37  8.6196647852239886e-34  -1.4714627349133992e-37  1.0983142598538874e-36  1.8929480383015599e-33  7.9984013796433719e-44  3.0767365828065435e-43  -7.2452638155077117e-44  -1.2450325518442730e-43  -3.4506222801404378e-44  -3.4725075402086513e-44  1.1271025678017404e-43  9.9754366582628305e-44  3.4560988653489172e-29  4.3528148900633069e-31  3.4080698186706282e-31  6.0133923213485211e-29  1.1888783014181175e-33  -1.6666908456164681e-35  -2.9420070731575993e-35  1.6581731901441816e-33  -1.7364651895688575e-36  9.0813274234866165e-33  7.8969357846961077e-33  9.8890452604443323e-36  -2.2396599146744021e-38  -5.6443160317393642e-35  -2.2550442362907419e-35  -1.6194748673642440e-38  -2.0400462924472202e-38  1.7288601432824562e-36  -2.2229442312294148e-35  -3.3103324469715879e-39  -2.4115522918661192e-41  -4.7024286458745989e-42  -6.9578479691545131e-38  -3.9735190938425017e-40  -2.3634334883868228e-38  -2.0122296453146812e-40  4.6921236868425510e-40  -9.2298091698747454e-42  -3.9874270272099523e-38  -2.9615543623086478e-40  -7.6377911910388444e-41  -5.4010263345022728e-42  4.2565841740057478e-40  -5.7155080944193419e-42  1.9671301483447126e-39  -2.6831924868092335e-40  -3.9103847289493297e-44  1.5259450477341101e-44  -2.2773348832706372e-44  -4.6799285462055143e-44  2.7221996089109564e-29  -1.2830229814923781e-28  -1.3388439673285631e-28  5.2600351343417400e-28  4.1694293970422290e-28  -1.9063344019134616e-27  -1.0273641023605178e-27  5.8938437237734957e-27  1.5136464665543902e-27  -1.4361228935789889e-26  2.1733232097770752e-27  2.0224032449575241e-26  -2.7599911464406756e-26  3.5204219324192081e-26  1.2988946954417343e-25  -4.0411110471285111e-25  -4.2933532929289181e-25  1.8510229315037527e-24  1.0530534330086795e-24  -5.9777834478249184e-24  -1.6644563937882883e-24  -5.9124178172753867e-24  1.4221544139144851e-23  -7.8457641498137038e-26  -2.0971368894203815e-23  1.1165915549557647e-23  -8.6324406274886366e-24  -4.0374170089250954e-23  1.6339061278019527e-22  7.1831162497315419e-23  -5.3232029428648401e-22  1.5056260611825632e-23  -2.1637483644392902e-22  8.2246500080301398e-22  -5.5410139284599528e-22  7.4597454180922466e-22  1.8423121727629720e-21  -8.3114030491561712e-21  -2.5211491154847266e-21  2.3892297277388682e-20  -4.4077669989908102e-21  -2.4224708565504070e-20  3.3760860953032766e-20  -1.2092165226150098e-19  -8.8449490330471710e-20  -8.5582107653916679e-20  4.9442539768453973e-19  4.2810116303388446e-20  2.4175840554947177e-20  -1.1662319978506782e-19  4.7283406930959672e-19  1.2919150357902901e-19  1.6025408131228279e-20  -1.3530950123962637e-19  1.9488695140299261e-20  2.1212281293360427e-20  1.2136815725712323e-19  -1.4058568262178504e-19  1.7622397721881059e-20  3.4504801990013478e-20  -1.0851973232683031e-20  9.7537552399779006e-21  -1.1080949304649179e-19  3.6645786583822611e-20  -9.2273351962889122e-21  4.3906153999531286e-21  -9.0483950817497562e-20  4.2988253041019484e-20  -8.1368572864182172e-21  -4.2260872225316298e-21  -4.8759025278959457e-20  4.1472659193433292e-20  -1.9246763083511369e-19  2.8972734344560168e-21  1.4805100931151659e-20  2.3554471931131242e-19  -1.8288620785933897e-19  8.7864473530571170e-19  -1.1692163044748600e-19  -7.8779876030364498e-19  8.0377899153346276e-19  -5.0845679807252455e-18  -7.1994441190540207e-20  1.6190497341410687e-18  -4.3923737616937712e-18  -3.6605201384311683e-19  1.0368150176930021e-17  -5.8967641795549417e-18  3.2640938820010767e-17  -1.0427703332891639e-17  3.8768818472582243e-17  -8.0831630854796640e-18  1.6556196826851898e-17  -3.5517159624299604e-19  -1.0376588317697739e-17  2.7214888584924176e-18  -2.0895081702592108e-18  -2.6082211923156323e-01  3.5354222570357495e-18  -7.8502542509316572e-18  -1.4317994496263550e-18  2.0490327043824188e-17  -2.9649707500488887e-01  -8.5347362171324487e-18  3.6831802685844260e-17  -2.4113801505843924e-01  -8.7579366515136268e-18  2.2809359070228232e-17  -1.2396599927321126e-16  -3.7370090734901007e-17  -5.4931052767148807e-19  2.8273451592040618e-17  -1.4739116442453038e-16  2.5744402598108924e-18  -9.4430616516532995e-18  2.9888231184233247e-17  -1.3362663889711877e-16  -6.6635136861221863e-17  7.4911558854989294e-18  -2.3168211029031668e-19  8.9907431968554032e-17  -3.6108553993954567e-17  9.2813023604565652e-18  -1.5971496493076218e-17  1.1456749181045189e-16  2.4392328397858463e-18  4.7569281599005438e-18  -1.6170592331814199e-17  6.9338428517842225e-17  1.4777972233866232e-17  3.7308563083403062e-18  -2.5647915786349435e-17  7.5881288974300694e-17  5.6833477616857164e-17  -2.0992071046818830e-18  -2.9025173296132102e-17  2.2056690516309462e-17  9.9006885256645800e-17  -5.1945869204189319e-16  -2.6386277045011966e-17  -3.1277972760427478e-17  1.2684565454637443e-16  -6.5907680333336907e-16  1.0979304140848056e-17  -4.2021888090112345e-17  1.2254149957100587e-16  -7.8752536171746295e-16  1.4867558401694278e-16  4.0407521476613644e-16  -6.3157128003222851e-16  3.5056821055783832e-15  -5.7046471925294521e-16  2.3761689563699130e-16  -2.0435896406702433e-16  2.3494750458185684e-15  -9.4257052738940185e-16  3.3797486259381883e-15  -2.5875464823568070e-16  -1.6641069707440196e-15  7.0566110867697594e-16  6.2921295586354413e-16  -2.9187073528596623e-15  1.1419188789602370e-16  1.8503991306115135e-15  -1.1108215207505353e-14  3.8564173718967357e-15  -1.6258765660589257e-14  4.3593755887259189e-15  -1.5629417162264182e-14  4.2039424587922380e-15  -1.6953408555387639e-14  5.4499292347032565e-15  -2.4362272445643632e-14  7.5312707520338164e-15  -3.0078546136906065e-14  7.8265262826321564e-15  -2.5611157223863819e-14  5.2737368301510015e-15  -1.2570427950462202e-14  1.5585995298609858e-15  -2.5217908013124718e-16  -8.1363195673429691e-16  4.2760444587422472e-15  -9.7295496631131821e-16  2.0717542047478467e-15  -1.6136484874254668e-16  -4.5671719461157738e-16  1.5778044905326181e-16  -2.4321801860048909e-17  -1.4560575812019939e-17  1.2988026993150576e-17  -1.1558065507298134e-18  -2.9885656711799987e-18  8.7153875987148557e-19  4.1834231734551347e-19  -2.2077915981166392e-19  -1.6054166769479216e-20  -1.7599518897974832e-19  3.4662750534958284e-20  -1.1328384665572427e-15  5.0072242693480874e-20  -9.2609523935659874e-20  3.1714204362302708e-21  3.8827588275828610e-20  -9.2011684135936295e-21  8.1644288600996356e-21  1.6379152073194530e-21  -1