<?xml version="1.0"?>
<VTKFile type="UnstructuredGrid"  version="0.1"  >
<UnstructuredGrid>
<Piece  NumberOfPoints="2549" NumberOfCells="4928">
<Points>
<DataArray  type="Float64"  NumberOfComponents="3"  format="ascii">1.641287276127883 -0.03796496512400975 0  1.638200679567517 0.00967738036414385 0  1.631429479372065 0.05681315257158899 0  1.623056949883108 0.1040682921068371 0  1.611664219378097 0.1509838010750857 0  1.597992352133399 0.1977498779125562 0  1.580955027513308 0.2438199193345153 0  1.562383755443377 0.2897140418039771 0  1.538154814808353 0.3329850886562961 0  1.512674236570172 0.3746592894115209 0  1.489137819827125 0.4209023782087808 0  1.460310656074919 0.4628144843754554 0  1.430945111372765 0.5051185302117829 0  1.399569922683555 0.5460871626814676 0  1.366623460215651 0.5863079015294563 0  1.332177789995065 0.6255071514009219 0  1.295857520843655 0.6629966465200089 0  1.259428407333173 0.6991228458405251 0  1.222965298922132 0.7398701483190272 0  1.184363820845659 0.7772165570956342 0  1.145187099539427 0.8153874157133695 0  1.104711772748088 0.8525437515681624 0  1.063406721219375 0.8897072665126405 0  1.020582334559099 0.9258534707577926 0  0.9762526605639946 0.9606506515028804 0  0.9313189580993453 0.9939414472882979 0  0.8850994640065737 1.026789284991826 0  0.8378424686535642 1.058754669951416 0  0.789602640440123 1.089954300822495 0  0.740230664118098 1.119904997773312 0  0.6898132041673791 1.148625699921477 0  0.6383601119445897 1.175926259599499 0  0.5856883866811079 1.201182331787365 0  0.5321778476204875 1.224567673882751 0  0.4777547381770983 1.246470946080933 0  0.4223770297269344 1.266045208153632 0  0.3662244127150163 1.283531898194567 0  0.309322239933095 1.298623891320344 0  0.2517814917557056 1.311295214816611 0  0.1937224757871897 1.321470630894167 0  0.1351711862183085 1.328760254084362 0  0.07642115759597062 1.333392055233127 0  0.01747806785811548 1.335575278442409 0  -0.04149845687623772 1.334922322718533 0  -0.1003956917123374 1.331538592606144 0  -0.1590613663846682 1.325333173545701 0  -0.2173730624860473 1.316422949772893 0  -0.2751744300246023 1.304632218228134 0  -0.3323581436937633 1.29048968903193 0  -0.3889286215873952 1.273692420725639 0  -0.4445056929106285 1.254038975503675 0  -0.4991498496326169 1.232036277754875 0  -0.5528103342697485 1.207979557649031 0  -0.6052784736156316 1.181704767690882 0  -0.6568339045719065 1.15410460228601 0  -0.7069556836735176 1.124170455858472 0  -0.7559686765624086 1.09395462260313 0  -0.8041942616024701 1.062138715018006 0  -0.8506846053516287 1.028248238570433 0  -0.8959023281902289 0.9933627029973684 0  -0.9400722442683894 0.9580278353221693 0  -0.982766500582567 0.9214971186743169 0  -1.024922507546752 0.8856606559780538 0  -1.064380077098431 0.8460239552002039 0  -1.103764003327546 0.810567216153801 0  -1.142686867125293 0.7750071707002554 0  -1.180297583621356 0.7382701404902218 0  -1.217229070521256 0.7020427356653227 0  -1.252916429738362 0.6649762907154404 0  -1.288235514134077 0.6296136964414342 0  -1.32332801111304 0.5931162019569622 0  -1.35833044048043 0.5599762421966316 0  -1.393282501859487 0.522869342825079 0  -1.417768445679015 0.4763962792942775 0  -1.451015823180972 0.4350800787287318 0  -1.476572025168318 0.3900593255924475 0  -1.499965965360149 0.3437552339158991 0  -1.516723355021238 0.29455980575422 0  -1.535204857007491 0.247357184754246 0  -1.536100795321672 0.192903246964542 0  -1.550777861961503 0.1485524541101226 0  -1.56249235010818 0.1017805816610467 0  -1.555435475169554 0.05375225968834323 0  -1.559928375264117 0.00746209719521162 0  -1.559033099201608 -0.03855157745660259 0  -1.561101154744823 -0.08455372336867155 0  -1.558411242094219 -0.1310718062837576 0  -1.56353972379742 -0.1795596884001962 0  -1.553956787858525 -0.2267591393308669 0  -1.541079725597902 -0.2718188355887894 0  -1.54030523070981 -0.327175926989849 0  -1.522912684117206 -0.3750817593174693 0  -1.506529437947769 -0.4249749086278868 0  -1.483265806773862 -0.471528071941176 0  -1.457642634775979 -0.5167221254759914 0  -1.425461270240775 -0.5583805529425174 0  -1.400428561686328 -0.6048206636132635 0  -1.364900409128774 -0.6418354126032889 0  -1.33010144962596 -0.6755823458592859 0  -1.294768163993654 -0.712000867466419 0  -1.259384664687188 -0.747444463763262 0  -1.22383644018462 -0.7848645814905518 0  -1.187111737039804 -0.8215938782025082 0  -1.149733122902888 -0.8589603756940128 0  -1.111133568218351 -0.8952792293400901 0  -1.071901966502676 -0.9316701932018991 0  -1.033206404215153 -0.9735737549060125 0  -0.9910591194568019 -1.010690890837383 0  -0.948473268551873 -1.04873003878528 0  -0.9043873096332946 -1.085700588774944 0  -0.8591941005489639 -1.122236645849708 0  -0.8125909930978643 -1.157733267414378 0  -0.764566457654615 -1.19172217541896 0  -0.7152198554442193 -1.224574886365305 0  -0.6653091254863369 -1.258401426376598 0  -0.6130384868239267 -1.288170678166104 0  -0.5600904108495179 -1.316733789333483 0  -0.5057667091833074 -1.342805275927236 0  -0.4504069672981378 -1.366655777815428 0  -0.3941183885536015 -1.388121713885489 0  -0.3365324001411276 -1.406033880600591 0  -0.2784144329113371 -1.421025600261346 0  -0.2196416368434684 -1.433800835976153 0  -0.1602703768263907 -1.443376735089829 0  -0.1005004698444885 -1.450071353135262 0  -0.04045003336161276 -1.453640747162753 0  0.01971151482386034 -1.454137126908907 0  0.07982965825886955 -1.451464642764559 0  0.1397395127900771 -1.445634342475783 0  0.1992238720573356 -1.436862881725999 0  0.2582166630728893 -1.425438940233997 0  0.3165856102920308 -1.411322970474746 0  0.3742524773086479 -1.3947263682041 0  0.4310615393060655 -1.37561073834211 0  0.4870490095777875 -1.354525037781708 0  0.5419498225851627 -1.33087701477841 0  0.595867576836119 -1.306272044806201 0  0.6490697861081804 -1.279659901599276 0  0.7007487796969648 -1.25052019792172 0  0.7513959542492273 -1.220131533740377 0  0.8008955665719476 -1.188531670222363 0  0.849219188589195 -1.155770248120654 0  0.8964862728512214 -1.122284574613385 0  0.9426642299291244 -1.08802548893679 0  0.9875244766499748 -1.053445550945975 0  1.031755948047292 -1.017361047974025 0  1.074425297287746 -0.979938741609614 0  1.115561085413195 -0.9416198827102111 0  1.155802192589579 -0.9032996225498712 0  1.19470370005673 -0.8639986957988088 0  1.233058490793227 -0.825660181356784 0  1.269095784557182 -0.783725759118974 0  1.305175160161003 -0.7468084429355935 0  1.341337166403377 -0.7087745873562024 0  1.375409418626303 -0.6687836360610848 0  1.408053041443922 -0.6279451624163145 0  1.439113769866639 -0.5863618195369539 0  1.468142238802119 -0.543445038650846 0  1.496543697473763 -0.5009203283753962 0  1.519718401708585 -0.4540902964112618 0  1.544840493875361 -0.4119861792066908 0  1.568586758344872 -0.3682001771739117 0  1.586597307921928 -0.3217691749321963 0  1.602949176167831 -0.275209583841986 0  1.615892890908344 -0.2279840886843067 0  1.62632183264183 -0.1806222637816575 0  1.633754973892846 -0.133059608178983 0  1.639295741084357 -0.08566347937065918 0  -0.08216427266520158 0.7969308038344409 0  0.6185319186820375 -0.7176019370339728 0  -0.7302786409644815 -0.6285825613683675 0  -0.05841636939983398 -0.8880820036138081 0  0.614344944141768 0.621189441420217 0  1.168525469839454 0.203427292162045 0  -0.7428152076033654 0.528217653629095 0  -1.21497608380905 -0.04336475729565036 0  1.172743764657222 -0.2865342437445911 0  -1.019707532514022 -0.4547193886460359 0  -0.7802475951473693 -0.05826692411888348 0  -0.4585298480629292 -0.2321298110605388 0  -1.030270040502507 0.348994951515553 0  0.2980807213430519 -0.8652707774705094 0  0.1532633931696811 -0.2926796635355491 0  0.2616632553607576 0.7586669871088174 0  0.3543406566641321 0.2024020643251628 0  0.6700447251200254 -0.04270681594447271 0  -0.3940105409031386 -0.7810747793052915 0  -0.4306833336957597 0.7027442146216142 0  -0.2580012617325773 0.2582921002423741 0  0.9253270223209332 -0.4919712701989092 0  0.9211848902884824 0.4049778452416454 0  0.4222311080306647 -0.3235557546825862 0  0.04637977611590531 0.2536436088812662 0  -0.5219930557815491 0.1976014102740775 0  -0.1555027497360351 -0.2850872213662293 0  0.9542869704481662 -0.04229636072028062 0  1.362549875048886 -0.03992774093315789 0  0.7722501854854334 -0.6019206438624485 0  0.7890397628594678 -0.2766709998875082 0  0.6350062957029318 -0.3770348574768482 0  0.5448072182735472 -0.1792764281052926 0  0.5145744137781696 -0.5257161648958226 0  0.9327849585572189 -0.2655496538375654 0  0.8114944550102979 -0.04247879573095752 0  -0.8969179176766595 0.1545249244657638 0  -1.118271317349924 0.148892932896719 0  -0.9997235994654502 -0.04991784781781181 0  -0.8915221415145447 -0.2650418056690549 0  -1.113519540133845 -0.2442556179628946 0  -1.288672792346794 -0.3369019657892963 0  -1.376676507585719 -0.1530513129978188 0  -1.374633874195718 0.07041067876367108 0  -1.284199250902076 0.2529238249357609 0  -0.1075370370435589 -0.5862035718198052 0  -0.2681366040115398 -0.5389104047096439 0  -0.2275193628140348 -0.8399215962808281 0  -0.3064711479695742 -0.2596963895908588 0  -0.422585307058105 -0.5042047179812189 0  -1.206791028041307 -0.5339482084844696 0  -1.208207811325889 0.4417106710988646 0  0.3590014399759099 -0.5919499799148706 0  0.2869575877600968 -0.3097164088951744 0  0.2202060060619743 -0.5819317223838811 0  -0.8859614582940148 0.4344303805036272 0  -0.7521924123982382 0.2328529680980281 0  1.356520575781405 -0.3597641610171542 0  1.227379893001254 -0.5244035336070362 0  1.220627145973474 0.4410971773059355 0  1.3510457927754 0.2789501011350978 0  -0.7351019887616285 -0.9115492136516111 0  -0.910284064509278 -0.7770076474723864 0  -0.9131556283312732 0.6842065193015284 0  -0.7384819407838502 0.8119806052013764 0  0.7899215423854826 -0.899976036622347 0  0.6001025367908625 -1.012200650083702 0  0.5934327803203576 0.9119907066654207 0  0.7826434563786607 0.8054330696333305 0  0.03010755024799582 -1.172600
[...]
<PointData  Vectors="f_6773"> 
<DataArray  type="Float64"  Name="f_6773"  NumberOfComponents="3" format="ascii">1.0006865798740394e+00 1.0837432813942982e-02 0.0000000000000000e+00  9.9438322783486977e-01 1.1275071280952705e-01 0.0000000000000000e+00  9.8756696004987488e-01 1.5830396522571297e-01 0.0000000000000000e+00  9.7915700097688552e-01 2.0412531460745001e-01 0.0000000000000000e+00  9.6670071649676170e-01 2.5700331557487988e-01 0.0000000000000000e+00  9.4844630387633677e-01 3.1773028737208192e-01 0.0000000000000000e+00  9.3492006737858402e-01 3.5539082205484518e-01 0.0000000000000000e+00  9.0525757734656087e-01 4.2634036312087131e-01 0.0000000000000000e+00  8.4803961921027893e-01 5.3308457782034435e-01 0.0000000000000000e+00  8.8170798284561736e-01 4.7168302896048858e-01 0.0000000000000000e+00  8.6482902159515485e-01 5.0265591230474993e-01 0.0000000000000000e+00  8.1469620687224076e-01 5.8107677656632273e-01 0.0000000000000000e+00  8.1279450309339163e-01 5.8256379974856076e-01 0.0000000000000000e+00  7.8145477404469721e-01 6.2440842157135723e-01 0.0000000000000000e+00  7.6428511142279576e-01 6.4507010722362212e-01 0.0000000000000000e+00  7.3618569427354175e-01 6.7713248780367385e-01 0.0000000000000000e+00  7.0014248346605412e-01 7.1492716574578496e-01 0.0000000000000000e+00  7.3184543859525208e-01 6.8146145691003635e-01 0.0000000000000000e+00  7.2550739621896088e-01 6.8831234273139263e-01 0.0000000000000000e+00  6.9110221605915001e-01 7.2306688642921890e-01 0.0000000000000000e+00  6.9006322198458303e-01 7.2375142672936088e-01 0.0000000000000000e+00  6.7133962373710465e-01 7.4122937069362915e-01 0.0000000000000000e+00  6.5992487031831293e-01 7.5139159273161982e-01 0.0000000000000000e+00  6.3059443854207597e-01 7.7625814110107683e-01 0.0000000000000000e+00  6.0519651716270884e-01 7.9617889080506421e-01 0.0000000000000000e+00  5.8718457440845839e-01 8.0951624267864708e-01 0.0000000000000000e+00  5.6986273708602120e-01 8.2178384331228593e-01 0.0000000000000000e+00  5.5212613356765572e-01 8.3380056023334270e-01 0.0000000000000000e+00  5.3165054039482362e-01 8.4701886466571530e-01 0.0000000000000000e+00  5.0648691918381761e-01 8.6230303796731045e-01 0.0000000000000000e+00  4.8330877378729858e-01 8.7552027711886837e-01 0.0000000000000000e+00  4.5129309539805523e-01 8.9249043574544895e-01 0.0000000000000000e+00  4.1478990469996480e-01 9.0999920550573576e-01 0.0000000000000000e+00  3.8808794881683717e-01 9.2169415162349155e-01 0.0000000000000000e+00  3.5422999981694114e-01 9.3526700611685443e-01 0.0000000000000000e+00  3.1497160016845516e-01 9.4921792111265080e-01 0.0000000000000000e+00  2.7767295532560871e-01 9.6075492596477075e-01 0.0000000000000000e+00  2.3546337273499793e-01 9.7208746604406993e-01 0.0000000000000000e+00  1.9479927120075033e-01 9.8135825905427454e-01 0.0000000000000000e+00  1.4845365314182343e-01 9.8368224837558338e-01 0.0000000000000000e+00  9.9722582376961161e-02 1.0272118396808338e+00 0.0000000000000000e+00  6.0074890765404676e-02 8.9758763528795316e-01 0.0000000000000000e+00  5.4141789479726444e-03 9.6436540432333373e-01 0.0000000000000000e+00  3.3380435288481385e-02 -1.3264218207000333e+00 0.0000000000000000e+00  8.1043935324496094e-02 -9.6245193719678523e-01 0.0000000000000000e+00  1.2794306802009936e-01 -9.8975522933445004e-01 0.0000000000000000e+00  1.7606235913883947e-01 -9.8635647654163638e-01 0.0000000000000000e+00  2.2068443967294302e-01 -9.7503189598317297e-01 0.0000000000000000e+00  2.6103354681142865e-01 -9.6551821348096456e-01 0.0000000000000000e+00  3.0950317653715909e-01 -9.5107653438728612e-01 0.0000000000000000e+00  3.5516894137028432e-01 -9.3493136581732650e-01 0.0000000000000000e+00  3.9058246376067757e-01 -9.2068553363745897e-01 0.0000000000000000e+00  4.3032792249805302e-01 -9.0277965627905388e-01 0.0000000000000000e+00  4.5879927631708506e-01 -8.8862951277413205e-01 0.0000000000000000e+00  4.9359985687310881e-01 -8.6979262609126595e-01 0.0000000000000000e+00  5.2130286618731891e-01 -8.5340642999443994e-01 0.0000000000000000e+00  5.3366829931440674e-01 -8.4578439607942624e-01 0.0000000000000000e+00  5.7058451636816943e-01 -8.2139638986514130e-01 0.0000000000000000e+00  6.0344361560496462e-01 -7.9747465936367468e-01 0.0000000000000000e+00  6.1531662959487110e-01 -7.8834318198800468e-01 0.0000000000000000e+00  6.4177756492960358e-01 -7.6690588720110076e-01 0.0000000000000000e+00  6.4220949773994329e-01 -7.6674243719417057e-01 0.0000000000000000e+00  6.8303927797587016e-01 -7.3052928924708715e-01 0.0000000000000000e+00  6.9840646699858888e-01 -7.1577860684827199e-01 0.0000000000000000e+00  6.6056008850543013e-01 -7.5129665959068503e-01 0.0000000000000000e+00  6.9023075172099879e-01 -7.2365569228805626e-01 0.0000000000000000e+00  6.9868247528105210e-01 -7.1554833565099152e-01 0.0000000000000000e+00  7.1236141371328265e-01 -7.0187171587512720e-01 0.0000000000000000e+00  7.1428725301695184e-01 -6.9999106721547555e-01 0.0000000000000000e+00  7.1548768174718314e-01 -6.9889261255595692e-01 0.0000000000000000e+00  7.0995601079953774e-01 -7.0403875534457860e-01 0.0000000000000000e+00  6.7527826502457633e-01 -7.4484475162656250e-01 0.0000000000000000e+00  8.3961869546609524e-01 -5.4629824752731015e-01 0.0000000000000000e+00  8.4145764198841577e-01 -5.3933236140270413e-01 0.0000000000000000e+00  8.0816621839980674e-01 -5.9256183068774415e-01 0.0000000000000000e+00  8.8569806365322579e-01 -4.6712097070409553e-01 0.0000000000000000e+00  9.2879836068189936e-01 -3.6968854593243028e-01 0.0000000000000000e+00  9.2921657542670899e-01 -3.7868711524723747e-01 0.0000000000000000e+00  9.8839398918624566e-01 -1.6205357404366574e-01 0.0000000000000000e+00  9.9608431693188759e-01 -9.7723230050080614e-02 0.0000000000000000e+00  9.3974474635116956e-01 -3.8970645456752839e-01 0.0000000000000000e+00  1.0045277017455185e+00 1.0066219493528103e-02 0.0000000000000000e+00  9.9909934371856357e-01 5.4261257390878677e-02 0.0000000000000000e+00  9.9841425087740499e-01 -6.9762764496564156e-02 0.0000000000000000e+00  1.0000662271721190e+00 -7.3458145446375694e-03 0.0000000000000000e+00  9.9986483043784846e-01 2.2660291444462806e-02 0.0000000000000000e+00  9.9936588741839627e-01 -4.3055760869041247e-02 0.0000000000000000e+00  1.0035019298933443e+00 -1.3979290482946734e-03 0.0000000000000000e+00  9.5579574434127990e-01 3.3071404855508091e-01 0.0000000000000000e+00  9.9726806985833027e-01 8.4522240167385632e-02 0.0000000000000000e+00  9.9012088066252579e-01 1.5031758423465694e-01 0.0000000000000000e+00  9.3691292894118261e-01 3.5792627519287840e-01 0.0000000000000000e+00  9.3132573496226378e-01 3.6365337242293905e-01 0.0000000000000000e+00  8.8514259712955667e-01 4.6818350310713991e-01 0.0000000000000000e+00  8.1600211067003636e-01 5.8115469712807621e-01 0.0000000000000000e+00  8.4654669397022042e-01 5.3152777177757993e-01 0.0000000000000000e+00  8.2963217135613743e-01 5.6073276252901483e-01 0.0000000000000000e+00  6.7801189435560205e-01 7.4146728879912682e-01 0.0000000000000000e+00  7.1396824240502665e-01 7.0002035106261706e-01 0.0000000000000000e+00  7.1151360730915492e-01 7.0306789946112869e-01 0.0000000000000000e+00  7.1743848330934423e-01 6.9674940475702285e-01 0.0000000000000000e+00  7.1836397441029687e-01 6.9572117721395776e-01 0.0000000000000000e+00  7.0595764002166539e-01 7.0836716380298670e-01 0.0000000000000000e+00  7.0053633396530113e-01 7.1365634640700204e-01 0.0000000000000000e+00  6.6902321949930066e-01 7.4396655334618012e-01 0.0000000000000000e+00  7.1929480032417703e-01 6.9490645218429781e-01 0.0000000000000000e+00  7.0476777984100614e-01 7.0967944469904853e-01 0.0000000000000000e+00  6.5428209515664493e-01 7.5658414096225224e-01 0.0000000000000000e+00  6.5960448902346880e-01 7.5161687124775090e-01 0.0000000000000000e+00  6.3368089530564831e-01 7.7366573970220220e-01 0.0000000000000000e+00  6.1931549732302116e-01 7.8519245072149890e-01 0.0000000000000000e+00  5.9294081205780480e-01 8.0537455510121359e-01 0.0000000000000000e+00  5.5975243597286972e-01 8.2870614409448462e-01 0.0000000000000000e+00  5.6368913904717666e-01 8.2609912807193886e-01 0.0000000000000000e+00  5.3147762747393201e-01 8.4732754238625652e-01 0.0000000000000000e+00  4.7991532574292151e-01 8.7745838499627227e-01 0.0000000000000000e+00  4.5764844702965124e-01 8.8927337389456484e-01 0.0000000000000000e+00  4.1212206673660945e-01 9.1126891254009057e-01 0.0000000000000000e+00  3.7902919099894505e-01 9.2555976778442672e-01 0.0000000000000000e+00  3.2777422485173424e-01 9.4500456541116551e-01 0.0000000000000000e+00  2.7012697711947153e-01 9.6311407283424810e-01 0.0000000000000000e+00  2.3234658971591998e-01 9.7208709045244135e-01 0.0000000000000000e+00  1.8695941652391124e-01 9.8423777177723537e-01 0.0000000000000000e+00  1.3484004245988090e-01 9.9516802652667735e-01 0.0000000000000000e+00  8.5768240857214087e-02 9.2104541055120970e-01 0.0000000000000000e+00  3.0798915974687466e-02 1.4573603565638664e+00 0.0000000000000000e+00  1.0185497341492327e-02 -1.1385335069265949e+00 0.0000000000000000e+00  7.2045180630309291e-02 -9.0257656139731779e-01 0.0000000000000000e+00  1.2222848755445877e-01 -1.0151241597775811e+00 0.0000000000000000e+00  1.6818548054099144e-01 -9.8305610974719648e-01 0.0000000000000000e+00  2.1291241495095312e-01 -9.7723242500509089e-01 0.0000000000000000e+00  2.5576716681445899e-01 -9.6695777191607868e-01 0.0000000000000000e+00  2.9897504888726323e-01 -9.5435421196767312e-01 0.0000000000000000e+00  3.3488882915221996e-01 -9.4237394292995558e-01 0.0000000000000000e+00  3.7554288702233818e-01 -9.2691940534851147e-01 0.0000000000000000e+00  4.0730695246663806e-01 -9.1334085655752673e-01 0.0000000000000000e+00  4.2740523354093202e-01 -9.0416021305648209e-01 0.0000000000000000e+00  4.7080336866801586e-01 -8.8240001431199222e-01 0.0000000000000000e+00  5.0514761725993840e-01 -8.6311264219904194e-01 0.0000000000000000e+00  5.2551839405914758e-01 -8.5083096756880205e-01 0.0000000000000000e+00  5.5055522840121285e-01 -8.3485460970790715e-01 0.0000000000000000e+00  5.6997172310817157e-01 -8.2170081824519514e-01 0.0000000000000000e+00  5.8719363302075023e-01 -8.0948286430927663e-01 0.0000000000000000e+00  6.0295282621455837e-01 -7.9783162270526498e-01 0.0000000000000000e+00  6.1998561586040324e-01 -7.8471560161318421e-01 0.0000000000000000e+00  6.4531939708250952e-01 -7.6405247548913513e-01 0.0000000000000000e+00  6.7335905757711489e-01 -7.3937089391277888e-01 0.0000000000000000e+00  6.8419300940714911e-01 -7.2938491563978081e-01 0.0000000000000000e+00  7.0352697294289901e-01 -7.1066467527440857e-01 0.0000000000000000e+00  7.0300198484648890e-01 -7.1151422556619537e-01 0.0000000000000000e+00  7.3796218389863677e-01 -6.7494707967431178e-01 0.0000000000000000e+00  7.4510603023877675e-01 -6.6695150910870038e-01 0.0000000000000000e+00  7.0788253488869446e-01 -7.0738716522606504e-01 0.0000000000000000e+00  7.4439192473336591e-01 -6.6812051930671901e-01 0.0000000000000000e+00  7.7358089330405200e-01 -6.3387564432571075e-01 0.0000000000000000e+00  7.8850349337201042e-01 -6.1549750777821410e-01 0.0000000000000000e+00  8.1970939820137378e-01 -5.7280208385039533e-01 0.0000000000000000e+00  8.2223110587038328e-01 -5.7035555481686762e-01 0.0000000000000000e+00  8.7121058688496589e-01 -4.9149533287810032e-01 0.0000000000000000e+00  8.8655350882072559e-01 -4.6247830029815562e-01 0.0000000000000000e+00  8.5447434564023339e-01 -5.2276487885768907e-01 0.0000000000000000e+00  9.1119200065587858e-01 -4.1356453121753584e-01 0.0000000000000000e+00  9.4036351265296425e-01 -3.4073862108730874e-01 0.0000000000000000e+00  9.5350532788992037e-01 -3.0228539630059897e-01 0.0000000000000000e+00  9.7155430749938987e-01 -2.3804871443855549e-01 0.0000000000000000e+00  9.8316762970694260e-01 -1.8390214744586106e-01 0.0000000000000000e+00  9.9101852126524470e-01 -1.3515926935749381e-01 0.0000000000000000e+00  9.9687741750428616e-01 -8.7210723785880906e-02 0.0000000000000000e+00  9.9070199397233827e-02 -9.9982707189741593e-01 0.0000000000000000e+00  6.5822415622291230e-01 -7.5319475698940686e-01 0.0000000000000000e+00  7.6033245949808448e-01 6.4989954266061667e-01 0.0000000000000000e+00  7.8344039114443320e-02 8.7369127901268862e-01 0.0000000000000000e+00  6.5403524001289237e-01 7.5684026485020250e-01 0.0000000000000000e+00  9.5781976328981822e-01 2.8831618627873085e-01 0.0000000000000000e+00  7.6307204505616821e-01 -6.4671702032053291e-01 0.0000000000000000e+00  1.0003652162104550e+00 -2.0619699311186950e-03 0.0000000000000000e+00  9.6185073577481295e-01 -2.7457028566168334e-01 0.0000000000000000e+00  8.9404120196514736e-01 4.4852851375224384e-01 0.0000000000000000e+00  1.0004788994225282e+00 1.5028663211322653e-02 0.0000000000000000e+00  9.3341180742611973e-01 3.6141706420407632e-01 0.0000000000000000e+00  8.9990145120005438e-01 -4.3668233717384047e-01 0.0000000000000000e+00  3.3913009522696097e-01 -9.4093273479932282e-01 0.0000000000000000e+00  5.8397886221820627e-01 -8.1610319784274332e-01 0.0000000000000000e+00  3.0607829503042577e-01 9.5219652133786126e-01 0.0000000000000000e+00  8.3985254540212273e-01 5.4514521330947030e-01 0.0000000000000000e+00  1.0010440828042013e+00 7.4067333760331781e-03 0.0000000000000000e+00  4.7876898119658268e-01 8.7818113102028461e-01 0.0000000000000000e+00  4.9308530614081525e-01 -8.7021854257392139e-01 0.0000000000000000e+00  6.8593591098223639e-01 -7.2980407507302847e-01 0.0000000000000000e+00  8.6932124551289958e-01 -4.9480432375938599e-01 0.0000000000000000e+00  8.6296815506039470e-01 5.0580380572316819e-01 0.0000000000000000e+00  8.4934459131837492e-01 -5.2957932944343922e-01 0.0000000000000000e+00  2.1033468839683217e-01 8.9086500704026872e-01 0.0000000000000000e+00  9.0913542589819551e-01 -4.1801425690190569e-01 0.0000000000000000e+00  6.1489468874652509e-01 7.9165919478221436e-01 0.0000000000000000e+00  1.0002894347638061e+00 6.8284273716768739e-03 0.0000000000000000e+00  1.0002191936826512e+00 8.6639271595570413e-03 0.0000000000000000e+00  7.8425695599271084e-01 -6.2097012530865381e-01 0.0000000000000000e+00  9.5379451302430740e-01 -3.0232305252775726e-01 0.0000000000000000e+00  8.8378073457365780e-01 -4.6957037732388346e-01 0.0000000000000000e+00  9.7274012158857093e-01 -2.3637300169424316e-01 0.0000000000000000e+00  7.3243714239457269e-01 -6.8169910171253711e-01 0.0000000000000000e+00  9.6477594828002944e-01 -2.6426241670636819e-01 0.0000000000000000e+00  1.0004810384769327e+00 6.9846799806082853e-03 0.0000000000000000e+00  9.6895897435356704e-01 -2.4880155167311416e-01 0.0000000000000000e+00  9.7604453651147893e-01 -2.1918772337633272e-01 0.0000000000000000e+00  1.0003003192527211e+00 4.1132559712802998e-03 0.0000000000000000e+00  9.6377976530527232e-01 2.6812949308246753e-01 0.0000000000000000e+00  9.7503957954083109e-01 2.2365276249041560e-01 0.0000000000000000e+00  9.5123955504429614e-01 3.0992296718678802e-01 0.0000000000000000e+00  9.9555578771168951e-01 9.6688374774405728e-02 0.0000000000000000e+00  9.9500150756974515e-01 -1.0223391013521561e-01 0.0000000000000000e+00  9.4937797503066590e-01 -3.1557778826565513e-01 0.0000000000000000e+00  2.1362362327299125e-01 9.7882879070217410e-01 0.0000000000000000e+00  5.0089083881965579e-01 8.6608031896889093e-01 0.0000000000000000e+00  2.8606367417672685e-01 9.5852396382643923e-01 0.0000000000000000e+00  8.4856131556367609e-01 5.3225937366278608e-01 0.0000000000000000e+00  6.9032520597704838e-01 7.2418758009932171e-01 0.0000000000000000e+00  8.5324656634542251e-01 5.2216507095435938e-01 0.0000000000000000e+00  8.5457619481850045e-01 -5.1999802926506489e-01 0.0000000000000000e+00  5.5665361824586923e-01 -8.3127569482551467e-01 0.0000000000000000e+00  7.7152962870248198e-01 -6.3895118966029463e-01 0.0000000000000000e+00  3.9104094852704185e-01 -9.2074252366835030e-01 0.0000000000000000e+00  8.4525265015496709e-01 -5.3487102558983013e-01 0.0000000000000000e+00  9.2948864404114528e-01 -3.7032603398751368e-01 0.0000000000000000e+00  9.3195252914897175e-01 -3.6327138717725110e-01 0.0000000000000000e+00  8.6288171117071155e-01 -5.0584321014522549e-01 0.0000000000000000e+00  8.5564306528116552e-01 5.1799233663328381e-01 0.0000000000000000e+00  9.2649681167245246e-01 3.7695641234233074e-01 0.0000000000000000e+00  6.2897105107695528e-01 7.7754801150517239e-01 0.0000000000000000e+00  7.2946576489943815e-01 6.8415133343825341e-01 0.0000000000000000e+00  7.2201209153334123e-01 -6.9203688924454687e-01 0.0000000000000000e+00  6.2057797547534221e-01 -7.8427655502360760e-01 0.0000000000000000e+00  6.3559022525390896e-01 -7.7217826157576286e-01 0.0000000000000000e+00  5.0945596457411124e-01 -8.6061868336038039e-01 0.0000000000000000e+00  4.9912019131205820e-01 8.6666212155151079e-01 0.0000000000000000e+00  6.2508457603753564e-01 7.8071365304825724e-01 0.0000000000000000e+00  1.7242536688704593e-02 -1.4071607509896891e+00 0.0000000000000000e+00  1.7675219931438255e-01 9.8487490316299420e-01 0.0000000000000000e+00  1.8173170283957071e-01 -9.8537215335158135e-01 0.0000000000000000e+00  3.1001483941977184e-03 7.6220017351593328e-01 0.0000000000000000e+00  5.1467713430692030e-01 -8.5763373624724415e-01 0.0000000000000000e+00  9.7354485744653696e-01 2.3371651643011848e-01 0.0000000000000000e+00  8.8022994877878313e-01 4.7615440040431295e-01 0.0000000000000000e+00  7.2020585425640904e-01 6.9468308208489715e-01 0.0000000000000000e+00  8.2998463489282859e-01 5.5872158381377446e-01 0.0000000000000000e+00  9.8853676710544669e-01 1.5548334686299642e-01 0.0000000000000000e+00  9.2325269843314495e-01 3.8550908630807612e-01 0.0000000000000000e+00  6.4361534337660942e-01 7.6759219597774431e-01 0.0000000000000000e+00  9.5145933169660024e-01 3.0888139119920544e-01 0.0000000000000000e+00  1.0034868972169100e+00 2.6583182616544153e-02 0.0000000000000000e+00  7.8248444877704193e-01 6.2286737761598576e-01 0.0000000000000000e+00  7.8047464878490513e-01 -6.2541959187992069e-01 0.0000000000000000e+00  8.4107773964621191e-01 5.4135571437822494e-01 0.0000000000000000e+00  9.4985937597531112e-01 3.1443395520234285e-01 0.0000000000000000e+00  7.7833511401870847e-01 6.2837664360624335e-01 0.0000000000000000e+00  9.6129402567203059e-01 2.7665482878207531e-01 0.0000000000000000e+00  5.1791203909166117e-01 8.5598550705439402e-01 0.0000000000000000e+00  5.0003639430215030e-01 8.6626783540234809e-01 0.0000000000000000e+00  9.6479821144533046e-02 -9.6426250809406389e-01 0.0000000000000000e+00  1.3880759521112554e-01 -9.9568532098828244e-01 0.0000000000000000e+00  5.4676178864942837e-01 -8.3783002127326944e-01 0.0000000000000000e+00  2.9623969640031633e-01 -9.5578327908862282e-01 0.0000000000000000e+00  3.0774713494732836e-01 -9.5168952924585437e-01 0.0000000000000000e+00  1.0010620082210022e+00 -3.6369513400055613e-02 0.0000000000000000e+00  2.5656576881512211e-02 1.0328193798921153e+00 0.0000000000000000e+00  3.7809605451965267e-01 -9.2588758501643531e-01 0.0000000000000000e+00  2.0118882936065888e-01 -9.7934433584545411e-01 0.0000000000000000e+00  1.7898077954187105e-01 9.8450413900008615e-01 0.0000000000000000e+00  3.5557958740351503e-01 9.3477224567402595e-01 0.0000000000000000e+00  1.0415655857936099e+00 3.4347447730552588e-01 0.0000000000000000e+00  2.7265300361884420e-01 9.6364163718282914e-01 0.0000000000000000e+00  1.0617265542833583e-01 1.0177894410282946e+00 0.0000000000000000e+00  3.4486091930434037e-01 9.3879250068761799e-01 0.0000000000000000e+00  5.1072979832724597e-01 8.5986821318067486e-01 0.0000000000000000e+00  6.4247054289317840e-01 7.6659890615328452e-01 0.0000000000000000e+00  5.0608150702912769e-01 -8.6261025638127875e-01 0.0000000000000000e+00  3.4764963731277487e-01 -9.3775542222180575e-01 0.0000000000000000e+00  6.4735173595263185e-01 -7.6248443471020788e-01 0.0000000000000000e+00  9.8502594633878759e-01 -1.7598778252972194e-01 0.0000000000000000e+00  8.2577795969222023e-01 -5.6482531772794153e-01 0.0000000000000000e+00  1.0003228906214172e+00 9.8524991592907323e-03 0.0000000000000000e+00  9.7245080699