<?xml version="1.0"?>
<VTKFile type="UnstructuredGrid"  version="0.1"  >
<UnstructuredGrid>
<Piece  NumberOfPoints="2549" NumberOfCells="4928">
<Points>
<DataArray  type="Float64"  NumberOfComponents="3"  format="ascii">1.640976713590841 -0.03793052376995653 0  1.637891337896286 0.009702876874837072 0  1.631124669484151 0.05683027688834098 0  1.622758626195693 0.1040775917853002 0  1.611373769636476 0.1509860053683901 0  1.597712873934296 0.197746024109932 0  1.580686403459126 0.2438111213703203 0  1.562131479315105 0.2897019776659266 0  1.537918151706641 0.332971913356337 0  1.512454370286753 0.3746461981144388 0  1.48894215995691 0.420893653631125 0  1.460133632516936 0.462808952104206 0  1.430789828733716 0.5051187503920879 0  1.399437373654169 0.5460961095938914 0  1.366514848967762 0.5863286239022332 0  1.332092307352453 0.6255404442434428 0  1.295794744138151 0.663044652827442 0  1.259391792470485 0.6991899632109807 0  1.222950625910457 0.7399551079678285 0  1.184369348425618 0.777317246958529 0  1.145214012384956 0.8155074771124244 0  1.104759766631747 0.852684901761076 0  1.063475694052759 0.8898718725332934 0  1.020669557663713 0.9260406237543173 0  0.9763589402198396 0.9608647553771572 0  0.9314419130532804 0.994182035127566 0  0.8852371822382763 1.027056402181048 0  0.8379927690923655 1.059047799899421 0  0.7897637369577116 1.090272969911034 0  0.7404007399440148 1.120249008698282 0  0.6899907445384138 1.148995305717528 0  0.6385435789257403 1.176321201345706 0  0.585875320747971 1.20160191451834 0  0.5323664426427845 1.225011563180193 0  0.4779431917423045 1.246937722198771 0  0.4225627825668796 1.266532715522413 0  0.3664058423159595 1.284038523507152 0  0.3094972685880521 1.299146901447083 0  0.2519484662128888 1.311831951271076 0  0.1938799407030677 1.322017433519802 0  0.1353178940655014 1.329313523011558 0  0.0765564570057464 1.33394760333968 0  0.01760167836120598 1.336128720156073 0  -0.0413861955448758 1.335469376761228 0  -0.1002940973092872 1.332075136834383 0  -0.1589691532222234 1.325855309287312 0  -0.217288783785251 1.31692748162465 0  -0.2750959739467712 1.305115829520011 0  -0.3322835497836576 1.290950031669135 0  -0.3888558287036037 1.274128147259541 0  -0.4444319375090992 1.254448832609193 0  -0.4990731707943482 1.232419721933194 0  -0.5527297791982717 1.208337888762799 0  -0.6051909197550899 1.182036509758367 0  -0.6567398329127546 1.154411766227935 0  -0.7068509251761362 1.124450669578321 0  -0.7558528499087549 1.094208490910676 0  -0.8040653157210134 1.062366263673794 0  -0.8505406866790411 1.028451173817017 0  -0.8957417242218032 0.9935407448235252 0  -0.9398961808900277 0.9581846313244008 0  -0.9825734201691938 0.9216339203257733 0  -1.024716245126401 0.8857813550358316 0  -1.064146004485382 0.8461143689506525 0  -1.10351262234099 0.810640131820357 0  -1.142412975325333 0.7750585959563615 0  -1.179998359981053 0.7382991330075439 0  -1.2169046246296 0.7020520183814384 0  -1.252564828189229 0.6649639265761937 0  -1.287857159947623 0.6295849451219704 0  -1.322921775032624 0.5930647212160318 0  -1.357877827498786 0.5598930125504845 0  -1.392837479576777 0.5228048297531077 0  -1.417247892070105 0.4763015112356246 0  -1.450460982655003 0.4349736463223095 0  -1.476027087965234 0.3899764413449003 0  -1.49940413738773 0.3436756188264918 0  -1.516143609002146 0.2944908269338785 0  -1.534625878208925 0.2473002359748059 0  -1.535484832684395 0.1928555065709387 0  -1.550175037469269 0.1485199027487186 0  -1.561901423218658 0.1017587896778735 0  -1.554818655628612 0.05374365580532812 0  -1.559320146346826 0.007463369056738358 0  -1.558426521235637 -0.03854119671475843 0  -1.560492964439909 -0.08453399388063121 0  -1.557795808049906 -0.1310422886377561 0  -1.562941279403355 -0.1795175819386571 0  -1.553351781195191 -0.2267069962894834 0  -1.540464312748596 -0.2717531254422038 0  -1.539721502511908 -0.3271002266062282 0  -1.522326511467444 -0.3749941162784725 0  -1.505959574736147 -0.4248771047751419 0  -1.482710265373306 -0.4714260865148036 0  -1.457084379665828 -0.5166023925545123 0  -1.424921625906865 -0.5582638407307086 0  -1.399954646664839 -0.6047259074032485 0  -1.364434459503294 -0.6417346658116225 0  -1.329671661904667 -0.6754992726506093 0  -1.294369611145004 -0.711939955198637 0  -1.259014814271563 -0.7473999764902061 0  -1.223493763116588 -0.7848397948277185 0  -1.18679420753984 -0.8215869244073921 0  -1.149441408383801 -0.8589746281948673 0  -1.110862270706859 -0.8953117771277025 0  -1.071642802618264 -0.9317127836989532 0  -1.032983984693103 -0.9736534242956416 0  -0.9908429511784643 -1.010778184189196 0  -0.9482719325941221 -1.048831850952768 0  -0.9042002747019212 -1.085820602825839 0  -0.8590228143995395 -1.122377895770377 0  -0.8124332299551297 -1.157895972834844 0  -0.7644193243163884 -1.191904882279666 0  -0.7150766505026855 -1.224771464043609 0  -0.6651852019639704 -1.258630404790984 0  -0.6129147956379972 -1.288412445192204 0  -0.5599754383373685 -1.316997189643155 0  -0.5056560720320541 -1.343089966875541 0  -0.45030109265355 -1.366964935637427 0  -0.3940165790893684 -1.388457430632536 0  -0.3364300442080465 -1.406393605063547 0  -0.2783098342111276 -1.421408982683062 0  -0.2195328682792089 -1.434205943369385 0  -0.1601548694383385 -1.443799732236379 0  -0.1003768005827357 -1.450509385572633 0  -0.04031674502534887 -1.454090049568374 0  0.01985525195231945 -1.454593982998835 0  0.07998426177359715 -1.451924940968264 0  0.1399049170409662 -1.4460941831006 0  0.1993993625542324 -1.437318129570168 0  0.2584013054014256 -1.425886068832919 0  0.3167778823842595 -1.411758278531221 0  0.3744509300884977 -1.395147177814597 0  0.431263898263141 -1.376013884733486 0  0.4872540583308318 -1.354909228843158 0  0.5421543382568647 -1.331238826680546 0  0.5960698844225732 -1.306609915999444 0  0.6492682827251027 -1.279973857064951 0  0.7009396696832381 -1.250808512241758 0  0.7515788594919255 -1.220395096348249 0  0.8010687214682385 -1.188770664165181 0  0.8493808873400979 -1.155984350731114 0  0.8966347244555071 -1.122473423947175 0  0.9427972154859871 -1.088188399704749 0  0.9876398693072277 -1.053582306295732 0  1.031851525238118 -1.01747145205885 0  1.07450171834599 -0.9800269012412053 0  1.11561556507033 -0.9416848603835679 0  1.155835000579767 -0.9033442020662276 0  1.194714598552935 -0.8640246264105154 0  1.233048652914609 -0.8256708101493947 0  1.269061950359313 -0.7837177006452173 0  1.305116082498047 -0.7467832226194848 0  1.341252929878157 -0.7087332573130704 0  1.375301930344347 -0.6687307827662312 0  1.407921119990932 -0.6278808369927846 0  1.438958408553704 -0.5862890525235299 0  1.467964320439521 -0.5433665569403566 0  1.496346808479047 -0.5008391509569643 0  1.519497408200903 -0.4540054288711137 0  1.544601574678079 -0.4119011890226911 0  1.568332254989234 -0.3681169040157425 0  1.586326320101908 -0.3216895571150098 0  1.602667204655008 -0.2751353366234897 0  1.615600061315973 -0.2279162965178402 0  1.6260214228712 -0.1805619883677697 0  1.633448411243442 -0.1330074516562546 0  1.638986001141472 -0.08562009562055244 0  -0.08201130253661279 0.7972875552890062 0  0.6185611524214949 -0.7177787649442607 0  -0.7299580837703223 -0.6286903856057489 0  -0.05824965885973639 -0.8883517462230616 0  0.6143634578890819 0.621442119736405 0  1.168338707602107 0.2034896429015049 0  -0.7424975307391137 0.5283809658010892 0  -1.214441558229801 -0.04334860312763786 0  1.172557529227308 -0.2865250760329828 0  -1.019270378158628 -0.4547444095228901 0  -0.7798435857811831 -0.05824317327678414 0  -0.4582332908582123 -0.2321566678752669 0  -1.029830775463593 0.3490581712681536 0  0.2981906769413278 -0.8655344206475623 0  0.153369336919138 -0.2927371349069667 0  0.2617626498232244 0.7590120327543846 0  0.3543805917636852 0.2025334758136928 0  0.6699831857623332 -0.04266921131807672 0  -0.3937819448157912 -0.7812714978184215 0  -0.4304645636439279 0.7030182847728133 0  -0.2577755711495106 0.2584385525765752 0  0.9252403522951441 -0.4920352022032129 0  0.9210938073796797 0.4051150425247023 0  0.4222570935068478 -0.3236193536233806 0  0.04651375698549492 0.2537986854056453 0  -0.5216828496745031 0.1977087615122356 0  -0.1553017840835821 -0.2851394715255671 0  0.9541416231931658 -0.04226012927986488 0  1.362297949458801 -0.03989252797992889 0  0.7722226104350018 -0.6020384061779521 0  0.7889548600106093 -0.2766988757074904 0  0.6349756329861796 -0.3771044604165137 0  0.5447878473007228 -0.1792851959149656 0  0.5145942724428242 -0.5258447163365543 0  0.9326587570205597 -0.2655632069023081 0  0.8113904723326708 -0.04244189235415747 0  -0.8964869478107317 0.1545836933082037 0  -1.117772489454559 0.1489198312669726 0  -0.9992505418534906 -0.04989703440402985 0  -0.8910929370846666 -0.2650562843331343 0  -1.11302131408725 -0.2442461063703162 0  -1.288136490509867 -0.3368636979972437 0  -1.376104083939502 -0.1530219463678794 0  -1.374062245373493 0.07040638036507214 0  -1.283666694252841 0.252915396248224 0  -0.107354691175907 -0.5863660595980092 0  -0.2679119676106064 -0.5390469699959302 0  -0.2273241093432237 -0.8401582787560732 0  -0.3062229860317313 -0.2597362669489501 0  -0.4223181573841072 -0.5043183538642939 0  -1.206321637511904 -0.5339281913567312 0  -1.20774462144336 0.4417232580265763 0  0.3590679277778656 -0.5921132798103842 0  0.2870233817457833 -0.3097787313337732 0  0.2203060797039515 -0.582097209086573 0  -0.8855843167206849 0.4345421076827876 0  -0.7518151199392388 0.2329463121006869 0  1.35630545620695 -0.3597277021392454 0  1.227237370946165 -0.5244033450864909 0  1.220483120021545 0.441169315549658 0  1.350831300589401 0.2789849141146954 0  -0.7348593029011357 -0.9117054801342336 0  -0.9099769279966557 -0.7771014233173106 0  -0.9128589461744124 0.6843498069668104 0  -0.7382526780385995 0.8122000701193478 0  0.7899773789417162 -0.9001628236482209 0  0.6002085465960078 -1.01246530986849 0  0.5935246114077705 0.9123340838812022 0  0.7826885703338428 0.8056962715523407 0  0.030262921686
[...]
<PointData  Vectors="f_10873"> 
<DataArray  type="Float64"  Name="f_10873"  NumberOfComponents="3" format="ascii">1.0006861716828730e+00 1.0838792781431357e-02 0.0000000000000000e+00  9.9438620332292460e-01 1.1271213735078288e-01 0.0000000000000000e+00  9.8758112288992084e-01 1.5821132380935887e-01 0.0000000000000000e+00  9.7917861168810505e-01 2.0401949204404507e-01 0.0000000000000000e+00  9.6674119670094416e-01 2.5684875638897314e-01 0.0000000000000000e+00  9.4849949313121129e-01 3.1757030120831792e-01 0.0000000000000000e+00  9.3499969292794938e-01 3.5517951110355678e-01 0.0000000000000000e+00  9.0538098159298341e-01 4.2607706595832046e-01 0.0000000000000000e+00  8.4817154171880127e-01 5.3287657368324981e-01 0.0000000000000000e+00  8.8189774437676038e-01 4.7132917147574976e-01 0.0000000000000000e+00  8.6503375142347261e-01 5.0230391202770996e-01 0.0000000000000000e+00  8.1489963153886769e-01 5.8079175048425735e-01 0.0000000000000000e+00  8.1305051382561355e-01 5.8220564476542336e-01 0.0000000000000000e+00  7.8175259457206936e-01 6.2403424247060157e-01 0.0000000000000000e+00  7.6461010544523333e-01 6.4468427804216666e-01 0.0000000000000000e+00  7.3650984728680147e-01 6.7677948276588207e-01 0.0000000000000000e+00  7.0055616708699342e-01 7.1451908119040675e-01 0.0000000000000000e+00  7.3224873178287664e-01 6.8102813980789156e-01 0.0000000000000000e+00  7.2583084831672329e-01 6.8797138635238375e-01 0.0000000000000000e+00  6.9146197090974637e-01 7.2272250088842993e-01 0.0000000000000000e+00  6.9045102061067376e-01 7.2338132252919096e-01 0.0000000000000000e+00  6.7175726772799393e-01 7.4085063988327415e-01 0.0000000000000000e+00  6.6032687026287784e-01 7.5103838957954971e-01 0.0000000000000000e+00  6.3101873594495961e-01 7.7591308045090202e-01 0.0000000000000000e+00  6.0566207973294739e-01 7.9582452885757149e-01 0.0000000000000000e+00  5.8762324163375679e-01 8.0919802969182053e-01 0.0000000000000000e+00  5.7028816261858661e-01 8.2148876241848912e-01 0.0000000000000000e+00  5.5253211136866687e-01 8.3353170900589157e-01 0.0000000000000000e+00  5.3204345334774794e-01 8.4677219343097621e-01 0.0000000000000000e+00  5.0687539851842267e-01 8.6207478116859793e-01 0.0000000000000000e+00  4.8369565208982723e-01 8.7530666190921980e-01 0.0000000000000000e+00  4.5166617301712370e-01 8.9230181030431477e-01 0.0000000000000000e+00  4.1515320602062744e-01 9.0983359175690726e-01 0.0000000000000000e+00  3.8843914382227906e-01 9.2154635399157070e-01 0.0000000000000000e+00  3.5454578112034163e-01 9.3514756658352471e-01 0.0000000000000000e+00  3.1525966892081936e-01 9.4912257776153153e-01 0.0000000000000000e+00  2.7792877453611325e-01 9.6068066331090174e-01 0.0000000000000000e+00  2.3567744211934522e-01 9.7203759074210117e-01 0.0000000000000000e+00  1.9496653474547371e-01 9.8132601438478129e-01 0.0000000000000000e+00  1.4856631394596118e-01 9.8362590483123458e-01 0.0000000000000000e+00  9.9773463901724271e-02 1.0274683023977973e+00 0.0000000000000000e+00  6.0084873851145922e-02 8.9661783526861638e-01 0.0000000000000000e+00  5.3197713424736242e-03 9.6632967971945527e-01 0.0000000000000000e+00  3.3550441362165374e-02 -1.3237737672611702e+00 0.0000000000000000e+00  8.1238851624495761e-02 -9.6305814460380734e-01 0.0000000000000000e+00  1.2819106857092283e-01 -9.8970788822312450e-01 0.0000000000000000e+00  1.7635930366288738e-01 -9.8627135475940275e-01 0.0000000000000000e+00  2.2102686044710648e-01 -9.7496696954749229e-01 0.0000000000000000e+00  2.6140073312483891e-01 -9.6541615302600514e-01 0.0000000000000000e+00  3.0988739680498900e-01 -9.5095200699639348e-01 0.0000000000000000e+00  3.5557488890483380e-01 -9.3477699103049672e-01 0.0000000000000000e+00  3.9096844356774380e-01 -9.2052166657081236e-01 0.0000000000000000e+00  4.3072673049243559e-01 -9.0258944233873828e-01 0.0000000000000000e+00  4.5918861598277283e-01 -8.8842838619093423e-01 0.0000000000000000e+00  4.9399179004785776e-01 -8.6957021223382447e-01 0.0000000000000000e+00  5.2172822215232828e-01 -8.5314660161809186e-01 0.0000000000000000e+00  5.3408883577598498e-01 -8.4551882872163497e-01 0.0000000000000000e+00  5.7099424746786664e-01 -8.2111169468208045e-01 0.0000000000000000e+00  6.0385799337455481e-01 -7.9716113969756019e-01 0.0000000000000000e+00  6.1570276472905039e-01 -7.8804147048700046e-01 0.0000000000000000e+00  6.4214851117903404e-01 -7.6659517628674112e-01 0.0000000000000000e+00  6.4249159636667152e-01 -7.6650730790861721e-01 0.0000000000000000e+00  6.8346506599381085e-01 -7.3013227754041565e-01 0.0000000000000000e+00  6.9886682360278540e-01 -7.1533074156641341e-01 0.0000000000000000e+00  6.6091052520035976e-01 -7.5098924273352630e-01 0.0000000000000000e+00  6.9070216224058223e-01 -7.2320529701795733e-01 0.0000000000000000e+00  6.9912422782424277e-01 -7.1511546769396583e-01 0.0000000000000000e+00  7.1281107552231515e-01 -7.0141432387802705e-01 0.0000000000000000e+00  7.1475653427968022e-01 -6.9950933630231937e-01 0.0000000000000000e+00  7.1585165115473604e-01 -6.9852182178528954e-01 0.0000000000000000e+00  7.1080135309562731e-01 -7.0317309246050252e-01 0.0000000000000000e+00  6.7541295915387123e-01 -7.4475937478843190e-01 0.0000000000000000e+00  8.3989184700876207e-01 -5.4588315375403340e-01 0.0000000000000000e+00  8.4229693228589531e-01 -5.3803106676650858e-01 0.0000000000000000e+00  8.0808772558502417e-01 -5.9269981761236445e-01 0.0000000000000000e+00  8.8562950925805306e-01 -4.6726436204923905e-01 0.0000000000000000e+00  9.2896382045420334e-01 -3.6927686892892786e-01 0.0000000000000000e+00  9.2920216260198307e-01 -3.7875855727591995e-01 0.0000000000000000e+00  9.8846253776492254e-01 -1.6167049265513606e-01 0.0000000000000000e+00  9.9612711944412669e-01 -9.7378011736160078e-02 0.0000000000000000e+00  9.3959858349855574e-01 -3.9030090946729357e-01 0.0000000000000000e+00  1.0045389145755124e+00 1.0355933395667561e-02 0.0000000000000000e+00  9.9908924606792615e-01 5.4526277048864716e-02 0.0000000000000000e+00  9.9840373686068429e-01 -7.0005104916354366e-02 0.0000000000000000e+00  1.0000667292745151e+00 -7.3342668856045002e-03 0.0000000000000000e+00  9.9986411449804469e-01 2.2838633311354387e-02 0.0000000000000000e+00  9.9935719096323972e-01 -4.3203427715469207e-02 0.0000000000000000e+00  1.0035077484793027e+00 -1.6245146877170615e-03 0.0000000000000000e+00  9.5570745925479439e-01 3.3116332151853733e-01 0.0000000000000000e+00  9.9729720191832749e-01 8.4226267606360941e-02 0.0000000000000000e+00  9.9016967334555706e-01 1.5001552385128999e-01 0.0000000000000000e+00  9.3690317873454332e-01 3.5799710031135873e-01 0.0000000000000000e+00  9.3145611208553547e-01 3.6331890930677740e-01 0.0000000000000000e+00  8.8512959506739941e-01 4.6822399206430587e-01 0.0000000000000000e+00  8.1591232869297969e-01 5.8131686065375732e-01 0.0000000000000000e+00  8.4711922064643486e-01 5.3061763271361528e-01 0.0000000000000000e+00  8.3002511427215941e-01 5.6015715302088720e-01 0.0000000000000000e+00  6.7818693049579160e-01 7.4135181834256425e-01 0.0000000000000000e+00  7.1462004222117204e-01 6.9935254676333369e-01 0.0000000000000000e+00  7.1196786130108791e-01 7.0261263891126324e-01 0.0000000000000000e+00  7.1789163661195166e-01 6.9628445458313493e-01 0.0000000000000000e+00  7.1878942989878902e-01 6.9528304504356975e-01 0.0000000000000000e+00  7.0638231643596916e-01 7.0794588997267405e-01 0.0000000000000000e+00  7.0099422025440272e-01 7.1320725324379430e-01 0.0000000000000000e+00  6.6923138627169931e-01 7.4379324817791648e-01 0.0000000000000000e+00  7.1977990516310408e-01 6.9440368385916840e-01 0.0000000000000000e+00  7.0520223330356313e-01 7.0924903290171804e-01 0.0000000000000000e+00  6.5439685436290906e-01 7.5649396173452099e-01 0.0000000000000000e+00  6.5992758791633788e-01 7.5133146246445015e-01 0.0000000000000000e+00  6.3400826143178624e-01 7.7339813989046879e-01 0.0000000000000000e+00  6.1966720189999769e-01 7.8491414712208085e-01 0.0000000000000000e+00  5.9329536423232032e-01 8.0511386595180390e-01 0.0000000000000000e+00  5.5994393074996629e-01 8.2857861216203499e-01 0.0000000000000000e+00  5.6408286668076169e-01 8.2582902176424022e-01 0.0000000000000000e+00  5.3184484785207420e-01 8.4709748472248270e-01 0.0000000000000000e+00  4.8010812241974937e-01 8.7735362524474636e-01 0.0000000000000000e+00  4.5801029030621820e-01 8.8908624398497782e-01 0.0000000000000000e+00  4.1244436368683457e-01 9.1112293444684689e-01 0.0000000000000000e+00  3.7943583570843631e-01 9.2539274243087366e-01 0.0000000000000000e+00  3.2815937756973013e-01 9.4487156960054941e-01 0.0000000000000000e+00  2.7048271359930826e-01 9.6301545369406061e-01 0.0000000000000000e+00  2.3270080663995110e-01 9.7199294327215702e-01 0.0000000000000000e+00  1.8725913377654618e-01 9.8421619057880538e-01 0.0000000000000000e+00  1.3509441562082786e-01 9.9506596242265155e-01 0.0000000000000000e+00  8.5970886854458223e-02 9.2104328414662084e-01 0.0000000000000000e+00  3.0946571651099881e-02 1.4574934783820956e+00 0.0000000000000000e+00  1.0122620966217431e-02 -1.1387649845771186e+00 0.0000000000000000e+00  7.1996457887382417e-02 -9.0275931698704115e-01 0.0000000000000000e+00  1.2225082310138892e-01 -1.0150641538439376e+00 0.0000000000000000e+00  1.6826185981790628e-01 -9.8304755573539759e-01 0.0000000000000000e+00  2.1304327044448632e-01 -9.7720465656848177e-01 0.0000000000000000e+00  2.5594298585692066e-01 -9.6691133327021028e-01 0.0000000000000000e+00  2.9919830520621088e-01 -9.5428365805679483e-01 0.0000000000000000e+00  3.3514165010859942e-01 -9.4228422018620739e-01 0.0000000000000000e+00  3.7583025413150384e-01 -9.2680258952862615e-01 0.0000000000000000e+00  4.0764915900999749e-01 -9.1318788135331896e-01 0.0000000000000000e+00  4.2774985034197877e-01 -9.0399816917826226e-01 0.0000000000000000e+00  4.7116968138102988e-01 -8.8220402463415148e-01 0.0000000000000000e+00  5.0552682411024774e-01 -8.6288967890834456e-01 0.0000000000000000e+00  5.2588412730083345e-01 -8.5060498042806587e-01 0.0000000000000000e+00  5.5093312593988242e-01 -8.3460521744411253e-01 0.0000000000000000e+00  5.7036105261546965e-01 -8.2143100823549575e-01 0.0000000000000000e+00  5.8760277897999746e-01 -8.0918671098660000e-01 0.0000000000000000e+00  6.0338195541080120e-01 -7.9750847076808196e-01 0.0000000000000000e+00  6.2044111721970163e-01 -7.8435686806453164e-01 0.0000000000000000e+00  6.4573344345050698e-01 -7.6370364808765978e-01 0.0000000000000000e+00  6.7375699458681693e-01 -7.3900851199711481e-01 0.0000000000000000e+00  6.8460219557019630e-01 -7.2900213609800069e-01 0.0000000000000000e+00  7.0390291277958383e-01 -7.1029259499753306e-01 0.0000000000000000e+00  7.0334862243384466e-01 -7.1117485377245104e-01 0.0000000000000000e+00  7.3829972748167605e-01 -6.7457804736797933e-01 0.0000000000000000e+00  7.4549229958687213e-01 -6.6651979393618710e-01 0.0000000000000000e+00  7.0829625837589505e-01 -7.0697536339546985e-01 0.0000000000000000e+00  7.4473391095690034e-01 -6.6774038458188201e-01 0.0000000000000000e+00  7.7388968352201093e-01 -6.3349962290720074e-01 0.0000000000000000e+00  7.8880371131407800e-01 -6.1511393658336877e-01 0.0000000000000000e+00  8.1996682653155761e-01 -5.7243331398823394e-01 0.0000000000000000e+00  8.2243782828973055e-01 -5.7006124935700520e-01 0.0000000000000000e+00  8.7140552357234158e-01 -4.9114981090342158e-01 0.0000000000000000e+00  8.8674328416975223e-01 -4.6211482140213972e-01 0.0000000000000000e+00  8.5461192561540111e-01 -5.2254691946892229e-01 0.0000000000000000e+00  9.1130917421878099e-01 -4.1330552679012306e-01 0.0000000000000000e+00  9.4044117182727527e-01 -3.4052305298725583e-01 0.0000000000000000e+00  9.5355658460043780e-01 -3.0212474764489838e-01 0.0000000000000000e+00  9.7159111679655841e-01 -2.3789808334775916e-01 0.0000000000000000e+00  9.8318728128379029e-01 -1.8379716577053748e-01 0.0000000000000000e+00  9.9102878842677133e-01 -1.3508307598615482e-01 0.0000000000000000e+00  9.9687967749976791e-01 -8.7189687549583561e-02 0.0000000000000000e+00  1.0037914210968683e-01 -1.0034236754952970e+00 0.0000000000000000e+00  6.6192063763886821e-01 -7.4995384454482805e-01 0.0000000000000000e+00  7.6342972381652252e-01 6.4626621768749037e-01 0.0000000000000000e+00  7.7105124323779223e-02 8.8658726994598103e-01 0.0000000000000000e+00  6.5486397421039888e-01 7.5612444457037220e-01 0.0000000000000000e+00  9.5770266584100416e-01 2.8870043260596828e-01 0.0000000000000000e+00  7.6261338811723745e-01 -6.4725264852869779e-01 0.0000000000000000e+00  1.0003583327494741e+00 -3.8986350245578572e-03 0.0000000000000000e+00  9.6224383986752915e-01 -2.7318881192386341e-01 0.0000000000000000e+00  8.9551757006723465e-01 4.4557744626589435e-01 0.0000000000000000e+00  1.0005458864317744e+00 8.8377041523739867e-03 0.0000000000000000e+00  9.3935535145001314e-01 3.4570080603462844e-01 0.0000000000000000e+00  8.9929502456595356e-01 -4.3792398868494103e-01 0.0000000000000000e+00  3.4362775579458676e-01 -9.3930616290830693e-01 0.0000000000000000e+00  6.1703071504102314e-01 -7.9400781121558994e-01 0.0000000000000000e+00  3.0660150290599292e-01 9.5203587815291357e-01 0.0000000000000000e+00  8.4392674098539633e-01 5.3878664318775782e-01 0.0000000000000000e+00  1.0009981441686002e+00 1.0311046194911074e-02 0.0000000000000000e+00  4.8169611596225925e-01 8.7658648889326685e-01 0.0000000000000000e+00  4.9416751610264636e-01 -8.6960418473838896e-01 0.0000000000000000e+00  6.9289280981639545e-01 -7.2316215647885218e-01 0.0000000000000000e+00  8.7078349267366828e-01 -4.9222809587322880e-01 0.0000000000000000e+00  8.6302353365150775e-01 5.0570679469619095e-01 0.0000000000000000e+00  8.5582547488580873e-01 -5.1902746949648149e-01 0.0000000000000000e+00  2.2263147627484303e-01 9.0295552618895436e-01 0.0000000000000000e+00  9.0750407296215063e-01 -4.2149721826884734e-01 0.0000000000000000e+00  6.4180129268526165e-01 7.7161873939261527e-01 0.0000000000000000e+00  1.0002739952490360e+00 8.5394007616476347e-03 0.0000000000000000e+00  1.0002139723698584e+00 9.1861275211670874e-03 0.0000000000000000e+00  7.8679076831522021e-01 -6.1776036798275402e-01 0.0000000000000000e+00  9.5498323747543468e-01 -2.9853643335965818e-01 0.0000000000000000e+00  8.8675542329869805e-01 -4.6392163241545564e-01 0.0000000000000000e+00  9.7429361153271565e-01 -2.2979265319704409e-01 0.0000000000000000e+00  7.3802812256614025e-01 -6.7565011896426286e-01 0.0000000000000000e+00  9.6548676655577281e-01 -2.6164926127708904e-01 0.0000000000000000e+00  1.0004569581921470e+00 9.2457428977205710e-03 0.0000000000000000e+00  9.6813444449925923e-01 -2.5197179660013197e-01 0.0000000000000000e+00  9.7562969962751167e-01 -2.2101407316706634e-01 0.0000000000000000e+00  1.0003066592529524e+00 5.3853858706893912e-04 0.0000000000000000e+00  9.6514969863012334e-01 2.6315617162093002e-01 0.0000000000000000e+00  9.7566867813465885e-01 2.2089401809410286e-01 0.0000000000000000e+00  9.5170347267055022e-01 3.0850118064515475e-01 0.0000000000000000e+00  9.9564950817200282e-01 9.5716149965303976e-02 0.0000000000000000e+00  9.9493266266285452e-01 -1.0289155658895059e-01 0.0000000000000000e+00  9.4916963320703041e-01 -3.1619366570073165e-01 0.0000000000000000e+00  2.1323266554860537e-01 9.8610344580971687e-01 0.0000000000000000e+00  5.0770785142546226e-01 8.6213038751325122e-01 0.0000000000000000e+00  2.8696447091810073e-01 9.5819914623507185e-01 0.0000000000000000e+00  8.6312962396943838e-01 5.0848420235414171e-01 0.0000000000000000e+00  6.9755377088137227e-01 7.1725998422833059e-01 0.0000000000000000e+00  8.5413350894724749e-01 5.2071755437696876e-01 0.0000000000000000e+00  8.5443145716521351e-01 -5.2023025615198326e-01 0.0000000000000000e+00  5.6495894532552282e-01 -8.2566996102296875e-01 0.0000000000000000e+00  7.8477422448163558e-01 -6.2261231376034532e-01 0.0000000000000000e+00  4.0197582361558271e-01 -9.1613732084110966e-01 0.0000000000000000e+00  8.4454645003214701e-01 -5.3597892815435311e-01 0.0000000000000000e+00  9.2824602743466211e-01 -3.7340376441426854e-01 0.0000000000000000e+00  9.3224404571329578e-01 -3.6252361068721795e-01 0.0000000000000000e+00  8.6348823265348118e-01 -5.0480896396709651e-01 0.0000000000000000e+00  8.5571938116210700e-01 5.1786462185956750e-01 0.0000000000000000e+00  9.2649145125078347e-01 3.7696715201599323e-01 0.0000000000000000e+00  6.3059016312358795e-01 7.7623747111049513e-01 0.0000000000000000e+00  7.3103554754632227e-01 6.8247652717817120e-01 0.0000000000000000e+00  7.2194731974202353e-01 -6.9210290862075907e-01 0.0000000000000000e+00  6.2079291687451543e-01 -7.8410565608324001e-01 0.0000000000000000e+00  6.3737049088529785e-01 -7.7071160657197213e-01 0.0000000000000000e+00  5.1152698060542756e-01 -8.5939092206645251e-01 0.0000000000000000e+00  4.9962458891730194e-01 8.6637180529483249e-01 0.0000000000000000e+00  6.2555366846644944e-01 7.8033796274553846e-01 0.0000000000000000e+00  1.8514435923081541e-02 -1.3955101666752610e+00 0.0000000000000000e+00  1.7668453774464560e-01 9.8447164799482656e-01 0.0000000000000000e+00  1.8234951258011561e-01 -9.8522101413001517e-01 0.0000000000000000e+00  2.8416673576461189e-03 7.3698160261918966e-01 0.0000000000000000e+00  5.1925784373446759e-01 -8.5487343846790786e-01 0.0000000000000000e+00  9.7347017159763760e-01 2.3389009693826893e-01 0.0000000000000000e+00  8.8063822393369162e-01 4.7538487986893485e-01 0.0000000000000000e+00  7.2214879691496559e-01 6.9266667204619703e-01 0.0000000000000000e+00  8.3505717443865413e-01 5.5113179860202699e-01 0.0000000000000000e+00  9.9006808331169560e-01 1.4536611895330731e-01 0.0000000000000000e+00  9.2598970111640500e-01 3.7889715668243801e-01 0.0000000000000000e+00  6.5975405887161298e-01 7.5384745373611795e-01 0.0000000000000000e+00  9.4818423028038978e-01 2.9834921338122866e-01 0.0000000000000000e+00  1.0029279961559454e+00 3.2601691945207983e-02 0.0000000000000000e+00  7.8374704754380431e-01 6.2128113251159112e-01 0.0000000000000000e+00  7.8033313727058640e-01 -6.2559377647246006e-01 0.0000000000000000e+00  8.4337231989244843e-01 5.3778047392944428e-01 0.0000000000000000e+00  9.4969798186644527e-01 3.1490407085920485e-01 0.0000000000000000e+00  7.7873607661300315e-01 6.2787849230059245e-01 0.0000000000000000e+00  9.6110235581140069e-01 2.7731125448613420e-01 0.0000000000000000e+00  5.2109013088447431e-01 8.5406937924246273e-01 0.0000000000000000e+00  5.0107327740430041e-01 8.6567065523236231e-01 0.0000000000000000e+00  1.0503186194420229e-01 -9.2223064178467351e-01 0.0000000000000000e+00  1.4251227731543770e-01 -9.9316136617046014e-01 0.0000000000000000e+00  5.4957443859194466e-01 -8.3598820851360345e-01 0.0000000000000000e+00  3.0108863223308080e-01 -9.5418449218771817e-01 0.0000000000000000e+00  3.0939153501387373e-01 -9.5115391705678387e-01 0.0000000000000000e+00  1.0011749045165510e+00 -3.0358083498457287e-02 0.0000000000000000e+00  -6.4698173570252393e-03 3.1293788736583544e-01 0.0000000000000000e+00  3.8007647962258689e-01 -9.2507774725936220e-01 0.0000000000000000e+00  2.0277144302111413e-01 -9.7899785548523999e-01 0.0000000000000000e+00  1.7898945523229243e-01 9.8455688419255294e-01 0.0000000000000000e+00  3.5593017243206337e-01 9.3463923128481241e-01 0.0000000000000000e+00  9.6462445045870460e-01 -1.9877559678640946e-01 0.0000000000000000e+00  2.7420878199650145e-01 9.6287188761862919e-01 0.0000000000000000e+00  1.0569308123661418e-01 1.0147974635162202e+00 0.0000000000000000e+00  3.4558498213123623e-01 9.3852827909296943e-01 0.0000000000000000e+00  5.1214076104945272e-01 8.5903015404126903e-01 0.0000000000000000e+00  6.4610244149561857e-01 7.6354848508378281e-01 0.0000000000000000e+00  5.0657228744193339e-01 -8.6232187660323567e-01 0.0000000000000000e+00  3.4832509823496055e-01 -9.3750481111015183e-01 0.0000000000000000e+00  6.4757782351959758e-01 -7.6228987973653084e-01 0.0000000000000000e+00  9.8386425777648356e-01 -1.8229216711607313e-01 0.0000000000000000e+00  8.2487200955827344e-01 -5.6613145364745543e-01 0.0000000000000000e+00  1.0003200050646344e+00 1.0086400050204093e-02 0.0000000000000000e+00  9.725731