<?xml version="1.0"?>
<VTKFile type="UnstructuredGrid"  version="0.1"  >
<UnstructuredGrid>
<Piece  NumberOfPoints="2549" NumberOfCells="4928">
<Points>
<DataArray  type="Float64"  NumberOfComponents="3"  format="ascii">1.638395186688502 -0.03760572581778678 0  1.635320066911391 0.009953603306739649 0  1.628591858549835 0.05701194042686625 0  1.620279694223064 0.1041945715429778 0  1.608960289641547 0.1510444260643752 0  1.59539048974523 0.1977544345668199 0  1.578454004081401 0.2437788236278861 0  1.56003497571065 0.2896428785710884 0  1.535951089933845 0.332903917612652 0  1.510626329169449 0.37457903834769 0  1.487315720054373 0.4208634870108144 0  1.458661359766714 0.4628053720963598 0  1.429497704488642 0.5051630399985528 0  1.398333757061359 0.5462131152836417 0  1.365609716221152 0.5865436617970986 0  1.33137879478627 0.6258599876442258 0  1.295269748212325 0.6634869402038963 0  1.25908306099869 0.6997906035443806 0  1.222823575285851 0.7407039962391327 0  1.184409446280295 0.778196820024704 0  1.145430691677376 0.8165474450524612 0  1.105150541332519 0.8538995479072777 0  1.064039793292968 0.8912808362826067 0  1.021384155295373 0.9276362159326448 0  0.9772307297603035 0.9626833883298744 0  0.9324510624519757 0.996219716196764 0  0.8863677818537596 1.029313364111762 0  0.8392266508977533 1.061519581616376 0  0.7910860891182505 1.092955494533087 0  0.7417965011571387 1.12314050990182 0  0.6914474341129399 1.152097822960148 0  0.6400485796954454 1.179632581929659 0  0.5874082563885578 1.205116321547226 0  0.5339124894014718 1.228726312145444 0  0.4794876156210754 1.250841215815186 0  0.4240843978249614 1.270607127217673 0  0.3678914229204581 1.288270792805033 0  0.3109296655186946 1.303514606478634 0  0.2533140802682742 1.316313383757381 0  0.1951668076853188 1.326582732146887 0  0.1365155905370782 1.333932984133107 0  0.07765957737458798 1.338586891122673 0  0.01860785394205415 1.340751844906654 0  -0.04047425369161007 1.340041002028359 0  -0.09947082198366011 1.336561388643399 0  -0.1582240422700218 1.330224096412278 0  -0.2166099628651506 1.321152445708996 0  -0.274466157635327 1.309169754566278 0  -0.3316866316635535 1.294813507204995 0  -0.3882748766695976 1.277789957326129 0  -0.4438443501006976 1.257898811551334 0  -0.4984627923895723 1.235653173827076 0  -0.5520888065240631 1.211365394026306 0  -0.6044936480753585 1.184845866479013 0  -0.6559901515163862 1.157019204814186 0  -0.7060145523075749 1.126836795485124 0  -0.7549266093757928 1.096378090229983 0  -0.803032210163501 1.064319400351012 0  -0.8493855895689135 1.030201985002281 0  -0.8944503962556055 0.9950867541428275 0  -0.9384787656764241 0.9595557861232575 0  -0.9810172824863961 0.9228408960108023 0  -1.023053461601108 0.8868562862856756 0  -1.062253323131999 0.8469376728577706 0  -1.101478741851677 0.8113193566116904 0  -1.140194351395049 0.7755601678376685 0  -1.177570726185093 0.7386144720056271 0  -1.214269153127531 0.7022039617041314 0  -1.249705211545119 0.6649361232877127 0  -1.284776791719549 0.6294210730901786 0  -1.319609427935489 0.5927104517009585 0  -1.35418868408879 0.5592835898381932 0  -1.389212621461289 0.522348715254599 0  -1.412985798318227 0.4755868192675679 0  -1.445925818122507 0.4341666835880929 0  -1.471574529798271 0.3893621214224285 0  -1.494809412596154 0.3430856458688302 0  -1.511401476039219 0.2939883815657754 0  -1.529892539635172 0.2468965319634204 0  -1.530439711384366 0.1925259242231557 0  -1.545245463188541 0.1483161107687358 0  -1.557076910105751 0.1016425718900352 0  -1.549764369820951 0.05373538904012681 0  -1.554337712599134 0.007535340405048903 0  -1.553456823482974 -0.03839565108080683 0  -1.555506318330659 -0.08431184565374274 0  -1.552748804897412 -0.1307398882903856 0  -1.558016856620298 -0.1791121134146625 0  -1.548375608942069 -0.2262182581081987 0  -1.535405845232496 -0.2711533473556172 0  -1.534915202644544 -0.3264167437636196 0  -1.517503354909073 -0.3742127344066428 0  -1.501270945086037 -0.4240126507709295 0  -1.478141170120738 -0.47052744632565 0  -1.452496435193011 -0.515560498147778 0  -1.420482904164579 -0.5572438069492417 0  -1.396058203958926 -0.6038873291009165 0  -1.360606736349735 -0.6408495185826572 0  -1.326139066520806 -0.6747563366577581 0  -1.291095353271898 -0.7113796404737313 0  -1.255977598630351 -0.7469754974954068 0  -1.220680568910088 -0.7845774801543332 0  -1.184188458675373 -0.8214717878054921 0  -1.147048119870404 -0.8590339613242437 0  -1.108636473248199 -0.8955211933747255 0  -1.069516412036737 -0.9320047288276073 0  -1.031159051934193 -0.974248909739866 0  -0.9890699923228526 -1.011436920744585 0  -0.9466197936237243 -1.049608561777192 0  -0.9026656500749168 -1.086746623505713 0  -0.8576171833167618 -1.123477673102236 0  -0.8111384301724468 -1.159171362123457 0  -0.763211503630201 -1.193343757581826 0  -0.7139000947544961 -1.226322813567862 0  -0.6641673026390178 -1.260447108321707 0  -0.611898338175525 -1.290332965351812 0  -0.5590305328891765 -1.319093820853218 0  -0.5047468438715833 -1.34536025964962 0  -0.4494314274872063 -1.369435314491344 0  -0.3931810470546455 -1.391145482687958 0  -0.3355908851784654 -1.409278838241091 0  -0.2774532309387411 -1.424488921503734 0  -0.2186430825159487 -1.437465220862388 0  -0.1592107472842669 -1.447207235219799 0  -0.09936663515116326 -1.45404221998121 0  -0.03922841853078803 -1.457717725275693 0  0.02102872757128998 -1.45828638679281 0  0.08124655816596445 -1.45564869485381 0  0.1412557768180336 -1.449817468679161 0  0.2008332089737901 -1.441007141003869 0  0.2599107216508028 -1.429511846872235 0  0.3183506128707126 -1.415290341521497 0  0.376075257362226 -1.39856336497714 0  0.4329213754247433 -1.379288105199494 0  0.4889346704573499 -1.358030324537568 0  0.5438319462443616 -1.334178939972392 0  0.5977305376158456 -1.309355393526222 0  0.6508986157711767 -1.28252428016499 0  0.7025089288582455 -1.253150146003032 0  0.7530835399635852 -1.222534307402258 0  0.8024940283794306 -1.19070846809441 0  0.8507126406757721 -1.157717816831859 0  0.8978578441546239 -1.123999110621601 0  0.9438932230250713 -1.089500445982451 0  0.9885910674970415 -1.054678752572922 0  1.032639370156725 -1.018350446034802 0  1.075131477432029 -0.9807220393730874 0  1.11606423985928 -0.942188464282166 0  1.156104307656284 -0.9036787439243394 0  1.194802594983377 -0.8642045731780151 0  1.232963863626264 -0.8257227637770796 0  1.268778657281851 -0.7836152604888895 0  1.30462351678256 -0.7465382838088389 0  1.340551223953893 -0.708354292335149 0  1.374406904816426 -0.668255729845077 0  1.40682309227901 -0.6273103960435016 0  1.437665572951046 -0.5856482787572334 0  1.466484070420596 -0.5426780660873245 0  1.494708429987099 -0.5001277901062499 0  1.517659294905303 -0.4532635369789931 0  1.542614491634123 -0.4111580728258962 0  1.566215422169909 -0.3673877950701552 0  1.584072686577445 -0.320990587142105 0  1.600322146001123 -0.274480793105945 0  1.613164869724837 -0.227315174539316 0  1.623523337309761 -0.1800231521276606 0  1.630899260448884 -0.1325358509410076 0  1.636411209749802 -0.08522129634309306 0  -0.08076929982341557 0.8002875764991254 0  0.618798411810681 -0.719196064044673 0  -0.7273286058461513 -0.6295169256907186 0  -0.05688125034991009 -0.8905130130747061 0  0.6145056049425742 0.6235769695935149 0  1.166784070334192 0.2040479226184354 0  -0.739907950370163 0.5297961712848696 0  -1.210059627921967 -0.04314998537654355 0  1.171007423568046 -0.2864104110605239 0  -1.015681412351386 -0.4548896939368507 0  -0.7765339513488725 -0.0579834405300426 0  -0.4558044551689383 -0.2323171124128814 0  -1.026240655236653 0.3496487398869982 0  0.2990939679356988 -0.8676567662647232 0  0.1542324917898941 -0.2931585716166062 0  0.2625683311801165 0.7619109428374137 0  0.3546966547472297 0.2036677465694083 0  0.6694639437945926 -0.04231387887288726 0  -0.3919072774179884 -0.7828286006032761 0  -0.4286860824684355 0.7053426343916714 0  -0.2559345163846065 0.2597054026287352 0  0.9245169243509619 -0.4925250487834321 0  0.9203312557646217 0.4062943663436343 0  0.4224623775935276 -0.324096662076703 0  0.04760237903341766 0.2551321898503653 0  -0.519147716986733 0.1986567255513313 0  -0.1536577251316021 -0.2855126435141563 0  0.9529296043008868 -0.04191867979539531 0  1.360202775725446 -0.03956080262894079 0  0.771989333091805 -0.602971287751105 0  0.7882442036656769 -0.2768873527000617 0  0.6347142382541163 -0.3776356823557618 0  0.5446175985262371 -0.1793117373942298 0  0.5147516763264984 -0.5268604047351999 0  0.9316062325975545 -0.2656348707035198 0  0.810520595594308 -0.04209378825539428 0  -0.8929600664728041 0.1551346248750012 0  -1.113688921136655 0.1492087892012046 0  -0.9953734506154618 -0.04966039547056314 0  -0.8875725133159622 -0.2651127736379268 0  -1.108932175238572 -0.2441046703406097 0  -1.283729654866654 -0.3364875005968532 0  -1.371405417002339 -0.1527160394131594 0  -1.369381434195196 0.07043631302218305 0  -1.279309702039641 0.2529139397356322 0  -0.105860412895244 -0.5876467418681462 0  -0.2660710238793509 -0.5401121995858585 0  -0.2257223518784098 -0.8420450087190972 0  -0.3041914785469038 -0.2600055542639113 0  -0.4201284100383507 -0.5051935450802255 0  -1.202465030846983 -0.5337042923309339 0  -1.203961318707758 0.4418979722399463 0  0.3596104013995474 -0.593411553721268 0  0.2875563809156212 -0.3102427759166269 0  0.2211246748542207 -0.5834098486127697 0  -0.8825055531344179 0.4355327181251922 0  -0.7487302939127631 0.2337817817745586 0  1.354515666115427 -0.3593875245624523 0  1.226050822923943 -0.5243647967419884 0  1.219283502195605 0.4418100541267387 0  1.349047471041803 0.2793150912200341 0  -0.7328689735808562 -0.9129293267603937 0  -0.9074570533146727 -0.7778132314608628 0  -0.9104469897224401 0.6856046877213141 0  -0.7363935235496796 0.8140815123739379 0  0.7904360109164202 -0.9016678838007293 0  0.6010810215031451 -1.014607282469563 0  0.5942731796306866 0.9152185186887555 0  0.7830530399693268 0.8079190066348565 0  0.031538499339977
[...]
<PointData  Vectors="f_18347"> 
<DataArray  type="Float64"  Name="f_18347"  NumberOfComponents="3" format="ascii">1.0006825864232263e+00 1.0852174711121265e-02 0.0000000000000000e+00  9.9441962712993304e-01 1.1237801166955153e-01 0.0000000000000000e+00  9.8770315454872748e-01 1.5742949959265060e-01 0.0000000000000000e+00  9.7936024303312774e-01 2.0313966808607600e-01 0.0000000000000000e+00  9.6707972245471574e-01 2.5555996395201275e-01 0.0000000000000000e+00  9.4894344532174768e-01 3.1624027001443644e-01 0.0000000000000000e+00  9.3566135581694665e-01 3.5341954355230271e-01 0.0000000000000000e+00  9.0640784486517934e-01 4.2388053522566516e-01 0.0000000000000000e+00  8.4927006258738791e-01 5.3115677787537952e-01 0.0000000000000000e+00  8.8347357312298369e-01 4.6837549685945784e-01 0.0000000000000000e+00  8.6673462743544405e-01 4.9936673575260015e-01 0.0000000000000000e+00  8.1658438208893913e-01 5.7843082792184175e-01 0.0000000000000000e+00  8.1517249829926675e-01 5.7922482054922719e-01 0.0000000000000000e+00  7.8422293502503593e-01 6.2091918084227704e-01 0.0000000000000000e+00  7.6730111354047037e-01 6.4147546277867695e-01 0.0000000000000000e+00  7.3920105322580121e-01 6.7383654188229436e-01 0.0000000000000000e+00  7.0398204829204980e-01 7.1112163719186294e-01 0.0000000000000000e+00  7.3557831742263624e-01 6.7743069932657507e-01 0.0000000000000000e+00  7.2850983445690420e-01 6.8513508182945326e-01 0.0000000000000000e+00  6.9443289562300303e-01 7.1986230926060035e-01 0.0000000000000000e+00  6.9364934963103919e-01 7.2031278502684182e-01 0.0000000000000000e+00  6.7520422557705151e-01 7.3770599342783405e-01 0.0000000000000000e+00  6.6364345935932445e-01 7.4810942257280211e-01 0.0000000000000000e+00  6.3451614994908334e-01 7.7305129412978590e-01 0.0000000000000000e+00  6.0949834836046157e-01 7.9288426246540422e-01 0.0000000000000000e+00  5.9123553158072395e-01 8.0656061480659735e-01 0.0000000000000000e+00  5.7378889384781706e-01 8.1904587031421583e-01 0.0000000000000000e+00  5.5587034774126443e-01 8.3130907963870626e-01 0.0000000000000000e+00  5.3527239302843210e-01 8.4473528070441506e-01 0.0000000000000000e+00  5.1006638840811480e-01 8.6019065648746418e-01 0.0000000000000000e+00  4.8687501758160273e-01 8.7354434022669303e-01 0.0000000000000000e+00  4.5473072725875185e-01 8.9074616658208383e-01 0.0000000000000000e+00  4.1813586267225383e-01 9.0846658424420079e-01 0.0000000000000000e+00  3.9132651654852646e-01 9.2032673043585800e-01 0.0000000000000000e+00  3.5714157777819228e-01 9.3416233956029859e-01 0.0000000000000000e+00  3.1762926666677782e-01 9.4833654631332909e-01 0.0000000000000000e+00  2.8003730539253413e-01 9.6006742126669564e-01 0.0000000000000000e+00  2.3744404982298067e-01 9.7160034690860508e-01 0.0000000000000000e+00  1.9635435901037254e-01 9.8122783487602139e-01 0.0000000000000000e+00  1.4950941824584019e-01 9.8257919276891603e-01 0.0000000000000000e+00  1.0018983218442999e-01 1.0292597140190003e+00 0.0000000000000000e+00  6.0243382662364203e-02 9.0843272888576010e-01 0.0000000000000000e+00  4.4935012999575774e-03 8.3048616373203099e-01 0.0000000000000000e+00  3.4925415358214182e-02 -1.3158750786388289e+00 0.0000000000000000e+00  8.2830510410451016e-02 -9.6510463247313438e-01 0.0000000000000000e+00  1.3020456850291492e-01 -9.8949686960033445e-01 0.0000000000000000e+00  1.7877838835265369e-01 -9.8569124762766192e-01 0.0000000000000000e+00  2.2381734897201117e-01 -9.7437567847497886e-01 0.0000000000000000e+00  2.6439720751400714e-01 -9.6459473069001889e-01 0.0000000000000000e+00  3.1302194588507515e-01 -9.4992603071529536e-01 0.0000000000000000e+00  3.5888733737829526e-01 -9.3351057614803079e-01 0.0000000000000000e+00  3.9412030087953892e-01 -9.1917637106880778e-01 0.0000000000000000e+00  4.3398348301427786e-01 -9.0102805019773613e-01 0.0000000000000000e+00  4.6237116541586265e-01 -8.8677623993781540e-01 0.0000000000000000e+00  4.9719662248846924e-01 -8.6774266542146039e-01 0.0000000000000000e+00  5.2520594051284553e-01 -8.5101096891431638e-01 0.0000000000000000e+00  5.3753191893715224e-01 -8.4333439871871896e-01 0.0000000000000000e+00  5.7434743589893145e-01 -8.1877040379927546e-01 0.0000000000000000e+00  6.0724829804284641e-01 -7.9458165086075283e-01 0.0000000000000000e+00  6.1886531095106390e-01 -7.8556047182419142e-01 0.0000000000000000e+00  6.4518494381701974e-01 -7.6403829714662352e-01 0.0000000000000000e+00  6.4478560889574998e-01 -7.6459684508381964e-01 0.0000000000000000e+00  6.8697060077690242e-01 -7.2684416107710725e-01 0.0000000000000000e+00  7.0265756365688170e-01 -7.1161395318102028e-01 0.0000000000000000e+00  6.6378518710199119e-01 -7.4847555493744145e-01 0.0000000000000000e+00  6.9459144637353221e-01 -7.1947082164630038e-01 0.0000000000000000e+00  7.0277366413057363e-01 -7.1152870573214066e-01 0.0000000000000000e+00  7.1652611100985131e-01 -6.9761964487973460e-01 0.0000000000000000e+00  7.1862709225452281e-01 -6.9552418922727699e-01 0.0000000000000000e+00  7.1890781356941902e-01 -6.9540760213538866e-01 0.0000000000000000e+00  7.1772052039960077e-01 -6.9603375232423148e-01 0.0000000000000000e+00  6.7643462927229925e-01 -7.4421808148448110e-01 0.0000000000000000e+00  8.4228771514337775e-01 -5.4220612582325989e-01 0.0000000000000000e+00  8.4920440638710326e-01 -5.2716265089889069e-01 0.0000000000000000e+00  8.0737339793387886e-01 -5.9400240579619223e-01 0.0000000000000000e+00  8.8510671158053011e-01 -4.6838287835065867e-01 0.0000000000000000e+00  9.3034276024057183e-01 -3.6582087407659991e-01 0.0000000000000000e+00  9.2909106920129425e-01 -3.7942724177268100e-01 0.0000000000000000e+00  9.8903506525222196e-01 -1.5840285582265543e-01 0.0000000000000000e+00  9.9646805862497057e-01 -9.4464776111048004e-02 0.0000000000000000e+00  9.3837307643874779e-01 -3.9546255098790167e-01 0.0000000000000000e+00  1.0046110643065633e+00 1.2932215098238288e-02 0.0000000000000000e+00  9.9897156776781026e-01 5.6946561366016932e-02 0.0000000000000000e+00  9.9833986011955356e-01 -7.2083593240047275e-02 0.0000000000000000e+00  1.0000695929337031e+00 -7.1416857050946468e-03 0.0000000000000000e+00  9.9984768834397064e-01 2.4301449529115726e-02 0.0000000000000000e+00  9.9931580031651990e-01 -4.4185687736850797e-02 0.0000000000000000e+00  1.0035757901364295e+00 -3.2580645516281023e-03 0.0000000000000000e+00  9.5496110422994640e-01 3.3469514478281898e-01 0.0000000000000000e+00  9.9754431509200270e-01 8.1896299824118030e-02 0.0000000000000000e+00  9.9055930910559831e-01 1.4762394859780043e-01 0.0000000000000000e+00  9.3681781817503562e-01 3.5848950352002212e-01 0.0000000000000000e+00  9.3252001807711682e-01 3.6058239365810901e-01 0.0000000000000000e+00  8.8505848268749987e-01 4.6846433026028139e-01 0.0000000000000000e+00  8.1513277310081078e-01 5.8265538108169845e-01 0.0000000000000000e+00  8.5178104065541538e-01 5.2316150734290845e-01 0.0000000000000000e+00  8.3330965196096385e-01 5.5534378945579921e-01 0.0000000000000000e+00  6.7959262239204243e-01 7.4035617792251140e-01 0.0000000000000000e+00  7.1991380757451451e-01 6.9385466409895835e-01 0.0000000000000000e+00  7.1571280437046170e-01 6.9880260258994720e-01 0.0000000000000000e+00  7.2160622500615645e-01 6.9242668834478915e-01 0.0000000000000000e+00  7.2228273195262027e-01 6.9165184642500155e-01 0.0000000000000000e+00  7.0986565649903921e-01 7.0444871577088752e-01 0.0000000000000000e+00  7.0474160917063589e-01 7.0950511951895212e-01 0.0000000000000000e+00  6.7091403468443012e-01 7.4233915941454598e-01 0.0000000000000000e+00  7.2375298426453205e-01 6.9028839093691907e-01 0.0000000000000000e+00  7.0876617684473275e-01 7.0571455868011812e-01 0.0000000000000000e+00  6.5532326898124238e-01 7.5573700688900403e-01 0.0000000000000000e+00  6.6256512063658146e-01 7.4900256215529737e-01 0.0000000000000000e+00  6.3668865593075319e-01 7.7119321995294565e-01 0.0000000000000000e+00  6.2254118695088412e-01 7.8263608312359823e-01 0.0000000000000000e+00  5.9619667404876353e-01 8.0297453975108768e-01 0.0000000000000000e+00  5.6148956730786903e-01 8.2754094528246269e-01 0.0000000000000000e+00  5.6730215206315271e-01 8.2362470523825504e-01 0.0000000000000000e+00  5.3484793428526667e-01 8.4521580215394398e-01 0.0000000000000000e+00  4.8166764881368818e-01 8.7650354112519135e-01 0.0000000000000000e+00  4.6096088768539539e-01 8.8755837289763639e-01 0.0000000000000000e+00  4.1507472640795828e-01 9.0992658495107293e-01 0.0000000000000000e+00  3.8276483463414579e-01 9.2402017867754327e-01 0.0000000000000000e+00  3.3131822887124696e-01 9.4377673017490071e-01 0.0000000000000000e+00  2.7340683669192650e-01 9.6216010809582142e-01 0.0000000000000000e+00  2.3561618556102168e-01 9.7138656101981091e-01 0.0000000000000000e+00  1.8975090678301829e-01 9.8371515232024287e-01 0.0000000000000000e+00  1.3717888202602407e-01 9.9305620163625552e-01 0.0000000000000000e+00  8.7618065485718918e-02 9.3221808102460091e-01 0.0000000000000000e+00  3.2776354011109080e-02 1.4247382029444520e+00 0.0000000000000000e+00  8.8979627051303852e-03 -1.0833620274412470e+00 0.0000000000000000e+00  7.1821345614723697e-02 -9.0266036748535983e-01 0.0000000000000000e+00  1.2233021010110647e-01 -1.0166525400591848e+00 0.0000000000000000e+00  1.6883361718013559e-01 -9.8267272251649318e-01 0.0000000000000000e+00  2.1406176205166003e-01 -9.7697043847597476e-01 0.0000000000000000e+00  2.5733120851413271e-01 -9.6656818308387937e-01 0.0000000000000000e+00  3.0097632850578082e-01 -9.5372165311763268e-01 0.0000000000000000e+00  3.3716898188661604e-01 -9.4156424925434967e-01 0.0000000000000000e+00  3.7814142799963185e-01 -9.2586634285288327e-01 0.0000000000000000e+00  4.1041216715693635e-01 -9.1195274309049956e-01 0.0000000000000000e+00  4.3054405720389927e-01 -9.0266884392585578e-01 0.0000000000000000e+00  4.7414455112565251e-01 -8.8061310230460810e-01 0.0000000000000000e+00  5.0861205028994427e-01 -8.6107873547312352e-01 0.0000000000000000e+00  5.2886926759017250e-01 -8.4875241778232480e-01 0.0000000000000000e+00  5.5402278907914237e-01 -8.3255890593361359e-01 0.0000000000000000e+00  5.7354888549158389e-01 -8.1920829876343237e-01 0.0000000000000000e+00  5.9095732035979731e-01 -8.0673866936891936e-01 0.0000000000000000e+00  6.0690078462302410e-01 -7.9483113154869256e-01 0.0000000000000000e+00  6.2417729323165061e-01 -7.8137934210439486e-01 0.0000000000000000e+00  6.4913717104179269e-01 -7.6080761061243052e-01 0.0000000000000000e+00  6.7703361470158374e-01 -7.3600794807175662e-01 0.0000000000000000e+00  6.8797086053026502e-01 -7.2581747780816708e-01 0.0000000000000000e+00  7.0700388199674835e-01 -7.0720337696180569e-01 0.0000000000000000e+00  7.0621213748157396e-01 -7.0832414515557296e-01 0.0000000000000000e+00  7.4109602075833392e-01 -6.7150642743342426e-01 0.0000000000000000e+00  7.4867723880126302e-01 -6.6294114678012062e-01 0.0000000000000000e+00  7.1170318379899644e-01 -7.0351652911025064e-01 0.0000000000000000e+00  7.4756489300166418e-01 -6.6456058249898808e-01 0.0000000000000000e+00  7.7644639345383526e-01 -6.3035880469243433e-01 0.0000000000000000e+00  7.9128421646263947e-01 -6.1190806797560138e-01 0.0000000000000000e+00  8.2209938786659231e-01 -5.6935958763571504e-01 0.0000000000000000e+00  8.2414618449836352e-01 -5.6758888821886189e-01 0.0000000000000000e+00  8.7302132464793103e-01 -4.8827493652344500e-01 0.0000000000000000e+00  8.8831388905436448e-01 -4.5909642668060074e-01 0.0000000000000000e+00  8.5574130882993626e-01 -5.2071313871534841e-01 0.0000000000000000e+00  9.1228010087512856e-01 -4.1114848314351199e-01 0.0000000000000000e+00  9.4108518963329213e-01 -3.3872587454428787e-01 0.0000000000000000e+00  9.5397827174813532e-01 -3.0078378477854678e-01 0.0000000000000000e+00  9.7189350038850342e-01 -2.3664559931023210e-01 0.0000000000000000e+00  9.8334759397602756e-01 -1.8292139658797196e-01 0.0000000000000000e+00  9.9110948815307831e-01 -1.3445808524905808e-01 0.0000000000000000e+00  9.9689034096665485e-01 -8.7025560563694773e-02 0.0000000000000000e+00  1.0996423043368821e-01 -1.0201459265926616e+00 0.0000000000000000e+00  6.5604008653954138e-01 -7.5509366330395666e-01 0.0000000000000000e+00  7.6459845123937109e-01 6.4487694905851878e-01 0.0000000000000000e+00  8.4808861840869151e-02 8.9050294891472137e-01 0.0000000000000000e+00  6.5160004830742879e-01 7.5893733343864389e-01 0.0000000000000000e+00  9.5813576659768940e-01 2.8725873683248881e-01 0.0000000000000000e+00  7.6634718388054934e-01 -6.4282790002851653e-01 0.0000000000000000e+00  1.0003575950729628e+00 -2.4710377511452625e-03 0.0000000000000000e+00  9.6190698669896935e-01 -2.7436432995270166e-01 0.0000000000000000e+00  8.9594150861463817e-01 4.4471590195778526e-01 0.0000000000000000e+00  1.0005007972390227e+00 1.2413337266269244e-02 0.0000000000000000e+00  9.3839819182383166e-01 3.4821327175995481e-01 0.0000000000000000e+00  9.0114388395722034e-01 -4.3410322479084795e-01 0.0000000000000000e+00  3.3450769347090575e-01 -9.4257435554879720e-01 0.0000000000000000e+00  5.8395230388064134e-01 -8.1587367438690317e-01 0.0000000000000000e+00  2.9808779943251790e-01 9.5480857628563498e-01 0.0000000000000000e+00  8.3861847299521031e-01 5.4716120875017693e-01 0.0000000000000000e+00  1.0010721632552466e+00 5.2731296469073104e-03 0.0000000000000000e+00  4.8645723350863351e-01 8.7395041424066799e-01 0.0000000000000000e+00  5.0097784397627543e-01 -8.6570051326689912e-01 0.0000000000000000e+00  7.0409395895435400e-01 -7.1225381333645887e-01 0.0000000000000000e+00  8.6889835357725986e-01 -4.9554098351862325e-01 0.0000000000000000e+00  8.6304942812385732e-01 5.0566338299715863e-01 0.0000000000000000e+00  8.4585695260564886e-01 -5.3513302286492581e-01 0.0000000000000000e+00  1.6714815321432341e-01 1.1039007054064449e+00 0.0000000000000000e+00  9.1102551630438200e-01 -4.1381934796844311e-01 0.0000000000000000e+00  6.5307577418252072e-01 7.6079767139220911e-01 0.0000000000000000e+00  1.0002965854981714e+00 5.8597616742662260e-03 0.0000000000000000e+00  1.0002194338405122e+00 8.3847909564297336e-03 0.0000000000000000e+00  7.8306414194711627e-01 -6.2246805526340754e-01 0.0000000000000000e+00  9.5304934113142248e-01 -3.0466664427561807e-01 0.0000000000000000e+00  8.8185369410699033e-01 -4.7318135338870881e-01 0.0000000000000000e+00  9.7162333475538898e-01 -2.4095298874592000e-01 0.0000000000000000e+00  7.2887272913596013e-01 -6.8550730160949003e-01 0.0000000000000000e+00  9.6442441813622470e-01 -2.6554055481202388e-01 0.0000000000000000e+00  1.0004940476622148e+00 5.5745644262119812e-03 0.0000000000000000e+00  9.6915617391064390e-01 -2.4800102318933104e-01 0.0000000000000000e+00  9.7629915428215730e-01 -2.1802242967811206e-01 0.0000000000000000e+00  1.0002992168583356e+00 2.8548434108160176e-03 0.0000000000000000e+00  9.6483991931742863e-01 2.6426962635389611e-01 0.0000000000000000e+00  9.7560163383502818e-01 2.2116626608904419e-01 0.0000000000000000e+00  9.5206034728875322e-01 3.0737524335094812e-01 0.0000000000000000e+00  9.9565014869159785e-01 9.5665117186035611e-02 0.0000000000000000e+00  9.9511597314034850e-01 -1.0106681373519838e-01 0.0000000000000000e+00  9.5017018962323774e-01 -3.1315946860198696e-01 0.0000000000000000e+00  2.2872484457867492e-01 9.6851011708047441e-01 0.0000000000000000e+00  5.1553794895925875e-01 8.5747723260836473e-01 0.0000000000000000e+00  2.9424212673715133e-01 9.5610372858753745e-01 0.0000000000000000e+00  8.6279834870744931e-01 5.0887253191448767e-01 0.0000000000000000e+00  7.0026147174267339e-01 7.1459862273907815e-01 0.0000000000000000e+00  8.5558010074327440e-01 5.1832356020061576e-01 0.0000000000000000e+00  8.5683165538033101e-01 -5.1625977665771805e-01 0.0000000000000000e+00  5.5108275436513587e-01 -8.3497842526859423e-01 0.0000000000000000e+00  7.6694677465094097e-01 -6.4443815156953621e-01 0.0000000000000000e+00  3.8323829976372659e-01 -9.2384078829617111e-01 0.0000000000000000e+00  8.4718169965965140e-01 -5.3180284102522801e-01 0.0000000000000000e+00  9.3028421699777841e-01 -3.6828848481777893e-01 0.0000000000000000e+00  9.3253519117718797e-01 -3.6176226214460683e-01 0.0000000000000000e+00  8.6390205195965242e-01 -5.0408973130109758e-01 0.0000000000000000e+00  8.5689826613465236e-01 5.1590632091283972e-01 0.0000000000000000e+00  9.2724419091043486e-01 3.7510586136342455e-01 0.0000000000000000e+00  6.3298929412388216e-01 7.7428139724823952e-01 0.0000000000000000e+00  7.3290664106989678e-01 6.8046472533014535e-01 0.0000000000000000e+00  7.2527929652800971e-01 -6.8861096875320416e-01 0.0000000000000000e+00  6.2474382279063756e-01 -7.8096214084736537e-01 0.0000000000000000e+00  6.3621298965652773e-01 -7.7166200855501577e-01 0.0000000000000000e+00  5.0936230337176269e-01 -8.6067309056993246e-01 0.0000000000000000e+00  4.9854619544461143e-01 8.6699150193546037e-01 0.0000000000000000e+00  6.2565916060815496e-01 7.8025025780098567e-01 0.0000000000000000e+00  1.2761507938658826e-02 -1.2106409667935476e+00 0.0000000000000000e+00  1.8103167064198988e-01 9.8472871929065764e-01 0.0000000000000000e+00  1.8721976677865465e-01 -9.8420123096748802e-01 0.0000000000000000e+00  2.6004096490287224e-04 4.2716032201025855e-01 0.0000000000000000e+00  5.1124267271551016e-01 -8.5968311747188542e-01 0.0000000000000000e+00  9.7388560851893413e-01 2.3241394836630005e-01 0.0000000000000000e+00  8.7938426458931285e-01 4.7774172191651160e-01 0.0000000000000000e+00  7.1633951771705628e-01 6.9868990347146598e-01 0.0000000000000000e+00  8.3538876523570627e-01 5.5060810444831310e-01 0.0000000000000000e+00  9.8950327442694197e-01 1.4908368380189668e-01 0.0000000000000000e+00  9.2564186164198403e-01 3.7972332726730001e-01 0.0000000000000000e+00  6.3549996737608483e-01 7.7430630803404099e-01 0.0000000000000000e+00  9.9409191674220521e-01 1.9768853114419963e-01 0.0000000000000000e+00  1.0037785551013494e+00 1.1557712205184766e-02 0.0000000000000000e+00  7.8551655466825965e-01 6.1903837858873512e-01 0.0000000000000000e+00  7.8329845232446904e-01 -6.2187632880526489e-01 0.0000000000000000e+00  8.4395519796161222e-01 5.3685783525322761e-01 0.0000000000000000e+00  9.4982808158000087e-01 3.1454580753164485e-01 0.0000000000000000e+00  7.7753957945150398e-01 6.2936018195055377e-01 0.0000000000000000e+00  9.6140718534175096e-01 2.7626551014667605e-01 0.0000000000000000e+00  5.0821350077960292e-01 8.6179633732230965e-01 0.0000000000000000e+00  4.9487762483412129e-01 8.6922500343442344e-01 0.0000000000000000e+00  8.4589105901488201e-02 -1.0749482571629989e+00 0.0000000000000000e+00  1.3249547001010761e-01 -1.0039483506649998e+00 0.0000000000000000e+00  5.5931818711867876e-01 -8.2950342181233316e-01 0.0000000000000000e+00  3.1563797723505244e-01 -9.4889509082163193e-01 0.0000000000000000e+00  3.1793825524179553e-01 -9.4830702801579558e-01 0.0000000000000000e+00  1.0008007611110867e+00 -4.3346055120700923e-02 0.0000000000000000e+00  5.1363083420408455e-02 1.0765719224040060e+00 0.0000000000000000e+00  3.7729683488010929e-01 -9.2621357849250430e-01 0.0000000000000000e+00  1.9917330344648948e-01 -9.7989472178510206e-01 0.0000000000000000e+00  1.7554757295741014e-01 9.8566334076718942e-01 0.0000000000000000e+00  3.5370903092741013e-01 9.3548123996128263e-01 0.0000000000000000e+00  1.0152845321065704e+00 -1.1429962015344435e-01 0.0000000000000000e+00  2.5532514640242138e-01 9.6392055052807357e-01 0.0000000000000000e+00  9.5863477260066873e-02 9.7216030520526742e-01 0.0000000000000000e+00  3.4960514709694596e-01 9.3703608389600612e-01 0.0000000000000000e+00  5.1529287849136163e-01 8.5714226887693190e-01 0.0000000000000000e+00  6.4860121117894864e-01 7.6142260884495672e-01 0.0000000000000000e+00  5.1107394555450614e-01 -8.5966236203064927e-01 0.0000000000000000e+00  3.5326460315542363e-01 -9.3565565961535924e-01 0.0000000000000000e+00  6.5278666865678880e-01 -7.5783521019260236e-01 0.0000000000000000e+00  9.8490031453261828e-01 -1.7657286847448844e-01 0.0000000000000000e+00  8.2886082798849847e-01 -5.6027272712857590e-01 0.0000000000000000e+00  1.0003207542372450e+00 9.7043560642873210e-03 0.0000000000000000e+00  9.7269408