<?xml version="1.0"?>
<VTKFile type="UnstructuredGrid"  version="0.1"  >
<UnstructuredGrid>
<Piece  NumberOfPoints="2549" NumberOfCells="4928">
<Points>
<DataArray  type="Float64"  NumberOfComponents="3"  format="ascii">1.686723753004033 -0.04729770482256866 0  1.683411945355351 0.001683851298948706 0  1.675845585543184 0.05004307459781794 0  1.666491392323391 0.09845940945120399 0  1.653918543609889 0.1464270038776759 0  1.638609933418429 0.1940796376517869 0  1.619970419850857 0.240887017843121 0  1.599052476404591 0.2872578480586444 0  1.572933362684395 0.3309279364173115 0  1.544483907520582 0.3722618237624128 0  1.517697443038923 0.4179290121214739 0  1.486524966890855 0.4596291943879935 0  1.453916723341371 0.5009153450397683 0  1.419280608294187 0.5405755575797269 0  1.383143447771588 0.5791258999441007 0  1.345849040684664 0.617075666981149 0  1.305803382178574 0.6518763682021037 0  1.265475445375295 0.6849688776171087 0  1.225940223466115 0.7230025238659672 0  1.184446468829088 0.7580918048712784 0  1.142101760032773 0.7931777335921226 0  1.098608203217613 0.8271934797315741 0  1.05415060932446 0.8605361135815238 0  1.008766316285781 0.8933229940537145 0  0.9619453344742565 0.9244402328860408 0  0.9142175351139396 0.9529916565618801 0  0.8660577706156832 0.9820893538495672 0  0.8170462698171043 1.010343274808972 0  0.7671748532525582 1.037619837538967 0  0.7164366310534254 1.063723030694053 0  0.6648481391167529 1.088481478512644 0  0.6124555049419114 1.111857671586829 0  0.5591724438858141 1.13327672331977 0  0.5052955055920584 1.15278760746932 0  0.450782323137809 1.171071144030036 0  0.3956547326911048 1.187330586741818 0  0.339988196858802 1.201689657152462 0  0.2838557651401231 1.214033604504229 0  0.2273260979710576 1.224322317540376 0  0.1704826981457519 1.23260456888371 0  0.1133431932976508 1.238540885353054 0  0.05610903147378 1.242397282111473 0  -0.001256191344457183 1.244407772632988 0  -0.05866556612395717 1.244209569712634 0  -0.1160566611372797 1.241871436719263 0  -0.1733488901042043 1.237292415146543 0  -0.2304562459978172 1.23049572039796 0  -0.2872951014660261 1.221322803052302 0  -0.3437745854476209 1.21026011893977 0  -0.3999199550865908 1.196801464544925 0  -0.4554335618020262 1.180712664878847 0  -0.5102979707211835 1.162454699830698 0  -0.5644147261045384 1.142078169965163 0  -0.6177082743119461 1.119699544298919 0  -0.6701291009717988 1.095653423658436 0  -0.7215870035410855 1.069649501751506 0  -0.7722872515604086 1.043726316810182 0  -0.8223007766690658 1.015788010915272 0  -0.8709447374558524 0.9857291165290383 0  -0.9186051168105082 0.9548026261182688 0  -0.965249774779292 0.9230023874839139 0  -1.010801796894528 0.890140101129022 0  -1.055422866655098 0.8571259932500879 0  -1.0984990429037 0.8216547860064561 0  -1.141310380007059 0.7896056856926426 0  -1.18423176010315 0.7578432683723809 0  -1.225577039716157 0.7242268053365134 0  -1.266345104248066 0.6908442479284906 0  -1.306403602462082 0.6572216737730581 0  -1.34625474440311 0.6243667394381012 0  -1.385197897211933 0.5903624441346689 0  -1.426560148443622 0.5613827579815814 0  -1.465639750799544 0.5256278876351257 0  -1.496506194013294 0.4798611104580521 0  -1.52826165244633 0.4367844035334563 0  -1.555955627494813 0.390900918345905 0  -1.581264746038778 0.3441128690411694 0  -1.600778897562537 0.2938970879968567 0  -1.618657473105146 0.2449887972527599 0  -1.624887219741705 0.1896088831405475 0  -1.638425600898711 0.1432818244890361 0  -1.648791296117982 0.09503705552232933 0  -1.64671165497456 0.04518821793458196 0  -1.649816706518936 -0.00256941577715375 0  -1.648991287190848 -0.0499525647713082 0  -1.651274817457436 -0.09741182907047731 0  -1.649357692673082 -0.1454154366772228 0  -1.653154442827877 -0.1957469068170365 0  -1.643744672230993 -0.2444936241150459 0  -1.631225867689471 -0.2913828753045925 0  -1.626688857862996 -0.34819523559166 0  -1.609334880687788 -0.3978053466141048 0  -1.590325534338682 -0.4488683239806163 0  -1.565069302119851 -0.4961458540048184 0  -1.53723574686194 -0.5423215631341896 0  -1.505012536011552 -0.5852591541921401 0  -1.474155863468976 -0.6311744160939031 0  -1.435542164743759 -0.6680645075013323 0  -1.393861355540946 -0.6968116961241664 0  -1.354982195173553 -0.7312020084202737 0  -1.315145574059137 -0.7643177492716392 0  -1.275233022030695 -0.798434539613303 0  -1.234658214726833 -0.8324307592597477 0  -1.193580898320694 -0.8668451821381662 0  -1.150985186807628 -0.8995574074276002 0  -1.108674917467399 -0.9331770803596628 0  -1.066095608767608 -0.9709058197932363 0  -1.021770630182577 -1.005733443678597 0  -0.9764965757497727 -1.040647395123765 0  -0.9300815464580163 -1.074570161239799 0  -0.8826062318715047 -1.107767293560011 0  -0.834070063474086 -1.140137365662247 0  -0.7842529260415383 -1.170769035814404 0  -0.733724523113931 -1.200836513557502 0  -0.6819704238682143 -1.230959597462593 0  -0.6289395115535963 -1.257955064990823 0  -0.5748626164070426 -1.283077549135664 0  -0.5198100032863802 -1.30574212172326 0  -0.4638850080881622 -1.32596364549315 0  -0.4072207017943187 -1.343748365524058 0  -0.3497657002633023 -1.358252232251387 0  -0.2920446740435966 -1.369943157831348 0  -0.2339309932459936 -1.379912249521044 0  -0.1754982534678424 -1.387220293205792 0  -0.1168356000401743 -1.392040255294034 0  -0.05804406576115579 -1.394258640934527 0  0.0007735972711286299 -1.393897267015491 0  0.05951854364168198 -1.390910180167436 0  0.1180802479494094 -1.38527465455898 0  0.1763184417496471 -1.377231970428795 0  0.2341919854929025 -1.366991869505163 0  0.2916327731840911 -1.354540759174483 0  0.3485660635905669 -1.339961247533419 0  0.4049168570065408 -1.323294997643979 0  0.4606169734841441 -1.304778561289997 0  0.5155976703106542 -1.284175818839361 0  0.5699015747291931 -1.263035212048808 0  0.6236786136546945 -1.239754320985079 0  0.676353882035633 -1.214149138559689 0  0.728158070995605 -1.187302299757793 0  0.7790398859342027 -1.159184942990721 0  0.8289938201708335 -1.129994327558898 0  0.878036596144027 -1.099926233512862 0  0.9261945445119203 -1.069166648775308 0  0.9738974228288931 -1.03903631931179 0  1.020639149952275 -1.006357483817067 0  1.065927406689434 -0.9721306297552729 0  1.110252136767749 -0.9374082099234644 0  1.153590272201301 -0.902093880074514 0  1.195741236734045 -0.8657434151990033 0  1.237030289175438 -0.8295052819051644 0  1.276261212277796 -0.7901897211384107 0  1.316325134425245 -0.7561477813545811 0  1.356167449293757 -0.7205453150162253 0  1.39321371174707 -0.6817824601093957 0  1.429098410213341 -0.6424757937214157 0  1.46345926345374 -0.6020831422805808 0  1.495755183503157 -0.5600732733489621 0  1.526604163535417 -0.5177054325804621 0  1.552909912802183 -0.4712473942940292 0  1.580981240073879 -0.4293559107133409 0  1.606599221540632 -0.3850548908619079 0  1.626857683480021 -0.3380349205674955 0  1.644755018521661 -0.2906213912041146 0  1.659185573079519 -0.2423976655056513 0  1.670632387464042 -0.193874739257485 0  1.67887266544203 -0.1450742924197026 0  1.6846967972815 -0.09633210400941558 0  -0.1037967599690029 0.7358130072628263 0  0.6168841792763634 -0.6980564168494894 0  -0.7776401630688663 -0.620709062880508 0  -0.08092820600334695 -0.8550481441371642 0  0.6133751410875083 0.5788697347202411 0  1.196742065153336 0.19004442109188 0  -0.7903077129564883 0.4950671364054927 0  -1.293660765705489 -0.05530049769938956 0  1.201441908206218 -0.2933015902231462 0  -1.084674701880056 -0.4605748012383961 0  -0.8398676778869627 -0.07026883954070506 0  -0.5018568874324245 -0.235939755647971 0  -1.095495123104438 0.3311824915147176 0  0.2845127551526873 -0.8332605271936762 0  0.1392438325639004 -0.2909017099201334 0  0.2485899759623597 0.7011124986684329 0  0.3500534826824594 0.1769603046075772 0  0.6807834454475504 -0.05382378709070597 0  -0.4266394469801363 -0.7589229062384542 0  -0.4628061748714848 0.6528045019253791 0  -0.2906822468844302 0.2289049573724155 0  0.9402439658912679 -0.4885964032266444 0  0.9359729209836263 0.3804868112595686 0  0.4203182575305419 -0.3205333497722003 0  0.02783922569403878 0.2237796007771173 0  -0.5676406259000087 0.1736084568972749 0  -0.1840882507058951 -0.2845487317153592 0  0.9770302914361362 -0.05272783003106489 0  1.400001089399852 -0.04970614153693504 0  0.7787689194932528 -0.590849642347778 0  0.8033899082991274 -0.2783961344741211 0  0.6415811442342677 -0.3729439415042338 0  0.5494705075757939 -0.1839909701153102 0  0.5139112889992766 -0.5132271841750975 0  0.9530440578854066 -0.2692016481999565 0  0.8283607627084248 -0.05323776305445187 0  -0.9606166810854468 0.1372992605444204 0  -1.191585624997516 0.1359051787949488 0  -1.069497524212137 -0.06198296926761475 0  -0.9549974022085179 -0.2718303475823532 0  -1.187101638663804 -0.2551705471793199 0  -1.367682617175308 -0.3523749977597921 0  -1.46122169878427 -0.1671355220835486 0  -1.458404991633222 0.06092718313066016 0  -1.361753087556736 0.2446033154901101 0  -0.1329645184106441 -0.5691780123810837 0  -0.3002309592779931 -0.5259134429031774 0  -0.2547055586117481 -0.8117098207091056 0  -0.3423433274973657 -0.2612632635849301 0  -0.4613596619277771 -0.4948847843134365 0  -1.276648254496902 -0.5472584246720813 0  -1.277201143542821 0.4313240041144153 0  0.3514475546311179 -0.5745191951062846 0  0.2790437371364408 -0.3070465963684937 0  0.2075096962232617 -0.5642623278171146 0  -0.942332513761962 0.4093096334847639 0  -0.8080724010748717 0.2106673183266926 0  1.38920633632736 -0.370362479132872 0  1.250154971434525 -0.5301877710857 0  1.242526461129782 0.4266869967022708 0  1.382781928298637 0.2698220200782107 0  -0.7701832810435142 -0.8954450807035608 0  -0.9559853327576067 -0.7714936418517873 0  -0.9579488129571343 0.6533217794764354 0  -0.7725415620953051 0.7688005994058588 0  0.7847275328567007 -0.8786903226929348 0  0.5876940748574935 -0.9797832314410893 0  0.5815811661745249 0.8559682404024771 0  0.7775990509474373 0.761898090457429 0  0.009820905951750423 -
[...]
<PointData  Vectors="f_2097"> 
<DataArray  type="Float64"  Name="f_2097"  NumberOfComponents="3" format="ascii">1.0007320771748323e+00 1.1359868125921792e-02 0.0000000000000000e+00  9.9361701873281283e-01 1.2024654021190787e-01 0.0000000000000000e+00  9.8509456016225860e-01 1.7334245823826616e-01 0.0000000000000000e+00  9.7588683024095513e-01 2.1931776506398881e-01 0.0000000000000000e+00  9.6045078912408977e-01 2.7966360979336913e-01 0.0000000000000000e+00  9.4054622105005392e-01 3.4046847768994837e-01 0.0000000000000000e+00  9.2244871584949883e-01 3.8669986645426602e-01 0.0000000000000000e+00  8.9068499446721783e-01 4.5611116743752422e-01 0.0000000000000000e+00  8.2735880172553100e-01 5.6444166085995029e-01 0.0000000000000000e+00  8.4942464139912666e-01 5.2750091198464111e-01 0.0000000000000000e+00  8.4051827708790960e-01 5.4225796135864301e-01 0.0000000000000000e+00  7.8591841801882423e-01 6.1943958809064337e-01 0.0000000000000000e+00  7.7285876674867715e-01 6.3471924095663634e-01 0.0000000000000000e+00  7.3771217942183898e-01 6.7561924916828719e-01 0.0000000000000000e+00  7.2543842923674051e-01 6.8843198093065927e-01 0.0000000000000000e+00  6.8896011589656236e-01 7.2528132156014202e-01 0.0000000000000000e+00  6.2839287967250357e-01 7.7949793551095858e-01 0.0000000000000000e+00  6.7069147988868938e-01 7.4176300319172361e-01 0.0000000000000000e+00  6.7819316457341972e-01 7.3497895954037729e-01 0.0000000000000000e+00  6.3574902008573131e-01 7.7228716549984600e-01 0.0000000000000000e+00  6.3022758591557737e-01 7.7645439327148824e-01 0.0000000000000000e+00  6.0594150632907706e-01 7.9567854776665969e-01 0.0000000000000000e+00  5.9435013825890459e-01 8.0424945628566702e-01 0.0000000000000000e+00  5.7353230398998645e-01 8.1933523924790819e-01 0.0000000000000000e+00  5.2887694222145776e-01 8.4902409685372782e-01 0.0000000000000000e+00  5.1278284772906835e-01 8.5863303900004295e-01 0.0000000000000000e+00  5.1196066579752730e-01 8.5902802797337829e-01 0.0000000000000000e+00  4.8911010295377810e-01 8.7229680333919235e-01 0.0000000000000000e+00  4.6947691899446659e-01 8.8299699947824795e-01 0.0000000000000000e+00  4.4500329411375489e-01 8.9559073883177076e-01 0.0000000000000000e+00  4.2100228381816668e-01 9.0711886131285691e-01 0.0000000000000000e+00  3.9137271935597107e-01 9.2032956874377581e-01 0.0000000000000000e+00  3.5488332388940286e-01 9.3500429884688896e-01 0.0000000000000000e+00  3.2968545789525344e-01 9.4414114008422245e-01 0.0000000000000000e+00  3.0179852117139000e-01 9.5344675703212678e-01 0.0000000000000000e+00  2.6585822300694095e-01 9.6410404261393290e-01 0.0000000000000000e+00  2.3279929374136099e-01 9.7257321821486242e-01 0.0000000000000000e+00  1.9662584199527636e-01 9.8069464523960659e-01 0.0000000000000000e+00  1.6226934599232656e-01 9.8669821085483000e-01 0.0000000000000000e+00  1.2404792943190662e-01 9.8971580398407222e-01 0.0000000000000000e+00  8.3998878821890569e-02 1.0212550194256578e+00 0.0000000000000000e+00  5.2478015506444139e-02 8.8013550954042785e-01 0.0000000000000000e+00  1.0210271981547270e-02 1.2849796181204851e+00 0.0000000000000000e+00  1.9460640470224170e-02 -1.3884697669720854e+00 0.0000000000000000e+00  6.0114094754401007e-02 -9.3185874913018241e-01 0.0000000000000000e+00  9.8581557773121248e-02 -9.9951752410975048e-01 0.0000000000000000e+00  1.3948775029565216e-01 -9.9150859640112665e-01 0.0000000000000000e+00  1.7605033123488695e-01 -9.8398603789781858e-01 0.0000000000000000e+00  2.1092353512710410e-01 -9.7771059853092579e-01 0.0000000000000000e+00  2.5639089639204182e-01 -9.6670695880855229e-01 0.0000000000000000e+00  2.9803267470693995e-01 -9.5465865141612749e-01 0.0000000000000000e+00  3.3387527290359104e-01 -9.4271929950615552e-01 0.0000000000000000e+00  3.7095269855722901e-01 -9.2873596350030174e-01 0.0000000000000000e+00  4.0100151967533126e-01 -9.1617658356614873e-01 0.0000000000000000e+00  4.3733536791862482e-01 -8.9936559814456585e-01 0.0000000000000000e+00  4.5374309124240059e-01 -8.9113694739001159e-01 0.0000000000000000e+00  4.6658554884408127e-01 -8.8463653812242971e-01 0.0000000000000000e+00  5.0911422729245293e-01 -8.6083739482694199e-01 0.0000000000000000e+00  5.3715355014764998e-01 -8.4352061380111698e-01 0.0000000000000000e+00  5.5222942941633313e-01 -8.3376436793607867e-01 0.0000000000000000e+00  5.7685025864104544e-01 -8.1687399309409625e-01 0.0000000000000000e+00  5.8556097802751406e-01 -8.1078759961570690e-01 0.0000000000000000e+00  6.2043198885495232e-01 -7.8432724249987340e-01 0.0000000000000000e+00  6.2524212310775917e-01 -7.8045101150293983e-01 0.0000000000000000e+00  5.8583851880102078e-01 -8.1103155238174740e-01 0.0000000000000000e+00  6.1438766846302517e-01 -7.8916916666551162e-01 0.0000000000000000e+00  6.3475423775459416e-01 -7.7281659154279547e-01 0.0000000000000000e+00  6.3999607912064826e-01 -7.6846061818117706e-01 0.0000000000000000e+00  6.3496850705501895e-01 -7.7295629306084457e-01 0.0000000000000000e+00  6.5817470520180799e-01 -7.5302026726630433e-01 0.0000000000000000e+00  6.1389452450285920e-01 -7.8984300537434882e-01 0.0000000000000000e+00  5.9229061328249766e-01 -8.1260440169517312e-01 0.0000000000000000e+00  7.7845623678201303e-01 -6.3075556593763249e-01 0.0000000000000000e+00  8.2529598670129456e-01 -5.6441116826430604e-01 0.0000000000000000e+00  8.2395369588372114e-01 -5.6750622847324217e-01 0.0000000000000000e+00  8.6745068417951954e-01 -4.9927598900471193e-01 0.0000000000000000e+00  9.1166147367350137e-01 -4.1114723639378459e-01 0.0000000000000000e+00  9.2980806110078473e-01 -3.7291835193678124e-01 0.0000000000000000e+00  9.7963186186677620e-01 -2.0602431646172822e-01 0.0000000000000000e+00  9.8745811638846603e-01 -1.5765682951446391e-01 0.0000000000000000e+00  9.5593050198824170e-01 -3.1417534810114078e-01 0.0000000000000000e+00  1.0014091918634604e+00 -4.9477724425914471e-02 0.0000000000000000e+00  1.0003286786229022e+00 4.5011719428612656e-03 0.0000000000000000e+00  9.9944155638455123e-01 -3.2909454043640624e-02 0.0000000000000000e+00  9.9991972304732324e-01 -1.6640151919997695e-02 0.0000000000000000e+00  9.9997440852605624e-01 7.2129033404209168e-03 0.0000000000000000e+00  9.9976291981091614e-01 -3.5181623477801439e-02 0.0000000000000000e+00  1.0025746270664178e+00 2.0410197769389890e-02 0.0000000000000000e+00  9.6214889816345572e-01 2.9688312170380077e-01 0.0000000000000000e+00  9.9217156613060276e-01 1.2566237900231977e-01 0.0000000000000000e+00  9.8456904944698820e-01 1.8174533303911722e-01 0.0000000000000000e+00  9.3469208311561003e-01 3.6125349799842921e-01 0.0000000000000000e+00  9.1607167804527201e-01 4.0122190018178960e-01 0.0000000000000000e+00  8.6899985156393555e-01 4.9687759139558152e-01 0.0000000000000000e+00  8.2144064038744413e-01 5.7142473203571298e-01 0.0000000000000000e+00  8.2064720860395390e-01 5.7081951599871827e-01 0.0000000000000000e+00  7.8872927005656435e-01 6.1793649785592564e-01 0.0000000000000000e+00  5.9883663963745237e-01 8.0755549589698616e-01 0.0000000000000000e+00  6.1051375139562714e-01 7.9274710281889316e-01 0.0000000000000000e+00  6.6391114765371073e-01 7.4798259598996719e-01 0.0000000000000000e+00  6.3904891953790832e-01 7.6964791404149868e-01 0.0000000000000000e+00  6.4814864348018653e-01 7.6159920100864265e-01 0.0000000000000000e+00  6.4470773780872925e-01 7.6453602150035782e-01 0.0000000000000000e+00  6.2659819075372980e-01 7.7948715699211846e-01 0.0000000000000000e+00  6.0382349805682978e-01 7.9778594734391850e-01 0.0000000000000000e+00  6.5231155333754076e-01 7.5803246557756487e-01 0.0000000000000000e+00  6.4585448559197345e-01 7.6354220930028016e-01 0.0000000000000000e+00  6.0908908467915068e-01 7.9327354299648678e-01 0.0000000000000000e+00  6.0331100680673422e-01 7.9751955930143092e-01 0.0000000000000000e+00  5.7996791755447197e-01 8.1470158761136424e-01 0.0000000000000000e+00  5.6613893356860356e-01 8.2435240469561166e-01 0.0000000000000000e+00  5.3910091401752847e-01 8.4233113716832031e-01 0.0000000000000000e+00  5.1353771981989260e-01 8.5809165587799452e-01 0.0000000000000000e+00  5.1220875659620591e-01 8.5892480572991126e-01 0.0000000000000000e+00  4.8083907341365745e-01 8.7698063467926135e-01 0.0000000000000000e+00  4.3529859576499719e-01 9.0042291163767729e-01 0.0000000000000000e+00  4.0284790893124400e-01 9.1538663711965640e-01 0.0000000000000000e+00  3.5951285736885225e-01 9.3327037029493043e-01 0.0000000000000000e+00  3.2142345296321639e-01 9.4707720791373673e-01 0.0000000000000000e+00  2.7331311159462729e-01 9.6209415702529089e-01 0.0000000000000000e+00  2.1818291142423973e-01 9.7620314090919091e-01 0.0000000000000000e+00  1.8407159258678313e-01 9.8291150608194300e-01 0.0000000000000000e+00  1.4826490567717662e-01 9.8596360435114350e-01 0.0000000000000000e+00  1.0233216370667092e-01 1.0201959990022733e+00 0.0000000000000000e+00  6.1288541106861584e-02 8.8892494541937972e-01 0.0000000000000000e+00  8.6889413308035828e-03 1.1573663348433154e+00 0.0000000000000000e+00  2.5995146028956525e-02 -1.4065572670194879e+00 0.0000000000000000e+00  7.3468608028460489e-02 -9.3631652847429359e-01 0.0000000000000000e+00  1.1723193061106722e-01 -9.9567716134518214e-01 0.0000000000000000e+00  1.5569237355592719e-01 -9.8940416908881113e-01 0.0000000000000000e+00  1.9313695968036806e-01 -9.8075815610829442e-01 0.0000000000000000e+00  2.3001598228854833e-01 -9.7336744684433141e-01 0.0000000000000000e+00  2.6659924092801002e-01 -9.6388025254974929e-01 0.0000000000000000e+00  2.9870581977045368e-01 -9.5443704515284888e-01 0.0000000000000000e+00  3.3579603704206384e-01 -9.4200302717169448e-01 0.0000000000000000e+00  3.5731441444251172e-01 -9.3400598968922455e-01 0.0000000000000000e+00  3.7596637984801107e-01 -9.2676237705868514e-01 0.0000000000000000e+00  4.1932662643800539e-01 -9.0796414983751916e-01 0.0000000000000000e+00  4.5024552889413127e-01 -8.9295705165610473e-01 0.0000000000000000e+00  4.7154400747652614e-01 -8.8189417341531218e-01 0.0000000000000000e+00  4.9497116139596675e-01 -8.6895566755230913e-01 0.0000000000000000e+00  5.1315037477862124e-01 -8.5836296978336102e-01 0.0000000000000000e+00  5.3406345185586290e-01 -8.4545828168744186e-01 0.0000000000000000e+00  5.3353680683946136e-01 -8.4589266846080713e-01 0.0000000000000000e+00  5.4921381679944892e-01 -8.3599636342268313e-01 0.0000000000000000e+00  5.9182823374001703e-01 -8.0620899105482458e-01 0.0000000000000000e+00  6.1125046757663859e-01 -7.9147966811022641e-01 0.0000000000000000e+00  6.2210877595755398e-01 -7.8310359893935433e-01 0.0000000000000000e+00  6.4562719347969999e-01 -7.6369316486249439e-01 0.0000000000000000e+00  6.5008386316799860e-01 -7.6027468513036434e-01 0.0000000000000000e+00  6.9242237626368885e-01 -7.2159056332088245e-01 0.0000000000000000e+00  6.8519135995359814e-01 -7.2839457112291006e-01 0.0000000000000000e+00  6.3994186352859650e-01 -7.7010883981439460e-01 0.0000000000000000e+00  6.9882812466004884e-01 -7.1577857544317702e-01 0.0000000000000000e+00  7.3479244167463054e-01 -6.7844339534209031e-01 0.0000000000000000e+00  7.4637808518521531e-01 -6.6605715722922898e-01 0.0000000000000000e+00  7.8119768739130202e-01 -6.2442437110397664e-01 0.0000000000000000e+00  7.9355088335879509e-01 -6.0969250830629029e-01 0.0000000000000000e+00  8.4820458933537768e-01 -5.3016914522481751e-01 0.0000000000000000e+00  8.5678616603638380e-01 -5.1544584422611106e-01 0.0000000000000000e+00  8.3461338108899685e-01 -5.5381008535935783e-01 0.0000000000000000e+00  8.9796704317169629e-01 -4.4167334144066611e-01 0.0000000000000000e+00  9.2911478182285312e-01 -3.7040438431421185e-01 0.0000000000000000e+00  9.4668079134587091e-01 -3.2314682809318845e-01 0.0000000000000000e+00  9.6670278854238101e-01 -2.5722696590041372e-01 0.0000000000000000e+00  9.8064671840008399e-01 -1.9716871454621057e-01 0.0000000000000000e+00  9.9000857654498609e-01 -1.4287565086496154e-01 0.0000000000000000e+00  9.9690946876736430e-01 -8.7014719057176573e-02 0.0000000000000000e+00  9.3898459805737813e-02 -9.8333829283829244e-01 0.0000000000000000e+00  6.6437478810579220e-01 -7.4782807078721092e-01 0.0000000000000000e+00  7.5448474999152082e-01 6.5673672228193003e-01 0.0000000000000000e+00  6.4564358270626079e-02 1.0039129231435584e+00 0.0000000000000000e+00  6.5072101251727554e-01 7.5973780166780192e-01 0.0000000000000000e+00  9.5240184789051907e-01 3.0585818807227866e-01 0.0000000000000000e+00  7.5083731677038124e-01 -6.6092832082012876e-01 0.0000000000000000e+00  1.0004013796215250e+00 -8.3581518463372324e-03 0.0000000000000000e+00  9.5864396448917344e-01 -2.8570466710312931e-01 0.0000000000000000e+00  8.8406295283234304e-01 4.6798870542001136e-01 0.0000000000000000e+00  1.0005726029328177e+00 6.3271172211192698e-03 0.0000000000000000e+00  9.4137385028618659e-01 3.4015718122330896e-01 0.0000000000000000e+00  8.8588243757045171e-01 -4.6455496247120087e-01 0.0000000000000000e+00  3.5559209921973084e-01 -9.3487179375240781e-01 0.0000000000000000e+00  6.2781992996684977e-01 -7.8336902549167309e-01 0.0000000000000000e+00  3.1086068426091806e-01 9.5064209868686644e-01 0.0000000000000000e+00  8.4998408002132120e-01 5.2911319879970065e-01 0.0000000000000000e+00  1.0008956960768656e+00 1.3831276853638878e-02 0.0000000000000000e+00  4.7451703558879893e-01 8.8051582558897168e-01 0.0000000000000000e+00  4.8599845138762543e-01 -8.7421650445512111e-01 0.0000000000000000e+00  6.8342647355654618e-01 -7.3195727737255134e-01 0.0000000000000000e+00  8.6566202784961810e-01 -5.0125726557693062e-01 0.0000000000000000e+00  8.5435183503542478e-01 5.2029472951687783e-01 0.0000000000000000e+00  8.6739299145536641e-01 -4.9935045595686467e-01 0.0000000000000000e+00  2.0344107610492779e-01 8.8075308373912786e-01 0.0000000000000000e+00  9.0823811805117816e-01 -4.1989133826883890e-01 0.0000000000000000e+00  5.9797771822010770e-01 8.0547683433503614e-01 0.0000000000000000e+00  1.0002506762541874e+00 1.1798227915127447e-02 0.0000000000000000e+00  1.0002282897187360e+00 1.1433619465943784e-02 0.0000000000000000e+00  7.8477300819435136e-01 -6.2038964265618035e-01 0.0000000000000000e+00  9.5663025204792840e-01 -2.9323774612679165e-01 0.0000000000000000e+00  8.9313916325002329e-01 -4.5149321870094111e-01 0.0000000000000000e+00  9.7694363069501011e-01 -2.1793850500708342e-01 0.0000000000000000e+00  7.5188479831212429e-01 -6.6020625121550147e-01 0.0000000000000000e+00  9.6524850692617914e-01 -2.6259419489900132e-01 0.0000000000000000e+00  1.0004110499305081e+00 1.2804066068160317e-02 0.0000000000000000e+00  9.6560929902655213e-01 -2.6158356424793616e-01 0.0000000000000000e+00  9.7137529212065676e-01 -2.3923977858627177e-01 0.0000000000000000e+00  1.0003330936145196e+00 -2.2902491483872533e-03 0.0000000000000000e+00  9.6379757904776231e-01 2.6816638721448022e-01 0.0000000000000000e+00  9.7288011205836256e-01 2.3311627082845821e-01 0.0000000000000000e+00  9.4354268560985555e-01 3.3287732158581052e-01 0.0000000000000000e+00  9.9498997561225422e-01 1.0296923819327160e-01 0.0000000000000000e+00  9.9266350967331540e-01 -1.2333878376440699e-01 0.0000000000000000e+00  9.3857199291505078e-01 -3.4656225772710419e-01 0.0000000000000000e+00  1.9766015576523507e-01 1.0061585435542706e+00 0.0000000000000000e+00  5.0508829281885903e-01 8.6368378837083559e-01 0.0000000000000000e+00  2.7677856979325066e-01 9.6085837502094951e-01 0.0000000000000000e+00  8.6043795933602862e-01 5.1304712801212937e-01 0.0000000000000000e+00  7.0017759752302733e-01 7.1472523727058668e-01 0.0000000000000000e+00  8.2609713971691345e-01 5.6436986542352596e-01 0.0000000000000000e+00  8.2437484483131962e-01 -5.6687659379913791e-01 0.0000000000000000e+00  5.8737000658274430e-01 -8.0990335451426276e-01 0.0000000000000000e+00  7.9822608107904247e-01 -6.0500162768734511e-01 0.0000000000000000e+00  4.2998054486402326e-01 -9.0357545223009206e-01 0.0000000000000000e+00  8.3140529090712922e-01 -5.5622239248518046e-01 0.0000000000000000e+00  9.2613908150978919e-01 -3.7864917909489137e-01 0.0000000000000000e+00  9.2181358971604410e-01 -3.8842454409074278e-01 0.0000000000000000e+00  8.4379737081250539e-01 -5.3719313624898113e-01 0.0000000000000000e+00  8.3355265373119858e-01 5.5294390077147160e-01 0.0000000000000000e+00  9.1427679642572879e-01 4.0582185668172083e-01 0.0000000000000000e+00  6.0192385368834289e-01 7.9868928020938978e-01 0.0000000000000000e+00  7.0075720508924466e-01 7.1357393320295803e-01 0.0000000000000000e+00  6.8698124183011400e-01 -7.2687327937351598e-01 0.0000000000000000e+00  5.8714588254088640e-01 -8.0963671993998954e-01 0.0000000000000000e+00  6.1270048376210562e-01 -7.9050957162593738e-01 0.0000000000000000e+00  4.9228587008913971e-01 -8.7057303950492571e-01 0.0000000000000000e+00  4.7314294423702835e-01 8.8113216167202468e-01 0.0000000000000000e+00  5.9509013240037179e-01 8.0385615123104759e-01 0.0000000000000000e+00  3.3982672235701922e-02 -1.3763643951017610e+00 0.0000000000000000e+00  1.5532049730837252e-01 9.8291425651147735e-01 0.0000000000000000e+00  1.6359243276130828e-01 -9.8826861439660263e-01 0.0000000000000000e+00  7.3661539414323360e-03 1.0927727239698051e+00 0.0000000000000000e+00  5.2768854151185740e-01 -8.4972349464038599e-01 0.0000000000000000e+00  9.7461390803224390e-01 2.2878868590153770e-01 0.0000000000000000e+00  8.8315774320621399e-01 4.7068337290904705e-01 0.0000000000000000e+00  7.3061731456131285e-01 6.8373646909571861e-01 0.0000000000000000e+00  8.3671273689358372e-01 5.4864719698576536e-01 0.0000000000000000e+00  9.9065635161410337e-01 1.4124334068662892e-01 0.0000000000000000e+00  9.2554627748923923e-01 3.8003625995972623e-01 0.0000000000000000e+00  6.5479858973912464e-01 7.5799441584497573e-01 0.0000000000000000e+00  1.0047723180582584e+00 1.9946655278148359e-01 0.0000000000000000e+00  1.0033213029363708e+00 2.1875118069474335e-02 0.0000000000000000e+00  7.5011812641553344e-01 6.6157158264787064e-01 0.0000000000000000e+00  7.4356471311187555e-01 -6.6896157020723179e-01 0.0000000000000000e+00  8.3291431823816797e-01 5.5391169447149757e-01 0.0000000000000000e+00  9.4908767727702048e-01 3.1676342903521454e-01 0.0000000000000000e+00  7.7179007841212610e-01 6.3646214785839494e-01 0.0000000000000000e+00  9.5897404714113743e-01 2.8464450854260215e-01 0.0000000000000000e+00  5.3432789650490753e-01 8.4585993562234896e-01 0.0000000000000000e+00  5.0232379019392004e-01 8.6496813550983753e-01 0.0000000000000000e+00  1.2954187457184832e-01 -9.0117046459066386e-01 0.0000000000000000e+00  1.5741805421159494e-01 -9.8287950269108793e-01 0.0000000000000000e+00  5.5158630288306154e-01 -8.3467461606060811e-01 0.0000000000000000e+00  2.9982528906721617e-01 -9.5507941425315124e-01 0.0000000000000000e+00  3.0279618801212238e-01 -9.5331737505805203e-01 0.0000000000000000e+00  1.0011069065664335e+00 -2.9092306352975807e-02 0.0000000000000000e+00  2.2291812011359571e-02 -9.6094118293595632e-01 0.0000000000000000e+00  3.6675237212028400e-01 -9.3044146651011161e-01 0.0000000000000000e+00  2.0089814874026229e-01 -9.7926841305521017e-01 0.0000000000000000e+00  1.7013882605558164e-01 9.8558951890118451e-01 0.0000000000000000e+00  3.3563210030060853e-01 9.4211919182532855e-01 0.0000000000000000e+00  2.6693687289700504e-02 -8.1881371883037446e-01 0.0000000000000000e+00  2.8657746201030732e-01 9.5997712262134716e-01 0.0000000000000000e+00  1.1185602763117540e-01 1.0231334584950487e+00 0.0000000000000000e+00  3.1981520194895069e-01 9.4762405306774378e-01 0.0000000000000000e+00  4.8532323118089715e-01 8.7446847411523076e-01 0.0000000000000000e+00  6.3944693289523691e-01 7.6916347005322727e-01 0.0000000000000000e+00  4.7440321246609973e-01 -8.8044275644050818e-01 0.0000000000000000e+00  3.2121906743539558e-01 -9.4713356060122356e-01 0.0000000000000000e+00  6.3820885082202761e-01 -7.7018300252519489e-01 0.0000000000000000e+00  9.8363054937667205e-01 -1.8350727093490640e-01 0.0000000000000000e+00  8.2348948339562777e-01 -5.6816408243028238e-01 0.0000000000000000e+00  1.0003518463312859e+00 1.2361110501288889e-02 0.0000000000000000e+00  9.6843580