<?xml version="1.0"?>
<VTKFile type="UnstructuredGrid"  version="0.1"  >
<UnstructuredGrid>
<Piece  NumberOfPoints="2549" NumberOfCells="4928">
<Points>
<DataArray  type="Float64"  NumberOfComponents="3"  format="ascii">1.686723753004033 -0.04729770482256866 0  1.683411945355351 0.001683851298948706 0  1.675845585543184 0.05004307459781794 0  1.666491392323391 0.09845940945120399 0  1.653918543609889 0.1464270038776759 0  1.638609933418429 0.1940796376517869 0  1.619970419850857 0.240887017843121 0  1.599052476404591 0.2872578480586444 0  1.572933362684395 0.3309279364173115 0  1.544483907520582 0.3722618237624128 0  1.517697443038923 0.4179290121214739 0  1.486524966890855 0.4596291943879935 0  1.453916723341371 0.5009153450397683 0  1.419280608294187 0.5405755575797269 0  1.383143447771588 0.5791258999441007 0  1.345849040684664 0.617075666981149 0  1.305803382178574 0.6518763682021037 0  1.265475445375295 0.6849688776171087 0  1.225940223466115 0.7230025238659672 0  1.184446468829088 0.7580918048712784 0  1.142101760032773 0.7931777335921226 0  1.098608203217613 0.8271934797315741 0  1.05415060932446 0.8605361135815238 0  1.008766316285781 0.8933229940537145 0  0.9619453344742565 0.9244402328860408 0  0.9142175351139396 0.9529916565618801 0  0.8660577706156832 0.9820893538495672 0  0.8170462698171043 1.010343274808972 0  0.7671748532525582 1.037619837538967 0  0.7164366310534254 1.063723030694053 0  0.6648481391167529 1.088481478512644 0  0.6124555049419114 1.111857671586829 0  0.5591724438858141 1.13327672331977 0  0.5052955055920584 1.15278760746932 0  0.450782323137809 1.171071144030036 0  0.3956547326911048 1.187330586741818 0  0.339988196858802 1.201689657152462 0  0.2838557651401231 1.214033604504229 0  0.2273260979710576 1.224322317540376 0  0.1704826981457519 1.23260456888371 0  0.1133431932976508 1.238540885353054 0  0.05610903147378 1.242397282111473 0  -0.001256191344457183 1.244407772632988 0  -0.05866556612395717 1.244209569712634 0  -0.1160566611372797 1.241871436719263 0  -0.1733488901042043 1.237292415146543 0  -0.2304562459978172 1.23049572039796 0  -0.2872951014660261 1.221322803052302 0  -0.3437745854476209 1.21026011893977 0  -0.3999199550865908 1.196801464544925 0  -0.4554335618020262 1.180712664878847 0  -0.5102979707211835 1.162454699830698 0  -0.5644147261045384 1.142078169965163 0  -0.6177082743119461 1.119699544298919 0  -0.6701291009717988 1.095653423658436 0  -0.7215870035410855 1.069649501751506 0  -0.7722872515604086 1.043726316810182 0  -0.8223007766690658 1.015788010915272 0  -0.8709447374558524 0.9857291165290383 0  -0.9186051168105082 0.9548026261182688 0  -0.965249774779292 0.9230023874839139 0  -1.010801796894528 0.890140101129022 0  -1.055422866655098 0.8571259932500879 0  -1.0984990429037 0.8216547860064561 0  -1.141310380007059 0.7896056856926426 0  -1.18423176010315 0.7578432683723809 0  -1.225577039716157 0.7242268053365134 0  -1.266345104248066 0.6908442479284906 0  -1.306403602462082 0.6572216737730581 0  -1.34625474440311 0.6243667394381012 0  -1.385197897211933 0.5903624441346689 0  -1.426560148443622 0.5613827579815814 0  -1.465639750799544 0.5256278876351257 0  -1.496506194013294 0.4798611104580521 0  -1.52826165244633 0.4367844035334563 0  -1.555955627494813 0.390900918345905 0  -1.581264746038778 0.3441128690411694 0  -1.600778897562537 0.2938970879968567 0  -1.618657473105146 0.2449887972527599 0  -1.624887219741705 0.1896088831405475 0  -1.638425600898711 0.1432818244890361 0  -1.648791296117982 0.09503705552232933 0  -1.64671165497456 0.04518821793458196 0  -1.649816706518936 -0.00256941577715375 0  -1.648991287190848 -0.0499525647713082 0  -1.651274817457436 -0.09741182907047731 0  -1.649357692673082 -0.1454154366772228 0  -1.653154442827877 -0.1957469068170365 0  -1.643744672230993 -0.2444936241150459 0  -1.631225867689471 -0.2913828753045925 0  -1.626688857862996 -0.34819523559166 0  -1.609334880687788 -0.3978053466141048 0  -1.590325534338682 -0.4488683239806163 0  -1.565069302119851 -0.4961458540048184 0  -1.53723574686194 -0.5423215631341896 0  -1.505012536011552 -0.5852591541921401 0  -1.474155863468976 -0.6311744160939031 0  -1.435542164743759 -0.6680645075013323 0  -1.393861355540946 -0.6968116961241664 0  -1.354982195173553 -0.7312020084202737 0  -1.315145574059137 -0.7643177492716392 0  -1.275233022030695 -0.798434539613303 0  -1.234658214726833 -0.8324307592597477 0  -1.193580898320694 -0.8668451821381662 0  -1.150985186807628 -0.8995574074276002 0  -1.108674917467399 -0.9331770803596628 0  -1.066095608767608 -0.9709058197932363 0  -1.021770630182577 -1.005733443678597 0  -0.9764965757497727 -1.040647395123765 0  -0.9300815464580163 -1.074570161239799 0  -0.8826062318715047 -1.107767293560011 0  -0.834070063474086 -1.140137365662247 0  -0.7842529260415383 -1.170769035814404 0  -0.733724523113931 -1.200836513557502 0  -0.6819704238682143 -1.230959597462593 0  -0.6289395115535963 -1.257955064990823 0  -0.5748626164070426 -1.283077549135664 0  -0.5198100032863802 -1.30574212172326 0  -0.4638850080881622 -1.32596364549315 0  -0.4072207017943187 -1.343748365524058 0  -0.3497657002633023 -1.358252232251387 0  -0.2920446740435966 -1.369943157831348 0  -0.2339309932459936 -1.379912249521044 0  -0.1754982534678424 -1.387220293205792 0  -0.1168356000401743 -1.392040255294034 0  -0.05804406576115579 -1.394258640934527 0  0.0007735972711286299 -1.393897267015491 0  0.05951854364168198 -1.390910180167436 0  0.1180802479494094 -1.38527465455898 0  0.1763184417496471 -1.377231970428795 0  0.2341919854929025 -1.366991869505163 0  0.2916327731840911 -1.354540759174483 0  0.3485660635905669 -1.339961247533419 0  0.4049168570065408 -1.323294997643979 0  0.4606169734841441 -1.304778561289997 0  0.5155976703106542 -1.284175818839361 0  0.5699015747291931 -1.263035212048808 0  0.6236786136546945 -1.239754320985079 0  0.676353882035633 -1.214149138559689 0  0.728158070995605 -1.187302299757793 0  0.7790398859342027 -1.159184942990721 0  0.8289938201708335 -1.129994327558898 0  0.878036596144027 -1.099926233512862 0  0.9261945445119203 -1.069166648775308 0  0.9738974228288931 -1.03903631931179 0  1.020639149952275 -1.006357483817067 0  1.065927406689434 -0.9721306297552729 0  1.110252136767749 -0.9374082099234644 0  1.153590272201301 -0.902093880074514 0  1.195741236734045 -0.8657434151990033 0  1.237030289175438 -0.8295052819051644 0  1.276261212277796 -0.7901897211384107 0  1.316325134425245 -0.7561477813545811 0  1.356167449293757 -0.7205453150162253 0  1.39321371174707 -0.6817824601093957 0  1.429098410213341 -0.6424757937214157 0  1.46345926345374 -0.6020831422805808 0  1.495755183503157 -0.5600732733489621 0  1.526604163535417 -0.5177054325804621 0  1.552909912802183 -0.4712473942940292 0  1.580981240073879 -0.4293559107133409 0  1.606599221540632 -0.3850548908619079 0  1.626857683480021 -0.3380349205674955 0  1.644755018521661 -0.2906213912041146 0  1.659185573079519 -0.2423976655056513 0  1.670632387464042 -0.193874739257485 0  1.67887266544203 -0.1450742924197026 0  1.6846967972815 -0.09633210400941558 0  -0.1037967599690029 0.7358130072628263 0  0.6168841792763634 -0.6980564168494894 0  -0.7776401630688663 -0.620709062880508 0  -0.08092820600334695 -0.8550481441371642 0  0.6133751410875083 0.5788697347202411 0  1.196742065153336 0.19004442109188 0  -0.7903077129564883 0.4950671364054927 0  -1.293660765705489 -0.05530049769938956 0  1.201441908206218 -0.2933015902231462 0  -1.084674701880056 -0.4605748012383961 0  -0.8398676778869627 -0.07026883954070506 0  -0.5018568874324245 -0.235939755647971 0  -1.095495123104438 0.3311824915147176 0  0.2845127551526873 -0.8332605271936762 0  0.1392438325639004 -0.2909017099201334 0  0.2485899759623597 0.7011124986684329 0  0.3500534826824594 0.1769603046075772 0  0.6807834454475504 -0.05382378709070597 0  -0.4266394469801363 -0.7589229062384542 0  -0.4628061748714848 0.6528045019253791 0  -0.2906822468844302 0.2289049573724155 0  0.9402439658912679 -0.4885964032266444 0  0.9359729209836263 0.3804868112595686 0  0.4203182575305419 -0.3205333497722003 0  0.02783922569403878 0.2237796007771173 0  -0.5676406259000087 0.1736084568972749 0  -0.1840882507058951 -0.2845487317153592 0  0.9770302914361362 -0.05272783003106489 0  1.400001089399852 -0.04970614153693504 0  0.7787689194932528 -0.590849642347778 0  0.8033899082991274 -0.2783961344741211 0  0.6415811442342677 -0.3729439415042338 0  0.5494705075757939 -0.1839909701153102 0  0.5139112889992766 -0.5132271841750975 0  0.9530440578854066 -0.2692016481999565 0  0.8283607627084248 -0.05323776305445187 0  -0.9606166810854468 0.1372992605444204 0  -1.191585624997516 0.1359051787949488 0  -1.069497524212137 -0.06198296926761475 0  -0.9549974022085179 -0.2718303475823532 0  -1.187101638663804 -0.2551705471793199 0  -1.367682617175308 -0.3523749977597921 0  -1.46122169878427 -0.1671355220835486 0  -1.458404991633222 0.06092718313066016 0  -1.361753087556736 0.2446033154901101 0  -0.1329645184106441 -0.5691780123810837 0  -0.3002309592779931 -0.5259134429031774 0  -0.2547055586117481 -0.8117098207091056 0  -0.3423433274973657 -0.2612632635849301 0  -0.4613596619277771 -0.4948847843134365 0  -1.276648254496902 -0.5472584246720813 0  -1.277201143542821 0.4313240041144153 0  0.3514475546311179 -0.5745191951062846 0  0.2790437371364408 -0.3070465963684937 0  0.2075096962232617 -0.5642623278171146 0  -0.942332513761962 0.4093096334847639 0  -0.8080724010748717 0.2106673183266926 0  1.38920633632736 -0.370362479132872 0  1.250154971434525 -0.5301877710857 0  1.242526461129782 0.4266869967022708 0  1.382781928298637 0.2698220200782107 0  -0.7701832810435142 -0.8954450807035608 0  -0.9559853327576067 -0.7714936418517873 0  -0.9579488129571343 0.6533217794764354 0  -0.7725415620953051 0.7688005994058588 0  0.7847275328567007 -0.8786903226929348 0  0.5876940748574935 -0.9797832314410893 0  0.5815811661745249 0.8559682404024771 0  0.7775990509474373 0.761898090457429 0  0.009820905951750423 -
[...]
<PointData  Vectors="f_2049"> 
<DataArray  type="Float64"  Name="f_2049"  NumberOfComponents="3" format="ascii">5.7401901607532869e-02 1.9448612660627686e-03 0.0000000000000000e+00  9.5099533075454282e-02 1.2835523242101932e-02 0.0000000000000000e+00  8.1740211769220070e-02 1.4942160510701038e-02 0.0000000000000000e+00  8.9541818733672354e-02 2.2100220473852242e-02 0.0000000000000000e+00  1.0011312853370527e-01 3.1269205844123085e-02 0.0000000000000000e+00  1.1322597517911466e-01 4.5601419680658388e-02 0.0000000000000000e+00  9.5381505692536075e-02 4.3219767227119628e-02 0.0000000000000000e+00  5.8698216645929904e-02 5.3343227335435971e-02 0.0000000000000000e+00  3.2664213493695560e-01 2.1742874794080019e-01 0.0000000000000000e+00  3.0140467432498198e-02 1.7558971829642531e-02 0.0000000000000000e+00  -6.2824922179281942e-02 -2.7806407511431222e-02 0.0000000000000000e+00  1.3389444849802748e-01 1.1067918134798684e-01 0.0000000000000000e+00  1.0202813833327815e-01 9.1849086337997057e-02 0.0000000000000000e+00  1.6185310065154523e-01 1.5317675861997607e-01 0.0000000000000000e+00  1.0044433254785248e-01 1.0501022197687022e-01 0.0000000000000000e+00  1.6218703305528898e-01 2.0010671439245226e-01 0.0000000000000000e+00  2.1770304849720720e-01 2.6436020722209613e-01 0.0000000000000000e+00  -5.7178406222486655e-02 -7.9941014998539478e-02 0.0000000000000000e+00  -6.0088806172847183e-02 -6.4337754062042771e-02 0.0000000000000000e+00  4.2991008264580383e-02 5.8327021393135357e-02 0.0000000000000000e+00  4.1096904744854314e-02 5.4999583126052985e-02 0.0000000000000000e+00  6.9284309267702571e-02 9.3952347894827135e-02 0.0000000000000000e+00  3.8625359284038555e-02 5.6748726114306716e-02 0.0000000000000000e+00  5.6433240724074900e-02 9.1330905821409389e-02 0.0000000000000000e+00  1.5612080334810396e-01 2.5478469518475966e-01 0.0000000000000000e+00  -3.2426348207775756e-03 -5.8555558436060818e-03 0.0000000000000000e+00  5.6404390796321669e-03 1.1523394156124592e-02 0.0000000000000000e+00  2.1371093418908128e-02 4.0833529260874454e-02 0.0000000000000000e+00  8.8683956649750761e-03 1.9315032877869759e-02 0.0000000000000000e+00  9.1272725755664457e-03 2.1278676190016145e-02 0.0000000000000000e+00  -3.7459427065225718e-04 2.2679921412242267e-03 0.0000000000000000e+00  -1.8605617114037789e-03 9.6085400455194544e-04 0.0000000000000000e+00  8.2637901755132637e-03 2.4883105463890210e-02 0.0000000000000000e+00  -5.3961800093412886e-03 -1.3611743899319023e-02 0.0000000000000000e+00  -1.0880830634771091e-02 -3.0205805629215453e-02 0.0000000000000000e+00  -7.8849165303458701e-03 -2.5404755166881655e-02 0.0000000000000000e+00  -1.0398534581366218e-02 -4.0096952701996640e-02 0.0000000000000000e+00  -8.9338405834603445e-03 -4.1520722852791181e-02 0.0000000000000000e+00  -8.9572889616905613e-03 -5.1878416181251448e-02 0.0000000000000000e+00  -6.8603030372991515e-03 -5.1256011479128116e-02 0.0000000000000000e+00  -4.4585387700308765e-03 -5.2126058087279319e-02 0.0000000000000000e+00  -2.8897780541140257e-03 -5.3050923197680212e-02 0.0000000000000000e+00  -7.5478451596552323e-04 -5.1370292561399043e-02 0.0000000000000000e+00  1.3182515889079607e-03 -4.7799244976373972e-02 0.0000000000000000e+00  3.0374187288256731e-03 -4.1969857534069767e-02 0.0000000000000000e+00  3.8390054228456525e-03 -3.1963659021244158e-02 0.0000000000000000e+00  5.5364142488590357e-03 -3.1290888851459787e-02 0.0000000000000000e+00  4.0421702174242725e-03 -1.7852395523517212e-02 0.0000000000000000e+00  -3.4345973353334193e-04 8.0048376848336107e-03 0.0000000000000000e+00  8.0660828733708778e-03 -2.0368621895670312e-02 0.0000000000000000e+00  1.0465079181674374e-02 -2.8141807802627351e-02 0.0000000000000000e+00  5.8203057840343674e-03 -1.1088280743619590e-02 0.0000000000000000e+00  1.2607674449505937e-02 -2.7049232643676060e-02 0.0000000000000000e+00  -7.8521100015668073e-04 5.4365514537734168e-03 0.0000000000000000e+00  2.2530620477057142e-02 -4.2215765951628917e-02 0.0000000000000000e+00  -3.2565275199805780e-04 1.0466900324097271e-03 0.0000000000000000e+00  -6.0570572349399165e-02 1.1661310529787240e-01 0.0000000000000000e+00  -5.8371982663070867e-03 1.8009060002160741e-02 0.0000000000000000e+00  -2.9059298234863358e-03 7.2780456564761498e-03 0.0000000000000000e+00  -2.9051472203360174e-02 4.5824097298721320e-02 0.0000000000000000e+00  -6.2616735443995824e-03 1.1347605885655554e-02 0.0000000000000000e+00  -2.4092921188680533e-02 3.5432019937347202e-02 0.0000000000000000e+00  2.3968626723785656e-02 -2.7400126512594228e-02 0.0000000000000000e+00  -4.1700592742348046e-02 4.6658324584369387e-02 0.0000000000000000e+00  3.3626204863878587e-02 -4.5921131385541061e-02 0.0000000000000000e+00  -7.5510051901398811e-02 1.0300835280365504e-01 0.0000000000000000e+00  -3.2309526678328232e-02 4.3445455451753025e-02 0.0000000000000000e+00  -1.7445150355404799e-02 2.2154839755447533e-02 0.0000000000000000e+00  2.0302536363545013e-02 -1.6710897693591527e-02 0.0000000000000000e+00  3.0277696549974139e-02 -4.6335378295365291e-02 0.0000000000000000e+00  3.0744581858863956e-01 -4.4412874827914472e-01 0.0000000000000000e+00  -1.1098977870012612e+00 1.3969531396618315e+00 0.0000000000000000e+00  4.1465454731251267e-01 -1.0546081601124135e-01 0.0000000000000000e+00  -1.8528586514452891e-01 1.4321755519790494e-01 0.0000000000000000e+00  -5.0500748677381535e-01 3.5019241474695223e-01 0.0000000000000000e+00  -2.3910909720733373e-01 1.3025710213719283e-01 0.0000000000000000e+00  -1.2380592049450229e-01 7.6602292063403507e-02 0.0000000000000000e+00  -8.0067672577068053e-02 2.4713272564246533e-02 0.0000000000000000e+00  3.7258570178699568e-01 -4.7223647091784407e-02 0.0000000000000000e+00  -2.4340018505141237e-01 4.0306216078436527e-02 0.0000000000000000e+00  -1.3956592069921367e-01 5.8416172476638578e-02 0.0000000000000000e+00  6.7722018772134684e-01 -1.3146330561116533e-02 0.0000000000000000e+00  -1.0407217569353421e-01 -4.2397204141791456e-03 0.0000000000000000e+00  -4.8549977731233124e-02 3.4293995208596227e-04 0.0000000000000000e+00  -4.7120146734484614e-02 8.8508175932182093e-04 0.0000000000000000e+00  -3.4029144284235049e-02 -7.6166949378711810e-05 0.0000000000000000e+00  -2.8934413830195255e-02 4.5707737761221537e-03 0.0000000000000000e+00  4.3918887488098568e-01 -3.7663296300976430e-03 0.0000000000000000e+00  -1.0125162643968030e-01 -3.9805186954581628e-02 0.0000000000000000e+00  -2.0112114459102226e-01 -2.6896044610043020e-02 0.0000000000000000e+00  3.0080821790613743e-01 2.5260194588271837e-02 0.0000000000000000e+00  -7.7441433419550412e-02 -2.1501382496280481e-02 0.0000000000000000e+00  -1.2178225922454346e-01 -7.5254519432750064e-02 0.0000000000000000e+00  -2.3858989921308438e-01 -1.3135950866351401e-01 0.0000000000000000e+00  -5.0738475495694202e-01 -3.5781319887005658e-01 0.0000000000000000e+00  -7.1762888672044403e-02 -6.2669235265959494e-02 0.0000000000000000e+00  5.4986185647492714e-01 2.7082525957766801e-01 0.0000000000000000e+00  -1.1683460784151196e+00 -1.4920494665635600e+00 0.0000000000000000e+00  4.0489949646514667e-01 5.6437639538044770e-01 0.0000000000000000e+00  5.4735328040068199e-02 7.4897601999045021e-02 0.0000000000000000e+00  4.8901630204686394e-02 5.0092248898821468e-02 0.0000000000000000e+00  -5.6593814979109328e-03 -7.4523182318671031e-03 0.0000000000000000e+00  -2.0423317846163164e-02 -2.7206892383208878e-02 0.0000000000000000e+00  -5.7170634056722361e-02 -7.4486287489239106e-02 0.0000000000000000e+00  9.4385850159565937e-02 1.2348119933629328e-01 0.0000000000000000e+00  -8.6151082215157923e-02 -9.4684261753353594e-02 0.0000000000000000e+00  4.4396059216671398e-02 4.9468491074862682e-02 0.0000000000000000e+00  -1.0381398670112041e-02 -1.5024490869010011e-02 0.0000000000000000e+00  4.5866421294047926e-03 4.4149691532831088e-03 0.0000000000000000e+00  -2.0389060272109797e-02 -2.9823468999901532e-02 0.0000000000000000e+00  4.4915588865642366e-03 5.0645035128799813e-03 0.0000000000000000e+00  -6.1225570089734763e-03 -1.2603929240227423e-02 0.0000000000000000e+00  -4.4405237945571653e-04 -1.7267878131460495e-04 0.0000000000000000e+00  2.2633495681203052e-02 3.8919022176066034e-02 0.0000000000000000e+00  6.9929610964368435e-02 1.1845567787061968e-01 0.0000000000000000e+00  1.5531699231028184e-02 2.9312067930262635e-02 0.0000000000000000e+00  3.8423436389249749e-02 8.1849799195955961e-02 0.0000000000000000e+00  1.7715551485910652e-02 4.0463493792007116e-02 0.0000000000000000e+00  2.6400591437371234e-02 7.3266466062031216e-02 0.0000000000000000e+00  2.1021805126194140e-02 5.7728525054703148e-02 0.0000000000000000e+00  -4.9408909351016028e-03 -3.0177321785725214e-02 0.0000000000000000e+00  4.0943755109044324e-03 2.0005571292704433e-02 0.0000000000000000e+00  8.4240096613389884e-03 4.7903983820964308e-02 0.0000000000000000e+00  4.3786932336814487e-03 3.4992142018440218e-02 0.0000000000000000e+00  3.4570808861580662e-03 4.5466849292963886e-02 0.0000000000000000e+00  1.1437070407479706e-03 4.2844125889145747e-02 0.0000000000000000e+00  -1.0064664613407457e-03 4.5375032430563206e-02 0.0000000000000000e+00  -3.1374396697748282e-03 4.2966202163211870e-02 0.0000000000000000e+00  -5.7608460315142530e-03 4.6766221001396366e-02 0.0000000000000000e+00  -7.6434694025435254e-03 4.6859659634971761e-02 0.0000000000000000e+00  -9.7912308254668699e-03 4.7450820281105213e-02 0.0000000000000000e+00  -1.0754221970066037e-02 4.2919864380446614e-02 0.0000000000000000e+00  -1.3066634407273155e-02 4.4480036953297282e-02 0.0000000000000000e+00  -1.0110602904675213e-02 2.9785986845152507e-02 0.0000000000000000e+00  -1.7292981950530716e-02 4.5187977197069226e-02 0.0000000000000000e+00  -8.4937948339273029e-03 2.1420272032161066e-02 0.0000000000000000e+00  1.4964844836879010e-02 -3.8860917981580534e-02 0.0000000000000000e+00  -1.0737275447247421e-02 1.6957412512854396e-02 0.0000000000000000e+00  -9.1984259243266704e-03 1.5976161193685570e-02 0.0000000000000000e+00  2.4618783556430725e-03 -6.6458701635214272e-03 0.0000000000000000e+00  2.0467019230360280e-03 -5.4187879131737532e-03 0.0000000000000000e+00  1.4098481472053068e-02 -2.5532751290687525e-02 0.0000000000000000e+00  1.1242289331685456e-03 -3.0892698617615245e-03 0.0000000000000000e+00  -6.9518694634820993e-03 1.1558668554621929e-02 0.0000000000000000e+00  1.4016778923264489e-01 -2.1698900914835759e-01 0.0000000000000000e+00  5.0537198122734057e-02 -7.7639997753180617e-02 0.0000000000000000e+00  3.4686665869668815e-02 -4.8638610327331848e-02 0.0000000000000000e+00  6.1765226899688642e-02 -8.0274112548170698e-02 0.0000000000000000e+00  3.6401811930533642e-02 -4.6838444080608208e-02 0.0000000000000000e+00  3.4106065463114524e-02 -4.5391567999217654e-02 0.0000000000000000e+00  -5.8455960372104397e-02 6.0431914305515408e-02 0.0000000000000000e+00  -4.2007862887575687e-02 6.1143291018305013e-02 0.0000000000000000e+00  1.8230558999455584e-01 -2.1520369082369892e-01 0.0000000000000000e+00  1.5375406229626795e-01 -1.8380901088743676e-01 0.0000000000000000e+00  9.4401704457090230e-02 -9.6072447846248493e-02 0.0000000000000000e+00  1.5052067217591192e-01 -1.3891247517838889e-01 0.0000000000000000e+00  9.5962959062684483e-02 -8.4133263702727432e-02 0.0000000000000000e+00  1.2203139702936544e-01 -9.8703869092118215e-02 0.0000000000000000e+00  -5.4960278304276265e-02 2.2777542019382847e-02 0.0000000000000000e+00  2.6781085160567552e-02 -1.4882012716864708e-02 0.0000000000000000e+00  2.9556162862371788e-01 -1.9165228907803625e-01 0.0000000000000000e+00  5.5063290383988904e-02 -4.7856936132244760e-02 0.0000000000000000e+00  8.8607839766635818e-02 -3.8338611944494089e-02 0.0000000000000000e+00  1.0233436020828796e-01 -3.9024171340825767e-02 0.0000000000000000e+00  8.5895357850315171e-02 -2.4800734317086924e-02 0.0000000000000000e+00  7.5794301309693946e-02 -1.6458084315425361e-02 0.0000000000000000e+00  6.9409681604433449e-02 -1.0725450277438403e-02 0.0000000000000000e+00  3.8007459390335424e-02 -2.5867273691750560e-03 0.0000000000000000e+00  4.2599188881014551e-05 5.0444171709063275e-06 0.0000000000000000e+00  -4.3152336568592206e-05 -6.4654344788771354e-05 0.0000000000000000e+00  3.0496861657652456e-05 -7.3769951585236584e-05 0.0000000000000000e+00  4.0069050997390391e-05 -2.4672231231514673e-06 0.0000000000000000e+00  -5.0866758905268798e-05 7.7380948515331987e-05 0.0000000000000000e+00  1.1087131555147754e-06 4.4143332285435916e-05 0.0000000000000000e+00  2.9006429453564778e-05 7.3686724001910804e-05 0.0000000000000000e+00  -4.6797317067434814e-06 3.7584811457045504e-06 0.0000000000000000e+00  1.5300658209760234e-06 -3.9013359309678027e-05 0.0000000000000000e+00  -1.8367595627598576e-06 -6.3503888620299257e-05 0.0000000000000000e+00  1.2676577495880203e-05 1.7028192918613390e-05 0.0000000000000000e+00  6.9247828326058389e-05 -1.3322719743785852e-04 0.0000000000000000e+00  5.9776594865962199e-07 7.0004143451270450e-05 0.0000000000000000e+00  -5.0697844297035056e-05 -2.5281574260825840e-05 0.0000000000000000e+00  -5.1877311617925723e-05 -4.2163446269953726e-05 0.0000000000000000e+00  -5.8130662042713729e-05 2.5720476438977725e-05 0.0000000000000000e+00  -8.9471530870928798e-05 8.2852350152832685e-05 0.0000000000000000e+00  -1.2223588785188256e-05 9.5195112027478181e-08 0.0000000000000000e+00  8.8017634175753165e-05 -5.8048217842160093e-05 0.0000000000000000e+00  6.9793084211096715e-05 5.1637064097833521e-05 0.0000000000000000e+00  7.3208415476864834e-05 1.1569753265007129e-04 0.0000000000000000e+00  -5.0397781447129552e-06 -7.3467734138584850e-05 0.0000000000000000e+00  -7.9205809793491213e-06 7.7675763175760087e-05 0.0000000000000000e+00  -8.3648815072236656e-05 -6.5529242946239531e-05 0.0000000000000000e+00  9.8536975216597777e-06 -3.2158391856761028e-05 0.0000000000000000e+00  5.7508292099619726e-05 9.3673709345721805e-05 0.0000000000000000e+00  7.1052566741987484e-06 -8.1289655570917878e-05 0.0000000000000000e+00  -1.2344504828740323e-05 2.7380790996964650e-06 0.0000000000000000e+00  4.9946193180844733e-06 2.1473390572357228e-06 0.0000000000000000e+00  -2.0069531536249369e-05 -7.1905241289856270e-05 0.0000000000000000e+00  5.1103005478279819e-06 -1.0393032901981242e-04 0.0000000000000000e+00  -2.7189559454646970e-06 -5.4088592723251802e-05 0.0000000000000000e+00  -7.0615288189745696e-05 -1.5593045432047678e-04 0.0000000000000000e+00  -4.3231281725606351e-05 -3.2621919904295612e-05 0.0000000000000000e+00  -4.7544670503374940e-06 -2.1728038384569197e-05 0.0000000000000000e+00  -9.9619542993017529e-07 3.1083751346953729e-06 0.0000000000000000e+00  5.5171394639169993e-07 8.3149411408641596e-05 0.0000000000000000e+00  1.2344972902479840e-05 8.7901185273498458e-05 0.0000000000000000e+00  7.8073431808461284e-07 1.4295412742381069e-06 0.0000000000000000e+00  -9.1899552656017516e-07 -6.6746632475766355e-05 0.0000000000000000e+00  8.8228009218341080e-06 -8.8053486782892795e-05 0.0000000000000000e+00  8.9767112356903549e-06 -7.3733877683730659e-05 0.0000000000000000e+00  3.9373074316009554e-07 -2.0733931181889422e-05 0.0000000000000000e+00  2.7771293119366712e-06 2.6987567948154304e-05 0.0000000000000000e+00  9.6833138132105200e-06 7.3603311454554956e-05 0.0000000000000000e+00  1.3907972277236633e-04 -2.4746303717225032e-05 0.0000000000000000e+00  1.2025478531775385e-04 -8.5313818671501251e-05 0.0000000000000000e+00  8.6163815202861332e-05 -2.7461868911494053e-05 0.0000000000000000e+00  -9.0515160718887197e-06 -1.0089493663926612e-04 0.0000000000000000e+00  7.1240720411177980e-05 -9.0038950837367711e-05 0.0000000000000000e+00  -3.9873752127966871e-05 -1.3974937129408361e-04 0.0000000000000000e+00  -3.4057818389110646e-05 1.4157130711710123e-04 0.0000000000000000e+00  -6.7603471857518861e-05 -5.6280503464541213e-05 0.0000000000000000e+00  -6.8959414539867712e-05 -7.6455855485774735e-05 0.0000000000000000e+00  -3.7367119720520237e-05 -2.9603206590307694e-05 0.0000000000000000e+00  8.4587500784169729e-06 7.1651998963801378e-05 0.0000000000000000e+00  2.3939182325664280e-06 5.6911183578016488e-05 0.0000000000000000e+00  7.8526772916191905e-06 -7.2552391395545103e-05 0.0000000000000000e+00  1.2044640522424307e-05 -8.6491826444658594e-05 0.0000000000000000e+00  1.0230423353327155e-05 9.0840055114360684e-05 0.0000000000000000e+00  5.9088778547285100e-06 7.5980408833047915e-05 0.0000000000000000e+00  4.2372421415505241e-05 -5.5357211899280260e-05 0.0000000000000000e+00  1.3105235266895528e-05 -6.4015663917587224e-05 0.0000000000000000e+00  1.4853694432660682e-05 7.1967523223084105e-05 0.0000000000000000e+00  4.1674205960501456e-05 6.1272594843838729e-05 0.0000000000000000e+00  -3.1089847750033570e-05 -6.6405532292540827e-05 0.0000000000000000e+00  -4.4860586373691357e-05 -4.3624598950680564e-05 0.0000000000000000e+00  -5.0882427235077237e-05 5.1140510984609567e-05 0.0000000000000000e+00  -3.4533220974639306e-05 7.2009516943931354e-05 0.0000000000000000e+00  1.0542190534434132e-05 1.6366490001393111e-07 0.0000000000000000e+00  4.2092352116225151e-05 -6.3367692040315127e-06 0.0000000000000000e+00  3.9464913226032691e-05 7.6253239172869772e-06 0.0000000000000000e+00  8.4455102290353776e-06 -2.3318760264676500e-07 0.0000000000000000e+00  -5.3022065164710143e-05 -4.7903095548877653e-05 0.0000000000000000e+00  -6.0460567084006164e-05 1.9228474634101349e-04 0.0000000000000000e+00  -1.0628700402334824e-05 7.0076325395282277e-05 0.0000000000000000e+00  -6.0235400950301316e-05 5.1290912275565859e-05 0.0000000000000000e+00  2.8273119357598124e-05 -5.1112881697502465e-05 0.0000000000000000e+00  4.3018477368264710e-05 -1.5838899600543430e-04 0.0000000000000000e+00  3.0746247733966377e-06 -5.7292845052925442e-05 0.0000000000000000e+00  -6.9689308801457498e-05 6.9199437736492493e-05 0.0000000000000000e+00  -2.0539286829134220e-03 8.3717951131995563e-05 0.0000000000000000e+00  -1.1086664313408314e-05 1.2614774584334199e-05 0.0000000000000000e+00  -1.3044569352796929e-05 -8.4331368311894942e-05 0.0000000000000000e+00  -9.6208461921662566e-06 9.1837001363193326e-05 0.0000000000000000e+00  6.4477266550802792e-06 -6.3084621040494795e-05 0.0000000000000000e+00  1.2330129634874679e-06 1.0560054523134054e-04 0.0000000000000000e+00  -2.4386226046306991e-05 7.9655229080565548e-05 0.0000000000000000e+00  -5.2421922596934917e-06 2.8770483905181710e-05 0.0000000000000000e+00  -8.5684143459154998e-05 6.4695672620836120e-05 0.0000000000000000e+00  -6.3894146904458794e-05 5.5981935308730861e-05 0.0000000000000000e+00  -4.9815737333339929e-06 1.6537668826745568e-06 0.0000000000000000e+00  -2.3106793946399027e-05 -4.5665533977115363e-06 0.0000000000000000e+00  7.5622150983261106e-05 6.8959557218835040e-05 0.0000000000000000e+00  1.1464221153505166e-04 4.0272523224386177e-05 0.0000000000000000e+00  7.6398354551939738e-05 3.0636158211954994e-05 0.0000000000000000e+00  -3.8812833422128857e-05 -6.3935122564889109e-05 0.0000000000000000e+00  3.3324763194380019e-04 8.8136465578855577e-06 0.0000000000000000e+00  -4.1682495701084182e-05 -2.1406547602365462e-05 0.0000000000000000e+00  -2.7666198499118688e-05 -5.9959431077223423e-06 0.0000000000000000e+00  -2.9825508117525004e-05 7.1902305594830762e-06 0.0000000000000000e+00  -4.9531453039525610e-05 2.6782155598654108e-05 0.0000000000000000e+00  3.7216145343428882e-02 1.0608902812851238e-02 0.0000000000000000e+00  -4.9119242207598679e-05 1.5428024688103560e-05 0.0000000000000000e+00  -1.3331576318547029e-05 8.2756413319538227e-07 0.0000000000000000e+00  6.7888725367263648e-05 -2.4586922345316712e-05 0.0000000000000000e+00  6.3559093822627760e-05 -3.9841322855740244e-05 0.0000000000000000e+00  6.1789372266361211e-05 -7.4307970058349164e-05 0.0000000000000000e+00  5.6521329948555290e-05 4.3137072183231821e-05 0.0000000000000000e+00  6.1183993768406894e-05 2.6360622892249443e-05 0.0000000000000000e+00  5.0361196511254712e-05 6.7106692840532631e-05 0.0000000000000000e+00  4.8259194398825691e-05 1.4149360391056633e-04 0.0000000000000000e+00  2.9810131709946600e-05 4.37070