<?xml version="1.0"?>
<VTKFile type="UnstructuredGrid"  version="0.1"  >
<UnstructuredGrid>
<Piece  NumberOfPoints="2549" NumberOfCells="4928">
<Points>
<DataArray  type="Float64"  NumberOfComponents="3"  format="ascii">1.638395186688502 -0.03760572581778678 0  1.635320066911391 0.009953603306739649 0  1.628591858549835 0.05701194042686625 0  1.620279694223064 0.1041945715429778 0  1.608960289641547 0.1510444260643752 0  1.59539048974523 0.1977544345668199 0  1.578454004081401 0.2437788236278861 0  1.56003497571065 0.2896428785710884 0  1.535951089933845 0.332903917612652 0  1.510626329169449 0.37457903834769 0  1.487315720054373 0.4208634870108144 0  1.458661359766714 0.4628053720963598 0  1.429497704488642 0.5051630399985528 0  1.398333757061359 0.5462131152836417 0  1.365609716221152 0.5865436617970986 0  1.33137879478627 0.6258599876442258 0  1.295269748212325 0.6634869402038963 0  1.25908306099869 0.6997906035443806 0  1.222823575285851 0.7407039962391327 0  1.184409446280295 0.778196820024704 0  1.145430691677376 0.8165474450524612 0  1.105150541332519 0.8538995479072777 0  1.064039793292968 0.8912808362826067 0  1.021384155295373 0.9276362159326448 0  0.9772307297603035 0.9626833883298744 0  0.9324510624519757 0.996219716196764 0  0.8863677818537596 1.029313364111762 0  0.8392266508977533 1.061519581616376 0  0.7910860891182505 1.092955494533087 0  0.7417965011571387 1.12314050990182 0  0.6914474341129399 1.152097822960148 0  0.6400485796954454 1.179632581929659 0  0.5874082563885578 1.205116321547226 0  0.5339124894014718 1.228726312145444 0  0.4794876156210754 1.250841215815186 0  0.4240843978249614 1.270607127217673 0  0.3678914229204581 1.288270792805033 0  0.3109296655186946 1.303514606478634 0  0.2533140802682742 1.316313383757381 0  0.1951668076853188 1.326582732146887 0  0.1365155905370782 1.333932984133107 0  0.07765957737458798 1.338586891122673 0  0.01860785394205415 1.340751844906654 0  -0.04047425369161007 1.340041002028359 0  -0.09947082198366011 1.336561388643399 0  -0.1582240422700218 1.330224096412278 0  -0.2166099628651506 1.321152445708996 0  -0.274466157635327 1.309169754566278 0  -0.3316866316635535 1.294813507204995 0  -0.3882748766695976 1.277789957326129 0  -0.4438443501006976 1.257898811551334 0  -0.4984627923895723 1.235653173827076 0  -0.5520888065240631 1.211365394026306 0  -0.6044936480753585 1.184845866479013 0  -0.6559901515163862 1.157019204814186 0  -0.7060145523075749 1.126836795485124 0  -0.7549266093757928 1.096378090229983 0  -0.803032210163501 1.064319400351012 0  -0.8493855895689135 1.030201985002281 0  -0.8944503962556055 0.9950867541428275 0  -0.9384787656764241 0.9595557861232575 0  -0.9810172824863961 0.9228408960108023 0  -1.023053461601108 0.8868562862856756 0  -1.062253323131999 0.8469376728577706 0  -1.101478741851677 0.8113193566116904 0  -1.140194351395049 0.7755601678376685 0  -1.177570726185093 0.7386144720056271 0  -1.214269153127531 0.7022039617041314 0  -1.249705211545119 0.6649361232877127 0  -1.284776791719549 0.6294210730901786 0  -1.319609427935489 0.5927104517009585 0  -1.35418868408879 0.5592835898381932 0  -1.389212621461289 0.522348715254599 0  -1.412985798318227 0.4755868192675679 0  -1.445925818122507 0.4341666835880929 0  -1.471574529798271 0.3893621214224285 0  -1.494809412596154 0.3430856458688302 0  -1.511401476039219 0.2939883815657754 0  -1.529892539635172 0.2468965319634204 0  -1.530439711384366 0.1925259242231557 0  -1.545245463188541 0.1483161107687358 0  -1.557076910105751 0.1016425718900352 0  -1.549764369820951 0.05373538904012681 0  -1.554337712599134 0.007535340405048903 0  -1.553456823482974 -0.03839565108080683 0  -1.555506318330659 -0.08431184565374274 0  -1.552748804897412 -0.1307398882903856 0  -1.558016856620298 -0.1791121134146625 0  -1.548375608942069 -0.2262182581081987 0  -1.535405845232496 -0.2711533473556172 0  -1.534915202644544 -0.3264167437636196 0  -1.517503354909073 -0.3742127344066428 0  -1.501270945086037 -0.4240126507709295 0  -1.478141170120738 -0.47052744632565 0  -1.452496435193011 -0.515560498147778 0  -1.420482904164579 -0.5572438069492417 0  -1.396058203958926 -0.6038873291009165 0  -1.360606736349735 -0.6408495185826572 0  -1.326139066520806 -0.6747563366577581 0  -1.291095353271898 -0.7113796404737313 0  -1.255977598630351 -0.7469754974954068 0  -1.220680568910088 -0.7845774801543332 0  -1.184188458675373 -0.8214717878054921 0  -1.147048119870404 -0.8590339613242437 0  -1.108636473248199 -0.8955211933747255 0  -1.069516412036737 -0.9320047288276073 0  -1.031159051934193 -0.974248909739866 0  -0.9890699923228526 -1.011436920744585 0  -0.9466197936237243 -1.049608561777192 0  -0.9026656500749168 -1.086746623505713 0  -0.8576171833167618 -1.123477673102236 0  -0.8111384301724468 -1.159171362123457 0  -0.763211503630201 -1.193343757581826 0  -0.7139000947544961 -1.226322813567862 0  -0.6641673026390178 -1.260447108321707 0  -0.611898338175525 -1.290332965351812 0  -0.5590305328891765 -1.319093820853218 0  -0.5047468438715833 -1.34536025964962 0  -0.4494314274872063 -1.369435314491344 0  -0.3931810470546455 -1.391145482687958 0  -0.3355908851784654 -1.409278838241091 0  -0.2774532309387411 -1.424488921503734 0  -0.2186430825159487 -1.437465220862388 0  -0.1592107472842669 -1.447207235219799 0  -0.09936663515116326 -1.45404221998121 0  -0.03922841853078803 -1.457717725275693 0  0.02102872757128998 -1.45828638679281 0  0.08124655816596445 -1.45564869485381 0  0.1412557768180336 -1.449817468679161 0  0.2008332089737901 -1.441007141003869 0  0.2599107216508028 -1.429511846872235 0  0.3183506128707126 -1.415290341521497 0  0.376075257362226 -1.39856336497714 0  0.4329213754247433 -1.379288105199494 0  0.4889346704573499 -1.358030324537568 0  0.5438319462443616 -1.334178939972392 0  0.5977305376158456 -1.309355393526222 0  0.6508986157711767 -1.28252428016499 0  0.7025089288582455 -1.253150146003032 0  0.7530835399635852 -1.222534307402258 0  0.8024940283794306 -1.19070846809441 0  0.8507126406757721 -1.157717816831859 0  0.8978578441546239 -1.123999110621601 0  0.9438932230250713 -1.089500445982451 0  0.9885910674970415 -1.054678752572922 0  1.032639370156725 -1.018350446034802 0  1.075131477432029 -0.9807220393730874 0  1.11606423985928 -0.942188464282166 0  1.156104307656284 -0.9036787439243394 0  1.194802594983377 -0.8642045731780151 0  1.232963863626264 -0.8257227637770796 0  1.268778657281851 -0.7836152604888895 0  1.30462351678256 -0.7465382838088389 0  1.340551223953893 -0.708354292335149 0  1.374406904816426 -0.668255729845077 0  1.40682309227901 -0.6273103960435016 0  1.437665572951046 -0.5856482787572334 0  1.466484070420596 -0.5426780660873245 0  1.494708429987099 -0.5001277901062499 0  1.517659294905303 -0.4532635369789931 0  1.542614491634123 -0.4111580728258962 0  1.566215422169909 -0.3673877950701552 0  1.584072686577445 -0.320990587142105 0  1.600322146001123 -0.274480793105945 0  1.613164869724837 -0.227315174539316 0  1.623523337309761 -0.1800231521276606 0  1.630899260448884 -0.1325358509410076 0  1.636411209749802 -0.08522129634309306 0  -0.08076929982341557 0.8002875764991254 0  0.618798411810681 -0.719196064044673 0  -0.7273286058461513 -0.6295169256907186 0  -0.05688125034991009 -0.8905130130747061 0  0.6145056049425742 0.6235769695935149 0  1.166784070334192 0.2040479226184354 0  -0.739907950370163 0.5297961712848696 0  -1.210059627921967 -0.04314998537654355 0  1.171007423568046 -0.2864104110605239 0  -1.015681412351386 -0.4548896939368507 0  -0.7765339513488725 -0.0579834405300426 0  -0.4558044551689383 -0.2323171124128814 0  -1.026240655236653 0.3496487398869982 0  0.2990939679356988 -0.8676567662647232 0  0.1542324917898941 -0.2931585716166062 0  0.2625683311801165 0.7619109428374137 0  0.3546966547472297 0.2036677465694083 0  0.6694639437945926 -0.04231387887288726 0  -0.3919072774179884 -0.7828286006032761 0  -0.4286860824684355 0.7053426343916714 0  -0.2559345163846065 0.2597054026287352 0  0.9245169243509619 -0.4925250487834321 0  0.9203312557646217 0.4062943663436343 0  0.4224623775935276 -0.324096662076703 0  0.04760237903341766 0.2551321898503653 0  -0.519147716986733 0.1986567255513313 0  -0.1536577251316021 -0.2855126435141563 0  0.9529296043008868 -0.04191867979539531 0  1.360202775725446 -0.03956080262894079 0  0.771989333091805 -0.602971287751105 0  0.7882442036656769 -0.2768873527000617 0  0.6347142382541163 -0.3776356823557618 0  0.5446175985262371 -0.1793117373942298 0  0.5147516763264984 -0.5268604047351999 0  0.9316062325975545 -0.2656348707035198 0  0.810520595594308 -0.04209378825539428 0  -0.8929600664728041 0.1551346248750012 0  -1.113688921136655 0.1492087892012046 0  -0.9953734506154618 -0.04966039547056314 0  -0.8875725133159622 -0.2651127736379268 0  -1.108932175238572 -0.2441046703406097 0  -1.283729654866654 -0.3364875005968532 0  -1.371405417002339 -0.1527160394131594 0  -1.369381434195196 0.07043631302218305 0  -1.279309702039641 0.2529139397356322 0  -0.105860412895244 -0.5876467418681462 0  -0.2660710238793509 -0.5401121995858585 0  -0.2257223518784098 -0.8420450087190972 0  -0.3041914785469038 -0.2600055542639113 0  -0.4201284100383507 -0.5051935450802255 0  -1.202465030846983 -0.5337042923309339 0  -1.203961318707758 0.4418979722399463 0  0.3596104013995474 -0.593411553721268 0  0.2875563809156212 -0.3102427759166269 0  0.2211246748542207 -0.5834098486127697 0  -0.8825055531344179 0.4355327181251922 0  -0.7487302939127631 0.2337817817745586 0  1.354515666115427 -0.3593875245624523 0  1.226050822923943 -0.5243647967419884 0  1.219283502195605 0.4418100541267387 0  1.349047471041803 0.2793150912200341 0  -0.7328689735808562 -0.9129293267603937 0  -0.9074570533146727 -0.7778132314608628 0  -0.9104469897224401 0.6856046877213141 0  -0.7363935235496796 0.8140815123739379 0  0.7904360109164202 -0.9016678838007293 0  0.6010810215031451 -1.014607282469563 0  0.5942731796306866 0.9152185186887555 0  0.7830530399693268 0.8079190066348565 0  0.031538499339977
[...]
<PointData  Vectors="f_18286"> 
<DataArray  type="Float64"  Name="f_18286"  NumberOfComponents="3" format="ascii">5.2516221202605719e-02 1.2221694318434537e-03 0.0000000000000000e+00  7.2929716752173357e-02 8.9883537511007919e-03 0.0000000000000000e+00  6.7552468120014530e-02 1.1106127827843600e-02 0.0000000000000000e+00  7.7299588153769971e-02 1.7351164504229150e-02 0.0000000000000000e+00  7.8134504589675732e-02 2.1840000582012520e-02 0.0000000000000000e+00  1.0192669397638543e-01 3.7621722833234637e-02 0.0000000000000000e+00  7.0747647907147201e-02 2.8135898107544195e-02 0.0000000000000000e+00  3.1896261215317100e-02 3.5608601340522926e-02 0.0000000000000000e+00  1.9233119952257258e-01 1.1683035573603859e-01 0.0000000000000000e+00  1.4492155886923208e-01 7.6959268812759080e-02 0.0000000000000000e+00  -2.9253458275543650e-02 -2.4656232202415218e-03 0.0000000000000000e+00  1.3062425867035985e-02 1.1927255609375810e-02 0.0000000000000000e+00  4.2286858802394946e-02 3.4471652149990130e-02 0.0000000000000000e+00  1.1674663350514700e-01 9.6261286612346716e-02 0.0000000000000000e+00  1.0149553318888541e-01 9.0621604416906448e-02 0.0000000000000000e+00  1.2277206970708007e-01 1.2037621270689088e-01 0.0000000000000000e+00  1.1739385346566615e-01 1.1690964361785737e-01 0.0000000000000000e+00  3.8407534997355892e-02 3.2391185641393760e-02 0.0000000000000000e+00  -6.9966947814781594e-03 -2.6515186884597691e-03 0.0000000000000000e+00  -2.6292002681796378e-02 -2.5080491052810704e-02 0.0000000000000000e+00  4.8975914039156411e-03 6.4301427520583078e-03 0.0000000000000000e+00  1.6429214708965922e-02 1.9209896695114703e-02 0.0000000000000000e+00  6.6089357211002470e-03 1.0746707168718851e-02 0.0000000000000000e+00  5.2193808991460366e-02 6.7520342186164969e-02 0.0000000000000000e+00  4.2468729100349364e-02 5.7053804572150042e-02 0.0000000000000000e+00  2.3004879479425928e-02 3.2735874999750239e-02 0.0000000000000000e+00  1.1300314242190357e-02 1.7342370101736771e-02 0.0000000000000000e+00  -1.1447587642179984e-03 -6.6931459738753046e-04 0.0000000000000000e+00  -1.0412986932805629e-02 -1.4772513213445257e-02 0.0000000000000000e+00  -1.1992285885628992e-02 -1.8809901141039875e-02 0.0000000000000000e+00  -2.5184261351592078e-02 -4.3611076625761462e-02 0.0000000000000000e+00  -2.5605596809192301e-02 -4.6272619126455458e-02 0.0000000000000000e+00  -1.1801098200842769e-02 -2.3251901516283036e-02 0.0000000000000000e+00  -2.1411731788460217e-02 -4.9019235592973158e-02 0.0000000000000000e+00  -2.4606751976447194e-02 -6.0664016476795472e-02 0.0000000000000000e+00  -1.8582593230190902e-02 -5.3052078061293077e-02 0.0000000000000000e+00  -1.9543629697303267e-02 -6.3589939737495896e-02 0.0000000000000000e+00  -1.4357434626725661e-02 -5.5511055514303916e-02 0.0000000000000000e+00  -1.2583435553025723e-02 -5.9767260580541270e-02 0.0000000000000000e+00  -8.4258167248332551e-03 -5.0736350337111588e-02 0.0000000000000000e+00  -4.5571357242412489e-03 -4.2181505114721921e-02 0.0000000000000000e+00  -2.5105576083723057e-03 -3.9396987335331105e-02 0.0000000000000000e+00  -3.7484861228554665e-04 -3.7684881110187494e-02 0.0000000000000000e+00  1.5731855047090258e-03 -3.5700809166920637e-02 0.0000000000000000e+00  3.5321291333327868e-03 -3.4812997816440178e-02 0.0000000000000000e+00  4.8665058309321852e-03 -3.1491875341637221e-02 0.0000000000000000e+00  7.8139864161115950e-03 -3.6237638247761779e-02 0.0000000000000000e+00  8.6841178919558025e-03 -3.3570379812774671e-02 0.0000000000000000e+00  8.1180875885249193e-03 -2.4230916041407546e-02 0.0000000000000000e+00  2.0160048975366718e-02 -5.3538656318105414e-02 0.0000000000000000e+00  2.8532938682024563e-02 -7.0807647263352688e-02 0.0000000000000000e+00  1.9385476787603939e-02 -4.2465885706033178e-02 0.0000000000000000e+00  3.5227012835797225e-02 -6.9516023436743027e-02 0.0000000000000000e+00  1.5256707026217443e-02 -2.8584937013736548e-02 0.0000000000000000e+00  2.6517411915212858e-02 -4.1740932646163798e-02 0.0000000000000000e+00  1.1385321705119477e-02 -1.8066313931650570e-02 0.0000000000000000e+00  -1.9146606386337424e-02 3.1278811658985016e-02 0.0000000000000000e+00  1.1012542793986597e-02 -1.0132185092447026e-02 0.0000000000000000e+00  3.3715064442726192e-02 -4.2858332461929556e-02 0.0000000000000000e+00  -5.8482610201232360e-04 1.1990635230283322e-03 0.0000000000000000e+00  4.7767230631616961e-02 -5.6033158018925777e-02 0.0000000000000000e+00  4.8244673278506310e-02 -5.5985670665493516e-02 0.0000000000000000e+00  7.9129953010388387e-02 -7.5460953058604049e-02 0.0000000000000000e+00  -1.6746886193467400e-01 1.7141713024729360e-01 0.0000000000000000e+00  -4.5777101006018978e-02 4.9038957026114265e-02 0.0000000000000000e+00  -1.0189291389820570e-02 1.3631420680563985e-02 0.0000000000000000e+00  -1.3135718627031249e-02 1.4966727040486376e-02 0.0000000000000000e+00  -3.0290747155786897e-02 2.9830093312551050e-02 0.0000000000000000e+00  1.0673064279988377e-02 -1.1466851471428955e-02 0.0000000000000000e+00  -5.1672349862251443e-02 4.2225798653225850e-02 0.0000000000000000e+00  -2.9373423743853086e-02 4.0896839495321389e-03 0.0000000000000000e+00  -2.5926801882694500e-01 2.6396370586783857e-01 0.0000000000000000e+00  1.2364179229109544e+00 -6.8617700640527024e-01 0.0000000000000000e+00  -4.9759599746535554e-01 3.3316635315666077e-01 0.0000000000000000e+00  -1.1159939310254192e+00 7.8524016177913381e-01 0.0000000000000000e+00  -2.2384799702428126e-01 1.2302837866706585e-01 0.0000000000000000e+00  5.6491175681399199e-02 -1.3207888524366164e-02 0.0000000000000000e+00  3.4597397690330872e-01 -1.3893237759738775e-01 0.0000000000000000e+00  5.4127025899550463e-01 -4.3539067059262727e-02 0.0000000000000000e+00  -3.6281145698972528e-01 3.8848423923989073e-02 0.0000000000000000e+00  -1.3324693402007617e-01 6.5743960280010769e-02 0.0000000000000000e+00  6.3968615775778581e-01 3.4754618366929425e-02 0.0000000000000000e+00  -1.3252087056837211e-01 -6.0944772653803289e-03 0.0000000000000000e+00  -1.2488807491719690e-01 5.7202967966522500e-03 0.0000000000000000e+00  -6.3426433457933321e-02 1.2178400747180132e-03 0.0000000000000000e+00  -4.6618048372046451e-02 -7.8519786531263422e-04 0.0000000000000000e+00  -3.3363213311917099e-02 2.9889604802230975e-03 0.0000000000000000e+00  4.5392637921683898e-01 -1.1697032742089396e-02 0.0000000000000000e+00  -1.2531220220384903e-01 -4.8891294253259443e-02 0.0000000000000000e+00  -3.1414883307687319e-01 -3.4013575593274156e-02 0.0000000000000000e+00  3.9039659309480590e-01 2.0682610713087836e-02 0.0000000000000000e+00  1.9604280131313406e-01 7.9295307365173748e-02 0.0000000000000000e+00  1.5269016213078980e-02 -7.6299320537803828e-03 0.0000000000000000e+00  -2.2415692968321008e-01 -1.1773420069119082e-01 0.0000000000000000e+00  -9.2656166394571871e-01 -6.3519034864305535e-01 0.0000000000000000e+00  -4.4257197499664508e-01 -2.9754566861358822e-01 0.0000000000000000e+00  9.4058654212874282e-01 5.0456966009793514e-01 0.0000000000000000e+00  -1.1386179891787622e-01 -1.0320410160842153e-01 0.0000000000000000e+00  -4.1214414927736885e-02 -1.7885338769192200e-02 0.0000000000000000e+00  -4.4599998547564509e-02 -3.6014219015281693e-02 0.0000000000000000e+00  2.2357874695344407e-02 2.4424297782097051e-02 0.0000000000000000e+00  -2.0340638613130364e-02 -1.9196878897326315e-02 0.0000000000000000e+00  -4.2151044124865986e-03 -5.5247825919874389e-03 0.0000000000000000e+00  5.6543562863729914e-03 2.2284244253284111e-03 0.0000000000000000e+00  -6.5781863369430593e-02 -6.8016492869068981e-02 0.0000000000000000e+00  -3.0447807438011559e-01 -2.9334834879669647e-01 0.0000000000000000e+00  2.0444374075667837e-01 1.9169784357010561e-01 0.0000000000000000e+00  9.5870289237744141e-02 1.0722136142560071e-01 0.0000000000000000e+00  6.3657138942384645e-02 7.2936414331419522e-02 0.0000000000000000e+00  4.4055057094276344e-03 5.5166563829791501e-03 0.0000000000000000e+00  2.9724818869114954e-02 3.6396762096770376e-02 0.0000000000000000e+00  2.6294284554207258e-02 3.3345342240729242e-02 0.0000000000000000e+00  -2.5921617731569063e-02 -3.7634024367891865e-02 0.0000000000000000e+00  -2.5861226650967718e-02 -3.6313593951495964e-02 0.0000000000000000e+00  1.3395799457425184e-01 1.9644763907779869e-01 0.0000000000000000e+00  2.6125122606439285e-02 4.8468606754363680e-02 0.0000000000000000e+00  7.8464302489121521e-02 1.4829714384416878e-01 0.0000000000000000e+00  2.9589826348239034e-02 6.2508503011249578e-02 0.0000000000000000e+00  5.1393028721504773e-02 1.2315865495616345e-01 0.0000000000000000e+00  4.0502712247629920e-02 1.0200505330039807e-01 0.0000000000000000e+00  7.8275056305043642e-03 2.1162085580306297e-02 0.0000000000000000e+00  1.1550381989057704e-02 4.4986228184419587e-02 0.0000000000000000e+00  1.1286991773292088e-02 5.1246163848689373e-02 0.0000000000000000e+00  5.9372648852577649e-03 3.7851667594760406e-02 0.0000000000000000e+00  4.3025427358569911e-03 4.0533575209876431e-02 0.0000000000000000e+00  1.5968294587719782e-03 3.4195651224664551e-02 0.0000000000000000e+00  -3.9494932258446480e-04 3.4608620210063154e-02 0.0000000000000000e+00  -2.4865932082787632e-03 3.2749981947935713e-02 0.0000000000000000e+00  -5.6797993735159336e-03 4.2608923324762835e-02 0.0000000000000000e+00  -8.2571043305383635e-03 4.5796341103577685e-02 0.0000000000000000e+00  -1.1984137760126731e-02 5.1569552777260171e-02 0.0000000000000000e+00  -1.4023706822980963e-02 4.9999790838268603e-02 0.0000000000000000e+00  -2.0501867140776831e-02 6.1660757072760378e-02 0.0000000000000000e+00  -1.6902417162077393e-02 4.5601932817830884e-02 0.0000000000000000e+00  -2.6445769128864451e-02 6.0814853896166615e-02 0.0000000000000000e+00  -1.8753887453001879e-02 4.0994480154415876e-02 0.0000000000000000e+00  -2.4375919749168502e-03 2.8939080945355714e-03 0.0000000000000000e+00  -3.9682126722816513e-02 6.7721292173776759e-02 0.0000000000000000e+00  -3.3729187083748349e-02 5.6498817989237969e-02 0.0000000000000000e+00  -1.6486146963955679e-02 2.5238644589087224e-02 0.0000000000000000e+00  -1.7113668509584359e-02 2.4543593715492480e-02 0.0000000000000000e+00  -5.4242556050833812e-03 6.9438338723033111e-03 0.0000000000000000e+00  5.4312998657565399e-03 -8.3101479210800147e-03 0.0000000000000000e+00  1.8516157276268888e-02 -2.5235505206123828e-02 0.0000000000000000e+00  3.9863509518082901e-02 -5.1400685678312602e-02 0.0000000000000000e+00  4.6878695196873321e-02 -5.8543425850926728e-02 0.0000000000000000e+00  4.3232365026418512e-03 -7.4446180348215069e-03 0.0000000000000000e+00  1.6620438692870398e-02 -1.8633542570667041e-02 0.0000000000000000e+00  -2.8671728327563329e-03 1.7975577090106976e-03 0.0000000000000000e+00  -3.6512261875041696e-02 3.4476228379270113e-02 0.0000000000000000e+00  -1.5602219775099136e-02 1.0307688918564314e-02 0.0000000000000000e+00  6.7167164916510966e-02 -5.6026581725408330e-02 0.0000000000000000e+00  9.0602843801233693e-02 -8.8252129705517865e-02 0.0000000000000000e+00  1.2435031090407919e-01 -1.1955683867261854e-01 0.0000000000000000e+00  9.1915930662949771e-02 -7.9999814769619301e-02 0.0000000000000000e+00  1.1536589890244053e-01 -9.2774728357110411e-02 0.0000000000000000e+00  4.3502114257388383e-02 -3.4372102118774159e-02 0.0000000000000000e+00  2.0933131982959843e-02 -1.7233779519727373e-02 0.0000000000000000e+00  -2.9882955002374548e-02 4.3331410729454513e-03 0.0000000000000000e+00  1.2369521913477345e-01 -6.3478699600532998e-02 0.0000000000000000e+00  1.8994060961275430e-01 -1.1256603278693293e-01 0.0000000000000000e+00  3.3606145073956574e-02 -3.4471040769045155e-02 0.0000000000000000e+00  6.9346126872491379e-02 -2.6293335912725598e-02 0.0000000000000000e+00  9.5738616286348305e-02 -3.3492285314364517e-02 0.0000000000000000e+00  7.3278679026303598e-02 -1.8951852887566668e-02 0.0000000000000000e+00  6.8904455656050495e-02 -1.3674855924302622e-02 0.0000000000000000e+00  6.2210792412746831e-02 -8.7242376083130364e-03 0.0000000000000000e+00  4.5324020847760847e-02 -3.6838364229193014e-03 0.0000000000000000e+00  3.6984624647233566e-05 4.6348805858655614e-06 0.0000000000000000e+00  -5.4737520075589353e-05 -6.1490248865568326e-05 0.0000000000000000e+00  3.3610290942341547e-05 -6.2898239102240536e-05 0.0000000000000000e+00  2.9819057513156774e-05 -2.6286564500037466e-06 0.0000000000000000e+00  -5.8977099737471525e-05 6.8772381535152523e-05 0.0000000000000000e+00  7.3367652150034080e-07 3.4695908385590061e-05 0.0000000000000000e+00  3.0507809419824011e-05 6.0475662475338563e-05 0.0000000000000000e+00  -3.3144858326143213e-06 1.3936667540122771e-06 0.0000000000000000e+00  9.3468476409696232e-07 -3.1262308610681701e-05 0.0000000000000000e+00  1.8486708918998278e-07 -4.7848270542983476e-05 0.0000000000000000e+00  1.0931049934262394e-05 1.2392872000704052e-05 0.0000000000000000e+00  6.5665302601757415e-05 -1.1752712922000240e-04 0.0000000000000000e+00  1.8594999307338110e-06 5.1868752393882873e-05 0.0000000000000000e+00  -6.4363901926045277e-05 -2.3638280940969822e-05 0.0000000000000000e+00  -4.1233755120977903e-05 -9.9247933197565779e-05 0.0000000000000000e+00  -6.8246560445638273e-05 2.3121847142282265e-05 0.0000000000000000e+00  -1.1203984767395656e-04 9.1475268314781757e-05 0.0000000000000000e+00  -1.1420542012659848e-05 -7.2279700176153348e-06 0.0000000000000000e+00  8.5948908155875396e-05 -5.0775359429803873e-05 0.0000000000000000e+00  6.8760944387787710e-05 4.3768990459637679e-05 0.0000000000000000e+00  7.1666054548746231e-05 9.2174727636337429e-05 0.0000000000000000e+00  -9.6174132613340208e-06 -6.3435235682204525e-05 0.0000000000000000e+00  -1.0400478047234199e-05 6.5879179167831732e-05 0.0000000000000000e+00  -1.1249489172536232e-04 -8.4940156320802856e-05 0.0000000000000000e+00  -3.7414775597695597e-05 -4.7359707522041841e-05 0.0000000000000000e+00  5.4585930851952058e-05 8.3397518484283490e-05 0.0000000000000000e+00  2.5002606842016296e-05 -1.1339455640762153e-04 0.0000000000000000e+00  -1.2236381864006422e-05 8.4868237279444832e-07 0.0000000000000000e+00  3.7223513313271520e-06 1.8390042061336041e-06 0.0000000000000000e+00  -2.9099995653519877e-05 -6.7475602262415056e-05 0.0000000000000000e+00  3.8719845377405224e-06 -1.0627125784913594e-04 0.0000000000000000e+00  -6.0821602147021148e-06 -5.6418472411737415e-05 0.0000000000000000e+00  -9.7072611015838750e-05 -1.9040510524996894e-04 0.0000000000000000e+00  -5.4166870181757837e-05 -4.0902790112312215e-05 0.0000000000000000e+00  -4.9223524601249336e-06 -2.2736019923249947e-05 0.0000000000000000e+00  -1.3498979056926052e-06 1.1587284081884667e-06 0.0000000000000000e+00  5.3879549393915402e-07 6.5847072031653125e-05 0.0000000000000000e+00  8.9810870187109499e-06 6.2542213386092526e-05 0.0000000000000000e+00  7.4807973721372606e-07 -6.0303103716313582e-07 0.0000000000000000e+00  1.7397222200193354e-07 -5.4980970966092663e-05 0.0000000000000000e+00  6.4996045861756584e-06 -6.2766542279785924e-05 0.0000000000000000e+00  5.6018361466436459e-06 -5.4543930521349057e-05 0.0000000000000000e+00  2.2406751923052565e-07 -1.2818708348622290e-05 0.0000000000000000e+00  1.1180009701938063e-06 1.4716663424129935e-05 0.0000000000000000e+00  5.5364104388143197e-06 5.3441715900859527e-05 0.0000000000000000e+00  1.1752667835053602e-04 -2.5223590453005227e-05 0.0000000000000000e+00  1.0961603800683657e-04 -7.9663078287582254e-05 0.0000000000000000e+00  8.0048521885689981e-05 -2.3935241817659613e-05 0.0000000000000000e+00  2.1539646887866676e-05 -9.8640446477578749e-05 0.0000000000000000e+00  7.3165250452275504e-05 -8.5694014350879409e-05 0.0000000000000000e+00  -2.2911266035783434e-05 -9.2997840003315784e-05 0.0000000000000000e+00  -1.8521576604097362e-05 9.2478656072820939e-05 0.0000000000000000e+00  -8.8655971586326567e-05 -6.2941166733536191e-05 0.0000000000000000e+00  -8.9938222857967125e-05 -9.6899597781440378e-05 0.0000000000000000e+00  -6.8039433364918051e-05 -3.9398395121103321e-05 0.0000000000000000e+00  1.0882342376962009e-05 5.6660387618729990e-05 0.0000000000000000e+00  2.8755366220337982e-06 4.7505156618220143e-05 0.0000000000000000e+00  5.8182223166830657e-06 -5.4902914424638004e-05 0.0000000000000000e+00  7.1280885252348485e-06 -6.4332030264542019e-05 0.0000000000000000e+00  6.5368625982725618e-06 6.7933776095756022e-05 0.0000000000000000e+00  5.4475993675168850e-06 5.8120378316179632e-05 0.0000000000000000e+00  4.2376027608669557e-05 -4.0936020622357028e-05 0.0000000000000000e+00  1.8506768861039426e-05 -4.6468703521761887e-05 0.0000000000000000e+00  1.9621665435915321e-05 5.1533062503078264e-05 0.0000000000000000e+00  4.1880108742767638e-05 4.4107325356399987e-05 0.0000000000000000e+00  -3.8965232399624790e-05 -4.8124395953287026e-05 0.0000000000000000e+00  -5.0283851321596666e-05 -3.1494816535522079e-05 0.0000000000000000e+00  -5.4295067075270828e-05 3.6271853574385102e-05 0.0000000000000000e+00  -4.0057319506311869e-05 5.1854570837190243e-05 0.0000000000000000e+00  5.4967339860944404e-06 -8.2051385398476239e-08 0.0000000000000000e+00  3.4763687008048925e-05 -4.2560878027191507e-06 0.0000000000000000e+00  3.5310114995328471e-05 5.1509030057777947e-06 0.0000000000000000e+00  6.3913702369150602e-06 8.6717519432587427e-08 0.0000000000000000e+00  -6.5909599728262340e-05 -4.4797906973746742e-05 0.0000000000000000e+00  -7.6734998595269748e-05 2.2625412062408925e-04 0.0000000000000000e+00  -1.0359314159719222e-05 6.6573414754811836e-05 0.0000000000000000e+00  -6.7713511738307254e-05 4.8164271975590387e-05 0.0000000000000000e+00  3.1848257763979009e-05 -5.2783478686867718e-05 0.0000000000000000e+00  4.0626279409849709e-05 -1.3967709033141509e-04 0.0000000000000000e+00  5.2970886027676063e-06 -5.2053643540904022e-05 0.0000000000000000e+00  -5.0238462729383215e-05 7.3357960100729275e-05 0.0000000000000000e+00  3.2152462179441338e-05 -1.7957437432505397e-05 0.0000000000000000e+00  -1.3421506864809028e-05 1.4532643871708950e-05 0.0000000000000000e+00  -3.1989597577233473e-06 -5.7310026638393658e-05 0.0000000000000000e+00  -1.3135269468849905e-06 6.2862208074816446e-05 0.0000000000000000e+00  1.0191716777354956e-05 -5.2050294874650879e-05 0.0000000000000000e+00  2.6339670764726267e-06 1.0440399288139061e-04 0.0000000000000000e+00  -2.9402656164648075e-05 6.9696185664513038e-05 0.0000000000000000e+00  -5.3226164452111212e-06 2.5169305209398637e-05 0.0000000000000000e+00  -1.0310875209796204e-04 6.7386744544755989e-05 0.0000000000000000e+00  -7.4466327231084055e-05 5.0567803436786941e-05 0.0000000000000000e+00  -3.9947278265166581e-05 -5.1483751687845603e-07 0.0000000000000000e+00  -3.6895696471147090e-05 -5.0008082164175786e-06 0.0000000000000000e+00  7.1141731643008333e-05 6.1745686858390896e-05 0.0000000000000000e+00  1.0508693638493135e-04 3.7788780069156701e-05 0.0000000000000000e+00  7.2987805005648090e-05 2.6102690791261123e-05 0.0000000000000000e+00  -5.9252995019923153e-05 -9.1881878472584915e-05 0.0000000000000000e+00  5.9115547781569370e-04 3.1681700155054154e-04 0.0000000000000000e+00  -4.5857223433473090e-05 -1.4235836966842663e-05 0.0000000000000000e+00  -3.2575476651199188e-05 -4.3350333351721521e-06 0.0000000000000000e+00  -3.2504514651280399e-05 4.8884014525358714e-06 0.0000000000000000e+00  -5.1771508976328792e-05 1.7596268574597633e-05 0.0000000000000000e+00  -4.4246044421736969e-05 -3.6633195226792214e-04 0.0000000000000000e+00  -7.0323018313255708e-05 1.8077752604724821e-05 0.0000000000000000e+00  -2.1389526419498671e-05 1.1955383064270804e-06 0.0000000000000000e+00  6.0923682432189168e-05 -1.7692193518535255e-05 0.0000000000000000e+00  5.8806763264554484e-05 -2.9366300751192698e-05 0.0000000000000000e+00  6.2753707031036474e-05 -6.4597813919443933e-05 0.0000000000000000e+00  5.3970663812366186e-05 3.0571341970561639e-05 0.0000000000000000e+00  5.7020247959964132e-05 1.8665824558310355e-05 0.0000000000000000e+00  5.0762905776011798e-05 5.6494686098041348e-05 0.0000000000000000e+00  4.5281626467228586e-05 1.2366678306333659e-04 0.0000000000000000e+00  2.9404204148067624e-05 