<?xml version="1.0"?>
<VTKFile type="UnstructuredGrid"  version="0.1"  >
<UnstructuredGrid>
<Piece  NumberOfPoints="2549" NumberOfCells="4928">
<Points>
<DataArray  type="Float64"  NumberOfComponents="3"  format="ascii">1.686723753004033 -0.04729770482256866 0  1.683411945355351 0.001683851298948706 0  1.675845585543184 0.05004307459781794 0  1.666491392323391 0.09845940945120399 0  1.653918543609889 0.1464270038776759 0  1.638609933418429 0.1940796376517869 0  1.619970419850857 0.240887017843121 0  1.599052476404591 0.2872578480586444 0  1.572933362684395 0.3309279364173115 0  1.544483907520582 0.3722618237624128 0  1.517697443038923 0.4179290121214739 0  1.486524966890855 0.4596291943879935 0  1.453916723341371 0.5009153450397683 0  1.419280608294187 0.5405755575797269 0  1.383143447771588 0.5791258999441007 0  1.345849040684664 0.617075666981149 0  1.305803382178574 0.6518763682021037 0  1.265475445375295 0.6849688776171087 0  1.225940223466115 0.7230025238659672 0  1.184446468829088 0.7580918048712784 0  1.142101760032773 0.7931777335921226 0  1.098608203217613 0.8271934797315741 0  1.05415060932446 0.8605361135815238 0  1.008766316285781 0.8933229940537145 0  0.9619453344742565 0.9244402328860408 0  0.9142175351139396 0.9529916565618801 0  0.8660577706156832 0.9820893538495672 0  0.8170462698171043 1.010343274808972 0  0.7671748532525582 1.037619837538967 0  0.7164366310534254 1.063723030694053 0  0.6648481391167529 1.088481478512644 0  0.6124555049419114 1.111857671586829 0  0.5591724438858141 1.13327672331977 0  0.5052955055920584 1.15278760746932 0  0.450782323137809 1.171071144030036 0  0.3956547326911048 1.187330586741818 0  0.339988196858802 1.201689657152462 0  0.2838557651401231 1.214033604504229 0  0.2273260979710576 1.224322317540376 0  0.1704826981457519 1.23260456888371 0  0.1133431932976508 1.238540885353054 0  0.05610903147378 1.242397282111473 0  -0.001256191344457183 1.244407772632988 0  -0.05866556612395717 1.244209569712634 0  -0.1160566611372797 1.241871436719263 0  -0.1733488901042043 1.237292415146543 0  -0.2304562459978172 1.23049572039796 0  -0.2872951014660261 1.221322803052302 0  -0.3437745854476209 1.21026011893977 0  -0.3999199550865908 1.196801464544925 0  -0.4554335618020262 1.180712664878847 0  -0.5102979707211835 1.162454699830698 0  -0.5644147261045384 1.142078169965163 0  -0.6177082743119461 1.119699544298919 0  -0.6701291009717988 1.095653423658436 0  -0.7215870035410855 1.069649501751506 0  -0.7722872515604086 1.043726316810182 0  -0.8223007766690658 1.015788010915272 0  -0.8709447374558524 0.9857291165290383 0  -0.9186051168105082 0.9548026261182688 0  -0.965249774779292 0.9230023874839139 0  -1.010801796894528 0.890140101129022 0  -1.055422866655098 0.8571259932500879 0  -1.0984990429037 0.8216547860064561 0  -1.141310380007059 0.7896056856926426 0  -1.18423176010315 0.7578432683723809 0  -1.225577039716157 0.7242268053365134 0  -1.266345104248066 0.6908442479284906 0  -1.306403602462082 0.6572216737730581 0  -1.34625474440311 0.6243667394381012 0  -1.385197897211933 0.5903624441346689 0  -1.426560148443622 0.5613827579815814 0  -1.465639750799544 0.5256278876351257 0  -1.496506194013294 0.4798611104580521 0  -1.52826165244633 0.4367844035334563 0  -1.555955627494813 0.390900918345905 0  -1.581264746038778 0.3441128690411694 0  -1.600778897562537 0.2938970879968567 0  -1.618657473105146 0.2449887972527599 0  -1.624887219741705 0.1896088831405475 0  -1.638425600898711 0.1432818244890361 0  -1.648791296117982 0.09503705552232933 0  -1.64671165497456 0.04518821793458196 0  -1.649816706518936 -0.00256941577715375 0  -1.648991287190848 -0.0499525647713082 0  -1.651274817457436 -0.09741182907047731 0  -1.649357692673082 -0.1454154366772228 0  -1.653154442827877 -0.1957469068170365 0  -1.643744672230993 -0.2444936241150459 0  -1.631225867689471 -0.2913828753045925 0  -1.626688857862996 -0.34819523559166 0  -1.609334880687788 -0.3978053466141048 0  -1.590325534338682 -0.4488683239806163 0  -1.565069302119851 -0.4961458540048184 0  -1.53723574686194 -0.5423215631341896 0  -1.505012536011552 -0.5852591541921401 0  -1.474155863468976 -0.6311744160939031 0  -1.435542164743759 -0.6680645075013323 0  -1.393861355540946 -0.6968116961241664 0  -1.354982195173553 -0.7312020084202737 0  -1.315145574059137 -0.7643177492716392 0  -1.275233022030695 -0.798434539613303 0  -1.234658214726833 -0.8324307592597477 0  -1.193580898320694 -0.8668451821381662 0  -1.150985186807628 -0.8995574074276002 0  -1.108674917467399 -0.9331770803596628 0  -1.066095608767608 -0.9709058197932363 0  -1.021770630182577 -1.005733443678597 0  -0.9764965757497727 -1.040647395123765 0  -0.9300815464580163 -1.074570161239799 0  -0.8826062318715047 -1.107767293560011 0  -0.834070063474086 -1.140137365662247 0  -0.7842529260415383 -1.170769035814404 0  -0.733724523113931 -1.200836513557502 0  -0.6819704238682143 -1.230959597462593 0  -0.6289395115535963 -1.257955064990823 0  -0.5748626164070426 -1.283077549135664 0  -0.5198100032863802 -1.30574212172326 0  -0.4638850080881622 -1.32596364549315 0  -0.4072207017943187 -1.343748365524058 0  -0.3497657002633023 -1.358252232251387 0  -0.2920446740435966 -1.369943157831348 0  -0.2339309932459936 -1.379912249521044 0  -0.1754982534678424 -1.387220293205792 0  -0.1168356000401743 -1.392040255294034 0  -0.05804406576115579 -1.394258640934527 0  0.0007735972711286299 -1.393897267015491 0  0.05951854364168198 -1.390910180167436 0  0.1180802479494094 -1.38527465455898 0  0.1763184417496471 -1.377231970428795 0  0.2341919854929025 -1.366991869505163 0  0.2916327731840911 -1.354540759174483 0  0.3485660635905669 -1.339961247533419 0  0.4049168570065408 -1.323294997643979 0  0.4606169734841441 -1.304778561289997 0  0.5155976703106542 -1.284175818839361 0  0.5699015747291931 -1.263035212048808 0  0.6236786136546945 -1.239754320985079 0  0.676353882035633 -1.214149138559689 0  0.728158070995605 -1.187302299757793 0  0.7790398859342027 -1.159184942990721 0  0.8289938201708335 -1.129994327558898 0  0.878036596144027 -1.099926233512862 0  0.9261945445119203 -1.069166648775308 0  0.9738974228288931 -1.03903631931179 0  1.020639149952275 -1.006357483817067 0  1.065927406689434 -0.9721306297552729 0  1.110252136767749 -0.9374082099234644 0  1.153590272201301 -0.902093880074514 0  1.195741236734045 -0.8657434151990033 0  1.237030289175438 -0.8295052819051644 0  1.276261212277796 -0.7901897211384107 0  1.316325134425245 -0.7561477813545811 0  1.356167449293757 -0.7205453150162253 0  1.39321371174707 -0.6817824601093957 0  1.429098410213341 -0.6424757937214157 0  1.46345926345374 -0.6020831422805808 0  1.495755183503157 -0.5600732733489621 0  1.526604163535417 -0.5177054325804621 0  1.552909912802183 -0.4712473942940292 0  1.580981240073879 -0.4293559107133409 0  1.606599221540632 -0.3850548908619079 0  1.626857683480021 -0.3380349205674955 0  1.644755018521661 -0.2906213912041146 0  1.659185573079519 -0.2423976655056513 0  1.670632387464042 -0.193874739257485 0  1.67887266544203 -0.1450742924197026 0  1.6846967972815 -0.09633210400941558 0  -0.1037967599690029 0.7358130072628263 0  0.6168841792763634 -0.6980564168494894 0  -0.7776401630688663 -0.620709062880508 0  -0.08092820600334695 -0.8550481441371642 0  0.6133751410875083 0.5788697347202411 0  1.196742065153336 0.19004442109188 0  -0.7903077129564883 0.4950671364054927 0  -1.293660765705489 -0.05530049769938956 0  1.201441908206218 -0.2933015902231462 0  -1.084674701880056 -0.4605748012383961 0  -0.8398676778869627 -0.07026883954070506 0  -0.5018568874324245 -0.235939755647971 0  -1.095495123104438 0.3311824915147176 0  0.2845127551526873 -0.8332605271936762 0  0.1392438325639004 -0.2909017099201334 0  0.2485899759623597 0.7011124986684329 0  0.3500534826824594 0.1769603046075772 0  0.6807834454475504 -0.05382378709070597 0  -0.4266394469801363 -0.7589229062384542 0  -0.4628061748714848 0.6528045019253791 0  -0.2906822468844302 0.2289049573724155 0  0.9402439658912679 -0.4885964032266444 0  0.9359729209836263 0.3804868112595686 0  0.4203182575305419 -0.3205333497722003 0  0.02783922569403878 0.2237796007771173 0  -0.5676406259000087 0.1736084568972749 0  -0.1840882507058951 -0.2845487317153592 0  0.9770302914361362 -0.05272783003106489 0  1.400001089399852 -0.04970614153693504 0  0.7787689194932528 -0.590849642347778 0  0.8033899082991274 -0.2783961344741211 0  0.6415811442342677 -0.3729439415042338 0  0.5494705075757939 -0.1839909701153102 0  0.5139112889992766 -0.5132271841750975 0  0.9530440578854066 -0.2692016481999565 0  0.8283607627084248 -0.05323776305445187 0  -0.9606166810854468 0.1372992605444204 0  -1.191585624997516 0.1359051787949488 0  -1.069497524212137 -0.06198296926761475 0  -0.9549974022085179 -0.2718303475823532 0  -1.187101638663804 -0.2551705471793199 0  -1.367682617175308 -0.3523749977597921 0  -1.46122169878427 -0.1671355220835486 0  -1.458404991633222 0.06092718313066016 0  -1.361753087556736 0.2446033154901101 0  -0.1329645184106441 -0.5691780123810837 0  -0.3002309592779931 -0.5259134429031774 0  -0.2547055586117481 -0.8117098207091056 0  -0.3423433274973657 -0.2612632635849301 0  -0.4613596619277771 -0.4948847843134365 0  -1.276648254496902 -0.5472584246720813 0  -1.277201143542821 0.4313240041144153 0  0.3514475546311179 -0.5745191951062846 0  0.2790437371364408 -0.3070465963684937 0  0.2075096962232617 -0.5642623278171146 0  -0.942332513761962 0.4093096334847639 0  -0.8080724010748717 0.2106673183266926 0  1.38920633632736 -0.370362479132872 0  1.250154971434525 -0.5301877710857 0  1.242526461129782 0.4266869967022708 0  1.382781928298637 0.2698220200782107 0  -0.7701832810435142 -0.8954450807035608 0  -0.9559853327576067 -0.7714936418517873 0  -0.9579488129571343 0.6533217794764354 0  -0.7725415620953051 0.7688005994058588 0  0.7847275328567007 -0.8786903226929348 0  0.5876940748574935 -0.9797832314410893 0  0.5815811661745249 0.8559682404024771 0  0.7775990509474373 0.761898090457429 0  0.009820905951750423 -
[...]
<PointData  Vectors="f_2074"> 
<DataArray  type="Float64"  Name="f_2074"  NumberOfComponents="3" format="ascii">4.8503868482593950e-02 7.1307274838570500e-04 0.0000000000000000e+00  6.9700687886987509e-02 7.8303350503279249e-03 0.0000000000000000e+00  5.8724237212968614e-02 1.0209632159038156e-02 0.0000000000000000e+00  6.3817973319492169e-02 1.4614367748197845e-02 0.0000000000000000e+00  7.1143148985033572e-02 2.0683680266162918e-02 0.0000000000000000e+00  7.9659117630308460e-02 2.8844230058579445e-02 0.0000000000000000e+00  6.8385385426578335e-02 2.8562119835436228e-02 0.0000000000000000e+00  4.1764624918494031e-02 2.3121959620375013e-02 0.0000000000000000e+00  2.3626125167485601e-01 1.4936778419985847e-01 0.0000000000000000e+00  1.8427526323311301e-02 1.1618073101990173e-02 0.0000000000000000e+00  -4.0778155322192651e-02 -2.7122507231185155e-02 0.0000000000000000e+00  9.7570065059810696e-02 7.5075798764502724e-02 0.0000000000000000e+00  6.9056337384537161e-02 5.7409962173619045e-02 0.0000000000000000e+00  1.1048120917444187e-01 9.9972752972012038e-02 0.0000000000000000e+00  6.6116685865530211e-02 6.3435632330805403e-02 0.0000000000000000e+00  1.1613038439900134e-01 1.2450170250003878e-01 0.0000000000000000e+00  1.5708749752178944e-01 1.8355458304011638e-01 0.0000000000000000e+00  -4.9867631064830518e-02 -5.6393094820010696e-02 0.0000000000000000e+00  -4.1770437812140404e-02 -4.6744819258826217e-02 0.0000000000000000e+00  3.3771030211168028e-02 4.0809918875671758e-02 0.0000000000000000e+00  2.6698867341615442e-02 3.3140299721113778e-02 0.0000000000000000e+00  4.6811939577125233e-02 6.1129034724048702e-02 0.0000000000000000e+00  2.3556216870801210e-02 3.2105782346832590e-02 0.0000000000000000e+00  3.6635101799021755e-02 5.3353372509797423e-02 0.0000000000000000e+00  1.0996980259869153e-01 1.7357724804977789e-01 0.0000000000000000e+00  -8.3266040845699097e-03 -1.4205148745004456e-02 0.0000000000000000e+00  2.0906505518243279e-03 3.6125617623888615e-03 0.0000000000000000e+00  1.3725652383181334e-02 2.4517381478986390e-02 0.0000000000000000e+00  4.4098415857670758e-03 8.2763744495258709e-03 0.0000000000000000e+00  5.1171228727047722e-03 1.0321538329856886e-02 0.0000000000000000e+00  -1.4431974746650939e-03 -3.1685559462859485e-03 0.0000000000000000e+00  -1.9704503236557254e-03 -4.5336347264098645e-03 0.0000000000000000e+00  4.8034382423525158e-03 1.2524321865801928e-02 0.0000000000000000e+00  -5.0408811721272331e-03 -1.4625105348634844e-02 0.0000000000000000e+00  -8.1148663876700992e-03 -2.5714386493588714e-02 0.0000000000000000e+00  -6.0374451797608666e-03 -2.1888496562274269e-02 0.0000000000000000e+00  -7.7357068773516629e-03 -3.2428340963174873e-02 0.0000000000000000e+00  -6.6574486892288821e-03 -3.3148745737465311e-02 0.0000000000000000e+00  -6.6234876558820118e-03 -4.0533081073162835e-02 0.0000000000000000e+00  -5.0119772525786758e-03 -4.0070149858696856e-02 0.0000000000000000e+00  -3.5284407105478119e-03 -4.1275082897455538e-02 0.0000000000000000e+00  -2.1379344830910166e-03 -4.1623325101091166e-02 0.0000000000000000e+00  -6.3493452545713221e-04 -4.0469589937859173e-02 0.0000000000000000e+00  8.2935664162852728e-04 -3.8028580653440787e-02 0.0000000000000000e+00  2.0510273131340551e-03 -3.4096761839477269e-02 0.0000000000000000e+00  2.6763379169195355e-03 -2.7048628078410943e-02 0.0000000000000000e+00  3.7715768735360135e-03 -2.6868685584509177e-02 0.0000000000000000e+00  3.1272115409690764e-03 -1.7752407008315551e-02 0.0000000000000000e+00  -1.7526653213059164e-04 7.3913332665227218e-04 0.0000000000000000e+00  5.0267706904637234e-03 -1.8676658510326502e-02 0.0000000000000000e+00  7.1857853278502600e-03 -2.3220898964595973e-02 0.0000000000000000e+00  3.7892663726564269e-03 -1.0627097127979965e-02 0.0000000000000000e+00  8.8959193439017131e-03 -2.2380183854272186e-02 0.0000000000000000e+00  -8.8432654877514377e-04 2.0260673659617760e-03 0.0000000000000000e+00  1.6010046261214488e-02 -3.3196830099654545e-02 0.0000000000000000e+00  1.9927735010795721e-03 -4.1810026804206448e-03 0.0000000000000000e+00  -4.1918275558911575e-02 7.8071278749560546e-02 0.0000000000000000e+00  -3.7886023226376721e-03 6.7722419017146335e-03 0.0000000000000000e+00  -9.3285708252159442e-04 1.3883628553597971e-03 0.0000000000000000e+00  -1.9573444202266303e-02 2.9459346815529863e-02 0.0000000000000000e+00  -3.1060163152420391e-03 4.4331256176709131e-03 0.0000000000000000e+00  -1.7504519299093805e-02 2.4082650198542447e-02 0.0000000000000000e+00  1.8497935809801448e-02 -2.3801540789212892e-02 0.0000000000000000e+00  -2.6946393332381750e-02 3.4351829115781884e-02 0.0000000000000000e+00  2.6564789518909650e-02 -3.5551574540705677e-02 0.0000000000000000e+00  -5.5413679363552279e-02 7.1261901391979021e-02 0.0000000000000000e+00  -2.2339873706850834e-02 2.7593128986671850e-02 0.0000000000000000e+00  -1.1351502767528634e-02 1.3682485939912142e-02 0.0000000000000000e+00  6.0397301512669461e-03 -6.9759026291532147e-03 0.0000000000000000e+00  1.7771048786438585e-02 -2.1117097257597625e-02 0.0000000000000000e+00  2.5871782961597517e-01 -3.3090772258389578e-01 0.0000000000000000e+00  -8.0637492540283895e-01 9.7991966914343132e-01 0.0000000000000000e+00  2.3245734387238712e-01 -1.8508513214417741e-01 0.0000000000000000e+00  -1.3950754167999824e-01 9.3161788125171757e-02 0.0000000000000000e+00  -3.4478408071040650e-01 2.3043497144118869e-01 0.0000000000000000e+00  -1.5284381096752220e-01 8.5937188057835900e-02 0.0000000000000000e+00  -8.8131346783811737e-02 4.3015796874389674e-02 0.0000000000000000e+00  -6.6414855157694477e-02 2.4491047512540266e-02 0.0000000000000000e+00  2.5702930231853488e-01 -6.0966010597189604e-02 0.0000000000000000e+00  -1.8170120561935021e-01 3.7811553898382803e-02 0.0000000000000000e+00  -1.2647357562408784e-01 3.2146223673960882e-02 0.0000000000000000e+00  4.6364888989322584e-01 -3.9740245240057745e-02 0.0000000000000000e+00  -9.9533602592034739e-02 -5.8288841641987725e-04 0.0000000000000000e+00  -3.4180791865642497e-02 6.9491810756004951e-04 0.0000000000000000e+00  -3.4992136629077908e-02 5.3903248666625704e-04 0.0000000000000000e+00  -2.6183245023812831e-02 1.7963422015667609e-04 0.0000000000000000e+00  -4.0036208281930212e-02 2.1636039398129818e-03 0.0000000000000000e+00  2.9715419232525975e-01 1.7219250918102280e-02 0.0000000000000000e+00  -9.1089805320996975e-02 -2.0887858028198869e-02 0.0000000000000000e+00  -1.5200590960377452e-01 -2.7058895162770113e-02 0.0000000000000000e+00  2.0627262684200146e-01 4.3669527635099709e-02 0.0000000000000000e+00  -6.3101848340811645e-02 -2.1996973787904550e-02 0.0000000000000000e+00  -8.7175478311066201e-02 -4.1612030438220600e-02 0.0000000000000000e+00  -1.5308439409520375e-01 -8.5688963909413982e-02 0.0000000000000000e+00  -3.5353517481989916e-01 -2.3763599630241117e-01 0.0000000000000000e+00  -6.1681014759047373e-02 -3.9239448324131843e-02 0.0000000000000000e+00  3.4454098920874926e-01 2.7905362956032048e-01 0.0000000000000000e+00  -8.6865873619367684e-01 -1.0450009732719128e+00 0.0000000000000000e+00  3.2712194511006898e-01 4.1789807737330997e-01 0.0000000000000000e+00  3.0688391386863190e-02 3.6408548898948408e-02 0.0000000000000000e+00  2.4506791884341021e-02 2.8816843230660086e-02 0.0000000000000000e+00  -4.1347702771258078e-03 -4.8959325864795476e-03 0.0000000000000000e+00  -1.4674714529036965e-02 -1.7680119842083893e-02 0.0000000000000000e+00  -4.3728215622711654e-02 -5.4303578172751624e-02 0.0000000000000000e+00  7.0897239269373080e-02 9.0296023490266428e-02 0.0000000000000000e+00  -5.9386619199001782e-02 -7.0897893497733247e-02 0.0000000000000000e+00  3.3297624012674748e-02 4.0074178954459340e-02 0.0000000000000000e+00  -8.4379207629847585e-03 -1.0966061991119462e-02 0.0000000000000000e+00  3.9021356114590931e-03 5.1736717884015172e-03 0.0000000000000000e+00  -1.3813146391860379e-02 -1.9338539264262520e-02 0.0000000000000000e+00  4.1201974802715178e-03 6.0939873834379684e-03 0.0000000000000000e+00  -4.3839179396783440e-03 -6.8991634261779304e-03 0.0000000000000000e+00  9.3952925879051087e-04 1.6054970655468544e-03 0.0000000000000000e+00  1.4419995840882728e-02 2.4983528876237594e-02 0.0000000000000000e+00  4.5899492958623729e-02 8.3983119895811836e-02 0.0000000000000000e+00  8.5785814469828657e-03 1.7860053464032386e-02 0.0000000000000000e+00  2.5123704386730578e-02 5.7248440609963078e-02 0.0000000000000000e+00  1.0633282084442941e-02 2.7467524797365150e-02 0.0000000000000000e+00  1.7182061841898428e-02 5.1278698664076069e-02 0.0000000000000000e+00  1.2423911154793093e-02 4.3054581641171895e-02 0.0000000000000000e+00  -4.1276986824709200e-03 -1.8113156995681227e-02 0.0000000000000000e+00  3.2958019727197872e-03 1.8187107649700423e-02 0.0000000000000000e+00  5.5217183052448339e-03 3.7136997726390841e-02 0.0000000000000000e+00  2.8350308168662436e-03 2.7471847969706066e-02 0.0000000000000000e+00  2.1143660831365327e-03 3.5257209825840741e-02 0.0000000000000000e+00  5.2693437443748303e-04 3.3362009779252619e-02 0.0000000000000000e+00  -1.0062424930411852e-03 3.5342642776066142e-02 0.0000000000000000e+00  -2.4696241526041911e-03 3.3698109915077337e-02 0.0000000000000000e+00  -4.3122811273091696e-03 3.6751248180914936e-02 0.0000000000000000e+00  -5.7271255425047273e-03 3.6412878374410783e-02 0.0000000000000000e+00  -7.2627920911341936e-03 3.6907897451934506e-02 0.0000000000000000e+00  -7.9292151017288526e-03 3.3557858671290776e-02 0.0000000000000000e+00  -9.6211602076820123e-03 3.4911760221826182e-02 0.0000000000000000e+00  -7.5547466222331714e-03 2.4069413152923824e-02 0.0000000000000000e+00  -1.2626940708748929e-02 3.5717397085654183e-02 0.0000000000000000e+00  -7.5289783104385720e-03 1.9908678982689842e-02 0.0000000000000000e+00  9.5665829698435359e-03 -2.3143750221649127e-02 0.0000000000000000e+00  -7.7675927533182509e-03 1.6691090130806000e-02 0.0000000000000000e+00  -7.3412760679108400e-03 1.4729571900716302e-02 0.0000000000000000e+00  5.9840003832502904e-04 -1.1446241902132775e-03 0.0000000000000000e+00  -2.1204560302328797e-04 4.1386038707246962e-04 0.0000000000000000e+00  8.6743038422083963e-03 -1.4549357011510789e-02 0.0000000000000000e+00  -9.8569867210682952e-04 1.5323485434928050e-03 0.0000000000000000e+00  -1.0470427312241471e-02 1.6768578838218372e-02 0.0000000000000000e+00  9.8641588043297826e-02 -1.4777711435494617e-01 0.0000000000000000e+00  3.2529263936451919e-02 -4.5141334840902603e-02 0.0000000000000000e+00  2.0993554235081039e-02 -2.7374611474377201e-02 0.0000000000000000e+00  4.1674058983802956e-02 -5.2164600339809755e-02 0.0000000000000000e+00  2.3715893564938993e-02 -2.8274071762018089e-02 0.0000000000000000e+00  2.7379486021539348e-02 -3.1903120694133411e-02 0.0000000000000000e+00  -4.0765226526401861e-02 4.3883077485889613e-02 0.0000000000000000e+00  -3.8374006131977889e-02 4.1859123919644595e-02 0.0000000000000000e+00  1.3144269851886914e-01 -1.4884889160914433e-01 0.0000000000000000e+00  1.1049379120193618e-01 -1.1509423361550820e-01 0.0000000000000000e+00  6.2349121723160823e-02 -5.8222344608696242e-02 0.0000000000000000e+00  1.0294977262871326e-01 -9.0734664871756063e-02 0.0000000000000000e+00  6.5309521001956250e-02 -5.2870005295415891e-02 0.0000000000000000e+00  8.9300323295693387e-02 -6.6909552610627768e-02 0.0000000000000000e+00  -3.5062094137118666e-02 2.2634792508683305e-02 0.0000000000000000e+00  1.6791792890349357e-02 -1.0256024626077468e-02 0.0000000000000000e+00  2.1455292915512433e-01 -1.3159023953590707e-01 0.0000000000000000e+00  3.9530333799516634e-02 -2.1016802334337913e-02 0.0000000000000000e+00  6.4174947260540752e-02 -2.5521572279047593e-02 0.0000000000000000e+00  7.2817643960591691e-02 -2.4797624942305224e-02 0.0000000000000000e+00  6.2049917771616961e-02 -1.6575410343972891e-02 0.0000000000000000e+00  5.5153015427013903e-02 -1.1189568461845158e-02 0.0000000000000000e+00  5.2472937147549734e-02 -7.6408943099156336e-03 0.0000000000000000e+00  3.0406758521918455e-02 -2.3325555396820630e-03 0.0000000000000000e+00  1.5207683029912731e-09 -2.7622598377768217e-08 0.0000000000000000e+00  -2.2535596715749471e-09 4.2252501336829229e-09 0.0000000000000000e+00  6.6783987359850737e-10 7.9191427432848364e-10 0.0000000000000000e+00  1.3838022413934287e-09 2.4758043070348107e-08 0.0000000000000000e+00  4.2470049959570571e-11 -1.5988160224121202e-10 0.0000000000000000e+00  4.7335375256407888e-08 4.0491265679441070e-08 0.0000000000000000e+00  -2.5102201645667367e-09 3.8007560370162551e-09 0.0000000000000000e+00  -9.2779997228962194e-08 5.7670013299225757e-10 0.0000000000000000e+00  4.4845803444406407e-08 -3.7320188342654963e-08 0.0000000000000000e+00  -1.4657268378497033e-09 -1.0782159786413884e-09 0.0000000000000000e+00  -1.2794136096393107e-13 2.2547753138332657e-14 0.0000000000000000e+00  7.2321111023967753e-15 1.3097462299633696e-14 0.0000000000000000e+00  -9.2257831300449168e-09 1.0499883962909014e-08 0.0000000000000000e+00  -6.9294519460813233e-09 2.5647201534258794e-08 0.0000000000000000e+00  -4.1753959846059875e-15 3.6397010861997232e-14 0.0000000000000000e+00  -5.7125648938495770e-09 -2.4671809534361689e-08 0.0000000000000000e+00  -4.2297504655840534e-15 -1.2069279188571735e-14 0.0000000000000000e+00  3.7681179368333052e-14 5.3331709160379387e-15 0.0000000000000000e+00  1.0757950680614503e-08 2.4650906671503928e-08 0.0000000000000000e+00  5.3778864482997704e-09 -1.3864751082814749e-08 0.0000000000000000e+00  4.4513085799506209e-15 -2.1052576595318438e-14 0.0000000000000000e+00  1.0837370309385306e-08 -1.3590272897008270e-08 0.0000000000000000e+00  1.2565039912168384e-08 1.6374923384586523e-08 0.0000000000000000e+00  -6.7489171843872276e-15 1.7010967218413299e-14 0.0000000000000000e+00  -3.2806047848170691e-15 -3.7871696897021597e-14 0.0000000000000000e+00  -5.4142354092932866e-15 9.2233860732865287e-15 0.0000000000000000e+00  5.2709697975028345e-15 2.1287218996305659e-14 0.0000000000000000e+00  9.2348154051233269e-14 6.0558665391244237e-15 0.0000000000000000e+00  9.5893602204564304e-08 2.2331453900654286e-09 0.0000000000000000e+00  1.9492007356680782e-08 -2.8518644101781565e-08 0.0000000000000000e+00  1.4945530344450640e-11 -2.0124453140332208e-11 0.0000000000000000e+00  7.2629144966846522e-13 -5.3541788319123360e-13 0.0000000000000000e+00  -2.4146942516239296e-15 4.8919785396251078e-15 0.0000000000000000e+00  -5.3483388558930111e-12 1.1048667210632612e-11 0.0000000000000000e+00  -1.4599684048018262e-12 8.8607028141860362e-13 0.0000000000000000e+00  2.9000920869020225e-14 3.2214490669909781e-15 0.0000000000000000e+00  -3.5803192453116062e-11 4.0164214120479551e-11 0.0000000000000000e+00  -4.4022019972630356e-08 4.9499739806394437e-08 0.0000000000000000e+00  -1.7003288355772518e-10 4.0284679284517452e-12 0.0000000000000000e+00  -1.8987623767353885e-11 -2.0041895973063314e-11 0.0000000000000000e+00  -1.7627379532720218e-08 -3.0014587647756044e-08 0.0000000000000000e+00  -8.8694377822699940e-05 -5.6688907659488317e-05 0.0000000000000000e+00  1.8922160733068578e-05 6.9950566523543351e-06 0.0000000000000000e+00  2.0049862673307061e-05 -1.0350723480759376e-05 0.0000000000000000e+00  -9.0067678066862699e-05 5.7559283954591701e-05 0.0000000000000000e+00  3.2420110103968319e-12 2.3564496225474644e-11 0.0000000000000000e+00  9.0989096502427390e-12 2.6304233228268991e-11 0.0000000000000000e+00  3.3283676232027307e-09 1.3317913149849635e-08 0.0000000000000000e+00  1.2943606509635002e-14 2.9663727723334762e-14 0.0000000000000000e+00  1.4664222000157273e-11 2.8033206913922195e-11 0.0000000000000000e+00  4.4745608428375633e-05 5.7938695173048758e-05 0.0000000000000000e+00  2.7697570146221697e-05 -3.7682066685127414e-05 0.0000000000000000e+00  -8.1357595478432996e-12 2.4135009022070395e-11 0.0000000000000000e+00  -8.6431388007825623e-15 3.2462196219985107e-14 0.0000000000000000e+00  -6.1231883781514872e-12 3.1600285109006781e-11 0.0000000000000000e+00  -3.1411084443401693e-09 3.7858352072986186e-09 0.0000000000000000e+00  6.2600937831824100e-13 -5.6864228457205528e-13 0.0000000000000000e+00  7.4545518950211727e-06 -5.6415647500141376e-06 0.0000000000000000e+00  3.3594364740723698e-05 -3.2409113112329786e-05 0.0000000000000000e+00  3.5767337961342957e-05 3.5550877429908316e-05 0.0000000000000000e+00  6.5989047805426199e-06 5.2820842128536031e-06 0.0000000000000000e+00  1.6194512257844145e-06 2.4345550481068891e-06 0.0000000000000000e+00  9.8891854629568746e-06 1.1947069767288285e-05 0.0000000000000000e+00  5.5334102046289529e-06 -6.9797720844465249e-06 0.0000000000000000e+00  -9.7934126863490379e-07 1.8108850653547080e-06 0.0000000000000000e+00  -2.2022555029518459e-07 6.4392523533903716e-07 0.0000000000000000e+00  -4.5581266175549183e-06 9.0862166602596429e-06 0.0000000000000000e+00  -2.3649609639368953e-06 -5.1888800449325583e-06 0.0000000000000000e+00  1.3788138125225367e-06 2.0274491642291121e-06 0.0000000000000000e+00  -6.4604859381548586e-07 2.2553346159967040e-05 0.0000000000000000e+00  2.6945984856720638e-06 1.9328699350989952e-05 0.0000000000000000e+00  2.4515948293762204e-06 -1.8444676148513401e-05 0.0000000000000000e+00  -4.3215969672240267e-07 -2.6293124992975206e-05 0.0000000000000000e+00  -3.6106958063538053e-09 8.9494830342849718e-09 0.0000000000000000e+00  4.3198379628474536e-16 1.6028029086486106e-16 0.0000000000000000e+00  2.6271016964266393e-12 3.8788702371746245e-12 0.0000000000000000e+00  -2.4173314950672540e-12 -5.6640004704595680e-12 0.0000000000000000e+00  1.2384950536636896e-12 2.0912648844207948e-12 0.0000000000000000e+00  4.1797804132669103e-16 5.5059421012479175e-16 0.0000000000000000e+00  3.0857950045505237e-12 3.7601623238970743e-12 0.0000000000000000e+00  -6.8360856397331167e-15 -3.0182655709022810e-14 0.0000000000000000e+00  -7.1448358761696534e-18 -1.3111221151353422e-18 0.0000000000000000e+00  -1.4588732974745436e-17 1.0520056994730891e-17 0.0000000000000000e+00  -5.8811082132711187e-06 -6.9378013357818760e-06 0.0000000000000000e+00  -1.0196868867672682e-05 1.2569797460330992e-05 0.0000000000000000e+00  3.6750803365560157e-09 5.1165509344123393e-09 0.0000000000000000e+00  1.7027556650697354e-11 2.4021717228631287e-11 0.0000000000000000e+00  2.2310700099668210e-08 3.4420113280802989e-08 0.0000000000000000e+00  -1.0737235678568273e-12 -4.2254657317538592e-13 0.0000000000000000e+00  -6.0789603908363074e-12 -2.0481242818248697e-11 0.0000000000000000e+00  -2.8903180492633012e-09 -8.0035654178200252e-09 0.0000000000000000e+00  -8.5239268348539987e-13 2.8554018375094859e-11 0.0000000000000000e+00  -2.9481784088160326e-09 2.5486933567903454e-08 0.0000000000000000e+00  5.7377242653594393e-12 -1.8764835085897589e-11 0.0000000000000000e+00  3.1017557626975086e-12 -2.4200322619307197e-11 0.0000000000000000e+00  3.1472948643346017e-09 -1.4547219298081856e-08 0.0000000000000000e+00  -1.7922256773581534e-17 3.2185863075963116e-17 0.0000000000000000e+00  1.6697445834548508e-15 3.1257364968660808e-14 0.0000000000000000e+00  -6.5730366063947356e-06 1.9133544854362702e-05 0.0000000000000000e+00  -4.5098507109816467e-06 2.3023132382976265e-05 0.0000000000000000e+00  -4.1011826331621372e-06 -2.5348591739841848e-05 0.0000000000000000e+00  -4.8301847922620811e-06 -1.5848100045952555e-05 0.0000000000000000e+00  3.2932511505993424e-18 -1.0562198558046295e-17 0.0000000000000000e+00  -5.0919626848838430e-12 -3.2086159375767888e-11 0.0000000000000000e+00  -2.6354629426797792e-09 -3.0363125007141052e-08 0.0000000000000000e+00  7.2890338509416353e-06 2.0939629055756673e-05 0.0000000000000000e+00  1.4615218635477893e-05 2.7526324645514973e-05 0.0000000000000000e+00  5.3017076754167344e-09 9.3680109874911218e-09 0.0000000000000000e+00  5.2547547481150328e-06 -1.1346053840376508e-05 0.0000000000000000e+00  4.2373006120216198e-06 -1.3493665345474072e-05 0.0000000000000000e+00  -6.1593360857087529e-09 1.1113653312396706e-08 0.0000000000000000e+00  -3.7556785147022569e-15 5.6144158000053581e-15 0.0000000000000000e+00  -2.5073203030035987e-12 4.143632685711106