<?xml version="1.0"?>
<VTKFile type="UnstructuredGrid"  version="0.1"  >
<UnstructuredGrid>
<Piece  NumberOfPoints="2549" NumberOfCells="4928">
<Points>
<DataArray  type="Float64"  NumberOfComponents="3"  format="ascii">1.638395186688502 -0.03760572581778678 0  1.635320066911391 0.009953603306739649 0  1.628591858549835 0.05701194042686625 0  1.620279694223064 0.1041945715429778 0  1.608960289641547 0.1510444260643752 0  1.59539048974523 0.1977544345668199 0  1.578454004081401 0.2437788236278861 0  1.56003497571065 0.2896428785710884 0  1.535951089933845 0.332903917612652 0  1.510626329169449 0.37457903834769 0  1.487315720054373 0.4208634870108144 0  1.458661359766714 0.4628053720963598 0  1.429497704488642 0.5051630399985528 0  1.398333757061359 0.5462131152836417 0  1.365609716221152 0.5865436617970986 0  1.33137879478627 0.6258599876442258 0  1.295269748212325 0.6634869402038963 0  1.25908306099869 0.6997906035443806 0  1.222823575285851 0.7407039962391327 0  1.184409446280295 0.778196820024704 0  1.145430691677376 0.8165474450524612 0  1.105150541332519 0.8538995479072777 0  1.064039793292968 0.8912808362826067 0  1.021384155295373 0.9276362159326448 0  0.9772307297603035 0.9626833883298744 0  0.9324510624519757 0.996219716196764 0  0.8863677818537596 1.029313364111762 0  0.8392266508977533 1.061519581616376 0  0.7910860891182505 1.092955494533087 0  0.7417965011571387 1.12314050990182 0  0.6914474341129399 1.152097822960148 0  0.6400485796954454 1.179632581929659 0  0.5874082563885578 1.205116321547226 0  0.5339124894014718 1.228726312145444 0  0.4794876156210754 1.250841215815186 0  0.4240843978249614 1.270607127217673 0  0.3678914229204581 1.288270792805033 0  0.3109296655186946 1.303514606478634 0  0.2533140802682742 1.316313383757381 0  0.1951668076853188 1.326582732146887 0  0.1365155905370782 1.333932984133107 0  0.07765957737458798 1.338586891122673 0  0.01860785394205415 1.340751844906654 0  -0.04047425369161007 1.340041002028359 0  -0.09947082198366011 1.336561388643399 0  -0.1582240422700218 1.330224096412278 0  -0.2166099628651506 1.321152445708996 0  -0.274466157635327 1.309169754566278 0  -0.3316866316635535 1.294813507204995 0  -0.3882748766695976 1.277789957326129 0  -0.4438443501006976 1.257898811551334 0  -0.4984627923895723 1.235653173827076 0  -0.5520888065240631 1.211365394026306 0  -0.6044936480753585 1.184845866479013 0  -0.6559901515163862 1.157019204814186 0  -0.7060145523075749 1.126836795485124 0  -0.7549266093757928 1.096378090229983 0  -0.803032210163501 1.064319400351012 0  -0.8493855895689135 1.030201985002281 0  -0.8944503962556055 0.9950867541428275 0  -0.9384787656764241 0.9595557861232575 0  -0.9810172824863961 0.9228408960108023 0  -1.023053461601108 0.8868562862856756 0  -1.062253323131999 0.8469376728577706 0  -1.101478741851677 0.8113193566116904 0  -1.140194351395049 0.7755601678376685 0  -1.177570726185093 0.7386144720056271 0  -1.214269153127531 0.7022039617041314 0  -1.249705211545119 0.6649361232877127 0  -1.284776791719549 0.6294210730901786 0  -1.319609427935489 0.5927104517009585 0  -1.35418868408879 0.5592835898381932 0  -1.389212621461289 0.522348715254599 0  -1.412985798318227 0.4755868192675679 0  -1.445925818122507 0.4341666835880929 0  -1.471574529798271 0.3893621214224285 0  -1.494809412596154 0.3430856458688302 0  -1.511401476039219 0.2939883815657754 0  -1.529892539635172 0.2468965319634204 0  -1.530439711384366 0.1925259242231557 0  -1.545245463188541 0.1483161107687358 0  -1.557076910105751 0.1016425718900352 0  -1.549764369820951 0.05373538904012681 0  -1.554337712599134 0.007535340405048903 0  -1.553456823482974 -0.03839565108080683 0  -1.555506318330659 -0.08431184565374274 0  -1.552748804897412 -0.1307398882903856 0  -1.558016856620298 -0.1791121134146625 0  -1.548375608942069 -0.2262182581081987 0  -1.535405845232496 -0.2711533473556172 0  -1.534915202644544 -0.3264167437636196 0  -1.517503354909073 -0.3742127344066428 0  -1.501270945086037 -0.4240126507709295 0  -1.478141170120738 -0.47052744632565 0  -1.452496435193011 -0.515560498147778 0  -1.420482904164579 -0.5572438069492417 0  -1.396058203958926 -0.6038873291009165 0  -1.360606736349735 -0.6408495185826572 0  -1.326139066520806 -0.6747563366577581 0  -1.291095353271898 -0.7113796404737313 0  -1.255977598630351 -0.7469754974954068 0  -1.220680568910088 -0.7845774801543332 0  -1.184188458675373 -0.8214717878054921 0  -1.147048119870404 -0.8590339613242437 0  -1.108636473248199 -0.8955211933747255 0  -1.069516412036737 -0.9320047288276073 0  -1.031159051934193 -0.974248909739866 0  -0.9890699923228526 -1.011436920744585 0  -0.9466197936237243 -1.049608561777192 0  -0.9026656500749168 -1.086746623505713 0  -0.8576171833167618 -1.123477673102236 0  -0.8111384301724468 -1.159171362123457 0  -0.763211503630201 -1.193343757581826 0  -0.7139000947544961 -1.226322813567862 0  -0.6641673026390178 -1.260447108321707 0  -0.611898338175525 -1.290332965351812 0  -0.5590305328891765 -1.319093820853218 0  -0.5047468438715833 -1.34536025964962 0  -0.4494314274872063 -1.369435314491344 0  -0.3931810470546455 -1.391145482687958 0  -0.3355908851784654 -1.409278838241091 0  -0.2774532309387411 -1.424488921503734 0  -0.2186430825159487 -1.437465220862388 0  -0.1592107472842669 -1.447207235219799 0  -0.09936663515116326 -1.45404221998121 0  -0.03922841853078803 -1.457717725275693 0  0.02102872757128998 -1.45828638679281 0  0.08124655816596445 -1.45564869485381 0  0.1412557768180336 -1.449817468679161 0  0.2008332089737901 -1.441007141003869 0  0.2599107216508028 -1.429511846872235 0  0.3183506128707126 -1.415290341521497 0  0.376075257362226 -1.39856336497714 0  0.4329213754247433 -1.379288105199494 0  0.4889346704573499 -1.358030324537568 0  0.5438319462443616 -1.334178939972392 0  0.5977305376158456 -1.309355393526222 0  0.6508986157711767 -1.28252428016499 0  0.7025089288582455 -1.253150146003032 0  0.7530835399635852 -1.222534307402258 0  0.8024940283794306 -1.19070846809441 0  0.8507126406757721 -1.157717816831859 0  0.8978578441546239 -1.123999110621601 0  0.9438932230250713 -1.089500445982451 0  0.9885910674970415 -1.054678752572922 0  1.032639370156725 -1.018350446034802 0  1.075131477432029 -0.9807220393730874 0  1.11606423985928 -0.942188464282166 0  1.156104307656284 -0.9036787439243394 0  1.194802594983377 -0.8642045731780151 0  1.232963863626264 -0.8257227637770796 0  1.268778657281851 -0.7836152604888895 0  1.30462351678256 -0.7465382838088389 0  1.340551223953893 -0.708354292335149 0  1.374406904816426 -0.668255729845077 0  1.40682309227901 -0.6273103960435016 0  1.437665572951046 -0.5856482787572334 0  1.466484070420596 -0.5426780660873245 0  1.494708429987099 -0.5001277901062499 0  1.517659294905303 -0.4532635369789931 0  1.542614491634123 -0.4111580728258962 0  1.566215422169909 -0.3673877950701552 0  1.584072686577445 -0.320990587142105 0  1.600322146001123 -0.274480793105945 0  1.613164869724837 -0.227315174539316 0  1.623523337309761 -0.1800231521276606 0  1.630899260448884 -0.1325358509410076 0  1.636411209749802 -0.08522129634309306 0  -0.08076929982341557 0.8002875764991254 0  0.618798411810681 -0.719196064044673 0  -0.7273286058461513 -0.6295169256907186 0  -0.05688125034991009 -0.8905130130747061 0  0.6145056049425742 0.6235769695935149 0  1.166784070334192 0.2040479226184354 0  -0.739907950370163 0.5297961712848696 0  -1.210059627921967 -0.04314998537654355 0  1.171007423568046 -0.2864104110605239 0  -1.015681412351386 -0.4548896939368507 0  -0.7765339513488725 -0.0579834405300426 0  -0.4558044551689383 -0.2323171124128814 0  -1.026240655236653 0.3496487398869982 0  0.2990939679356988 -0.8676567662647232 0  0.1542324917898941 -0.2931585716166062 0  0.2625683311801165 0.7619109428374137 0  0.3546966547472297 0.2036677465694083 0  0.6694639437945926 -0.04231387887288726 0  -0.3919072774179884 -0.7828286006032761 0  -0.4286860824684355 0.7053426343916714 0  -0.2559345163846065 0.2597054026287352 0  0.9245169243509619 -0.4925250487834321 0  0.9203312557646217 0.4062943663436343 0  0.4224623775935276 -0.324096662076703 0  0.04760237903341766 0.2551321898503653 0  -0.519147716986733 0.1986567255513313 0  -0.1536577251316021 -0.2855126435141563 0  0.9529296043008868 -0.04191867979539531 0  1.360202775725446 -0.03956080262894079 0  0.771989333091805 -0.602971287751105 0  0.7882442036656769 -0.2768873527000617 0  0.6347142382541163 -0.3776356823557618 0  0.5446175985262371 -0.1793117373942298 0  0.5147516763264984 -0.5268604047351999 0  0.9316062325975545 -0.2656348707035198 0  0.810520595594308 -0.04209378825539428 0  -0.8929600664728041 0.1551346248750012 0  -1.113688921136655 0.1492087892012046 0  -0.9953734506154618 -0.04966039547056314 0  -0.8875725133159622 -0.2651127736379268 0  -1.108932175238572 -0.2441046703406097 0  -1.283729654866654 -0.3364875005968532 0  -1.371405417002339 -0.1527160394131594 0  -1.369381434195196 0.07043631302218305 0  -1.279309702039641 0.2529139397356322 0  -0.105860412895244 -0.5876467418681462 0  -0.2660710238793509 -0.5401121995858585 0  -0.2257223518784098 -0.8420450087190972 0  -0.3041914785469038 -0.2600055542639113 0  -0.4201284100383507 -0.5051935450802255 0  -1.202465030846983 -0.5337042923309339 0  -1.203961318707758 0.4418979722399463 0  0.3596104013995474 -0.593411553721268 0  0.2875563809156212 -0.3102427759166269 0  0.2211246748542207 -0.5834098486127697 0  -0.8825055531344179 0.4355327181251922 0  -0.7487302939127631 0.2337817817745586 0  1.354515666115427 -0.3593875245624523 0  1.226050822923943 -0.5243647967419884 0  1.219283502195605 0.4418100541267387 0  1.349047471041803 0.2793150912200341 0  -0.7328689735808562 -0.9129293267603937 0  -0.9074570533146727 -0.7778132314608628 0  -0.9104469897224401 0.6856046877213141 0  -0.7363935235496796 0.8140815123739379 0  0.7904360109164202 -0.9016678838007293 0  0.6010810215031451 -1.014607282469563 0  0.5942731796306866 0.9152185186887555 0  0.7830530399693268 0.8079190066348565 0  0.031538499339977
[...]
<PointData  Vectors="f_18313"> 
<DataArray  type="Float64"  Name="f_18313"  NumberOfComponents="3" format="ascii">4.4784806078305248e-02 5.4059902099738949e-04 0.0000000000000000e+00  5.4257251221642919e-02 5.6322669104156599e-03 0.0000000000000000e+00  4.9348953062042761e-02 7.8542643032564197e-03 0.0000000000000000e+00  5.5687086375253200e-02 1.1695645450537804e-02 0.0000000000000000e+00  5.5966045183265437e-02 1.4814943882857907e-02 0.0000000000000000e+00  7.2306445885336149e-02 2.3997779451237468e-02 0.0000000000000000e+00  5.2058758008427436e-02 1.9471962806087366e-02 0.0000000000000000e+00  2.6303695925092210e-02 1.3444533203848572e-02 0.0000000000000000e+00  1.3593121904521110e-01 7.7573436530394946e-02 0.0000000000000000e+00  1.0046837290587456e-01 5.6023865539837472e-02 0.0000000000000000e+00  -1.6697573927110847e-02 -9.9617925905803508e-03 0.0000000000000000e+00  1.2067257552933044e-02 8.3158656358263000e-03 0.0000000000000000e+00  3.0433717997494877e-02 2.2237132853800880e-02 0.0000000000000000e+00  8.0635703499487815e-02 6.3351891804262886e-02 0.0000000000000000e+00  6.7951717348476118e-02 5.7170157589685577e-02 0.0000000000000000e+00  8.4205012597316456e-02 7.6991952716634199e-02 0.0000000000000000e+00  8.0753133892382437e-02 7.8182493798321151e-02 0.0000000000000000e+00  2.2574613604630638e-02 2.1335743646860833e-02 0.0000000000000000e+00  -3.9006339411344973e-03 -3.8964933036818123e-03 0.0000000000000000e+00  -1.7310107537207572e-02 -1.7488350177333800e-02 0.0000000000000000e+00  3.9828551131900715e-03 4.2019575778989267e-03 0.0000000000000000e+00  1.1178957241599813e-02 1.2187972528860688e-02 0.0000000000000000e+00  3.4683909152850396e-03 4.0196488457038279e-03 0.0000000000000000e+00  3.5795061206275708e-02 4.3613480279990638e-02 0.0000000000000000e+00  2.7442864787830493e-02 3.5445789768050517e-02 0.0000000000000000e+00  1.3957025023177784e-02 1.8985134281157692e-02 0.0000000000000000e+00  6.2843132377023263e-03 8.9499385329119031e-03 0.0000000000000000e+00  -1.9216806904306894e-03 -2.9190558052584956e-03 0.0000000000000000e+00  -7.8154641507324155e-03 -1.2365986267325022e-02 0.0000000000000000e+00  -8.5521011519316282e-03 -1.4438891980061376e-02 0.0000000000000000e+00  -1.7447083682992040e-02 -3.1542120574023710e-02 0.0000000000000000e+00  -1.7342450683091714e-02 -3.3927720921965436e-02 0.0000000000000000e+00  -8.1651488029155835e-03 -1.7638259949899183e-02 0.0000000000000000e+00  -1.5040478587291316e-02 -3.5658994075813986e-02 0.0000000000000000e+00  -1.6742469712065746e-02 -4.3843512961767271e-02 0.0000000000000000e+00  -1.2772755650981580e-02 -3.8160824330701781e-02 0.0000000000000000e+00  -1.3392525258981719e-02 -4.6021261882740222e-02 0.0000000000000000e+00  -9.8825337722235340e-03 -4.0358979056867826e-02 0.0000000000000000e+00  -8.7230545200706420e-03 -4.3822276926431016e-02 0.0000000000000000e+00  -5.7540340446334227e-03 -3.7900342745659669e-02 0.0000000000000000e+00  -3.3498045286511017e-03 -3.2710614884133363e-02 0.0000000000000000e+00  -1.7920167208985108e-03 -3.0795917837897487e-02 0.0000000000000000e+00  -3.6059486796696550e-04 -2.9685801518576513e-02 0.0000000000000000e+00  9.9561428149656035e-04 -2.8284371277729044e-02 0.0000000000000000e+00  2.3116510620522510e-03 -2.7643497191951517e-02 0.0000000000000000e+00  3.2931001578854653e-03 -2.5087604125794853e-02 0.0000000000000000e+00  5.1536479102621633e-03 -2.8327031967558237e-02 0.0000000000000000e+00  5.9779876416507132e-03 -2.6214734001721009e-02 0.0000000000000000e+00  5.2944962587982035e-03 -1.9129733291049660e-02 0.0000000000000000e+00  1.2874446073198249e-02 -3.8813207027542998e-02 0.0000000000000000e+00  1.9085341222593543e-02 -5.0045838570755515e-02 0.0000000000000000e+00  1.2592922693180107e-02 -2.9356841332270324e-02 0.0000000000000000e+00  2.3726839372526152e-02 -4.9437972641153870e-02 0.0000000000000000e+00  1.0206468905036214e-02 -1.9758516289135233e-02 0.0000000000000000e+00  1.7800589234704015e-02 -3.0992517350366008e-02 0.0000000000000000e+00  8.5279607567777735e-03 -1.4134037544787134e-02 0.0000000000000000e+00  -1.2916487354180842e-02 1.9968717123138361e-02 0.0000000000000000e+00  6.5043001046026982e-03 -9.0491543695607850e-03 0.0000000000000000e+00  2.3141447182648382e-02 -3.0690459879553926e-02 0.0000000000000000e+00  -1.6692792207407495e-03 2.0964392893332521e-03 0.0000000000000000e+00  3.1710975003994106e-02 -3.7933921465469214e-02 0.0000000000000000e+00  3.1460472415838776e-02 -3.6430662802644530e-02 0.0000000000000000e+00  5.6033176071199182e-02 -6.0324259867212834e-02 0.0000000000000000e+00  -1.1601566446170471e-01 1.2127790520691291e-01 0.0000000000000000e+00  -2.6790710374518883e-02 2.8798999207613744e-02 0.0000000000000000e+00  -6.2921235186089702e-03 6.5718441150883376e-03 0.0000000000000000e+00  -9.3458192381369945e-03 9.4916310435176586e-03 0.0000000000000000e+00  -2.0960885786841636e-02 2.0490044837951530e-02 0.0000000000000000e+00  7.6083883739760886e-03 -7.3306262622507027e-03 0.0000000000000000e+00  -3.1900486959637271e-02 3.1130578879293089e-02 0.0000000000000000e+00  -8.1594039271462200e-03 7.7439775135126317e-03 0.0000000000000000e+00  -2.0874618610760778e-01 2.0782674832892581e-01 0.0000000000000000e+00  8.1605909069128313e-01 -5.7951181721027056e-01 0.0000000000000000e+00  -3.6295423138281041e-01 2.3310379664066305e-01 0.0000000000000000e+00  -7.7797085610337258e-01 5.1766628794088587e-01 0.0000000000000000e+00  -1.2966322717889800e-01 7.0609158540466413e-02 0.0000000000000000e+00  2.9179145288747516e-02 -9.6878404519384065e-03 0.0000000000000000e+00  2.2295405104800342e-01 -7.9129562425058239e-02 0.0000000000000000e+00  3.6236488933151884e-01 -7.3894284986156217e-02 0.0000000000000000e+00  -2.6793659749505283e-01 4.8168492336121353e-02 0.0000000000000000e+00  -1.1540205720010502e-01 3.2596808199781654e-02 0.0000000000000000e+00  4.3842274940587728e-01 -2.3051490116751564e-02 0.0000000000000000e+00  -1.1513868134288817e-01 -4.0164238949112830e-03 0.0000000000000000e+00  -8.4828071777005923e-02 2.4514989585280996e-03 0.0000000000000000e+00  -4.2291802855946796e-02 5.9972068432790249e-04 0.0000000000000000e+00  -3.3196601907161158e-02 -4.3316975829910045e-05 0.0000000000000000e+00  -4.1771962730921298e-02 2.2572850511644155e-03 0.0000000000000000e+00  3.0762900992415998e-01 1.5103212348972496e-02 0.0000000000000000e+00  -1.0434588611686009e-01 -2.4328781570103920e-02 0.0000000000000000e+00  -2.3127000679391280e-01 -3.5890131793513469e-02 0.0000000000000000e+00  2.6322188260845519e-01 4.9328077451360891e-02 0.0000000000000000e+00  1.2279630678797593e-01 4.1774238635610444e-02 0.0000000000000000e+00  3.2384396876343532e-03 -1.1985678967980364e-03 0.0000000000000000e+00  -1.3398998916753865e-01 -7.1477980951236794e-02 0.0000000000000000e+00  -6.4102744119011124e-01 -4.1876608054578374e-01 0.0000000000000000e+00  -3.2423648944068323e-01 -2.0634628185307421e-01 0.0000000000000000e+00  6.0615829936328780e-01 4.3602021703795441e-01 0.0000000000000000e+00  -9.4364760296674413e-02 -9.3661046104377685e-02 0.0000000000000000e+00  -2.1898095176947872e-02 -2.1408746668176423e-02 0.0000000000000000e+00  -2.7880548821726983e-02 -2.7277814334651818e-02 0.0000000000000000e+00  1.6443812127191339e-02 1.5868439565857533e-02 0.0000000000000000e+00  -1.4244923164044321e-02 -1.3714165514839645e-02 0.0000000000000000e+00  -3.6113223535744680e-03 -3.5973181487912466e-03 0.0000000000000000e+00  5.5486199243830773e-03 5.6406739258588485e-03 0.0000000000000000e+00  -3.7550500737631720e-02 -3.8911805353905572e-02 0.0000000000000000e+00  -2.1305496640302762e-01 -2.1154115301202647e-01 0.0000000000000000e+00  1.4375508904791157e-01 1.4662923120873889e-01 0.0000000000000000e+00  6.1652080053577703e-02 6.8487202016308757e-02 0.0000000000000000e+00  4.1333402653800727e-02 4.7325298350578172e-02 0.0000000000000000e+00  1.6180131017984761e-03 1.9985228343781737e-03 0.0000000000000000e+00  2.0184754918814319e-02 2.5542409608116979e-02 0.0000000000000000e+00  1.8638044535292522e-02 2.5135631088570167e-02 0.0000000000000000e+00  -1.6183710704892457e-02 -2.3489519748374047e-02 0.0000000000000000e+00  -2.0606545824821104e-02 -2.9745058051991773e-02 0.0000000000000000e+00  8.9344049921586483e-02 1.4197488425844640e-01 0.0000000000000000e+00  1.4999039137064815e-02 2.7403369960263369e-02 0.0000000000000000e+00  5.2259728604862429e-02 1.0150777457984765e-01 0.0000000000000000e+00  1.8117102799481692e-02 3.9521192478168925e-02 0.0000000000000000e+00  3.3964518111864572e-02 8.3302538051726202e-02 0.0000000000000000e+00  2.5109094137476119e-02 7.0948961452789061e-02 0.0000000000000000e+00  4.3763776211030664e-03 1.5053632602919191e-02 0.0000000000000000e+00  7.8903850972107739e-03 3.2964408275344734e-02 0.0000000000000000e+00  7.2731831581578166e-03 3.7646447779011848e-02 0.0000000000000000e+00  3.9242564600328557e-03 2.8296662753626575e-02 0.0000000000000000e+00  2.7084065615315183e-03 3.0702422621326310e-02 0.0000000000000000e+00  9.3401170307497205e-04 2.6411513596586104e-02 0.0000000000000000e+00  -4.5737035006435681e-04 2.6952111454037378e-02 0.0000000000000000e+00  -1.8032443639820241e-03 2.5523561020338131e-02 0.0000000000000000e+00  -4.0086630204564438e-03 3.2592239017279902e-02 0.0000000000000000e+00  -5.8523596396599297e-03 3.4206410777409449e-02 0.0000000000000000e+00  -8.3513528363444670e-03 3.8094397430652280e-02 0.0000000000000000e+00  -9.7203284762239495e-03 3.6503549469848837e-02 0.0000000000000000e+00  -1.4095498018438122e-02 4.4796032881137766e-02 0.0000000000000000e+00  -1.1757800775843017e-02 3.2864171009184102e-02 0.0000000000000000e+00  -1.8088492992565309e-02 4.4381776348746294e-02 0.0000000000000000e+00  -1.3494814915562580e-02 3.0382363791573351e-02 0.0000000000000000e+00  -1.5884487170286417e-03 3.2602565113084066e-03 0.0000000000000000e+00  -2.6491137933537173e-02 4.9114246905184906e-02 0.0000000000000000e+00  -2.2950268761240764e-02 3.9370551676058976e-02 0.0000000000000000e+00  -1.1397943774418523e-02 1.8245777985367900e-02 0.0000000000000000e+00  -1.2340912994144504e-02 1.8622619218519810e-02 0.0000000000000000e+00  -4.6674809318067055e-03 6.7064291856045281e-03 0.0000000000000000e+00  2.3300947837570350e-03 -3.1591442093742341e-03 0.0000000000000000e+00  1.0904026301194674e-02 -1.4224057321064052e-02 0.0000000000000000e+00  2.5783178122031448e-02 -3.2027604464588882e-02 0.0000000000000000e+00  3.2124208470843081e-02 -3.7687415735638941e-02 0.0000000000000000e+00  1.8700430709446265e-03 -2.1064027240243290e-03 0.0000000000000000e+00  1.1560147308492809e-02 -1.2166968905842195e-02 0.0000000000000000e+00  -1.1418141534391727e-03 1.1202042354324403e-03 0.0000000000000000e+00  -2.4136481925977300e-02 2.3589043273104519e-02 0.0000000000000000e+00  -1.0326231011596111e-02 9.7029586196852695e-03 0.0000000000000000e+00  4.3042305226662018e-02 -3.9218147600795950e-02 0.0000000000000000e+00  6.0784652772921541e-02 -5.7251906118709950e-02 0.0000000000000000e+00  8.6601703296469781e-02 -7.7210332109714799e-02 0.0000000000000000e+00  6.1269017684265487e-02 -5.0131371958148881e-02 0.0000000000000000e+00  7.9778400936060215e-02 -6.1140890750885642e-02 0.0000000000000000e+00  3.1127806918635183e-02 -2.2131503613083116e-02 0.0000000000000000e+00  1.7818492333920761e-02 -1.1941990534952415e-02 0.0000000000000000e+00  -1.7366489900801283e-02 1.0077897585913419e-02 0.0000000000000000e+00  8.5783609266215199e-02 -4.6565275630577614e-02 0.0000000000000000e+00  1.3518466318826058e-01 -7.5005781621818701e-02 0.0000000000000000e+00  2.7167897499206783e-02 -1.3356958700761017e-02 0.0000000000000000e+00  5.1250463060868820e-02 -1.8304577494190219e-02 0.0000000000000000e+00  6.8287350836657726e-02 -2.1396142207979443e-02 0.0000000000000000e+00  5.3076789674584055e-02 -1.2989732403775699e-02 0.0000000000000000e+00  5.0250551105105339e-02 -9.4430056951022787e-03 0.0000000000000000e+00  4.6805193335119642e-02 -6.3971823507283287e-03 0.0000000000000000e+00  3.5230893388706559e-02 -2.7271296326456763e-03 0.0000000000000000e+00  1.8177677062598366e-09 -2.2365899146801819e-08 0.0000000000000000e+00  -7.2055066298264223e-09 1.1322111597877878e-08 0.0000000000000000e+00  1.6560176959675393e-08 1.8716815637880133e-08 0.0000000000000000e+00  1.9241063769202778e-09 2.1490387906451041e-08 0.0000000000000000e+00  -4.9233475311600546e-09 -8.2243197755493310e-09 0.0000000000000000e+00  2.7225504911091805e-08 2.0595263939366197e-08 0.0000000000000000e+00  1.1304790422076265e-08 -1.3524127546529977e-08 0.0000000000000000e+00  -4.3244498887763744e-08 -2.0337148046569055e-09 0.0000000000000000e+00  2.7493713260181693e-08 -2.0232551676190371e-08 0.0000000000000000e+00  -3.6808191697975529e-09 -4.1145635767951013e-09 0.0000000000000000e+00  4.5245182147067811e-15 -6.4445148808493147e-15 0.0000000000000000e+00  7.9165513246804382e-15 1.2174842069496738e-14 0.0000000000000000e+00  -7.6567711095489781e-09 8.2766494286594253e-09 0.0000000000000000e+00  -8.4133416137001792e-09 2.7054347865882779e-08 0.0000000000000000e+00  -3.9374926169178111e-15 3.1322058843842454e-14 0.0000000000000000e+00  -8.0981801449194661e-09 -2.8081770341537355e-08 0.0000000000000000e+00  -1.1188786674124274e-14 -2.4781439670494613e-14 0.0000000000000000e+00  1.4467732503969013e-14 1.9247466928139731e-15 0.0000000000000000e+00  1.9201604557235065e-08 3.7922346531203906e-08 0.0000000000000000e+00  1.1182353565225351e-08 -2.3965214546504875e-08 0.0000000000000000e+00  8.0066759763266133e-15 -2.8039809783437353e-14 0.0000000000000000e+00  -6.0828596203843666e-10 4.0709884307477429e-10 0.0000000000000000e+00  1.1362209040545080e-09 1.3955202848311388e-09 0.0000000000000000e+00  -1.4330781245644147e-14 2.9532949110012674e-14 0.0000000000000000e+00  -3.4936602458493283e-15 -3.1678256768449119e-14 0.0000000000000000e+00  7.0490552476972498e-15 -1.1103768476556563e-14 0.0000000000000000e+00  1.0607517896055768e-14 3.3288032881642904e-14 0.0000000000000000e+00  7.1726259090959170e-14 2.1807309428192182e-15 0.0000000000000000e+00  8.3106092004312026e-08 1.2046568246403306e-09 0.0000000000000000e+00  6.4454236595577181e-09 -7.8186234258228179e-09 0.0000000000000000e+00  5.0875556533852162e-12 -6.0163309869738164e-12 0.0000000000000000e+00  -9.0984293948229893e-13 1.8639588433154535e-12 0.0000000000000000e+00  -8.5157055690594645e-15 1.3794051711765758e-14 0.0000000000000000e+00  -1.2367507522677139e-11 2.1735679159644495e-11 0.0000000000000000e+00  3.4743892612062516e-12 -3.0149122502291923e-12 0.0000000000000000e+00  3.4749734725986722e-15 1.8970449495242739e-15 0.0000000000000000e+00  -1.5525561195628968e-11 1.9714702966234116e-11 0.0000000000000000e+00  7.4913167455885653e-08 -5.3290895950502310e-08 0.0000000000000000e+00  -2.6559720775241883e-10 1.4463006896471425e-11 0.0000000000000000e+00  -1.2118544159219830e-11 -1.4356407190729065e-11 0.0000000000000000e+00  5.1461576739935648e-08 4.0158028964667781e-08 0.0000000000000000e+00  -1.5169122556741422e-04 -9.5973971161444270e-05 0.0000000000000000e+00  4.1319686728620789e-05 1.1903294811303526e-05 0.0000000000000000e+00  5.3393053095963683e-05 -1.9531514809799719e-05 0.0000000000000000e+00  -1.8904208243367181e-04 1.2293980118426059e-04 0.0000000000000000e+00  4.9651525671145720e-12 2.5184538482199897e-11 0.0000000000000000e+00  1.6423792412254844e-11 3.9759688049507859e-11 0.0000000000000000e+00  7.3931171006020118e-09 2.3441110903961678e-08 0.0000000000000000e+00  2.2598516158370083e-14 4.4727365692103780e-14 0.0000000000000000e+00  2.2327079351255277e-11 3.7955800674965967e-11 0.0000000000000000e+00  -3.9417767890128890e-06 -6.6180079221796673e-06 0.0000000000000000e+00  5.5451762045109895e-07 3.7562549766119657e-06 0.0000000000000000e+00  -1.1071593854924556e-11 2.7950103873901301e-11 0.0000000000000000e+00  -1.0631822575457685e-14 3.4318728698152018e-14 0.0000000000000000e+00  -6.5873826356367216e-12 2.9812861671720814e-11 0.0000000000000000e+00  -1.2184210109986384e-08 1.2719086280266016e-08 0.0000000000000000e+00  5.1289122717758017e-12 -6.3732369251144117e-12 0.0000000000000000e+00  8.6397618440693584e-06 -5.0554660321561553e-06 0.0000000000000000e+00  2.7989861016131445e-05 -2.3192467816660885e-05 0.0000000000000000e+00  2.9904405607394399e-05 2.5450886838621380e-05 0.0000000000000000e+00  8.9960681941003554e-06 5.3342359820108674e-06 0.0000000000000000e+00  7.7614151215187815e-06 9.7477546480427166e-06 0.0000000000000000e+00  3.6080827694607487e-05 3.7559256696494299e-05 0.0000000000000000e+00  1.3779863928148228e-05 -1.5275109329334704e-05 0.0000000000000000e+00  7.3686792869143813e-06 -9.5930874912354033e-06 0.0000000000000000e+00  -8.3530109535283424e-07 1.4011845294598022e-06 0.0000000000000000e+00  -9.9129723450068582e-06 1.7057866801813841e-05 0.0000000000000000e+00  -7.7583665669777176e-06 -1.4195586150031333e-05 0.0000000000000000e+00  5.7234068544874260e-07 5.5303436840410268e-07 0.0000000000000000e+00  -3.0567140384748930e-07 1.7792701180017994e-05 0.0000000000000000e+00  3.7864540149429081e-06 1.9699454101736586e-05 0.0000000000000000e+00  3.1431040861260900e-06 -1.7458580708572433e-05 0.0000000000000000e+00  -2.6795160799000498e-07 -1.9823610066498265e-05 0.0000000000000000e+00  -8.9421897521118302e-09 1.8248149186871684e-08 0.0000000000000000e+00  -6.2515884179097968e-15 -1.0858056337812123e-14 0.0000000000000000e+00  7.7892281046777565e-13 5.4651148003798250e-13 0.0000000000000000e+00  -8.7937165223537557e-12 -1.6461500079902946e-11 0.0000000000000000e+00  9.6106275528149635e-12 1.2022409808733594e-11 0.0000000000000000e+00  2.0491094786829773e-14 2.3267471252947665e-14 0.0000000000000000e+00  1.5394486477299172e-11 1.7006147845484077e-11 0.0000000000000000e+00  -9.8924833982583706e-15 -3.4500990539668457e-14 0.0000000000000000e+00  -8.0709703655043519e-18 -6.4587504517529698e-18 0.0000000000000000e+00  -2.0949726034767616e-17 -1.2712675787340139e-18 0.0000000000000000e+00  -4.1821399260837355e-06 -4.1231216010158491e-06 0.0000000000000000e+00  -6.2029278731772409e-06 6.2783182718865458e-06 0.0000000000000000e+00  -1.7769026381412567e-08 -1.7606449358019561e-08 0.0000000000000000e+00  6.1796766055487686e-12 7.5277425876725575e-12 0.0000000000000000e+00  7.4640509215232904e-09 9.4552659495484559e-09 0.0000000000000000e+00  4.3022357981430260e-12 3.9791046623838984e-12 0.0000000000000000e+00  -1.0403024974598559e-11 -2.8013652599862052e-11 0.0000000000000000e+00  -8.3632556878413621e-09 -1.8283494477754565e-08 0.0000000000000000e+00  -4.1421753804941788e-13 2.3217179860616880e-11 0.0000000000000000e+00  -2.7047461805250075e-09 2.1611168699715407e-08 0.0000000000000000e+00  1.1277258256060314e-11 -2.9679531656638086e-11 0.0000000000000000e+00  4.2247573456676237e-12 -2.3477132801120935e-11 0.0000000000000000e+00  5.7382876132763958e-09 -2.0099263748275352e-08 0.0000000000000000e+00  -3.8501895900365304e-17 3.4538704203103932e-17 0.0000000000000000e+00  2.5287128213575155e-15 2.7813626948871742e-14 0.0000000000000000e+00  -8.6096515179244680e-06 2.1617313696155108e-05 0.0000000000000000e+00  -4.7466027240219497e-06 2.1493027362957517e-05 0.0000000000000000e+00  -4.8663773016078311e-06 -2.4160242724775540e-05 0.0000000000000000e+00  -8.0266490001007726e-06 -2.1408507952093651e-05 0.0000000000000000e+00  6.0206776112979785e-18 5.1594040621782469e-19 0.0000000000000000e+00  -6.2241241396970841e-12 -3.0939440764908820e-11 0.0000000000000000e+00  -2.6840386382179625e-09 -2.4756895344194039e-08 0.0000000000000000e+00  1.3129623313406466e-05 3.1645358626798281e-05 0.0000000000000000e+00  2.5461710147905411e-05 4.2213848641061054e-05 0.0000000000000000e+00  3.9211623769650652e-09 6.0591878953445789e-09 0.0000000000000000e+00  7.7410161049344205e-06 -1.4074598207265534e-05 0.0000000000000000e+00  8.2535008843801781e-06 -2.1509276780874648e-05 0.0000000000000000e+00  3.1411551685173397e-09 -4.9108610735956037e-09 0.0000000000000000e+00  1.2136058186752060e-14 -1.4646358960496981e-14 0.0000000000000000e+00  8.1071050019797220e-12 -1.060415