<?xml version="1.0"?>
<VTKFile type="UnstructuredGrid"  version="0.1"  >
<UnstructuredGrid>
<Piece  NumberOfPoints="2549" NumberOfCells="4928">
<Points>
<DataArray  type="Float64"  NumberOfComponents="3"  format="ascii">1.686723753004033 -0.04729770482256866 0  1.683411945355351 0.001683851298948706 0  1.675845585543184 0.05004307459781794 0  1.666491392323391 0.09845940945120399 0  1.653918543609889 0.1464270038776759 0  1.638609933418429 0.1940796376517869 0  1.619970419850857 0.240887017843121 0  1.599052476404591 0.2872578480586444 0  1.572933362684395 0.3309279364173115 0  1.544483907520582 0.3722618237624128 0  1.517697443038923 0.4179290121214739 0  1.486524966890855 0.4596291943879935 0  1.453916723341371 0.5009153450397683 0  1.419280608294187 0.5405755575797269 0  1.383143447771588 0.5791258999441007 0  1.345849040684664 0.617075666981149 0  1.305803382178574 0.6518763682021037 0  1.265475445375295 0.6849688776171087 0  1.225940223466115 0.7230025238659672 0  1.184446468829088 0.7580918048712784 0  1.142101760032773 0.7931777335921226 0  1.098608203217613 0.8271934797315741 0  1.05415060932446 0.8605361135815238 0  1.008766316285781 0.8933229940537145 0  0.9619453344742565 0.9244402328860408 0  0.9142175351139396 0.9529916565618801 0  0.8660577706156832 0.9820893538495672 0  0.8170462698171043 1.010343274808972 0  0.7671748532525582 1.037619837538967 0  0.7164366310534254 1.063723030694053 0  0.6648481391167529 1.088481478512644 0  0.6124555049419114 1.111857671586829 0  0.5591724438858141 1.13327672331977 0  0.5052955055920584 1.15278760746932 0  0.450782323137809 1.171071144030036 0  0.3956547326911048 1.187330586741818 0  0.339988196858802 1.201689657152462 0  0.2838557651401231 1.214033604504229 0  0.2273260979710576 1.224322317540376 0  0.1704826981457519 1.23260456888371 0  0.1133431932976508 1.238540885353054 0  0.05610903147378 1.242397282111473 0  -0.001256191344457183 1.244407772632988 0  -0.05866556612395717 1.244209569712634 0  -0.1160566611372797 1.241871436719263 0  -0.1733488901042043 1.237292415146543 0  -0.2304562459978172 1.23049572039796 0  -0.2872951014660261 1.221322803052302 0  -0.3437745854476209 1.21026011893977 0  -0.3999199550865908 1.196801464544925 0  -0.4554335618020262 1.180712664878847 0  -0.5102979707211835 1.162454699830698 0  -0.5644147261045384 1.142078169965163 0  -0.6177082743119461 1.119699544298919 0  -0.6701291009717988 1.095653423658436 0  -0.7215870035410855 1.069649501751506 0  -0.7722872515604086 1.043726316810182 0  -0.8223007766690658 1.015788010915272 0  -0.8709447374558524 0.9857291165290383 0  -0.9186051168105082 0.9548026261182688 0  -0.965249774779292 0.9230023874839139 0  -1.010801796894528 0.890140101129022 0  -1.055422866655098 0.8571259932500879 0  -1.0984990429037 0.8216547860064561 0  -1.141310380007059 0.7896056856926426 0  -1.18423176010315 0.7578432683723809 0  -1.225577039716157 0.7242268053365134 0  -1.266345104248066 0.6908442479284906 0  -1.306403602462082 0.6572216737730581 0  -1.34625474440311 0.6243667394381012 0  -1.385197897211933 0.5903624441346689 0  -1.426560148443622 0.5613827579815814 0  -1.465639750799544 0.5256278876351257 0  -1.496506194013294 0.4798611104580521 0  -1.52826165244633 0.4367844035334563 0  -1.555955627494813 0.390900918345905 0  -1.581264746038778 0.3441128690411694 0  -1.600778897562537 0.2938970879968567 0  -1.618657473105146 0.2449887972527599 0  -1.624887219741705 0.1896088831405475 0  -1.638425600898711 0.1432818244890361 0  -1.648791296117982 0.09503705552232933 0  -1.64671165497456 0.04518821793458196 0  -1.649816706518936 -0.00256941577715375 0  -1.648991287190848 -0.0499525647713082 0  -1.651274817457436 -0.09741182907047731 0  -1.649357692673082 -0.1454154366772228 0  -1.653154442827877 -0.1957469068170365 0  -1.643744672230993 -0.2444936241150459 0  -1.631225867689471 -0.2913828753045925 0  -1.626688857862996 -0.34819523559166 0  -1.609334880687788 -0.3978053466141048 0  -1.590325534338682 -0.4488683239806163 0  -1.565069302119851 -0.4961458540048184 0  -1.53723574686194 -0.5423215631341896 0  -1.505012536011552 -0.5852591541921401 0  -1.474155863468976 -0.6311744160939031 0  -1.435542164743759 -0.6680645075013323 0  -1.393861355540946 -0.6968116961241664 0  -1.354982195173553 -0.7312020084202737 0  -1.315145574059137 -0.7643177492716392 0  -1.275233022030695 -0.798434539613303 0  -1.234658214726833 -0.8324307592597477 0  -1.193580898320694 -0.8668451821381662 0  -1.150985186807628 -0.8995574074276002 0  -1.108674917467399 -0.9331770803596628 0  -1.066095608767608 -0.9709058197932363 0  -1.021770630182577 -1.005733443678597 0  -0.9764965757497727 -1.040647395123765 0  -0.9300815464580163 -1.074570161239799 0  -0.8826062318715047 -1.107767293560011 0  -0.834070063474086 -1.140137365662247 0  -0.7842529260415383 -1.170769035814404 0  -0.733724523113931 -1.200836513557502 0  -0.6819704238682143 -1.230959597462593 0  -0.6289395115535963 -1.257955064990823 0  -0.5748626164070426 -1.283077549135664 0  -0.5198100032863802 -1.30574212172326 0  -0.4638850080881622 -1.32596364549315 0  -0.4072207017943187 -1.343748365524058 0  -0.3497657002633023 -1.358252232251387 0  -0.2920446740435966 -1.369943157831348 0  -0.2339309932459936 -1.379912249521044 0  -0.1754982534678424 -1.387220293205792 0  -0.1168356000401743 -1.392040255294034 0  -0.05804406576115579 -1.394258640934527 0  0.0007735972711286299 -1.393897267015491 0  0.05951854364168198 -1.390910180167436 0  0.1180802479494094 -1.38527465455898 0  0.1763184417496471 -1.377231970428795 0  0.2341919854929025 -1.366991869505163 0  0.2916327731840911 -1.354540759174483 0  0.3485660635905669 -1.339961247533419 0  0.4049168570065408 -1.323294997643979 0  0.4606169734841441 -1.304778561289997 0  0.5155976703106542 -1.284175818839361 0  0.5699015747291931 -1.263035212048808 0  0.6236786136546945 -1.239754320985079 0  0.676353882035633 -1.214149138559689 0  0.728158070995605 -1.187302299757793 0  0.7790398859342027 -1.159184942990721 0  0.8289938201708335 -1.129994327558898 0  0.878036596144027 -1.099926233512862 0  0.9261945445119203 -1.069166648775308 0  0.9738974228288931 -1.03903631931179 0  1.020639149952275 -1.006357483817067 0  1.065927406689434 -0.9721306297552729 0  1.110252136767749 -0.9374082099234644 0  1.153590272201301 -0.902093880074514 0  1.195741236734045 -0.8657434151990033 0  1.237030289175438 -0.8295052819051644 0  1.276261212277796 -0.7901897211384107 0  1.316325134425245 -0.7561477813545811 0  1.356167449293757 -0.7205453150162253 0  1.39321371174707 -0.6817824601093957 0  1.429098410213341 -0.6424757937214157 0  1.46345926345374 -0.6020831422805808 0  1.495755183503157 -0.5600732733489621 0  1.526604163535417 -0.5177054325804621 0  1.552909912802183 -0.4712473942940292 0  1.580981240073879 -0.4293559107133409 0  1.606599221540632 -0.3850548908619079 0  1.626857683480021 -0.3380349205674955 0  1.644755018521661 -0.2906213912041146 0  1.659185573079519 -0.2423976655056513 0  1.670632387464042 -0.193874739257485 0  1.67887266544203 -0.1450742924197026 0  1.6846967972815 -0.09633210400941558 0  -0.1037967599690029 0.7358130072628263 0  0.6168841792763634 -0.6980564168494894 0  -0.7776401630688663 -0.620709062880508 0  -0.08092820600334695 -0.8550481441371642 0  0.6133751410875083 0.5788697347202411 0  1.196742065153336 0.19004442109188 0  -0.7903077129564883 0.4950671364054927 0  -1.293660765705489 -0.05530049769938956 0  1.201441908206218 -0.2933015902231462 0  -1.084674701880056 -0.4605748012383961 0  -0.8398676778869627 -0.07026883954070506 0  -0.5018568874324245 -0.235939755647971 0  -1.095495123104438 0.3311824915147176 0  0.2845127551526873 -0.8332605271936762 0  0.1392438325639004 -0.2909017099201334 0  0.2485899759623597 0.7011124986684329 0  0.3500534826824594 0.1769603046075772 0  0.6807834454475504 -0.05382378709070597 0  -0.4266394469801363 -0.7589229062384542 0  -0.4628061748714848 0.6528045019253791 0  -0.2906822468844302 0.2289049573724155 0  0.9402439658912679 -0.4885964032266444 0  0.9359729209836263 0.3804868112595686 0  0.4203182575305419 -0.3205333497722003 0  0.02783922569403878 0.2237796007771173 0  -0.5676406259000087 0.1736084568972749 0  -0.1840882507058951 -0.2845487317153592 0  0.9770302914361362 -0.05272783003106489 0  1.400001089399852 -0.04970614153693504 0  0.7787689194932528 -0.590849642347778 0  0.8033899082991274 -0.2783961344741211 0  0.6415811442342677 -0.3729439415042338 0  0.5494705075757939 -0.1839909701153102 0  0.5139112889992766 -0.5132271841750975 0  0.9530440578854066 -0.2692016481999565 0  0.8283607627084248 -0.05323776305445187 0  -0.9606166810854468 0.1372992605444204 0  -1.191585624997516 0.1359051787949488 0  -1.069497524212137 -0.06198296926761475 0  -0.9549974022085179 -0.2718303475823532 0  -1.187101638663804 -0.2551705471793199 0  -1.367682617175308 -0.3523749977597921 0  -1.46122169878427 -0.1671355220835486 0  -1.458404991633222 0.06092718313066016 0  -1.361753087556736 0.2446033154901101 0  -0.1329645184106441 -0.5691780123810837 0  -0.3002309592779931 -0.5259134429031774 0  -0.2547055586117481 -0.8117098207091056 0  -0.3423433274973657 -0.2612632635849301 0  -0.4613596619277771 -0.4948847843134365 0  -1.276648254496902 -0.5472584246720813 0  -1.277201143542821 0.4313240041144153 0  0.3514475546311179 -0.5745191951062846 0  0.2790437371364408 -0.3070465963684937 0  0.2075096962232617 -0.5642623278171146 0  -0.942332513761962 0.4093096334847639 0  -0.8080724010748717 0.2106673183266926 0  1.38920633632736 -0.370362479132872 0  1.250154971434525 -0.5301877710857 0  1.242526461129782 0.4266869967022708 0  1.382781928298637 0.2698220200782107 0  -0.7701832810435142 -0.8954450807035608 0  -0.9559853327576067 -0.7714936418517873 0  -0.9579488129571343 0.6533217794764354 0  -0.7725415620953051 0.7688005994058588 0  0.7847275328567007 -0.8786903226929348 0  0.5876940748574935 -0.9797832314410893 0  0.5815811661745249 0.8559682404024771 0  0.7775990509474373 0.761898090457429 0  0.009820905951750423 -
[...]
<PointData  Vectors="f_45"> 
<DataArray  type="Float64"  Name="f_45"  NumberOfComponents="3" format="ascii">2.2387946404053694e-01 5.0875304569939503e-03 0.0000000000000000e+00  2.1726746693919258e-01 5.3397182528919444e-02 0.0000000000000000e+00  2.1054588123349866e-01 7.6458713265322761e-02 0.0000000000000000e+00  2.0184997413464606e-01 9.5559549255018431e-02 0.0000000000000000e+00  1.8912240072859848e-01 1.2033611577377927e-01 0.0000000000000000e+00  1.7150146640565103e-01 1.4290216470396261e-01 0.0000000000000000e+00  1.5728255752830070e-01 1.5998259242432908e-01 0.0000000000000000e+00  1.3051366326661967e-01 1.8120580314474755e-01 0.0000000000000000e+00  8.1958174221376828e-02 2.0909840806786989e-01 0.0000000000000000e+00  9.8857097405762762e-02 1.9988966513743656e-01 0.0000000000000000e+00  9.1643170745841926e-02 2.0251595882376430e-01 0.0000000000000000e+00  5.2581913662713774e-02 2.1861679883607454e-01 0.0000000000000000e+00  4.3376220222276142e-02 2.1893984534591035e-01 0.0000000000000000e+00  1.9625817211368780e-02 2.2290951790500776e-01 0.0000000000000000e+00  1.1709466729905671e-02 2.2355675151770252e-01 0.0000000000000000e+00  -1.1477249652776966e-02 2.2300749627675376e-01 0.0000000000000000e+00  -4.7607422229535609e-02 2.1939941309784197e-01 0.0000000000000000e+00  -2.2371791317184229e-02 2.2161695945569621e-01 0.0000000000000000e+00  -1.7917351315528941e-02 2.2259819789502380e-01 0.0000000000000000e+00  -4.3032241727432433e-02 2.1984414291940232e-01 0.0000000000000000e+00  -4.5962215951483490e-02 2.1866959600655989e-01 0.0000000000000000e+00  -5.9476260548833697e-02 2.1565732341336541e-01 0.0000000000000000e+00  -6.5632356719358867e-02 2.1373408177522119e-01 0.0000000000000000e+00  -7.6590889114812336e-02 2.1024462033455055e-01 0.0000000000000000e+00  -9.8552082468880878e-02 2.0061418172193637e-01 0.0000000000000000e+00  -1.0606539433316974e-01 1.9692029069414529e-01 0.0000000000000000e+00  -1.0637857505818524e-01 1.9664342184263886e-01 0.0000000000000000e+00  -1.1666244245585182e-01 1.9082430492499142e-01 0.0000000000000000e+00  -1.2505454235436950e-01 1.8538563970173194e-01 0.0000000000000000e+00  -1.3506702398046971e-01 1.7822770272149877e-01 0.0000000000000000e+00  -1.4438411365842080e-01 1.7081260092471889e-01 0.0000000000000000e+00  -1.5514387342734287e-01 1.6108002380119221e-01 0.0000000000000000e+00  -1.6730751548332146e-01 1.4837909391113407e-01 0.0000000000000000e+00  -1.7506595676835254e-01 1.3924109643204083e-01 0.0000000000000000e+00  -1.8286646422422015e-01 1.2865765438222387e-01 0.0000000000000000e+00  -1.9207495378249501e-01 1.1465092137235479e-01 0.0000000000000000e+00  -1.9940533172624006e-01 1.0125884953261108e-01 0.0000000000000000e+00  -2.0635569879760307e-01 8.6226258309631709e-02 0.0000000000000000e+00  -2.1190560692340898e-01 7.1622031754220022e-02 0.0000000000000000e+00  -2.1675378112861049e-01 5.5061257907492681e-02 0.0000000000000000e+00  -2.2050379793038785e-01 3.7446585159702901e-02 0.0000000000000000e+00  -2.2248016909954024e-01 2.3051015660530510e-02 0.0000000000000000e+00  -2.2350735996045246e-01 7.2985658892069216e-03 0.0000000000000000e+00  -2.2346931387210678e-01 -9.9156048149041925e-03 0.0000000000000000e+00  -2.2201686597456183e-01 -2.6840361429527719e-02 0.0000000000000000e+00  -2.1936439891353349e-01 -4.3845599320049194e-02 0.0000000000000000e+00  -2.1491089008444550e-01 -6.1777435897189995e-02 0.0000000000000000e+00  -2.0983488749967222e-01 -7.7526423954305063e-02 0.0000000000000000e+00  -2.0376435757009623e-01 -9.2217609240508758e-02 0.0000000000000000e+00  -1.9426207455958525e-01 -1.1084031581171283e-01 0.0000000000000000e+00  -1.8396082582339057e-01 -1.2726356987351314e-01 0.0000000000000000e+00  -1.7380958935520949e-01 -1.4077078372807617e-01 0.0000000000000000e+00  -1.6208387161505611e-01 -1.5405456149905897e-01 0.0000000000000000e+00  -1.5180036690057874e-01 -1.6437301391348669e-01 0.0000000000000000e+00  -1.3802861425747615e-01 -1.7581219041103277e-01 0.0000000000000000e+00  -1.3157832855235285e-01 -1.8088934331447465e-01 0.0000000000000000e+00  -1.2628237900728789e-01 -1.8454698220085897e-01 0.0000000000000000e+00  -1.0773862472328996e-01 -1.9598797691527189e-01 0.0000000000000000e+00  -9.4598108902093844e-02 -2.0266226514820709e-01 0.0000000000000000e+00  -8.7264468150732799e-02 -2.0593925537623925e-01 0.0000000000000000e+00  -7.4768076761326546e-02 -2.1063365301073522e-01 0.0000000000000000e+00  -7.0387814102325683e-02 -2.1253126825217564e-01 0.0000000000000000e+00  -5.1407791713949623e-02 -2.1732047415568242e-01 0.0000000000000000e+00  -4.8749616933968287e-02 -2.1806475808912981e-01 0.0000000000000000e+00  -7.0381200127792656e-02 -2.1264696224808127e-01 0.0000000000000000e+00  -5.4783795326424217e-02 -2.1652270963794437e-01 0.0000000000000000e+00  -4.3474486939782418e-02 -2.1948413705837580e-01 0.0000000000000000e+00  -4.0452885236589055e-02 -2.1990428253860375e-01 0.0000000000000000e+00  -4.3393127698426959e-02 -2.1918931353168788e-01 0.0000000000000000e+00  -3.0055879984154793e-02 -2.2254148750888428e-01 0.0000000000000000e+00  -5.4695698692101571e-02 -2.1386053797481935e-01 0.0000000000000000e+00  -6.9496687696638290e-02 -2.1755198878295887e-01 0.0000000000000000e+00  4.5764249362422890e-02 -2.1546346036445910e-01 0.0000000000000000e+00  8.1612462335387548e-02 -2.0992062694052688e-01 0.0000000000000000e+00  7.8915771671803955e-02 -2.0717925242464671e-01 0.0000000000000000e+00  1.1378816217168551e-01 -1.9568611470013042e-01 0.0000000000000000e+00  1.4566284135567528e-01 -1.6503762167670544e-01 0.0000000000000000e+00  1.6594909337151531e-01 -1.5812961573774612e-01 0.0000000000000000e+00  1.9860359785102663e-01 -8.7058628675741337e-02 0.0000000000000000e+00  2.0967467830860739e-01 -6.8717061292967910e-02 0.0000000000000000e+00  1.8759405602000379e-01 -1.3666513545674125e-01 0.0000000000000000e+00  2.1725524059417795e-01 -2.0967605191091705e-02 0.0000000000000000e+00  2.2360802217298636e-01 1.9316297430808740e-03 0.0000000000000000e+00  2.2214567596712759e-01 -1.4645193262068952e-02 0.0000000000000000e+00  2.2336861780436873e-01 -7.4363030867373031e-03 0.0000000000000000e+00  2.2251076927145264e-01 3.2122870474129090e-03 0.0000000000000000e+00  2.2300109507877186e-01 -1.5625331230306478e-02 0.0000000000000000e+00  2.1738961784465383e-01 8.2215344792938884e-03 0.0000000000000000e+00  1.9338432696185279e-01 1.3009222975390930e-01 0.0000000000000000e+00  2.1367038313654463e-01 5.5023912900690093e-02 0.0000000000000000e+00  2.0161782949399901e-01 7.6652573357375089e-02 0.0000000000000000e+00  1.7055782611948475e-01 1.5438197746421767e-01 0.0000000000000000e+00  1.4886159123318332e-01 1.6147282945541963e-01 0.0000000000000000e+00  1.1510958433432714e-01 1.9534425978503450e-01 0.0000000000000000e+00  7.6948321198518174e-02 2.0789379638044012e-01 0.0000000000000000e+00  7.7998823795358010e-02 2.1028463431120967e-01 0.0000000000000000e+00  5.3257079954201779e-02 2.1571956084935723e-01 0.0000000000000000e+00  -6.5755514328905224e-02 2.1733374417595155e-01 0.0000000000000000e+00  -5.6584532119537310e-02 2.1319674871753955e-01 0.0000000000000000e+00  -2.6681588632766862e-02 2.2314194100123891e-01 0.0000000000000000e+00  -4.1082598840736659e-02 2.1958078314351059e-01 0.0000000000000000e+00  -3.5762661780327824e-02 2.2074842357965549e-01 0.0000000000000000e+00  -3.7774635231305975e-02 2.2051953428603210e-01 0.0000000000000000e+00  -4.8006080741079551e-02 2.1809925360098362e-01 0.0000000000000000e+00  -6.0831760611143232e-02 2.1562822556688585e-01 0.0000000000000000e+00  -3.3314995394377836e-02 2.2097067794342101e-01 0.0000000000000000e+00  -3.7013363133417652e-02 2.2011007423238654e-01 0.0000000000000000e+00  -5.7822451022889437e-02 2.1635533245902999e-01 0.0000000000000000e+00  -6.0799058460812974e-02 2.1505536853500148e-01 0.0000000000000000e+00  -7.3217147796044976e-02 2.1135010803738472e-01 0.0000000000000000e+00  -8.0298757506260018e-02 2.0874964034638963e-01 0.0000000000000000e+00  -9.3641673490848482e-02 2.0302408159068389e-01 0.0000000000000000e+00  -1.0568049190788194e-01 1.9707827784039239e-01 0.0000000000000000e+00  -1.0636641338836482e-01 1.9686524478632855e-01 0.0000000000000000e+00  -1.2012718920286987e-01 1.8835873965496908e-01 0.0000000000000000e+00  -1.3905628361467426e-01 1.7545834380730196e-01 0.0000000000000000e+00  -1.5102298270025061e-01 1.6485389743503928e-01 0.0000000000000000e+00  -1.6588326057541966e-01 1.5007322325883837e-01 0.0000000000000000e+00  -1.7751283990877303e-01 1.3617580796696654e-01 0.0000000000000000e+00  -1.9026021011202796e-01 1.1758297942315069e-01 0.0000000000000000e+00  -2.0238409268159352e-01 9.5239140555095469e-02 0.0000000000000000e+00  -2.0857174238937695e-01 8.0946950232523324e-02 0.0000000000000000e+00  -2.1374943555058651e-01 6.5570756315071005e-02 0.0000000000000000e+00  -2.1905151259699979e-01 4.5568294253400643e-02 0.0000000000000000e+00  -2.2202529150981393e-01 2.6867118668664924e-02 0.0000000000000000e+00  -2.2358343710392614e-01 7.0156297652994356e-03 0.0000000000000000e+00  -2.2332354192538353e-01 -1.2617667262332335e-02 0.0000000000000000e+00  -2.2125257268677406e-01 -3.2832362091991980e-02 0.0000000000000000e+00  -2.1753624787263467e-01 -5.2023701246581996e-02 0.0000000000000000e+00  -2.1282596758177239e-01 -6.8803906877622709e-02 0.0000000000000000e+00  -2.0696481984127724e-01 -8.4753584128514844e-02 0.0000000000000000e+00  -2.0001684575850692e-01 -1.0013288999109327e-01 0.0000000000000000e+00  -1.9183194357791258e-01 -1.1490713980750168e-01 0.0000000000000000e+00  -1.8381216830818431e-01 -1.2754672545330675e-01 0.0000000000000000e+00  -1.7313544671641068e-01 -1.4140439543672470e-01 0.0000000000000000e+00  -1.6657744528198840e-01 -1.4930311645681965e-01 0.0000000000000000e+00  -1.6042109768553384e-01 -1.5579768342761255e-01 0.0000000000000000e+00  -1.4501046216719318e-01 -1.7025347475355623e-01 0.0000000000000000e+00  -1.3300082044857270e-01 -1.7984646664857537e-01 0.0000000000000000e+00  -1.2417646232735936e-01 -1.8595783895617096e-01 0.0000000000000000e+00  -1.1406113757072132e-01 -1.9235324161528225e-01 0.0000000000000000e+00  -1.0587825920422259e-01 -1.9699976722267781e-01 0.0000000000000000e+00  -9.6042663837266881e-02 -2.0190102455877074e-01 0.0000000000000000e+00  -9.6351964667480361e-02 -2.0184783576239074e-01 0.0000000000000000e+00  -8.8749623914864975e-02 -2.0513043576044282e-01 0.0000000000000000e+00  -6.7049963990687092e-02 -2.1348267555466865e-01 0.0000000000000000e+00  -5.6519514748940007e-02 -2.1631366733526011e-01 0.0000000000000000e+00  -5.0596825235132196e-02 -2.1791713196443729e-01 0.0000000000000000e+00  -3.7179776625366492e-02 -2.2032377153171723e-01 0.0000000000000000e+00  -3.4785150214267910e-02 -2.2131743821402483e-01 0.0000000000000000e+00  -9.2070342979922535e-03 -2.2309895549366285e-01 0.0000000000000000e+00  -1.3611538239902618e-02 -2.2228111137217357e-01 0.0000000000000000e+00  -4.1072433037712588e-02 -2.2079265250828262e-01 0.0000000000000000e+00  -5.3663630802747702e-03 -2.2319348478625287e-01 0.0000000000000000e+00  1.7823244854285616e-02 -2.2316482409202124e-01 0.0000000000000000e+00  2.5370066423271102e-02 -2.2233196095285773e-01 0.0000000000000000e+00  4.9156382369120073e-02 -2.1769731671625211e-01 0.0000000000000000e+00  5.7992191005883986e-02 -2.1730083515617057e-01 0.0000000000000000e+00  9.7376391002887530e-02 -1.9974677014398617e-01 0.0000000000000000e+00  1.0443959353352697e-01 -1.9697286639465755e-01 0.0000000000000000e+00  8.7318996915342242e-02 -2.0695571757156894e-01 0.0000000000000000e+00  1.3631243726319681e-01 -1.7690968855315706e-01 0.0000000000000000e+00  1.6281537225842344e-01 -1.5434688029259544e-01 0.0000000000000000e+00  1.7667494465439132e-01 -1.3653687059292921e-01 0.0000000000000000e+00  1.9445132396029594e-01 -1.1136593710575438e-01 0.0000000000000000e+00  2.0611966745594737e-01 -8.6382709936246832e-02 0.0000000000000000e+00  2.1474123703914977e-01 -6.3298086601044926e-02 0.0000000000000000e+00  2.2046120495007068e-01 -3.8803319163348129e-02 0.0000000000000000e+00  -2.1976867179204135e-01 -4.2047198488434558e-02 0.0000000000000000e+00  -2.6370204230054706e-02 -2.2232765085510170e-01 0.0000000000000000e+00  3.0860406246318410e-02 2.2170729214180029e-01 0.0000000000000000e+00  -2.2205933518364815e-01 2.7563194750095492e-02 0.0000000000000000e+00  -3.4404529408578965e-02 2.2122501397507399e-01 0.0000000000000000e+00  1.8201241398187254e-01 1.3034818875188187e-01 0.0000000000000000e+00  2.8397398629414265e-02 -2.2205178309299298e-01 0.0000000000000000e+00  2.2395855877262416e-01 -3.7425371788427273e-03 0.0000000000000000e+00  1.8734992219029498e-01 -1.2255815739765687e-01 0.0000000000000000e+00  1.2585446737617739e-01 1.8512057275965654e-01 0.0000000000000000e+00  2.2410480271524649e-01 2.8351355674844621e-03 0.0000000000000000e+00  1.7257973600117035e-01 1.4344845647427601e-01 0.0000000000000000e+00  1.2729331513082129e-01 -1.8414293692895164e-01 0.0000000000000000e+00  -1.6721378911094836e-01 -1.4872215506569561e-01 0.0000000000000000e+00  -4.8925182554019425e-02 -2.2060778745641210e-01 0.0000000000000000e+00  -1.8054440859042123e-01 1.3220875486247516e-01 0.0000000000000000e+00  9.9162807586645446e-02 2.0157327845568684e-01 0.0000000000000000e+00  2.2439383485473338e-01 6.2040219092394057e-03 0.0000000000000000e+00  -1.2306649213394924e-01 1.8693237684442224e-01 0.0000000000000000e+00  -1.1812486636231907e-01 -1.9008244129245128e-01 0.0000000000000000e+00  -1.5414451487231150e-02 -2.2430716813999549e-01 0.0000000000000000e+00  1.1144500393060998e-01 -1.9416518884200892e-01 0.0000000000000000e+00  1.0274079115196476e-01 1.9890507083198269e-01 0.0000000000000000e+00  1.1264803232416387e-01 -1.9399386562443680e-01 0.0000000000000000e+00  -2.0715275880144604e-01 8.7226263924808228e-02 0.0000000000000000e+00  1.4517796367768829e-01 -1.7072380436452755e-01 0.0000000000000000e+00  -6.5048633959108537e-02 2.1611713922045478e-01 0.0000000000000000e+00  2.2380916748664664e-01 5.2805235087299953e-03 0.0000000000000000e+00  2.2379320639479428e-01 5.1170399444473644e-03 0.0000000000000000e+00  5.1685021117197971e-02 -2.1788671605927695e-01 0.0000000000000000e+00  1.8560026412840244e-01 -1.2558259169335331e-01 0.0000000000000000e+00  1.3298243980861754e-01 -1.8060161782992321e-01 0.0000000000000000e+00  2.0316008111266234e-01 -9.5381207582766969e-02 0.0000000000000000e+00  2.8976117649917508e-02 -2.2224767868311224e-01 0.0000000000000000e+00  1.9303111385673039e-01 -1.1342286132693252e-01 0.0000000000000000e+00  2.2395669322034817e-01 5.7337494624509757e-03 0.0000000000000000e+00  1.9333847145651531e-01 -1.1304559192025804e-01 0.0000000000000000e+00  1.9833923680350637e-01 -1.0400428225571655e-01 0.0000000000000000e+00  2.2389014034109328e-01 -1.0252831548173622e-03 0.0000000000000000e+00  1.9177411931818997e-01 1.1567239440902638e-01 0.0000000000000000e+00  1.9964748995955173e-01 1.0150238762007908e-01 0.0000000000000000e+00  1.7446833083752503e-01 1.4060216086812949e-01 0.0000000000000000e+00  2.1909642370878624e-01 4.5836428256133474e-02 0.0000000000000000e+00  2.1703167820463570e-01 -5.4775991916290949e-02 0.0000000000000000e+00  1.7028448361931475e-01 -1.4560491898116512e-01 0.0000000000000000e+00  -2.0643618730716057e-01 8.6863658131824395e-02 0.0000000000000000e+00  -1.0987269935231123e-01 1.9528587303726863e-01 0.0000000000000000e+00  -1.8950514696077447e-01 1.1901265442558220e-01 0.0000000000000000e+00  1.0703001395804729e-01 1.9807325869390979e-01 0.0000000000000000e+00  -4.6087056043560993e-03 2.2401893257986452e-01 0.0000000000000000e+00  8.1444002113731193e-02 2.0867783833813958e-01 0.0000000000000000e+00  8.0173373152063285e-02 -2.0916845788210717e-01 0.0000000000000000e+00  -6.9589055381302209e-02 -2.1292585788545915e-01 0.0000000000000000e+00  6.0796263709751192e-02 -2.1660958378400016e-01 0.0000000000000000e+00  -1.4131857248450799e-01 -1.7390609572025209e-01 0.0000000000000000e+00  8.5432234411704888e-02 -2.0693052271489107e-01 0.0000000000000000e+00  1.5990082403170389e-01 -1.5699246513284515e-01 0.0000000000000000e+00  1.5635600837547414e-01 -1.6021215025899577e-01 0.0000000000000000e+00  9.4727609763631357e-02 -2.0281865955508641e-01 0.0000000000000000e+00  8.7040618958812516e-02 2.0622806724604725e-01 0.0000000000000000e+00  1.5016586974886825e-01 1.6601648084549581e-01 0.0000000000000000e+00  -6.1636618042976189e-02 2.1504028954793564e-01 0.0000000000000000e+00  -4.0541445994755525e-03 2.2367521023139444e-01 0.0000000000000000e+00  -1.2615017419073225e-02 -2.2337357640562833e-01 0.0000000000000000e+00  -6.9506785958008604e-02 -2.1264295623400584e-01 0.0000000000000000e+00  -5.5806732019066919e-02 -2.1666757609129325e-01 0.0000000000000000e+00  -1.1530649059039440e-01 -1.9170476469145553e-01 0.0000000000000000e+00  -1.2357847760592436e-01 1.8648759166155043e-01 0.0000000000000000e+00  -6.5324206831514423e-02 2.1399480809524404e-01 0.0000000000000000e+00  -2.2317142724477151e-01 -1.5576825555650809e-02 0.0000000000000000e+00  -2.1292224139874499e-01 6.8646843814767447e-02 0.0000000000000000e+00  -2.1173283097423043e-01 -7.2209719681745860e-02 0.0000000000000000e+00  -2.2360216168844174e-01 6.5928066927553900e-03 0.0000000000000000e+00  -9.9229981637613665e-02 -2.0061339842676842e-01 0.0000000000000000e+00  2.0111241979308797e-01 9.9920357777928778e-02 0.0000000000000000e+00  1.2504516606643523e-01 1.8616756427455775e-01 0.0000000000000000e+00  1.4839724971679812e-02 2.2367625851101477e-01 0.0000000000000000e+00  8.9324487166055053e-02 2.0550834271438018e-01 0.0000000000000000e+00  2.1525365366345320e-01 6.2648521551943559e-02 0.0000000000000000e+00  1.5941228170304397e-01 1.5745986723643143e-01 0.0000000000000000e+00  -3.2692318000858395e-02 2.2260320398489325e-01 0.0000000000000000e+00  2.2734842039774397e-01 1.1081178257422722e-01 0.0000000000000000e+00  2.2647429873278116e-01 9.8674600256782458e-03 0.0000000000000000e+00  2.7959571753862381e-02 2.2200287344456748e-01 0.0000000000000000e+00  2.3571650335226922e-02 -2.2253083252044889e-01 0.0000000000000000e+00  8.6563532588657385e-02 2.0643419326126988e-01 0.0000000000000000e+00  1.7916637155571000e-01 1.3458532645768154e-01 0.0000000000000000e+00  4.2642498081314296e-02 2.1983152571512968e-01 0.0000000000000000e+00  1.8762869318219261e-01 1.2214698288832117e-01 0.0000000000000000e+00  -9.6230891204053759e-02 2.0230238191944175e-01 0.0000000000000000e+00  -1.1092329155950358e-01 1.9439892104723575e-01 0.0000000000000000e+00  -2.1660857083573176e-01 -5.7211228079331940e-02 0.0000000000000000e+00  -2.1271062440271993e-01 -6.9519987150257326e-02 0.0000000000000000e+00  -8.7824084011011022e-02 -2.0606658673857961e-01 0.0000000000000000e+00  -1.8374608926813796e-01 -1.2807157379098200e-01 0.0000000000000000e+00  -1.8277078004341665e-01 -1.2913721250629312e-01 0.0000000000000000e+00  2.2454776158276368e-01 -1.3056404870720833e-02 0.0000000000000000e+00  -2.2418698328509482e-01 -2.3452077760231158e-02 0.0000000000000000e+00  -1.6353735267728095e-01 -1.5263891843568506e-01 0.0000000000000000e+00  -2.0565455732373672e-01 -8.8041370350404227e-02 0.0000000000000000e+00  -2.1075265708233215e-01 7.4998028259392072e-02 0.0000000000000000e+00  -1.7331871033096583e-01 1.4144150267966216e-01 0.0000000000000000e+00  -2.4297471095814097e-01 -7.9156999990063495e-02 0.0000000000000000e+00  -1.8717418134546779e-01 1.2294584217472511e-01 0.0000000000000000e+00  -2.1810704345289353e-01 4.9928488567500123e-02 0.0000000000000000e+00  -1.7796392514473852e-01 1.3556443214050093e-01 0.0000000000000000e+00  -1.1834743654455623e-01 1.8983677292083675e-01 0.0000000000000000e+00  -4.0876258653839093e-02 2.2005751193575088e-01 0.0000000000000000e+00  -1.2303716319969096e-01 -1.8683447950619139e-01 0.0000000000000000e+00  -1.7755642481961750e-01 -1.3608885463572906e-01 0.0000000000000000e+00  -4.1580645621415002e-02 -2.1992039767091470e-01 0.0000000000000000e+00  2.0904772298765953e-01 -8.0807873891933446e-02 0.000000000