<?xml version="1.0"?>
<VTKFile type="UnstructuredGrid"  version="0.1"  >
<UnstructuredGrid>
<Piece  NumberOfPoints="2549" NumberOfCells="4928">
<Points>
<DataArray  type="Float64"  NumberOfComponents="3"  format="ascii">1.638395186688465 -0.03760572581778322 0  1.635320066911354 0.009953603306742208 0  1.628591858549798 0.05701194042686787 0  1.620279694223028 0.1041945715429785 0  1.608960289641512 0.1510444260643751 0  1.595390489745196 0.1977544345668192 0  1.578454004081369 0.2437788236278848 0  1.560034975710619 0.2896428785710868 0  1.535951089933816 0.3329039176126501 0  1.510626329169422 0.3745790383476881 0  1.487315720054348 0.420863487010813 0  1.458661359766692 0.4628053720963587 0  1.429497704488622 0.5051630399985524 0  1.398333757061342 0.5462131152836422 0  1.365609716221137 0.5865436617971004 0  1.331378794786258 0.625859987644229 0  1.295269748212315 0.6634869402039012 0  1.259083060998683 0.6997906035443875 0  1.222823575285846 0.7407039962391416 0  1.184409446280292 0.7781968200247146 0  1.145430691677376 0.8165474450524739 0  1.105150541332521 0.8538995479072927 0  1.064039793292973 0.8912808362826242 0  1.02138415529538 0.9276362159326648 0  0.9772307297603126 0.9626833883298974 0  0.9324510624519866 0.9962197161967898 0  0.8863677818537722 1.029313364111791 0  0.8392266508977673 1.061519581616407 0  0.7910860891182657 1.092955494533121 0  0.7417965011571549 1.123140509901857 0  0.6914474341129569 1.152097822960188 0  0.6400485796954631 1.179632581929702 0  0.587408256388576 1.205116321547272 0  0.5339124894014903 1.228726312145492 0  0.4794876156210939 1.250841215815237 0  0.4240843978249797 1.270607127217726 0  0.3678914229204759 1.288270792805089 0  0.3109296655187118 1.303514606478691 0  0.2533140802682905 1.31631338375744 0  0.1951668076853341 1.326582732146948 0  0.1365155905370923 1.333932984133169 0  0.07765957737460082 1.338586891122735 0  0.01860785394206569 1.340751844906716 0  -0.04047425369159981 1.34004100202842 0  -0.09947082198365106 1.33656138864346 0  -0.1582240422700138 1.330224096412337 0  -0.2166099628651436 1.321152445709052 0  -0.2744661576353207 1.309169754566333 0  -0.3316866316635476 1.294813507205047 0  -0.388274876669592 1.277789957326179 0  -0.443844350100692 1.257898811551381 0  -0.4984627923895664 1.23565317382712 0  -0.5520888065240569 1.211365394026348 0  -0.6044936480753516 1.184845866479052 0  -0.6559901515163785 1.157019204814221 0  -0.706014552307566 1.126836795485157 0  -0.7549266093757828 1.096378090230013 0  -0.8030322101634896 1.064319400351039 0  -0.8493855895689004 1.030201985002305 0  -0.8944503962555905 0.9950867541428488 0  -0.9384787656764074 0.9595557861232763 0  -0.9810172824863775 0.9228408960108189 0  -1.023053461601088 0.8868562862856904 0  -1.062253323131976 0.8469376728577819 0  -1.101478741851652 0.8113193566116997 0  -1.140194351395021 0.7755601678376753 0  -1.177570726185062 0.7386144720056316 0  -1.214269153127498 0.7022039617041336 0  -1.249705211545083 0.6649361232877125 0  -1.284776791719509 0.6294210730901765 0  -1.319609427935447 0.5927104517009537 0  -1.354188684088743 0.5592835898381856 0  -1.389212621461242 0.5223487152545933 0  -1.412985798318172 0.4755868192675583 0  -1.445925818122448 0.4341666835880825 0  -1.471574529798213 0.3893621214224204 0  -1.494809412596094 0.3430856458688223 0  -1.511401476039157 0.2939883815657687 0  -1.52989253963511 0.2468965319634149 0  -1.5304397113843 0.1925259242231512 0  -1.545245463188476 0.148316110768733 0  -1.557076910105687 0.1016425718900335 0  -1.549764369820885 0.05373538904012656 0  -1.554337712599069 0.007535340405049715 0  -1.553456823482909 -0.03839565108080505 0  -1.555506318330594 -0.08431184565373995 0  -1.552748804897346 -0.1307398882903817 0  -1.558016856620234 -0.1791121134146573 0  -1.548375608942004 -0.2262182581081924 0  -1.53540584523243 -0.2711533473556095 0  -1.534915202644481 -0.3264167437636107 0  -1.51750335490901 -0.3742127344066326 0  -1.501270945085976 -0.4240126507709182 0  -1.478141170120679 -0.4705274463256384 0  -1.452496435192952 -0.5155604981477646 0  -1.420482904164521 -0.5572438069492284 0  -1.396058203958876 -0.6038873291009059 0  -1.360606736349686 -0.6408495185826459 0  -1.326139066520761 -0.6747563366577487 0  -1.291095353271856 -0.7113796404737244 0  -1.255977598630313 -0.7469754974954018 0  -1.220680568910053 -0.7845774801543304 0  -1.184188458675341 -0.8214717878054915 0  -1.147048119870375 -0.8590339613242455 0  -1.108636473248172 -0.8955211933747294 0  -1.069516412036711 -0.9320047288276122 0  -1.031159051934171 -0.9742489097398753 0  -0.9890699923228317 -1.011436920744596 0  -0.946619793623705 -1.049608561777204 0  -0.9026656500748991 -1.086746623505727 0  -0.857617183316746 -1.123477673102252 0  -0.8111384301724324 -1.159171362123476 0  -0.7632115036301877 -1.193343757581848 0  -0.7139000947544832 -1.226322813567885 0  -0.6641673026390071 -1.260447108321734 0  -0.6118983381755143 -1.290332965351839 0  -0.5590305328891667 -1.319093820853248 0  -0.504746843871574 -1.345360259649653 0  -0.4494314274871974 -1.36943531449138 0  -0.393181047054637 -1.391145482687996 0  -0.3355908851784568 -1.409278838241131 0  -0.2774532309387322 -1.424488921503777 0  -0.2186430825159393 -1.437465220862433 0  -0.1592107472842567 -1.447207235219847 0  -0.09936663515115213 -1.454042219981259 0  -0.03922841853077581 -1.457717725275744 0  0.02102872757130339 -1.458286386792861 0  0.08124655816597907 -1.455648694853861 0  0.1412557768180494 -1.449817468679212 0  0.200833208973807 -1.441007141003919 0  0.2599107216508207 -1.429511846872284 0  0.3183506128707314 -1.415290341521545 0  0.3760752573622455 -1.398563364977186 0  0.4329213754247632 -1.379288105199538 0  0.48893467045737 -1.35803032453761 0  0.5438319462443817 -1.334178939972432 0  0.5977305376158654 -1.309355393526259 0  0.650898615771196 -1.282524280165024 0  0.7025089288582639 -1.253150146003063 0  0.7530835399636028 -1.222534307402287 0  0.8024940283794472 -1.190708468094436 0  0.8507126406757873 -1.157717816831883 0  0.8978578441546377 -1.123999110621622 0  0.9438932230250833 -1.089500445982469 0  0.9885910674970516 -1.054678752572937 0  1.032639370156733 -1.018350446034814 0  1.075131477432035 -0.9807220393730971 0  1.116064239859283 -0.9421884642821731 0  1.156104307656285 -0.9036787439243443 0  1.194802594983375 -0.864204573178018 0  1.23296386362626 -0.8257227637770809 0  1.268778657281844 -0.7836152604888886 0  1.30462351678255 -0.7465382838088361 0  1.340551223953881 -0.7083542923351445 0  1.374406904816411 -0.6682557298450712 0  1.406823092278993 -0.6273103960434945 0  1.437665572951026 -0.5856482787572254 0  1.466484070420574 -0.5426780660873159 0  1.494708429987074 -0.500127790106241 0  1.517659294905275 -0.4532635369789838 0  1.542614491634094 -0.411158072825887 0  1.566215422169878 -0.3673877950701461 0  1.584072686577412 -0.3209905871420964 0  1.600322146001089 -0.2744807931059369 0  1.613164869724802 -0.2273151745393087 0  1.623523337309725 -0.1800231521276542 0  1.630899260448847 -0.1325358509410021 0  1.636411209749765 -0.08522129634308849 0  -0.08076929982340128 0.8002875764991654 0  0.6187984118106816 -0.7191960640446925 0  -0.7273286058461184 -0.6295169256907309 0  -0.05688125034989435 -0.8905130130747363 0  0.6145056049425737 0.6235769695935426 0  1.166784070334169 0.204047922618442 0  -0.7399079503701304 0.5297961712848887 0  -1.21005962792191 -0.04314998537654118 0  1.171007423568023 -0.2864104110605231 0  -1.01568141235134 -0.4548896939368535 0  -0.7765339513488301 -0.05798344053003962 0  -0.4558044551689079 -0.2323171124128843 0  -1.026240655236607 0.3496487398870061 0  0.2990939679357084 -0.8676567662647525 0  0.1542324917899033 -0.2931585716166126 0  0.2625683311801249 0.7619109428374519 0  0.3546966547472315 0.2036677465694227 0  0.6694639437945833 -0.04231387887288327 0  -0.3919072774179658 -0.7828286006032984 0  -0.4286860824684139 0.7053426343917027 0  -0.255934516384584 0.2597054026287518 0  0.9245169243509497 -0.4925250487834393 0  0.9203312557646091 0.4062943663436491 0  0.4224623775935279 -0.3240966620767102 0  0.04760237903342993 0.2551321898503826 0  -0.5191477169867011 0.1986567255513436 0  -0.1536577251315824 -0.2855126435141622 0  0.9529296043008681 -0.04191867979539152 0  1.360202775725415 -0.03956080262893714 0  0.7719893330917993 -0.6029712877511181 0  0.7882442036656649 -0.2768873527000649 0  0.6347142382541103 -0.3776356823557696 0  0.5446175985262325 -0.1793117373942309 0  0.5147516763264981 -0.5268604047352142 0  0.9316062325975379 -0.2656348707035214 0  0.8105205955942939 -0.04209378825539039 0  -0.8929600664727587 0.1551346248750084 0  -1.113688921136602 0.1492087892012084 0  -0.9953734506154116 -0.04966039547056036 0  -0.8875725133159169 -0.2651127736379282 0  -1.108932175238519 -0.2441046703406083 0  -1.283729654866596 -0.3364875005968487 0  -1.371405417002277 -0.1527160394131556 0  -1.369381434195134 0.0704363130221833 0  -1.279309702039585 0.2529139397356322 0  -0.1058604128952264 -0.5876467418681645 0  -0.2660710238793286 -0.540112199585874 0  -0.2257223518783909 -0.8420450087191238 0  -0.3041914785468788 -0.2600055542639158 0  -0.4201284100383236 -0.5051935450802384 0  -1.202465030846933 -0.5337042923309315 0  -1.203961318707709 0.4418979722399487 0  0.3596104013995522 -0.5934115537212862 0  0.287556380915626 -0.3102427759166339 0  0.2211246748542292 -0.5834098486127881 0  -0.8825055531343786 0.4355327181252056 0  -0.7487302939127237 0.2337817817745695 0  1.3545156661154 -0.3593875245624484 0  1.226050822923924 -0.5243647967419885 0  1.219283502195586 0.4418100541267463 0  1.349047471041777 0.2793150912200376 0  -0.7328689735808321 -0.9129293267604116 0  -0.9074570533146414 -0.7778132314608736 0  -0.9104469897224098 0.6856046877213312 0  -0.7363935235496568 0.8140815123739634 0  0.7904360109164238 -0.9016678838007498 0  0.6010810215031542 -1.014607282469592 0  0.5942731796306941 0.9152185186887929 0  0.7830530399693293 0.807919006634885 0  0.031538499
[...]
<PointData  Vectors="f_44"> 
<DataArray  type="Float64"  Name="f_44"  NumberOfComponents="3" format="ascii">2.2378767877849506e-01 4.8558939908754390e-03 0.0000000000000000e+00  2.1813861559843953e-01 4.9961938746606767e-02 0.0000000000000000e+00  2.1284964021991284e-01 6.9616306223133098e-02 0.0000000000000000e+00  2.0484064450782496e-01 8.8804018562442549e-02 0.0000000000000000e+00  1.9499641926764122e-01 1.1079264340632354e-01 0.0000000000000000e+00  1.7837923356671648e-01 1.3376570002821028e-01 0.0000000000000000e+00  1.6857822015659507e-01 1.4855344185591557e-01 0.0000000000000000e+00  1.4264189235889227e-01 1.7078958743235931e-01 0.0000000000000000e+00  9.8678084707683855e-02 2.0249679987799482e-01 0.0000000000000000e+00  1.2524674117005349e-01 1.8473847295839585e-01 0.0000000000000000e+00  1.1107612410092678e-01 1.9156545943911249e-01 0.0000000000000000e+00  7.4748060635191682e-02 2.1231941776886035e-01 0.0000000000000000e+00  7.3374013807732369e-02 2.1063211806921051e-01 0.0000000000000000e+00  5.1364681527870909e-02 2.1797043188829948e-01 0.0000000000000000e+00  3.9621965662578133e-02 2.2005926080034321e-01 0.0000000000000000e+00  2.0639897432438516e-02 2.2266666423402934e-01 0.0000000000000000e+00  -2.2531394059621011e-03 2.2396308054725786e-01 0.0000000000000000e+00  1.8344137196825136e-02 2.2254407188547851e-01 0.0000000000000000e+00  1.3668927496253916e-02 2.2252633730005794e-01 0.0000000000000000e+00  -8.0424437829350898e-03 2.2390208794425268e-01 0.0000000000000000e+00  -8.4232858593379784e-03 2.2321460448149502e-01 0.0000000000000000e+00  -1.9756219135590846e-02 2.2288407387487294e-01 0.0000000000000000e+00  -2.6655929859495588e-02 2.2196278149347692e-01 0.0000000000000000e+00  -4.3609509197654377e-02 2.1939840249774978e-01 0.0000000000000000e+00  -5.7500212479048352e-02 2.1609385949020005e-01 0.0000000000000000e+00  -6.7307746601421456e-02 2.1328186972208402e-01 0.0000000000000000e+00  -7.6375756402687997e-02 2.1014703154514974e-01 0.0000000000000000e+00  -8.5449383893593078e-02 2.0668908333607697e-01 0.0000000000000000e+00  -9.5486104315945203e-02 2.0219727748660590e-01 0.0000000000000000e+00  -1.0728389635840631e-01 1.9622861400221989e-01 0.0000000000000000e+00  -1.1764076177226866e-01 1.9022927748330931e-01 0.0000000000000000e+00  -1.3116702238316580e-01 1.8112786090014316e-01 0.0000000000000000e+00  -1.4545456560257372e-01 1.6988490523697952e-01 0.0000000000000000e+00  -1.5519736249686186e-01 1.6110871018892817e-01 0.0000000000000000e+00  -1.6656129119824650e-01 1.4915891312645616e-01 0.0000000000000000e+00  -1.7859669479850468e-01 1.3475421697167939e-01 0.0000000000000000e+00  -1.8856876747435264e-01 1.2022879075322457e-01 0.0000000000000000e+00  -1.9846554429748395e-01 1.0317607822987991e-01 0.0000000000000000e+00  -2.0645805526029745e-01 8.6124821244775246e-02 0.0000000000000000e+00  -2.1367155217448242e-01 6.6117871362072075e-02 0.0000000000000000e+00  -2.1917390715340973e-01 4.4707229972332591e-02 0.0000000000000000e+00  -2.2218954693872744e-01 2.6029619319087559e-02 0.0000000000000000e+00  -2.2357225998411437e-01 5.7159597307279014e-03 0.0000000000000000e+00  -2.2316711023219699e-01 -1.5910805321294259e-02 0.0000000000000000e+00  -2.2055485319397922e-01 -3.7069985295003702e-02 0.0000000000000000e+00  -2.1617385555244650e-01 -5.7712824453778150e-02 0.0000000000000000e+00  -2.0933598526549782e-01 -7.8668768133137584e-02 0.0000000000000000e+00  -2.0131509370299724e-01 -9.7594319035630470e-02 0.0000000000000000e+00  -1.9241539512045971e-01 -1.1405810443459624e-01 0.0000000000000000e+00  -1.7986173360038035e-01 -1.3297673252819847e-01 0.0000000000000000e+00  -1.6606664511293373e-01 -1.4983366224939149e-01 0.0000000000000000e+00  -1.5424536550317619e-01 -1.6207032188101356e-01 0.0000000000000000e+00  -1.3934475733593299e-01 -1.7478004684655360e-01 0.0000000000000000e+00  -1.2814449000356976e-01 -1.8352544763951512e-01 0.0000000000000000e+00  -1.1298324964401663e-01 -1.9275877500831032e-01 0.0000000000000000e+00  -1.0031921842011896e-01 -1.9999887436730945e-01 0.0000000000000000e+00  -9.4418662993363420e-02 -2.0272128682167187e-01 0.0000000000000000e+00  -7.6129923408779318e-02 -2.1027709830549329e-01 0.0000000000000000e+00  -5.8721808832377924e-02 -2.1578565352152287e-01 0.0000000000000000e+00  -5.2378896648166098e-02 -2.1754658110298924e-01 0.0000000000000000e+00  -3.7406232653246024e-02 -2.2018684636093469e-01 0.0000000000000000e+00  -3.7830127462154362e-02 -2.2099414499998313e-01 0.0000000000000000e+00  -1.2536676660161001e-02 -2.2227123350595243e-01 0.0000000000000000e+00  -2.8321571190625182e-03 -2.2345781669879139e-01 0.0000000000000000e+00  -2.6758538372732708e-02 -2.2240364875593355e-01 0.0000000000000000e+00  -7.8630893005551365e-03 -2.2334543063535311e-01 0.0000000000000000e+00  -2.7687853163549888e-03 -2.2369838397221523e-01 0.0000000000000000e+00  5.9738623631829810e-03 -2.2343651281297969e-01 0.0000000000000000e+00  7.2950089043315224e-03 -2.2332562187506233e-01 0.0000000000000000e+00  7.4566142510769070e-03 -2.2399411949656972e-01 0.0000000000000000e+00  6.6892504112501805e-03 -2.2136940055855395e-01 0.0000000000000000e+00  -2.0998614748577511e-02 -2.3102533168251346e-01 0.0000000000000000e+00  8.9487025497031025e-02 -1.9555525006441507e-01 0.0000000000000000e+00  9.7565670848931987e-02 -1.9720286036138202e-01 0.0000000000000000e+00  6.5597677192487866e-02 -2.1164085823911705e-01 0.0000000000000000e+00  1.2880596645230280e-01 -1.8912501123751352e-01 0.0000000000000000e+00  1.5950102550525275e-01 -1.4835551063076668e-01 0.0000000000000000e+00  1.6723050607505754e-01 -1.6233146972580106e-01 0.0000000000000000e+00  1.9743594404536899e-01 -6.4066961596223271e-02 0.0000000000000000e+00  2.1021047533695467e-01 -3.9793699741267410e-02 0.0000000000000000e+00  1.7670986147660125e-01 -1.7262400032741404e-01 0.0000000000000000e+00  2.0917614919536942e-01 7.3273718408142716e-03 0.0000000000000000e+00  2.1670602668624739e-01 2.4918109954957968e-02 0.0000000000000000e+00  2.2197279303654915e-01 -3.2124851096971552e-02 0.0000000000000000e+00  2.2350092313903527e-01 -3.1938244938726551e-03 0.0000000000000000e+00  2.2250266420949871e-01 1.0824175697611913e-02 0.0000000000000000e+00  2.2074961015643726e-01 -1.9542814067327045e-02 0.0000000000000000e+00  2.1560458755412543e-01 -2.4030694413550609e-03 0.0000000000000000e+00  1.8884235143429270e-01 1.4687147740020190e-01 0.0000000000000000e+00  2.1421179864058251e-01 3.5153523503873470e-02 0.0000000000000000e+00  2.0029839371162442e-01 6.0320929096733131e-02 0.0000000000000000e+00  1.7377227054007083e-01 1.5452640685242297e-01 0.0000000000000000e+00  1.6119714056206860e-01 1.4658400344056080e-01 0.0000000000000000e+00  1.2863316295531216e-01 1.8889715004832536e-01 0.0000000000000000e+00  7.1365631929413906e-02 2.0966084241498595e-01 0.0000000000000000e+00  1.0025145076951074e-01 1.9793646253768932e-01 0.0000000000000000e+00  8.2964506233351817e-02 1.9799066931735051e-01 0.0000000000000000e+00  -1.8777865436014826e-02 2.3050350817432660e-01 0.0000000000000000e+00  8.0872233407771731e-03 2.2162826307272637e-01 0.0000000000000000e+00  5.3686681346395079e-03 2.2402232625626967e-01 0.0000000000000000e+00  9.2120856458653422e-03 2.2321724779958124e-01 0.0000000000000000e+00  9.6799318455808112e-03 2.2333900859248773e-01 0.0000000000000000e+00  1.7140578726573233e-03 2.2368982980518323e-01 0.0000000000000000e+00  -1.5062443622439290e-03 2.2345830003552300e-01 0.0000000000000000e+00  -2.2588017969417555e-02 2.2318936670235681e-01 0.0000000000000000e+00  1.0561973408360906e-02 2.2290934421394212e-01 0.0000000000000000e+00  9.8764495238901160e-04 2.2206034813820286e-01 0.0000000000000000e+00  -3.1762480381092952e-02 2.2228007851502371e-01 0.0000000000000000e+00  -2.7239535197033485e-02 2.2159874815368003e-01 0.0000000000000000e+00  -4.2378421332740335e-02 2.1977315473399281e-01 0.0000000000000000e+00  -5.0280490161910101e-02 2.1779877665022207e-01 0.0000000000000000e+00  -6.4726216346739876e-02 2.1420254296363192e-01 0.0000000000000000e+00  -8.2586488780803741e-02 2.0767416587398060e-01 0.0000000000000000e+00  -7.9837475021414334e-02 2.0923049225634380e-01 0.0000000000000000e+00  -9.5381879526180990e-02 2.0137508393071540e-01 0.0000000000000000e+00  -1.2021699774448937e-01 1.8930189705364256e-01 0.0000000000000000e+00  -1.2845904990668608e-01 1.8272349724739850e-01 0.0000000000000000e+00  -1.4669790434069344e-01 1.6900562183140053e-01 0.0000000000000000e+00  -1.5819438356351956e-01 1.5820638578696122e-01 0.0000000000000000e+00  -1.7455092501031866e-01 1.3978180214267633e-01 0.0000000000000000e+00  -1.9029859785047637e-01 1.1766565423889702e-01 0.0000000000000000e+00  -1.9890728730024287e-01 1.0245292169086587e-01 0.0000000000000000e+00  -2.0748714292323112e-01 8.3312943954291507e-02 0.0000000000000000e+00  -2.1539397091455978e-01 6.0745704764801053e-02 0.0000000000000000e+00  -2.2019688066119167e-01 3.9127281027980930e-02 0.0000000000000000e+00  -2.2319119884523728e-01 1.5694305822020346e-02 0.0000000000000000e+00  -2.2356688220520798e-01 -7.5532273002682183e-03 0.0000000000000000e+00  -2.2149326019950102e-01 -3.1478974255051452e-02 0.0000000000000000e+00  -2.1698133243200474e-01 -5.4339426414314468e-02 0.0000000000000000e+00  -2.1096356684523168e-01 -7.4458116315472583e-02 0.0000000000000000e+00  -2.0315217841086333e-01 -9.3511291738117105e-02 0.0000000000000000e+00  -1.9411781519233043e-01 -1.1126089128088094e-01 0.0000000000000000e+00  -1.8308228962353390e-01 -1.2833139070733982e-01 0.0000000000000000e+00  -1.7292683008211301e-01 -1.4206662734755277e-01 0.0000000000000000e+00  -1.5960183231575270e-01 -1.5647101710828609e-01 0.0000000000000000e+00  -1.4836507041597372e-01 -1.6745278560451929e-01 0.0000000000000000e+00  -1.4076712662892962e-01 -1.7382968289417516e-01 0.0000000000000000e+00  -1.2308103766030258e-01 -1.8665133542558185e-01 0.0000000000000000e+00  -1.0799400437304785e-01 -1.9593626426589680e-01 0.0000000000000000e+00  -9.8528228707010265e-02 -2.0072436780437020e-01 0.0000000000000000e+00  -8.6361051580678180e-02 -2.0628279766669388e-01 0.0000000000000000e+00  -7.6513489720135219e-02 -2.1014752852300525e-01 0.0000000000000000e+00  -6.7433516320057479e-02 -2.1319010086127044e-01 0.0000000000000000e+00  -5.8909204386567555e-02 -2.1574645539986534e-01 0.0000000000000000e+00  -4.9403161171651791e-02 -2.1809283516354508e-01 0.0000000000000000e+00  -3.5210799979192769e-02 -2.2089007392803564e-01 0.0000000000000000e+00  -1.8629247045566986e-02 -2.2279017415141225e-01 0.0000000000000000e+00  -1.1969679017676253e-02 -2.2343677104621429e-01 0.0000000000000000e+00  -6.4503626954862188e-05 -2.2337189269819119e-01 0.0000000000000000e+00  -6.5578079774461734e-04 -2.2407588991684246e-01 0.0000000000000000e+00  2.1907215388493970e-02 -2.2179300857236794e-01 0.0000000000000000e+00  2.7017647763660734e-02 -2.2161504400162899e-01 0.0000000000000000e+00  2.6077388236217000e-03 -2.2410359080457412e-01 0.0000000000000000e+00  2.6178106241544163e-02 -2.2197603212202860e-01 0.0000000000000000e+00  4.5954900100188163e-02 -2.1889639816019435e-01 0.0000000000000000e+00  5.6329978202795852e-02 -2.1670108678250602e-01 0.0000000000000000e+00  7.8438957814479751e-02 -2.0882614869272589e-01 0.0000000000000000e+00  8.0313830780964102e-02 -2.1023666765811022e-01 0.0000000000000000e+00  1.1597729681452777e-01 -1.8876004016918396e-01 0.0000000000000000e+00  1.2905370124994309e-01 -1.8202962921347807e-01 0.0000000000000000e+00  1.0361078867861218e-01 -2.0000980383013545e-01 0.0000000000000000e+00  1.4739586679446653e-01 -1.6675345762800914e-01 0.0000000000000000e+00  1.7313872586073942e-01 -1.4319475969169534e-01 0.0000000000000000e+00  1.8267817239394121e-01 -1.2792981700704012e-01 0.0000000000000000e+00  1.9912551584501351e-01 -1.0307908811206962e-01 0.0000000000000000e+00  2.0840979711110597e-01 -8.0321483379035372e-02 0.0000000000000000e+00  2.1580349171795873e-01 -5.9648486587464106e-02 0.0000000000000000e+00  2.2044055768431559e-01 -3.8801745488366748e-02 0.0000000000000000e+00  -2.1831420409771221e-01 -4.9048851856452108e-02 0.0000000000000000e+00  -3.1272857705258596e-02 -2.2165299704700459e-01 0.0000000000000000e+00  3.7748686501374910e-02 2.2060688207871681e-01 0.0000000000000000e+00  -2.2058333812986236e-01 3.7557217361831187e-02 0.0000000000000000e+00  -3.3873934981852108e-02 2.2127571489018555e-01 0.0000000000000000e+00  1.8691891792343920e-01 1.2315031754225293e-01 0.0000000000000000e+00  3.8939488113933045e-02 -2.2041851687836564e-01 0.0000000000000000e+00  2.2392114875076410e-01 -1.1062531760576485e-03 0.0000000000000000e+00  1.9015879235136190e-01 -1.1808523842572435e-01 0.0000000000000000e+00  1.3532531580304161e-01 1.7826303789515796e-01 0.0000000000000000e+00  2.2404325677382025e-01 5.5610876410833680e-03 0.0000000000000000e+00  1.7007930587411507e-01 1.4637727921272845e-01 0.0000000000000000e+00  1.3950573135310920e-01 -1.7502233403955106e-01 0.0000000000000000e+00  -1.7370646314530108e-01 -1.4105431649145769e-01 0.0000000000000000e+00  -7.2878050291212082e-02 -2.1439202245353148e-01 0.0000000000000000e+00  -1.8401586124366312e-01 1.2731703406615463e-01 0.0000000000000000e+00  9.0527673722628238e-02 2.0570702121764756e-01 0.0000000000000000e+00  2.2455334428304430e-01 2.3669704096398402e-03 0.0000000000000000e+00  -1.1791853063463650e-01 1.9019975260505689e-01 0.0000000000000000e+00  -1.1149983610611076e-01 -1.9402670777404876e-01 0.0000000000000000e+00  -2.5978355385056521e-03 -2.2490113156853744e-01 0.0000000000000000e+00  1.1396685694979498e-01 -1.9265361228175315e-01 0.0000000000000000e+00  1.0943379544996346e-01 1.9526646478827922e-01 0.0000000000000000e+00  9.6105629610958782e-02 -2.0275496727814377e-01 0.0000000000000000e+00  -2.1379396326827652e-01 7.0609525281123284e-02 0.0000000000000000e+00  1.4744823502959706e-01 -1.6877375292930655e-01 0.0000000000000000e+00  -3.4255346926522767e-02 2.2320973450595838e-01 0.0000000000000000e+00  2.2385166969965567e-01 2.6227525892191833e-03 0.0000000000000000e+00  2.2378735216160592e-01 3.7522598328473215e-03 0.0000000000000000e+00  5.0503042213303297e-02 -2.1812086322644231e-01 0.0000000000000000e+00  1.8253968474207063e-01 -1.2998872119183519e-01 0.0000000000000000e+00  1.2400863513798430e-01 -1.8689050407898919e-01 0.0000000000000000e+00  1.9851100341509417e-01 -1.0489971743122348e-01 0.0000000000000000e+00  1.3725730779890040e-02 -2.2369653388627042e-01 0.0000000000000000e+00  1.9232196038621807e-01 -1.1459441326988890e-01 0.0000000000000000e+00  2.2403193057071250e-01 2.4966243078506280e-03 0.0000000000000000e+00  1.9641299494137160e-01 -1.0756411049882929e-01 0.0000000000000000e+00  2.0263507657980695e-01 -9.5251353658646273e-02 0.0000000000000000e+00  2.2386188010800601e-01 1.2777304151151273e-03 0.0000000000000000e+00  1.9267748101788626e-01 1.1410859100084993e-01 0.0000000000000000e+00  2.0202522961573124e-01 9.6557703979616161e-02 0.0000000000000000e+00  1.8170353992427496e-01 1.3097781076951037e-01 0.0000000000000000e+00  2.1966223277979607e-01 4.2603334748926552e-02 0.0000000000000000e+00  2.1916479071757897e-01 -4.4981043382927390e-02 0.0000000000000000e+00  1.8009270634901101e-01 -1.3317478017553816e-01 0.0000000000000000e+00  -2.0058579437121318e-01 9.9573593870740523e-02 0.0000000000000000e+00  -1.0508056231577224e-01 1.9788055726692094e-01 0.0000000000000000e+00  -1.8503454694213042e-01 1.2583266610363175e-01 0.0000000000000000e+00  1.0888508131715463e-01 1.9696660565590798e-01 0.0000000000000000e+00  -4.5416143449573086e-03 2.2399413866125148e-01 0.0000000000000000e+00  1.0367413084446551e-01 1.9845073022332457e-01 0.0000000000000000e+00  1.0463233300956727e-01 -1.9795093613976211e-01 0.0000000000000000e+00  -8.8058945986812159e-02 -2.0594256090247823e-01 0.0000000000000000e+00  3.8777158601825699e-02 -2.2175018837580726e-01 0.0000000000000000e+00  -1.5829368260936935e-01 -1.5854056443759382e-01 0.0000000000000000e+00  9.7294083385082303e-02 -2.0158413130438083e-01 0.0000000000000000e+00  1.6334983615567136e-01 -1.5337499776490060e-01 0.0000000000000000e+00  1.6525981865937547e-01 -1.5093283473426053e-01 0.0000000000000000e+00  1.1010658553232695e-01 -1.9483069087612798e-01 0.0000000000000000e+00  1.0471445935395360e-01 1.9778130056491172e-01 0.0000000000000000e+00  1.6085776891970899e-01 1.5561081240012500e-01 0.0000000000000000e+00  -4.4468732316101656e-02 2.1922142245816439e-01 0.0000000000000000e+00  1.6576363643846299e-02 2.2306565370799761e-01 0.0000000000000000e+00  1.1595185213326864e-02 -2.2339562555201151e-01 0.0000000000000000e+00  -4.9112719305099188e-02 -2.1823679165397450e-01 0.0000000000000000e+00  -4.2649770529868417e-02 -2.1960176578914387e-01 0.0000000000000000e+00  -1.0764381892073169e-01 -1.9609210488556608e-01 0.0000000000000000e+00  -1.1252493548278469e-01 1.9334002245459805e-01 0.0000000000000000e+00  -4.8609690457390282e-02 2.1836457424207129e-01 0.0000000000000000e+00  -2.2354150812610060e-01 -9.1661298848627233e-03 0.0000000000000000e+00  -2.0905954172703314e-01 7.9668286611821862e-02 0.0000000000000000e+00  -2.0803952017885952e-01 -8.2282219712317028e-02 0.0000000000000000e+00  -2.2370020383112424e-01 2.8038103338236388e-03 0.0000000000000000e+00  -1.0685431114181039e-01 -1.9662732806835273e-01 0.0000000000000000e+00  2.0047042428915754e-01 1.0145277611011648e-01 0.0000000000000000e+00  1.2206227329424381e-01 1.8816102947677310e-01 0.0000000000000000e+00  5.5863605912264101e-03 2.2410485734226257e-01 0.0000000000000000e+00  8.8342216181437935e-02 2.0590635615441499e-01 0.0000000000000000e+00  2.1423410262542988e-01 6.6049918012996617e-02 0.0000000000000000e+00  1.5949679013889090e-01 1.5733831874994417e-01 0.0000000000000000e+00  -4.3977846525830117e-02 2.2083870756341326e-01 0.0000000000000000e+00  2.1576767185480583e-01 9.4463673630620040e-02 0.0000000000000000e+00  2.2688706328649250e-01 5.2329728423180771e-03 0.0000000000000000e+00  5.2296679338888236e-02 2.1751150299057473e-01 0.0000000000000000e+00  5.0732739893603204e-02 -2.1790034116824725e-01 0.0000000000000000e+00  9.4859796294076273e-02 2.0271445046304837e-01 0.0000000000000000e+00  1.7979618269220268e-01 1.3374873563135337e-01 0.0000000000000000e+00  4.6643879938576771e-02 2.1898128756619337e-01 0.0000000000000000e+00  1.8972181423582962e-01 1.1884974967596006e-01 0.0000000000000000e+00  -1.0840938077894846e-01 1.9603421117960798e-01 0.0000000000000000e+00  -1.1423124173101101e-01 1.9245197574216932e-01 0.0000000000000000e+00  -2.2098029864045113e-01 -3.6509611467554152e-02 0.0000000000000000e+00  -2.1592313458862716e-01 -5.8738454296747726e-02 0.0000000000000000e+00  -8.3974458552201620e-02 -2.0765780332780584e-01 0.0000000000000000e+00  -1.7938499885082440e-01 -1.3410243176712267e-01 0.0000000000000000e+00  -1.7855986482463904e-01 -1.3488906605558393e-01 0.0000000000000000e+00  2.2427237455102159e-01 -1.9457151362768533e-02 0.0000000000000000e+00  -2.2151781049905955e-01 3.9788322935556571e-02 0.0000000000000000e+00  -1.6002613853509487e-01 -1.5631297553391718e-01 0.0000000000000000e+00  -2.0597584983149664e-01 -8.7316728391014078e-02 0.0000000000000000e+00  -2.0992906670914294e-01 7.7313281678310100e-02 0.0000000000000000e+00  -1.6774462905082682e-01 1.4800930027084011e-01 0.0000000000000000e+00  2.3650897264280846e-01 -6.8044118575273912e-02 0.0000000000000000e+00  -1.9473955894707159e-01 1.1053462363356890e-01 0.0000000000000000e+00  -2.1958465973416236e-01 4.2961747362532457e-02 0.0000000000000000e+00  -1.6904433654489787e-01 1.4653753475892528e-01 0.0000000000000000e+00  -1.0492833544683530e-01 1.9756203286695448e-01 0.0000000000000000e+00  -3.5586066582485809e-02 2.2094976816122672e-01 0.0000000000000000e+00  -1.0686482819957648e-01 -1.9652150174051439e-01 0.0000000000000000e+00  -1.6788976364424099e-01 -1.4785223624719843e-01 0.0000000000000000e+00  -3.3148330126774962e-02 -2.2132793505097489e-01 0.0000000000000000e+00  2.1016916220256951e-01 -7.7855616496996599e-02 0.0000000000000000e+00  8.34978240