<?xml version="1.0"?>
<VTKFile type="UnstructuredGrid"  version="0.1"  >
<UnstructuredGrid>
<Piece  NumberOfPoints="2549" NumberOfCells="4928">
<Points>
<DataArray  type="Float64"  NumberOfComponents="3"  format="ascii">1.641287276127883 -0.03796496512400975 0  1.638200679567517 0.00967738036414385 0  1.631429479372065 0.05681315257158899 0  1.623056949883108 0.1040682921068371 0  1.611664219378097 0.1509838010750857 0  1.597992352133399 0.1977498779125562 0  1.580955027513308 0.2438199193345153 0  1.562383755443377 0.2897140418039771 0  1.538154814808353 0.3329850886562961 0  1.512674236570172 0.3746592894115209 0  1.489137819827125 0.4209023782087808 0  1.460310656074919 0.4628144843754554 0  1.430945111372765 0.5051185302117829 0  1.399569922683555 0.5460871626814676 0  1.366623460215651 0.5863079015294563 0  1.332177789995065 0.6255071514009219 0  1.295857520843655 0.6629966465200089 0  1.259428407333173 0.6991228458405251 0  1.222965298922132 0.7398701483190272 0  1.184363820845659 0.7772165570956342 0  1.145187099539427 0.8153874157133695 0  1.104711772748088 0.8525437515681624 0  1.063406721219375 0.8897072665126405 0  1.020582334559099 0.9258534707577926 0  0.9762526605639946 0.9606506515028804 0  0.9313189580993453 0.9939414472882979 0  0.8850994640065737 1.026789284991826 0  0.8378424686535642 1.058754669951416 0  0.789602640440123 1.089954300822495 0  0.740230664118098 1.119904997773312 0  0.6898132041673791 1.148625699921477 0  0.6383601119445897 1.175926259599499 0  0.5856883866811079 1.201182331787365 0  0.5321778476204875 1.224567673882751 0  0.4777547381770983 1.246470946080933 0  0.4223770297269344 1.266045208153632 0  0.3662244127150163 1.283531898194567 0  0.309322239933095 1.298623891320344 0  0.2517814917557056 1.311295214816611 0  0.1937224757871897 1.321470630894167 0  0.1351711862183085 1.328760254084362 0  0.07642115759597062 1.333392055233127 0  0.01747806785811548 1.335575278442409 0  -0.04149845687623772 1.334922322718533 0  -0.1003956917123374 1.331538592606144 0  -0.1590613663846682 1.325333173545701 0  -0.2173730624860473 1.316422949772893 0  -0.2751744300246023 1.304632218228134 0  -0.3323581436937633 1.29048968903193 0  -0.3889286215873952 1.273692420725639 0  -0.4445056929106285 1.254038975503675 0  -0.4991498496326169 1.232036277754875 0  -0.5528103342697485 1.207979557649031 0  -0.6052784736156316 1.181704767690882 0  -0.6568339045719065 1.15410460228601 0  -0.7069556836735176 1.124170455858472 0  -0.7559686765624086 1.09395462260313 0  -0.8041942616024701 1.062138715018006 0  -0.8506846053516287 1.028248238570433 0  -0.8959023281902289 0.9933627029973684 0  -0.9400722442683894 0.9580278353221693 0  -0.982766500582567 0.9214971186743169 0  -1.024922507546752 0.8856606559780538 0  -1.064380077098431 0.8460239552002039 0  -1.103764003327546 0.810567216153801 0  -1.142686867125293 0.7750071707002554 0  -1.180297583621356 0.7382701404902218 0  -1.217229070521256 0.7020427356653227 0  -1.252916429738362 0.6649762907154404 0  -1.288235514134077 0.6296136964414342 0  -1.32332801111304 0.5931162019569622 0  -1.35833044048043 0.5599762421966316 0  -1.393282501859487 0.522869342825079 0  -1.417768445679015 0.4763962792942775 0  -1.451015823180972 0.4350800787287318 0  -1.476572025168318 0.3900593255924475 0  -1.499965965360149 0.3437552339158991 0  -1.516723355021238 0.29455980575422 0  -1.535204857007491 0.247357184754246 0  -1.536100795321672 0.192903246964542 0  -1.550777861961503 0.1485524541101226 0  -1.56249235010818 0.1017805816610467 0  -1.555435475169554 0.05375225968834323 0  -1.559928375264117 0.00746209719521162 0  -1.559033099201608 -0.03855157745660259 0  -1.561101154744823 -0.08455372336867155 0  -1.558411242094219 -0.1310718062837576 0  -1.56353972379742 -0.1795596884001962 0  -1.553956787858525 -0.2267591393308669 0  -1.541079725597902 -0.2718188355887894 0  -1.54030523070981 -0.327175926989849 0  -1.522912684117206 -0.3750817593174693 0  -1.506529437947769 -0.4249749086278868 0  -1.483265806773862 -0.471528071941176 0  -1.457642634775979 -0.5167221254759914 0  -1.425461270240775 -0.5583805529425174 0  -1.400428561686328 -0.6048206636132635 0  -1.364900409128774 -0.6418354126032889 0  -1.33010144962596 -0.6755823458592859 0  -1.294768163993654 -0.712000867466419 0  -1.259384664687188 -0.747444463763262 0  -1.22383644018462 -0.7848645814905518 0  -1.187111737039804 -0.8215938782025082 0  -1.149733122902888 -0.8589603756940128 0  -1.111133568218351 -0.8952792293400901 0  -1.071901966502676 -0.9316701932018991 0  -1.033206404215153 -0.9735737549060125 0  -0.9910591194568019 -1.010690890837383 0  -0.948473268551873 -1.04873003878528 0  -0.9043873096332946 -1.085700588774944 0  -0.8591941005489639 -1.122236645849708 0  -0.8125909930978643 -1.157733267414378 0  -0.764566457654615 -1.19172217541896 0  -0.7152198554442193 -1.224574886365305 0  -0.6653091254863369 -1.258401426376598 0  -0.6130384868239267 -1.288170678166104 0  -0.5600904108495179 -1.316733789333483 0  -0.5057667091833074 -1.342805275927236 0  -0.4504069672981378 -1.366655777815428 0  -0.3941183885536015 -1.388121713885489 0  -0.3365324001411276 -1.406033880600591 0  -0.2784144329113371 -1.421025600261346 0  -0.2196416368434684 -1.433800835976153 0  -0.1602703768263907 -1.443376735089829 0  -0.1005004698444885 -1.450071353135262 0  -0.04045003336161276 -1.453640747162753 0  0.01971151482386034 -1.454137126908907 0  0.07982965825886955 -1.451464642764559 0  0.1397395127900771 -1.445634342475783 0  0.1992238720573356 -1.436862881725999 0  0.2582166630728893 -1.425438940233997 0  0.3165856102920308 -1.411322970474746 0  0.3742524773086479 -1.3947263682041 0  0.4310615393060655 -1.37561073834211 0  0.4870490095777875 -1.354525037781708 0  0.5419498225851627 -1.33087701477841 0  0.595867576836119 -1.306272044806201 0  0.6490697861081804 -1.279659901599276 0  0.7007487796969648 -1.25052019792172 0  0.7513959542492273 -1.220131533740377 0  0.8008955665719476 -1.188531670222363 0  0.849219188589195 -1.155770248120654 0  0.8964862728512214 -1.122284574613385 0  0.9426642299291244 -1.08802548893679 0  0.9875244766499748 -1.053445550945975 0  1.031755948047292 -1.017361047974025 0  1.074425297287746 -0.979938741609614 0  1.115561085413195 -0.9416198827102111 0  1.155802192589579 -0.9032996225498712 0  1.19470370005673 -0.8639986957988088 0  1.233058490793227 -0.825660181356784 0  1.269095784557182 -0.783725759118974 0  1.305175160161003 -0.7468084429355935 0  1.341337166403377 -0.7087745873562024 0  1.375409418626303 -0.6687836360610848 0  1.408053041443922 -0.6279451624163145 0  1.439113769866639 -0.5863618195369539 0  1.468142238802119 -0.543445038650846 0  1.496543697473763 -0.5009203283753962 0  1.519718401708585 -0.4540902964112618 0  1.544840493875361 -0.4119861792066908 0  1.568586758344872 -0.3682001771739117 0  1.586597307921928 -0.3217691749321963 0  1.602949176167831 -0.275209583841986 0  1.615892890908344 -0.2279840886843067 0  1.62632183264183 -0.1806222637816575 0  1.633754973892846 -0.133059608178983 0  1.639295741084357 -0.08566347937065918 0  -0.08216427266520158 0.7969308038344409 0  0.6185319186820375 -0.7176019370339728 0  -0.7302786409644815 -0.6285825613683675 0  -0.05841636939983398 -0.8880820036138081 0  0.614344944141768 0.621189441420217 0  1.168525469839454 0.203427292162045 0  -0.7428152076033654 0.528217653629095 0  -1.21497608380905 -0.04336475729565036 0  1.172743764657222 -0.2865342437445911 0  -1.019707532514022 -0.4547193886460359 0  -0.7802475951473693 -0.05826692411888348 0  -0.4585298480629292 -0.2321298110605388 0  -1.030270040502507 0.348994951515553 0  0.2980807213430519 -0.8652707774705094 0  0.1532633931696811 -0.2926796635355491 0  0.2616632553607576 0.7586669871088174 0  0.3543406566641321 0.2024020643251628 0  0.6700447251200254 -0.04270681594447271 0  -0.3940105409031386 -0.7810747793052915 0  -0.4306833336957597 0.7027442146216142 0  -0.2580012617325773 0.2582921002423741 0  0.9253270223209332 -0.4919712701989092 0  0.9211848902884824 0.4049778452416454 0  0.4222311080306647 -0.3235557546825862 0  0.04637977611590531 0.2536436088812662 0  -0.5219930557815491 0.1976014102740775 0  -0.1555027497360351 -0.2850872213662293 0  0.9542869704481662 -0.04229636072028062 0  1.362549875048886 -0.03992774093315789 0  0.7722501854854334 -0.6019206438624485 0  0.7890397628594678 -0.2766709998875082 0  0.6350062957029318 -0.3770348574768482 0  0.5448072182735472 -0.1792764281052926 0  0.5145744137781696 -0.5257161648958226 0  0.9327849585572189 -0.2655496538375654 0  0.8114944550102979 -0.04247879573095752 0  -0.8969179176766595 0.1545249244657638 0  -1.118271317349924 0.148892932896719 0  -0.9997235994654502 -0.04991784781781181 0  -0.8915221415145447 -0.2650418056690549 0  -1.113519540133845 -0.2442556179628946 0  -1.288672792346794 -0.3369019657892963 0  -1.376676507585719 -0.1530513129978188 0  -1.374633874195718 0.07041067876367108 0  -1.284199250902076 0.2529238249357609 0  -0.1075370370435589 -0.5862035718198052 0  -0.2681366040115398 -0.5389104047096439 0  -0.2275193628140348 -0.8399215962808281 0  -0.3064711479695742 -0.2596963895908588 0  -0.422585307058105 -0.5042047179812189 0  -1.206791028041307 -0.5339482084844696 0  -1.208207811325889 0.4417106710988646 0  0.3590014399759099 -0.5919499799148706 0  0.2869575877600968 -0.3097164088951744 0  0.2202060060619743 -0.5819317223838811 0  -0.8859614582940148 0.4344303805036272 0  -0.7521924123982382 0.2328529680980281 0  1.356520575781405 -0.3597641610171542 0  1.227379893001254 -0.5244035336070362 0  1.220627145973474 0.4410971773059355 0  1.3510457927754 0.2789501011350978 0  -0.7351019887616285 -0.9115492136516111 0  -0.910284064509278 -0.7770076474723864 0  -0.9131556283312732 0.6842065193015284 0  -0.7384819407838502 0.8119806052013764 0  0.7899215423854826 -0.899976036622347 0  0.6001025367908625 -1.012200650083702 0  0.5934327803203576 0.9119907066654207 0  0.7826434563786607 0.8054330696333305 0  0.03010755024799582 -1.172600
[...]
<PointData  Vectors="f_6799"> 
<DataArray  type="Float64"  Name="f_6799"  NumberOfComponents="3" format="ascii">-1.2720641517213879e-04 1.4107178620199465e-05 0.0000000000000000e+00  -1.2670634853613323e-04 1.0443370779943974e-05 0.0000000000000000e+00  -1.2485013008934102e-04 7.0141201416142687e-06 0.0000000000000000e+00  -1.2219338236548841e-04 3.8091482984975096e-06 0.0000000000000000e+00  -1.1896821416817697e-04 9.0287853750622229e-07 0.0000000000000000e+00  -1.1447427035265593e-04 -1.5785175548415526e-06 0.0000000000000000e+00  -1.1002841259280042e-04 -3.6036461342843896e-06 0.0000000000000000e+00  -1.0333230214027331e-04 -4.9414709454758191e-06 0.0000000000000000e+00  -9.6937206461056121e-05 -5.3966028632301753e-06 0.0000000000000000e+00  -9.0057229688699018e-05 -5.3621952848210895e-06 0.0000000000000000e+00  -8.0142282840410563e-05 -3.5735870078235409e-06 0.0000000000000000e+00  -7.2508849350102258e-05 -2.2660183037393242e-06 0.0000000000000000e+00  -6.3603768954779809e-05 9.0185852944779322e-08 0.0000000000000000e+00  -5.4292082436215550e-05 3.6646553288133621e-06 0.0000000000000000e+00  -4.4487167135155490e-05 8.4878838894038348e-06 0.0000000000000000e+00  -3.5013690414169254e-05 1.3636748296525222e-05 0.0000000000000000e+00  -2.5713338574572312e-05 1.9663383524594473e-05 0.0000000000000000e+00  -1.4997447756916483e-05 2.7491274938625067e-05 0.0000000000000000e+00  -6.0100655819992497e-06 3.4799472149022411e-05 0.0000000000000000e+00  2.2640967510074194e-06 4.1242567841719835e-05 0.0000000000000000e+00  1.1023501528661318e-05 4.9177149052926076e-05 0.0000000000000000e+00  1.9658294746916036e-05 5.7815119017396993e-05 0.0000000000000000e+00  2.8251272554208133e-05 6.7422626059417381e-05 0.0000000000000000e+00  3.5726583650071479e-05 7.6657867376537776e-05 0.0000000000000000e+00  4.3532147034121636e-05 8.7696946903767454e-05 0.0000000000000000e+00  5.0362349131814845e-05 9.8544778964179073e-05 0.0000000000000000e+00  5.6409387705403008e-05 1.0941120070514593e-04 0.0000000000000000e+00  6.1563059733030635e-05 1.2006602670263500e-04 0.0000000000000000e+00  6.5985133604314758e-05 1.3052685866559024e-04 0.0000000000000000e+00  6.9663058295491644e-05 1.4090687486758403e-04 0.0000000000000000e+00  7.2720535975803475e-05 1.5139053406266985e-04 0.0000000000000000e+00  7.5148075479260164e-05 1.6176813924615927e-04 0.0000000000000000e+00  7.6568193787138276e-05 1.7186108660728852e-04 0.0000000000000000e+00  7.7248521132889395e-05 1.8181705623206338e-04 0.0000000000000000e+00  7.7190580308479761e-05 1.9119149786618524e-04 0.0000000000000000e+00  7.6084363241588445e-05 1.9968301825249026e-04 0.0000000000000000e+00  7.4313564546329937e-05 2.0751372803481076e-04 0.0000000000000000e+00  7.1691737070423821e-05 2.1422494791217356e-04 0.0000000000000000e+00  6.8392737662220917e-05 2.1984725174859762e-04 0.0000000000000000e+00  6.4497629543606497e-05 2.2397035546023157e-04 0.0000000000000000e+00  6.0091534210197194e-05 2.2661895257948252e-04 0.0000000000000000e+00  5.5418638244158510e-05 2.2755250444429182e-04 0.0000000000000000e+00  5.0630862065866555e-05 2.2668972591676138e-04 0.0000000000000000e+00  4.5982241325840802e-05 2.2407333588790769e-04 0.0000000000000000e+00  4.1613067489344621e-05 2.1976851588677854e-04 0.0000000000000000e+00  3.7770511337413451e-05 2.1386679976375078e-04 0.0000000000000000e+00  3.4520555846128817e-05 2.0665624647975679e-04 0.0000000000000000e+00  3.2135609479631989e-05 1.9808718515310837e-04 0.0000000000000000e+00  3.0553665579283430e-05 1.8855634419903515e-04 0.0000000000000000e+00  2.9815965201017000e-05 1.7847358828639706e-04 0.0000000000000000e+00  3.0210212466421230e-05 1.6787747042040234e-04 0.0000000000000000e+00  3.1407652154886835e-05 1.5705873543909340e-04 0.0000000000000000e+00  3.2995357276885646e-05 1.4677242419934249e-04 0.0000000000000000e+00  3.5862061277890087e-05 1.3588155084206800e-04 0.0000000000000000e+00  3.8531751588592314e-05 1.2581435061262674e-04 0.0000000000000000e+00  4.2909080527375958e-05 1.1477553965024167e-04 0.0000000000000000e+00  4.7442597336560590e-05 1.0398445877093342e-04 0.0000000000000000e+00  5.2816233044661772e-05 9.3203929410615047e-05 0.0000000000000000e+00  5.8949088291854352e-05 8.3122277000839931e-05 0.0000000000000000e+00  6.5783385467159687e-05 7.2925931993821959e-05 0.0000000000000000e+00  7.2115559776980042e-05 6.4223642514043406e-05 0.0000000000000000e+00  7.9085737317635541e-05 5.6033956436525001e-05 0.0000000000000000e+00  8.4485087375754745e-05 4.9438334065777872e-05 0.0000000000000000e+00  9.5876142304684910e-05 3.7033472183735060e-05 0.0000000000000000e+00  1.0296565209336996e-04 2.9866257021328139e-05 0.0000000000000000e+00  1.1218608126366118e-04 2.1063784901064491e-05 0.0000000000000000e+00  1.2256200306822839e-04 1.1875335095146725e-05 0.0000000000000000e+00  1.3289303722244160e-04 3.8022005209690264e-06 0.0000000000000000e+00  1.4401599452468818e-04 -5.0643514354472549e-06 0.0000000000000000e+00  1.5497387477157775e-04 -1.1776540452372788e-05 0.0000000000000000e+00  1.6639429853812182e-04 -2.1086511485122866e-05 0.0000000000000000e+00  1.8539027728131947e-04 -3.4090863061820579e-05 0.0000000000000000e+00  1.8228112699773507e-04 -2.6424554279452959e-05 0.0000000000000000e+00  2.1321875820928677e-04 -3.8816996824194208e-05 0.0000000000000000e+00  2.2726267943683261e-04 -4.3594713670575798e-05 0.0000000000000000e+00  2.2320627838333596e-04 -3.3949387795349275e-05 0.0000000000000000e+00  2.3012473750271377e-04 -3.2610340621201066e-05 0.0000000000000000e+00  2.3746396942034880e-04 -2.8253724811885331e-05 0.0000000000000000e+00  2.3714971589233437e-04 -2.3326220058650674e-05 0.0000000000000000e+00  2.5229829622861914e-04 -1.9554465219922731e-05 0.0000000000000000e+00  2.4691691201886859e-04 -1.3333037631085299e-05 0.0000000000000000e+00  2.4204365394854259e-04 -8.9259963077228884e-06 0.0000000000000000e+00  2.5264928397001853e-04 -3.5241504829897489e-06 0.0000000000000000e+00  2.4913056452245284e-04 5.2095448135174792e-07 0.0000000000000000e+00  2.4845433486160790e-04 4.2519518593710539e-06 0.0000000000000000e+00  2.4911474889244669e-04 8.0811983013251144e-06 0.0000000000000000e+00  2.5208178455061705e-04 1.2090427802213848e-05 0.0000000000000000e+00  2.4512282380888370e-04 1.7246806646446643e-05 0.0000000000000000e+00  2.4781072930142172e-04 2.1357789750691976e-05 0.0000000000000000e+00  2.5207310307581764e-04 2.6914876041495734e-05 0.0000000000000000e+00  2.3909506986074746e-04 3.1006877131109309e-05 0.0000000000000000e+00  2.4009631734260540e-04 3.5898588773092544e-05 0.0000000000000000e+00  2.3341597148072315e-04 4.0060458084328546e-05 0.0000000000000000e+00  2.2754975766778489e-04 4.1773230642135607e-05 0.0000000000000000e+00  2.2866129311793507e-04 4.9042604637830312e-05 0.0000000000000000e+00  2.2103831916961972e-04 4.7805321956889988e-05 0.0000000000000000e+00  1.9411559280214043e-04 3.8812143622120517e-05 0.0000000000000000e+00  1.9085296659692022e-04 4.1265885866540705e-05 0.0000000000000000e+00  1.7604105064168040e-04 3.4026786273927066e-05 0.0000000000000000e+00  1.6324724680696125e-04 2.4949664883502473e-05 0.0000000000000000e+00  1.5149073024017394e-04 1.8221987043730282e-05 0.0000000000000000e+00  1.4036052706576909e-04 1.0152617096530114e-05 0.0000000000000000e+00  1.3006008318542381e-04 2.8482744795412949e-06 0.0000000000000000e+00  1.1948626701788526e-04 -5.8378243499846643e-06 0.0000000000000000e+00  1.1112346070711579e-04 -1.3331573806022567e-05 0.0000000000000000e+00  1.0615352705522326e-04 -1.7445067593331936e-05 0.0000000000000000e+00  9.1103036231504950e-05 -3.2632581992084810e-05 0.0000000000000000e+00  8.8542526807096976e-05 -3.5755356902523539e-05 0.0000000000000000e+00  8.2467208294755069e-05 -4.1702263802912222e-05 0.0000000000000000e+00  7.6609507890535629e-05 -4.9157755246203769e-05 0.0000000000000000e+00  7.0158806804218975e-05 -5.7855967506178825e-05 0.0000000000000000e+00  6.4619783264110227e-05 -6.6644140222977104e-05 0.0000000000000000e+00  6.0265815337625892e-05 -7.4836730145465518e-05 0.0000000000000000e+00  5.8656744052219050e-05 -8.0518217033286054e-05 0.0000000000000000e+00  5.0759074761332460e-05 -9.3789558532591467e-05 0.0000000000000000e+00  5.0663909756731774e-05 -9.9027773890421607e-05 0.0000000000000000e+00  4.7092740976421255e-05 -1.0788876684138750e-04 0.0000000000000000e+00  4.5316977153332083e-05 -1.1660941242589833e-04 0.0000000000000000e+00  4.3366254423177829e-05 -1.2663104389074657e-04 0.0000000000000000e+00  4.1701156549861622e-05 -1.3750957959066278e-04 0.0000000000000000e+00  4.1924990189992304e-05 -1.4734314002659037e-04 0.0000000000000000e+00  4.2843627605759629e-05 -1.5703343993525771e-04 0.0000000000000000e+00  4.4551603920722534e-05 -1.6593198826803397e-04 0.0000000000000000e+00  4.7311826146201635e-05 -1.7325963122674038e-04 0.0000000000000000e+00  5.0654929613974388e-05 -1.7941808634682981e-04 0.0000000000000000e+00  5.4594902533690070e-05 -1.8403426534235794e-04 0.0000000000000000e+00  5.8874727816851281e-05 -1.8712825443456256e-04 0.0000000000000000e+00  6.3325599632423651e-05 -1.8853814423775138e-04 0.0000000000000000e+00  6.7749581164178283e-05 -1.8835071992494423e-04 0.0000000000000000e+00  7.1880907528937453e-05 -1.8646951697173843e-04 0.0000000000000000e+00  7.5629497768479244e-05 -1.8314387411865556e-04 0.0000000000000000e+00  7.8754648976875140e-05 -1.7830217993231493e-04 0.0000000000000000e+00  8.1286258626502871e-05 -1.7236361645971680e-04 0.0000000000000000e+00  8.2886228818131034e-05 -1.6512876190760654e-04 0.0000000000000000e+00  8.3987969246952942e-05 -1.5736465876981358e-04 0.0000000000000000e+00  8.3769619129118745e-05 -1.4819815511492985e-04 0.0000000000000000e+00  8.2865187411655951e-05 -1.3839204075231457e-04 0.0000000000000000e+00  8.1304214291348032e-05 -1.2859615874023144e-04 0.0000000000000000e+00  7.8188538377525819e-05 -1.1809354548756485e-04 0.0000000000000000e+00  7.4917987409163671e-05 -1.0795524418455519e-04 0.0000000000000000e+00  7.0924245520744686e-05 -9.7891918978256328e-05 0.0000000000000000e+00  6.6231808369823238e-05 -8.7696429244659614e-05 0.0000000000000000e+00  6.0805777115432210e-05 -7.7352687120223147e-05 0.0000000000000000e+00  5.4470884090949428e-05 -6.6728250555717886e-05 0.0000000000000000e+00  4.7264832410769816e-05 -5.6014991260500348e-05 0.0000000000000000e+00  3.9148417362256909e-05 -4.5221513144427970e-05 0.0000000000000000e+00  3.1302065456645373e-05 -3.6110185099759527e-05 0.0000000000000000e+00  2.2314867562561867e-05 -2.6614855006915741e-05 0.0000000000000000e+00  1.3438152780667340e-05 -1.8259769899593455e-05 0.0000000000000000e+00  4.4640240452662028e-06 -1.0621178554978253e-05 0.0000000000000000e+00  -4.0295950818696900e-06 -4.3535534533687606e-06 0.0000000000000000e+00  -1.3858487447315029e-05 3.3007508507766661e-06 0.0000000000000000e+00  -2.4198210746830073e-05 1.0330241478113738e-05 0.0000000000000000e+00  -3.4503280730355810e-05 1.6928785666865392e-05 0.0000000000000000e+00  -4.4027200289070292e-05 2.1648709572031469e-05 0.0000000000000000e+00  -5.4035027144799029e-05 2.6347693477821876e-05 0.0000000000000000e+00  -6.3635993778309193e-05 2.9805368698466757e-05 0.0000000000000000e+00  -7.2875361320128923e-05 3.2146108616440122e-05 0.0000000000000000e+00  -8.0645732235422101e-05 3.3250270589734073e-05 0.0000000000000000e+00  -9.0518940746691311e-05 3.4761744444667872e-05 0.0000000000000000e+00  -9.7861303206372651e-05 3.4811979366287242e-05 0.0000000000000000e+00  -1.0424457446927696e-04 3.4108685586092074e-05 0.0000000000000000e+00  -1.1099661108014951e-04 3.2611457919576285e-05 0.0000000000000000e+00  -1.1549553165193608e-04 3.0411660696092160e-05 0.0000000000000000e+00  -1.1994300103522536e-04 2.7767671384700212e-05 0.0000000000000000e+00  -1.2304784204988134e-04 2.4688809528466947e-05 0.0000000000000000e+00  -1.2556806119594838e-04 2.1363311709534735e-05 0.0000000000000000e+00  -1.2686948060565211e-04 1.7769984043721409e-05 0.0000000000000000e+00  6.2656564669971037e-05 1.4612539578992835e-04 0.0000000000000000e+00  1.1974139681749846e-05 -7.2428712053953891e-05 0.0000000000000000e+00  1.3130022672755935e-04 -4.4164807631370519e-05 0.0000000000000000e+00  6.8284637223974107e-05 -1.1048657275025524e-04 0.0000000000000000e+00  7.5832308997437873e-06 1.0349703831057471e-04 0.0000000000000000e+00  -7.6497812417332717e-05 2.5538862882758794e-05 0.0000000000000000e+00  1.3012044359747289e-04 6.6892665648798027e-05 0.0000000000000000e+00  2.1894167726035845e-04 6.6167472179186752e-06 0.0000000000000000e+00  -7.6282032092724771e-05 3.7550946747617594e-06 0.0000000000000000e+00  1.7905842396917870e-04 -1.0248551159460173e-05 0.0000000000000000e+00  1.6548223638989683e-04 9.7283449238896507e-06 0.0000000000000000e+00  1.2146983105201304e-04 -1.1000551312599463e-05 0.0000000000000000e+00  1.7992295993914050e-04 2.5894810665190615e-05 0.0000000000000000e+00  4.5037813053790373e-05 -1.0798824532084263e-04 0.0000000000000000e+00  4.3394559777532722e-05 -2.3540273732667241e-05 0.0000000000000000e+00  4.0711971826383043e-05 1.4133069642429804e-04 0.0000000000000000e+00  1.6357416776988131e-05 5.3826145701892204e-05 0.0000000000000000e+00  -2.5206520910761702e-05 1.5402854971797277e-05 0.0000000000000000e+00  9.3632957377541082e-05 -8.0575902978078791e-05 0.0000000000000000e+00  8.9608213230332154e-05 1.1225913393111798e-04 0.0000000000000000e+00  9.2442862824138546e-05 5.9986876088788041e-05 0.0000000000000000e+00  -3.5500042563197076e-05 -2.6186548962775140e-05 0.0000000000000000e+00  -3.7307559445589430e-05 5.6196007140088327e-05 0.0000000000000000e+00  1.0643651044605958e-05 -2.6050126149405568e-05 0.0000000000000000e+00  5.4878564183904109e-05 6.3519344385691866e-05 0.0000000000000000e+00  1.2706042144604678e-04 4.3971067149566048e-05 0.0000000000000000e+00  8.2315531244764515e-05 -2.1401665264736932e-05 0.0000000000000000e+00  -5.9534235648208313e-05 1.4840397994287295e-05 0.0000000000000000e+00  -1.0318872169871679e-04 1.4423225642596586e-05 0.0000000000000000e+00  -1.1294740656800584e-05 -4.8235444430296616e-05 0.0000000000000000e+00  -3.4776206892410837e-05 -1.1417935864723780e-05 0.0000000000000000e+00  -1.2559448781646380e-05 -2.8509364086986096e-05 0.0000000000000000e+00  -7.9343504688530038e-06 -3.5912948420438902e-06 0.0000000000000000e+00  8.1341090425223722e-06 -5.2654670123689796e-05 0.0000000000000000e+00  -5.1692149415616536e-05 -5.5513353185821904e-06 0.0000000000000000e+00  -4.2591304756065306e-05 1.5115623137298180e-05 0.0000000000000000e+00  1.7652525708403952e-04 2.4071717863406953e-05 0.0000000000000000e+00  2.0431990594170897e-04 1.1017572455840968e-05 0.0000000000000000e+00  1.9376439785863316e-04 8.5251742850876594e-06 0.0000000000000000e+00  1.7580213447804634e-04 -5.9304608069173432e-06 0.0000000000000000e+00  2.0407338868530026e-04 3.8959483201401054e-06 0.0000000000000000e+00  2.1966923240558067e-04 1.5674487624723121e-05 0.0000000000000000e+00  2.3446472549070534e-04 1.2028571623179089e-05 0.0000000000000000e+00  2.3413916558368632e-04 -1.7606240661227060e-06 0.0000000000000000e+00  2.1813520352675195e-04 -3.4523904151318303e-06 0.0000000000000000e+00  7.4688867390213651e-05 -6.6554993952359532e-05 0.0000000000000000e+00  9.2011069822311111e-05 -5.5937141262849566e-05 0.0000000000000000e+00  7.9975821644204652e-05 -9.6945141860374346e-05 0.0000000000000000e+00  1.0164712974044798e-04 -1.6333765874204636e-05 0.0000000000000000e+00  1.0942450646952123e-04 -4.6545257707522269e-05 0.0000000000000000e+00  1.9226236084360712e-04 8.1990155216090824e-06 0.0000000000000000e+00  1.8972257588395602e-04 5.1556055906999063e-06 0.0000000000000000e+00  2.7233403681027074e-05 -6.6887637202336900e-05 0.0000000000000000e+00  2.6949216537164751e-05 -2.5527270850062940e-05 0.0000000000000000e+00  4.0990163753860602e-05 -6.7783353422596647e-05 0.0000000000000000e+00  1.5447718843591263e-04 4.5763452584087959e-05 0.0000000000000000e+00  1.5453899120614975e-04 3.8233703489028456e-05 0.0000000000000000e+00  -8.8112977696872083e-05 1.4933556391463011e-05 0.0000000000000000e+00  -5.8377033764415445e-05 7.7218015328104550e-08 0.0000000000000000e+00  -5.8993029909994860e-05 2.9547824628735522e-05 0.0000000000000000e+00  -8.7855999385590862e-05 1.4259396443213068e-05 0.0000000000000000e+00  9.9404128457876022e-05 -6.4006751282168824e-05 0.0000000000000000e+00  1.2580311557009873e-04 -3.8410586080949539e-05 0.0000000000000000e+00  1.2152101145016096e-04 5.8690627699460073e-05 0.0000000000000000e+00  9.3906020454692659e-05 8.9892830401105435e-05 0.0000000000000000e+00  2.2870653433248414e-05 -7.6507965797907690e-05 0.0000000000000000e+00  4.3421616187513696e-05 -1.0840464784906935e-04 0.0000000000000000e+00  3.7614013404314560e-05 1.4064730758409885e-04 0.0000000000000000e+00  1.8478676042537640e-05 1.0780750602656790e-04 0.0000000000000000e+00  6.3640141118242817e-05 -1.5230522302379435e-04 0.0000000000000000e+00  6.6388756710908739e-05 -1.3872910808481026e-04 0.0000000000000000e+00  5.6811702070973401e-05 1.7616409838086032e-04 0.0000000000000000e+00  5.4949358744016087e-05 1.8980784033799391e-04 0.0000000000000000e+00  2.9819230487151456e-05 -9.1564252165570861e-05 0.0000000000000000e+00  -4.7498051098838616e-06 3.2858104835939385e-05 0.0000000000000000e+00  -1.4636098531696947e-05 5.9165047901323560e-05 0.0000000000000000e+00  7.8740058917644165e-06 8.3354416487606422e-05 0.0000000000000000e+00  1.3039814114584650e-04 -3.3126691382247502e-05 0.0000000000000000e+00  1.4354479619980447e-04 1.3071438682770203e-06 0.0000000000000000e+00  1.5428204485878671e-04 -1.7193234851720471e-05 0.0000000000000000e+00  3.5775493836222053e-05 5.9454746195504431e-05 0.0000000000000000e+00  4.8595148204032127e-05 1.9708329173559729e-05 0.0000000000000000e+00  2.8551165139604782e-05 1.6219826748181649e-05 0.0000000000000000e+00  1.5219747521537616e-04 -1.7175329075259400e-05 0.0000000000000000e+00  1.4924500826410430e-04 3.3438590271685738e-05 0.0000000000000000e+00  1.5440210368734497e-04 -2.6872276551160213e-05 0.0000000000000000e+00  -3.5907324840534531e-05 4.1755508309935527e-05 0.0000000000000000e+00  -1.4340126638861581e-05 7.8728711124141366e-05 0.0000000000000000e+00  -5.2527822372196552e-05 3.5325907558301492e-05 0.0000000000000000e+00  2.7710017095849998e-05 9.7458853717531213e-05 0.0000000000000000e+00  2.5536667313440827e-05 1.2419633277375606e-04 0.0000000000000000e+00  5.8491283532516014e-05 -6.9444243855495009e-05 0.0000000000000000e+00  5.7058399977635338e-05 -1.1285972112993845e-04 0.0000000000000000e+00  9.4498905732224873e-05 8.9714231491899707e-05 0.0000000000000000e+00  7.6302994366084985e-05 1.0262263100817182e-04 0.0000000000000000e+00  7.5016150417149224e-05 1.3135102756038451e-04 0.0000000000000000e+00  1.1245177348535033e-05 1.3001354680433457e-05 0.0000000000000000e+00  6.2858423005264361e-05 -2.3148135533711816e-05 0.0000000000000000e+00  5.5324092993704873e-05 -1.3279558815566439e-04 0.0000000000000000e+00  6.1647236646360522e-05 -1.5066708216570233e-04 0.0000000000000000e+00  5.3594365806044359e-05 1.8600261898158162e-04 0.0000000000000000e+00  4.8556127725629139e-05 1.6748208832766690e-04 0.0000000000000000e+00  6.8887475428361833e-05 2.0026408406427517e-05 0.0000000000000000e+00  4.4361538401832094e-05 1.0446734150852563e-04 0.0000000000000000e+00  5.2151628181224739e-05 1.4728381281366870e-04 0.0000000000000000e+00  7.2656752751087405e-05 -1.1544919479596249e-04 0.0000000000000000e+00  8.3943630542966099e-05 -8.7955531044847128e-05 0.0000000000000000e+00  1.1076292917672151e-04 -6.2266736116445878e-05 0.0000000000000000e+00  7.5645565826666647e-05 1.1902878820047269e-04 0.0000000000000000e+00  6.2811801315462612e-05 1.5125692667433382e-04 0.0000000000000000e+00  1.0831797858714572e-04 8.9283534407695809e-05 0.0000000000000000e+00  1.4699443603773447e-04 2.4433477856418187e-05 0.0000000000000000e+00  1.3165294563115639e-04 5.9586412904714612e-05 0.0000000000000000e+00  -1.1592128057501333e-04 1.4326316224224149