<?xml version="1.0"?>
<VTKFile type="UnstructuredGrid"  version="0.1"  >
<UnstructuredGrid>
<Piece  NumberOfPoints="2549" NumberOfCells="4928">
<Points>
<DataArray  type="Float64"  NumberOfComponents="3"  format="ascii">1.664937503007732 -0.04383978210196274 0  1.66173445509281 0.004442097835470914 0  1.654552748285341 0.05215354077439849 0  1.64571185705874 0.09996146461069536 0  1.633759551611507 0.1473764392976731 0  1.619310747363429 0.1945679479028893 0  1.60153661856786 0.2409931491686184 0  1.581852583659816 0.2871296521925942 0  1.556621335874108 0.3305228955928992 0  1.529904810535097 0.3721491953834863 0  1.504774372081078 0.4181194212121316 0  1.474762404329447 0.4598790315287477 0  1.443925221360054 0.5017887022646127 0  1.411011212851966 0.542174084345045 0  1.376552865344946 0.5816247912647613 0  1.340837928982476 0.6203411977614349 0  1.302315512934834 0.6561167538430148 0  1.264551702931805 0.6913376629255421 0  1.226574507357834 0.730883095489185 0  1.186347628674153 0.766856095519729 0  1.145828371061664 0.8038474482490032 0  1.103910326504776 0.8395924643300976 0  1.061125106466793 0.8750556904921829 0  1.017061539941275 0.9097034666987751 0  0.9713435636592872 0.9424803945818816 0  0.9252427252392255 0.9738983180905705 0  0.8780020370854623 1.004905990496685 0  0.829839811395559 1.03503716269129 0  0.7807992364287915 1.064412282873314 0  0.7307344696699121 1.092527576755614 0  0.6797090508665437 1.119349676905995 0  0.6277423205786253 1.144728085723589 0  0.5747259891121252 1.168098570910213 0  0.5209880425532716 1.18957193073532 0  0.4664579276799379 1.20962732550388 0  0.4111549062139098 1.227496562732178 0  0.3551920851010594 1.243347407837044 0  0.2986298927542708 1.256970295357253 0  0.2415568632006436 1.268335376386609 0  0.1840761178299586 1.277423347151332 0  0.1262181895322242 1.283895887248327 0  0.06822442041819676 1.287988117525471 0  0.01007932886093532 1.289927377799215 0  -0.04809401152101737 1.289351399581073 0  -0.1062112060370829 1.286341928668159 0  -0.1641563464778479 1.280806047232931 0  -0.2218283853421006 1.27282253552517 0  -0.2791073686675051 1.262211813409326 0  -0.3358961482438081 1.249480525435058 0  -0.3922106013530188 1.234244582853756 0  -0.4477088183010821 1.216265891579871 0  -0.502420194627229 1.19604534191825 0  -0.5562597296090702 1.173750186089715 0  -0.6091016378222039 1.149349496467524 0  -0.6610670918011531 1.123533883609814 0  -0.7118441622564369 1.095536699057797 0  -0.7616394732783144 1.067345812664117 0  -0.8107857554951777 1.037531303943611 0  -0.8583447778093145 1.005523451624022 0  -0.9047821462985812 0.9725931296118292 0  -0.9501774735413046 0.9389923102764628 0  -0.9942716209991751 0.9042136275935972 0  -1.037664136603245 0.8698081035320582 0  -1.079020941359717 0.8322979132217314 0  -1.120068590066901 0.7984689815066107 0  -1.160958944251005 0.7647184787922361 0  -1.200556792936694 0.7296428243029461 0  -1.239548909025896 0.6949194341654354 0  -1.27738388715606 0.6594190388317511 0  -1.315500842184951 0.6259278646798379 0  -1.353398102925767 0.5911720619163612 0  -1.389542646363239 0.5572049876727675 0  -1.428524015954115 0.5229786806081741 0  -1.456225443703973 0.4767621702671784 0  -1.487460062130102 0.4341268790701879 0  -1.513944490338497 0.3887621309047438 0  -1.538074993927876 0.3422573964184477 0  -1.556022588505956 0.2925579783495887 0  -1.574087646201008 0.244593548918974 0  -1.577787691100315 0.1897804262972363 0  -1.591496010479832 0.1444721563333375 0  -1.602258684565427 0.09707272517463293 0  -1.598104345455119 0.0482264315949715 0  -1.601806857592028 0.001312976117665219 0  -1.600926168420234 -0.04526074361257629 0  -1.603155870084037 -0.09189278230834687 0  -1.600789158910276 -0.1390550712415716 0  -1.605811700715855 -0.1883436892044976 0  -1.596258487536346 -0.2362372642766649 0  -1.583551171135452 -0.2821023751617765 0  -1.581211709997314 -0.3381496497128298 0  -1.563722351502284 -0.3867820389975221 0  -1.546158248550285 -0.4371962841243497 0  -1.522035899867015 -0.4840713013727317 0  -1.495142396811568 -0.5294658174997495 0  -1.464239891760826 -0.5722972715271993 0  -1.436473382671597 -0.6186707087096478 0  -1.397144430796201 -0.6531506713022871 0  -1.361061746988993 -0.6874546591198555 0  -1.322983235398135 -0.7222711852754272 0  -1.284936025428003 -0.7560240701066134 0  -1.247265586377721 -0.7919997861714805 0  -1.208486851479169 -0.8273085781760741 0  -1.169147583425616 -0.8631333906378024 0  -1.128691969920327 -0.8978718385237906 0  -1.087929740315549 -0.9329309957211086 0  -1.047235177482969 -0.9727819264421982 0  -1.004004463480443 -1.008786108390964 0  -0.9601063104042237 -1.045369012348017 0  -0.9148607325106154 -1.080865057878774 0  -0.8685181678395013 -1.115772553073701 0  -0.8209481378309953 -1.149723004342503 0  -0.7720493568643461 -1.182099770704728 0  -0.7221662836807167 -1.213630740157091 0  -0.6713645240938377 -1.245687234740793 0  -0.6187879153785447 -1.274189532878117 0  -0.5653444813642046 -1.301211606979745 0  -0.5107339199538475 -1.325791118146983 0  -0.4551516989612307 -1.348054285765531 0  -0.3987310306167265 -1.367946671616572 0  -0.3412339503447055 -1.38437744870472 0  -0.2833267537493107 -1.397978902501981 0  -0.2248880896143879 -1.409584513170221 0  -0.1659746077995612 -1.418225376290692 0  -0.1067399600189866 -1.424195106287689 0  -0.04728788923564198 -1.427286983357763 0  0.01224391612932882 -1.427541747150294 0  0.07172868878862852 -1.42488762650273 0  0.1310291778525204 -1.419300014077575 0  0.1899613136343861 -1.411014259865691 0  0.2484702528706012 -1.400280771895529 0  0.3064533193519647 -1.387062656565594 0  0.3638284470624699 -1.371512174545473 0  0.4204856705182933 -1.353631653742212 0  0.4763946030097099 -1.333820009095209 0  0.5314106673143292 -1.311672008358437 0  0.5855620991671973 -1.28869176336028 0  0.6390922053364102 -1.263661634298578 0  0.691315675507097 -1.236193831457707 0  0.7425519809777096 -1.20743325070732 0  0.7927438534042491 -1.177433251193988 0  0.8418551739047182 -1.14627362119138 0  0.8900193233009934 -1.114410490258081 0  0.9372178437003209 -1.081809582901645 0  0.9832669585118907 -1.048959350849826 0  1.028856363887794 -1.014666695771877 0  1.07277919753933 -0.9786383238276124 0  1.115391426304908 -0.9418776445669833 0  1.157105796027035 -0.9048876096312386 0  1.197399445618001 -0.8667166787407804 0  1.237361931684571 -0.8296010231893576 0  1.274939013106347 -0.788785792272345 0  1.312487373426595 -0.7527930763515803 0  1.350701168756869 -0.7161877660235236 0  1.386132622674856 -0.6766996295674681 0  1.420312324571541 -0.6365492563893614 0  1.452924860340756 -0.5954819515160893 0  1.483444623105447 -0.5529128119699732 0  1.513082170227872 -0.5105014376625662 0  1.537745319371248 -0.4638151782341035 0  1.564125727207306 -0.4217119075602998 0  1.588842960679734 -0.3777223209082853 0  1.607901332130288 -0.3309900571227762 0  1.624963535030678 -0.2840104850348296 0  1.638598176996813 -0.236299784065305 0  1.649492107662782 -0.1883766927686784 0  1.657296979538982 -0.1402198723848408 0  1.662939798637365 -0.09217493907679908 0  -0.09056959209372631 0.7657613428908097 0  0.6196538350694302 -0.7103998300610659 0  -0.7514002031629129 -0.6255649181195377 0  -0.06715962796345898 -0.8738766994593791 0  0.6156975388979563 0.5998112341656623 0  1.183742196290747 0.1956320503007233 0  -0.7640592215872939 0.5103219477067662 0  -1.25153251770012 -0.05035434601018206 0  1.188258086338851 -0.2913387435411637 0  -1.049747956053838 -0.4584075412931423 0  -0.8074512394560377 -0.06534120114598574 0  -0.4776565276419159 -0.2352352722166403 0  -1.06044966403447 0.3388538246694137 0  0.2935854697038725 -0.8520839399391692 0  0.1483829451448339 -0.2934374582706122 0  0.2573143821254544 0.7297103097765869 0  0.3540681594812037 0.1887487120775103 0  0.6768940305284931 -0.04956820935901159 0  -0.4077155064919809 -0.7714813904951777 0  -0.4442232551040036 0.6766630303611464 0  -0.271920678385904 0.2425342513910613 0  0.934268660357513 -0.4921795671013751 0  0.9299842331408443 0.3920171530208811 0  0.4231171602428104 -0.3238288677813039 0  0.03930986176950757 0.2377616664483678 0  -0.5422950179946696 0.1844608895741771 0  -0.1673983703798992 -0.2862619517405762 0  0.966855248384595 -0.04879280047630456 0  1.382250947896645 -0.04606123883079482 0  0.7772185233808777 -0.5986215684597206 0  0.7976354912284828 -0.2791806963891476 0  0.6399274141122123 -0.376861492016572 0  0.5487874749433369 -0.1831689668741633 0  0.5161014233713963 -0.5216481583823804 0  0.9442031639848472 -0.2689371367554701 0  0.8212558858160594 -0.04915126968780616 0  -0.9261776207219677 0.1447802499168662 0  -1.152267142676777 0.1412828097638892 0  -1.031940094477716 -0.05698120813000968 0  -0.9206703399460617 -0.2693915290992255 0  -1.147700826205476 -0.2506066469890634 0  -1.325694640374304 -0.3453421509688751 0  -1.416162012490351 -0.1609921458521729 0  -1.413592549771568 0.06451270710380097 0  -1.320360527306144 0.2475262779804729 0  -0.1177907386038124 -0.5794998579922638 0  -0.2816531243353184 -0.5339489461781116 0  -0.2385321330774844 -0.8277005537851578 0  -0.3219269543973853 -0.261794883453857 0  -0.4394027018801737 -0.5008554372889654 0  -1.239579343563509 -0.5412057135226651 0  -1.240578089981971 0.4352581441092431 0  0.3572834637110515 -0.585511901070122 0  0.2849913578725604 -0.3101101105501879 0  0.2160458951085666 -0.5752686259894757 0  -0.911691239616363 0.4205595655768573 0  -0.7775835408565042 0.2205861585513673 0  1.374072123910186 -0.3663565489327671 0  1.240218959823571 -0.5288316882792073 0  1.232917558230521 0.4328967851980398 0  1.368028437520543 0.2731894461284249 0  -0.7501226322475355 -0.9043794256302438 0  -0.9306420532203195 -0.7749047022850399 0  -0.9330853107288702 0.667261541814818 0  -0.7529956159256657 0.7889807482390826 0  0.7894851944056485 -0.8922150029384331 0  0.5962183074343204 -0.9992883320788994 0  0.589630137064163 0.8843098331657483 0  0.7821050392694162 0.7837455270834524 0  0.0223
[...]
<PointData  Vectors="f_4505"> 
<DataArray  type="Float64"  Name="f_4505"  NumberOfComponents="3" format="ascii">-1.5136145203103470e-04 3.7598828658899144e-05 0.0000000000000000e+00  -1.5061616336187804e-04 3.3505808183506783e-05 0.0000000000000000e+00  -1.4798892104496929e-04 2.9821515502019159e-05 0.0000000000000000e+00  -1.4499140592404229e-04 2.6283695975307034e-05 0.0000000000000000e+00  -1.4141012629381909e-04 2.3087115375440766e-05 0.0000000000000000e+00  -1.3643772947219188e-04 2.0364352061867784e-05 0.0000000000000000e+00  -1.3172218274913388e-04 1.8091329061740516e-05 0.0000000000000000e+00  -1.2460050058521002e-04 1.6540093512850960e-05 0.0000000000000000e+00  -1.1818573482083140e-04 1.5758035605739827e-05 0.0000000000000000e+00  -1.1027567337551527e-04 1.6064601779420932e-05 0.0000000000000000e+00  -1.0007393442529852e-04 1.7810924778554906e-05 0.0000000000000000e+00  -9.2491188828980046e-05 1.8786898218929447e-05 0.0000000000000000e+00  -8.3072703918644545e-05 2.1310898861889015e-05 0.0000000000000000e+00  -7.3224257077831247e-05 2.5043701353104696e-05 0.0000000000000000e+00  -6.3548192827492047e-05 2.9971905694048369e-05 0.0000000000000000e+00  -5.5424889519427893e-05 3.3062103292716709e-05 0.0000000000000000e+00  -4.1331149383541833e-05 4.4031313132761879e-05 0.0000000000000000e+00  -3.2789091831241722e-05 4.9825170655891096e-05 0.0000000000000000e+00  -2.3098933988494595e-05 5.7517138110990538e-05 0.0000000000000000e+00  -1.2696370102359775e-05 6.6306954085793251e-05 0.0000000000000000e+00  -4.1041377423175757e-06 7.3855791771944046e-05 0.0000000000000000e+00  5.1292559571955667e-06 8.2888238323614515e-05 0.0000000000000000e+00  1.4602334416526785e-05 9.3770086530928614e-05 0.0000000000000000e+00  2.2533085554072621e-05 1.0336002597771155e-04 0.0000000000000000e+00  3.1418220190127433e-05 1.1628964429439279e-04 0.0000000000000000e+00  3.8887890304766530e-05 1.2827602686545585e-04 0.0000000000000000e+00  4.5423532295112985e-05 1.4005308476890130e-04 0.0000000000000000e+00  5.1217006451233049e-05 1.5179204646481039e-04 0.0000000000000000e+00  5.6341785672521780e-05 1.6346891487475912e-04 0.0000000000000000e+00  6.0775644468389767e-05 1.7521549451327158e-04 0.0000000000000000e+00  6.4666581125346961e-05 1.8736654729908334e-04 0.0000000000000000e+00  6.7953864742171998e-05 1.9966831280582301e-04 0.0000000000000000e+00  7.0159344441488790e-05 2.1173606961377036e-04 0.0000000000000000e+00  7.1614752430181958e-05 2.2397275614355932e-04 0.0000000000000000e+00  7.2299587181826795e-05 2.3579917169313841e-04 0.0000000000000000e+00  7.1821590483356874e-05 2.4671133069730937e-04 0.0000000000000000e+00  7.0606896729324498e-05 2.5718073828814907e-04 0.0000000000000000e+00  6.8431021944474974e-05 2.6658301416378113e-04 0.0000000000000000e+00  6.5437622752396936e-05 2.7494296595201892e-04 0.0000000000000000e+00  6.1736690926279534e-05 2.8190261595414652e-04 0.0000000000000000e+00  5.7299178790939845e-05 2.8713194775062281e-04 0.0000000000000000e+00  5.2459117937752697e-05 2.9058520132899514e-04 0.0000000000000000e+00  4.7351929581953061e-05 2.9214656411643945e-04 0.0000000000000000e+00  4.2211549726589715e-05 2.9165390807974801e-04 0.0000000000000000e+00  3.7219291678371394e-05 2.8925864920310303e-04 0.0000000000000000e+00  3.2607872596350091e-05 2.8497360840172819e-04 0.0000000000000000e+00  2.8514066278741015e-05 2.7904265118542542e-04 0.0000000000000000e+00  2.5170807314578156e-05 2.7149059084037006e-04 0.0000000000000000e+00  2.2643229120286803e-05 2.6245864701998037e-04 0.0000000000000000e+00  2.1004670499990915e-05 2.5246616238004563e-04 0.0000000000000000e+00  2.0500002498902476e-05 2.4174773711234677e-04 0.0000000000000000e+00  2.0930207965516903e-05 2.3034198935439971e-04 0.0000000000000000e+00  2.2076130171659327e-05 2.1906797797961936e-04 0.0000000000000000e+00  2.4468250922062991e-05 2.0707373582948933e-04 0.0000000000000000e+00  2.7092398267178542e-05 1.9565259952765375e-04 0.0000000000000000e+00  3.1286262930683449e-05 1.8325604352431352e-04 0.0000000000000000e+00  3.6293098981797110e-05 1.7029638360968540e-04 0.0000000000000000e+00  4.2185560913328829e-05 1.5748743087612782e-04 0.0000000000000000e+00  4.9025103729189300e-05 1.4543863645703100e-04 0.0000000000000000e+00  5.6830835893455009e-05 1.3292526966745066e-04 0.0000000000000000e+00  6.4673467346657137e-05 1.2182736029252160e-04 0.0000000000000000e+00  7.3632770666292300e-05 1.1061434291660605e-04 0.0000000000000000e+00  8.1546425961554774e-05 1.0145633565437178e-04 0.0000000000000000e+00  9.3701531272231668e-05 8.7846668662223870e-05 0.0000000000000000e+00  1.0434935513187500e-04 7.7428701742017933e-05 0.0000000000000000e+00  1.1694129360455327e-04 6.5847628211323614e-05 0.0000000000000000e+00  1.2965893961816054e-04 5.5214823598563748e-05 0.0000000000000000e+00  1.4284696642969679e-04 4.5589129599278724e-05 0.0000000000000000e+00  1.5659172747327165e-04 3.5566412055611059e-05 0.0000000000000000e+00  1.7449809952559459e-04 2.3589323274216452e-05 0.0000000000000000e+00  1.9244858760145335e-04 1.2442496259846764e-05 0.0000000000000000e+00  1.9975811764997599e-04 1.7736028952730019e-05 0.0000000000000000e+00  2.2554569020562292e-04 -6.9976181180833828e-07 0.0000000000000000e+00  2.4612478735973027e-04 -2.3417022265660825e-06 0.0000000000000000e+00  2.3324312927442751e-04 6.1004778146812471e-06 0.0000000000000000e+00  2.3918377708914332e-04 8.3020460013041685e-06 0.0000000000000000e+00  2.4389778283345312e-04 9.5861599836888275e-06 0.0000000000000000e+00  2.5151509430218927e-04 1.2811695389640298e-05 0.0000000000000000e+00  2.4884985083851243e-04 1.7687269345740741e-05 0.0000000000000000e+00  2.6679613298331389e-04 1.9986052270756321e-05 0.0000000000000000e+00  2.6059615051730542e-04 2.6113905771424745e-05 0.0000000000000000e+00  2.5450454052638051e-04 3.0130281513047822e-05 0.0000000000000000e+00  2.7308076982761456e-04 3.5365299797579019e-05 0.0000000000000000e+00  2.6802228689862744e-04 3.9354374896296966e-05 0.0000000000000000e+00  2.6811564299921028e-04 4.2938663398231668e-05 0.0000000000000000e+00  2.6915017817097332e-04 4.6969977213922036e-05 0.0000000000000000e+00  2.7121866762276566e-04 5.1092895730009599e-05 0.0000000000000000e+00  2.7054065227798536e-04 5.6217605147528551e-05 0.0000000000000000e+00  2.7073087793805852e-04 6.0659999653106837e-05 0.0000000000000000e+00  2.7181725144032190e-04 6.5814653267117163e-05 0.0000000000000000e+00  2.6180146744002330e-04 7.0231825427076650e-05 0.0000000000000000e+00  2.6118187126449580e-04 7.4881789952337515e-05 0.0000000000000000e+00  2.5362438785609792e-04 7.8216803177362385e-05 0.0000000000000000e+00  2.4812859579617809e-04 8.0276668361956236e-05 0.0000000000000000e+00  2.3999847702776657e-04 8.1559628952052179e-05 0.0000000000000000e+00  2.4818317772832687e-04 8.9066998941964538e-05 0.0000000000000000e+00  2.3068685430572267e-04 8.8640288616859895e-05 0.0000000000000000e+00  2.0636173867152739e-04 7.2417655673588592e-05 0.0000000000000000e+00  1.9814590312340659e-04 7.5982804867645329e-05 0.0000000000000000e+00  1.8057645698868057e-04 6.5730033977652895e-05 0.0000000000000000e+00  1.6352870874121629e-04 5.4909480597448915e-05 0.0000000000000000e+00  1.4994653563585043e-04 4.5665309957943295e-05 0.0000000000000000e+00  1.3680073241193413e-04 3.6574079830821518e-05 0.0000000000000000e+00  1.2425254734546004e-04 2.6707295640252778e-05 0.0000000000000000e+00  1.1237377089264371e-04 1.6592698775683370e-05 0.0000000000000000e+00  1.0257775240238705e-04 8.0691361229405512e-06 0.0000000000000000e+00  8.9784148914025052e-05 -5.0677021684116402e-06 0.0000000000000000e+00  8.2850201751302969e-05 -1.2190607657083780e-05 0.0000000000000000e+00  7.4451467855044646e-05 -2.1510569198484921e-05 0.0000000000000000e+00  6.7029906414853125e-05 -3.0947397735494476e-05 0.0000000000000000e+00  5.9674030659439077e-05 -4.1370193766441367e-05 0.0000000000000000e+00  5.3485726292038102e-05 -5.1265683660000083e-05 0.0000000000000000e+00  4.7890554942279260e-05 -6.1583390171078372e-05 0.0000000000000000e+00  4.4457140713583300e-05 -7.0042535732567850e-05 0.0000000000000000e+00  3.8754551088005337e-05 -8.1370826469152923e-05 0.0000000000000000e+00  3.6796342749555366e-05 -8.9479329843115306e-05 0.0000000000000000e+00  3.3626051293994469e-05 -9.9341967063927022e-05 0.0000000000000000e+00  3.1790148931457131e-05 -1.0889060979361553e-04 0.0000000000000000e+00  3.0366282643794678e-05 -1.1904954911934053e-04 0.0000000000000000e+00  2.9520909204000240e-05 -1.2912027052106525e-04 0.0000000000000000e+00  3.0089921302899018e-05 -1.3860116413357890e-04 0.0000000000000000e+00  3.1438853363031118e-05 -1.4749886565993282e-04 0.0000000000000000e+00  3.3577297733884558e-05 -1.5498446595796486e-04 0.0000000000000000e+00  3.6507078228291074e-05 -1.6096869631448146e-04 0.0000000000000000e+00  3.9932737116787506e-05 -1.6560797982447027e-04 0.0000000000000000e+00  4.3762277593787013e-05 -1.6866408835193282e-04 0.0000000000000000e+00  4.7792631645001710e-05 -1.7021043045511682e-04 0.0000000000000000e+00  5.1846204609542557e-05 -1.7009290407570514e-04 0.0000000000000000e+00  5.5746143600362719e-05 -1.6853970174853238e-04 0.0000000000000000e+00  5.9280373906876667e-05 -1.6543117990597354e-04 0.0000000000000000e+00  6.2377025294643268e-05 -1.6101227736619117e-04 0.0000000000000000e+00  6.4846662016422918e-05 -1.5526600901857551e-04 0.0000000000000000e+00  6.6713793575538761e-05 -1.4857083941520745e-04 0.0000000000000000e+00  6.7685560241741819e-05 -1.4066614143935013e-04 0.0000000000000000e+00  6.8188202035696500e-05 -1.3251218359359429e-04 0.0000000000000000e+00  6.7450593733334619e-05 -1.2291204108782499e-04 0.0000000000000000e+00  6.5955057081098963e-05 -1.1251380125389143e-04 0.0000000000000000e+00  6.3856516939329646e-05 -1.0238891072446661e-04 0.0000000000000000e+00  6.0371866815153640e-05 -9.1688745369682947e-05 0.0000000000000000e+00  5.6601428937713916e-05 -8.1269011411564670e-05 0.0000000000000000e+00  5.2170964273270136e-05 -7.1029881781593828e-05 0.0000000000000000e+00  4.7129693980651634e-05 -6.0778412347350980e-05 0.0000000000000000e+00  4.1388477121458970e-05 -5.0394139873945311e-05 0.0000000000000000e+00  3.4856871864341987e-05 -3.9781798624933042e-05 0.0000000000000000e+00  2.7248116083738004e-05 -2.8711680615351120e-05 0.0000000000000000e+00  1.8557338620784711e-05 -1.7243854093744043e-05 0.0000000000000000e+00  1.0535038389861319e-05 -8.3226738048105709e-06 0.0000000000000000e+00  1.0858182930334883e-06 1.6496758833421521e-06 0.0000000000000000e+00  -8.3430619997137173e-06 1.0163117320751574e-05 0.0000000000000000e+00  -1.7252771592135071e-05 1.7395090828617761e-05 0.0000000000000000e+00  -2.7542021704605434e-05 2.5221387728471059e-05 0.0000000000000000e+00  -3.7396662714652502e-05 3.2384212181574238e-05 0.0000000000000000e+00  -4.6798164899793278e-05 3.8301653862315642e-05 0.0000000000000000e+00  -5.9929615062346210e-05 4.7444343470856386e-05 0.0000000000000000e+00  -6.8628505910739226e-05 5.0662358440853283e-05 0.0000000000000000e+00  -7.8459412016756584e-05 5.5066201427500660e-05 0.0000000000000000e+00  -8.8390979034348545e-05 5.8368844666466939e-05 0.0000000000000000e+00  -9.7935259541300225e-05 6.0593749242414280e-05 0.0000000000000000e+00  -1.0584622562629615e-04 6.1319099437887341e-05 0.0000000000000000e+00  -1.1537227304103887e-04 6.2239243666186591e-05 0.0000000000000000e+00  -1.2342549332445115e-04 6.2244661463097792e-05 0.0000000000000000e+00  -1.2963969494311702e-04 6.0941719899991275e-05 0.0000000000000000e+00  -1.3634575493350680e-04 5.9013646019711506e-05 0.0000000000000000e+00  -1.4089189672222228e-04 5.6325767634199146e-05 0.0000000000000000e+00  -1.4531383096620342e-04 5.3220450438388779e-05 0.0000000000000000e+00  -1.4828976013409406e-04 4.9628345516933532e-05 0.0000000000000000e+00  -1.5066883613526605e-04 4.5825690917490066e-05 0.0000000000000000e+00  -1.5132196833925031e-04 4.1673342119295295e-05 0.0000000000000000e+00  5.3794044342558210e-05 1.9948455003924014e-04 0.0000000000000000e+00  -7.1802648793128591e-06 -4.6093484626604506e-05 0.0000000000000000e+00  1.3517799806996079e-04 -1.9312916792510781e-05 0.0000000000000000e+00  5.5956854807200010e-05 -9.0913946588345402e-05 0.0000000000000000e+00  -8.6566064396050420e-06 1.3682052642915066e-04 0.0000000000000000e+00  -9.7387049288272026e-05 4.9889547912458815e-05 0.0000000000000000e+00  1.3596168949714236e-04 1.1453251790290429e-04 0.0000000000000000e+00  2.3396117690284782e-04 4.4733367773002875e-05 0.0000000000000000e+00  -9.9291658762420694e-05 3.0748798698064376e-05 0.0000000000000000e+00  1.9225871065482657e-04 2.3604176941480683e-05 0.0000000000000000e+00  1.7410332357547747e-04 4.5275372973454478e-05 0.0000000000000000e+00  1.2241074930551508e-04 1.9874951399049105e-05 0.0000000000000000e+00  1.9314959060456687e-04 6.4903211815292138e-05 0.0000000000000000e+00  2.8769610490748342e-05 -8.4395760200577368e-05 0.0000000000000000e+00  3.1234867359022427e-05 4.8498863044038850e-06 0.0000000000000000e+00  2.7832788705940361e-05 1.8532273492627489e-04 0.0000000000000000e+00  1.7439819707416620e-06 8.7381454384975957e-05 0.0000000000000000e+00  -4.3835554614192777e-05 4.3912917853048803e-05 0.0000000000000000e+00  8.7711779768590017e-05 -6.1397688384728081e-05 0.0000000000000000e+00  8.6655497012761082e-05 1.6691957926699409e-04 0.0000000000000000e+00  8.9084266581290791e-05 1.0085023264840213e-04 0.0000000000000000e+00  -5.7226483434110666e-05 1.3331001757814121e-06 0.0000000000000000e+00  -5.6315794255116292e-05 8.2948430212891657e-05 0.0000000000000000e+00  -5.6707341577320634e-06 1.7479238317933274e-06 0.0000000000000000e+00  4.5247451816945560e-05 1.0164443157054995e-04 0.0000000000000000e+00  1.2993255816397121e-04 8.4099332479362478e-05 0.0000000000000000e+00  7.6131972120730288e-05 7.5182743958197696e-06 0.0000000000000000e+00  -8.0436978793144409e-05 4.1577214438553149e-05 0.0000000000000000e+00  -1.2608686622565679e-04 3.9254386544876383e-05 0.0000000000000000e+00  -3.1797362530843630e-05 -2.1114082577458758e-05 0.0000000000000000e+00  -5.5012661561696159e-05 1.6062057610492277e-05 0.0000000000000000e+00  -3.1495157819395894e-05 -1.1095389457678477e-06 0.0000000000000000e+00  -2.5473642686654561e-05 2.4912248120772617e-05 0.0000000000000000e+00  -9.7728613966508476e-06 -2.6035241686030232e-05 0.0000000000000000e+00  -7.3076514736821271e-05 2.1679890674589939e-05 0.0000000000000000e+00  -6.2473157156873367e-05 4.2703833323831348e-05 0.0000000000000000e+00  1.8726209948997244e-04 6.2365917112944388e-05 0.0000000000000000e+00  2.1757328209185642e-04 4.8704788050110830e-05 0.0000000000000000e+00  2.0618556807849807e-04 4.5205505998066389e-05 0.0000000000000000e+00  1.8654846996170939e-04 2.7838229953091809e-05 0.0000000000000000e+00  2.1876023085843783e-04 4.0646585767480369e-05 0.0000000000000000e+00  2.3693982737606087e-04 5.4017185149304723e-05 0.0000000000000000e+00  2.5270723138964135e-04 5.0821330267866624e-05 0.0000000000000000e+00  2.4933552368544033e-04 3.7747018623168718e-05 0.0000000000000000e+00  2.3143216898603640e-04 3.4544300513843302e-05 0.0000000000000000e+00  6.5623689985622584e-05 -4.2903768496265138e-05 0.0000000000000000e+00  8.6505730072182870e-05 -3.1753334601806852e-05 0.0000000000000000e+00  7.0481729686077598e-05 -7.8214671972289763e-05 0.0000000000000000e+00  9.8917161137991136e-05 1.3430360723188460e-05 0.0000000000000000e+00  1.0763132686123968e-04 -2.1435396430422286e-05 0.0000000000000000e+00  2.0984521934209154e-04 4.6448032244451880e-05 0.0000000000000000e+00  2.0716978339892691e-04 4.1296172733577556e-05 0.0000000000000000e+00  1.0995048095093973e-05 -4.1203704606391264e-05 0.0000000000000000e+00  1.2583871280233394e-05 2.5196905920863075e-06 0.0000000000000000e+00  2.6624710101809105e-05 -4.2643816924194610e-05 0.0000000000000000e+00  1.6467060046302832e-04 8.8773215531327783e-05 0.0000000000000000e+00  1.6250322213290198e-04 7.8507581098629121e-05 0.0000000000000000e+00  -1.1232990802419751e-04 4.2191282659922672e-05 0.0000000000000000e+00  -8.2170027662827576e-05 2.8340189901895837e-05 0.0000000000000000e+00  -7.8658638445104460e-05 5.2482509490532415e-05 0.0000000000000000e+00  -1.0868892636891037e-04 3.6868192042706126e-05 0.0000000000000000e+00  9.6132118309804913e-05 -4.5886643336751189e-05 0.0000000000000000e+00  1.3029112775066523e-04 -1.3458849199017504e-05 0.0000000000000000e+00  1.2754996734462090e-04 1.0844785591494683e-04 0.0000000000000000e+00  9.2887520907618994e-05 1.4719908455867989e-04 0.0000000000000000e+00  2.7926270709383608e-06 -4.9670615577048899e-05 0.0000000000000000e+00  2.4859067881869207e-05 -8.2638835230738674e-05 0.0000000000000000e+00  2.4336916839645734e-05 1.7715759039790350e-04 0.0000000000000000e+00  3.4458694991648304e-06 1.3880027231922016e-04 0.0000000000000000e+00  4.9434713378836616e-05 -1.3401171888517723e-04 0.0000000000000000e+00  5.3544023909244194e-05 -1.2426916341990124e-04 0.0000000000000000e+00  4.8665011387901143e-05 2.3975199945815980e-04 0.0000000000000000e+00  4.6076766419747718e-05 2.4822984255309585e-04 0.0000000000000000e+00  1.2086470621135045e-05 -6.6357438300172796e-05 0.0000000000000000e+00  -2.1468718192664541e-05 6.3375324970551644e-05 0.0000000000000000e+00  -3.2264266494399886e-05 8.9697636366790106e-05 0.0000000000000000e+00  -8.0253675594018790e-06 1.1753615596751059e-04 0.0000000000000000e+00  1.3311142851055516e-04 -5.7233639510459425e-06 0.0000000000000000e+00  1.4852957822381987e-04 3.4718937499750522e-05 0.0000000000000000e+00  1.6156848575763381e-04 1.3707072692858792e-05 0.0000000000000000e+00  2.3480631606541955e-05 9.5319328364941940e-05 0.0000000000000000e+00  3.8014904371636382e-05 5.2382585980711214e-05 0.0000000000000000e+00  1.5306183651811656e-05 4.7590590241081383e-05 0.0000000000000000e+00  1.6330221146274742e-04 1.4167251217438646e-05 0.0000000000000000e+00  1.6177427397795182e-04 7.6544437619280268e-05 0.0000000000000000e+00  1.6332716035070741e-04 2.4739086529038072e-06 0.0000000000000000e+00  -5.4994757404096386e-05 6.9901414223962362e-05 0.0000000000000000e+00  -3.2057859739282602e-05 1.0826510795295855e-04 0.0000000000000000e+00  -7.2544101098993057e-05 6.1925478620769212e-05 0.0000000000000000e+00  1.3809755836158438e-05 1.3565826950152587e-04 0.0000000000000000e+00  1.0843552768574628e-05 1.6245287795099174e-04 0.0000000000000000e+00  4.6641654494745546e-05 -4.5204400690562127e-05 0.0000000000000000e+00  4.2626294083348197e-05 -9.1234025430515537e-05 0.0000000000000000e+00  9.1879062436618463e-05 1.3709911476074204e-04 0.0000000000000000e+00  7.0047651354560771e-05 1.4979409077898036e-04 0.0000000000000000e+00  6.8802212573541746e-05 1.8631461314102870e-04 0.0000000000000000e+00  -4.0331667081294280e-06 4.3275009848429331e-05 0.0000000000000000e+00  5.3520438157842639e-05 5.4478493445439239e-06 0.0000000000000000e+00  3.8150959154497674e-05 -1.0848660048905319e-04 0.0000000000000000e+00  4.6106470268081558e-05 -1.2900895695994172e-04 0.0000000000000000e+00  4.3621464780546354e-05 2.3760697416856663e-04 0.0000000000000000e+00  3.6979344502157500e-05 2.1083496077788070e-04 0.0000000000000000e+00  6.1307267114891229e-05 5.3664495590924940e-05 0.0000000000000000e+00  3.2627288918030001e-05 1.4624357772049929e-04 0.0000000000000000e+00  4.1164023048548172e-05 1.9631602130768753e-04 0.0000000000000000e+00  6.1537994636022867e-05 -1.0252053209117754e-04 0.0000000000000000e+00  7.6212354323851653e-05 -7.3554310526073233e-05 0.0000000000000000e+00  1.0939371933065956e-04 -4.0969707186092225e-05 0.0000000000000000e+00  7.0637433454796519e-05 1.8117949563599330e-04 0.0000000000000000e+00  5.5556078010079768e-05 2.1588509680123011e-04 0.0000000000000000e+00  1.0949089760394133e-04 1.4097244632249299e-04 0.0000000000000000e+00  1.5289326880249432e-04 6.1755361942291196e-05 0.0000000000000000e+00  1.3631132292785353e-04 1.0370722902037192e-04 0.0000000000000000e+00  -1.3942194949662963e-04 3.8613261150615901e-05 0.0000000000000000e+00  -1.294