<?xml version="1.0"?>
<VTKFile type="UnstructuredGrid"  version="0.1"  >
<UnstructuredGrid>
<Piece  NumberOfPoints="2549" NumberOfCells="4928">
<Points>
<DataArray  type="Float64"  NumberOfComponents="3"  format="ascii">1.686723753004033 -0.04729770482256866 0  1.683411945355351 0.001683851298948706 0  1.675845585543184 0.05004307459781794 0  1.666491392323391 0.09845940945120399 0  1.653918543609889 0.1464270038776759 0  1.638609933418429 0.1940796376517869 0  1.619970419850857 0.240887017843121 0  1.599052476404591 0.2872578480586444 0  1.572933362684395 0.3309279364173115 0  1.544483907520582 0.3722618237624128 0  1.517697443038923 0.4179290121214739 0  1.486524966890855 0.4596291943879935 0  1.453916723341371 0.5009153450397683 0  1.419280608294187 0.5405755575797269 0  1.383143447771588 0.5791258999441007 0  1.345849040684664 0.617075666981149 0  1.305803382178574 0.6518763682021037 0  1.265475445375295 0.6849688776171087 0  1.225940223466115 0.7230025238659672 0  1.184446468829088 0.7580918048712784 0  1.142101760032773 0.7931777335921226 0  1.098608203217613 0.8271934797315741 0  1.05415060932446 0.8605361135815238 0  1.008766316285781 0.8933229940537145 0  0.9619453344742565 0.9244402328860408 0  0.9142175351139396 0.9529916565618801 0  0.8660577706156832 0.9820893538495672 0  0.8170462698171043 1.010343274808972 0  0.7671748532525582 1.037619837538967 0  0.7164366310534254 1.063723030694053 0  0.6648481391167529 1.088481478512644 0  0.6124555049419114 1.111857671586829 0  0.5591724438858141 1.13327672331977 0  0.5052955055920584 1.15278760746932 0  0.450782323137809 1.171071144030036 0  0.3956547326911048 1.187330586741818 0  0.339988196858802 1.201689657152462 0  0.2838557651401231 1.214033604504229 0  0.2273260979710576 1.224322317540376 0  0.1704826981457519 1.23260456888371 0  0.1133431932976508 1.238540885353054 0  0.05610903147378 1.242397282111473 0  -0.001256191344457183 1.244407772632988 0  -0.05866556612395717 1.244209569712634 0  -0.1160566611372797 1.241871436719263 0  -0.1733488901042043 1.237292415146543 0  -0.2304562459978172 1.23049572039796 0  -0.2872951014660261 1.221322803052302 0  -0.3437745854476209 1.21026011893977 0  -0.3999199550865908 1.196801464544925 0  -0.4554335618020262 1.180712664878847 0  -0.5102979707211835 1.162454699830698 0  -0.5644147261045384 1.142078169965163 0  -0.6177082743119461 1.119699544298919 0  -0.6701291009717988 1.095653423658436 0  -0.7215870035410855 1.069649501751506 0  -0.7722872515604086 1.043726316810182 0  -0.8223007766690658 1.015788010915272 0  -0.8709447374558524 0.9857291165290383 0  -0.9186051168105082 0.9548026261182688 0  -0.965249774779292 0.9230023874839139 0  -1.010801796894528 0.890140101129022 0  -1.055422866655098 0.8571259932500879 0  -1.0984990429037 0.8216547860064561 0  -1.141310380007059 0.7896056856926426 0  -1.18423176010315 0.7578432683723809 0  -1.225577039716157 0.7242268053365134 0  -1.266345104248066 0.6908442479284906 0  -1.306403602462082 0.6572216737730581 0  -1.34625474440311 0.6243667394381012 0  -1.385197897211933 0.5903624441346689 0  -1.426560148443622 0.5613827579815814 0  -1.465639750799544 0.5256278876351257 0  -1.496506194013294 0.4798611104580521 0  -1.52826165244633 0.4367844035334563 0  -1.555955627494813 0.390900918345905 0  -1.581264746038778 0.3441128690411694 0  -1.600778897562537 0.2938970879968567 0  -1.618657473105146 0.2449887972527599 0  -1.624887219741705 0.1896088831405475 0  -1.638425600898711 0.1432818244890361 0  -1.648791296117982 0.09503705552232933 0  -1.64671165497456 0.04518821793458196 0  -1.649816706518936 -0.00256941577715375 0  -1.648991287190848 -0.0499525647713082 0  -1.651274817457436 -0.09741182907047731 0  -1.649357692673082 -0.1454154366772228 0  -1.653154442827877 -0.1957469068170365 0  -1.643744672230993 -0.2444936241150459 0  -1.631225867689471 -0.2913828753045925 0  -1.626688857862996 -0.34819523559166 0  -1.609334880687788 -0.3978053466141048 0  -1.590325534338682 -0.4488683239806163 0  -1.565069302119851 -0.4961458540048184 0  -1.53723574686194 -0.5423215631341896 0  -1.505012536011552 -0.5852591541921401 0  -1.474155863468976 -0.6311744160939031 0  -1.435542164743759 -0.6680645075013323 0  -1.393861355540946 -0.6968116961241664 0  -1.354982195173553 -0.7312020084202737 0  -1.315145574059137 -0.7643177492716392 0  -1.275233022030695 -0.798434539613303 0  -1.234658214726833 -0.8324307592597477 0  -1.193580898320694 -0.8668451821381662 0  -1.150985186807628 -0.8995574074276002 0  -1.108674917467399 -0.9331770803596628 0  -1.066095608767608 -0.9709058197932363 0  -1.021770630182577 -1.005733443678597 0  -0.9764965757497727 -1.040647395123765 0  -0.9300815464580163 -1.074570161239799 0  -0.8826062318715047 -1.107767293560011 0  -0.834070063474086 -1.140137365662247 0  -0.7842529260415383 -1.170769035814404 0  -0.733724523113931 -1.200836513557502 0  -0.6819704238682143 -1.230959597462593 0  -0.6289395115535963 -1.257955064990823 0  -0.5748626164070426 -1.283077549135664 0  -0.5198100032863802 -1.30574212172326 0  -0.4638850080881622 -1.32596364549315 0  -0.4072207017943187 -1.343748365524058 0  -0.3497657002633023 -1.358252232251387 0  -0.2920446740435966 -1.369943157831348 0  -0.2339309932459936 -1.379912249521044 0  -0.1754982534678424 -1.387220293205792 0  -0.1168356000401743 -1.392040255294034 0  -0.05804406576115579 -1.394258640934527 0  0.0007735972711286299 -1.393897267015491 0  0.05951854364168198 -1.390910180167436 0  0.1180802479494094 -1.38527465455898 0  0.1763184417496471 -1.377231970428795 0  0.2341919854929025 -1.366991869505163 0  0.2916327731840911 -1.354540759174483 0  0.3485660635905669 -1.339961247533419 0  0.4049168570065408 -1.323294997643979 0  0.4606169734841441 -1.304778561289997 0  0.5155976703106542 -1.284175818839361 0  0.5699015747291931 -1.263035212048808 0  0.6236786136546945 -1.239754320985079 0  0.676353882035633 -1.214149138559689 0  0.728158070995605 -1.187302299757793 0  0.7790398859342027 -1.159184942990721 0  0.8289938201708335 -1.129994327558898 0  0.878036596144027 -1.099926233512862 0  0.9261945445119203 -1.069166648775308 0  0.9738974228288931 -1.03903631931179 0  1.020639149952275 -1.006357483817067 0  1.065927406689434 -0.9721306297552729 0  1.110252136767749 -0.9374082099234644 0  1.153590272201301 -0.902093880074514 0  1.195741236734045 -0.8657434151990033 0  1.237030289175438 -0.8295052819051644 0  1.276261212277796 -0.7901897211384107 0  1.316325134425245 -0.7561477813545811 0  1.356167449293757 -0.7205453150162253 0  1.39321371174707 -0.6817824601093957 0  1.429098410213341 -0.6424757937214157 0  1.46345926345374 -0.6020831422805808 0  1.495755183503157 -0.5600732733489621 0  1.526604163535417 -0.5177054325804621 0  1.552909912802183 -0.4712473942940292 0  1.580981240073879 -0.4293559107133409 0  1.606599221540632 -0.3850548908619079 0  1.626857683480021 -0.3380349205674955 0  1.644755018521661 -0.2906213912041146 0  1.659185573079519 -0.2423976655056513 0  1.670632387464042 -0.193874739257485 0  1.67887266544203 -0.1450742924197026 0  1.6846967972815 -0.09633210400941558 0  -0.1037967599690029 0.7358130072628263 0  0.6168841792763634 -0.6980564168494894 0  -0.7776401630688663 -0.620709062880508 0  -0.08092820600334695 -0.8550481441371642 0  0.6133751410875083 0.5788697347202411 0  1.196742065153336 0.19004442109188 0  -0.7903077129564883 0.4950671364054927 0  -1.293660765705489 -0.05530049769938956 0  1.201441908206218 -0.2933015902231462 0  -1.084674701880056 -0.4605748012383961 0  -0.8398676778869627 -0.07026883954070506 0  -0.5018568874324245 -0.235939755647971 0  -1.095495123104438 0.3311824915147176 0  0.2845127551526873 -0.8332605271936762 0  0.1392438325639004 -0.2909017099201334 0  0.2485899759623597 0.7011124986684329 0  0.3500534826824594 0.1769603046075772 0  0.6807834454475504 -0.05382378709070597 0  -0.4266394469801363 -0.7589229062384542 0  -0.4628061748714848 0.6528045019253791 0  -0.2906822468844302 0.2289049573724155 0  0.9402439658912679 -0.4885964032266444 0  0.9359729209836263 0.3804868112595686 0  0.4203182575305419 -0.3205333497722003 0  0.02783922569403878 0.2237796007771173 0  -0.5676406259000087 0.1736084568972749 0  -0.1840882507058951 -0.2845487317153592 0  0.9770302914361362 -0.05272783003106489 0  1.400001089399852 -0.04970614153693504 0  0.7787689194932528 -0.590849642347778 0  0.8033899082991274 -0.2783961344741211 0  0.6415811442342677 -0.3729439415042338 0  0.5494705075757939 -0.1839909701153102 0  0.5139112889992766 -0.5132271841750975 0  0.9530440578854066 -0.2692016481999565 0  0.8283607627084248 -0.05323776305445187 0  -0.9606166810854468 0.1372992605444204 0  -1.191585624997516 0.1359051787949488 0  -1.069497524212137 -0.06198296926761475 0  -0.9549974022085179 -0.2718303475823532 0  -1.187101638663804 -0.2551705471793199 0  -1.367682617175308 -0.3523749977597921 0  -1.46122169878427 -0.1671355220835486 0  -1.458404991633222 0.06092718313066016 0  -1.361753087556736 0.2446033154901101 0  -0.1329645184106441 -0.5691780123810837 0  -0.3002309592779931 -0.5259134429031774 0  -0.2547055586117481 -0.8117098207091056 0  -0.3423433274973657 -0.2612632635849301 0  -0.4613596619277771 -0.4948847843134365 0  -1.276648254496902 -0.5472584246720813 0  -1.277201143542821 0.4313240041144153 0  0.3514475546311179 -0.5745191951062846 0  0.2790437371364408 -0.3070465963684937 0  0.2075096962232617 -0.5642623278171146 0  -0.942332513761962 0.4093096334847639 0  -0.8080724010748717 0.2106673183266926 0  1.38920633632736 -0.370362479132872 0  1.250154971434525 -0.5301877710857 0  1.242526461129782 0.4266869967022708 0  1.382781928298637 0.2698220200782107 0  -0.7701832810435142 -0.8954450807035608 0  -0.9559853327576067 -0.7714936418517873 0  -0.9579488129571343 0.6533217794764354 0  -0.7725415620953051 0.7688005994058588 0  0.7847275328567007 -0.8786903226929348 0  0.5876940748574935 -0.9797832314410893 0  0.5815811661745249 0.8559682404024771 0  0.7775990509474373 0.761898090457429 0  0.009820905951750423 -
[...]
<PointData  Vectors="f_2123"> 
<DataArray  type="Float64"  Name="f_2123"  NumberOfComponents="3" format="ascii">-1.3943199997632711e-04 2.2130705411877938e-05 0.0000000000000000e+00  -1.3873593768026432e-04 1.7652777833742128e-05 0.0000000000000000e+00  -1.3627415845019215e-04 1.3506983530115534e-05 0.0000000000000000e+00  -1.3298902569376750e-04 9.6131530207447274e-06 0.0000000000000000e+00  -1.2901754878964447e-04 6.0763866879816473e-06 0.0000000000000000e+00  -1.2351479075199917e-04 3.1251856070555825e-06 0.0000000000000000e+00  -1.1797632821117998e-04 6.7924048318316113e-07 0.0000000000000000e+00  -1.1007931356655682e-04 -8.2045354272150685e-07 0.0000000000000000e+00  -1.0439697158583848e-04 -2.5922612762385430e-06 0.0000000000000000e+00  -9.3306220707105821e-05 -7.2082162512914048e-07 0.0000000000000000e+00  -8.2707654130207038e-05 1.2186181802095737e-06 0.0000000000000000e+00  -7.5280400393009720e-05 1.5989577008262901e-06 0.0000000000000000e+00  -6.3945612680433960e-05 5.5894862390040244e-06 0.0000000000000000e+00  -5.2924130830217418e-05 1.0230571298035729e-05 0.0000000000000000e+00  -4.2179727530507264e-05 1.5992904452227839e-05 0.0000000000000000e+00  -3.2071114894002012e-05 2.0899396993829724e-05 0.0000000000000000e+00  -2.2322363159936745e-05 2.7138468101831358e-05 0.0000000000000000e+00  -5.9119516383397386e-06 4.0760225973973924e-05 0.0000000000000000e+00  4.0594169069983407e-06 5.0435658388593821e-05 0.0000000000000000e+00  1.2167423008417205e-05 5.6091460150084203e-05 0.0000000000000000e+00  2.3850310584902307e-05 6.8286173804035837e-05 0.0000000000000000e+00  3.3933589037842349e-05 7.9353501430550575e-05 0.0000000000000000e+00  4.4636781710926625e-05 9.2925292228217924e-05 0.0000000000000000e+00  5.3089431395163725e-05 1.0483502492838768e-04 0.0000000000000000e+00  6.0148666784196875e-05 1.1545703485338122e-04 0.0000000000000000e+00  7.0561216801830087e-05 1.3380263378361823e-04 0.0000000000000000e+00  7.6443305406586197e-05 1.4602647454155544e-04 0.0000000000000000e+00  8.1878666102110228e-05 1.5804088244682964e-04 0.0000000000000000e+00  8.7196052327893195e-05 1.7147165013981901e-04 0.0000000000000000e+00  9.1506167145515068e-05 1.8434909479398895e-04 0.0000000000000000e+00  9.5109835198660612e-05 1.9755646971744253e-04 0.0000000000000000e+00  9.7835620074969169e-05 2.1037065047526670e-04 0.0000000000000000e+00  9.9542689448390946e-05 2.2285982457883948e-04 0.0000000000000000e+00  1.0043223655176413e-04 2.3541966890239740e-04 0.0000000000000000e+00  1.0032386906962516e-04 2.4675956143260162e-04 0.0000000000000000e+00  9.9201110545951734e-05 2.5706224633830486e-04 0.0000000000000000e+00  9.7304884750446804e-05 2.6660960438132250e-04 0.0000000000000000e+00  9.4554416730545366e-05 2.7479482145935147e-04 0.0000000000000000e+00  9.1076897469350538e-05 2.8168357661588901e-04 0.0000000000000000e+00  8.6997885978922586e-05 2.8684018091278184e-04 0.0000000000000000e+00  8.2399975901269675e-05 2.9027201212975066e-04 0.0000000000000000e+00  7.7538489244267280e-05 2.9178134664958839e-04 0.0000000000000000e+00  7.2547329314512002e-05 2.9132547306385647e-04 0.0000000000000000e+00  6.7657949458814744e-05 2.8890771115800778e-04 0.0000000000000000e+00  6.3010912641259652e-05 2.8461114847293511e-04 0.0000000000000000e+00  5.8832279208680775e-05 2.7848724535288255e-04 0.0000000000000000e+00  5.5218308196586401e-05 2.7089161681414234e-04 0.0000000000000000e+00  5.2401489910534343e-05 2.6168966628495192e-04 0.0000000000000000e+00  5.0421998104401785e-05 2.5101060156984371e-04 0.0000000000000000e+00  4.9339863894860992e-05 2.3963595717652232e-04 0.0000000000000000e+00  4.9438358406042193e-05 2.2754065088655291e-04 0.0000000000000000e+00  5.0417767001309222e-05 2.1498010936033392e-04 0.0000000000000000e+00  5.2191977570995787e-05 2.0270090319713613e-04 0.0000000000000000e+00  5.5082473534349982e-05 1.8975969387906923e-04 0.0000000000000000e+00  5.7996858692132270e-05 1.7843494368881800e-04 0.0000000000000000e+00  6.2354184221751291e-05 1.6567806276026543e-04 0.0000000000000000e+00  6.8145781005402988e-05 1.5116477346518512e-04 0.0000000000000000e+00  7.3696135512883325e-05 1.3915707538136908e-04 0.0000000000000000e+00  8.0639741737842518e-05 1.2668374460789422e-04 0.0000000000000000e+00  8.8467011276332222e-05 1.1385922235878652e-04 0.0000000000000000e+00  9.6462727923119512e-05 1.0233550587231255e-04 0.0000000000000000e+00  1.0579312573025956e-04 9.0070569373282066e-05 0.0000000000000000e+00  1.1365587233186119e-04 8.1165505804610015e-05 0.0000000000000000e+00  1.2465984988149103e-04 6.8116014177761541e-05 0.0000000000000000e+00  1.3594745561700840e-04 5.6725093209396334e-05 0.0000000000000000e+00  1.4894602145372677e-04 4.4001346687073134e-05 0.0000000000000000e+00  1.6012957938856397e-04 3.4662521385169815e-05 0.0000000000000000e+00  1.7149564942188858e-04 2.6081191916447073e-05 0.0000000000000000e+00  1.8572617795853567e-04 1.4063136375635528e-05 0.0000000000000000e+00  1.9682497419621419e-04 9.9912015471149838e-06 0.0000000000000000e+00  2.0351868343146745e-04 5.1815538028305340e-06 0.0000000000000000e+00  2.3691201331445025e-04 -2.6737729976409379e-05 0.0000000000000000e+00  2.3754070301074297e-04 -1.6954924972490312e-05 0.0000000000000000e+00  2.5779680197965301e-04 -1.9833217221591420e-05 0.0000000000000000e+00  2.6113017802386268e-04 -1.7008156564918108e-05 0.0000000000000000e+00  2.6887127780042726e-04 -1.3688239623431722e-05 0.0000000000000000e+00  2.7641441350977259e-04 -1.1875024785418659e-05 0.0000000000000000e+00  2.8644037796211977e-04 -8.5703017425153625e-06 0.0000000000000000e+00  2.8524689218648594e-04 -2.5295893362298167e-06 0.0000000000000000e+00  3.0143698330490140e-04 1.0978762028083042e-06 0.0000000000000000e+00  3.0034937868082373e-04 7.6181238035289128e-06 0.0000000000000000e+00  2.9780871393635041e-04 1.3028285774743099e-05 0.0000000000000000e+00  3.1108678092442053e-04 1.9444567426493090e-05 0.0000000000000000e+00  3.0726303313221209e-04 2.4847308126841399e-05 0.0000000000000000e+00  3.0761676013192575e-04 3.0027655415884230e-05 0.0000000000000000e+00  3.0796126318975432e-04 3.5321899277634824e-05 0.0000000000000000e+00  3.1083861608195495e-04 4.0706338788167916e-05 0.0000000000000000e+00  3.0299354951693975e-04 4.7380592720249059e-05 0.0000000000000000e+00  3.0391158204573732e-04 5.2840702965638772e-05 0.0000000000000000e+00  3.0511805794572358e-04 5.9395200914022374e-05 0.0000000000000000e+00  2.9105374634036353e-04 6.4291749624513245e-05 0.0000000000000000e+00  2.9192018678722884e-04 7.0549168746129312e-05 0.0000000000000000e+00  2.8267062904574307e-04 7.4701055080106263e-05 0.0000000000000000e+00  2.7541377441815061e-04 7.7277136845355074e-05 0.0000000000000000e+00  2.6939744032238190e-04 8.2276772060416056e-05 0.0000000000000000e+00  2.6094492320464396e-04 8.2956049055621242e-05 0.0000000000000000e+00  2.4116787710322081e-04 8.0023727259233944e-05 0.0000000000000000e+00  2.4574549726437417e-04 9.5448551673889173e-05 0.0000000000000000e+00  2.0991749473249944e-04 5.9885036827589528e-05 0.0000000000000000e+00  2.0479334256267586e-04 5.7157268127017369e-05 0.0000000000000000e+00  1.9334111123925379e-04 5.3079546656164845e-05 0.0000000000000000e+00  1.7899158817903410e-04 4.1182422027664192e-05 0.0000000000000000e+00  1.6749672478505337e-04 3.2781958935511472e-05 0.0000000000000000e+00  1.5637321532849539e-04 2.3755465602328281e-05 0.0000000000000000e+00  1.4267658807872932e-04 1.0787640984380945e-05 0.0000000000000000e+00  1.3276913377184281e-04 1.5749416867470667e-06 0.0000000000000000e+00  1.2070676022168563e-04 -1.2007082553356294e-05 0.0000000000000000e+00  1.1370346689365723e-04 -1.9537054159150803e-05 0.0000000000000000e+00  1.0489769821151364e-04 -3.0218350235212320e-05 0.0000000000000000e+00  9.7413209263365761e-05 -4.0287338489437897e-05 0.0000000000000000e+00  9.0163609804821816e-05 -5.1233660887619697e-05 0.0000000000000000e+00  8.3980324115780092e-05 -6.1348087553637188e-05 0.0000000000000000e+00  7.8102842734030338e-05 -7.2516703298074938e-05 0.0000000000000000e+00  7.3972732372571879e-05 -8.1883050237373237e-05 0.0000000000000000e+00  6.7877758556010053e-05 -9.4256878580478498e-05 0.0000000000000000e+00  6.4970215520330067e-05 -1.0390059447868274e-04 0.0000000000000000e+00  6.0916064274163632e-05 -1.1605797020211776e-04 0.0000000000000000e+00  5.8086933328209029e-05 -1.2831357711183035e-04 0.0000000000000000e+00  5.5893178412361472e-05 -1.4138009774323576e-04 0.0000000000000000e+00  5.4333895536590207e-05 -1.5486915899209122e-04 0.0000000000000000e+00  5.4603199479019605e-05 -1.6720138530132740e-04 0.0000000000000000e+00  5.5794689883430400e-05 -1.7942876589205326e-04 0.0000000000000000e+00  5.7874583242276729e-05 -1.8990248735472842e-04 0.0000000000000000e+00  6.0951332276999948e-05 -1.9843253174336214e-04 0.0000000000000000e+00  6.4612096135601335e-05 -2.0579104635939393e-04 0.0000000000000000e+00  6.8839529763288368e-05 -2.1138139150871164e-04 0.0000000000000000e+00  7.3410040692481235e-05 -2.1532467286274463e-04 0.0000000000000000e+00  7.8144928940457897e-05 -2.1745565654587927e-04 0.0000000000000000e+00  8.2873151379910388e-05 -2.1776230091900592e-04 0.0000000000000000e+00  8.7314380062329357e-05 -2.1620665239613314e-04 0.0000000000000000e+00  9.1380911217272179e-05 -2.1304897529834133e-04 0.0000000000000000e+00  9.4851495474391378e-05 -2.0814014330310798e-04 0.0000000000000000e+00  9.7679254220179465e-05 -2.0192593287715049e-04 0.0000000000000000e+00  9.9640406475215887e-05 -1.9415459902868759e-04 0.0000000000000000e+00  1.0097682896362088e-04 -1.8586526595335272e-04 0.0000000000000000e+00  1.0120318082352017e-04 -1.7597561292208728e-04 0.0000000000000000e+00  1.0022735640322630e-04 -1.6420192839342482e-04 0.0000000000000000e+00  9.8646986762980629e-05 -1.5300680520639978e-04 0.0000000000000000e+00  9.5755478217370048e-05 -1.4108603454731221e-04 0.0000000000000000e+00  9.2121023885468942e-05 -1.2883808607697269e-04 0.0000000000000000e+00  8.7705391808297301e-05 -1.1678917250091055e-04 0.0000000000000000e+00  8.2312663896862121e-05 -1.0418747924788705e-04 0.0000000000000000e+00  7.6689453804585188e-05 -9.2699243169402340e-05 0.0000000000000000e+00  7.0549114805763967e-05 -8.0914778408552342e-05 0.0000000000000000e+00  5.9965028371184504e-05 -6.3507401843435738e-05 0.0000000000000000e+00  5.2590169187319593e-05 -5.3178956510785770e-05 0.0000000000000000e+00  4.3851461439333782e-05 -4.1649242062972782e-05 0.0000000000000000e+00  3.2891453037815643e-05 -2.8604381718520670e-05 0.0000000000000000e+00  2.2499352484694332e-05 -1.7879869163037335e-05 0.0000000000000000e+00  1.0612536857322132e-05 -6.2288866673731796e-06 0.0000000000000000e+00  2.1225120584551378e-06 -6.1274421883675661e-07 0.0000000000000000e+00  -8.4620746972754778e-06 8.9851447428204273e-06 0.0000000000000000e+00  -2.4561670391358407e-05 2.1470112019204455e-05 0.0000000000000000e+00  -3.4984195436083470e-05 2.7888313553290609e-05 0.0000000000000000e+00  -4.5318970062170554e-05 3.2530115468336527e-05 0.0000000000000000e+00  -5.6230948107519789e-05 3.7929838925147370e-05 0.0000000000000000e+00  -6.7420179923097093e-05 4.2247620892745350e-05 0.0000000000000000e+00  -7.8787586545345134e-05 4.5826952825528850e-05 0.0000000000000000e+00  -8.6540757168289027e-05 4.6105567474533869e-05 0.0000000000000000e+00  -9.7053397957985596e-05 4.7566182783524453e-05 0.0000000000000000e+00  -1.0787528234606911e-04 4.8921620179463023e-05 0.0000000000000000e+00  -1.1364006950974750e-04 4.6928447703184193e-05 0.0000000000000000e+00  -1.2132064863828746e-04 4.5087126046203115e-05 0.0000000000000000e+00  -1.2666549434229559e-04 4.2309799483423980e-05 0.0000000000000000e+00  -1.3175933492931482e-04 3.9026441218216797e-05 0.0000000000000000e+00  -1.3529779072806347e-04 3.5187497528362469e-05 0.0000000000000000e+00  -1.3808438977951052e-04 3.1068288223115257e-05 0.0000000000000000e+00  -1.3924479132246243e-04 2.6605855568745594e-05 0.0000000000000000e+00  8.4653874401770260e-05 1.9166934801909371e-04 0.0000000000000000e+00  1.7725797075627222e-05 -7.8997844554089833e-05 0.0000000000000000e+00  1.6793574339810205e-04 -3.1077473529790738e-05 0.0000000000000000e+00  8.8118899455282972e-05 -1.2050275406217484e-04 0.0000000000000000e+00  1.4863345986866984e-05 1.3402559645069601e-04 0.0000000000000000e+00  -8.3199160720567444e-05 3.5760826936597401e-05 0.0000000000000000e+00  1.6799034476284427e-04 9.7630792328150313e-05 0.0000000000000000e+00  2.6962078723436313e-04 3.1655370810928039e-05 0.0000000000000000e+00  -8.4376459951151188e-05 1.2562218764688372e-05 0.0000000000000000e+00  2.2353117328779000e-04 1.3870463649624373e-05 0.0000000000000000e+00  2.0746520595792006e-04 3.1536885726203723e-05 0.0000000000000000e+00  1.5488230265925525e-04 4.5086939605167933e-06 0.0000000000000000e+00  2.2429093804779120e-04 4.9096532190054821e-05 0.0000000000000000e+00  5.8065373127585572e-05 -1.2046984157115551e-04 0.0000000000000000e+00  5.8490320517974125e-05 -1.6228789443063920e-05 0.0000000000000000e+00  5.5836199443806189e-05 1.8302599109218536e-04 0.0000000000000000e+00  2.5693931511963576e-05 7.5445807807571818e-05 0.0000000000000000e+00  -2.4892255481966811e-05 2.7235697482844036e-05 0.0000000000000000e+00  1.2111321912419515e-04 -8.0374299243031043e-05 0.0000000000000000e+00  1.1893068651187927e-04 1.5269458198891107e-04 0.0000000000000000e+00  1.2007403839056779e-04 8.7227481719333311e-05 0.0000000000000000e+00  -3.8241955416031251e-05 -2.2932248798276472e-05 0.0000000000000000e+00  -3.8327602193804392e-05 7.3794187272400067e-05 0.0000000000000000e+00  1.7912977358518364e-05 -2.1091315258263151e-05 0.0000000000000000e+00  7.3412070883000297e-05 8.9485220296003148e-05 0.0000000000000000e+00  1.6221189059417018e-04 6.9455569132174201e-05 0.0000000000000000e+00  1.0681523408637390e-04 -1.0964608161388681e-05 0.0000000000000000e+00  -6.5120275529863045e-05 2.5184189150466135e-05 0.0000000000000000e+00  -1.1360090562052392e-04 2.3327377319297435e-05 0.0000000000000000e+00  -9.9225351192005794e-06 -4.9740327116432542e-05 0.0000000000000000e+00  -3.6828269252125607e-05 -5.0211962561694687e-06 0.0000000000000000e+00  -1.0583872781154642e-05 -2.5072323278964338e-05 0.0000000000000000e+00  -4.3714088477243917e-06 5.2608207433402735e-06 0.0000000000000000e+00  1.4016859981566247e-05 -5.3894234926610720e-05 0.0000000000000000e+00  -5.6581720963580434e-05 1.6928732447126762e-06 0.0000000000000000e+00  -4.5471212111139165e-05 2.6153557546532538e-05 0.0000000000000000e+00  2.2040998632626602e-04 4.7878331983653260e-05 0.0000000000000000e+00  2.5163828685272819e-04 3.4416838201218392e-05 0.0000000000000000e+00  2.4036755030029956e-04 3.2011271280672448e-05 0.0000000000000000e+00  2.1969319847971961e-04 1.5608438292016979e-05 0.0000000000000000e+00  2.5216519973329549e-04 2.9208961217641349e-05 0.0000000000000000e+00  2.6872305152642414e-04 4.5010219461868665e-05 0.0000000000000000e+00  2.8838199228108536e-04 3.9317607880804642e-05 0.0000000000000000e+00  2.8679962791458552e-04 2.2947353428101231e-05 0.0000000000000000e+00  2.6491238560379088e-04 1.8706959938321964e-05 0.0000000000000000e+00  9.7112190763722718e-05 -6.6059811911552610e-05 0.0000000000000000e+00  1.1889814363311817e-04 -5.1427220959578482e-05 0.0000000000000000e+00  1.0350992341928764e-04 -1.0234069168673428e-04 0.0000000000000000e+00  1.3066478783987456e-04 -3.4023671611317615e-06 0.0000000000000000e+00  1.4052454430466175e-04 -3.8212179043385193e-05 0.0000000000000000e+00  2.3724102997371517e-04 3.8737351356263344e-05 0.0000000000000000e+00  2.3438754278944007e-04 2.5178495966897978e-05 0.0000000000000000e+00  3.7349818111575363e-05 -7.0353318168559040e-05 0.0000000000000000e+00  3.8064772711164931e-05 -1.9606490762843007e-05 0.0000000000000000e+00  5.4631672865951426e-05 -7.0440308303111105e-05 0.0000000000000000e+00  1.9610415453183362e-04 7.1999565389397436e-05 0.0000000000000000e+00  1.9512870539755195e-04 6.3480577437918047e-05 0.0000000000000000e+00  -9.6858959469915532e-05 2.5637953280671156e-05 0.0000000000000000e+00  -6.3590474310106280e-05 8.6789299615534604e-06 0.0000000000000000e+00  -6.1496978555271938e-05 3.9742646372921570e-05 0.0000000000000000e+00  -9.4422340979803242e-05 2.1551526721371279e-05 0.0000000000000000e+00  1.2838815229426368e-04 -5.7179807530771197e-05 0.0000000000000000e+00  1.6219698903863783e-04 -2.1830786772817048e-05 0.0000000000000000e+00  1.5912641426088975e-04 8.9214478965648437e-05 0.0000000000000000e+00  1.2509405548569261e-04 1.2915295253263220e-04 0.0000000000000000e+00  3.0449033913265573e-05 -8.6557953571189314e-05 0.0000000000000000e+00  5.4555088491692383e-05 -1.2483264408198524e-04 0.0000000000000000e+00  5.1513413693683435e-05 1.8138619368493581e-04 0.0000000000000000e+00  2.8838325260664997e-05 1.3982359440654991e-04 0.0000000000000000e+00  8.0399810117133899e-05 -1.7266417648822204e-04 0.0000000000000000e+00  8.4936809504157975e-05 -1.5513281173151262e-04 0.0000000000000000e+00  7.9343788774433345e-05 2.3096522964050401e-04 0.0000000000000000e+00  7.5702125663966254e-05 2.4510608333403968e-04 0.0000000000000000e+00  3.9325413697127858e-05 -1.0155960344533959e-04 0.0000000000000000e+00  -1.2267045949401007e-07 4.9073546420448740e-05 0.0000000000000000e+00  -1.1963563764388157e-05 7.9668508304308933e-05 0.0000000000000000e+00  1.5237486338530349e-05 1.1019982688605951e-04 0.0000000000000000e+00  1.6611222590101431e-04 -1.9962791544732052e-05 0.0000000000000000e+00  1.8145637513516710e-04 2.0498156373853318e-05 0.0000000000000000e+00  1.9455215060792033e-04 9.1842806756148239e-07 0.0000000000000000e+00  4.9665370989736767e-05 8.3429097306736498e-05 0.0000000000000000e+00  6.5312880072260280e-05 3.6286536199583111e-05 0.0000000000000000e+00  4.0529159775253199e-05 3.0944175915109493e-05 0.0000000000000000e+00  1.9358880725050862e-04 7.8234782756028933e-06 0.0000000000000000e+00  1.9108911431765181e-04 5.7323881385226095e-05 0.0000000000000000e+00  1.9539907757650849e-04 -7.7690024237487692e-06 0.0000000000000000e+00  -3.7256472422149073e-05 5.7632222410331464e-05 0.0000000000000000e+00  -1.1340639699809871e-05 1.0247668223291663e-04 0.0000000000000000e+00  -5.6538917346676601e-05 4.8937501037634419e-05 0.0000000000000000e+00  3.9659332918612018e-05 1.2873066840826336e-04 0.0000000000000000e+00  3.6734190687243262e-05 1.6068732145223296e-04 0.0000000000000000e+00  7.6649476798360076e-05 -7.1073807225620036e-05 0.0000000000000000e+00  7.3482757742151698e-05 -1.2488233295922528e-04 0.0000000000000000e+00  1.2362910110191595e-04 1.2377043688012760e-04 0.0000000000000000e+00  1.0095236501468581e-04 1.3855366741786525e-04 0.0000000000000000e+00  1.0057945810396870e-04 1.7495570877880550e-04 0.0000000000000000e+00  1.9232014824466028e-05 2.6134064078599652e-05 0.0000000000000000e+00  8.2672991677626339e-05 -1.4479865694097243e-05 0.0000000000000000e+00  6.8809598221039950e-05 -1.5314448871075936e-04 0.0000000000000000e+00  7.6980802261807955e-05 -1.7245205739405378e-04 0.0000000000000000e+00  7.2564606485907290e-05 2.3904454780869223e-04 0.0000000000000000e+00  6.5197082295692782e-05 2.1537171346855817e-04 0.0000000000000000e+00  9.0418387080655073e-05 3.7852355275125328e-05 0.0000000000000000e+00  6.0517170254534947e-05 1.3850413511211243e-04 0.0000000000000000e+00  7.0742320533738692e-05 1.9162470178790347e-04 0.0000000000000000e+00  9.3846161134902590e-05 -1.2540271733852622e-04 0.0000000000000000e+00  1.0885719943731148e-04 -8.8909289289202225e-05 0.0000000000000000e+00  1.4264454907318128e-04 -5.5712471271374855e-05 0.0000000000000000e+00  1.0279727980517211e-04 1.6468061411661002e-04 0.0000000000000000e+00  8.7195422454523872e-05 2.0267916757130415e-04 0.0000000000000000e+00  1.4182911242082027e-04 1.2498079248175170e-04 0.0000000000000000e+00  1.8572545424538561e-04 4.7308319009912536e-05 0.0000000000000000e+00  1.6862360659084707e-04 8.8325945921981984e-05 0.0000000000000000e+00  -1.2731092355932808e-04 2.2836854592010963e-05 0.0000000000000000e+