<?xml version="1.0"?>
<VTKFile type="UnstructuredGrid"  version="0.1"  >
<UnstructuredGrid>
<Piece  NumberOfPoints="2549" NumberOfCells="4928">
<Points>
<DataArray  type="Float64"  NumberOfComponents="3"  format="ascii">1.686723753004033 -0.04729770482256866 0  1.683411945355351 0.001683851298948706 0  1.675845585543184 0.05004307459781794 0  1.666491392323391 0.09845940945120399 0  1.653918543609889 0.1464270038776759 0  1.638609933418429 0.1940796376517869 0  1.619970419850857 0.240887017843121 0  1.599052476404591 0.2872578480586444 0  1.572933362684395 0.3309279364173115 0  1.544483907520582 0.3722618237624128 0  1.517697443038923 0.4179290121214739 0  1.486524966890855 0.4596291943879935 0  1.453916723341371 0.5009153450397683 0  1.419280608294187 0.5405755575797269 0  1.383143447771588 0.5791258999441007 0  1.345849040684664 0.617075666981149 0  1.305803382178574 0.6518763682021037 0  1.265475445375295 0.6849688776171087 0  1.225940223466115 0.7230025238659672 0  1.184446468829088 0.7580918048712784 0  1.142101760032773 0.7931777335921226 0  1.098608203217613 0.8271934797315741 0  1.05415060932446 0.8605361135815238 0  1.008766316285781 0.8933229940537145 0  0.9619453344742565 0.9244402328860408 0  0.9142175351139396 0.9529916565618801 0  0.8660577706156832 0.9820893538495672 0  0.8170462698171043 1.010343274808972 0  0.7671748532525582 1.037619837538967 0  0.7164366310534254 1.063723030694053 0  0.6648481391167529 1.088481478512644 0  0.6124555049419114 1.111857671586829 0  0.5591724438858141 1.13327672331977 0  0.5052955055920584 1.15278760746932 0  0.450782323137809 1.171071144030036 0  0.3956547326911048 1.187330586741818 0  0.339988196858802 1.201689657152462 0  0.2838557651401231 1.214033604504229 0  0.2273260979710576 1.224322317540376 0  0.1704826981457519 1.23260456888371 0  0.1133431932976508 1.238540885353054 0  0.05610903147378 1.242397282111473 0  -0.001256191344457183 1.244407772632988 0  -0.05866556612395717 1.244209569712634 0  -0.1160566611372797 1.241871436719263 0  -0.1733488901042043 1.237292415146543 0  -0.2304562459978172 1.23049572039796 0  -0.2872951014660261 1.221322803052302 0  -0.3437745854476209 1.21026011893977 0  -0.3999199550865908 1.196801464544925 0  -0.4554335618020262 1.180712664878847 0  -0.5102979707211835 1.162454699830698 0  -0.5644147261045384 1.142078169965163 0  -0.6177082743119461 1.119699544298919 0  -0.6701291009717988 1.095653423658436 0  -0.7215870035410855 1.069649501751506 0  -0.7722872515604086 1.043726316810182 0  -0.8223007766690658 1.015788010915272 0  -0.8709447374558524 0.9857291165290383 0  -0.9186051168105082 0.9548026261182688 0  -0.965249774779292 0.9230023874839139 0  -1.010801796894528 0.890140101129022 0  -1.055422866655098 0.8571259932500879 0  -1.0984990429037 0.8216547860064561 0  -1.141310380007059 0.7896056856926426 0  -1.18423176010315 0.7578432683723809 0  -1.225577039716157 0.7242268053365134 0  -1.266345104248066 0.6908442479284906 0  -1.306403602462082 0.6572216737730581 0  -1.34625474440311 0.6243667394381012 0  -1.385197897211933 0.5903624441346689 0  -1.426560148443622 0.5613827579815814 0  -1.465639750799544 0.5256278876351257 0  -1.496506194013294 0.4798611104580521 0  -1.52826165244633 0.4367844035334563 0  -1.555955627494813 0.390900918345905 0  -1.581264746038778 0.3441128690411694 0  -1.600778897562537 0.2938970879968567 0  -1.618657473105146 0.2449887972527599 0  -1.624887219741705 0.1896088831405475 0  -1.638425600898711 0.1432818244890361 0  -1.648791296117982 0.09503705552232933 0  -1.64671165497456 0.04518821793458196 0  -1.649816706518936 -0.00256941577715375 0  -1.648991287190848 -0.0499525647713082 0  -1.651274817457436 -0.09741182907047731 0  -1.649357692673082 -0.1454154366772228 0  -1.653154442827877 -0.1957469068170365 0  -1.643744672230993 -0.2444936241150459 0  -1.631225867689471 -0.2913828753045925 0  -1.626688857862996 -0.34819523559166 0  -1.609334880687788 -0.3978053466141048 0  -1.590325534338682 -0.4488683239806163 0  -1.565069302119851 -0.4961458540048184 0  -1.53723574686194 -0.5423215631341896 0  -1.505012536011552 -0.5852591541921401 0  -1.474155863468976 -0.6311744160939031 0  -1.435542164743759 -0.6680645075013323 0  -1.393861355540946 -0.6968116961241664 0  -1.354982195173553 -0.7312020084202737 0  -1.315145574059137 -0.7643177492716392 0  -1.275233022030695 -0.798434539613303 0  -1.234658214726833 -0.8324307592597477 0  -1.193580898320694 -0.8668451821381662 0  -1.150985186807628 -0.8995574074276002 0  -1.108674917467399 -0.9331770803596628 0  -1.066095608767608 -0.9709058197932363 0  -1.021770630182577 -1.005733443678597 0  -0.9764965757497727 -1.040647395123765 0  -0.9300815464580163 -1.074570161239799 0  -0.8826062318715047 -1.107767293560011 0  -0.834070063474086 -1.140137365662247 0  -0.7842529260415383 -1.170769035814404 0  -0.733724523113931 -1.200836513557502 0  -0.6819704238682143 -1.230959597462593 0  -0.6289395115535963 -1.257955064990823 0  -0.5748626164070426 -1.283077549135664 0  -0.5198100032863802 -1.30574212172326 0  -0.4638850080881622 -1.32596364549315 0  -0.4072207017943187 -1.343748365524058 0  -0.3497657002633023 -1.358252232251387 0  -0.2920446740435966 -1.369943157831348 0  -0.2339309932459936 -1.379912249521044 0  -0.1754982534678424 -1.387220293205792 0  -0.1168356000401743 -1.392040255294034 0  -0.05804406576115579 -1.394258640934527 0  0.0007735972711286299 -1.393897267015491 0  0.05951854364168198 -1.390910180167436 0  0.1180802479494094 -1.38527465455898 0  0.1763184417496471 -1.377231970428795 0  0.2341919854929025 -1.366991869505163 0  0.2916327731840911 -1.354540759174483 0  0.3485660635905669 -1.339961247533419 0  0.4049168570065408 -1.323294997643979 0  0.4606169734841441 -1.304778561289997 0  0.5155976703106542 -1.284175818839361 0  0.5699015747291931 -1.263035212048808 0  0.6236786136546945 -1.239754320985079 0  0.676353882035633 -1.214149138559689 0  0.728158070995605 -1.187302299757793 0  0.7790398859342027 -1.159184942990721 0  0.8289938201708335 -1.129994327558898 0  0.878036596144027 -1.099926233512862 0  0.9261945445119203 -1.069166648775308 0  0.9738974228288931 -1.03903631931179 0  1.020639149952275 -1.006357483817067 0  1.065927406689434 -0.9721306297552729 0  1.110252136767749 -0.9374082099234644 0  1.153590272201301 -0.902093880074514 0  1.195741236734045 -0.8657434151990033 0  1.237030289175438 -0.8295052819051644 0  1.276261212277796 -0.7901897211384107 0  1.316325134425245 -0.7561477813545811 0  1.356167449293757 -0.7205453150162253 0  1.39321371174707 -0.6817824601093957 0  1.429098410213341 -0.6424757937214157 0  1.46345926345374 -0.6020831422805808 0  1.495755183503157 -0.5600732733489621 0  1.526604163535417 -0.5177054325804621 0  1.552909912802183 -0.4712473942940292 0  1.580981240073879 -0.4293559107133409 0  1.606599221540632 -0.3850548908619079 0  1.626857683480021 -0.3380349205674955 0  1.644755018521661 -0.2906213912041146 0  1.659185573079519 -0.2423976655056513 0  1.670632387464042 -0.193874739257485 0  1.67887266544203 -0.1450742924197026 0  1.6846967972815 -0.09633210400941558 0  -0.1037967599690029 0.7358130072628263 0  0.6168841792763634 -0.6980564168494894 0  -0.7776401630688663 -0.620709062880508 0  -0.08092820600334695 -0.8550481441371642 0  0.6133751410875083 0.5788697347202411 0  1.196742065153336 0.19004442109188 0  -0.7903077129564883 0.4950671364054927 0  -1.293660765705489 -0.05530049769938956 0  1.201441908206218 -0.2933015902231462 0  -1.084674701880056 -0.4605748012383961 0  -0.8398676778869627 -0.07026883954070506 0  -0.5018568874324245 -0.235939755647971 0  -1.095495123104438 0.3311824915147176 0  0.2845127551526873 -0.8332605271936762 0  0.1392438325639004 -0.2909017099201334 0  0.2485899759623597 0.7011124986684329 0  0.3500534826824594 0.1769603046075772 0  0.6807834454475504 -0.05382378709070597 0  -0.4266394469801363 -0.7589229062384542 0  -0.4628061748714848 0.6528045019253791 0  -0.2906822468844302 0.2289049573724155 0  0.9402439658912679 -0.4885964032266444 0  0.9359729209836263 0.3804868112595686 0  0.4203182575305419 -0.3205333497722003 0  0.02783922569403878 0.2237796007771173 0  -0.5676406259000087 0.1736084568972749 0  -0.1840882507058951 -0.2845487317153592 0  0.9770302914361362 -0.05272783003106489 0  1.400001089399852 -0.04970614153693504 0  0.7787689194932528 -0.590849642347778 0  0.8033899082991274 -0.2783961344741211 0  0.6415811442342677 -0.3729439415042338 0  0.5494705075757939 -0.1839909701153102 0  0.5139112889992766 -0.5132271841750975 0  0.9530440578854066 -0.2692016481999565 0  0.8283607627084248 -0.05323776305445187 0  -0.9606166810854468 0.1372992605444204 0  -1.191585624997516 0.1359051787949488 0  -1.069497524212137 -0.06198296926761475 0  -0.9549974022085179 -0.2718303475823532 0  -1.187101638663804 -0.2551705471793199 0  -1.367682617175308 -0.3523749977597921 0  -1.46122169878427 -0.1671355220835486 0  -1.458404991633222 0.06092718313066016 0  -1.361753087556736 0.2446033154901101 0  -0.1329645184106441 -0.5691780123810837 0  -0.3002309592779931 -0.5259134429031774 0  -0.2547055586117481 -0.8117098207091056 0  -0.3423433274973657 -0.2612632635849301 0  -0.4613596619277771 -0.4948847843134365 0  -1.276648254496902 -0.5472584246720813 0  -1.277201143542821 0.4313240041144153 0  0.3514475546311179 -0.5745191951062846 0  0.2790437371364408 -0.3070465963684937 0  0.2075096962232617 -0.5642623278171146 0  -0.942332513761962 0.4093096334847639 0  -0.8080724010748717 0.2106673183266926 0  1.38920633632736 -0.370362479132872 0  1.250154971434525 -0.5301877710857 0  1.242526461129782 0.4266869967022708 0  1.382781928298637 0.2698220200782107 0  -0.7701832810435142 -0.8954450807035608 0  -0.9559853327576067 -0.7714936418517873 0  -0.9579488129571343 0.6533217794764354 0  -0.7725415620953051 0.7688005994058588 0  0.7847275328567007 -0.8786903226929348 0  0.5876940748574935 -0.9797832314410893 0  0.5815811661745249 0.8559682404024771 0  0.7775990509474373 0.761898090457429 0  0.009820905951750423 -
[...]
<CellData  Scalars="f_2114"> 
<DataArray  type="Float64"  Name="f_2114"  format="ascii">1.1178744258864072e-01   1.1180188859196792e-01   1.1178632920863502e-01   1.1179522201332118e-01   1.1180051557270060e-01   1.1179289224962904e-01   1.1180369321067751e-01   1.1180313665795338e-01   1.1178611282060444e-01   1.1180090870094260e-01   1.1178539653553987e-01   1.1179291649119563e-01   1.1178851769670277e-01   1.1180429803976533e-01   1.1178795836200982e-01   1.1178527146443804e-01   1.1180104011208281e-01   1.1179324190264686e-01   1.1180330690191012e-01   1.1180383390401649e-01   1.1178734500497166e-01   1.1180337287873486e-01   1.1178509795968615e-01   1.1178861309667328e-01   1.1180483525676775e-01   1.1179344701948621e-01   1.1179652567078822e-01   1.1180557857742882e-01   1.1180400115754559e-01   1.1178617410302792e-01   1.1180417090253550e-01   1.1180480008699110e-01   1.1178542717003349e-01   1.1180060725790371e-01   1.1178378141508144e-01   1.1179185503981444e-01   1.1180190731987409e-01   1.1179846607025476e-01   1.1179694654806382e-01   1.1180486704408239e-01   1.1178969914642378e-01   1.1179587328343039e-01   1.1176593708500317e-01   1.1177285203908634e-01   1.1179478374246497e-01   1.1179660436974249e-01   1.1176642873937925e-01   1.1176314020068288e-01   1.1178189762060987e-01   1.1180510851390407e-01   1.1178242364263695e-01   1.1177555034157610e-01   1.1180659756987751e-01   1.1178973430424075e-01   1.1179676432155176e-01   1.1180477705435556e-01   1.1179101840113713e-01   1.1179643340214424e-01   1.1175902841792849e-01   1.1175468226177540e-01   1.1178443005963719e-01   1.1179737935122250e-01   1.1175006269381028e-01   1.1175280247356331e-01   1.1176926287700162e-01   1.1176315260230553e-01   1.1173904151382839e-01   1.1181969957340590e-01   1.1176641316605467e-01   1.1181433544011125e-01   1.1178247148344955e-01   1.1178437316099762e-01   1.1174204050506516e-01   1.1176102604940322e-01   1.1173617504011578e-01   1.1181548460357120e-01   1.1180085325956673e-01   1.1178326718644262e-01   1.1179864374537968e-01   1.1180269235616208e-01   1.1175959890131924e-01   1.1181674414746637e-01   1.1178253210940670e-01   1.1178267588873501e-01   1.1179652395891203e-01   1.1178227225439556e-01   1.1179984958395858e-01   1.1179887473896584e-01   1.1178457936439343e-01   1.1180556553252886e-01   1.1178292683799652e-01   1.1178879197461614e-01   1.1178234638121774e-01   1.1180156260667204e-01   1.1178655132293157e-01   1.1178628749514090e-01   1.1173162685200839e-01   1.1175678579830224e-01   1.1172539469585083e-01   1.1181516151603016e-01   1.1176108384963389e-01   1.1182409019899671e-01   1.1177664181675506e-01   1.1178501538198957e-01   1.1172733497943330e-01   1.1174553513417972e-01   1.1167848949087386e-01   1.1177894560882128e-01   1.1180303878799973e-01   1.1177713818891588e-01   1.1176421385257382e-01   1.1177311592586565e-01   1.1180035068764461e-01   1.1178913599385873e-01   1.1179897805705055e-01   1.1179800371221911e-01   1.1179146850280743e-01   1.1180320455986954e-01   1.1178986019823876e-01   1.1179317001649762e-01   1.1180354969845256e-01   1.1178655238178244e-01   1.1177626437578538e-01   1.1177993287487448e-01   1.1180183028769021e-01   1.1179216545573138e-01   1.1178284565854592e-01   1.1178532220630534e-01   1.1181969692569504e-01   1.1180094511322954e-01   1.1178822019515099e-01   1.1183111061806253e-01   1.1179045545627457e-01   1.1179402335023961e-01   1.1179117422386368e-01   1.1180194322763091e-01   1.1179556881001193e-01   1.1179198611048455e-01   1.1179164666026610e-01   1.1180285500177817e-01   1.1183162148230173e-01   1.1180184666890246e-01   1.1179130114971904e-01   1.1183511051965325e-01   1.1179123139217599e-01   1.1180022192256557e-01   1.1179340349397850e-01   1.1179389757180158e-01   1.1179714246297172e-01   1.1179267912633072e-01   1.1180069875563581e-01   1.1180061719522010e-01   1.1179241619476925e-01   1.1179753011107418e-01   1.1179218972099601e-01   1.1179274204193308e-01   1.1178958053033668e-01   1.1179055731583026e-01   1.1178878624310093e-01   1.1180180393013812e-01   1.1179053086136485e-01   1.1179099872876486e-01   1.1178900011570446e-01   1.1180017456546645e-01   1.1179159215280436e-01   1.1179980498309278e-01   1.1179381162737610e-01   1.1179422279740944e-01   1.1178696755558382e-01   1.1179235810871603e-01   1.1178070336044342e-01   1.1179900184624375e-01   1.1179740977060770e-01   1.1179302055737496e-01   1.1179398991663191e-01   1.1179492837077699e-01   1.1183797031719972e-01   1.1180169049429661e-01   1.1178893888786272e-01   1.1184057777049412e-01   1.1178756384598898e-01   1.1178875375109038e-01   1.1178891179380700e-01   1.1180276951267913e-01   1.1180033115715804e-01   1.1179126073308623e-01   1.1179332747767794e-01   1.1179711908308147e-01   1.1184429216965890e-01   1.1179435414594890e-01   1.1177834285694820e-01   1.1184865556468820e-01   1.1182009607387432e-01   1.1179876308643605e-01   1.1181784426934727e-01   1.1178958621363697e-01   1.1179932504542479e-01   1.1179121521318040e-01   1.1179316864061530e-01   1.1179459149952602e-01   1.1181705899396908e-01   1.1179874229197445e-01   1.1181616941192475e-01   1.1179289737898908e-01   1.1179840695262920e-01   1.1179591900347233e-01   1.1179768547029102e-01   1.1179678407267706e-01   1.1179822923097253e-01   1.1179324792914871e-01   1.1179404095140551e-01   1.1179324305551276e-01   1.1180065220630304e-01   1.1179604310020196e-01   1.1179893110780141e-01   1.1179800456013413e-01   1.1179343314415542e-01   1.1178953631718565e-01   1.1180427798715778e-01   1.1179371252826935e-01   1.1179541841889327e-01   1.1179582074633036e-01   1.1179625992102826e-01   1.1179616592868161e-01   1.1181451809993463e-01   1.1179889104423880e-01   1.1181587087369672e-01   1.1179645786031908e-01   1.1179557766734491e-01   1.1178723222722999e-01   1.1180125094241739e-01   1.1179201459894209e-01   1.1180678976673433e-01   1.1181053410669439e-01   1.1183021161188225e-01   1.1182595646572026e-01   1.1179139329487518e-01   1.1180441225082594e-01   1.1182832941892380e-01   1.1182748905491888e-01   1.1179676510592597e-01   1.1179658625731073e-01   1.1179847320017612e-01   1.1179992911403701e-01   1.1179387441292224e-01   1.1178952329536593e-01   1.1180547696377918e-01   1.1179625758696049e-01   1.1178959728108934e-01   1.1180475726200323e-01   1.1182745283476253e-01   1.1182707252452251e-01   1.1178825293720146e-01   1.1180101361384207e-01   1.1182620692776915e-01   1.1183137856288425e-01   1.1182597006142686e-01   1.1180879155595380e-01   1.1180266597265856e-01   1.1182709280315727e-01   1.1179379280888736e-01   1.1178888502290285e-01   1.1179198483903728e-01   1.1180112893146567e-01   1.1181125988522458e-01   1.1179693142770339e-01   1.1180953802833983e-01   1.1179814851462304e-01   1.1182803573910263e-01   1.1180405437990340e-01   1.1179125330315322e-01   1.1182757775586832e-01   1.1179615000302348e-01   1.1179510002024087e-01   1.1179323476434554e-01   1.1179403784959152e-01   1.1179778095424488e-01   1.1179562504366816e-01   1.1179903199265551e-01   1.1180053901062183e-01   1.1179514877554254e-01   1.1179649723762801e-01   1.1179558442126165e-01   1.1179620989027236e-01   1.1179303430753207e-01   1.1178967624246584e-01   1.1179350667325735e-01   1.1180414291612749e-01   1.1181085345911072e-01   1.1179643968755844e-01   1.1181128653459325e-01   1.1179473396302056e-01   1.1179730076643654e-01   1.1179391256569512e-01   1.1179449288102170e-01   1.1179321163577446e-01   1.1181207443546547e-01   1.1179423486657172e-01   1.1181428500004766e-01   1.1178919415794862e-01   1.1179799222973032e-01   1.1179490675328101e-01   1.1179648622759542e-01   1.1179522757575679e-01   1.1182738473533535e-01   1.1180469043491208e-01   1.1178942010623713e-01   1.1182678674540605e-01   1.1179388182595390e-01   1.1178980496698350e-01   1.1179586635756501e-01   1.1180559195580504e-01   1.1179887146395601e-01   1.1179607474002363e-01   1.1179509480934940e-01   1.1179825384735498e-01   1.1182628878102534e-01   1.1180075619345130e-01   1.1178655984470279e-01   1.1182949678501847e-01   1.1166420934477216e-01   1.1199622931205415e-01   1.1180596426589753e-01   1.1164234716341045e-01   1.1179893832708299e-01   1.1181230194119449e-01   1.1176494246749102e-01   1.1138494848045462e-01   1.1179650543083824e-01   1.1180083557219306e-01   1.1180060473048305e-01   1.1179851555804086e-01   1.1175123980169697e-01   1.1225281548208810e-01   1.1179699811069638e-01   1.1141149329224755e-01   1.1178813044309069e-01   1.1178583999097683e-01   1.1180153269354784e-01   1.1179564982595218e-01   1.1178372116495155e-01   1.1180658806832179e-01   1.1178130952686152e-01   1.1178453179391902e-01   1.1180214054235542e-01   1.1179088914696879e-01   1.1179888018241745e-01   1.1183191074150806e-01   1.1184970235331300e-01   1.1180641559668660e-01   1.1173603079951724e-01   1.1114365426529475e-01   1.1179802504992593e-01   1.1180424195279677e-01   1.1179132092877864e-01   1.1179571642353081e-01   1.1180181450056040e-01   1.1179478936238944e-01   1.1179890790934265e-01   1.1180501191448730e-01   1.1180074703468523e-01   1.1179719278772975e-01   1.1177749758786140e-01   1.1177271288094037e-01   1.1179865243811933e-01   1.1180164088286468e-01   1.1177590658974824e-01   1.1177751867224263e-01   1.1212407051458599e-01   1.1256453567331244e-01   1.1173730797485314e-01   1.1072523395549869e-01   1.1191827039976875e-01   1.1211750281755385e-01   1.1189835616536291e-01   1.1081266956337227e-01   1.1174233296073001e-01   1.1177771085906640e-01   1.1180361578379575e-01   1.1166865910376358e-01   1.1014821325789242e-01   1.1177160760883566e-01   1.1221941720676415e-01   1.1220569284478317e-01   1.1215610101660739e-01   1.1174622454050570e-01   1.1217902073823563e-01   1.1033705840643666e-01   1.1188474450747245e-01   1.1207810239897247e-01   1.1190068719157717e-01   1.1096296663350100e-01   1.1168161224619032e-01   1.1178029693396950e-01   1.1180001851864065e-01   1.1175150825658861e-01   1.1088021728283740e-01   1.1246762650177840e-01   1.1174572773940340e-01   1.1207883013515363e-01   1.1179793787923629e-01   1.1179201352234983e-01   1.1180182895159790e-01   1.1182851965894350e-01   1.1178497044920387e-01   1.1180633298768362e-01   1.1178515190266493e-01   1.1178325903069758e-01   1.1180135042241486e-01   1.1178713164844312e-01   1.1178933375538810e-01   1.1179572330118379e-01   1.1174580768358713e-01   1.1180564014525056e-01   1.1184077657378384e-01   1.1122338665774606e-01   1.1177788990364794e-01   1.1180117653721108e-01   1.1177554242941420e-01   1.1179926847094222e-01   1.1179866865973251e-01   1.1179560743345508e-01   1.1180158446067148e-01   1.1180495665903192e-01   1.1177241985276890e-01   1.1179692722933947e-01   1.1177624683120256e-01   1.1180043084129805e-01   1.1179610783260181e-01   1.1180381226602436e-01   1.1179072899686608e-01   1.1179708846841173e-01   1.1146912299788406e-01   1.1220539535524814e-01   1.1180251927031516e-01   1.1174639432285147e-01   1.1177954523445145e-01   1.1179628067576421e-01   1.1178282946886918e-01   1.1139119033997734e-01   1.1179775544688442e-01   1.1180273059489912e-01   1.1179820909444256e-01   1.1179707759171281e-01   1.1178521215003195e-01   1.1213760563967115e-01   1.1179984556593872e-01   1.1144386139798110e-01   1.1180083226289701e-01   1.1178896123009677e-01   1.1179981100836801e-01   1.1180179137282158e-01   1.1178599011980667e-01   1.1180265462639143e-01   1.1178664057225018e-01   1.1179076538807446e-01   1.1179989089557166e-01   1.1177988918124968e-01   1.1179955396106378e-01   1.1180338724133171e-01   1.1180192350116193e-01   1.1179048910090664e-01   1.1180133117995827e-01   1.1180187171292984e-01   1.1177171336662114e-01   1.1180430361343202e-01   1.1177623880085610e-01   1.1178214068735699e-01   1.1179914833354383e-01   1.1178350581015487e-01   1.1179941542496992e-01   1.1180140217576023e-01   1.1178110107635957e-01   1.1179980736218988e-01   1.1178262959205766e-01   1.1178714463281465e-01   1.1178728314350737e-01   1.1180092956915570e-01   1.1178853765126440e-01   1.1179139811548709e-01   1.1179928818548844e-01   1.1176172138069612e-01   1.1179349879312536e-01   1.1180326967355959e-01   1.1175064578217150e-01   1.1180382137564160e-01   1.1176719009948613e-01   1.1177274565993763e-01   1.1179015503785916e-01   1.1174557924573966e-01   1.1171663133623688e-01   1.1175333574683149e-01   1.1179891394136685e-01   1.1177563328479913e-01   1.1176583038008012e-01   1.1177661211354649e-01   1.1180170826262435e-01   1.1179219052269979e-01   1.1179910717040556e-01   1.1180091679854630e-01   1.1179087289081237e-01   1.1180002575661499e-01   1.1179073790599099e-01   1.1179433776931530e-01   1.1180000196550044e-01   1.1178718951092977e-01   1.1178279578790255e-01   1.1178750256699960e-01   1.1180182165141916e-01   1.1179275919260222e-01   1.1178994112065196e-01   1.1179528744565549e-01   1.1180537030626686e-01   1.1179750071307440e-01   1.1180021303804531e-01   1.1179907596074234e-01   1.1179462093648751e-01   1.1179348914263096e-01   1.1178707913995876e-01   1.1179255338961819e-01   1.1180111644892843e-01   1.1179180123024068e-01   1.1180063007514189e-01   1.1179340005646504e-01   1.1180178922220869e-01   1.1178768766871175e-01   1.1179770204360001e-01   1.1180314362361629e-01   1.1178682421577008e-01   1.1179260217890216e-01   1.1177009508772887e-01   1.1178100319967930e-01   1.1180363436409058e-01   1.1176934812885282e-01   1.1180642820943937e-01   1.1180007981655504e-01   1.1175077918346661e-01   1.1181663629032808e-01   1.1172442906919740e-01   1.1175300330224329e-01   1.1177990644027648e-01   1.1180147125647510e-01   1.1176925958250142e-01   1.1178044559670663e-01   1.1180115803562553e-01   1.1177862451152393e-01   1.1180251206101706e-01   1.1179375553977999e-01   1.1176230188012558e-01   1.1180051833923478e-01   1.1171136689654690e-01   1.1175142022991655e-01   1.1180787960192463e-01   1.1173339259620178e-01   1.1182232350302322e-01   1.1182066466427211e-01   1.1181477915878237e-01   1.1171565857600416e-01   1.1183287397859014e-01   1.1183030454043794e-01   1.1180563459059956e-01   1.1177113284875211e-01   1.1180727234302970e-01   1.1180850354575821e-01   1.1175747619642101e-01   1.1181400374657210e-01   1.1174523228178396e-01   1.1176303810203989e-01   1.1181646071333173e-01   1.1173556459579939e-01   1.1182437810462652e-01   1.1181681715172127e-01   1.1180752876737275e-01   1.1175682965226137e-01   1.1181579384934301e-01   1.1179557338476372e-01   1.1169356786605233e-01   1.1182635414949664e-01   1.1188179181111534e-01   1.1178362669150392e-01   1.1173852941054237e-01   1.1181195560844218e-01   1.1180181892959803e-01   1.1178600686499475e-01   1.1173397753537276e-01   1.1179765985806488e-01   1.1175843102927142e-01   1.1180696157440959e-01   1.1178904605557759e-01   1.1179006345536198e-01   1.1179431588583555e-01   1.1179516281202610e-01   1.1179219574550818e-01   1.1180021459861529e-01   1.1179957539373316e-01   1.1179683645536204e-01   1.1179264763798551e-01   1.1179578038389076e-01   1.1179546242679822e-01   1.1179403810805036e-01   1.1179839001268135e-01   1.1180421043695495e-01   1.1178827029497486e-01   1.1179751317254440e-01   1.1179464303179047e-01   1.1179905072830099e-01   1.1179455277545039e-01   1.1179353925747545e-01   1.1176255440440394e-01   1.1179327698198345e-01   1.1176445279789714e-01   1.1179842797814858e-01   1.1179627028416474e-01   1.1180672986228045e-01   1.1179239188677959e-01   1.1180155687108928e-01   1.1177673699824377e-01   1.1178710199064727e-01   1.1174535293420963e-01   1.1177046494091457e-01   1.1180128372645357e-01   1.1178900013262974e-01   1.1176480384180046e-01   1.1176652217333795e-01   1.1179764149148425e-01   1.1179260670489707e-01   1.1179720920222803e-01   1.1179648094538901e-01   1.1179664528119021e-01   1.1180681827365675e-01   1.1178684346845746e-01   1.1179512342305850e-01   1.1180499850284040e-01   1.1178720667929393e-01   1.1176721505149079e-01   1.1176840644894435e-01   1.1180714595483054e-01   1.1178635299426974e-01   1.1176903184192956e-01   1.1177779081371908e-01   1.1177676942497623e-01   1.1178620666655184e-01   1.1176707244891947e-01   1.1180817274619032e-01   1.1178665223397043e-01   1.1180708785573096e-01   1.1179691290050019e-01   1.1179586916741330e-01   1.1176704206298117e-01   1.1178686608101873e-01   1.1176601236400335e-01   1.1180571018440062e-01   1.1179719319184854e-01   1.1179332577661452e-01   1.1179705843963600e-01   1.1179893299371049e-01   1.1178777316716526e-01   1.1180507891990335e-01   1.1179818272194382e-01   1.1179759938530465e-01   1.1179342348461127e-01   1.1179572640039738e-01   1.1179469007636224e-01   1.1179600980793926e-01   1.1179896930780904e-01   1.1180118204281889e-01   1.1179170305721348e-01   1.1179601628229102e-01   1.1179467170584177e-01   1.1179925808211406e-01   1.1179413256361780e-01   1.1179444315803654e-01   1.1176547111235821e-01   1.1178815392101418e-01   1.1176397590971483e-01   1.1180241785431996e-01   1.1179155519063262e-01   1.1180787751403475e-01   1.1179573385084279e-01   1.1180099185080823e-01   1.1176890060303149e-01   1.1178525797699135e-01   1.1174596280391583e-01   1.1177955651321993e-01   1.1179913139316058e-01   1.1179236952297979e-01   1.1176711768074940e-01   1.1176625849679653e-01   1.1179606371371893e-01   1.1179127358128231e-01   1.1179578801435017e-01   1.1179441618351431e-01   1.1180402335683753e-01   1.1180336136898297e-01   1.1173349951042166e-01   1.1177776867051294e-01   1.1180859641245700e-01   1.1179712109035196e-01   1.1176242953653642e-01   1.1174389525470685e-01   1.1180850200165073e-01   1.1188768143428350e-01   1.1190141953659770e-01   1.1145527177981610e-01   1.1181645723653577e-01   1.1180082652765801e-01   1.1180141945729825e-01   1.1181451449055579e-01   1.1179121796363252e-01   1.1179369040760623e-01   1.1178476122438558e-01   1.1179573776516209e-01   1.1180680030826992e-01   1.1178815984778273e-01   1.1180666062418260e-01   1.1180152009173257e-01   1.1181918793029352e-01   1.1179335709202885e-01   1.1179489561232644e-01   1.1182420505498308e-01   1.1178188969737619e-01   1.1180355948080038e-01   1.1177149447235415e-01   1.1177992358745270e-01   1.1180861644781180e-01   1.1177021020843135e-01   1.1181027380765479e-01   1.1180541411702791e-01   1.1175795439449233e-01   1.1181669186559264e-01   1.1173637525685538e-01   1.1175377154844919e-01   1.1177797046103416e-01   1.1179502441302193e-01   1.1176626709029726e-01   1.1178776661393332e-01   1.1180752546623270e-01   1.1177403893198334e-01   1.1180824451032524e-01   1.1180797587669694e-01   1.1176848678065990e-01   1.1181197468134302e-01   1.1175432965065253e-01   1.1176324529674167e-01   1.1180130757964643e-01   1.1176405047764285e-01   1.1178603257169849e-01   1.1181511234357307e-01   1.1181487039974895e-01   1.1174745773784760e-01   1.1181277106709089e-01   1.1182091247055348e-01   1.1183280902506640e-01   1.1177826788787661e-01   1.1179827766884118e-01   1.1184774137760579e-01   1.1174662133168357e-01   1.1180681546732377e-01   1.1171116174883457e-01   1.1175997419838921e-01   1.1182111539531416e-01   1.1172590609696050e-01   1.1182871429669507e-01   1.1184366812803810e-01   1.1187200008872815e-01   1.1172473625727203e-01   1.1183913416891141e-01   1.1193922280305907e-01   1.1178803940538523e-01   1.1180032915757486e-01   1.1178536924416330e-01   1.1179604339162008e-01   1.1179979325276111e-01   1.1179468843427420e-01   1.1180204950266258e-01   1.1180201552009515e-01   1.1178636362300515e-01   1.1179927823315727e-01   1.1178605064732465e-01   1.1179484488039304e-01   1.1179036017769069e-01   1.1180183192266142e-01   1.1179099552837736e-01   1.1178868533227909e-01   1.1179907950834303e-01   1.1179544647590046e-01   1.1180106694770715e-01   1.1180181090461011e-01   1.1179069617389889e-01   1.1180066942706063e-01   1.1178955672578599e-01   1.1179156356650413e-01   1.1180191381903139e-01   1.1179650749857986e-01   1.1179495929964746e-01   1.1180216272313805e-01   1.1180154467