<?xml version="1.0"?>
<VTKFile type="UnstructuredGrid"  version="0.1"  >
<UnstructuredGrid>
<Piece  NumberOfPoints="2549" NumberOfCells="4928">
<Points>
<DataArray  type="Float64"  NumberOfComponents="3"  format="ascii">1.641287276127883 -0.03796496512400975 0  1.638200679567517 0.00967738036414385 0  1.631429479372065 0.05681315257158899 0  1.623056949883108 0.1040682921068371 0  1.611664219378097 0.1509838010750857 0  1.597992352133399 0.1977498779125562 0  1.580955027513308 0.2438199193345153 0  1.562383755443377 0.2897140418039771 0  1.538154814808353 0.3329850886562961 0  1.512674236570172 0.3746592894115209 0  1.489137819827125 0.4209023782087808 0  1.460310656074919 0.4628144843754554 0  1.430945111372765 0.5051185302117829 0  1.399569922683555 0.5460871626814676 0  1.366623460215651 0.5863079015294563 0  1.332177789995065 0.6255071514009219 0  1.295857520843655 0.6629966465200089 0  1.259428407333173 0.6991228458405251 0  1.222965298922132 0.7398701483190272 0  1.184363820845659 0.7772165570956342 0  1.145187099539427 0.8153874157133695 0  1.104711772748088 0.8525437515681624 0  1.063406721219375 0.8897072665126405 0  1.020582334559099 0.9258534707577926 0  0.9762526605639946 0.9606506515028804 0  0.9313189580993453 0.9939414472882979 0  0.8850994640065737 1.026789284991826 0  0.8378424686535642 1.058754669951416 0  0.789602640440123 1.089954300822495 0  0.740230664118098 1.119904997773312 0  0.6898132041673791 1.148625699921477 0  0.6383601119445897 1.175926259599499 0  0.5856883866811079 1.201182331787365 0  0.5321778476204875 1.224567673882751 0  0.4777547381770983 1.246470946080933 0  0.4223770297269344 1.266045208153632 0  0.3662244127150163 1.283531898194567 0  0.309322239933095 1.298623891320344 0  0.2517814917557056 1.311295214816611 0  0.1937224757871897 1.321470630894167 0  0.1351711862183085 1.328760254084362 0  0.07642115759597062 1.333392055233127 0  0.01747806785811548 1.335575278442409 0  -0.04149845687623772 1.334922322718533 0  -0.1003956917123374 1.331538592606144 0  -0.1590613663846682 1.325333173545701 0  -0.2173730624860473 1.316422949772893 0  -0.2751744300246023 1.304632218228134 0  -0.3323581436937633 1.29048968903193 0  -0.3889286215873952 1.273692420725639 0  -0.4445056929106285 1.254038975503675 0  -0.4991498496326169 1.232036277754875 0  -0.5528103342697485 1.207979557649031 0  -0.6052784736156316 1.181704767690882 0  -0.6568339045719065 1.15410460228601 0  -0.7069556836735176 1.124170455858472 0  -0.7559686765624086 1.09395462260313 0  -0.8041942616024701 1.062138715018006 0  -0.8506846053516287 1.028248238570433 0  -0.8959023281902289 0.9933627029973684 0  -0.9400722442683894 0.9580278353221693 0  -0.982766500582567 0.9214971186743169 0  -1.024922507546752 0.8856606559780538 0  -1.064380077098431 0.8460239552002039 0  -1.103764003327546 0.810567216153801 0  -1.142686867125293 0.7750071707002554 0  -1.180297583621356 0.7382701404902218 0  -1.217229070521256 0.7020427356653227 0  -1.252916429738362 0.6649762907154404 0  -1.288235514134077 0.6296136964414342 0  -1.32332801111304 0.5931162019569622 0  -1.35833044048043 0.5599762421966316 0  -1.393282501859487 0.522869342825079 0  -1.417768445679015 0.4763962792942775 0  -1.451015823180972 0.4350800787287318 0  -1.476572025168318 0.3900593255924475 0  -1.499965965360149 0.3437552339158991 0  -1.516723355021238 0.29455980575422 0  -1.535204857007491 0.247357184754246 0  -1.536100795321672 0.192903246964542 0  -1.550777861961503 0.1485524541101226 0  -1.56249235010818 0.1017805816610467 0  -1.555435475169554 0.05375225968834323 0  -1.559928375264117 0.00746209719521162 0  -1.559033099201608 -0.03855157745660259 0  -1.561101154744823 -0.08455372336867155 0  -1.558411242094219 -0.1310718062837576 0  -1.56353972379742 -0.1795596884001962 0  -1.553956787858525 -0.2267591393308669 0  -1.541079725597902 -0.2718188355887894 0  -1.54030523070981 -0.327175926989849 0  -1.522912684117206 -0.3750817593174693 0  -1.506529437947769 -0.4249749086278868 0  -1.483265806773862 -0.471528071941176 0  -1.457642634775979 -0.5167221254759914 0  -1.425461270240775 -0.5583805529425174 0  -1.400428561686328 -0.6048206636132635 0  -1.364900409128774 -0.6418354126032889 0  -1.33010144962596 -0.6755823458592859 0  -1.294768163993654 -0.712000867466419 0  -1.259384664687188 -0.747444463763262 0  -1.22383644018462 -0.7848645814905518 0  -1.187111737039804 -0.8215938782025082 0  -1.149733122902888 -0.8589603756940128 0  -1.111133568218351 -0.8952792293400901 0  -1.071901966502676 -0.9316701932018991 0  -1.033206404215153 -0.9735737549060125 0  -0.9910591194568019 -1.010690890837383 0  -0.948473268551873 -1.04873003878528 0  -0.9043873096332946 -1.085700588774944 0  -0.8591941005489639 -1.122236645849708 0  -0.8125909930978643 -1.157733267414378 0  -0.764566457654615 -1.19172217541896 0  -0.7152198554442193 -1.224574886365305 0  -0.6653091254863369 -1.258401426376598 0  -0.6130384868239267 -1.288170678166104 0  -0.5600904108495179 -1.316733789333483 0  -0.5057667091833074 -1.342805275927236 0  -0.4504069672981378 -1.366655777815428 0  -0.3941183885536015 -1.388121713885489 0  -0.3365324001411276 -1.406033880600591 0  -0.2784144329113371 -1.421025600261346 0  -0.2196416368434684 -1.433800835976153 0  -0.1602703768263907 -1.443376735089829 0  -0.1005004698444885 -1.450071353135262 0  -0.04045003336161276 -1.453640747162753 0  0.01971151482386034 -1.454137126908907 0  0.07982965825886955 -1.451464642764559 0  0.1397395127900771 -1.445634342475783 0  0.1992238720573356 -1.436862881725999 0  0.2582166630728893 -1.425438940233997 0  0.3165856102920308 -1.411322970474746 0  0.3742524773086479 -1.3947263682041 0  0.4310615393060655 -1.37561073834211 0  0.4870490095777875 -1.354525037781708 0  0.5419498225851627 -1.33087701477841 0  0.595867576836119 -1.306272044806201 0  0.6490697861081804 -1.279659901599276 0  0.7007487796969648 -1.25052019792172 0  0.7513959542492273 -1.220131533740377 0  0.8008955665719476 -1.188531670222363 0  0.849219188589195 -1.155770248120654 0  0.8964862728512214 -1.122284574613385 0  0.9426642299291244 -1.08802548893679 0  0.9875244766499748 -1.053445550945975 0  1.031755948047292 -1.017361047974025 0  1.074425297287746 -0.979938741609614 0  1.115561085413195 -0.9416198827102111 0  1.155802192589579 -0.9032996225498712 0  1.19470370005673 -0.8639986957988088 0  1.233058490793227 -0.825660181356784 0  1.269095784557182 -0.783725759118974 0  1.305175160161003 -0.7468084429355935 0  1.341337166403377 -0.7087745873562024 0  1.375409418626303 -0.6687836360610848 0  1.408053041443922 -0.6279451624163145 0  1.439113769866639 -0.5863618195369539 0  1.468142238802119 -0.543445038650846 0  1.496543697473763 -0.5009203283753962 0  1.519718401708585 -0.4540902964112618 0  1.544840493875361 -0.4119861792066908 0  1.568586758344872 -0.3682001771739117 0  1.586597307921928 -0.3217691749321963 0  1.602949176167831 -0.275209583841986 0  1.615892890908344 -0.2279840886843067 0  1.62632183264183 -0.1806222637816575 0  1.633754973892846 -0.133059608178983 0  1.639295741084357 -0.08566347937065918 0  -0.08216427266520158 0.7969308038344409 0  0.6185319186820375 -0.7176019370339728 0  -0.7302786409644815 -0.6285825613683675 0  -0.05841636939983398 -0.8880820036138081 0  0.614344944141768 0.621189441420217 0  1.168525469839454 0.203427292162045 0  -0.7428152076033654 0.528217653629095 0  -1.21497608380905 -0.04336475729565036 0  1.172743764657222 -0.2865342437445911 0  -1.019707532514022 -0.4547193886460359 0  -0.7802475951473693 -0.05826692411888348 0  -0.4585298480629292 -0.2321298110605388 0  -1.030270040502507 0.348994951515553 0  0.2980807213430519 -0.8652707774705094 0  0.1532633931696811 -0.2926796635355491 0  0.2616632553607576 0.7586669871088174 0  0.3543406566641321 0.2024020643251628 0  0.6700447251200254 -0.04270681594447271 0  -0.3940105409031386 -0.7810747793052915 0  -0.4306833336957597 0.7027442146216142 0  -0.2580012617325773 0.2582921002423741 0  0.9253270223209332 -0.4919712701989092 0  0.9211848902884824 0.4049778452416454 0  0.4222311080306647 -0.3235557546825862 0  0.04637977611590531 0.2536436088812662 0  -0.5219930557815491 0.1976014102740775 0  -0.1555027497360351 -0.2850872213662293 0  0.9542869704481662 -0.04229636072028062 0  1.362549875048886 -0.03992774093315789 0  0.7722501854854334 -0.6019206438624485 0  0.7890397628594678 -0.2766709998875082 0  0.6350062957029318 -0.3770348574768482 0  0.5448072182735472 -0.1792764281052926 0  0.5145744137781696 -0.5257161648958226 0  0.9327849585572189 -0.2655496538375654 0  0.8114944550102979 -0.04247879573095752 0  -0.8969179176766595 0.1545249244657638 0  -1.118271317349924 0.148892932896719 0  -0.9997235994654502 -0.04991784781781181 0  -0.8915221415145447 -0.2650418056690549 0  -1.113519540133845 -0.2442556179628946 0  -1.288672792346794 -0.3369019657892963 0  -1.376676507585719 -0.1530513129978188 0  -1.374633874195718 0.07041067876367108 0  -1.284199250902076 0.2529238249357609 0  -0.1075370370435589 -0.5862035718198052 0  -0.2681366040115398 -0.5389104047096439 0  -0.2275193628140348 -0.8399215962808281 0  -0.3064711479695742 -0.2596963895908588 0  -0.422585307058105 -0.5042047179812189 0  -1.206791028041307 -0.5339482084844696 0  -1.208207811325889 0.4417106710988646 0  0.3590014399759099 -0.5919499799148706 0  0.2869575877600968 -0.3097164088951744 0  0.2202060060619743 -0.5819317223838811 0  -0.8859614582940148 0.4344303805036272 0  -0.7521924123982382 0.2328529680980281 0  1.356520575781405 -0.3597641610171542 0  1.227379893001254 -0.5244035336070362 0  1.220627145973474 0.4410971773059355 0  1.3510457927754 0.2789501011350978 0  -0.7351019887616285 -0.9115492136516111 0  -0.910284064509278 -0.7770076474723864 0  -0.9131556283312732 0.6842065193015284 0  -0.7384819407838502 0.8119806052013764 0  0.7899215423854826 -0.899976036622347 0  0.6001025367908625 -1.012200650083702 0  0.5934327803203576 0.9119907066654207 0  0.7826434563786607 0.8054330696333305 0  0.03010755024799582 -1.172600
[...]
<CellData  Scalars="f_6790"> 
<DataArray  type="Float64"  Name="f_6790"  format="ascii">1.1179001360985129e-01   1.1180189808220496e-01   1.1178838925615900e-01   1.1179554852992102e-01   1.1180129686331700e-01   1.1179308365419648e-01   1.1180450789558556e-01   1.1180396591850089e-01   1.1178804334776307e-01   1.1180180376176936e-01   1.1178710509115362e-01   1.1179300387701539e-01   1.1178897839559160e-01   1.1180565953535405e-01   1.1178777554993385e-01   1.1178495395751610e-01   1.1180214169520158e-01   1.1179319899846218e-01   1.1180454331387273e-01   1.1180492086875739e-01   1.1178701970488054e-01   1.1180497021104377e-01   1.1178423212805534e-01   1.1178843490453982e-01   1.1180656837040809e-01   1.1179277662098523e-01   1.1179828067056531e-01   1.1180764069477429e-01   1.1180544605803519e-01   1.1178526870927928e-01   1.1180607406758435e-01   1.1180680742029178e-01   1.1178696893650675e-01   1.1180185004012856e-01   1.1178521517020117e-01   1.1179172791745594e-01   1.1180332162683417e-01   1.1179826333113754e-01   1.1179851388722045e-01   1.1180623343026590e-01   1.1179084535146061e-01   1.1179727418991360e-01   1.1176799434857947e-01   1.1177291338769269e-01   1.1179450539488497e-01   1.1179821469185644e-01   1.1176603837066472e-01   1.1176177348207382e-01   1.1178085917761871e-01   1.1180761529557842e-01   1.1178084634202051e-01   1.1177354293638925e-01   1.1180901671562209e-01   1.1178816873173192e-01   1.1179876524803130e-01   1.1180748376843691e-01   1.1178996101289042e-01   1.1179832791692830e-01   1.1175674666594348e-01   1.1175146883072334e-01   1.1178267797176950e-01   1.1179983091369398e-01   1.1174585417347657e-01   1.1174784340667097e-01   1.1176810865361282e-01   1.1175977515701548e-01   1.1173630914196303e-01   1.1182272483812283e-01   1.1176302752092832e-01   1.1181740592300690e-01   1.1178082505437184e-01   1.1178253079463145e-01   1.1173907984446461e-01   1.1175730372543957e-01   1.1173269257493434e-01   1.1181836677937711e-01   1.1180192596900973e-01   1.1178184933454997e-01   1.1180022774399315e-01   1.1180353356083415e-01   1.1175584678896371e-01   1.1181951854358714e-01   1.1178131950754361e-01   1.1178113575361337e-01   1.1179757600066828e-01   1.1178144397756899e-01   1.1180083231766612e-01   1.1180005677819775e-01   1.1178394537438988e-01   1.1180565408401212e-01   1.1178392670341462e-01   1.1178873689282337e-01   1.1178127781439753e-01   1.1180280921244685e-01   1.1178638645405940e-01   1.1178560147770346e-01   1.1172757498871287e-01   1.1175319262221793e-01   1.1172100223902286e-01   1.1181774199392736e-01   1.1175813088906325e-01   1.1182614520144647e-01   1.1177605317667104e-01   1.1178405484378665e-01   1.1172234534990007e-01   1.1174274490790763e-01   1.1167264029799517e-01   1.1178105845015063e-01   1.1180333939967303e-01   1.1177735178010981e-01   1.1176566068248101e-01   1.1177535873173354e-01   1.1180068251096532e-01   1.1178921348811612e-01   1.1179982765321060e-01   1.1179830069859376e-01   1.1179181604135108e-01   1.1180275922906083e-01   1.1179154932027999e-01   1.1179368499968412e-01   1.1180324818766277e-01   1.1178803417935658e-01   1.1177887071455071e-01   1.1178283350744549e-01   1.1180105343207944e-01   1.1179406715077769e-01   1.1178608536590365e-01   1.1178868191534888e-01   1.1182131066254994e-01   1.1180158129177009e-01   1.1179171669387469e-01   1.1183105225070683e-01   1.1179103772174401e-01   1.1179512153697661e-01   1.1179105462786600e-01   1.1180173926982867e-01   1.1179843102873931e-01   1.1179249489618208e-01   1.1179445812907028e-01   1.1180384320028074e-01   1.1183294202015945e-01   1.1180180438041466e-01   1.1179281614170411e-01   1.1183709666544900e-01   1.1179161293958424e-01   1.1180123654012337e-01   1.1179325268985903e-01   1.1179371208657111e-01   1.1179850443976251e-01   1.1179252059256804e-01   1.1180209338560333e-01   1.1180211528727696e-01   1.1179233606193358e-01   1.1179869170445862e-01   1.1179214064529000e-01   1.1179252355691519e-01   1.1178937492444840e-01   1.1179180977848800e-01   1.1178836389360118e-01   1.1180177103344344e-01   1.1179305433293822e-01   1.1179134818488960e-01   1.1179118464600574e-01   1.1180114061566720e-01   1.1179192535070481e-01   1.1180066558924234e-01   1.1179398071072386e-01   1.1179418192048923e-01   1.1178880014208345e-01   1.1179278548182064e-01   1.1178218566385179e-01   1.1179963636868830e-01   1.1179859791685562e-01   1.1179311524038318e-01   1.1179485768820380e-01   1.1179567284450542e-01   1.1184084021402453e-01   1.1180172393167292e-01   1.1179002038627496e-01   1.1184425542281408e-01   1.1178697478261930e-01   1.1178971728995757e-01   1.1178837761734602e-01   1.1180299627594738e-01   1.1180171287685699e-01   1.1179103781401688e-01   1.1179399981129791e-01   1.1179794220951796e-01   1.1184898569623361e-01   1.1179395172835581e-01   1.1177784867752755e-01   1.1185374200610046e-01   1.1182064799509228e-01   1.1179970843733288e-01   1.1181842611628647e-01   1.1179023341030436e-01   1.1179996650545049e-01   1.1179216997761059e-01   1.1179399403735341e-01   1.1179551894899777e-01   1.1181742664945608e-01   1.1179917258314272e-01   1.1181626491829241e-01   1.1179404931696441e-01   1.1179905230735057e-01   1.1179685912535156e-01   1.1179849046533920e-01   1.1179746823910665e-01   1.1179851336985974e-01   1.1179466746129145e-01   1.1179469615186723e-01   1.1179401361575297e-01   1.1180137823561538e-01   1.1179669941489645e-01   1.1179965860747576e-01   1.1179896911743084e-01   1.1179435024153539e-01   1.1179160519396046e-01   1.1180397026969176e-01   1.1179474041346020e-01   1.1179625567188271e-01   1.1179676056282672e-01   1.1179705347870679e-01   1.1179711323512609e-01   1.1181442139827912e-01   1.1179895752992747e-01   1.1181511230493871e-01   1.1179770534830021e-01   1.1179602204487095e-01   1.1179005279259562e-01   1.1180101490712413e-01   1.1179296635791670e-01   1.1180713777302215e-01   1.1180867534399948e-01   1.1182606111444328e-01   1.1182305335434284e-01   1.1179345878607191e-01   1.1180387824485744e-01   1.1182535176477451e-01   1.1182470052326542e-01   1.1179755924934501e-01   1.1179755925699088e-01   1.1179912742461928e-01   1.1180030923843244e-01   1.1179506826573973e-01   1.1179133777337950e-01   1.1180532401160204e-01   1.1179728477531717e-01   1.1179151051154168e-01   1.1180457195457232e-01   1.1182461936214674e-01   1.1182412253448097e-01   1.1179030913523992e-01   1.1180161475569475e-01   1.1182311212294462e-01   1.1182720366428996e-01   1.1182122047897318e-01   1.1180675837891119e-01   1.1180324518239661e-01   1.1182342078725631e-01   1.1179430861623642e-01   1.1179213513598893e-01   1.1179296663032767e-01   1.1180071841656639e-01   1.1181041475031653e-01   1.1179688148252528e-01   1.1180941848231418e-01   1.1179962481182468e-01   1.1182444113423796e-01   1.1180324826713975e-01   1.1179377078207098e-01   1.1182431012548026e-01   1.1179620576210748e-01   1.1179689655302796e-01   1.1179381504823990e-01   1.1179456649123025e-01   1.1179906513922114e-01   1.1179607568280875e-01   1.1180003807565143e-01   1.1180148429546377e-01   1.1179571400936394e-01   1.1179775205804963e-01   1.1179628150259573e-01   1.1179675601693945e-01   1.1179389618127562e-01   1.1179223669519528e-01   1.1179441870121680e-01   1.1180352142408712e-01   1.1181091217485839e-01   1.1179649606541948e-01   1.1181167986078151e-01   1.1179633453203815e-01   1.1179744001234888e-01   1.1179540293166894e-01   1.1179506733547763e-01   1.1179373373535563e-01   1.1181275037148530e-01   1.1179441191954473e-01   1.1181536048813120e-01   1.1179048038791756e-01   1.1179911169709317e-01   1.1179551357896164e-01   1.1179758714586539e-01   1.1179635114054468e-01   1.1182422602874903e-01   1.1180416328998653e-01   1.1179181518426512e-01   1.1182369201293017e-01   1.1179488598253361e-01   1.1179201602499450e-01   1.1179672130228374e-01   1.1180509162715796e-01   1.1179976642223878e-01   1.1179680612210595e-01   1.1179632461189569e-01   1.1179906479390046e-01   1.1182314257118846e-01   1.1180101625485124e-01   1.1178915670254297e-01   1.1182573245578536e-01   1.1043527109299558e-01   1.1194953081016978e-01   1.1204627695675949e-01   1.1111621398362730e-01   1.1177555296755358e-01   1.1186744498739822e-01   1.1175963006673209e-01   1.1112908110375772e-01   1.1178033830242529e-01   1.1180119094672504e-01   1.1180453960793356e-01   1.1180667276261652e-01   1.1163973145710922e-01   1.1256512988048363e-01   1.1177125683780109e-01   1.1138843322567235e-01   1.1178861429316332e-01   1.1178732049608839e-01   1.1180205177534758e-01   1.1179711372593712e-01   1.1178506560970734e-01   1.1180686444017750e-01   1.1177701030345874e-01   1.1179240574160969e-01   1.1180355705268513e-01   1.1179664299577917e-01   1.1180226660371065e-01   1.1183271862795613e-01   1.1186241990787496e-01   1.1180347624431464e-01   1.1170101667275567e-01   1.1086824145065126e-01   1.1179928919836264e-01   1.1180448347588583e-01   1.1179273993810948e-01   1.1179679271445078e-01   1.1180260941314836e-01   1.1179557615971643e-01   1.1180019903314020e-01   1.1180543695140222e-01   1.1180077367248925e-01   1.1179874326541832e-01   1.1178094429029893e-01   1.1177703447906592e-01   1.1179817355873363e-01   1.1180292470791225e-01   1.1178082805101189e-01   1.1177758072576750e-01   1.1224248943577882e-01   1.1286200399616189e-01   1.1179336945618557e-01   1.0988302198989364e-01   1.1198133085809955e-01   1.1238747720221508e-01   1.1200892791325841e-01   1.1011597863731343e-01   1.1169503841988181e-01   1.1175919674912954e-01   1.1182935712454067e-01   1.1158920800179790e-01   1.0877901353133117e-01   1.1149313632718744e-01   1.1249214891680621e-01   1.1183196284883938e-01   1.1194197586550048e-01   1.1131010445446528e-01   1.1269603971123118e-01   1.0812669218293715e-01   1.1200374719961650e-01   1.1248739040674371e-01   1.1200550308242171e-01   1.0997410679118823e-01   1.1152995866662718e-01   1.1176791654899260e-01   1.1184267098765011e-01   1.1168059899788967e-01   1.0960358516345650e-01   1.1288803421117734e-01   1.1182283839267400e-01   1.1228245358888760e-01   1.1179965393171883e-01   1.1179734324497832e-01   1.1180414311164499e-01   1.1182823291152538e-01   1.1178484091259391e-01   1.1180693172708443e-01   1.1179842630487531e-01   1.1177667936267353e-01   1.1180083251397960e-01   1.1178737964592488e-01   1.1178810930541148e-01   1.1179844632213803e-01   1.1168781749532702e-01   1.1179467940491199e-01   1.1185615228228425e-01   1.1083950105002284e-01   1.1177451465707601e-01   1.1180389059786261e-01   1.1178043065339935e-01   1.1179835606233937e-01   1.1180017133300121e-01   1.1179562535868176e-01   1.1180248761273809e-01   1.1180546106190062e-01   1.1177656222434983e-01   1.1179876952162382e-01   1.1177968642735010e-01   1.1180018720158326e-01   1.1179725520989900e-01   1.1180423105157571e-01   1.1179178286304757e-01   1.1179843323903446e-01   1.1147301744492222e-01   1.1264341115291376e-01   1.1175747847019385e-01   1.1156126250014375e-01   1.1176003122601155e-01   1.1190522368763867e-01   1.1179660686879779e-01   1.1110095809507009e-01   1.1180556133124538e-01   1.1179891531679281e-01   1.1180556664897727e-01   1.1176700773194070e-01   1.1079363894218495e-01   1.1170203281602495e-01   1.1210936993035914e-01   1.1032107585195941e-01   1.1179993794789887e-01   1.1179019396650258e-01   1.1179887171290609e-01   1.1180089815513627e-01   1.1178786016458767e-01   1.1180168073233725e-01   1.1178865907457992e-01   1.1179210423861308e-01   1.1179872308136780e-01   1.1178272312022285e-01   1.1179791009430319e-01   1.1180211822537357e-01   1.1180099344937339e-01   1.1179183795396380e-01   1.1180043592790308e-01   1.1180099094804666e-01   1.1177628623778527e-01   1.1180249257580821e-01   1.1178080243899091e-01   1.1178511098426466e-01   1.1179775436382459e-01   1.1178633452031515e-01   1.1179864470974808e-01   1.1180026861740244e-01   1.1178507420527112e-01   1.1179879892758020e-01   1.1178598566836215e-01   1.1178954616259217e-01   1.1178927687732637e-01   1.1180021811899227e-01   1.1179037305370841e-01   1.1179266202874069e-01   1.1179648301465790e-01   1.1176918610587809e-01   1.1178879052428414e-01   1.1180023407607859e-01   1.1176484200521254e-01   1.1179820932913861e-01   1.1177752168569702e-01   1.1177968893651849e-01   1.1177900254659286e-01   1.1176967951922036e-01   1.1169735548111684e-01   1.1174859034349943e-01   1.1179687038498001e-01   1.1178146506733747e-01   1.1176481255769208e-01   1.1177692390825775e-01   1.1180092715969084e-01   1.1179329128120977e-01   1.1179872800563576e-01   1.1180034498363654e-01   1.1179238206437103e-01   1.1179981041270867e-01   1.1179212264930938e-01   1.1179518591147439e-01   1.1179947346736192e-01   1.1178928834684825e-01   1.1178358874357568e-01   1.1178835875589417e-01   1.1180124667324026e-01   1.1179350278378403e-01   1.1179089057248875e-01   1.1179569426448775e-01   1.1180521644414290e-01   1.1179799064109447e-01   1.1180038852932375e-01   1.1179983332786450e-01   1.1179504527330746e-01   1.1179452333735422e-01   1.1178823112367321e-01   1.1179347814466249e-01   1.1180168582910803e-01   1.1179231942216154e-01   1.1180193409207316e-01   1.1179498961520258e-01   1.1180243804557054e-01   1.1178908141475090e-01   1.1179855842823413e-01   1.1180393988408507e-01   1.1178732468056619e-01   1.1179498757823809e-01   1.1177211070418092e-01   1.1178246437499581e-01   1.1180529361747733e-01   1.1177196289702498e-01   1.1180727030837991e-01   1.1180136150385597e-01   1.1175535511372679e-01   1.1181658358988336e-01   1.1173298716911827e-01   1.1175741403643340e-01   1.1178168670706738e-01   1.1180224930472568e-01   1.1177194142803235e-01   1.1178239241361511e-01   1.1180377689720301e-01   1.1177897629417821e-01   1.1180769949552406e-01   1.1179745197542630e-01   1.1176210356895475e-01   1.1180561335928370e-01   1.1172025965381673e-01   1.1175455192863715e-01   1.1181964693138767e-01   1.1173168377982060e-01   1.1183899272217500e-01   1.1182365034443793e-01   1.1181581921850887e-01   1.1172553053087041e-01   1.1183085068640269e-01   1.1182657156576066e-01   1.1180650630153235e-01   1.1177361989974256e-01   1.1180781173727006e-01   1.1180961331970310e-01   1.1176107248089048e-01   1.1181418593880925e-01   1.1174929217373306e-01   1.1176578397789567e-01   1.1181637757908487e-01   1.1174198325203574e-01   1.1182242990278835e-01   1.1181704558594330e-01   1.1180861333160495e-01   1.1175972578598631e-01   1.1181730063639221e-01   1.1179821932257221e-01   1.1084963651294349e-01   1.1208206615317037e-01   1.1190179684250823e-01   1.1189427508277644e-01   1.1172993134024253e-01   1.1177901699051684e-01   1.1181809120699171e-01   1.1173132585671504e-01   1.1176531525944282e-01   1.1180051806297507e-01   1.1176938409575712e-01   1.1180561519745875e-01   1.1176782284606358e-01   1.1180734610723952e-01   1.1179936011319366e-01   1.1179511320633194e-01   1.1179608456128506e-01   1.1180010022486135e-01   1.1180086088257668e-01   1.1179762577547836e-01   1.1179396241182302e-01   1.1179847649141628e-01   1.1179638384930568e-01   1.1179316967979433e-01   1.1179956445635912e-01   1.1180404570460491e-01   1.1179031274068668e-01   1.1179851433003901e-01   1.1179412477572662e-01   1.1179758379226015e-01   1.1179708057582971e-01   1.1179438037655276e-01   1.1177422009421124e-01   1.1179568664102862e-01   1.1177378808592932e-01   1.1179848351308656e-01   1.1179817154337168e-01   1.1180596755422961e-01   1.1179409420153909e-01   1.1180234418822818e-01   1.1178330628924750e-01   1.1179060295170089e-01   1.1175625971262178e-01   1.1177559661476649e-01   1.1180170578222405e-01   1.1179116682697830e-01   1.1177061350033407e-01   1.1177177205366934e-01   1.1179811448444664e-01   1.1179440904294138e-01   1.1179793153180648e-01   1.1179753541523010e-01   1.1179759125364719e-01   1.1180678865163786e-01   1.1178867913945466e-01   1.1179615704097309e-01   1.1180492196147916e-01   1.1178917905717208e-01   1.1177234739419674e-01   1.1177350416793676e-01   1.1180719274538446e-01   1.1178809459514003e-01   1.1177430652665221e-01   1.1178229015785890e-01   1.1178146998560082e-01   1.1178771108213278e-01   1.1177256439728192e-01   1.1180821563655519e-01   1.1178819745327742e-01   1.1180706738684129e-01   1.1179755335211936e-01   1.1179653437946373e-01   1.1177202562310200e-01   1.1178853833946278e-01   1.1177077708499542e-01   1.1180553380358581e-01   1.1179807386582977e-01   1.1179491130366534e-01   1.1179770368028130e-01   1.1179868800398329e-01   1.1178951143432612e-01   1.1180476803335515e-01   1.1179928838776375e-01   1.1179839476446721e-01   1.1179417448437515e-01   1.1179836156433193e-01   1.1179327545858164e-01   1.1179656039252697e-01   1.1180034591336585e-01   1.1180033210305412e-01   1.1179554919667897e-01   1.1179710940361282e-01   1.1179719026774022e-01   1.1179695837447860e-01   1.1179328735624140e-01   1.1179418991158818e-01   1.1177012489431853e-01   1.1179004492784560e-01   1.1176901245381179e-01   1.1180261361472081e-01   1.1179302527090020e-01   1.1180696392523490e-01   1.1179763500600763e-01   1.1180180989904577e-01   1.1177331135088356e-01   1.1178847628463683e-01   1.1175550154014560e-01   1.1178534913985552e-01   1.1179871631590445e-01   1.1179493577291565e-01   1.1177533505113885e-01   1.1177643985543782e-01   1.1179692380954295e-01   1.1181185838018108e-01   1.1180016288724887e-01   1.1176262141542907e-01   1.1182011084944410e-01   1.1177422044674647e-01   1.1172823019559333e-01   1.1171796825987682e-01   1.1180522697526835e-01   1.1180051617965601e-01   1.1177303811987678e-01   1.1177357471715861e-01   1.1189317895794276e-01   1.1211783397644400e-01   1.1192057900036938e-01   1.1102800687250367e-01   1.1181560272557281e-01   1.1180137757060377e-01   1.1180162461894744e-01   1.1181249039453475e-01   1.1179253094045646e-01   1.1179314732033283e-01   1.1178602961147263e-01   1.1179649804739195e-01   1.1180702991205174e-01   1.1178949151795531e-01   1.1180770412532312e-01   1.1180071309894964e-01   1.1181694826887502e-01   1.1179440951298296e-01   1.1179459738121024e-01   1.1182149671517852e-01   1.1178282409639713e-01   1.1180363389011054e-01   1.1177081220705820e-01   1.1178065297272990e-01   1.1181067591261530e-01   1.1177007775484749e-01   1.1181165951765609e-01   1.1180541969419849e-01   1.1175470982884445e-01   1.1182257777021291e-01   1.1172689691237385e-01   1.1175039445403864e-01   1.1177933736938649e-01   1.1179499599996637e-01   1.1176670576063819e-01   1.1178902124443155e-01   1.1180972630568128e-01   1.1177370057112766e-01   1.1181214052071872e-01   1.1180967086196424e-01   1.1176605665438162e-01   1.1181551259818392e-01   1.1174852724787498e-01   1.1176001471817999e-01   1.1180567189793261e-01   1.1176063890506704e-01   1.1178962124336334e-01   1.1182013608657131e-01   1.1181989452033433e-01   1.1174029275338801e-01   1.1181889994747116e-01   1.1182863333222007e-01   1.1183003130785825e-01   1.1177924306072863e-01   1.1179956341836809e-01   1.1184640101110008e-01   1.1174447966429603e-01   1.1181291058821782e-01   1.1169428931525430e-01   1.1175735325900214e-01   1.1182806350221387e-01   1.1171424455845043e-01   1.1183918615983339e-01   1.1185807415530000e-01   1.1187725830574255e-01   1.1171865796499263e-01   1.1186665391937223e-01   1.1196511586917908e-01   1.1179003399035685e-01   1.1180142736621260e-01   1.1178674808159714e-01   1.1179663565588219e-01   1.1180102615595736e-01   1.1179469865442762e-01   1.1180324003726440e-01   1.1180343992561223e-01   1.1178783281898098e-01   1.1180062021501012e-01   1.1178744269826602e-01   1.1179500840134322e-01   1.1179108916296486e-01   1.1180344788646229e-01   1.1179101510280356e-01   1.1178907068741206e-01   1.1180050915987760e-01   1.1179554034619477e-01   1.1180243957638079e-01   1.1180311732274974e-01   1.1179096705873171e-01   1.1180219522857200e-01   1.1178964466816500e-01   1.1179174710615265e-01   1.1180331061167106e-01   1.1179624634515493e-01   1.1179678818866992e-01   1.1180367948939796e-01   1.1180299926