<?xml version="1.0"?>
<VTKFile type="UnstructuredGrid"  version="0.1"  >
<UnstructuredGrid>
<Piece  NumberOfPoints="2549" NumberOfCells="4928">
<Points>
<DataArray  type="Float64"  NumberOfComponents="3"  format="ascii">1.373447506008066 -0.09459540964513732 0  1.370137753692608 -0.054174608443103 0  1.364808273780514 -0.01425582952772522 0  1.362007151570194 0.02717264529432309 0  1.358315379536672 0.06960240570491449 0  1.354058385815228 0.1136370002899182 0  1.347398026465572 0.158400528705448 0  1.339833603256306 0.2047767370424645 0  1.324981198477075 0.2482207987789155 0  1.308118556192417 0.2893929198053417 0  1.29684001152453 0.3415334982059274 0  1.278719055274661 0.3879291890001958 0  1.259382260445997 0.4355691147906365 0  1.237417093370375 0.4819146224697011 0  1.213686461840528 0.5278884337916403 0  1.188718003464145 0.5744068975666339 0  1.159188913286351 0.6162786667312327 0  1.129922936965766 0.6562990734222117 0  1.102972726323179 0.7076880492005965 0  1.072752353946416 0.7546030842471664 0  1.041405028018187 0.802861384857389 0  1.008272545411878 0.8502705973402751 0  0.9736700642903838 0.8975717499987941 0  0.9376244596322074 0.9449515159236702 0  0.8990735589836758 0.9901386694323262 0  0.8590396565980705 1.031301580715696 0  0.81843901911599 1.074628932119495 0  0.7764020950497614 1.117308569303429 0  0.7328854398101633 1.159044413519143 0  0.6878506906965894 1.199418399072855 0  0.6413084829346131 1.2380643678151 0  0.5933304777745562 1.274886323874004 0  0.5437250946558194 1.308715765537002 0  0.4930677738183853 1.339634003116397 0  0.441257295253245 1.368987991122176 0  0.388321830274928 1.395171387172589 0  0.3343976418830986 1.418420517415367 0  0.2796168701550744 1.43849640977182 0  0.2241034580202635 1.455310944994354 0  0.1680115024122847 1.468955285755793 0  0.1113637159319406 1.47874556961563 0  0.05455072379659839 1.485210340908667 0  -0.002512381366639755 1.488815545265975 0  -0.05966379045267869 1.488834916149126 0  -0.1167906489677516 1.485406672424386 0  -0.1737438810131301 1.478330978512182 0  -0.2303637460896327 1.467657751172795 0  -0.2864955321609469 1.453074807642805 0  -0.3419704057611911 1.435561442156538 0  -0.3968522591165613 1.414113144419296 0  -0.450559753994823 1.388271035017718 0  -0.5030726828668187 1.358968190680054 0  -0.5542096352775261 1.326318662399635 0  -0.6038359955094478 1.290570072793667 0  -0.651870388441998 1.252408261443179 0  -0.6981514202613419 1.211271344280669 0  -0.743110223794605 1.171257374823949 0  -0.7869111016740512 1.128198043196425 0  -0.8282129512244611 1.081908457882062 0  -0.8678148238755427 1.034923518752237 0  -0.9056824488737542 0.987262975859397 0  -0.9416954299467365 0.9385857271563732 0  -0.9762145878608253 0.8907515062671268 0  -1.008054233500108 0.8391932066682104 0  -1.03982227648359 0.7957172856810245 0  -1.072322918124004 0.754106019065616 0  -1.102246314170118 0.7101366325370522 0  -1.131662184496432 0.6680498485067459 0  -1.160389258937656 0.6269693280049524 0  -1.189529284263665 0.5889891146044753 0  -1.217795203931577 0.550361618716972 0  -1.251975988631469 0.5235291468774455 0  -1.28282810439922 0.4849943535157303 0  -1.298681329288128 0.4283931648232223 0  -1.317968280086937 0.3792444131405225 0  -1.331061874866138 0.3266712276042133 0  -1.341643871556797 0.2745907670690282 0  -1.343286380563611 0.2180552986005786 0  -1.344772093723902 0.1666041449527336 0  -1.326612941242862 0.1046955214241592 0  -1.327329494159052 0.06331204682996969 0  -1.326606959185516 0.02032793736069616 0  -1.3065404126552 -0.02396554290604538 0  -1.302947276022822 -0.06268114262172328 0  -1.297982574381696 -0.0999051295425952 0  -1.305863497899856 -0.1372813470732487 0  -1.311832488052365 -0.1764888945787107 0  -1.33533325260542 -0.2217476399497785 0  -1.337967636823634 -0.2657356460819507 0  -1.339290237138506 -0.3082435057520521 0  -1.360834863239627 -0.3730170216304957 0  -1.360398346814285 -0.4258718158348595 0  -1.359765448156637 -0.4841016769478862 0  -1.349289224116384 -0.5371610989218732 0  -1.335916468918192 -0.5903187323419583 0  -1.315694013284784 -0.6391892522912868 0  -1.299860329738119 -0.6960874104332595 0  -1.269940021231851 -0.7368926459168752 0  -1.235122120589639 -0.7632601226959439 0  -1.206984185804637 -0.8026596525687724 0  -1.177873202131806 -0.841161479002094 0  -1.149438020062101 -0.8832304318761691 0  -1.120408664192208 -0.9265445403831847 0  -1.091021194559501 -0.9721098465970118 0  -1.059171890084772 -1.015620729150923 0  -1.028405982627676 -1.062237795374561 0  -0.9975600720861243 -1.118311159353327 0  -0.9636330965230009 -1.169772412255468 0  -0.9281760508147554 -1.222552991139088 0  -0.8907676831706393 -1.274458588995274 0  -0.8515359400558791 -1.325984811943978 0  -0.8104496752841676 -1.376896752690357 0  -0.7670415727569018 -1.425342812832386 0  -0.7224264594071488 -1.473645367892638 0  -0.6755530342350204 -1.523020609051457 0  -0.6262984699929997 -1.567081114177433 0  -0.5751054158828443 -1.60831742074059 0  -0.5220967479974546 -1.645543034465145 0  -0.4674626465672697 -1.678772996246305 0  -0.4114537525321208 -1.708006946377553 0  -0.3539526353925861 -1.731545668779769 0  -0.2959946773161203 -1.750315517200894 0  -0.2373132405860189 -1.766490809418961 0  -0.1780426077404403 -1.778186734630678 0  -0.1183485267735734 -1.785744309573928 0  -0.05842078972711096 -1.788933058592912 0  0.001547195864497722 -1.787794534030981 0  0.06136974813236862 -1.782236137020593 0  0.1208378252354232 -1.772213108027484 0  0.1796829896200346 -1.758210088845965 0  0.2378352330639064 -1.740650048923932 0  0.2951708862429574 -1.719510719112331 0  0.3515533753465696 -1.694963698177284 0  0.4068460789057491 -1.667100208976917 0  0.4609265959458724 -1.636402825642103 0  0.5136721032555432 -1.602410425856483 0  0.5651833563425555 -1.568232742995081 0  0.6157766951997701 -1.530679622670561 0  0.6643199687716922 -1.489399687909315 0  0.7112935705799582 -1.446576937200533 0  0.7566155051721586 -1.402174624422935 0  0.8002971957562061 -1.356610674803521 0  0.8423966701719454 -1.310302691446272 0  0.8829936753936486 -1.263651565142658 0  0.9229777356929163 -1.219330842283834 0  0.961370126965039 -1.171020495450426 0  0.9972236590200612 -1.120760782346385 0  1.031560412511995 -1.070700057724113 0  1.064382052355218 -1.020693677822182 0  1.095341889755938 -0.9699063049027833 0  1.125152857741108 -0.9206935652793186 0  1.151494470770376 -0.8667407604650079 0  1.180232417779675 -0.8248214930361973 0  1.209354820682266 -0.781346193636823 0  1.23382698979147 -0.7332015541222432 0  1.25705269720859 -0.6857150947531401 0  1.278467340670713 -0.6379047092722768 0  1.297179488499139 -0.588817346922233 0  1.314653452517497 -0.5410863391239216 0  1.324970566755463 -0.4873640608687271 0  1.341076953256026 -0.4450767473709949 0  1.354927093528231 -0.4003708226491895 0  1.361172553723887 -0.3526963341542145 0  1.366348556021594 -0.3067205073947486 0  1.368849438475926 -0.2615437289608787 0  1.370289141851392 -0.2180033049071873 0  1.370862433578093 -0.1758066061165351 0  1.372707457544876 -0.1351218969780825 0  -0.09230310038003253 0.8646061690172404 0  0.5198368778079867 -0.8775573827864591 0  -0.6530999190289872 -0.770148230498727 0  -0.07332379393962334 -1.116899093023119 0  0.5128188014303009 0.6391840185279573 0  0.9756821454849097 0.1509520733296585 0  -0.6604057514980854 0.5232050999041237 0  -1.041331851772909 -0.108245400222535 0  0.98370855644051 -0.35702328660794 0  -0.906834906485367 -0.5518582199133473 0  -0.6707599119565225 -0.1292268157803567 0  -0.3974810270070658 -0.334415452558752 0  -0.9092612775843778 0.3108173925883395 0  0.2405268147279492 -1.075911638651726 0  0.1047595911255685 -0.4095407210000301 0  0.2078713026419225 0.8149416714631625 0  0.2716810153525409 0.1686548642582873 0  0.5356918884453212 -0.1103261928527164 0  -0.3626476946449716 -0.9797938787438764 0  -0.3936972261085754 0.7445749337005286 0  -0.2321196510051451 0.233572697121739 0  0.7794032613641888 -0.5952497197821491 0  0.7710900505837825 0.3782115284644315 0  0.3291626918855096 -0.4372788553123597 0  0.01782362155277175 0.2298399144602862 0  -0.4517694765995575 0.1592295093876667 0  -0.1476670153148243 -0.4025940106812256 0  0.7811031246910223 -0.1060665574114955 0  1.134460248366596 -0.09938921394722113 0  0.6500297634049625 -0.7314500159037268 0  0.643299980164191 -0.3671600349483247 0  0.5132590468712759 -0.4879494668878601 0  0.430266602338911 -0.2674273274502524 0  0.4151199260383963 -0.6652827207779149 0  0.7690670514710141 -0.3477372017390259 0  0.657305295101335 -0.1081202841192389 0  -0.7758811559499429 0.1044801575188194 0  -0.9693119258637489 0.09721435995747181 0  -0.8615124866965398 -0.1171327092965809 0  -0.7742498338709629 -0.3533595722324572 0  -0.9699511888712014 -0.3245176054887955 0  -1.138144695931667 -0.4204414870541889 0  -1.174687703930331 -0.2214674455049048 0  -1.169054289628226 0.01140636277539092 0  -1.126285636694505 0.2072537176910814 0  -0.1114079847392702 -0.7585057007618163 0  -0.244891575849853 -0.6995491925650927 0  -0.2198292085323102 -1.05779507692609 0  -0.2713155380173567 -0.3705427714265188 0  -0.3742873502690124 -0.6520115723917621 0  -1.097813561756517 -0.6267404471851667 0  -1.08931210417346 0.4037435021310225 0  0.2829088498857359 -0.7518397602287356 0  0.215486525683978 -0.4260679212008487 0  0.1639060076566946 -0.747088598346298 0  -0.7836957060042291 0.4093808852955489 0  -0.6515522430335965 0.1935254818504809 0  1.15838227922289 -0.4191174743187245 0  1.06451338734768 -0.6018485604157415 0  1.049943004313286 0.3950685741410035 0  1.146220100740535 0.2182581187015166 0  -0.6885442188695684 -1.097157584377766 0  -0.8394812201955983 -0.9156052932202916 0  -0.8343935469415596 0.6814319296473096 0  -0.6842461473200587 0.8460389829600792 0  0.7000807703585958 -1.068732021759737 0  0.5311125127847011 -1.221369896874651 0  0.5188866954187878 0.9737399147974228 0  0.6858238065400986 0.8351475572887174 0  0.006246785605338655 
[...]
<PointData  Vectors="f_44"> 
<DataArray  type="Float64"  Name="f_44"  NumberOfComponents="3" format="ascii">2.2305833272348843e-01 1.2217036243257826e-02 0.0000000000000000e+00  2.1694359120171428e-01 5.7089666381481934e-02 0.0000000000000000e+00  2.1841221779887598e-01 4.4411104688763817e-02 0.0000000000000000e+00  2.2164161859228471e-01 3.0643846127188394e-02 0.0000000000000000e+00  2.2040027447171129e-01 3.9557188482309831e-02 0.0000000000000000e+00  2.1595823827140417e-01 5.5258311789692822e-02 0.0000000000000000e+00  2.1578983064909041e-01 6.3693657319025321e-02 0.0000000000000000e+00  1.9890856550125907e-01 9.7963227029027572e-02 0.0000000000000000e+00  1.5557495609648742e-01 1.6720188233815764e-01 0.0000000000000000e+00  1.8796107641222348e-01 1.1376594190544152e-01 0.0000000000000000e+00  1.9039270362315028e-01 1.1294331095065059e-01 0.0000000000000000e+00  1.5755371739882537e-01 1.6192034938610086e-01 0.0000000000000000e+00  1.5406891388610044e-01 1.6100861043753781e-01 0.0000000000000000e+00  1.3199204094181313e-01 1.8077346459874835e-01 0.0000000000000000e+00  1.3119900322630729e-01 1.8198574685226146e-01 0.0000000000000000e+00  1.0264002290218303e-01 1.9712596400431945e-01 0.0000000000000000e+00  5.5227530968245300e-02 2.1993625290636842e-01 0.0000000000000000e+00  1.0539363561048742e-01 1.9410840990144898e-01 0.0000000000000000e+00  1.1708747540253221e-01 1.9019179173838491e-01 0.0000000000000000e+00  8.6724230318073373e-02 2.0684050174977484e-01 0.0000000000000000e+00  8.6499410493845866e-02 2.0591156220136819e-01 0.0000000000000000e+00  7.0489186443466023e-02 2.1238053533346349e-01 0.0000000000000000e+00  6.5206735750798189e-02 2.1385128060196368e-01 0.0000000000000000e+00  5.0751382603570448e-02 2.1805765653003403e-01 0.0000000000000000e+00  1.6448969150521020e-02 2.2286222752296653e-01 0.0000000000000000e+00  8.5236181479323228e-03 2.2345520350313219e-01 0.0000000000000000e+00  1.2139438700987985e-02 2.2325778767381524e-01 0.0000000000000000e+00  -3.4558423857962970e-03 2.2366756403064292e-01 0.0000000000000000e+00  -1.6183038769696009e-02 2.2304940223620578e-01 0.0000000000000000e+00  -3.2845136695063212e-02 2.2120560635233305e-01 0.0000000000000000e+00  -4.8733976147335233e-02 2.1835641573605188e-01 0.0000000000000000e+00  -6.9016484561252006e-02 2.1275590359480684e-01 0.0000000000000000e+00  -9.3525789474440915e-02 2.0315543637059544e-01 0.0000000000000000e+00  -1.0835639573542474e-01 1.9580743865293632e-01 0.0000000000000000e+00  -1.2455297305693168e-01 1.8563896720113265e-01 0.0000000000000000e+00  -1.4523391665375801e-01 1.7029519712079660e-01 0.0000000000000000e+00  -1.6208577684594316e-01 1.5416126899410251e-01 0.0000000000000000e+00  -1.7885134220380627e-01 1.3435469150624643e-01 0.0000000000000000e+00  -1.9250627235465215e-01 1.1416848423096569e-01 0.0000000000000000e+00  -2.0504315369208623e-01 8.9361377611898635e-02 0.0000000000000000e+00  -2.1507177789561741e-01 6.1718563066437894e-02 0.0000000000000000e+00  -2.2023145361228411e-01 3.9692358179857383e-02 0.0000000000000000e+00  -2.2315924143468319e-01 1.4653641150164685e-02 0.0000000000000000e+00  -2.2343771329562201e-01 -1.3418450358886133e-02 0.0000000000000000e+00  -2.1991511342537412e-01 -4.0766758292540180e-02 0.0000000000000000e+00  -2.1332735941192774e-01 -6.7928052225164876e-02 0.0000000000000000e+00  -2.0196894820649777e-01 -9.5947393515097609e-02 0.0000000000000000e+00  -1.8952094563469812e-01 -1.1913139237618001e-01 0.0000000000000000e+00  -1.7514725266142245e-01 -1.3923504636415915e-01 0.0000000000000000e+00  -1.5205332469290705e-01 -1.6410773054086886e-01 0.0000000000000000e+00  -1.2814139581827846e-01 -1.8352083145385031e-01 0.0000000000000000e+00  -1.0614643000071645e-01 -1.9694979284498443e-01 0.0000000000000000e+00  -8.1714175580094806e-02 -2.0816086248267185e-01 0.0000000000000000e+00  -6.1654199911711630e-02 -2.1526148589228966e-01 0.0000000000000000e+00  -3.5793722045626523e-02 -2.2053153182200078e-01 0.0000000000000000e+00  -2.5353612203390968e-02 -2.2227758574424952e-01 0.0000000000000000e+00  -1.9053680053586406e-02 -2.2287294208201761e-01 0.0000000000000000e+00  1.2593026674870356e-02 -2.2328041152762410e-01 0.0000000000000000e+00  3.3553263962407945e-02 -2.2119939519537782e-01 0.0000000000000000e+00  4.2883318521443434e-02 -2.1955013821915600e-01 0.0000000000000000e+00  6.0061225938647884e-02 -2.1520319936367666e-01 0.0000000000000000e+00  6.4676418977352129e-02 -2.1459061989080602e-01 0.0000000000000000e+00  8.9042932922599974e-02 -2.0447519244422471e-01 0.0000000000000000e+00  9.1800969372299396e-02 -2.0359094140786485e-01 0.0000000000000000e+00  5.1482614240471992e-02 -2.1856674181638111e-01 0.0000000000000000e+00  6.8744585537655181e-02 -2.1206318750766798e-01 0.0000000000000000e+00  8.2338694622446626e-02 -2.0800251156390065e-01 0.0000000000000000e+00  7.9001457480756418e-02 -2.0978772901248224e-01 0.0000000000000000e+00  6.2141393186870425e-02 -2.1295731651300767e-01 0.0000000000000000e+00  7.7605946607528800e-02 -2.1614309039051896e-01 0.0000000000000000e+00  4.0659378293664205e-03 -2.0979950930035499e-01 0.0000000000000000e+00  -3.8301801848161600e-02 -2.3605091984330498e-01 0.0000000000000000e+00  1.4700041872675973e-01 -1.5582911786910733e-01 0.0000000000000000e+00  1.8772947776268811e-01 -1.2652733841093039e-01 0.0000000000000000e+00  1.7284691667518878e-01 -1.3588443402923683e-01 0.0000000000000000e+00  2.0619246659925103e-01 -9.9313923059426254e-02 0.0000000000000000e+00  2.1261287660609515e-01 -4.2892920245558179e-02 0.0000000000000000e+00  2.3150517438713353e-01 -2.5223554304235781e-02 0.0000000000000000e+00  2.0017151024762567e-01 7.1507992071713392e-02 0.0000000000000000e+00  1.9439122167615300e-01 9.4480850860716267e-02 0.0000000000000000e+00  2.4356983589157233e-01 -5.3367632360669229e-02 0.0000000000000000e+00  1.7260283952774433e-01 1.1872031613411269e-01 0.0000000000000000e+00  1.6934481050821118e-01 1.2406299824124041e-01 0.0000000000000000e+00  2.3445335286853183e-01 4.7238558993091331e-02 0.0000000000000000e+00  2.0032317190578272e-01 -1.7116245979879655e-02 0.0000000000000000e+00  2.2512952166959246e-01 -7.6556600445133349e-02 0.0000000000000000e+00  1.5465738118681033e-01 -1.4342426016428833e-01 0.0000000000000000e+00  1.5901069354353747e-01 -1.3448937561313398e-01 0.0000000000000000e+00  2.4758189563551428e-01 3.1178518782199970e-02 0.0000000000000000e+00  1.8663880742026309e-01 -1.1227728485238642e-01 0.0000000000000000e+00  1.9421682116232045e-01 -8.2749327281940913e-02 0.0000000000000000e+00  2.3335399253946937e-01 1.6408274690648483e-02 0.0000000000000000e+00  2.1285279458387429e-01 3.7143033120030679e-02 0.0000000000000000e+00  2.0726746934176310e-01 9.8718987062074992e-02 0.0000000000000000e+00  1.6961629181400545e-01 1.4009329731269293e-01 0.0000000000000000e+00  1.8153112223532605e-01 1.3009949620195307e-01 0.0000000000000000e+00  1.5938925573561116e-01 1.5232957113178452e-01 0.0000000000000000e+00  -3.0604181327336118e-02 2.3212324900628373e-01 0.0000000000000000e+00  -6.8243934902481650e-04 2.0834049123429038e-01 0.0000000000000000e+00  8.3839467098729609e-02 2.1505203489564012e-01 0.0000000000000000e+00  6.5956010679291008e-02 2.1139453972554748e-01 0.0000000000000000e+00  8.6868354784619586e-02 2.0688310029400384e-01 0.0000000000000000e+00  9.1362625906508454e-02 2.0407673563463313e-01 0.0000000000000000e+00  7.9906989229137262e-02 2.0817467472672702e-01 0.0000000000000000e+00  6.8597010964151994e-02 2.1371743035685273e-01 0.0000000000000000e+00  1.1271280236034434e-01 1.9306054186152530e-01 0.0000000000000000e+00  1.0730219064527309e-01 1.9525821475117189e-01 0.0000000000000000e+00  8.2796014567931536e-02 2.0837420205612345e-01 0.0000000000000000e+00  7.9756641935685588e-02 2.0866840714269660e-01 0.0000000000000000e+00  6.3914822853459022e-02 2.1438725549045481e-01 0.0000000000000000e+00  5.5179890865274452e-02 2.1681907136549905e-01 0.0000000000000000e+00  3.5467942626136804e-02 2.2068359405422344e-01 0.0000000000000000e+00  1.8077664141020661e-02 2.2291780222167210e-01 0.0000000000000000e+00  1.8726798434901139e-02 2.2314951231424271e-01 0.0000000000000000e+00  -4.8943848323372797e-03 2.2312673251092641e-01 0.0000000000000000e+00  -3.7963999650918977e-02 2.2095008358789833e-01 0.0000000000000000e+00  -6.0530174544364830e-02 2.1518859577513921e-01 0.0000000000000000e+00  -9.0245488567371718e-02 2.0477924617513252e-01 0.0000000000000000e+00  -1.1453996189201393e-01 1.9243062009353853e-01 0.0000000000000000e+00  -1.4355444265917341e-01 1.7157485499555952e-01 0.0000000000000000e+00  -1.7276800049591712e-01 1.4224860095641850e-01 0.0000000000000000e+00  -1.8688487853357869e-01 1.2335456677675798e-01 0.0000000000000000e+00  -1.9923532579523900e-01 1.0128953011850557e-01 0.0000000000000000e+00  -2.1271955353357766e-01 7.0148853459159513e-02 0.0000000000000000e+00  -2.2006011297573461e-01 4.0171801284437612e-02 0.0000000000000000e+00  -2.2371883899306574e-01 7.5737960236277766e-03 0.0000000000000000e+00  -2.2243378048194209e-01 -2.4733636983496402e-02 0.0000000000000000e+00  -2.1621700233526100e-01 -5.7720810579217428e-02 0.0000000000000000e+00  -2.0577911054777900e-01 -8.7916892450755749e-02 0.0000000000000000e+00  -1.9332848378417172e-01 -1.1268493322732098e-01 0.0000000000000000e+00  -1.7850592305771715e-01 -1.3481899267370726e-01 0.0000000000000000e+00  -1.6157392362425849e-01 -1.5484183799472517e-01 0.0000000000000000e+00  -1.4245424556817224e-01 -1.7236386571743981e-01 0.0000000000000000e+00  -1.2469616923034628e-01 -1.8596439036716253e-01 0.0000000000000000e+00  -1.0173283200559059e-01 -1.9894259170370032e-01 0.0000000000000000e+00  -8.9231501162689783e-02 -2.0521421614554333e-01 0.0000000000000000e+00  -7.9134596717591363e-02 -2.0921034617591946e-01 0.0000000000000000e+00  -4.8934442748857346e-02 -2.1821545682308185e-01 0.0000000000000000e+00  -2.6947201371354493e-02 -2.2215894026800323e-01 0.0000000000000000e+00  -1.2958238001701405e-02 -2.2321216133163849e-01 0.0000000000000000e+00  3.1288056543231305e-03 -2.2363048156816326e-01 0.0000000000000000e+00  1.4940468531760535e-02 -2.2317032106327572e-01 0.0000000000000000e+00  2.9074966150107944e-02 -2.2170124561635693e-01 0.0000000000000000e+00  2.5019639324634239e-02 -2.2221768883828891e-01 0.0000000000000000e+00  3.2816387874932226e-02 -2.2103620129561855e-01 0.0000000000000000e+00  6.4748636700105874e-02 -2.1431102376354386e-01 0.0000000000000000e+00  7.8019824680084102e-02 -2.0950347303313446e-01 0.0000000000000000e+00  8.3041352475705113e-02 -2.0779883013446551e-01 0.0000000000000000e+00  9.8220317512497241e-02 -2.0057661104219940e-01 0.0000000000000000e+00  9.8206366423419678e-02 -2.0166132600311626e-01 0.0000000000000000e+00  1.2738420988886426e-01 -1.8334413825743026e-01 0.0000000000000000e+00  1.1725997405982808e-01 -1.8736377029436363e-01 0.0000000000000000e+00  6.7202177318312503e-02 -2.1656709011501846e-01 0.0000000000000000e+00  1.1135315741903574e-01 -1.9226948109990313e-01 0.0000000000000000e+00  1.3908260273625780e-01 -1.7604846356377735e-01 0.0000000000000000e+00  1.3962099689316090e-01 -1.7494927137360369e-01 0.0000000000000000e+00  1.6083809270502747e-01 -1.5422928048460657e-01 0.0000000000000000e+00  1.6429917172719669e-01 -1.5514842840472023e-01 0.0000000000000000e+00  1.9519586132508768e-01 -1.0423629452026681e-01 0.0000000000000000e+00  1.9328144419100185e-01 -1.0459154479818281e-01 0.0000000000000000e+00  1.6426060817881002e-01 -1.5858933942544584e-01 0.0000000000000000e+00  2.0454534356755089e-01 -8.5751422946651015e-02 0.0000000000000000e+00  2.1960252638682332e-01 -4.9136880776503203e-02 0.0000000000000000e+00  2.1943138782765237e-01 -3.9205457457237455e-02 0.0000000000000000e+00  2.2332203658857530e-01 -1.7724498957232195e-02 0.0000000000000000e+00  2.2338204307195919e-01 -8.2303051406402618e-03 0.0000000000000000e+00  2.2305407044239797e-01 -1.2220092683583804e-02 0.0000000000000000e+00  2.2308054290507240e-01 -2.1308489948218230e-02 0.0000000000000000e+00  -2.2029919638480125e-01 -3.9022126181015027e-02 0.0000000000000000e+00  -2.3290446210317922e-02 -2.2257207275554916e-01 0.0000000000000000e+00  3.2404905550520453e-02 2.2140941383412885e-01 0.0000000000000000e+00  -2.2262718664933698e-01 2.2317322006877166e-02 0.0000000000000000e+00  -3.7651427414828444e-02 2.2058966683544243e-01 0.0000000000000000e+00  1.9657112444989583e-01 1.0686844417617632e-01 0.0000000000000000e+00  3.2028116452270168e-02 -2.2146583531928676e-01 0.0000000000000000e+00  2.2348711078562050e-01 -9.1409330415130625e-03 0.0000000000000000e+00  2.0531436326802116e-01 -8.8945443739118682e-02 0.0000000000000000e+00  1.5714164980453441e-01 1.5933106323130528e-01 0.0000000000000000e+00  2.2423180527322495e-01 2.1877463193948244e-04 0.0000000000000000e+00  1.4292747480189516e-01 1.7350618041997856e-01 0.0000000000000000e+00  1.5594946277394092e-01 -1.6048643434871906e-01 0.0000000000000000e+00  -1.6973438355962653e-01 -1.4576529116872536e-01 0.0000000000000000e+00  -6.5262929176901990e-02 -2.1650328508779090e-01 0.0000000000000000e+00  -1.8546687704064471e-01 1.2513596617182876e-01 0.0000000000000000e+00  5.7095819049619453e-02 2.1747692635049484e-01 0.0000000000000000e+00  2.2445798825651297e-01 1.2027509540804664e-02 0.0000000000000000e+00  -1.3947097972310765e-01 1.7495358716814322e-01 0.0000000000000000e+00  -1.2704394844204084e-01 -1.8415904462224109e-01 0.0000000000000000e+00  -7.9328637548318398e-02 -2.1036106065608043e-01 0.0000000000000000e+00  1.3391716873039092e-01 -1.7928542721528801e-01 0.0000000000000000e+00  1.1843260552369292e-01 1.8985705158052157e-01 0.0000000000000000e+00  8.1029569623822018e-02 -2.0930022219276292e-01 0.0000000000000000e+00  -2.0785878498926766e-01 8.4914217257040722e-02 0.0000000000000000e+00  1.1086834624958752e-01 -1.9489580582130900e-01 0.0000000000000000e+00  -1.2997626646399854e-01 1.8472994196473025e-01 0.0000000000000000e+00  2.2356255332160063e-01 1.1205188946556534e-02 0.0000000000000000e+00  2.2341108190764888e-01 1.1182350450570356e-02 0.0000000000000000e+00  6.4428599026377167e-02 -2.1435021567848836e-01 0.0000000000000000e+00  1.8548654184808772e-01 -1.2574360153153985e-01 0.0000000000000000e+00  1.1922074530510118e-01 -1.9000451892355585e-01 0.0000000000000000e+00  1.9686636035222899e-01 -1.0836495131134882e-01 0.0000000000000000e+00  2.2138129230512230e-03 -2.2406680570957677e-01 0.0000000000000000e+00  1.9909563415137518e-01 -1.0229985969362340e-01 0.0000000000000000e+00  2.2377207591937937e-01 1.1657650792889936e-02 0.0000000000000000e+00  1.9469015309677565e-01 -1.1060967353082361e-01 0.0000000000000000e+00  2.1018378184178593e-01 -7.6838650972453418e-02 0.0000000000000000e+00  2.2373311016713740e-01 -5.7340708551101129e-03 0.0000000000000000e+00  1.9603882386181945e-01 1.0825098850286738e-01 0.0000000000000000e+00  2.1361295179819231e-01 6.6834937144020334e-02 0.0000000000000000e+00  2.1308301845054939e-01 6.8708123061144072e-02 0.0000000000000000e+00  2.2275103046337374e-01 -1.9610519599116943e-02 0.0000000000000000e+00  2.2360413119345640e-01 -7.3227321822352202e-04 0.0000000000000000e+00  2.0890716659241201e-01 -8.0385835929869823e-02 0.0000000000000000e+00  -2.1702791875790850e-01 5.4649225853400568e-02 0.0000000000000000e+00  -1.5743393676830272e-01 1.5919628879101999e-01 0.0000000000000000e+00  -1.9690563089429361e-01 1.0622970017408187e-01 0.0000000000000000e+00  4.9036114889707862e-02 2.2045203191884077e-01 0.0000000000000000e+00  -6.2058300111364095e-02 2.1521943747088573e-01 0.0000000000000000e+00  1.4794021221008841e-01 1.6807565591191143e-01 0.0000000000000000e+00  1.4527568121409895e-01 -1.7036763062377352e-01 0.0000000000000000e+00  -9.8910966918333704e-02 -2.0087618196204698e-01 0.0000000000000000e+00  2.3410856018654901e-02 -2.2394871939788355e-01 0.0000000000000000e+00  -1.6139997046330143e-01 -1.5523615775699787e-01 0.0000000000000000e+00  1.0278802665264282e-01 -1.9877540371537653e-01 0.0000000000000000e+00  1.5005602274497901e-01 -1.6643116811153369e-01 0.0000000000000000e+00  1.9975677565963018e-01 -1.0068416565864230e-01 0.0000000000000000e+00  1.5929571508865967e-01 -1.5706922194042619e-01 0.0000000000000000e+00  1.4792357975519169e-01 1.6780961806945979e-01 0.0000000000000000e+00  1.9148326603693311e-01 1.1561987927047178e-01 0.0000000000000000e+00  -8.1345260534509221e-03 2.2357354767382570e-01 0.0000000000000000e+00  5.8058961242633420e-02 2.1598300136270998e-01 0.0000000000000000e+00  4.7855793543976170e-02 -2.1846977418043537e-01 0.0000000000000000e+00  -1.7753115747746812e-02 -2.2298795488604878e-01 0.0000000000000000e+00  2.6986308665549875e-03 -2.2367016801107417e-01 0.0000000000000000e+00  -7.2801017824242489e-02 -2.1152912172347274e-01 0.0000000000000000e+00  -8.7028556618774025e-02 2.0608875739829721e-01 0.0000000000000000e+00  -1.2802785204415357e-02 2.2331882711799558e-01 0.0000000000000000e+00  -2.2283497276130798e-01 -2.0394796626817532e-02 0.0000000000000000e+00  -2.0806245584487645e-01 8.2364210249642369e-02 0.0000000000000000e+00  -2.0586228307322238e-01 -8.7661091027916804e-02 0.0000000000000000e+00  -2.2360949839436031e-01 7.7391664572313522e-03 0.0000000000000000e+00  -1.0300479450971872e-01 -1.9862206163334201e-01 0.0000000000000000e+00  1.8944934084878085e-01 1.2123661428676744e-01 0.0000000000000000e+00  1.0241210411081592e-01 1.9953034602590028e-01 0.0000000000000000e+00  -2.3568997808034984e-02 2.2286032538883696e-01 0.0000000000000000e+00  5.3202724100367839e-02 2.1769952856849742e-01 0.0000000000000000e+00  2.1150798235064441e-01 7.5133377106342991e-02 0.0000000000000000e+00  1.5098884675047278e-01 1.6559664187249673e-01 0.0000000000000000e+00  -7.1615853433509541e-02 2.1342659471747338e-01 0.0000000000000000e+00  2.2614647653475869e-01 6.1474071350939748e-02 0.0000000000000000e+00  2.2728598933962929e-01 1.0736629891008542e-02 0.0000000000000000e+00  9.6977930576550117e-02 2.0153292818723115e-01 0.0000000000000000e+00  8.9675223094194442e-02 -2.0490159106826852e-01 0.0000000000000000e+00  1.0462768301877963e-01 1.9780411424908367e-01 0.0000000000000000e+00  1.7233561722311538e-01 1.4320134531963000e-01 0.0000000000000000e+00  4.7909139111958828e-02 2.1862062673887411e-01 0.0000000000000000e+00  1.8849576195206205e-01 1.2070356103313369e-01 0.0000000000000000e+00  -1.2995693364446517e-01 1.8233175975726101e-01 0.0000000000000000e+00  -1.2013217077302421e-01 1.8876635536186251e-01 0.0000000000000000e+00  -2.1663030002088632e-01 -5.6502404388102077e-02 0.0000000000000000e+00  -2.1322565692256640e-01 -6.7805208916368070e-02 0.0000000000000000e+00  -1.2842914449411943e-01 -1.8335994816704607e-01 0.0000000000000000e+00  -2.0010950853551607e-01 -1.0023948491919764e-01 0.0000000000000000e+00  -1.8822533865504629e-01 -1.2094576524463581e-01 0.0000000000000000e+00  2.2513989779765173e-01 -1.3382900456283655e-02 0.0000000000000000e+00  -2.1294436020175070e-01 -7.4680063434348840e-02 0.0000000000000000e+00  -1.3582335175180488e-01 -1.7777841433990160e-01 0.0000000000000000e+00  -1.9616807188108221e-01 -1.0762916127884446e-01 0.0000000000000000e+00  -2.0506923573646726e-01 8.9476525826327313e-02 0.0000000000000000e+00  -1.5274921297283947e-01 1.6347435780178948e-01 0.0000000000000000e+00  1.5809828401065634e-01 -1.9066972327460438e-01 0.0000000000000000e+00  -1.9865360859229658e-01 1.0309745575879843e-01 0.0000000000000000e+00  -2.1883150719178801e-01 4.6526282722527026e-02 0.0000000000000000e+00  -1.5955701594309563e-01 1.5690441697602456e-01 0.0000000000000000e+00  -8.2072657697610435e-02 2.0816959319731881e-01 0.0000000000000000e+00  -5.6256771796130249e-02 2.1656678412892733e-01 0.0000000000000000e+00  -8.3994286917094194e-02 -2.0735257988200773e-01 0.0000000000000000e+00  -1.5734738841831200e-01 -1.5907020642205480e-01 0.0000000000000000e+00  -4.9580111354720305e-02 -2.1817537715164392e-01 0.0000000000000000e+00  2.0226951191977477e-01 -9.6954461751363796e-02 0.0000000000000000e+00  5.1731750000441161e-02 -2.1793811220497875e-