<?xml version="1.0"?>
<VTKFile type="UnstructuredGrid"  version="0.1"  >
<UnstructuredGrid>
<Piece  NumberOfPoints="2549" NumberOfCells="4928">
<Points>
<DataArray  type="Float64"  NumberOfComponents="3"  format="ascii">0.7468950120161315 -0.1891908192902746 0  0.7435893703671204 -0.1658915279272064 0  0.7427336502551731 -0.1428536377788115 0  0.7530386700638005 -0.1154008830194387 0  0.767109051390237 -0.08404679064060841 0  0.7849552906088266 -0.04724827443381907 0  0.8022532396950015 -0.006572449569897998 0  0.8213958569597377 0.03981451501010463 0  0.829076870062434 0.08280652350212359 0  0.8353878535360876 0.1236551118911994 0  0.8551251484957425 0.1887424703748345 0  0.863107232042273 0.2445291782246004 0  0.8703133346552494 0.304876654292373 0  0.873690063522751 0.3645927522496497 0  0.8747724899784082 0.4254135014867194 0  0.8744559290231062 0.4890693587376037 0  0.8659599755019043 0.5450832637894906 0  0.858817920146709 0.5989594650324177 0  0.8570377320373078 0.6770590998698549 0  0.849364124181071 0.7476256429989426 0  0.8400115639890156 0.8222286873879219 0  0.8276012298004085 0.8964248325576771 0  0.8127089742222307 0.9716430228333346 0  0.7953407463250608 1.048208559663582 0  0.7733300080025145 1.121535542524897 0  0.7486838995663324 1.187921429023327 0  0.7232015161166035 1.259708088659349 0  0.6951137455150755 1.331239158292343 0  0.6643066129253736 1.401893565479496 0  0.6306788099829175 1.470809135830458 0  0.5942291705703332 1.537230146420012 0  0.5550804234398458 1.600943628448353 0  0.5128303961958303 1.659593849971466 0  0.4686123102710393 1.713326794410551 0  0.4222072394841171 1.764821685306456 0  0.3736560254425743 1.810852988034131 0  0.3232165319316918 1.851882237941175 0  0.2711390801849771 1.887422020307001 0  0.2176581781186752 1.91728819990231 0  0.1630691109453503 1.94165671949996 0  0.1074047612005201 1.959154938140781 0  0.05143410844223514 1.970836458503054 0  -0.005024761411004899 1.977631090531951 0  -0.06166023911012174 1.97808560902211 0  -0.1182586246286952 1.972477143834634 0  -0.1745338628309815 1.96040810524346 0  -0.2301787462732637 1.941981812722463 0  -0.2848963935507886 1.916578816823812 0  -0.3383620463883316 1.886164088590074 0  -0.3907168671765024 1.848736504168039 0  -0.4408121383804167 1.803387775295461 0  -0.4886221071580889 1.751995172378767 0  -0.5337994536235016 1.694799647268579 0  -0.5760914379044513 1.632311129783163 0  -0.6153529633823961 1.565917937012664 0  -0.6512802537018548 1.494515029338996 0  -0.6847561682629979 1.426319490851483 0  -0.7161317516840223 1.353018107758731 0  -0.7427493787616786 1.274267140588109 0  -0.7662342380056115 1.195165304020173 0  -0.7865477970626784 1.115784152610363 0  -0.803482696051153 1.035476979211076 0  -0.8177980302722796 0.9580025323012049 0  -0.8271646146929242 0.874270047991719 0  -0.8368460694366513 0.8079404856577884 0  -0.8485052341657111 0.7466315204520861 0  -0.8555848630780416 0.6819562869381295 0  -0.8622963449931624 0.6224610496632564 0  -0.8683605718888057 0.5664646364687411 0  -0.8760783639847768 0.5182338649372237 0  -0.8829898173708636 0.4703599678815784 0  -0.9028076690071624 0.4478219246691736 0  -0.917204811598573 0.4037272852769396 0  -0.9030315998377972 0.3254572735535627 0  -0.8973815353681517 0.2641644323546549 0  -0.8812743696087865 0.19821184612083 0  -0.8624021225928346 0.1355465631247458 0  -0.8283013465657607 0.06637171980802242 0  -0.7970013349614129 0.009834840352681007 0  -0.7300643842451746 -0.06513120200861755 0  -0.7051372806797351 -0.09662750848816312 0  -0.6822382853205848 -0.1290902989625702 0  -0.626197928016482 -0.1622730645873001 0  -0.6092084150305936 -0.1829045963108623 0  -0.5959651487633915 -0.1998102590851692 0  -0.6150408587846941 -0.2170203830787915 0  -0.636782078810932 -0.2386358103816864 0  -0.6996908721605055 -0.2737491062152624 0  -0.7264135660089166 -0.3082196900157601 0  -0.7554189760365742 -0.3419647666469712 0  -0.8291268739928879 -0.4226605937081669 0  -0.8625252790672792 -0.482004754276369 0  -0.8986452757925473 -0.5545683828824262 0  -0.9177290681094494 -0.6191915887559829 0  -0.9332779130306956 -0.6863130707574957 0  -0.9370569678312471 -0.7470494484895801 0  -0.951269262276407 -0.8259133991119724 0  -0.938735734208036 -0.8745489227479611 0  -0.9176436506870267 -0.8961569758394989 0  -0.9109881670668032 -0.9455749408657698 0  -0.9033284582771458 -0.9948489384630035 0  -0.8978480161249112 -1.052822216401901 0  -0.8919095631229568 -1.114772102630058 0  -0.8859017870371171 -1.182639175514703 0  -0.8755452966390589 -1.247747372597568 0  -0.8678681129482309 -1.320359225404358 0  -0.8604889987231576 -1.413121838473509 0  -0.8473580292038488 -1.497850349409213 0  -0.8315350009447209 -1.586364183169732 0  -0.8121399565958851 -1.674235444506226 0  -0.7893953564246277 -1.762419848711911 0  -0.7632088989043307 -1.850415526746578 0  -0.7326188661876288 -1.93449036686835 0  -0.6998303319935844 -2.019263076562911 0  -0.6627182549686329 -2.107142632229185 0  -0.6210163868718065 -2.185333212550653 0  -0.5755910148344474 -2.258797163950443 0  -0.5266702374196037 -2.325144859948916 0  -0.4746179235254847 -2.384391697752615 0  -0.419919854007725 -2.436524108084542 0  -0.3623265056511535 -2.478132541836534 0  -0.3038946838611678 -2.511060235939987 0  -0.2440777352660696 -2.539647929214794 0  -0.1831313162856359 -2.56011961748045 0  -0.1213743802403715 -2.573152418133716 0  -0.05917423765902131 -2.578281893909681 0  0.003094393051235907 -2.575589068061963 0  0.06507215711374191 -2.564888050726907 0  0.1263529798074509 -2.54609001496449 0  0.1864120853608095 -2.520166325680305 0  0.2451217282059144 -2.487966407761467 0  0.30224711236069 -2.449450638988027 0  0.3575279988585752 -2.404968599465015 0  0.4107045227041656 -2.354710631642793 0  0.4615458408693291 -2.299651354346315 0  0.5098209691453212 -2.238879639890728 0  0.5557469195692802 -2.178627804887628 0  0.5999728582899215 -2.112530226041527 0  0.6402521422438108 -2.039900786608567 0  0.6775645697486649 -1.965126212086014 0  0.7117667436480705 -1.888153987287363 0  0.7429039469269512 -1.809843369292768 0  0.7711168182277826 -1.731055607313093 0  0.7965919371571053 -1.652621397877358 0  0.8211383614209625 -1.579919888227923 0  0.8428320809905659 -1.500346518717143 0  0.8598161636813153 -1.41802108752861 0  0.8741769640004858 -1.337283753325412 0  0.8859656126630502 -1.257893273317518 0  0.8945431957997239 -1.178232084310343 0  0.9013979948724478 -1.103070132027627 0  0.901960987755537 -1.019842839118203 0  0.9080469844885357 -0.9621689163994298 0  0.9157295634592861 -0.9029479508780186 0  0.9150535458802714 -0.836039742147938 0  0.9129612711990898 -0.7721936968165888 0  0.9084834951046594 -0.7095478432556688 0  0.9000280984911033 -0.6463054940687748 0  0.8907520304816566 -0.5878481522108405 0  0.8690918746620231 -0.519597394018123 0  0.861268379620319 -0.4765184206863029 0  0.8515828375034307 -0.4310026862237527 0  0.8298022942116203 -0.3820191613276528 0  0.8095356310214583 -0.3389187397760167 0  0.7881771692687392 -0.2998358558713334 0  0.7696026506260911 -0.266260436206592 0  0.75484196985022 -0.2372712335102003 0  0.7487287780716281 -0.2127014829154164 0  -0.06931578120209175 1.122192492526069 0  0.3257422748712331 -1.236559314660399 0  -0.4040194309492292 -1.069026565735165 0  -0.05811496981217608 -1.640600990795028 0  0.3117061221158862 0.7598125861433896 0  0.5335623061480574 0.07276737780521567 0  -0.4006018285812796 0.5794810269013857 0  -0.5366740239077492 -0.2141352052688259 0  0.548241852909094 -0.4844666793775274 0  -0.5511553156959901 -0.7344250572632496 0  -0.332544380095642 -0.2471427682596601 0  -0.1887293061563484 -0.5313668463803141 0  -0.5367935865442577 0.2700871947355833 0  0.1525549338784732 -1.561213861567825 0  0.03579110824890461 -0.6468187431598234 0  0.1264339560010481 1.042600017052622 0  0.1149360806927037 0.1520439835597076 0  0.2455087744408631 -0.2233310043767372 0  -0.2346641899746422 -1.421535823754721 0  -0.2554793285827567 0.9281157972508276 0  -0.1149944592465749 0.2429081766203861 0  0.4577218523100306 -0.8085563528931587 0  0.4413243097840951 0.3736609628741572 0  0.146851560595445 -0.6707698663926785 0  -0.002207586729762304 0.241960541826624 0  -0.2200271779986549 0.1304716143684501 0  -0.07482454453268275 -0.6386845686129583 0  0.3892487912007945 -0.2127440121723568 0  0.6033785663000839 -0.1987553587677933 0  0.392551451228382 -1.012650763015625 0  0.3231201238943182 -0.5446878358967319 0  0.256614852145292 -0.7179605176551126 0  0.1918587918651454 -0.4343000421201369 0  0.2175372001166355 -0.96939379398355 0  0.4011130386422291 -0.5048083088171649 0  0.3151943598871553 -0.2178853262488131 0  -0.4064101056789349 0.03884195146761757 0  -0.5247645275962149 0.01983272228251773 0  -0.4455424116653446 -0.2274321893545132 0  -0.4127546971958528 -0.516418021532665 0  -0.5356502892859966 -0.4632117221077465 0  -0.6790688534443842 -0.5565744656429825 0  -0.601619714222454 -0.3301312923476172 0  -0.590352885618233 -0.08763527793514755 0  -0.655350734970043 0.1325545220930242 0  -0.06829491739652238 -1.137161077523281 0  -0.1342128089935728 -1.046820691888923 0  -0.1500765083734346 -1.549965589360059 0  -0.1292599590573387 -0.5891017871096963 0  -0.2001427269514831 -0.9662651485484134 0  -0.7401441762757478 -0.7857044922113376 0  -0.7135340254347383 0.3485824981642369 0  0.1458314403949721 -1.106480890473637 0  0.08837210277905244 -0.6641105708655588 0  0.07669863052356027 -1.112741139404665 0  -0.4664220904887634 0.4095233889171189 0  -0.3385119269510461 0.1592418088980575 0  0.6967341650139506 -0.5166274646904296 0  0.6932302191739895 -0.7451701390758244 0  0.6647760906802926 0.3318317290184688 0  0.673096445624331 0.1151303159481284 0  -0.5252660945216769 -1.500582591726176 0  -0.6064729950715817 -1.2038285959573 0  -0.5872830149104102 0.7376522299890579 0  -0.5076553177695662 1.00051575006852 0  0.5307872453623863 -1.448815419893342 0  0.4179493886391164 -1.704543227741776 0  0.39349775
[...]
<PointData  Vectors="f_44"> 
<DataArray  type="Float64"  Name="f_44"  NumberOfComponents="3" format="ascii">2.1539948254098398e-01 4.1394981790771529e-02 0.0000000000000000e+00  2.2537819471393089e-01 6.8686398887525826e-02 0.0000000000000000e+00  1.9595380787592451e-01 -7.9620291554032233e-02 0.0000000000000000e+00  1.5385201379447142e-01 -1.7185835038297592e-01 0.0000000000000000e+00  1.3947345762597055e-01 -1.7285901069663004e-01 0.0000000000000000e+00  1.4743878221109330e-01 -1.6724164007491990e-01 0.0000000000000000e+00  1.5289153826831176e-01 -1.6665718520261130e-01 0.0000000000000000e+00  1.8048459896059624e-01 -1.2446303745676668e-01 0.0000000000000000e+00  2.2437489720988174e-01 -4.9437673999635598e-02 0.0000000000000000e+00  1.9088361235582241e-01 -1.1302476202096483e-01 0.0000000000000000e+00  1.9636838536010059e-01 -1.0214500863779653e-01 0.0000000000000000e+00  2.2005071426345760e-01 -5.0525267202379667e-02 0.0000000000000000e+00  2.1875171732459600e-01 -4.2918150233772129e-02 0.0000000000000000e+00  2.2335551402403195e-01 -1.1726840285870632e-02 0.0000000000000000e+00  2.2474787919869244e-01 -9.5122625505180726e-03 0.0000000000000000e+00  2.1894479830524022e-01 3.2272562689978197e-02 0.0000000000000000e+00  2.1191670926761683e-01 8.0034974933364922e-02 0.0000000000000000e+00  2.2159786042340052e-01 2.1566922453248628e-02 0.0000000000000000e+00  2.2173679644981192e-01 2.3338368516344670e-02 0.0000000000000000e+00  2.1722754901916982e-01 5.6045040771893734e-02 0.0000000000000000e+00  2.1461380443382097e-01 6.1771832848444619e-02 0.0000000000000000e+00  2.0868305244280999e-01 8.0767057823060456e-02 0.0000000000000000e+00  2.0512968434235090e-01 8.9163667826251958e-02 0.0000000000000000e+00  1.9614387127918981e-01 1.0771361683147991e-01 0.0000000000000000e+00  1.7558028534779377e-01 1.3847748077957694e-01 0.0000000000000000e+00  1.7078648130318752e-01 1.4433172156890009e-01 0.0000000000000000e+00  1.7088166302819910e-01 1.4415626336849435e-01 0.0000000000000000e+00  1.5789150010616168e-01 1.5851990800967372e-01 0.0000000000000000e+00  1.4562683897468015e-01 1.6975674656781439e-01 0.0000000000000000e+00  1.2894286011063275e-01 1.8272176838427998e-01 0.0000000000000000e+00  1.1182414139656226e-01 1.9388742734370060e-01 0.0000000000000000e+00  8.7278067366257303e-02 2.0594675237855792e-01 0.0000000000000000e+00  5.5210195678541144e-02 2.1679329996671554e-01 0.0000000000000000e+00  3.4015827021296005e-02 2.2132150345573159e-01 0.0000000000000000e+00  7.4204172318212388e-03 2.2339901662027417e-01 0.0000000000000000e+00  -2.9105235811036103e-02 2.2212187860829510e-01 0.0000000000000000e+00  -6.2863532415221676e-02 2.1481569569453612e-01 0.0000000000000000e+00  -9.9973668817196742e-02 2.0020819935700673e-01 0.0000000000000000e+00  -1.3310788838651122e-01 1.8041723876876925e-01 0.0000000000000000e+00  -1.6701350276952423e-01 1.4888614869784772e-01 0.0000000000000000e+00  -1.9642379674977439e-01 1.0777050882401910e-01 0.0000000000000000e+00  -2.1207730513237125e-01 7.2572785210788207e-02 0.0000000000000000e+00  -2.2172117081892834e-01 2.9502430358184110e-02 0.0000000000000000e+00  -2.2342284588704603e-01 -2.0547832301005910e-02 0.0000000000000000e+00  -2.1308689344666285e-01 -6.8291909955257191e-02 0.0000000000000000e+00  -1.9373270647064095e-01 -1.1332066066161876e-01 0.0000000000000000e+00  -1.6184485571725182e-01 -1.5423660793191091e-01 0.0000000000000000e+00  -1.2946512049847653e-01 -1.8313100396611515e-01 0.0000000000000000e+00  -9.5790854494245292e-02 -2.0243112217606779e-01 0.0000000000000000e+00  -4.6274819556184940e-02 -2.1899476785705133e-01 0.0000000000000000e+00  -1.3613165854251769e-03 -2.2410269816557413e-01 0.0000000000000000e+00  3.4208087981183806e-02 -2.2116615080493190e-01 0.0000000000000000e+00  6.8970251570893384e-02 -2.1278954315570317e-01 0.0000000000000000e+00  9.5183484506343355e-02 -2.0281855656464134e-01 0.0000000000000000e+00  1.2306561674579722e-01 -1.8642265977676750e-01 0.0000000000000000e+00  1.3617613754378316e-01 -1.7756941839477611e-01 0.0000000000000000e+00  1.4253899557324903e-01 -1.7253851268780232e-01 0.0000000000000000e+00  1.6756656879452059e-01 -1.4794841278501411e-01 0.0000000000000000e+00  1.8412845049842147e-01 -1.2730176793598483e-01 0.0000000000000000e+00  1.9130357824507885e-01 -1.1591305465333618e-01 0.0000000000000000e+00  2.0112839756539758e-01 -9.7377110916885695e-02 0.0000000000000000e+00  2.0625413432657996e-01 -8.7658596523551638e-02 0.0000000000000000e+00  2.1408354451160849e-01 -6.2504833991571279e-02 0.0000000000000000e+00  2.1869020230542352e-01 -4.8509001770007713e-02 0.0000000000000000e+00  2.0894208439936557e-01 -8.0522834621183592e-02 0.0000000000000000e+00  2.1283285759229253e-01 -6.6056006388907185e-02 0.0000000000000000e+00  2.1908767112632394e-01 -4.5241022310335159e-02 0.0000000000000000e+00  2.2005334216208913e-01 -4.6558208363450107e-02 0.0000000000000000e+00  2.0959905206782176e-01 -6.2280482077772745e-02 0.0000000000000000e+00  2.3659515914508700e-01 -5.3045274306757616e-02 0.0000000000000000e+00  1.2432768341003898e-01 -1.2500196630546653e-01 0.0000000000000000e+00  9.2090446621021588e-02 -2.3267720158702121e-01 0.0000000000000000e+00  2.1330291037916602e-01 2.1006158672131629e-02 0.0000000000000000e+00  2.1495862990825282e-01 7.3564466326592193e-02 0.0000000000000000e+00  2.1021993260739541e-01 6.2211363860313285e-02 0.0000000000000000e+00  1.9672841293952700e-01 1.1647436779710499e-01 0.0000000000000000e+00  1.5711195415491339e-01 1.5208251786083413e-01 0.0000000000000000e+00  1.3528975459394854e-01 1.8532363274702696e-01 0.0000000000000000e+00  6.2624708464801601e-02 2.0902389517298048e-01 0.0000000000000000e+00  1.1853399405570083e-02 2.2607716439779751e-01 0.0000000000000000e+00  1.0373086750881072e-01 2.1413586826850656e-01 0.0000000000000000e+00  -4.8332225757510408e-02 2.0218266144777897e-01 0.0000000000000000e+00  -9.2907418609450454e-02 1.9202423994102838e-01 0.0000000000000000e+00  9.9094114143937137e-02 2.7909042896685143e-01 0.0000000000000000e+00  -8.4645163955424547e-03 -2.1169777011806952e-02 0.0000000000000000e+00  1.3701176968760316e-02 -2.7842306069740225e-01 0.0000000000000000e+00  -1.0481796490213058e-01 -1.8877055096014325e-01 0.0000000000000000e+00  -6.0769167926996985e-02 -1.9974611672865963e-01 0.0000000000000000e+00  8.0978911296815670e-02 -2.2159549087802216e-01 0.0000000000000000e+00  3.4966266816557688e-03 -2.2660042120379204e-01 0.0000000000000000e+00  5.8809251548329403e-02 -2.1015968811904281e-01 0.0000000000000000e+00  1.3334514904167999e-01 -1.8707542995380896e-01 0.0000000000000000e+00  1.5669848379263862e-01 -1.5192963843060908e-01 0.0000000000000000e+00  1.9888014031762291e-01 -1.1382594658147521e-01 0.0000000000000000e+00  2.1328390761229635e-01 -5.2484124950891345e-02 0.0000000000000000e+00  2.1308659448436412e-01 -6.4428929413010594e-02 0.0000000000000000e+00  2.2233384816778004e-01 -3.0755386943093488e-02 0.0000000000000000e+00  9.6115724137779038e-02 2.1303174651816831e-01 0.0000000000000000e+00  1.1123644550560334e-01 1.2630996101887837e-01 0.0000000000000000e+00  2.4133737066190114e-01 4.8973403875171337e-02 0.0000000000000000e+00  2.0949595296796480e-01 5.8906653444641993e-02 0.0000000000000000e+00  2.2182074880035149e-01 3.9451639462212792e-02 0.0000000000000000e+00  2.2038928956479667e-01 3.7209575824698450e-02 0.0000000000000000e+00  2.1596102397792377e-01 5.5815048072166952e-02 0.0000000000000000e+00  2.1413752672248165e-01 6.4478161343357598e-02 0.0000000000000000e+00  2.2182281421322508e-01 3.2428038485302089e-02 0.0000000000000000e+00  2.1733012463801393e-01 4.9788576875473098e-02 0.0000000000000000e+00  2.1109695708581452e-01 7.5304343085562095e-02 0.0000000000000000e+00  2.0691697027365408e-01 8.4326911770667562e-02 0.0000000000000000e+00  1.9900090430335579e-01 1.0217806675668249e-01 0.0000000000000000e+00  1.9266884025318456e-01 1.1386138533126747e-01 0.0000000000000000e+00  1.7911078952736897e-01 1.3364885145487590e-01 0.0000000000000000e+00  1.6681803711161386e-01 1.4902114583250514e-01 0.0000000000000000e+00  1.6380259511174208e-01 1.5274921484416684e-01 0.0000000000000000e+00  1.4187860118628842e-01 1.7235374484288057e-01 0.0000000000000000e+00  1.1169816170935568e-01 1.9447902452572710e-01 0.0000000000000000e+00  8.4992958625961693e-02 2.0683561162421379e-01 0.0000000000000000e+00  4.7235109515417012e-02 2.1876576676324588e-01 0.0000000000000000e+00  1.1587680008174251e-02 2.2401909436344652e-01 0.0000000000000000e+00  -3.8726536619220348e-02 2.2037409352700435e-01 0.0000000000000000e+00  -9.7461317354306062e-02 2.0173358798397148e-01 0.0000000000000000e+00  -1.2823940120454438e-01 1.8415469764343276e-01 0.0000000000000000e+00  -1.5832180743655141e-01 1.5748898309600584e-01 0.0000000000000000e+00  -1.9389385380281052e-01 1.1353739436239565e-01 0.0000000000000000e+00  -2.1430472392738872e-01 6.4763203446384005e-02 0.0000000000000000e+00  -2.2416209651977587e-01 8.6803193177015531e-03 0.0000000000000000e+00  -2.1911943820044177e-01 -4.7464132064528236e-02 0.0000000000000000e+00  -1.9960511618324553e-01 -1.0193163523256524e-01 0.0000000000000000e+00  -1.6961952743912401e-01 -1.4640199043152252e-01 0.0000000000000000e+00  -1.3713243739716979e-01 -1.7714352380309109e-01 0.0000000000000000e+00  -1.0216124080354780e-01 -1.9914269980166771e-01 0.0000000000000000e+00  -6.5784589854084100e-02 -2.1411456289260464e-01 0.0000000000000000e+00  -2.9258254349907448e-02 -2.2171915809458009e-01 0.0000000000000000e+00  2.0293066201367109e-03 -2.2411300052988792e-01 0.0000000000000000e+00  3.6965815746931710e-02 -2.2028186697329594e-01 0.0000000000000000e+00  5.5994161312916499e-02 -2.1674600911995731e-01 0.0000000000000000e+00  6.8665429243980156e-02 -2.1298832784579649e-01 0.0000000000000000e+00  1.0378512576454117e-01 -1.9802307702367247e-01 0.0000000000000000e+00  1.2821681899731549e-01 -1.8357326427600021e-01 0.0000000000000000e+00  1.4196948287164662e-01 -1.7270922908331515e-01 0.0000000000000000e+00  1.5692817026437011e-01 -1.5939870505279410e-01 0.0000000000000000e+00  1.6759229594549369e-01 -1.4817472023792277e-01 0.0000000000000000e+00  1.7867948815061896e-01 -1.3438786965854524e-01 0.0000000000000000e+00  1.7872422120351231e-01 -1.3440432022265789e-01 0.0000000000000000e+00  1.8324435785098506e-01 -1.2812587726748523e-01 0.0000000000000000e+00  2.0064352977696326e-01 -9.9068686587089005e-02 0.0000000000000000e+00  2.0835592005705125e-01 -8.1279607175053961e-02 0.0000000000000000e+00  2.1162481209660317e-01 -7.2716205802365638e-02 0.0000000000000000e+00  2.1665484465391158e-01 -5.4197323036810463e-02 0.0000000000000000e+00  2.1907066055729313e-01 -4.8246714310065227e-02 0.0000000000000000e+00  2.2229929583165459e-01 -1.6485687955036139e-02 0.0000000000000000e+00  2.2260938085580750e-01 -1.2495125738084730e-02 0.0000000000000000e+00  2.1547768417968449e-01 -6.8526848472897167e-02 0.0000000000000000e+00  2.2006893409642225e-01 -2.4855913975473869e-02 0.0000000000000000e+00  2.2429806247524275e-01 1.6028598971862876e-02 0.0000000000000000e+00  2.2289917331958975e-01 1.8516309951213488e-02 0.0000000000000000e+00  2.1747486438489927e-01 4.9078804003247753e-02 0.0000000000000000e+00  2.1836513352161027e-01 5.7136438186747684e-02 0.0000000000000000e+00  1.9365034498083838e-01 1.0726851791487670e-01 0.0000000000000000e+00  1.8737474734353890e-01 1.1937761965881941e-01 0.0000000000000000e+00  2.1996517718421391e-01 6.3845629373851104e-02 0.0000000000000000e+00  1.7340837284036031e-01 1.3490261407407592e-01 0.0000000000000000e+00  1.4239074093538265e-01 1.7573961405507682e-01 0.0000000000000000e+00  1.3315467546719753e-01 1.7832579065102486e-01 0.0000000000000000e+00  1.1649174620492980e-01 1.9108020512349239e-01 0.0000000000000000e+00  1.1897036293785393e-01 1.9088634951759470e-01 0.0000000000000000e+00  1.5901309802741476e-01 1.5533705523994656e-01 0.0000000000000000e+00  2.2010361822241045e-01 5.6263994569711595e-02 0.0000000000000000e+00  -2.1744110182810425e-01 -5.2527371077693362e-02 0.0000000000000000e+00  2.0292176318239333e-02 -2.2319366646404623e-01 0.0000000000000000e+00  1.0810735046673831e-01 1.9643310133765557e-01 0.0000000000000000e+00  -2.2145814483463805e-01 3.1756219835902981e-02 0.0000000000000000e+00  -9.4959949887447437e-02 2.0265101204712582e-01 0.0000000000000000e+00  1.6378429721636778e-01 1.5240317087879496e-01 0.0000000000000000e+00  -6.4988133486279685e-03 -2.2364579616408792e-01 0.0000000000000000e+00  1.9777704378714753e-01 -1.1041569463384039e-01 0.0000000000000000e+00  1.9787936309447138e-01 1.0450809072575097e-01 0.0000000000000000e+00  2.2375817521240815e-01 -1.1969277722002521e-02 0.0000000000000000e+00  6.7134095704656588e-02 -2.1353974525483194e-01 0.0000000000000000e+00  1.5713740511275276e-01 -1.6513785563959196e-01 0.0000000000000000e+00  1.6350310320214445e-01 -1.5287258769917444e-01 0.0000000000000000e+00  -1.7357040322184286e-01 -1.4117364633850371e-01 0.0000000000000000e+00  2.4001530941824772e-01 4.8903932809417967e-02 0.0000000000000000e+00  -2.0071052917089899e-01 9.8875240075180934e-02 0.0000000000000000e+00  -1.9226505798998522e-01 1.1426482158068163e-01 0.0000000000000000e+00  6.9658762206799632e-03 2.2480361472602534e-01 0.0000000000000000e+00  -1.3891682657302298e-01 1.7540329255059722e-01 0.0000000000000000e+00  -1.3473644587113340e-01 -1.7860954006345695e-01 0.0000000000000000e+00  -1.9174989872368617e-01 -1.1506460775349421e-01 0.0000000000000000e+00  2.1851723092436187e-01 -4.9670526033609344e-02 0.0000000000000000e+00  4.3321361335075630e-02 2.1954117249568844e-01 0.0000000000000000e+00  2.2712700954204873e-01 9.6573630530539800e-03 0.0000000000000000e+00  -2.2354335767973080e-01 -5.8512470195986703e-03 0.0000000000000000e+00  -1.0565824622109772e-01 -1.9711318706834130e-01 0.0000000000000000e+00  2.2674733319473753e-01 -1.0948132508378682e-01 0.0000000000000000e+00  1.0566047253645862e-01 1.9722725349177134e-01 0.0000000000000000e+00  1.9432005085838366e-01 1.1081767686904527e-01 0.0000000000000000e+00  1.5620067652757105e-01 -1.6104768327497093e-01 0.0000000000000000e+00  2.0278953382683065e-01 9.7558310438414758e-02 0.0000000000000000e+00  2.2517837423069781e-01 -2.3120590388980164e-02 0.0000000000000000e+00  1.1677880618850224e-01 1.9445339467604761e-01 0.0000000000000000e+00  1.0486582306217834e-01 -2.0035450335246779e-01 0.0000000000000000e+00  1.9561919743104009e-01 1.0941978151003028e-01 0.0000000000000000e+00  5.9851198263741794e-02 2.1590197852330911e-01 0.0000000000000000e+00  1.1627057173747586e-01 -1.9130069093149063e-01 0.0000000000000000e+00  2.1475873236933105e-01 -6.3228837233993362e-02 0.0000000000000000e+00  1.4702071783761572e-01 -1.6874926449775970e-01 0.0000000000000000e+00  1.8443922908095511e-01 -1.2778505284050629e-01 0.0000000000000000e+00  1.6111167246542604e-01 -1.5555928029232285e-01 0.0000000000000000e+00  1.7688890518528996e-01 -1.3779186458491044e-01 0.0000000000000000e+00  9.6929917688985429e-02 -2.0135142724141636e-01 0.0000000000000000e+00  1.9800643544045102e-01 1.0405410639748580e-01 0.0000000000000000e+00  2.2188793730669557e-01 2.9069179098915102e-02 0.0000000000000000e+00  -2.1584110294464262e-01 5.8846180026441333e-02 0.0000000000000000e+00  -1.2546449300403445e-01 1.8730383877103604e-01 0.0000000000000000e+00  -1.9532990490033927e-01 1.0907793268424627e-01 0.0000000000000000e+00  1.8679990993112264e-01 -1.4123348020513851e-01 0.0000000000000000e+00  2.9741842549895675e-02 2.2436087627317652e-01 0.0000000000000000e+00  2.2405776120382120e-01 6.2467681443799503e-04 0.0000000000000000e+00  2.1115088614305247e-01 -7.4078766765736659e-02 0.0000000000000000e+00  -6.8693000652281927e-02 -2.1422781040781025e-01 0.0000000000000000e+00  2.3262049083208866e-01 1.5518005252188610e-02 0.0000000000000000e+00  -1.4999901153721995e-01 -1.6752406182637625e-01 0.0000000000000000e+00  7.5545372888282530e-02 -2.1062388695960491e-01 0.0000000000000000e+00  1.6170420874929019e-02 -2.2313049972561694e-01 0.0000000000000000e+00  2.0132487882715722e-01 9.7491077268046636e-02 0.0000000000000000e+00  2.2330424677127297e-01 1.4068659828569516e-02 0.0000000000000000e+00  1.9440611062292762e-01 1.1115059642522271e-01 0.0000000000000000e+00  2.1993433396974280e-01 4.2074046616286533e-02 0.0000000000000000e+00  7.2431154908882731e-02 2.1202908013139754e-01 0.0000000000000000e+00  1.5795578241435038e-01 1.5857376692714206e-01 0.0000000000000000e+00  1.1351453941257895e-01 -1.9309629056943667e-01 0.0000000000000000e+00  5.0275990753867746e-02 -2.1835592819658611e-01 0.0000000000000000e+00  8.9348936101186494e-02 -2.0525605324546281e-01 0.0000000000000000e+00  -9.5785003928223998e-03 -2.2375455306074141e-01 0.0000000000000000e+00  -4.0149082596613546e-02 2.2044423755057627e-01 0.0000000000000000e+00  3.9989182826623559e-02 2.2045277345870015e-01 0.0000000000000000e+00  -2.2289761371249769e-01 -2.0949949178134183e-02 0.0000000000000000e+00  -1.9476112441027832e-01 1.1045519740895086e-01 0.0000000000000000e+00  -1.8955914895636436e-01 -1.1908869749274938e-01 0.0000000000000000e+00  -2.2381678870549337e-01 3.7389669071479542e-03 0.0000000000000000e+00  -9.6853934123346558e-02 -2.0174416001701104e-01 0.0000000000000000e+00  -1.2482045198401223e-01 1.8587431967429527e-01 0.0000000000000000e+00  -1.0684369380390182e-01 1.9652049558963228e-01 0.0000000000000000e+00  -1.6427220923563132e-01 1.5181565773503258e-01 0.0000000000000000e+00  1.8792598240839484e-01 1.2624077309294135e-01 0.0000000000000000e+00  7.1135604935536695e-02 -2.1374042052299527e-01 0.0000000000000000e+00  2.2113598846651275e-01 -4.3939890817888246e-02 0.0000000000000000e+00  -2.1715171194290059e-01 5.3432989873596230e-02 0.0000000000000000e+00  -2.1632795603922572e-01 5.7486593311505144e-02 0.0000000000000000e+00  -1.7083319877790071e-01 1.4560705724587739e-01 0.0000000000000000e+00  2.0323823944657976e-01 9.3461899204558163e-02 0.0000000000000000e+00  1.6075306511905332e-01 -1.5573159812244905e-01 0.0000000000000000e+00  2.0286369061114065e-01 9.5492778871775569e-02 0.0000000000000000e+00  -2.4565201864126668e-02 2.2233476678690528e-01 0.0000000000000000e+00  -3.2206071998771235e-02 2.2145577246185735e-01 0.0000000000000000e+00  5.0855521231445253e-02 2.1781108915120717e-01 0.0000000000000000e+00  -2.0309222826195777e-01 9.3705301792026185e-02 0.0000000000000000e+00  -1.5728789359365328e-01 1.5917355955957871e-01 0.0000000000000000e+00  -2.1696961622147970e-01 -5.5529961930293477e-02 0.0000000000000000e+00  -2.1629868161770729e-01 -5.7154260893055295e-02 0.0000000000000000e+00  -1.7490651706866434e-01 -1.3936760452256111e-01 0.0000000000000000e+00  -2.0754391235128231e-01 -8.3314444889972819e-02 0.0000000000000000e+00  -1.8628885160039077e-01 -1.2384856336745136e-01 0.0000000000000000e+00  -9.8747628776992488e-02 2.0222919487140226e-01 0.0000000000000000e+00  7.0239303546243900e-02 1.8018286347270196e-01 0.0000000000000000e+00  -9.2345506980829814e-02 -2.0404480729904126e-01 0.0000000000000000e+00  -1.8124022574157014e-01 -1.3153929696774197e-01 0.0000000000000000e+00  -1.9567231369800769e-01 1.0885712743857816e-01 0.0000000000000000e+00  -1.2018309032846240e-01 1.8904632071332350e-01 0.0000000000000000e+00  -2.2192849847461696e-01 -2.7123884482551753e-02 0.0000000000000000e+00  -2.2083675099174652e-01 3.5364811802158405e-02 0.0000000000000000e+00  -2.2225465333346628e-01 2.5374732482050792e-02 0.0000000000000000e+00  -1.2116892128980011e-01 1.8842937183444761e-01 0.0000000000000000e+00  -2.2225246832684602e-02 2.2301610973328440e-01 0.0000000000000000e+00  -3.4034608120710561e-02 2.2129513878548329e-01 0.0000000000000000e+00  -2.0255250008743952e-02 -2.2309836970409738e-01 0.0000000000000000e+00  -1.1423243137198122e-01 -1.9261594171045890e-01 0.0000000000000000e+00  -7.7496172006889408e-02 -2.0989065767764054e-01 0.0000000000000000e+00  -2.7138714489270487e-02 -2.2205086933778570e-01 0.0000000000000000e+00  -6.6756088045525963e-02 -2.1348438591853894e-01 0.0000000000000000e