<?xml version="1.0"?>
<VTKFile type="UnstructuredGrid"  version="0.1"  >
<UnstructuredGrid>
<Piece  NumberOfPoints="2549" NumberOfCells="4928">
<Points>
<DataArray  type="Float64"  NumberOfComponents="3"  format="ascii">2 0 0  1.996686137018095 0.05754231104100042 0  1.986882897305854 0.1143419787233611 0  1.970975633076588 0.1697461736080849 0  1.949521707683106 0.2232516020504374 0  1.92316148102163 0.2745222750136555 0  1.892542813236142 0.323373506980794 0  1.858271349552875 0.3697389590748243 0  1.820885526891715 0.4136350740557075 0  1.780849258848747 0.4551307277194839 0  1.738554874553317 0.4943245260370203 0  1.694330878507049 0.5313291997757913 0  1.648451186236745 0.5662615752889001 0  1.601144123217999 0.5992364926897525 0  1.552600433702648 0.6303633660965611 0  1.502980077905183 0.659744436395664 0  1.452417851070797 0.6874740696729748 0  1.401027953784824 0.7136386818120056 0  1.348907720609051 0.7383169985313379 0  1.29614058371176 0.7615805254953902 0  1.242798492047359 0.7834940823268561 0  1.188943861023348 0.8041163621228731 0  1.134631154358537 0.8235004771642536 0  1.079908172939354 0.8416944721837589 0  1.024817109964837 0.8587417963397553 0  0.9693954136298085 0.8746817324080646 0  0.9136765221153764 0.8895497755796398 0  0.8576904445844472 0.9033779803145155 0  0.801464266694953 0.9161952615587904 0  0.7450225714102614 0.9280276623152515 0  0.6883877952988928 0.9388985892101885 0  0.6315805321092666 0.9488290192996544 0  0.5746197931158087 0.9578376811025375 0  0.5175232373657314 0.9659412118222429 0  0.4603073510223729 0.9731542969378965 0  0.4029876351072817 0.9794897863110468 0  0.3455787518345055 0.9849587968895583 0  0.2880946601251717 0.9895707992366389 0  0.2305487379218517 0.993333690086398 0  0.1729538938792191 0.9962538520116265 0  0.115322670663361 0.998336201090478 0  0.05766733915096163 0.9995842233142798 0  -1.322274611685462e-09 1 0  -0.05766734179523565 0.9995842232761419 0  -0.1153226733068079 0.9983362010141388 0  -0.1729538991952786 0.996253851780904 0  -0.2305487459060017 0.9933336896231258 0  -0.2880946707711053 0.9895707984617989 0  -0.3455787651340506 0.9849587957230019 0  -0.4029876510566202 0.9794897846705534 0  -0.4603073696092293 0.9731542947399749 0  -0.5175232585755485 0.9659412089813419 0  -0.5746198169315506 0.9578376775306909 0  -0.6315805531144443 0.9488290158041717 0  -0.6883878135015997 0.9388985858736937 0  -0.745022586820829 0.9280276592223424 0  -0.8014642793262121 0.9161952587964145 0  -0.8576904516640802 0.9033779786341188 0  -0.9136765236872437 0.8895497751760147 0  -0.9693954097454738 0.8746817334843007 0  -1.02481710068483 0.8587417991084308 0  -1.07990816384232 0.8416944751016707 0  -1.134631145449371 0.8235004802330488 0  -1.188943852307292 0.8041163653447019 0  -1.242798483530528 0.7834940857042606 0  -1.296140602082296 0.7615805176791459 0  -1.348907765262195 0.7383169781359747 0  -1.401028023999701 0.7136386473502353 0  -1.452417945986507 0.6874740195411637 0  -1.502980204542554 0.659744364271727 0  -1.55260059049229 0.6303632695523657 0  -1.601144308255775 0.5992363690857174 0  -1.648451397199867 0.566261421754521 0  -1.694331058738459 0.5313290560928818 0  -1.738555024805723 0.4943243939263901 0  -1.780849380123489 0.4551306090875966 0  -1.820885620520759 0.4136349710133106 0  -1.858271414561462 0.3697388773931348 0  -1.892542852486391 0.3233734495527862 0  -1.923161498240549 0.2745222448569359 0  -1.949521707638369 0.2232516021481025 0  -1.970975633050448 0.1697461736839625 0  -1.986882897293919 0.1143419787752093 0  -1.99668613701505 0.05754231106741577 0  -2 -2.119381739288827e-14 0  -1.996686137015017 -0.05754231106770592 0  -1.986882897293798 -0.114341978775735 0  -1.970975633050334 -0.1697461736842945 0  -1.949521707638351 -0.2232516021481412 0  -1.923161498240437 -0.2745222448571329 0  -1.892542852486365 -0.3233734495528243 0  -1.858271414561291 -0.36973887739335 0  -1.820885620520727 -0.4136349710133463 0  -1.780849380123318 -0.4551306090877636 0  -1.738555024805688 -0.4943243939264208 0  -1.69433105873832 -0.5313290560929934 0  -1.648451397199832 -0.5662614217545467 0  -1.601144308255667 -0.5992363690857894 0  -1.552600590492252 -0.6303632695523889 0  -1.50298020454247 -0.659744364271775 0  -1.452417945986467 -0.6874740195411845 0  -1.40102802399929 -0.713638647350437 0  -1.348907765261459 -0.7383169781363109 0  -1.296140602081886 -0.7615805176793204 0  -1.242798483530485 -0.7834940857042775 0  -1.188943852307122 -0.8041163653447646 0  -1.134631145449091 -0.8235004802331454 0  -1.079908163842153 -0.8416944751017243 0  -1.02481710068479 -0.8587417991084427 0  -0.9693954097453934 -0.874681733484323 0  -0.9136765236871304 -0.8895497751760438 0  -0.8576904516640044 -0.9033779786341368 0  -0.8014642793261747 -0.9161952587964226 0  -0.7450225868207132 -0.9280276592223656 0  -0.688387813501408 -0.9388985858737288 0  -0.6315805531141928 -0.9488290158042135 0  -0.574619816931241 -0.9578376775307373 0  -0.5175232585753057 -0.9659412089813745 0  -0.4603073696090547 -0.9731542947399956 0  -0.4029876510565167 -0.979489784670564 0  -0.3455787651340186 -0.9849587957230047 0  -0.2880946707710729 -0.9895707984618012 0  -0.2305487459059683 -0.9933336896231277 0  -0.1729538991952446 -0.9962538517809054 0  -0.1153226733067752 -0.9983362010141397 0  -0.05766734179520062 -0.9995842232761424 0  -1.322240462585813e-09 -1 0  0.05766733915099533 -0.9995842233142793 0  0.1153226706633956 -0.998336201090477 0  0.1729538938792597 -0.9962538520116249 0  0.2305487379218985 -0.9933336900863954 0  0.2880946601252248 -0.9895707992366352 0  0.3455787518345641 -0.9849587968895532 0  0.4029876351073326 -0.9794897863110416 0  0.4603073510224157 -0.9731542969378913 0  0.5175232373657652 -0.9659412118222385 0  0.5746197931158308 -0.9578376811025342 0  0.6315805321096187 -0.9488290192995957 0  0.6883877952995736 -0.9388985892100637 0  0.7450225714112517 -0.9280276623150527 0  0.8014642666962468 -0.9161952615585074 0  0.857690444585461 -0.903377980314275 0  0.9136765221161084 -0.8895497755794518 0  0.9693954136301919 -0.8746817324079583 0  1.02481710996487 -0.8587417963397453 0  1.079908172939512 -0.8416944721837082 0  1.134631154358807 -0.8235004771641605 0  1.188943861023504 -0.8041163621228153 0  1.242798492047385 -0.7834940823268459 0  1.296140583712152 -0.7615805254952235 0  1.348907720609768 -0.7383169985310102 0  1.401027953785216 -0.7136386818118133 0  1.452417851070815 -0.6874740696729649 0  1.502980077905247 -0.6597444363956275 0  1.552600433702669 -0.6303633660965483 0  1.601144123218091 -0.5992364926896914 0  1.648451186236767 -0.5662615752888848 0  1.694330878507175 -0.5313291997756912 0  1.738554874553337 -0.4943245260370026 0  1.780849258848903 -0.4551307277193312 0  1.820885526891733 -0.4136350740556869 0  1.858271349553032 -0.3697389590746263 0  1.892542813236154 -0.3233735069807763 0  1.923161481021729 -0.2745222750134805 0  1.949521707683112 -0.223251602050424 0  1.970975633076692 -0.1697461736077827 0  1.986882897305967 -0.11434197872287 0  1.996686137018124 -0.05754231104074863 0  -0.1152904195579733 0.6070198455084121 0  0.7139314807447402 -0.5185554509125195 0  -0.9021804071087454 -0.4712698952622889 0  -0.08853261806707058 -0.5931971952512098 0  0.7139314807447157 0.5185554509125249 0  1.417801984821762 0.2291367688541014 0  -0.9202096744148912 0.4669291729068617 0  -1.545989679638069 -0.002355595176244116 0  1.419175259971926 -0.2295798938383525 0  -1.262514497274744 -0.369291382563445 0  -1.008975443817403 -0.0113108633010534 0  -0.6062327478577832 -0.13746405873719 0  -1.281728968624498 0.3515475904410956 0  0.3284986955774252 -0.5906094157356263 0  0.1737280740022324 -0.1722626988402368 0  0.2893086492827969 0.5872833258737034 0  0.428425950012378 0.185265744956867 0  0.8258750024497795 0.002678618671304442 0  -0.4906311993153011 -0.5380519337330318 0  -0.5319151236343942 0.5610340701502295 0  -0.3492448427637153 0.2242372176230919 0  1.101084670418347 -0.3819430866711396 0  1.10085579138347 0.3827620940547057 0  0.5114738231755741 -0.2037878442320408 0  0.0378548298353058 0.2177192870939484 0  -0.68351177520046 0.1879874044068832 0  -0.2205094860969659 -0.1665034527494929 0  1.17295745818125 0.0006108973493657318 0  1.665541930433108 -2.306912664895724e-05 0  0.907508075581543 -0.4502492687918292 0  0.9634798364340638 -0.1896322339999175 0  0.7699032415972596 -0.2579384161206076 0  0.6686744128126767 -0.100554612780368 0  0.6127026519601571 -0.36117164757228 0  1.137021064299799 -0.190666094660887 0  0.9994162303155147 0.001644758010335187 0  -1.145352206220951 0.1701183635700213 0  -1.413859324131283 0.1745959976324259 0  -1.277482561727735 -0.006833229238648594 0  -1.135744970546073 -0.1903011229322492 0  -1.404252088456406 -0.1858234888698444 0  -1.597220538418949 -0.2843085084653953 0  -1.747755693638209 -0.1128035986621925 0  -1.747755693638219 0.1104480034859294 0  -1.597220538418967 0.2819529132891387 0  -0.154521052082018 -0.3798503240003511 0  -0.3555703427061332 -0.3522776932412622 0  -0.2895819086911859 -0.5656245644921211 0  -0.4133711169773747 -0.1519837557433414 0  -0.5484319735865418 -0.3377579962351108 0  -1.455482947237287 -0.4677764021589958 0  -1.465090182912182 0.4589045060978081 0  0.4199862593764998 -0.3971986299838336 0  0.3426009485889036 -0.1880252715361387 0  0.2511133847898288 -0.3814360572879312 0  -1.100969321519695 0.4092383816739789 0  -0.9645925591161468 0.2278091548029043 0  1.62003039343183 -0.3216074839470194 0  1.43579655552137 -0.4585269817556586 0  1.435109917946279 0.4583054192635382 0  1.619343755856739 0.3213859214549047 0  -0.85182234321746 -0.6937325770293555 0  -1.072489445319615 -0.627381990483283 0  -1.081504078972709 0.6252116293055613 0  -0.8608369768705514 0.6915622158516382 0  0.8693742953548055 -0.6886486236261325 0  0.6442756369302858 -0.738196566007527 0  0.644275636930262 0.7381965660075314 0  0.8693742953547762 0.6886486236261405 0  0.01339502629816219 -0.7957666981708436 0  -0.2170556
[...]
<PointData  Vectors="f_59"> 
<DataArray  type="Float64"  Name="f_59"  NumberOfComponents="3" format="ascii">2.2360679774997913e-01 -1.0113524327764447e-18 0.0000000000000000e+00  2.2323568194666338e-01 1.2877511631064679e-02 0.0000000000000000e+00  2.2213059526235901e-01 2.5651484331125903e-02 0.0000000000000000e+00  2.2031416623210204e-01 3.8231768955330675e-02 0.0000000000000000e+00  2.1781798200531896e-01 5.0550239516056097e-02 0.0000000000000000e+00  2.1467624494472742e-01 6.2562847253233217e-02 0.0000000000000000e+00  2.1092051101439890e-01 7.4246468154551853e-02 0.0000000000000000e+00  2.0657636911936963e-01 8.5593245770083731e-02 0.0000000000000000e+00  2.0166193446590111e-01 9.6604679946008062e-02 0.0000000000000000e+00  1.9618760652048481e-01 1.0728663965174555e-01 0.0000000000000000e+00  1.9015653648963382e-01 1.1764561883158514e-01 0.0000000000000000e+00  1.8356541655727940e-01 1.2768609103638698e-01 0.0000000000000000e+00  1.7640536324341496e-01 1.3740868902277925e-01 0.0000000000000000e+00  1.6866279445708676e-01 1.4680892944888102e-01 0.0000000000000000e+00  1.6032027136666771e-01 1.5587626692000944e-01 0.0000000000000000e+00  1.5135731684131307e-01 1.6459332501228105e-01 0.0000000000000000e+00  1.4175124277243406e-01 1.7293520512744209e-01 0.0000000000000000e+00  1.3147802711617029e-01 1.8086881540398184e-01 0.0000000000000000e+00  1.2051329687731588e-01 1.8835218415447161e-01 0.0000000000000000e+00  1.0883345200536876e-01 1.9533376493733762e-01 0.0000000000000000e+00  9.6416999168277062e-02 2.0175173424628720e-01 0.0000000000000000e+00  8.3246141861601591e-02 2.0753332230068042e-01 0.0000000000000000e+00  6.9308681306397987e-02 2.1259423015587281e-01 0.0000000000000000e+00  5.4600276397967211e-02 2.1683821115584223e-01 0.0000000000000000e+00  3.9127100602371047e-02 2.2015692130490011e-01 0.0000000000000000e+00  2.2908913282504936e-02 2.2243017262101503e-01 0.0000000000000000e+00  5.9825424317768421e-03 2.2352675273007500e-01 0.0000000000000000e+00  -1.1594293784696374e-02 2.2330600608052215e-01 0.0000000000000000e+00  -2.9738930807986411e-02 2.2162038713619708e-01 0.0000000000000000e+00  -4.8339677322459168e-02 2.1831920574324332e-01 0.0000000000000000e+00  -6.7252013242183009e-02 2.1325376131471460e-01 0.0000000000000000e+00  -8.6295483235307710e-02 2.0628400222311169e-01 0.0000000000000000e+00  -1.0525181486110487e-01 1.9728673414206988e-01 0.0000000000000000e+00  -1.2386487722401232e-01 1.8616522819871711e-01 0.0000000000000000e+00  -1.4184314115794489e-01 1.7285983717002459e-01 0.0000000000000000e+00  -1.5886521919247215e-01 1.5735895948730658e-01 0.0000000000000000e+00  -1.7458891822591185e-01 1.3970937560774466e-01 0.0000000000000000e+00  -1.8866388328427369e-01 1.2002474388265937e-01 0.0000000000000000e+00  -2.0074745564614574e-01 9.8490908471791330e-02 0.0000000000000000e+00  -2.1052281181026752e-01 7.5366741388351907e-02 0.0000000000000000e+00  -2.1771790050399831e-01 5.0979562572967423e-02 0.0000000000000000e+00  -2.2212327920250019e-01 2.5714759114721597e-02 0.0000000000000000e+00  -2.2360679774997907e-01 -5.9133921000267763e-10 0.0000000000000000e+00  -2.2212327906678847e-01 -2.5714760286996055e-02 0.0000000000000000e+00  -2.1771790023669188e-01 -5.0979563714550438e-02 0.0000000000000000e+00  -2.1052281102359471e-01 -7.5366743585773388e-02 0.0000000000000000e+00  -2.0074745412355599e-01 -9.8490911575184539e-02 0.0000000000000000e+00  -1.8866388085312583e-01 -1.2002474770411968e-01 0.0000000000000000e+00  -1.7458891476317295e-01 -1.3970937993498325e-01 0.0000000000000000e+00  -1.5886521462423037e-01 -1.5735896409927611e-01 0.0000000000000000e+00  -1.4184313546026789e-01 -1.7285984184535197e-01 0.0000000000000000e+00  -1.2386487041603934e-01 -1.8616523272839591e-01 0.0000000000000000e+00  -1.0525180699770310e-01 -1.9728673833716814e-01 0.0000000000000000e+00  -8.6295476205105637e-02 -2.0628400516407999e-01 0.0000000000000000e+00  -6.7252007141565040e-02 -2.1325376323861420e-01 0.0000000000000000e+00  -4.8339672202974492e-02 -2.1831920687678624e-01 0.0000000000000000e+00  -2.9738926683965872e-02 -2.2162038768959358e-01 0.0000000000000000e+00  -1.1594291529122867e-02 -2.2330600619763383e-01 0.0000000000000000e+00  5.9825429175761682e-03 -2.2352675271707298e-01 0.0000000000000000e+00  2.2908912123679619e-02 -2.2243017274036694e-01 0.0000000000000000e+00  3.9127097940687361e-02 -2.2015692177794421e-01 0.0000000000000000e+00  5.4600273897675508e-02 -2.1683821178542062e-01 0.0000000000000000e+00  6.9308678966092233e-02 -2.1259423091884508e-01 0.0000000000000000e+00  8.3246139677808362e-02 -2.0753332317664766e-01 0.0000000000000000e+00  9.6416997136128557e-02 -2.0175173521744943e-01 0.0000000000000000e+00  1.0883345617509647e-01 -1.9533376261410473e-01 0.0000000000000000e+00  1.2051330651206435e-01 -1.8835217798987405e-01 0.0000000000000000e+00  1.3147804151303571e-01 -1.8086880493854227e-01 0.0000000000000000e+00  1.4175126126578808e-01 -1.7293518996883867e-01 0.0000000000000000e+00  1.5135734029421549e-01 -1.6459330344537410e-01 0.0000000000000000e+00  1.6032029898202635e-01 -1.5587623851733692e-01 0.0000000000000000e+00  1.6866282547791334e-01 -1.4680889381031020e-01 0.0000000000000000e+00  1.7640539694416840e-01 -1.3740864575771944e-01 0.0000000000000000e+00  1.8356544403033898e-01 -1.2768605154026988e-01 0.0000000000000000e+00  1.9015655838111753e-01 -1.1764558344727055e-01 0.0000000000000000e+00  1.9618762344347637e-01 -1.0728660870584333e-01 0.0000000000000000e+00  2.0166194700899109e-01 -9.6604653762346698e-02 0.0000000000000000e+00  2.0657637750363747e-01 -8.5593225534937437e-02 0.0000000000000000e+00  2.1092051590378591e-01 -7.4246454264704137e-02 0.0000000000000000e+00  2.1467624702434254e-01 -6.2562840117304730e-02 0.0000000000000000e+00  2.1781798200005723e-01 -5.0550239538727559e-02 0.0000000000000000e+00  2.2031416622909325e-01 -3.8231768972668417e-02 0.0000000000000000e+00  2.2213059526100709e-01 -2.5651484342833885e-02 0.0000000000000000e+00  2.2323568194632171e-01 -1.2877511636986104e-02 0.0000000000000000e+00  2.2360679774997891e-01 4.8199673440177410e-15 0.0000000000000000e+00  2.2323568194631802e-01 1.2877511637051151e-02 0.0000000000000000e+00  2.2213059526099330e-01 2.5651484342952453e-02 0.0000000000000000e+00  2.2031416622908015e-01 3.8231768972744315e-02 0.0000000000000000e+00  2.1781798200005525e-01 5.0550239538736677e-02 0.0000000000000000e+00  2.1467624702432911e-01 6.2562840117351248e-02 0.0000000000000000e+00  2.1092051590378269e-01 7.4246454264713310e-02 0.0000000000000000e+00  2.0657637750361532e-01 8.5593225534990686e-02 0.0000000000000000e+00  2.0166194700898676e-01 9.6604653762355663e-02 0.0000000000000000e+00  1.9618762344345267e-01 1.0728660870588691e-01 0.0000000000000000e+00  1.9015655838111228e-01 1.1764558344727895e-01 0.0000000000000000e+00  1.8356544403031752e-01 1.2768605154030052e-01 0.0000000000000000e+00  1.7640539694416271e-01 1.3740864575772674e-01 0.0000000000000000e+00  1.6866282547789527e-01 1.4680889381033099e-01 0.0000000000000000e+00  1.6032029898201974e-01 1.5587623851734381e-01 0.0000000000000000e+00  1.5135734029420006e-01 1.6459330344538861e-01 0.0000000000000000e+00  1.4175126126578030e-01 1.7293518996884497e-01 0.0000000000000000e+00  1.3147804151295137e-01 1.8086880493860374e-01 0.0000000000000000e+00  1.2051330651190549e-01 1.8835217798997583e-01 0.0000000000000000e+00  1.0883345617500351e-01 1.9533376261415647e-01 0.0000000000000000e+00  9.6416997136118343e-02 2.0175173521745424e-01 0.0000000000000000e+00  8.3246139677765771e-02 2.0753332317666465e-01 0.0000000000000000e+00  6.9308678966018708e-02 2.1259423091886887e-01 0.0000000000000000e+00  5.4600273897629670e-02 2.1683821178543189e-01 0.0000000000000000e+00  3.9127097940676030e-02 2.2015692177794632e-01 0.0000000000000000e+00  2.2908912123655499e-02 2.2243017274036972e-01 0.0000000000000000e+00  5.9825429175410557e-03 2.2352675271707367e-01 0.0000000000000000e+00  -1.1594291529147070e-02 2.2330600619763294e-01 0.0000000000000000e+00  -2.9738926683978113e-02 2.2162038768959180e-01 0.0000000000000000e+00  -4.8339672203012940e-02 2.1831920687677778e-01 0.0000000000000000e+00  -6.7252007141629225e-02 2.1325376323859399e-01 0.0000000000000000e+00  -8.6295476205189833e-02 2.0628400516404449e-01 0.0000000000000000e+00  -1.0525180699780541e-01 1.9728673833711372e-01 0.0000000000000000e+00  -1.2386487041611743e-01 1.8616523272834390e-01 0.0000000000000000e+00  -1.4184313546032121e-01 1.7285984184530823e-01 0.0000000000000000e+00  -1.5886521462426001e-01 1.5735896409924616e-01 0.0000000000000000e+00  -1.7458891476318134e-01 1.3970937993497295e-01 0.0000000000000000e+00  -1.8866388085313318e-01 1.2002474770410804e-01 0.0000000000000000e+00  -2.0074745412356240e-01 9.8490911575171508e-02 0.0000000000000000e+00  -2.1052281102360015e-01 7.5366743585759163e-02 0.0000000000000000e+00  -2.1771790023669513e-01 5.0979563714536373e-02 0.0000000000000000e+00  -2.2212327906679014e-01 2.5714760286980557e-02 0.0000000000000000e+00  -2.2360679774997907e-01 5.9132392199311264e-10 0.0000000000000000e+00  -2.2212327920249852e-01 -2.5714759114736599e-02 0.0000000000000000e+00  -2.1771790050399484e-01 -5.0979562572982418e-02 0.0000000000000000e+00  -2.1052281181026156e-01 -7.5366741388368713e-02 0.0000000000000000e+00  -2.0074745564613683e-01 -9.8490908471809663e-02 0.0000000000000000e+00  -1.8866388328426165e-01 -1.2002474388267838e-01 0.0000000000000000e+00  -1.7458891822589653e-01 -1.3970937560776370e-01 0.0000000000000000e+00  -1.5886521919245761e-01 -1.5735895948732126e-01 0.0000000000000000e+00  -1.4184314115793167e-01 -1.7285983717003528e-01 0.0000000000000000e+00  -1.2386487722400127e-01 -1.8616522819872428e-01 0.0000000000000000e+00  -1.0525181486109762e-01 -1.9728673414207359e-01 0.0000000000000000e+00  -8.6295483235189804e-02 -2.0628400222316096e-01 0.0000000000000000e+00  -6.7252013241954858e-02 -2.1325376131478654e-01 0.0000000000000000e+00  -4.8339677322130105e-02 -2.1831920574331623e-01 0.0000000000000000e+00  -2.9738930807563999e-02 -2.2162038713625373e-01 0.0000000000000000e+00  -1.1594293784373395e-02 -2.2330600608053888e-01 0.0000000000000000e+00  5.9825424320030128e-03 -2.2352675273006870e-01 0.0000000000000000e+00  2.2908913282619285e-02 -2.2243017262100356e-01 0.0000000000000000e+00  3.9127100602380477e-02 -2.2015692130489831e-01 0.0000000000000000e+00  5.4600276398010482e-02 -2.1683821115583124e-01 0.0000000000000000e+00  6.9308681306468889e-02 -2.1259423015584961e-01 0.0000000000000000e+00  8.3246141861640741e-02 -2.0753332230066485e-01 0.0000000000000000e+00  9.6416999168283252e-02 -2.0175173424628418e-01 0.0000000000000000e+00  1.0883345200545781e-01 -1.9533376493728807e-01 0.0000000000000000e+00  1.2051329687747066e-01 -1.8835218415437255e-01 0.0000000000000000e+00  1.3147802711625053e-01 -1.8086881540392330e-01 0.0000000000000000e+00  1.4175124277243770e-01 -1.7293520512743915e-01 0.0000000000000000e+00  1.5135731684132497e-01 -1.6459332501227003e-01 0.0000000000000000e+00  1.6032027136667126e-01 -1.5587626692000572e-01 0.0000000000000000e+00  1.6866279445710228e-01 -1.4680892944886326e-01 0.0000000000000000e+00  1.7640536324341846e-01 -1.3740868902277487e-01 0.0000000000000000e+00  1.8356541655729849e-01 -1.2768609103635947e-01 0.0000000000000000e+00  1.9015653648963676e-01 -1.1764561883158034e-01 0.0000000000000000e+00  1.9618760652050657e-01 -1.0728663965170555e-01 0.0000000000000000e+00  2.0166193446590355e-01 -9.6604679946002872e-02 0.0000000000000000e+00  2.0657636911938984e-01 -8.5593245770034673e-02 0.0000000000000000e+00  2.1092051101440032e-01 -7.4246468154547565e-02 0.0000000000000000e+00  2.1467624494473958e-01 -6.2562847253191778e-02 0.0000000000000000e+00  2.1781798200531960e-01 -5.0550239516053017e-02 0.0000000000000000e+00  2.2031416623211389e-01 -3.8231768955261605e-02 0.0000000000000000e+00  2.2213059526237205e-01 -2.5651484331015044e-02 0.0000000000000000e+00  2.2323568194666640e-01 -1.2877511631008223e-02 0.0000000000000000e+00  -2.0803619742775115e-01 -8.1981342754322090e-02 0.0000000000000000e+00  6.9155283989004848e-02 -2.1264417860924420e-01 0.0000000000000000e+00  1.2773646348000878e-01 1.8353036778043147e-01 0.0000000000000000e+00  -2.1386237994867677e-01 6.5290753117787190e-02 0.0000000000000000e+00  6.9155283988995911e-02 2.1264417860924709e-01 0.0000000000000000e+00  2.1222330250577801e-01 7.0436282365987396e-02 0.0000000000000000e+00  1.3203843996791267e-01 -1.8046010742222210e-01 0.0000000000000000e+00  2.2360575949954511e-01 6.8140929819104858e-04 0.0000000000000000e+00  2.1220189652694491e-01 -7.0500745459659786e-02 0.0000000000000000e+00  1.8835939078374858e-01 1.2050203277777158e-01 0.0000000000000000e+00  2.2355060364767523e-01 5.0127446334348111e-03 0.0000000000000000e+00  2.0173724532925338e-01 9.6447311247979520e-02 0.0000000000000000e+00  1.9231788011481332e-01 -1.1407818804725264e-01 0.0000000000000000e+00  -1.1794404380918086e-01 -1.8997158348010382e-01 0.0000000000000000e+00  1.8940503369901231e-03 -2.2359877587616861e-01 0.0000000000000000e+00  -1.3627257668004433e-01 1.7728447434838027e-01 0.0000000000000000e+00  1.5315315524786582e-01 1.6292363560153925e-01 0.0000000000000000e+00  2.2360209335724426e-01 1.4504641527347999e-03 0.0000000000000000e+00  -2.0572152144133032e-02 2.2265845269416265e-01 0.0000000000000000e+00  -1.1906456201666325e-02 -2.2328957947185490e-01 0.0000000000000000e+00  9.3061767550632668e-02 -2.0332119274771157e-01 0.0000000000000000e+00  1.7557522090651903e-01 -1.3846783671173252e-01 0.0000000000000000e+00  1.7537335386266703e-01 1.3872341819231451e-01 0.0000000000000000e+00  1.6233854060528966e-01 -1.5377320388853444e-01 0.0000000000000000e+00  -2.1048391396701560e-01 7.5475306962781111e-02 0.0000000000000000e+00  1.9215738270376556e-01 -1.1434832868231444e-01 0.0000000000000000e+00  6.1214745894172411e-02 2.1506453655847563e-01 0.0000000000000000e+00  2.2360667644270624e-01 2.3291682411788063e-04 0.0000000000000000e+00  2.2360679766418329e-01 -6.1942763993147098e-06 0.0000000000000000e+00  1.3526856933553180e-01 -1.7805171762698174e-01 0.0000000000000000e+00  2.0692864408875405e-01 -8.4738044912481922e-02 0.0000000000000000e+00  1.7847579035606750e-01 -1.3470854559669576e-01 0.0000000000000000e+00  2.1371721630129598e-01 -6.5764363118828328e-02 0.0000000000000000e+00  1.0828245863269646e-01 -1.9563974328458519e-01 0.0000000000000000e+00  2.1137525438728949e-01 -7.2941770150639407e-02 0.0000000000000000e+00  2.2360558652436632e-01 7.3598579755315577e-04 0.0000000000000000e+00  2.1395379388020144e-01 -6.4990569194832482e-02 0.0000000000000000e+00  2.1688944163999005e-01 -5.4396416289066447e-02 0.0000000000000000e+00  2.2359400262323639e-01 2.3920683351829723e-03 0.0000000000000000e+00  2.1139411089494076e-01 7.2887103653098681e-02 0.0000000000000000e+00  2.1591040989556665e-01 5.8160939630721151e-02 0.0000000000000000e+00  2.0987213692326623e-01 7.7160133121073532e-02 0.0000000000000000e+00  2.2175158342951820e-01 2.8744308071363293e-02 0.0000000000000000e+00  2.2182795162268723e-01 -2.8148887702407966e-02 0.0000000000000000e+00  2.1009193759455502e-01 -7.6559635303243584e-02 0.0000000000000000e+00  -1.6010883353071140e-01 1.5609343812420487e-01 0.0000000000000000e+00  2.0802286224362288e-03 2.2359712128933684e-01 0.0000000000000000e+00  -1.3073078771954599e-01 1.8140965008021764e-01 0.0000000000000000e+00  1.7035133547500711e-01 1.4484620292531517e-01 0.0000000000000000e+00  1.0062900059684843e-01 1.9968426136999265e-01 0.0000000000000000e+00  1.8173830682626999e-01 1.3027351162811487e-01 0.0000000000000000e+00  1.8365053667764281e-01 -1.2756363266234522e-01 0.0000000000000000e+00  1.2461095971116483e-02 -2.2325931355085424e-01 0.0000000000000000e+00  1.2008633923545133e-01 -1.8862468324434148e-01 0.0000000000000000e+00  -8.8386584418823674e-02 -2.0539671782863095e-01 0.0000000000000000e+00  1.6931783566323508e-01 -1.4605297164494024e-01 0.0000000000000000e+00  1.9998040796589298e-01 -1.0003917447577736e-01 0.0000000000000000e+00  2.0665038058102506e-01 -8.5414402800215714e-02 0.0000000000000000e+00  1.8221802175464272e-01 -1.2960166876944387e-01 0.0000000000000000e+00  1.8221839581049767e-01 1.2960114285085936e-01 0.0000000000000000e+00  2.0665903203055300e-01 8.5393468603839215e-02 0.0000000000000000e+00  4.5270373694834852e-02 2.1897623904325791e-01 0.0000000000000000e+00  1.0958803980714982e-01 1.9491141970450718e-01 0.0000000000000000e+00  1.1158720077674503e-01 -1.9377382852906241e-01 0.0000000000000000e+00  4.8191511163951074e-02 -2.1835195957841735e-01 0.0000000000000000e+00  5.1186616547409629e-02 -2.1766931406706957e-01 0.0000000000000000e+00  -3.0242739374927691e-02 -2.2155219862393671e-01 0.0000000000000000e+00  -3.0242739374937110e-02 2.2155219862393530e-01 0.0000000000000000e+00  5.1186616547399977e-02 2.1766931406707166e-01 0.0000000000000000e+00  -2.2348011788838282e-01 -7.5257497031552519e-03 0.0000000000000000e+00  -1.9214815894957918e-01 1.1436382737687349e-01 0.0000000000000000e+00  -1.8902529436660018e-01 -1.1945475331530411e-01 0.0000000000000000e+00  -2.2360679756948554e-01 8.9843825137542264e-06 0.0000000000000000e+00  -1.3857615753377274e-02 -2.2317698466829369e-01 0.0000000000000000e+00  2.1378644302975652e-01 6.5538971434442234e-02 0.0000000000000000e+00  1.7763044279691440e-01 1.3582130095007969e-01 0.0000000000000000e+00  1.0055612330445886e-01 1.9972097052132132e-01 0.0000000000000000e+00  1.6097397335499591e-01 1.5520109504222296e-01 0.0000000000000000e+00  2.1984454112030749e-01 4.0845779948501242e-02 0.0000000000000000e+00  1.9680159060688199e-01 1.0615617709111994e-01 0.0000000000000000e+00  3.2392194037173971e-02 2.2124815426452282e-01 0.0000000000000000e+00  2.0387571663718967e-01 9.1840580168421976e-02 0.0000000000000000e+00  2.2339835463782565e-01 9.6527273406197718e-03 0.0000000000000000e+00  1.4546493006064840e-01 1.6982330264851972e-01 0.0000000000000000e+00  1.4840616511409546e-01 -1.6725911083145176e-01 0.0000000000000000e+00  1.6501081425034858e-01 1.5090205823790803e-01 0.0000000000000000e+00  2.0639815753725335e-01 8.6022093471544631e-02 0.0000000000000000e+00  1.3512170905623427e-01 1.7816319412752574e-01 0.0000000000000000e+00  2.1124519159156308e-01 7.3317590177554029e-02 0.0000000000000000e+00  -1.6426844438918006e-02 2.2300259815028975e-01 0.0000000000000000e+00  -2.1703874998353596e-02 2.2255098698962425e-01 0.0000000000000000e+00  -2.1813467095706515e-01 -4.9165692575747912e-02 0.0000000000000000e+00  -2.0595598021304304e-01 -8.7075451273505466e-02 0.0000000000000000e+00  2.5648345395820390e-02 -2.2213095772191871e-01 0.0000000000000000e+00  -1.1718029086406399e-01 -1.9044363846821813e-01 0.0000000000000000e+00  -1.1855746002785120e-01 -1.8958936856201750e-01 0.0000000000000000e+00  2.2343319216191240e-01 -8.8095766264908951e-03 0.0000000000000000e+00  -2.1523810372281946e-01 6.0601639464662106e-02 0.0000000000000000e+00  -1.1009221755238176e-01 -1.9462708864492403e-01 0.0000000000000000e+00  -1.9124094342521422e-01 -1.1587450779974875e-01 0.0000000000000000e+00  -1.9626436999079000e-01 1.0714614819076944e-01 0.0000000000000000e+00  -1.1709364346145450e-01 1.9049692559440934e-01 0.0000000000000000e+00  1.9100868035692373e-01 -1.1625697410610059e-01 0.0000000000000000e+00  -1.6021103836868492e-01 1.5598853542753643e-01 0.0000000000000000e+00  -2.1430961130515849e-01 6.3807448642238446e-02 0.0000000000000000e+00  -1.2001864960675850e-01 1.8866776022036766e-01 0.0000000000000000e+00  -2.6313006731559646e-02 2.2205320460814112e-01 0.0000000000000000e+00  6.9621221063851962e-02 2.1249208356449012e-01 0.0000000000000000e+00  -2.2829063819491537e-02 -2.2243838213115466e-01 0.0000000000000000e+00  -1.1463758315521683e-01 -1.9198495912005911e-01 0.0000000000000000e+00  7.4311880991464491e-02 -2.1089747353515279e-01 0.0000000000000000e+00  2.1878604263428986e-01 -4.6180813639722547e-02 0.0000000000000000e+00  1.5968567663086117e-01 -1.5652630666742290e-01 0.00000000000