<?xml version="1.0"?>
<VTKFile type="UnstructuredGrid"  version="0.1"  >
<UnstructuredGrid>
<Piece  NumberOfPoints="11902" NumberOfCells="23402">
<Points>
<DataArray  type="Float64"  NumberOfComponents="3"  format="ascii">-5 -5 0  5 -5 0  5 5 0  -5 5 0  2.021254625411053 0.0108884130076458 0  -4.9 -5 0  -4.8 -5 0  -4.7 -5 0  -4.6 -5 0  -4.5 -5 0  -4.4 -5 0  -4.3 -5 0  -4.2 -5 0  -4.1 -5 0  -4 -5 0  -3.9 -5 0  -3.8 -5 0  -3.7 -5 0  -3.6 -5 0  -3.5 -5 0  -3.4 -5 0  -3.3 -5 0  -3.2 -5 0  -3.1 -5 0  -3 -5 0  -2.9 -5 0  -2.8 -5 0  -2.7 -5 0  -2.6 -5 0  -2.5 -5 0  -2.4 -5 0  -2.3 -5 0  -2.2 -5 0  -2.1 -5 0  -2 -5 0  -1.9 -5 0  -1.8 -5 0  -1.7 -5 0  -1.6 -5 0  -1.5 -5 0  -1.4 -5 0  -1.3 -5 0  -1.2 -5 0  -1.1 -5 0  -1 -5 0  -0.9000000000000004 -5 0  -0.7999999999999998 -5 0  -0.7000000000000002 -5 0  -0.5999999999999996 -5 0  -0.5 -5 0  -0.4000000000000004 -5 0  -0.2999999999999998 -5 0  -0.2000000000000002 -5 0  -0.09999999999999964 -5 0  0 -5 0  0.09999999999999964 -5 0  0.2000000000000002 -5 0  0.2999999999999998 -5 0  0.4000000000000004 -5 0  0.5 -5 0  0.5999999999999996 -5 0  0.7000000000000002 -5 0  0.7999999999999998 -5 0  0.9000000000000004 -5 0  1 -5 0  1.1 -5 0  1.2 -5 0  1.3 -5 0  1.4 -5 0  1.5 -5 0  1.6 -5 0  1.7 -5 0  1.8 -5 0  1.9 -5 0  2 -5 0  2.1 -5 0  2.2 -5 0  2.3 -5 0  2.4 -5 0  2.5 -5 0  2.6 -5 0  2.7 -5 0  2.8 -5 0  2.9 -5 0  3 -5 0  3.1 -5 0  3.199999999999999 -5 0  3.300000000000001 -5 0  3.4 -5 0  3.5 -5 0  3.6 -5 0  3.699999999999999 -5 0  3.800000000000001 -5 0  3.9 -5 0  4 -5 0  4.1 -5 0  4.199999999999999 -5 0  4.300000000000001 -5 0  4.4 -5 0  4.5 -5 0  4.6 -5 0  4.699999999999999 -5 0  4.800000000000001 -5 0  4.9 -5 0  5 -4.9 0  5 -4.8 0  5 -4.7 0  5 -4.6 0  5 -4.5 0  5 -4.4 0  5 -4.3 0  5 -4.2 0  5 -4.1 0  5 -4 0  5 -3.9 0  5 -3.8 0  5 -3.7 0  5 -3.6 0  5 -3.5 0  5 -3.4 0  5 -3.3 0  5 -3.2 0  5 -3.1 0  5 -3 0  5 -2.9 0  5 -2.8 0  5 -2.7 0  5 -2.6 0  5 -2.5 0  5 -2.4 0  5 -2.3 0  5 -2.2 0  5 -2.1 0  5 -2 0  5 -1.9 0  5 -1.8 0  5 -1.7 0  5 -1.6 0  5 -1.5 0  5 -1.4 0  5 -1.3 0  5 -1.2 0  5 -1.1 0  5 -1 0  5 -0.9000000000000004 0  5 -0.7999999999999998 0  5 -0.7000000000000002 0  5 -0.5999999999999996 0  5 -0.5 0  5 -0.4000000000000004 0  5 -0.2999999999999998 0  5 -0.2000000000000002 0  5 -0.09999999999999964 0  5 0 0  5 0.09999999999999964 0  5 0.2000000000000002 0  5 0.2999999999999998 0  5 0.4000000000000004 0  5 0.5 0  5 0.5999999999999996 0  5 0.7000000000000002 0  5 0.7999999999999998 0  5 0.9000000000000004 0  5 1 0  5 1.1 0  5 1.2 0  5 1.3 0  5 1.4 0  5 1.5 0  5 1.6 0  5 1.7 0  5 1.8 0  5 1.9 0  5 2 0  5 2.1 0  5 2.2 0  5 2.3 0  5 2.4 0  5 2.5 0  5 2.6 0  5 2.7 0  5 2.8 0  5 2.9 0  5 3 0  5 3.1 0  5 3.199999999999999 0  5 3.300000000000001 0  5 3.4 0  5 3.5 0  5 3.6 0  5 3.699999999999999 0  5 3.800000000000001 0  5 3.9 0  5 4 0  5 4.1 0  5 4.199999999999999 0  5 4.300000000000001 0  5 4.4 0  5 4.5 0  5 4.6 0  5 4.699999999999999 0  5 4.800000000000001 0  5 4.9 0  4.9 5 0  4.8 5 0  4.7 5 0  4.6 5 0  4.5 5 0  4.4 5 0  4.3 5 0  4.2 5 0  4.1 5 0  4 5 0  3.9 5 0  3.8 5 0  3.7 5 0  3.6 5 0  3.5 5 0  3.4 5 0  3.3 5 0  3.2 5 0  3.1 5 0  3 5 0  2.9 5 0  2.8 5 0  2.7 5 0  2.6 5 0  2.5 5 0  2.4 5 0  2.3 5 0  2.2 5 0  2.1 5 0  2 5 0  1.9 5 0  1.8 5 0  1.7 5 0  1.6 5 0  1.5 5 0  1.4 5 0  1.3 5 0  1.2 5 0  1.1 5 0  1 5 0  0.9000000000000004 5 0  0.7999999999999998 5 0  0.7000000000000002 5 0  0.5999999999999996 5 0  0.5 5 0  0.4000000000000004 5 0  0.2999999999999998 5 0  0.2000000000000002 5 0  0.09999999999999964 5 0  0 5 0  -0.09999999999999964 5 0  -0.2000000000000002 5 0  -0.2999999999999998 5 0  -0.4000000000000004 5 0  -0.5 5 0  -0.5999999999999996 5 0  -0.7000000000000002 5 0  -0.7999999999999998 5 0  -0.9000000000000004 5 0  -1 5 0  -1.1 5 0  -1.2 5 0  -1.3 5 0  -1.4 5 0  -1.5 5 0  -1.6 5 0  -1.7 5 0  -1.8 5 0  -1.9 5 0  -2 5 0  -2.1 5 0  -2.2 5 0  -2.3 5 0  -2.4 5 0  -2.5 5 0  -2.6 5 0  -2.7 5 0  -2.8 5 0  -2.9 5 0  -3 5 0  -3.1 5 0  -3.199999999999999 5 0  -3.300000000000001 5 0  -3.4 5 0  -3.5 5 0  -3.6 5 0  -3.699999999999999 5 0  -3.800000000000001 5 0  -3.9 5 0  -4 5 0  -4.1 5 0  -4.199999999999999 5 0  -4.300000000000001 5 0  -4.4 5 0  -4.5 5 0  -4.6 5 0  -4.699999999999999 5 0  -4.800000000000001 5 0  -4.9 5 0  -5 4.9 0  -5 4.8 0  -5 4.7 0  -5 4.6 0  -5 4.5 0  -5 4.4 0  -5 4.3 0  -5 4.2 0  -5 4.1 0  -5 4 0  -5 3.9 0  -5 3.8 0  -5 3.7 0  -5 3.6 0  -5 3.5 0  -5 3.4 0  -5 3.3 0  -5 3.2 0  -5 3.1 0  -5 3 0  -5 2.9 0  -5 2.8 0  -5 2.7 0  -5 2.6 0  -5 2.5 0  -5 2.4 0  -5 2.3 0  -5 2.2 0  -5 2.1 0  -5 2 0  -5 1.9 0  -5 1.8 0  -5 1.7 0  -5 1.6 0  -5 1.5 0  -5 1.4 0  -5 1.3 0  -5 1.2 0  -5 1.1 0  -5 1 0  -5 0.9000000000000004 0  -5 0.7999999999999998 0  -5 0.7000000000000002 0  -5 0.5999999999999996 0  -5 0.5 0  -5 0.4000000000000004 0  -5 0.2999999999999998 0  -5 0.2000000000000002 0  -5 0.09999999999999964 0  -5 0 0  -5 -0.09999999999999964 0  -5 -0.2000000000000002 0  -5 -0.2999999999999998 0  -5 -0.4000000000000004 0  -5 -0.5 0  -5 -0.5999999999999996 0  -5 -0.7000000000000002 0  -5 -0.7999999999999998 0  -5 -0.9000000000000004 0  -5 -1 0  -5 -1.1 0  -5 -1.2 0  -5 -1.3 0  -5 -1.4 0  -5 -1.5 0  -5 -1.6 0  -5 -1.7 0  -5 -1.8 0  -5 -1.9 0  -5 -2 0  -5 -2.1 0  -5 -2.2 0  -5 -2.3 0  -5 -2.4 0  -5 -2.5 0  -5 -2.6 0  -5 -2.7 0  -5 -2.8 0  -5 -2.9 0  -5 -3 0  -5 -3.1 0  -5 -3.199999999999999 0  -5 -3.300000000000001 0  -5 -3.4 0  -5 -3.5 0  -5 -3.6 0  -5 -3.699999999999999 0  -5 -3.800000000000001 0  -5 -3.9 0  -5 -4 0  -5 -4.1 0  -5 -4.199999999999999 0  -5 -4.300000000000001 0  -5 -4.4 0  -5 -4.5 0  -5 -4.6 0  -5 -4.699999999999999 0  -5 -4.800000000000001 0  -5 -4.9 0  2.260378387831084 0.2421176007748155 0  1.971771018012513 0.3819835029392053 0  2.218279221235412 0.6612541909051169 0  1.790105523325903 0.7098453026806634 0  1.763799032241969 0.9358026222391337 0  1.547919946985363 1.028981948930668 0  1.448989962000575 1.228510147843267 0  1.210527055186598 1.151795393447362 0  1.134946090546771 1.346678276560684 0  0.9586123105313067 1.462762846215141 0  0.7861999070419621 1.484614503576876 0  0.6482646433794169 1.529460652666178 0  0.464888585402004 1.608730543467958 0  0.2990705692272695 1.636157806316542 0  0.1349926803109201 1.673247982241763 0  -0.02447996692259917 1.665222969850349 0  -0.2318878482845338 1.632079063456027 0  -0.396471367809642 1.631172053260538 0  -0.550940747958433 1.58261645361971 0  -0.7088742465740935 1.508333245609191 0  -0.8826725766865395 1.474291405771198 0  -1.037720996311259 1.364401703729217 0  -1.185409636976213 1.271935514699631 0  -1.428701646961238 1.274644530656434 0  -1.349786259868703 0.9892151812497344 0  -1.631653196141784 1.018311693054958 0  -1.86569332238364 0.8921308462241105 0  -1.860717370043929 0.6832580713949797 0  -2.067279822957484 0.5463567314529507 0  -2.148222349012541 0.3058657356033095 0  -2.195268890328694 0.07554726858082532 0  -1.955036376907857 -0.1355702723233955 0  -2.347323249608936 -0.3586417138722103 0  -1.972913479140014 -0.4642156479310606 0  -1.870062838541744 -0.6674435746358648 0  -1.888935728017217 -0.9107118691622543 0  -1.54529282197975 -0.8989449219327877 0  -1.534951747709744 -1.098134983413307 0  -1.370341873147521 -1.235041989490487 0  -1.177736354588754 -1.26698902819134 0  -1.039576213275512 -1.388862858208584 0  -0.8764143536881248 -1.49501957559638 0  -0.708197351974771 -1.536448749081119 0  -0.5434759744934565 -1.578973672017941 0  -0.385239539658041 -1.643850345719867 0  -0.2139195593385978 -1.645806056142296 0  -0.04941535960682626 -1.666995040872367 0  0.141625602302983 -1.662506301327955 0  0.294494315053179 -1.65357583169893 0  0.4748641401626797 -1.619408645129016 0  0.6343335419866932 -1.561116894701905 0  0.7861516761554775 -1.46774247722323 0  0.9592260393508595 -1.465168675869237 0  1.129525183554804 -1.35332462664259 0  1.295897713888307 -1.291955662757221 0  1.423253428865146 -1.150341519711491 0  1.553994569147195 -1.021070088940183 0  1.761856914331139 -0.9324102142009055 0  1.872174192634488 -0.7792228250693111 0  1.950869378208759 -0.5854090312989811 0  2.161694940111086 -0.4336215442663057 0  2.153429707366685 -0.2007684573882107 0  -2.449782264052833 4.920130234634133 0  -2.449746393147508 -4.912688421206592 0  4.91151011768337 2.448535900748514 0  4.919536741866796 -2.449866379529333 0  2.447661423727583 -4.898277468846934 0  2.442048732956031 4.902021056056729 0  -4.911543932712344 -2.448546761458118 0  -4.911586356327057 2.448552083196343 0  -1.749986714334971 4.914116240216751 0  -1.745691292863413 -4.917409763079144 0  4.921371235870583 1.744260182188132 0  4.909991654685961 -1.748179899589754 0  -4.910316904074011 -1.747868666288948 0  -4.911172509501867 1.74761001937007 0  1.747354778387097 4.908180769324434 0  1.748926823600566 -4.896696203525654 0  -1.150119052981115 4.912794467205142 0  -1.130846970507044 -4.920292185500198 0  -4.90956913430615 -1.147897230987479 0  -4.909414417711986 1.147688676328628 0  1.145021092832826 -4.916660196889643 0  1.150125961632072 4.912763299298191 0  4.909701043300406 1.146170080807259 0  4.920469804047009 -1.151845886261437 0  -0.5473628788770133 -4.914438230908291 0  -0.547079322316765 4.922761218278935 0  -4.90776857643989 -0.5485880260411423 0  -4.907807751745364 0.5471240247666579 0  4.907008114184238 -0.5489100298912268 0  4.918717478911186 0.5456102692206514 0  0.5432545707009556 -4.901951288779022 0  0.55183342874243 4.91973849622193 0  -4.912885724034018 -3.04897757971675 0  4.919397585697636 3.046925576524325 0  4.912398947447222 -3.048964521353546 0  -4.913756931740536 3.046056963194759 0  3.056237611416658 -4.91883317519823 0  -3.04961154210224 -4.912782152985177 0  3.053167523420338 4.914896258625844 0  -3.049093161684541 4.913735361938309 0  -4.906654164342766 -0.04990052268590574 0  0.04517774433153899 -4.91647828210814 0  0.04962426417539408 4.923199565152919 0  4.913690853375978 -0.05128997236454098 0  3.546263251965934 -4.919981206883829 0  -3.549617531420924 4.913012001381681 0  -3.549585143988348 -4.913025237192663 0  4.91
[...]
<PointData  Scalars="f_26"> 
<DataArray  type="Float64"  Name="f_26"  format="ascii">0.0000000000000000e+00  0.0000000000000000e+00  0.0000000000000000e+00  0.0000000000000000e+00  -1.4291267209239393e+01  0.0000000000000000e+00  0.0000000000000000e+00  0.0000000000000000e+00  0.0000000000000000e+00  0.0000000000000000e+00  0.0000000000000000e+00  0.0000000000000000e+00  0.0000000000000000e+00  0.0000000000000000e+00  0.0000000000000000e+00  0.0000000000000000e+00  0.0000000000000000e+00  0.0000000000000000e+00  0.0000000000000000e+00  0.0000000000000000e+00  0.0000000000000000e+00  0.0000000000000000e+00  0.0000000000000000e+00  0.0000000000000000e+00  0.0000000000000000e+00  0.0000000000000000e+00  0.0000000000000000e+00  0.0000000000000000e+00  0.0000000000000000e+00  0.0000000000000000e+00  0.0000000000000000e+00  0.0000000000000000e+00  0.0000000000000000e+00  0.0000000000000000e+00  0.0000000000000000e+00  0.0000000000000000e+00  0.0000000000000000e+00  0.0000000000000000e+00  0.0000000000000000e+00  0.0000000000000000e+00  0.0000000000000000e+00  0.0000000000000000e+00  0.0000000000000000e+00  0.0000000000000000e+00  0.0000000000000000e+00  0.0000000000000000e+00  0.0000000000000000e+00  0.0000000000000000e+00  0.0000000000000000e+00  0.0000000000000000e+00  0.0000000000000000e+00  0.0000000000000000e+00  0.0000000000000000e+00  0.0000000000000000e+00  0.0000000000000000e+00  0.0000000000000000e+00  0.0000000000000000e+00  0.0000000000000000e+00  0.0000000000000000e+00  0.0000000000000000e+00  0.0000000000000000e+00  0.0000000000000000e+00  0.0000000000000000e+00  0.0000000000000000e+00  0.0000000000000000e+00  0.0000000000000000e+00  0.0000000000000000e+00  0.0000000000000000e+00  0.0000000000000000e+00  0.0000000000000000e+00  0.0000000000000000e+00  0.0000000000000000e+00  0.0000000000000000e+00  0.0000000000000000e+00  0.0000000000000000e+00  0.0000000000000000e+00  0.0000000000000000e+00  0.0000000000000000e+00  0.0000000000000000e+00  0.0000000000000000e+00  0.0000000000000000e+00  0.0000000000000000e+00  0.0000000000000000e+00  0.0000000000000000e+00  0.0000000000000000e+00  0.0000000000000000e+00  0.0000000000000000e+00  0.0000000000000000e+00  0.0000000000000000e+00  0.0000000000000000e+00  0.0000000000000000e+00  0.0000000000000000e+00  0.0000000000000000e+00  0.0000000000000000e+00  0.0000000000000000e+00  0.0000000000000000e+00  0.0000000000000000e+00  0.0000000000000000e+00  0.0000000000000000e+00  0.0000000000000000e+00  0.0000000000000000e+00  0.0000000000000000e+00  0.0000000000000000e+00  0.0000000000000000e+00  0.0000000000000000e+00  0.0000000000000000e+00  0.0000000000000000e+00  0.0000000000000000e+00  0.0000000000000000e+00  0.0000000000000000e+00  0.0000000000000000e+00  0.0000000000000000e+00  0.0000000000000000e+00  0.0000000000000000e+00  0.0000000000000000e+00  0.0000000000000000e+00  0.0000000000000000e+00  0.0000000000000000e+00  0.0000000000000000e+00  0.0000000000000000e+00  0.0000000000000000e+00  0.0000000000000000e+00  0.0000000000000000e+00  0.0000000000000000e+00  0.0000000000000000e+00  0.0000000000000000e+00  0.0000000000000000e+00  0.0000000000000000e+00  0.0000000000000000e+00  0.0000000000000000e+00  0.0000000000000000e+00  0.0000000000000000e+00  0.0000000000000000e+00  0.0000000000000000e+00  0.0000000000000000e+00  0.0000000000000000e+00  0.0000000000000000e+00  0.0000000000000000e+00  0.0000000000000000e+00  0.0000000000000000e+00  0.0000000000000000e+00  0.0000000000000000e+00  0.0000000000000000e+00  0.0000000000000000e+00  0.0000000000000000e+00  0.0000000000000000e+00  0.0000000000000000e+00  0.0000000000000000e+00  0.0000000000000000e+00  0.0000000000000000e+00  0.0000000000000000e+00  0.0000000000000000e+00  0.0000000000000000e+00  0.0000000000000000e+00  0.0000000000000000e+00  0.0000000000000000e+00  0.0000000000000000e+00  0.0000000000000000e+00  0.0000000000000000e+00  0.0000000000000000e+00  0.0000000000000000e+00  0.0000000000000000e+00  0.0000000000000000e+00  0.0000000000000000e+00  0.0000000000000000e+00  0.0000000000000000e+00  0.0000000000000000e+00  0.0000000000000000e+00  0.0000000000000000e+00  0.0000000000000000e+00  0.0000000000000000e+00  0.0000000000000000e+00  0.0000000000000000e+00  0.0000000000000000e+00  0.0000000000000000e+00  0.0000000000000000e+00  0.0000000000000000e+00  0.0000000000000000e+00  0.0000000000000000e+00  0.0000000000000000e+00  0.0000000000000000e+00  0.0000000000000000e+00  0.0000000000000000e+00  0.0000000000000000e+00  0.0000000000000000e+00  0.0000000000000000e+00  0.0000000000000000e+00  0.0000000000000000e+00  0.0000000000000000e+00  0.0000000000000000e+00  0.0000000000000000e+00  0.0000000000000000e+00  0.0000000000000000e+00  0.0000000000000000e+00  0.0000000000000000e+00  0.0000000000000000e+00  0.0000000000000000e+00  0.0000000000000000e+00  0.0000000000000000e+00  0.0000000000000000e+00  0.0000000000000000e+00  0.0000000000000000e+00  0.0000000000000000e+00  0.0000000000000000e+00  0.0000000000000000e+00  0.0000000000000000e+00  0.0000000000000000e+00  0.0000000000000000e+00  0.0000000000000000e+00  0.0000000000000000e+00  0.0000000000000000e+00  0.0000000000000000e+00  0.0000000000000000e+00  0.0000000000000000e+00  0.0000000000000000e+00  0.0000000000000000e+00  0.0000000000000000e+00  0.0000000000000000e+00  0.0000000000000000e+00  0.0000000000000000e+00  0.0000000000000000e+00  0.0000000000000000e+00  0.0000000000000000e+00  0.0000000000000000e+00  0.0000000000000000e+00  0.0000000000000000e+00  0.0000000000000000e+00  0.0000000000000000e+00  0.0000000000000000e+00  0.0000000000000000e+00  0.0000000000000000e+00  0.0000000000000000e+00  0.0000000000000000e+00  0.0000000000000000e+00  0.0000000000000000e+00  0.0000000000000000e+00  0.0000000000000000e+00  0.0000000000000000e+00  0.0000000000000000e+00  0.0000000000000000e+00  0.0000000000000000e+00  0.0000000000000000e+00  0.0000000000000000e+00  0.0000000000000000e+00  0.0000000000000000e+00  0.0000000000000000e+00  0.0000000000000000e+00  0.0000000000000000e+00  0.0000000000000000e+00  0.0000000000000000e+00  0.0000000000000000e+00  0.0000000000000000e+00  0.0000000000000000e+00  0.0000000000000000e+00  0.0000000000000000e+00  0.0000000000000000e+00  0.0000000000000000e+00  0.0000000000000000e+00  0.0000000000000000e+00  0.0000000000000000e+00  0.0000000000000000e+00  0.0000000000000000e+00  0.0000000000000000e+00  0.0000000000000000e+00  0.0000000000000000e+00  0.0000000000000000e+00  0.0000000000000000e+00  0.0000000000000000e+00  0.0000000000000000e+00  0.0000000000000000e+00  0.0000000000000000e+00  0.0000000000000000e+00  0.0000000000000000e+00  0.0000000000000000e+00  0.0000000000000000e+00  0.0000000000000000e+00  0.0000000000000000e+00  0.0000000000000000e+00  0.0000000000000000e+00  0.0000000000000000e+00  0.0000000000000000e+00  0.0000000000000000e+00  0.0000000000000000e+00  0.0000000000000000e+00  0.0000000000000000e+00  0.0000000000000000e+00  0.0000000000000000e+00  0.0000000000000000e+00  0.0000000000000000e+00  0.0000000000000000e+00  0.0000000000000000e+00  0.0000000000000000e+00  0.0000000000000000e+00  0.0000000000000000e+00  0.0000000000000000e+00  0.0000000000000000e+00  0.0000000000000000e+00  0.0000000000000000e+00  0.0000000000000000e+00  0.0000000000000000e+00  0.0000000000000000e+00  0.0000000000000000e+00  0.0000000000000000e+00  0.0000000000000000e+00  0.0000000000000000e+00  0.0000000000000000e+00  0.0000000000000000e+00  0.0000000000000000e+00  0.0000000000000000e+00  0.0000000000000000e+00  0.0000000000000000e+00  0.0000000000000000e+00  0.0000000000000000e+00  0.0000000000000000e+00  0.0000000000000000e+00  0.0000000000000000e+00  0.0000000000000000e+00  0.0000000000000000e+00  0.0000000000000000e+00  0.0000000000000000e+00  0.0000000000000000e+00  0.0000000000000000e+00  0.0000000000000000e+00  0.0000000000000000e+00  0.0000000000000000e+00  0.0000000000000000e+00  0.0000000000000000e+00  0.0000000000000000e+00  0.0000000000000000e+00  0.0000000000000000e+00  0.0000000000000000e+00  0.0000000000000000e+00  0.0000000000000000e+00  0.0000000000000000e+00  0.0000000000000000e+00  0.0000000000000000e+00  0.0000000000000000e+00  0.0000000000000000e+00  0.0000000000000000e+00  0.0000000000000000e+00  0.0000000000000000e+00  0.0000000000000000e+00  0.0000000000000000e+00  0.0000000000000000e+00  0.0000000000000000e+00  0.0000000000000000e+00  0.0000000000000000e+00  0.0000000000000000e+00  0.0000000000000000e+00  0.0000000000000000e+00  0.0000000000000000e+00  0.0000000000000000e+00  0.0000000000000000e+00  0.0000000000000000e+00  0.0000000000000000e+00  0.0000000000000000e+00  0.0000000000000000e+00  0.0000000000000000e+00  0.0000000000000000e+00  0.0000000000000000e+00  0.0000000000000000e+00  0.0000000000000000e+00  0.0000000000000000e+00  0.0000000000000000e+00  0.0000000000000000e+00  0.0000000000000000e+00  0.0000000000000000e+00  0.0000000000000000e+00  0.0000000000000000e+00  0.0000000000000000e+00  0.0000000000000000e+00  0.0000000000000000e+00  0.0000000000000000e+00  0.0000000000000000e+00  0.0000000000000000e+00  0.0000000000000000e+00  0.0000000000000000e+00  0.0000000000000000e+00  0.0000000000000000e+00  0.0000000000000000e+00  0.0000000000000000e+00  0.0000000000000000e+00  0.0000000000000000e+00  0.0000000000000000e+00  0.0000000000000000e+00  0.0000000000000000e+00  0.0000000000000000e+00  0.0000000000000000e+00  0.0000000000000000e+00  0.0000000000000000e+00  0.0000000000000000e+00  0.0000000000000000e+00  0.0000000000000000e+00  0.0000000000000000e+00  0.0000000000000000e+00  0.0000000000000000e+00  0.0000000000000000e+00  0.0000000000000000e+00  0.0000000000000000e+00  0.0000000000000000e+00  0.0000000000000000e+00  -1.1613851266008137e+01  -1.5538014549514706e+01  -1.1449250996207693e+01  -1.9737234085537835e+01  -2.2191688798503723e+01  -2.6764878589429809e+01  -2.8864153481489371e+01  -3.4124762486386658e+01  -3.7596426724901363e+01  -4.0582362593499788e+01  -4.3267824277706012e+01  -4.5334116483360404e+01  -4.7199396533439604e+01  -4.8432420894168494e+01  -4.9004067441761933e+01  -4.9237492564761261e+01  -4.8945616174798886e+01  -4.7831061501352607e+01  -4.6512686413238896e+01  -4.4576796112988603e+01  -4.1981334619454316e+01  -3.9226167767039186e+01  -3.5733973226518380e+01  -3.2003487228401660e+01  -3.0905336308573386e+01  -2.3649258954124583e+01  -2.0177320571983881e+01  -1.9310161554425974e+01  -1.5691866717297472e+01  -1.4061040481515562e+01  -1.3047559003243963e+01  -1.5854090250848202e+01  -1.0919674230152987e+01  -1.6179501124275955e+01  -1.9136219011692443e+01  -1.8586668444330197e+01  -2.6001734899905248e+01  -2.8445505527823329e+01  -3.1303837739589216e+01  -3.5047133059167919e+01  -3.8195917031633357e+01  -4.0753681535608564e+01  -4.3003550060300235e+01  -4.4949460697021493e+01  -4.6133226499085325e+01  -4.7168925037367515e+01  -4.7423220363894941e+01  -4.7182916083583684e+01  -4.6426137773366065e+01  -4.5047161467665418e+01  -4.3390292523299117e+01  -4.1137939615371110e+01  -3.8073633785596321e+01  -3.5085370789272936e+01  -3.1739043231314028e+01  -2.8740503609023463e+01  -2.4925134716065639e+01  -2.0283272992690883e+01  -1.8063993477222613e+01  -1.5899907400844695e+01  -1.2526200134244148e+01  -1.2505857603251169e+01  -8.1903809096574309e-01  -8.3969934222499676e-01  -1.7525081335626483e-01  -5.5306176062110218e-02  -8.7942156732192933e-01  -9.8922900450549400e-01  -1.8574926958731194e-01  -2.0724773002379171e-01  -1.2565346710785135e+00  -1.1409866343622808e+00  -2.1552249160924148e-02  8.7683516860838390e-02  -5.7778777649460440e-02  -7.2406536907506952e-02  -1.3300393528931340e+00  -1.3312101338029854e+00  -1.5702665501126887e+00  -1.3565772200316237e+00  8.2824657536988533e-02  7.4324862319536611e-02  -1.3585131153756256e+00  -1.5593480126356576e+00  1.4041709278663780e-01  2.0246252860908048e-01  -1.6303415343040186e+00  -1.5673094765540616e+00  2.0027574710968035e-01  1.9713510941291776e-01  3.4063119512938150e-01  2.5479221681943609e-01  -1.8351939781266535e+00  -1.6230289444954227e+00  -2.2914521364408336e-01  -2.1204436563018525e-01  -1.3143689385311408e-01  -2.4909508342107867e-01  -4.3811234986530523e-01  -5.5600148132295313e-01  -5.6286133546440653e-01  -5.8647817797279322e-01  2.4197694996193989e-01  -1.6355670878392563e+00  -1.6116011744352601e+00  3.3447762521563124e-01  -2.6967390995532903e-01  -3.8572967371816952e-01  -3.5844779345415706e-01  -2.0374926133802737e-01  -2.1734933377765325e-01  -1.3908721949170533e-01  -2.3338053608767284e-01  -3.6456484602378780e-01  -1.2064921991297323e-01  -2.6039026477616412e-01  -1.8253781845066325e-01  -1.7808974193964275e-01  -2.3411432617968361e-01  -1.8282904952182810e-01  -2.3769183255312962e-01  -1.9155840516755213e-01  -1.1676646974652434e-01  -1.3249719129595824e-01  -1.1230869974734488e-01  -1.2296225030835783e-01  -8.4223621586737615e-02  -1.1757677743232808e-01  -1.2651279750841654e-01  -1.4263466422446774e-01  2.3252539279574649e-01  -1.7010698489493183e+00  -1.6910417797870243e+00  2.9662005969129929e-01  -1.7427588607321989e+00  1.2320359064111934e-02  1.4327729358184815e-01  1.4929028222735896e-01  3.8622543192888602e-04  -1.1273718730638351e+00  -1.9299207742910698e+00  -1.5095445318490450e+00  -1.4186857580292740e+00  5.4744844109036316e-02  2.9569047806289100e-01  1.9805187735775434e-01  1.6190810877070821e-01  -1.4318410700193853e+00  -1.7510984530890581e+00  -1.3503615719040527e+00  -1.3013345889194630e+00  -1.1021412408157139e+00  -1.2094173404582295e-01  -1.3670279817521425e-01  -9.1747460000230863e-01  -9.5677363437419516e-01  -9.0866722046010373e-02  1.7611611014582432e-02  -1.0391903316435341e-01  -7.2957007480883806e-01  -7.4460663967401097e-01  -2.3643931035876367e-01  -8.3609475852864101e-01  -2.1645631166262869e-01  -2.0229330743961493e-01  -5.3175427685377197e-01  -6.5968464356471190e-02  -4.9668120356519088e-02  -6.5397069956622977e-02  -7.9085425683241659e-02  -4.8277530122522005e-02  -7.1065239197422206e-02  -7.1149617384926409e-02  -5.8021573120770997e-02  2.3388541927871487e-01  -1.8061075145092471e+00  -2.1325712994526889e+00  3.2144576712793255e-01  -1.0043459029751982e+00  -1.4093827751515339e-01  -2.4170940339096121e-02  -1.0617423952418108e+00  -1.5648097560359447e-01  -8.5786844350335723e-01  -1.0593888476013915e+00  -1.7405304372610084e-01  -1.3922061159008217e-01  -5.4058240027780757e-01  -5.7199230762939146e-01  -2.3044875166924286e-01  -2.1898678991723231e-01  -4.1078836043717049e-01  -4.8157870195560520e-01  -2.4942695295060016e-01  -1.3424256175027388e-01  -1.0501449529119350e-01  -2.9618671974121669e-01  -1.9481410637809599e-01  -2.1453157728134292e-01  -1.3948286772172555e-01  -2.0056576180277741e-01  -1.5069639756100342e-01  -3.1573766548613547e-01  -2.3454118259876017e-01  -2.0526521974520714e-01  -1.5514002039466110e-01  -2.1878425193646645e-01  -1.6206164151789504e-01  -3.1690019817359372e-01  -1.9220040773910402e-01  -3.1790296070052029e-02  -2.9761097496484441e-02  -2.1100070221151956e-02  -3.3982449648775351e-02  2.3934682521001149e-01  4.6955430961883499e-01  4.5584827987828092e-01  6.8389383328122200e-01  6.5923473979382374e-01  8.7577823411813072e-01  8.3789320421638491e-01  1.0387298441309711e+00  9.8475893777695245e-01  1.1661743724881168e+00  1.0937296065711546e+00  1.2517438716313585e+00  1.1586452308115669e+00  1.2891835008223140e+00  1.1734434359852957e+00  1.2723507071374132e+00  1.1320163065257147e+00  1.1953037538458695e+00  1.0293546376573417e+00  1.0526956604122528e+00  8.5971816623203923e-01  1.2243519295593348e+00  8.3810866278817631e-01  6.1807990499666576e-01  5.4794966334075457e-01  3.0050479764541005e-01  1.7955252546507589e-01  -9.6657613779988591e-02  -2.7304516442613330e-01  -5.7676614120738412e-01  -8.1138925474946022e-01  -1.1418821877140639e+00  -4.9931795603307660e-01  -1.4378851810045967e+00  -1.7935354484319270e+00  -2.1538446599485290e+00  -2.5322111607778233e+00  -2.9581333290256855e+00  -3.3575285867185323e+00  -3.8499794056183800e+00  -4.2680121895212872e+00  -4.8276820918669996e+00  -5.2615894812852533e+00  -4.3969610548036897e+00  -5.8884243260618954e+00  -6.3353305924495427e+00  -7.0287047864841865e+00  -7.4850955785695126e+00  -6.7632847561014433e+00  -7.9219068569722619e+00  -8.7057155326131603e+00  -9.1485404418747169e+00  -8.3452529297085771e+00  -9.5661445130738496e+00  -8.7467132709088613e+00  -9.9538431024567462e+00  -1.0841182435713822e+01  -1.1212028630180939e+01  -1.0304711232823710e+01  -1.1541741347058906e+01  -1.0616075025917439e+01  -1.1826980625344362e+01  -1.2818645405035632e+01  -1.3072227261380361e+01  -1.2065039702427899e+01  -1.3274175408761099e+01  -1.4344077838606990e+01  -1.4504484550891956e+01  -1.3422848685262512e+01  -1.4607706852943242e+01  -1.5747853531760692e+01  -1.5800347141897813e+01  -1.6995650520684617e+01  -1.3517247769797541e+01  -1.6992361092510734e+01  -1.8239056726088055e+01  -1.8175151489642438e+01  -1.9469066865035430e+01  -1.9340015609873664e+01  -2.0676506297982598e+01  -2.0478242661809070e+01  -2.1852512251151083e+01  -1.9143067616027206e+01  -2.1581132522278370e+01  -2.2988017731930185e+01  -2.2640213442770481e+01  -2.4074310997571370e+01  -2.3647335326778840e+01  -2.5103071355503150e+01  -2.4594628914342042e+01  -2.6066339660065104e+01  -2.5474815335872183e+01  -2.6956795331237593e+01  -2.6281072290536482e+01  -2.7767614007501393e+01  -2.4013836184625568e+01  -2.0802914678775888e+01  -2.5930603084110587e+01  -2.7007156910126767e+01  -2.8492807918114337e+01  -2.7647889664813114e+01  -2.9127070045927137e+01  -3.6164027593785207e+01  -2.8198486563008892e+01  -2.9665946760460280e+01  -4.3638539512225876e+01  -2.8655117843188453e+01  -3.0105845700481403e+01  -3.1128406234704066e+01  -3.1546791569879474e+01  -3.0444066488312892e+01  -3.1858894266787757e+01  -2.6581100489570407e+01  -2.7202434888281250e+01  -3.0678900917635954e+01  -3.2063405141753996e+01  -3.3250860705030135e+01  -3.3420247736177792e+01  -3.2159530421646586e+01  -3.3477826399963071e+01  -3.4740879872473926e+01  -3.4755257067649843e+01  -3.3424464938044160e+01  -3.4655802985489402e+01  -3.5983158793891405e+01  -3.5833369456752351e+01  -3.4444903848277953e+01  -3.5569925351763253e+01  -3.6951686745045997e+01  -3.6630472968909622e+01  -3.5197162405927770e+01  -3.6198464002572223e+01  -3.7613803382298279e+01  -3.7121349001760471e+01  -3.5661977915043963e+01  -3.6524338731776460e+01  -3.7957522352637639e+01  -3.7297731091549196e+01  -3.8699047793497712e+01  -3.7974421681070545e+01  -3.6539126257538683e+01  -3.7152178574529415e+01  -3.8546952700413371e+01  -3.7660166445822412e+01  -3.6240230615982881e+01  -3.6685883554477648e+01  -3.8056684098238591e+01  -3.7020097031915206e+01  -3.8335754292190089e+01  -3.7237552126967316e+01  -3.8492230747525532e+01  -3.7333755668293442e+01  -3.6067260987298987e+01  -3.6107247295070067e+01  -3.7305040158952146e+01  -3.6024754464909911e+01  -3.7148621387351731e+01  -3.5817709841050302e+01  -3.6862746637723170e+01  -3.5485038902507164e+01  -3.6446803736586318e+01  -3.5026784673888791e+01  -3.4064207367430512e+01  -3.3569311000835640e+01  -3.4444239665512974e+01  -3.2956086475739674e+01  -3.3739899351053900e+01  -3.2226554127676508e+01  -3.2917393394300909e+01  -3.1385264632858416e+01  -3.1983274804268255e+01  -3.0437569330593163e+01  -3.0941025121079292e+01  -2.9391087965092762e+01  -2.9797891979514919e+01  -2.8252276627517187e+01  -2.8565569894322181e+01  -2.7030710718443366e+01  -2.7257163897051665e+01  -2.5736676460788356e+01  -2.5874958287069958e+01  -2.4379471340003946e+01  -2.4429069727948054e+01  -2.2969374232675989e+01  -2.2940213974103088e+01  -2.1519817400351634e+01  -2.1417929898430952e+01  -2.1535495505639734e+01  -2.0128158986664364e+01  -2.0133575064181620e+01  -1.8771949802877330e+01  -1.8769544472995310e+01  -1.7457021395523974e+01  -1.7449416406946003e+01  -1.6188212639930263e+01  -1.6177305511417615e+01  -1.4969616110234895e+01  -1.4918842003031129e+01  -1.4956643858568036e+01  -3.0699214037324