<?xml version="1.0"?>
<VTKFile type="UnstructuredGrid"  version="0.1"  >
<UnstructuredGrid>
<Piece  NumberOfPoints="11902" NumberOfCells="23402">
<Points>
<DataArray  type="Float64"  NumberOfComponents="3"  format="ascii">-5 -5 0  5 -5 0  5 5 0  -5 5 0  2.066206632679886 -0.001694980438209536 0  -4.9 -5 0  -4.8 -5 0  -4.7 -5 0  -4.6 -5 0  -4.5 -5 0  -4.4 -5 0  -4.3 -5 0  -4.2 -5 0  -4.1 -5 0  -4 -5 0  -3.9 -5 0  -3.8 -5 0  -3.7 -5 0  -3.6 -5 0  -3.5 -5 0  -3.4 -5 0  -3.3 -5 0  -3.2 -5 0  -3.1 -5 0  -3 -5 0  -2.9 -5 0  -2.8 -5 0  -2.7 -5 0  -2.6 -5 0  -2.5 -5 0  -2.4 -5 0  -2.3 -5 0  -2.2 -5 0  -2.1 -5 0  -2 -5 0  -1.9 -5 0  -1.8 -5 0  -1.7 -5 0  -1.6 -5 0  -1.5 -5 0  -1.4 -5 0  -1.3 -5 0  -1.2 -5 0  -1.1 -5 0  -1 -5 0  -0.9000000000000004 -5 0  -0.7999999999999998 -5 0  -0.7000000000000002 -5 0  -0.5999999999999996 -5 0  -0.5 -5 0  -0.4000000000000004 -5 0  -0.2999999999999998 -5 0  -0.2000000000000002 -5 0  -0.09999999999999964 -5 0  0 -5 0  0.09999999999999964 -5 0  0.2000000000000002 -5 0  0.2999999999999998 -5 0  0.4000000000000004 -5 0  0.5 -5 0  0.5999999999999996 -5 0  0.7000000000000002 -5 0  0.7999999999999998 -5 0  0.9000000000000004 -5 0  1 -5 0  1.1 -5 0  1.2 -5 0  1.3 -5 0  1.4 -5 0  1.5 -5 0  1.6 -5 0  1.7 -5 0  1.8 -5 0  1.9 -5 0  2 -5 0  2.1 -5 0  2.2 -5 0  2.3 -5 0  2.4 -5 0  2.5 -5 0  2.6 -5 0  2.7 -5 0  2.8 -5 0  2.9 -5 0  3 -5 0  3.1 -5 0  3.199999999999999 -5 0  3.300000000000001 -5 0  3.4 -5 0  3.5 -5 0  3.6 -5 0  3.699999999999999 -5 0  3.800000000000001 -5 0  3.9 -5 0  4 -5 0  4.1 -5 0  4.199999999999999 -5 0  4.300000000000001 -5 0  4.4 -5 0  4.5 -5 0  4.6 -5 0  4.699999999999999 -5 0  4.800000000000001 -5 0  4.9 -5 0  5 -4.9 0  5 -4.8 0  5 -4.7 0  5 -4.6 0  5 -4.5 0  5 -4.4 0  5 -4.3 0  5 -4.2 0  5 -4.1 0  5 -4 0  5 -3.9 0  5 -3.8 0  5 -3.7 0  5 -3.6 0  5 -3.5 0  5 -3.4 0  5 -3.3 0  5 -3.2 0  5 -3.1 0  5 -3 0  5 -2.9 0  5 -2.8 0  5 -2.7 0  5 -2.6 0  5 -2.5 0  5 -2.4 0  5 -2.3 0  5 -2.2 0  5 -2.1 0  5 -2 0  5 -1.9 0  5 -1.8 0  5 -1.7 0  5 -1.6 0  5 -1.5 0  5 -1.4 0  5 -1.3 0  5 -1.2 0  5 -1.1 0  5 -1 0  5 -0.9000000000000004 0  5 -0.7999999999999998 0  5 -0.7000000000000002 0  5 -0.5999999999999996 0  5 -0.5 0  5 -0.4000000000000004 0  5 -0.2999999999999998 0  5 -0.2000000000000002 0  5 -0.09999999999999964 0  5 0 0  5 0.09999999999999964 0  5 0.2000000000000002 0  5 0.2999999999999998 0  5 0.4000000000000004 0  5 0.5 0  5 0.5999999999999996 0  5 0.7000000000000002 0  5 0.7999999999999998 0  5 0.9000000000000004 0  5 1 0  5 1.1 0  5 1.2 0  5 1.3 0  5 1.4 0  5 1.5 0  5 1.6 0  5 1.7 0  5 1.8 0  5 1.9 0  5 2 0  5 2.1 0  5 2.2 0  5 2.3 0  5 2.4 0  5 2.5 0  5 2.6 0  5 2.7 0  5 2.8 0  5 2.9 0  5 3 0  5 3.1 0  5 3.199999999999999 0  5 3.300000000000001 0  5 3.4 0  5 3.5 0  5 3.6 0  5 3.699999999999999 0  5 3.800000000000001 0  5 3.9 0  5 4 0  5 4.1 0  5 4.199999999999999 0  5 4.300000000000001 0  5 4.4 0  5 4.5 0  5 4.6 0  5 4.699999999999999 0  5 4.800000000000001 0  5 4.9 0  4.9 5 0  4.8 5 0  4.7 5 0  4.6 5 0  4.5 5 0  4.4 5 0  4.3 5 0  4.2 5 0  4.1 5 0  4 5 0  3.9 5 0  3.8 5 0  3.7 5 0  3.6 5 0  3.5 5 0  3.4 5 0  3.3 5 0  3.2 5 0  3.1 5 0  3 5 0  2.9 5 0  2.8 5 0  2.7 5 0  2.6 5 0  2.5 5 0  2.4 5 0  2.3 5 0  2.2 5 0  2.1 5 0  2 5 0  1.9 5 0  1.8 5 0  1.7 5 0  1.6 5 0  1.5 5 0  1.4 5 0  1.3 5 0  1.2 5 0  1.1 5 0  1 5 0  0.9000000000000004 5 0  0.7999999999999998 5 0  0.7000000000000002 5 0  0.5999999999999996 5 0  0.5 5 0  0.4000000000000004 5 0  0.2999999999999998 5 0  0.2000000000000002 5 0  0.09999999999999964 5 0  0 5 0  -0.09999999999999964 5 0  -0.2000000000000002 5 0  -0.2999999999999998 5 0  -0.4000000000000004 5 0  -0.5 5 0  -0.5999999999999996 5 0  -0.7000000000000002 5 0  -0.7999999999999998 5 0  -0.9000000000000004 5 0  -1 5 0  -1.1 5 0  -1.2 5 0  -1.3 5 0  -1.4 5 0  -1.5 5 0  -1.6 5 0  -1.7 5 0  -1.8 5 0  -1.9 5 0  -2 5 0  -2.1 5 0  -2.2 5 0  -2.3 5 0  -2.4 5 0  -2.5 5 0  -2.6 5 0  -2.7 5 0  -2.8 5 0  -2.9 5 0  -3 5 0  -3.1 5 0  -3.199999999999999 5 0  -3.300000000000001 5 0  -3.4 5 0  -3.5 5 0  -3.6 5 0  -3.699999999999999 5 0  -3.800000000000001 5 0  -3.9 5 0  -4 5 0  -4.1 5 0  -4.199999999999999 5 0  -4.300000000000001 5 0  -4.4 5 0  -4.5 5 0  -4.6 5 0  -4.699999999999999 5 0  -4.800000000000001 5 0  -4.9 5 0  -5 4.9 0  -5 4.8 0  -5 4.7 0  -5 4.6 0  -5 4.5 0  -5 4.4 0  -5 4.3 0  -5 4.2 0  -5 4.1 0  -5 4 0  -5 3.9 0  -5 3.8 0  -5 3.7 0  -5 3.6 0  -5 3.5 0  -5 3.4 0  -5 3.3 0  -5 3.2 0  -5 3.1 0  -5 3 0  -5 2.9 0  -5 2.8 0  -5 2.7 0  -5 2.6 0  -5 2.5 0  -5 2.4 0  -5 2.3 0  -5 2.2 0  -5 2.1 0  -5 2 0  -5 1.9 0  -5 1.8 0  -5 1.7 0  -5 1.6 0  -5 1.5 0  -5 1.4 0  -5 1.3 0  -5 1.2 0  -5 1.1 0  -5 1 0  -5 0.9000000000000004 0  -5 0.7999999999999998 0  -5 0.7000000000000002 0  -5 0.5999999999999996 0  -5 0.5 0  -5 0.4000000000000004 0  -5 0.2999999999999998 0  -5 0.2000000000000002 0  -5 0.09999999999999964 0  -5 0 0  -5 -0.09999999999999964 0  -5 -0.2000000000000002 0  -5 -0.2999999999999998 0  -5 -0.4000000000000004 0  -5 -0.5 0  -5 -0.5999999999999996 0  -5 -0.7000000000000002 0  -5 -0.7999999999999998 0  -5 -0.9000000000000004 0  -5 -1 0  -5 -1.1 0  -5 -1.2 0  -5 -1.3 0  -5 -1.4 0  -5 -1.5 0  -5 -1.6 0  -5 -1.7 0  -5 -1.8 0  -5 -1.9 0  -5 -2 0  -5 -2.1 0  -5 -2.2 0  -5 -2.3 0  -5 -2.4 0  -5 -2.5 0  -5 -2.6 0  -5 -2.7 0  -5 -2.8 0  -5 -2.9 0  -5 -3 0  -5 -3.1 0  -5 -3.199999999999999 0  -5 -3.300000000000001 0  -5 -3.4 0  -5 -3.5 0  -5 -3.6 0  -5 -3.699999999999999 0  -5 -3.800000000000001 0  -5 -3.9 0  -5 -4 0  -5 -4.1 0  -5 -4.199999999999999 0  -5 -4.300000000000001 0  -5 -4.4 0  -5 -4.5 0  -5 -4.6 0  -5 -4.699999999999999 0  -5 -4.800000000000001 0  -5 -4.9 0  2.145874199054873 0.2210808004973996 0  2.011926881798182 0.3913068288952862 0  2.087274838520226 0.6364834049078156 0  1.815554535502822 0.752232641998734 0  1.719312500015162 0.9333908442613418 0  1.555927927415202 1.044068441988912 0  1.448977449046523 1.194762903679129 0  1.235987692638588 1.213487058418556 0  1.109359175118606 1.359182259062969 0  0.9514203090777213 1.452703869192653 0  0.7825816882309 1.484243889323281 0  0.6359369821942211 1.52911851313602 0  0.45519462346424 1.59873996537571 0  0.2943086489835322 1.623529304433789 0  0.1331188410942417 1.664574684511462 0  -0.02164478760450708 1.655312403336257 0  -0.2278260380541032 1.622302681280918 0  -0.3909429765309689 1.621536466872578 0  -0.5401061802069194 1.572444484004319 0  -0.700368577603403 1.505412909576844 0  -0.8733222826755243 1.470614652422393 0  -1.019674126367106 1.374396514455012 0  -1.17952246346105 1.29455069042439 0  -1.386980973100739 1.262719477419622 0  -1.420841482603744 1.060782766111122 0  -1.646005952082171 0.9894474143030052 0  -1.816311922190943 0.86607461484031 0  -1.876182933578141 0.6910151806541286 0  -2.014680566722873 0.5219504414160344 0  -2.092990241601231 0.3034606296190598 0  -2.119222013824853 0.1005647996451646 0  -2.027325399872538 -0.1198868453900443 0  -2.197475643842766 -0.337543090282018 0  -1.972270917749527 -0.488525701879103 0  -1.865436926137411 -0.6769820720874551 0  -1.8239710078025 -0.8626422010551978 0  -1.582182903983357 -0.9529521036870049 0  -1.50097741760481 -1.115842789705813 0  -1.356219116213953 -1.227308395532575 0  -1.177995763342496 -1.285815135409119 0  -1.030081267492938 -1.394010636296135 0  -0.8669448672816108 -1.482421520295329 0  -0.7045517486527113 -1.532127040878117 0  -0.5340803048498504 -1.570618492991245 0  -0.3804729410876431 -1.633132637677733 0  -0.2125500279237921 -1.631218854252343 0  -0.04854785665289812 -1.654103147513976 0  0.1391232704185379 -1.648951711861163 0  0.2916438892285871 -1.641109628980985 0  0.4669439885333418 -1.607275936118994 0  0.62105540482703 -1.55554842266015 0  0.7856605051520057 -1.477962654699807 0  0.9559762450008431 -1.458790795801893 0  1.124737015577862 -1.357920031140958 0  1.281738171958221 -1.290517008442834 0  1.416892286181063 -1.169493663678229 0  1.562463945522858 -1.041728572492449 0  1.735789544699864 -0.918902062696165 0  1.846683992035676 -0.7784255953579147 0  1.950620241793101 -0.5919834690062307 0  2.07869363341721 -0.415464296945744 0  2.099368636379717 -0.2136325444280599 0  -2.449749577275455 4.920128706543261 0  -2.449722777842743 -4.912697365954819 0  4.911758153804278 2.448761657666515 0  4.919772663820885 -2.450090229988779 0  2.447636774196446 -4.898296630632561 0  2.44200802647792 4.902027544571549 0  -4.911788118520209 -2.44877101736984 0  -4.911822254467143 2.448775450371377 0  -1.749904142526088 4.914036748330824 0  -1.745620049119377 -4.91734700243116 0  4.921780599408146 1.744533777542451 0  4.910478490165899 -1.748472826784469 0  -4.910774924031658 -1.748159295613474 0  -4.911619605137227 1.747898340046609 0  1.747251818774065 4.908101199599212 0  1.748834297490446 -4.896629989718179 0  -1.150026383761065 4.912621495708995 0  -1.130765233305651 -4.920174180010119 0  -4.910246018353937 -1.148173393363564 0  -4.910089086904449 1.147967435082903 0  1.144941314049336 -4.916527979551947 0  1.150030207774527 4.912603728983177 0  4.910388161273328 1.146454001506009 0  4.92109052888431 -1.152113386890413 0  -0.5473133654597521 -4.914233672028359 0  -0.5470311557836911 4.92255166701857 0  -4.908641693814702 -0.5487550746955874 0  -4.908679174884321 0.5472945892869964 0  4.907926457001992 -0.5490756891243838 0  4.919508867861295 0.5457763948147547 0  0.5431808322129992 -4.901726177787365 0  0.5517808180918902 4.919522338444333 0  -4.913008637483307 -3.049128161219416 0  4.919510203072474 3.047069691291223 0  4.912531067827477 -3.049124103632868 0  -4.91387314698456 3.046205772835562 0  3.056254355612228 -4.918868069521469 0  -3.049626295622212 -4.912819253839684 0  3.053177519223983 4.914926048940591 0  -3.049101339104036 4.91376387090132 0  -4.907603554814636 -0.04991573783259486 0  0.04516760865021244 -4.916256751068887 0  0.04961802310051033 4.92297400551976 0  4.91459617340052 -0.05129721222936038 0  3.546298175824403 -4.920021247029316 0  -3.549646277185321 4.913042572263185 0  -3.549620844808749 -4.913055802921905 0  4.919928
[...]
<PointData  Scalars="f_26"> 
<DataArray  type="Float64"  Name="f_26"  format="ascii">0.0000000000000000e+00  0.0000000000000000e+00  0.0000000000000000e+00  0.0000000000000000e+00  -2.5398823719174370e+01  0.0000000000000000e+00  0.0000000000000000e+00  0.0000000000000000e+00  0.0000000000000000e+00  0.0000000000000000e+00  0.0000000000000000e+00  0.0000000000000000e+00  0.0000000000000000e+00  0.0000000000000000e+00  0.0000000000000000e+00  0.0000000000000000e+00  0.0000000000000000e+00  0.0000000000000000e+00  0.0000000000000000e+00  0.0000000000000000e+00  0.0000000000000000e+00  0.0000000000000000e+00  0.0000000000000000e+00  0.0000000000000000e+00  0.0000000000000000e+00  0.0000000000000000e+00  0.0000000000000000e+00  0.0000000000000000e+00  0.0000000000000000e+00  0.0000000000000000e+00  0.0000000000000000e+00  0.0000000000000000e+00  0.0000000000000000e+00  0.0000000000000000e+00  0.0000000000000000e+00  0.0000000000000000e+00  0.0000000000000000e+00  0.0000000000000000e+00  0.0000000000000000e+00  0.0000000000000000e+00  0.0000000000000000e+00  0.0000000000000000e+00  0.0000000000000000e+00  0.0000000000000000e+00  0.0000000000000000e+00  0.0000000000000000e+00  0.0000000000000000e+00  0.0000000000000000e+00  0.0000000000000000e+00  0.0000000000000000e+00  0.0000000000000000e+00  0.0000000000000000e+00  0.0000000000000000e+00  0.0000000000000000e+00  0.0000000000000000e+00  0.0000000000000000e+00  0.0000000000000000e+00  0.0000000000000000e+00  0.0000000000000000e+00  0.0000000000000000e+00  0.0000000000000000e+00  0.0000000000000000e+00  0.0000000000000000e+00  0.0000000000000000e+00  0.0000000000000000e+00  0.0000000000000000e+00  0.0000000000000000e+00  0.0000000000000000e+00  0.0000000000000000e+00  0.0000000000000000e+00  0.0000000000000000e+00  0.0000000000000000e+00  0.0000000000000000e+00  0.0000000000000000e+00  0.0000000000000000e+00  0.0000000000000000e+00  0.0000000000000000e+00  0.0000000000000000e+00  0.0000000000000000e+00  0.0000000000000000e+00  0.0000000000000000e+00  0.0000000000000000e+00  0.0000000000000000e+00  0.0000000000000000e+00  0.0000000000000000e+00  0.0000000000000000e+00  0.0000000000000000e+00  0.0000000000000000e+00  0.0000000000000000e+00  0.0000000000000000e+00  0.0000000000000000e+00  0.0000000000000000e+00  0.0000000000000000e+00  0.0000000000000000e+00  0.0000000000000000e+00  0.0000000000000000e+00  0.0000000000000000e+00  0.0000000000000000e+00  0.0000000000000000e+00  0.0000000000000000e+00  0.0000000000000000e+00  0.0000000000000000e+00  0.0000000000000000e+00  0.0000000000000000e+00  0.0000000000000000e+00  0.0000000000000000e+00  0.0000000000000000e+00  0.0000000000000000e+00  0.0000000000000000e+00  0.0000000000000000e+00  0.0000000000000000e+00  0.0000000000000000e+00  0.0000000000000000e+00  0.0000000000000000e+00  0.0000000000000000e+00  0.0000000000000000e+00  0.0000000000000000e+00  0.0000000000000000e+00  0.0000000000000000e+00  0.0000000000000000e+00  0.0000000000000000e+00  0.0000000000000000e+00  0.0000000000000000e+00  0.0000000000000000e+00  0.0000000000000000e+00  0.0000000000000000e+00  0.0000000000000000e+00  0.0000000000000000e+00  0.0000000000000000e+00  0.0000000000000000e+00  0.0000000000000000e+00  0.0000000000000000e+00  0.0000000000000000e+00  0.0000000000000000e+00  0.0000000000000000e+00  0.0000000000000000e+00  0.0000000000000000e+00  0.0000000000000000e+00  0.0000000000000000e+00  0.0000000000000000e+00  0.0000000000000000e+00  0.0000000000000000e+00  0.0000000000000000e+00  0.0000000000000000e+00  0.0000000000000000e+00  0.0000000000000000e+00  0.0000000000000000e+00  0.0000000000000000e+00  0.0000000000000000e+00  0.0000000000000000e+00  0.0000000000000000e+00  0.0000000000000000e+00  0.0000000000000000e+00  0.0000000000000000e+00  0.0000000000000000e+00  0.0000000000000000e+00  0.0000000000000000e+00  0.0000000000000000e+00  0.0000000000000000e+00  0.0000000000000000e+00  0.0000000000000000e+00  0.0000000000000000e+00  0.0000000000000000e+00  0.0000000000000000e+00  0.0000000000000000e+00  0.0000000000000000e+00  0.0000000000000000e+00  0.0000000000000000e+00  0.0000000000000000e+00  0.0000000000000000e+00  0.0000000000000000e+00  0.0000000000000000e+00  0.0000000000000000e+00  0.0000000000000000e+00  0.0000000000000000e+00  0.0000000000000000e+00  0.0000000000000000e+00  0.0000000000000000e+00  0.0000000000000000e+00  0.0000000000000000e+00  0.0000000000000000e+00  0.0000000000000000e+00  0.0000000000000000e+00  0.0000000000000000e+00  0.0000000000000000e+00  0.0000000000000000e+00  0.0000000000000000e+00  0.0000000000000000e+00  0.0000000000000000e+00  0.0000000000000000e+00  0.0000000000000000e+00  0.0000000000000000e+00  0.0000000000000000e+00  0.0000000000000000e+00  0.0000000000000000e+00  0.0000000000000000e+00  0.0000000000000000e+00  0.0000000000000000e+00  0.0000000000000000e+00  0.0000000000000000e+00  0.0000000000000000e+00  0.0000000000000000e+00  0.0000000000000000e+00  0.0000000000000000e+00  0.0000000000000000e+00  0.0000000000000000e+00  0.0000000000000000e+00  0.0000000000000000e+00  0.0000000000000000e+00  0.0000000000000000e+00  0.0000000000000000e+00  0.0000000000000000e+00  0.0000000000000000e+00  0.0000000000000000e+00  0.0000000000000000e+00  0.0000000000000000e+00  0.0000000000000000e+00  0.0000000000000000e+00  0.0000000000000000e+00  0.0000000000000000e+00  0.0000000000000000e+00  0.0000000000000000e+00  0.0000000000000000e+00  0.0000000000000000e+00  0.0000000000000000e+00  0.0000000000000000e+00  0.0000000000000000e+00  0.0000000000000000e+00  0.0000000000000000e+00  0.0000000000000000e+00  0.0000000000000000e+00  0.0000000000000000e+00  0.0000000000000000e+00  0.0000000000000000e+00  0.0000000000000000e+00  0.0000000000000000e+00  0.0000000000000000e+00  0.0000000000000000e+00  0.0000000000000000e+00  0.0000000000000000e+00  0.0000000000000000e+00  0.0000000000000000e+00  0.0000000000000000e+00  0.0000000000000000e+00  0.0000000000000000e+00  0.0000000000000000e+00  0.0000000000000000e+00  0.0000000000000000e+00  0.0000000000000000e+00  0.0000000000000000e+00  0.0000000000000000e+00  0.0000000000000000e+00  0.0000000000000000e+00  0.0000000000000000e+00  0.0000000000000000e+00  0.0000000000000000e+00  0.0000000000000000e+00  0.0000000000000000e+00  0.0000000000000000e+00  0.0000000000000000e+00  0.0000000000000000e+00  0.0000000000000000e+00  0.0000000000000000e+00  0.0000000000000000e+00  0.0000000000000000e+00  0.0000000000000000e+00  0.0000000000000000e+00  0.0000000000000000e+00  0.0000000000000000e+00  0.0000000000000000e+00  0.0000000000000000e+00  0.0000000000000000e+00  0.0000000000000000e+00  0.0000000000000000e+00  0.0000000000000000e+00  0.0000000000000000e+00  0.0000000000000000e+00  0.0000000000000000e+00  0.0000000000000000e+00  0.0000000000000000e+00  0.0000000000000000e+00  0.0000000000000000e+00  0.0000000000000000e+00  0.0000000000000000e+00  0.0000000000000000e+00  0.0000000000000000e+00  0.0000000000000000e+00  0.0000000000000000e+00  0.0000000000000000e+00  0.0000000000000000e+00  0.0000000000000000e+00  0.0000000000000000e+00  0.0000000000000000e+00  0.0000000000000000e+00  0.0000000000000000e+00  0.0000000000000000e+00  0.0000000000000000e+00  0.0000000000000000e+00  0.0000000000000000e+00  0.0000000000000000e+00  0.0000000000000000e+00  0.0000000000000000e+00  0.0000000000000000e+00  0.0000000000000000e+00  0.0000000000000000e+00  0.0000000000000000e+00  0.0000000000000000e+00  0.0000000000000000e+00  0.0000000000000000e+00  0.0000000000000000e+00  0.0000000000000000e+00  0.0000000000000000e+00  0.0000000000000000e+00  0.0000000000000000e+00  0.0000000000000000e+00  0.0000000000000000e+00  0.0000000000000000e+00  0.0000000000000000e+00  0.0000000000000000e+00  0.0000000000000000e+00  0.0000000000000000e+00  0.0000000000000000e+00  0.0000000000000000e+00  0.0000000000000000e+00  0.0000000000000000e+00  0.0000000000000000e+00  0.0000000000000000e+00  0.0000000000000000e+00  0.0000000000000000e+00  0.0000000000000000e+00  0.0000000000000000e+00  0.0000000000000000e+00  0.0000000000000000e+00  0.0000000000000000e+00  0.0000000000000000e+00  0.0000000000000000e+00  0.0000000000000000e+00  0.0000000000000000e+00  0.0000000000000000e+00  0.0000000000000000e+00  0.0000000000000000e+00  0.0000000000000000e+00  0.0000000000000000e+00  0.0000000000000000e+00  0.0000000000000000e+00  0.0000000000000000e+00  0.0000000000000000e+00  0.0000000000000000e+00  0.0000000000000000e+00  0.0000000000000000e+00  0.0000000000000000e+00  0.0000000000000000e+00  0.0000000000000000e+00  0.0000000000000000e+00  0.0000000000000000e+00  0.0000000000000000e+00  0.0000000000000000e+00  0.0000000000000000e+00  0.0000000000000000e+00  0.0000000000000000e+00  0.0000000000000000e+00  0.0000000000000000e+00  0.0000000000000000e+00  0.0000000000000000e+00  0.0000000000000000e+00  0.0000000000000000e+00  0.0000000000000000e+00  0.0000000000000000e+00  0.0000000000000000e+00  0.0000000000000000e+00  0.0000000000000000e+00  0.0000000000000000e+00  0.0000000000000000e+00  0.0000000000000000e+00  0.0000000000000000e+00  0.0000000000000000e+00  0.0000000000000000e+00  0.0000000000000000e+00  0.0000000000000000e+00  0.0000000000000000e+00  0.0000000000000000e+00  0.0000000000000000e+00  0.0000000000000000e+00  0.0000000000000000e+00  0.0000000000000000e+00  0.0000000000000000e+00  0.0000000000000000e+00  0.0000000000000000e+00  0.0000000000000000e+00  0.0000000000000000e+00  0.0000000000000000e+00  0.0000000000000000e+00  0.0000000000000000e+00  0.0000000000000000e+00  0.0000000000000000e+00  0.0000000000000000e+00  0.0000000000000000e+00  0.0000000000000000e+00  0.0000000000000000e+00  0.0000000000000000e+00  0.0000000000000000e+00  -2.5096369524750241e+01  -2.6841003279429920e+01  -2.6201272163245072e+01  -3.1081548634961948e+01  -3.4210723857884361e+01  -3.8231025568647169e+01  -4.1038280931513398e+01  -4.6217065428222867e+01  -5.0066161547252577e+01  -5.3259222644110416e+01  -5.6460818668193468e+01  -5.9013924673388622e+01  -6.1134238069440272e+01  -6.2573809435157465e+01  -6.3174088535205222e+01  -6.3491818072632398e+01  -6.3189878113782378e+01  -6.1772600783441412e+01  -6.0214371954497480e+01  -5.7842522579355183e+01  -5.4657749050391438e+01  -5.1604367919021051e+01  -4.7442618159797703e+01  -4.3175502117420450e+01  -4.1274499211220387e+01  -3.5133455167904849e+01  -3.1804018634146907e+01  -2.9860735241389698e+01  -2.7074707128640966e+01  -2.5370689175672382e+01  -2.4670215441202497e+01  -2.5542183745150489e+01  -2.4224844025867878e+01  -2.6779889895147225e+01  -2.9555608621140955e+01  -3.0843996614646453e+01  -3.6283020515078846e+01  -3.9280769770758582e+01  -4.2372600604699365e+01  -4.6504564940059822e+01  -5.0019548519708700e+01  -5.3166693660857810e+01  -5.5779594698224273e+01  -5.8263985411824969e+01  -5.9652563769016865e+01  -6.0997372015569411e+01  -6.1376317420507213e+01  -6.1214481891786058e+01  -6.0376071350111793e+01  -5.8923208949349664e+01  -5.7143208759160295e+01  -5.4530303138908920e+01  -5.1153872715373787e+01  -4.7841988158638983e+01  -4.4297205407656229e+01  -4.1046170702755816e+01  -3.7095150149688614e+01  -3.2935628441887388e+01  -3.0456069933608532e+01  -2.8010807484996587e+01  -2.5800447188005553e+01  -2.5128016005374374e+01  -8.1468993098281917e-01  -8.2295154166241002e-01  -1.0242549651509043e-03  5.9238358616696921e-02  -9.1994090888435032e-01  -9.8547702903079926e-01  1.1030157378678761e-02  -2.7046488367965364e-02  -1.3129700635181674e+00  -1.1854410120275283e+00  2.0053696964862755e-01  2.9147440250426893e-01  2.2632986046290635e-01  1.9113587471798241e-01  -1.3916534907271725e+00  -1.4413198566134178e+00  -1.6878738601526693e+00  -1.4575695344280000e+00  4.3893041650213960e-01  4.1529678879370646e-01  -1.4966109233828930e+00  -1.6772427963361203e+00  4.5672743408374700e-01  4.4441625061674100e-01  -1.7886907583893779e+00  -1.7122674014693082e+00  6.1286788827605454e-01  6.0056589126445470e-01  6.8408407829385987e-01  5.7548572889174332e-01  -2.0367182837131521e+00  -1.7737955559357224e+00  -9.6946757734205830e-02  -1.0450894617065357e-01  -5.5024527066500274e-02  -1.3092542309791425e-01  -4.3751637723718662e-01  -5.0868127973218102e-01  -5.2806871230828456e-01  -5.5016248571958482e-01  6.7293459353229379e-01  -1.8131719554157255e+00  -1.7692206844063847e+00  6.7863344528372427e-01  -2.5600814933874116e-01  -3.4089033833640442e-01  -3.0487480097211328e-01  -1.3171061077701365e-01  -1.2752388760151728e-01  -9.3197557654521118e-02  -1.5473232002797219e-01  -3.2169336432798395e-01  -9.1486498945427139e-02  -2.0757824314945658e-01  -1.6496878075832536e-01  -1.1702076105534745e-01  -1.9657609604433565e-01  -1.2993808005332241e-01  -1.9872395855334077e-01  -1.3831990802677518e-01  -1.0052729198684283e-01  -1.0623705582896091e-01  -8.4581854393547568e-02  -9.1805984772553431e-02  -6.7706037826688534e-02  -8.1960489971604406e-02  -9.5600879992069371e-02  -1.1354734397776142e-01  6.5680657043016022e-01  -1.8785078225730369e+00  -1.8543648713295555e+00  6.2470731402888136e-01  -1.8909425248617011e+00  3.3339675871405539e-01  5.2043195273314913e-01  5.4103414306878306e-01  3.0715482210400491e-01  -1.2328123551712193e+00  -2.0952918141743186e+00  -1.6711335640358203e+00  -1.5069190923503351e+00  3.3029651714250180e-01  6.0962267716549490e-01  5.0704547300310243e-01  4.0333704759521366e-01  -1.5196909992557719e+00  -1.9036678205228734e+00  -1.4286129099071863e+00  -1.3340572846129031e+00  -1.1195138467441279e+00  1.2501061728359783e-01  8.7925212827577010e-02  -9.4154713828665904e-01  -1.0227452118906650e+00  1.1034301302831352e-01  1.8580263731484531e-01  -4.7901802393377109e-03  -6.9250453435854176e-01  -7.2161869252344590e-01  -8.9733894615076887e-02  -8.0899621705325742e-01  -5.3248205306045640e-02  -6.4658792086700737e-02  -5.4473565670909885e-01  -4.7040068472008659e-02  -4.1605968999025016e-02  -4.9744399843077984e-02  -6.1833121824129457e-02  -3.9664618447026241e-02  -5.1771011133240459e-02  -5.4717479203528131e-02  -4.4940373171998692e-02  6.6253527423239389e-01  -2.0054544615058867e+00  -2.3371287312953188e+00  6.4464350950555538e-01  -1.0152140914145338e+00  5.4927482019452974e-02  1.2208560010135687e-01  -1.0611109534862500e+00  6.4346623673139994e-02  -9.0778457472913299e-01  -1.0718533256238147e+00  2.7217201136340709e-02  -7.6677836945322875e-02  -4.8057016928736535e-01  -5.2381825402113247e-01  -1.1582260008590335e-01  -1.2427432183782865e-01  -4.0273536457474263e-01  -4.4151673863485291e-01  -1.4784312586517240e-01  -9.6894577632568910e-02  -8.2427204468030535e-02  -2.4410432500126683e-01  -1.5080929122763354e-01  -1.9862653644966516e-01  -1.2290424620462159e-01  -1.2567449600878286e-01  -1.0249578400180259e-01  -2.7197320615059462e-01  -1.9220613848129287e-01  -1.4023602450723632e-01  -1.1346843923945651e-01  -1.5241545133833515e-01  -1.2015299513790714e-01  -2.7194787956618899e-01  -1.5626519659474780e-01  -2.2901230198966394e-02  -2.2833827666191235e-02  -1.7492654741974173e-02  -2.6342281872505011e-02  6.6981892190544579e-01  1.3277950032402384e+00  1.3090916188029831e+00  1.9646029089464290e+00  1.9304545863713649e+00  2.5711903493692936e+00  2.5186347392465165e+00  3.1387147432933906e+00  3.0630300308536333e+00  3.6579085609962672e+00  3.5554432871455597e+00  4.1199067352651149e+00  3.9873440243741256e+00  4.5158824654359844e+00  4.3501419884981960e+00  4.8370980722199093e+00  4.6348384819773871e+00  5.0748126916733201e+00  4.8348957618290367e+00  5.2205723261956773e+00  4.9409408349250423e+00  5.4688298682321319e+00  5.2665214089863239e+00  4.9455208554751033e+00  5.2056223913983919e+00  4.8428898548859873e+00  5.0317693811240956e+00  4.6260571486400890e+00  4.7369828070177471e+00  4.2895171958937262e+00  4.3168563185045556e+00  3.8289383392387224e+00  4.7756323844384880e+00  3.7663999642213093e+00  3.2406860812570257e+00  3.0833199832310703e+00  2.5227098447232601e+00  2.2668071819209414e+00  1.6737096208910935e+00  1.3151228285264189e+00  6.9451892697615381e-01  2.2953472323973381e-01  -4.1388441065567366e-01  8.6275420872291120e-01  -9.8750106950186822e-01  -1.6485029223494587e+00  -2.3323654333842430e+00  -3.0049891234784694e+00  -2.2930463241778556e+00  -3.6597768367343551e+00  -4.4766090363009106e+00  -5.1361983128678013e+00  -4.3024576573449407e+00  -5.7699514594594721e+00  -4.9220344932189191e+00  -6.3714225288036630e+00  -7.3285856030646359e+00  -7.9062542708442685e+00  -6.9317882150682886e+00  -8.4378948619696548e+00  -7.4473555211053739e+00  -8.9190500449632975e+00  -1.0013381886319797e+01  -1.0452038198303695e+01  -9.3461328771387837e+00  -1.0831738735227127e+01  -1.2035878239101365e+01  -1.2360424326916329e+01  -1.1150313105402464e+01  -1.2619770405408591e+01  -1.3921187541207976e+01  -1.4113919504764910e+01  -1.5502228588362545e+01  -1.1406442680821897e+01  -1.5621352825963777e+01  -1.7091441182359549e+01  -1.7130328495372471e+01  -1.8676332662150564e+01  -1.8628894349850018e+01  -2.0244185489465796e+01  -2.0105038275733666e+01  -2.1782639180275098e+01  -1.8506966927996686e+01  -2.1546731278617806e+01  -2.3279020382241811e+01  -2.2942220896831675e+01  -2.4721154755912792e+01  -2.4280162988835798e+01  -2.6097378107848147e+01  -2.5549611492898304e+01  -2.7396543888295181e+01  -2.6740400333905452e+01  -2.8608396944385422e+01  -2.7843016379658156e+01  -2.9723378200608334e+01  -2.4928209506193877e+01  -2.0305438186062258e+01  -3.3118128377134788e+01  -2.8848745966596983e+01  -3.0733104166451785e+01  -2.9750294771038028e+01  -3.1630152925679674e+01  -4.6322649086035760e+01  -3.0540971283807711e+01  -3.2408294062641588e+01  -5.6052274256945608e+01  -3.1215385328751466e+01  -3.3062501782323132e+01  -3.4295365167237058e+01  -3.4921831668145771e+01  -3.3588997619765173e+01  -3.5413486523724181e+01  -2.7975510459229191e+01  -2.9389721882750557e+01  -3.3985351440560514e+01  -3.5768523820300196e+01  -3.7232255984596250e+01  -3.7538226842433531e+01  -3.5985911949990331e+01  -3.7701247732557867e+01  -3.9283284494928971e+01  -3.9384262683309757e+01  -3.7722665643024357e+01  -3.9339233107132017e+01  -4.1023249907277538e+01  -4.0904660333945962e+01  -3.9151709068914819e+01  -4.0640350187816971e+01  -4.2411292816768757e+01  -4.2061742204006457e+01  -4.0236538334025163e+01  -4.1570764289567130e+01  -4.3398196823798870e+01  -4.2817218766603411e+01  -4.0947318010684704e+01  -4.2103941964047287e+01  -4.3963965337230022e+01  -4.3156863788890995e+01  -4.4999433427962423e+01  -4.4094858371491448e+01  -4.2226133528621489e+01  -4.3068865047288419e+01  -4.4906968784642409e+01  -4.3783848086335659e+01  -4.1932706327624018e+01  -4.2554325445915339e+01  -4.4361577899009191e+01  -4.3038319971897991e+01  -4.4793086497703094e+01  -4.3376721603931855e+01  -4.5070489773210049e+01  -4.3562648861412761e+01  -4.1877173555329115e+01  -4.1978190220321899e+01  -4.3590294258412349e+01  -4.1924213966770893e+01  -4.3455045338240794e+01  -4.1711677466575054e+01  -4.3153670951416672e+01  -4.1338339504868991e+01  -4.2684443590660258e+01  -4.0803442489778675e+01  -3.9483876932216113e+01  -3.8892228814217688e+01  -4.0107873687624434e+01  -3.8148269448396519e+01  -3.9254048744412110e+01  -3.7253883463459012e+01  -3.8246035196300070e+01  -3.6214332884869449e+01  -3.7091732133565209e+01  -3.5035903852800828e+01  -3.5794549107897325e+01  -3.3727852942500839e+01  -3.4363172037841998e+01  -3.2297875519401842e+01  -3.2812327792280897e+01  -3.0757850885241840e+01  -3.1158779445003702e+01  -2.9120666262092083e+01  -2.9404034818929272e+01  -2.7397950741216768e+01  -2.7560638001818553e+01  -2.5602736953247394e+01  -2.5656146114617709e+01  -2.3752486554408854e+01  -2.3702880541068765e+01  -2.3712395577739414e+01  -2.1921329923236478e+01  -2.1895146808301124e+01  -2.0168549916772111e+01  -2.0155925915378411e+01  -1.8498617632502995e+01  -1.8499614225683509e+01  -1.6914595794439961e+01  -1.6928606660220531e+01  -1.5418591915853392e+01  -1.5320764246600140e+01  -1.5444422767093132e+01  -3.5257093498252900e+01  -1.3905972002364260