<?xml version="1.0"?>
<VTKFile type="UnstructuredGrid"  version="0.1"  >
<UnstructuredGrid>
<Piece  NumberOfPoints="11902" NumberOfCells="23402">
<Points>
<DataArray  type="Float64"  NumberOfComponents="3"  format="ascii">-5 -5 0  5 -5 0  5 5 0  -5 5 0  1.965207999288287 0.01706922902354522 0  -4.9 -5 0  -4.8 -5 0  -4.7 -5 0  -4.6 -5 0  -4.5 -5 0  -4.4 -5 0  -4.3 -5 0  -4.2 -5 0  -4.1 -5 0  -4 -5 0  -3.9 -5 0  -3.8 -5 0  -3.7 -5 0  -3.6 -5 0  -3.5 -5 0  -3.4 -5 0  -3.3 -5 0  -3.2 -5 0  -3.1 -5 0  -3 -5 0  -2.9 -5 0  -2.8 -5 0  -2.7 -5 0  -2.6 -5 0  -2.5 -5 0  -2.4 -5 0  -2.3 -5 0  -2.2 -5 0  -2.1 -5 0  -2 -5 0  -1.9 -5 0  -1.8 -5 0  -1.7 -5 0  -1.6 -5 0  -1.5 -5 0  -1.4 -5 0  -1.3 -5 0  -1.2 -5 0  -1.1 -5 0  -1 -5 0  -0.9000000000000004 -5 0  -0.7999999999999998 -5 0  -0.7000000000000002 -5 0  -0.5999999999999996 -5 0  -0.5 -5 0  -0.4000000000000004 -5 0  -0.2999999999999998 -5 0  -0.2000000000000002 -5 0  -0.09999999999999964 -5 0  0 -5 0  0.09999999999999964 -5 0  0.2000000000000002 -5 0  0.2999999999999998 -5 0  0.4000000000000004 -5 0  0.5 -5 0  0.5999999999999996 -5 0  0.7000000000000002 -5 0  0.7999999999999998 -5 0  0.9000000000000004 -5 0  1 -5 0  1.1 -5 0  1.2 -5 0  1.3 -5 0  1.4 -5 0  1.5 -5 0  1.6 -5 0  1.7 -5 0  1.8 -5 0  1.9 -5 0  2 -5 0  2.1 -5 0  2.2 -5 0  2.3 -5 0  2.4 -5 0  2.5 -5 0  2.6 -5 0  2.7 -5 0  2.8 -5 0  2.9 -5 0  3 -5 0  3.1 -5 0  3.199999999999999 -5 0  3.300000000000001 -5 0  3.4 -5 0  3.5 -5 0  3.6 -5 0  3.699999999999999 -5 0  3.800000000000001 -5 0  3.9 -5 0  4 -5 0  4.1 -5 0  4.199999999999999 -5 0  4.300000000000001 -5 0  4.4 -5 0  4.5 -5 0  4.6 -5 0  4.699999999999999 -5 0  4.800000000000001 -5 0  4.9 -5 0  5 -4.9 0  5 -4.8 0  5 -4.7 0  5 -4.6 0  5 -4.5 0  5 -4.4 0  5 -4.3 0  5 -4.2 0  5 -4.1 0  5 -4 0  5 -3.9 0  5 -3.8 0  5 -3.7 0  5 -3.6 0  5 -3.5 0  5 -3.4 0  5 -3.3 0  5 -3.2 0  5 -3.1 0  5 -3 0  5 -2.9 0  5 -2.8 0  5 -2.7 0  5 -2.6 0  5 -2.5 0  5 -2.4 0  5 -2.3 0  5 -2.2 0  5 -2.1 0  5 -2 0  5 -1.9 0  5 -1.8 0  5 -1.7 0  5 -1.6 0  5 -1.5 0  5 -1.4 0  5 -1.3 0  5 -1.2 0  5 -1.1 0  5 -1 0  5 -0.9000000000000004 0  5 -0.7999999999999998 0  5 -0.7000000000000002 0  5 -0.5999999999999996 0  5 -0.5 0  5 -0.4000000000000004 0  5 -0.2999999999999998 0  5 -0.2000000000000002 0  5 -0.09999999999999964 0  5 0 0  5 0.09999999999999964 0  5 0.2000000000000002 0  5 0.2999999999999998 0  5 0.4000000000000004 0  5 0.5 0  5 0.5999999999999996 0  5 0.7000000000000002 0  5 0.7999999999999998 0  5 0.9000000000000004 0  5 1 0  5 1.1 0  5 1.2 0  5 1.3 0  5 1.4 0  5 1.5 0  5 1.6 0  5 1.7 0  5 1.8 0  5 1.9 0  5 2 0  5 2.1 0  5 2.2 0  5 2.3 0  5 2.4 0  5 2.5 0  5 2.6 0  5 2.7 0  5 2.8 0  5 2.9 0  5 3 0  5 3.1 0  5 3.199999999999999 0  5 3.300000000000001 0  5 3.4 0  5 3.5 0  5 3.6 0  5 3.699999999999999 0  5 3.800000000000001 0  5 3.9 0  5 4 0  5 4.1 0  5 4.199999999999999 0  5 4.300000000000001 0  5 4.4 0  5 4.5 0  5 4.6 0  5 4.699999999999999 0  5 4.800000000000001 0  5 4.9 0  4.9 5 0  4.8 5 0  4.7 5 0  4.6 5 0  4.5 5 0  4.4 5 0  4.3 5 0  4.2 5 0  4.1 5 0  4 5 0  3.9 5 0  3.8 5 0  3.7 5 0  3.6 5 0  3.5 5 0  3.4 5 0  3.3 5 0  3.2 5 0  3.1 5 0  3 5 0  2.9 5 0  2.8 5 0  2.7 5 0  2.6 5 0  2.5 5 0  2.4 5 0  2.3 5 0  2.2 5 0  2.1 5 0  2 5 0  1.9 5 0  1.8 5 0  1.7 5 0  1.6 5 0  1.5 5 0  1.4 5 0  1.3 5 0  1.2 5 0  1.1 5 0  1 5 0  0.9000000000000004 5 0  0.7999999999999998 5 0  0.7000000000000002 5 0  0.5999999999999996 5 0  0.5 5 0  0.4000000000000004 5 0  0.2999999999999998 5 0  0.2000000000000002 5 0  0.09999999999999964 5 0  0 5 0  -0.09999999999999964 5 0  -0.2000000000000002 5 0  -0.2999999999999998 5 0  -0.4000000000000004 5 0  -0.5 5 0  -0.5999999999999996 5 0  -0.7000000000000002 5 0  -0.7999999999999998 5 0  -0.9000000000000004 5 0  -1 5 0  -1.1 5 0  -1.2 5 0  -1.3 5 0  -1.4 5 0  -1.5 5 0  -1.6 5 0  -1.7 5 0  -1.8 5 0  -1.9 5 0  -2 5 0  -2.1 5 0  -2.2 5 0  -2.3 5 0  -2.4 5 0  -2.5 5 0  -2.6 5 0  -2.7 5 0  -2.8 5 0  -2.9 5 0  -3 5 0  -3.1 5 0  -3.199999999999999 5 0  -3.300000000000001 5 0  -3.4 5 0  -3.5 5 0  -3.6 5 0  -3.699999999999999 5 0  -3.800000000000001 5 0  -3.9 5 0  -4 5 0  -4.1 5 0  -4.199999999999999 5 0  -4.300000000000001 5 0  -4.4 5 0  -4.5 5 0  -4.6 5 0  -4.699999999999999 5 0  -4.800000000000001 5 0  -4.9 5 0  -5 4.9 0  -5 4.8 0  -5 4.7 0  -5 4.6 0  -5 4.5 0  -5 4.4 0  -5 4.3 0  -5 4.2 0  -5 4.1 0  -5 4 0  -5 3.9 0  -5 3.8 0  -5 3.7 0  -5 3.6 0  -5 3.5 0  -5 3.4 0  -5 3.3 0  -5 3.2 0  -5 3.1 0  -5 3 0  -5 2.9 0  -5 2.8 0  -5 2.7 0  -5 2.6 0  -5 2.5 0  -5 2.4 0  -5 2.3 0  -5 2.2 0  -5 2.1 0  -5 2 0  -5 1.9 0  -5 1.8 0  -5 1.7 0  -5 1.6 0  -5 1.5 0  -5 1.4 0  -5 1.3 0  -5 1.2 0  -5 1.1 0  -5 1 0  -5 0.9000000000000004 0  -5 0.7999999999999998 0  -5 0.7000000000000002 0  -5 0.5999999999999996 0  -5 0.5 0  -5 0.4000000000000004 0  -5 0.2999999999999998 0  -5 0.2000000000000002 0  -5 0.09999999999999964 0  -5 0 0  -5 -0.09999999999999964 0  -5 -0.2000000000000002 0  -5 -0.2999999999999998 0  -5 -0.4000000000000004 0  -5 -0.5 0  -5 -0.5999999999999996 0  -5 -0.7000000000000002 0  -5 -0.7999999999999998 0  -5 -0.9000000000000004 0  -5 -1 0  -5 -1.1 0  -5 -1.2 0  -5 -1.3 0  -5 -1.4 0  -5 -1.5 0  -5 -1.6 0  -5 -1.7 0  -5 -1.8 0  -5 -1.9 0  -5 -2 0  -5 -2.1 0  -5 -2.2 0  -5 -2.3 0  -5 -2.4 0  -5 -2.5 0  -5 -2.6 0  -5 -2.7 0  -5 -2.8 0  -5 -2.9 0  -5 -3 0  -5 -3.1 0  -5 -3.199999999999999 0  -5 -3.300000000000001 0  -5 -3.4 0  -5 -3.5 0  -5 -3.6 0  -5 -3.699999999999999 0  -5 -3.800000000000001 0  -5 -3.9 0  -5 -4 0  -5 -4.1 0  -5 -4.199999999999999 0  -5 -4.300000000000001 0  -5 -4.4 0  -5 -4.5 0  -5 -4.6 0  -5 -4.699999999999999 0  -5 -4.800000000000001 0  -5 -4.9 0  2.330121094554334 0.2477393382783467 0  1.95471870748291 0.3723155438750745 0  2.281987900156818 0.679299128139901 0  1.776933172771146 0.6841755734219817 0  1.796542754135093 0.9321967385720956 0  1.54045973682791 1.017534604072625 0  1.395024201777231 1.252077842785185 0  1.186594266778558 1.088990615755901 0  1.144771997578371 1.312726027959392 0  0.9579697699917955 1.452726400530406 0  0.7866047748426527 1.468376567802326 0  0.6527993241331915 1.509528193204313 0  0.467048319072679 1.592576984087911 0  0.2991387514071162 1.62333762477964 0  0.1347158412052653 1.654984924610027 0  -0.02532400484330949 1.648894420952807 0  -0.2333100607095174 1.618112648164802 0  -0.3960428311898718 1.613862824254572 0  -0.5518856871357263 1.567497582625099 0  -0.711014869743519 1.493191519613216 0  -0.8831417541257073 1.456080581749542 0  -1.048371286439809 1.342757417766919 0  -1.195482832477453 1.238688685353249 0  -1.413864803947859 1.283146861762507 0  -1.287447892242411 0.9213520034687868 0  -1.591552590365948 1.035328066240035 0  -1.898774457103902 0.9072291798691359 0  -1.842495140296155 0.6737841081147939 0  -2.106511455088204 0.566855041297513 0  -2.180544048580841 0.3062122064458959 0  -2.250274016978195 0.06286717781908438 0  -1.905841578017648 -0.1346164857459698 0  -2.426186216583516 -0.4097508607437493 0  -1.976725808397227 -0.4459007095069634 0  -1.874088833004402 -0.6615277009467161 0  -1.909545393541204 -0.9445619221606618 0  -1.519950431554768 -0.8543905969388971 0  -1.549067523115798 -1.05524537645198 0  -1.375557740671781 -1.224161615761065 0  -1.17338694265428 -1.238195955339071 0  -1.038321473614595 -1.366901793076646 0  -0.8762072283844732 -1.484971968979504 0  -0.7056908840603282 -1.52112542232187 0  -0.5444206179409847 -1.563711798184399 0  -0.3845255978029095 -1.6269181414582 0  -0.2131476726850097 -1.633961278832953 0  -0.04915310399780826 -1.652655968730788 0  0.1426623781721131 -1.649298361898958 0  0.2936758593382083 -1.640158789571791 0  0.4749110244119399 -1.606937019671476 0  0.6372675486937369 -1.544042487053229 0  0.7793815082409857 -1.435682019159411 0  0.9536379937798567 -1.449390464580562 0  1.126045846684487 -1.335716904801938 0  1.301375085030535 -1.278480802626919 0  1.418161865025645 -1.115806222586592 0  1.532152833870688 -0.9793946327240922 0  1.782294908071368 -0.9379099202096607 0  1.886998346033393 -0.768386464167264 0  1.930629492364753 -0.5605841600604978 0  2.221961148729899 -0.444876180239582 0  2.189425132407631 -0.1873693741155806 0  -2.449839817786581 4.920160994198396 0  -2.44979737098173 -4.912709862137541 0  4.911328898714804 2.448380231329216 0  4.919354106496272 -2.449706209330052 0  2.447718476315194 -4.898289884316161 0  2.442126827234315 4.902043901025969 0  -4.911366432339731 -2.448395118971699 0  -4.911412704109342 2.44839983825814 0  -1.750086241947638 4.914231310203298 0  -1.745779938322313 -4.917507984440797 0  4.921068614138417 1.744065191245094 0  4.909617445037299 -1.747968902614157 0  -4.909980707457452 -1.747665972989571 0  -4.910840716831888 1.747407604462608 0  1.747481296309868 4.908300569285066 0  1.74904367952508 -4.896801297756049 0  -1.150218871522569 4.913002692228253 0  -1.130935410401725 -4.92044121529779 0  -4.909072256572213 -1.14770214279917 0  -4.90891500342059 1.147491736810206 0  1.145109193107662 -4.916822871369665 0  1.150228974802491 4.912958094360928 0  4.909192344677761 1.145964028358789 0  4.919998360935542 -1.151655866173014 0  -0.5474121242637168 -4.914673691931956 0  -0.5471287722355787 4.922997366002879 0  -4.907128888158295 -0.548468925778215 0  -4.907166374544077 0.547004220493214 0  4.906320709316332 -0.548796511557094 0  4.918131993606226 0.5454863245772582 0  0.5433350063784845 -4.902207836849266 0  0.551886718825604 4.919983218056714 0  -4.912798197614974 -3.048880436440668 0  4.919316892603359 3.046831068345548 0  4.912297069495229 -3.048852609836672 0  -4.913673078424446 3.045960503311744 0  3.056242786512819 -4.918812335747368 0  -3.049627688190415 -4.912773720458468 0  3.053186548976436 4.914888452796511 0  -3.049111173184464 4.913727307955155 0  -4.905958401051285 -0.04988842024921558 0  0.04519114700710603 -4.916727385261882 0  0.04963015368498048 4.923450118025003 0  4.913018355306276 -0.05129085895961831 0  3.546249384728222 -4.919956398960839 0  -3.549614247787768 4.91299653286235 0  -3.54957777540099 -4.913009021773828 0  4
[...]
<PointData  Scalars="f_26"> 
<DataArray  type="Float64"  Name="f_26"  format="ascii">0.0000000000000000e+00  0.0000000000000000e+00  0.0000000000000000e+00  0.0000000000000000e+00  9.3363014706675980e+00  0.0000000000000000e+00  0.0000000000000000e+00  0.0000000000000000e+00  0.0000000000000000e+00  0.0000000000000000e+00  0.0000000000000000e+00  0.0000000000000000e+00  0.0000000000000000e+00  0.0000000000000000e+00  0.0000000000000000e+00  0.0000000000000000e+00  0.0000000000000000e+00  0.0000000000000000e+00  0.0000000000000000e+00  0.0000000000000000e+00  0.0000000000000000e+00  0.0000000000000000e+00  0.0000000000000000e+00  0.0000000000000000e+00  0.0000000000000000e+00  0.0000000000000000e+00  0.0000000000000000e+00  0.0000000000000000e+00  0.0000000000000000e+00  0.0000000000000000e+00  0.0000000000000000e+00  0.0000000000000000e+00  0.0000000000000000e+00  0.0000000000000000e+00  0.0000000000000000e+00  0.0000000000000000e+00  0.0000000000000000e+00  0.0000000000000000e+00  0.0000000000000000e+00  0.0000000000000000e+00  0.0000000000000000e+00  0.0000000000000000e+00  0.0000000000000000e+00  0.0000000000000000e+00  0.0000000000000000e+00  0.0000000000000000e+00  0.0000000000000000e+00  0.0000000000000000e+00  0.0000000000000000e+00  0.0000000000000000e+00  0.0000000000000000e+00  0.0000000000000000e+00  0.0000000000000000e+00  0.0000000000000000e+00  0.0000000000000000e+00  0.0000000000000000e+00  0.0000000000000000e+00  0.0000000000000000e+00  0.0000000000000000e+00  0.0000000000000000e+00  0.0000000000000000e+00  0.0000000000000000e+00  0.0000000000000000e+00  0.0000000000000000e+00  0.0000000000000000e+00  0.0000000000000000e+00  0.0000000000000000e+00  0.0000000000000000e+00  0.0000000000000000e+00  0.0000000000000000e+00  0.0000000000000000e+00  0.0000000000000000e+00  0.0000000000000000e+00  0.0000000000000000e+00  0.0000000000000000e+00  0.0000000000000000e+00  0.0000000000000000e+00  0.0000000000000000e+00  0.0000000000000000e+00  0.0000000000000000e+00  0.0000000000000000e+00  0.0000000000000000e+00  0.0000000000000000e+00  0.0000000000000000e+00  0.0000000000000000e+00  0.0000000000000000e+00  0.0000000000000000e+00  0.0000000000000000e+00  0.0000000000000000e+00  0.0000000000000000e+00  0.0000000000000000e+00  0.0000000000000000e+00  0.0000000000000000e+00  0.0000000000000000e+00  0.0000000000000000e+00  0.0000000000000000e+00  0.0000000000000000e+00  0.0000000000000000e+00  0.0000000000000000e+00  0.0000000000000000e+00  0.0000000000000000e+00  0.0000000000000000e+00  0.0000000000000000e+00  0.0000000000000000e+00  0.0000000000000000e+00  0.0000000000000000e+00  0.0000000000000000e+00  0.0000000000000000e+00  0.0000000000000000e+00  0.0000000000000000e+00  0.0000000000000000e+00  0.0000000000000000e+00  0.0000000000000000e+00  0.0000000000000000e+00  0.0000000000000000e+00  0.0000000000000000e+00  0.0000000000000000e+00  0.0000000000000000e+00  0.0000000000000000e+00  0.0000000000000000e+00  0.0000000000000000e+00  0.0000000000000000e+00  0.0000000000000000e+00  0.0000000000000000e+00  0.0000000000000000e+00  0.0000000000000000e+00  0.0000000000000000e+00  0.0000000000000000e+00  0.0000000000000000e+00  0.0000000000000000e+00  0.0000000000000000e+00  0.0000000000000000e+00  0.0000000000000000e+00  0.0000000000000000e+00  0.0000000000000000e+00  0.0000000000000000e+00  0.0000000000000000e+00  0.0000000000000000e+00  0.0000000000000000e+00  0.0000000000000000e+00  0.0000000000000000e+00  0.0000000000000000e+00  0.0000000000000000e+00  0.0000000000000000e+00  0.0000000000000000e+00  0.0000000000000000e+00  0.0000000000000000e+00  0.0000000000000000e+00  0.0000000000000000e+00  0.0000000000000000e+00  0.0000000000000000e+00  0.0000000000000000e+00  0.0000000000000000e+00  0.0000000000000000e+00  0.0000000000000000e+00  0.0000000000000000e+00  0.0000000000000000e+00  0.0000000000000000e+00  0.0000000000000000e+00  0.0000000000000000e+00  0.0000000000000000e+00  0.0000000000000000e+00  0.0000000000000000e+00  0.0000000000000000e+00  0.0000000000000000e+00  0.0000000000000000e+00  0.0000000000000000e+00  0.0000000000000000e+00  0.0000000000000000e+00  0.0000000000000000e+00  0.0000000000000000e+00  0.0000000000000000e+00  0.0000000000000000e+00  0.0000000000000000e+00  0.0000000000000000e+00  0.0000000000000000e+00  0.0000000000000000e+00  0.0000000000000000e+00  0.0000000000000000e+00  0.0000000000000000e+00  0.0000000000000000e+00  0.0000000000000000e+00  0.0000000000000000e+00  0.0000000000000000e+00  0.0000000000000000e+00  0.0000000000000000e+00  0.0000000000000000e+00  0.0000000000000000e+00  0.0000000000000000e+00  0.0000000000000000e+00  0.0000000000000000e+00  0.0000000000000000e+00  0.0000000000000000e+00  0.0000000000000000e+00  0.0000000000000000e+00  0.0000000000000000e+00  0.0000000000000000e+00  0.0000000000000000e+00  0.0000000000000000e+00  0.0000000000000000e+00  0.0000000000000000e+00  0.0000000000000000e+00  0.0000000000000000e+00  0.0000000000000000e+00  0.0000000000000000e+00  0.0000000000000000e+00  0.0000000000000000e+00  0.0000000000000000e+00  0.0000000000000000e+00  0.0000000000000000e+00  0.0000000000000000e+00  0.0000000000000000e+00  0.0000000000000000e+00  0.0000000000000000e+00  0.0000000000000000e+00  0.0000000000000000e+00  0.0000000000000000e+00  0.0000000000000000e+00  0.0000000000000000e+00  0.0000000000000000e+00  0.0000000000000000e+00  0.0000000000000000e+00  0.0000000000000000e+00  0.0000000000000000e+00  0.0000000000000000e+00  0.0000000000000000e+00  0.0000000000000000e+00  0.0000000000000000e+00  0.0000000000000000e+00  0.0000000000000000e+00  0.0000000000000000e+00  0.0000000000000000e+00  0.0000000000000000e+00  0.0000000000000000e+00  0.0000000000000000e+00  0.0000000000000000e+00  0.0000000000000000e+00  0.0000000000000000e+00  0.0000000000000000e+00  0.0000000000000000e+00  0.0000000000000000e+00  0.0000000000000000e+00  0.0000000000000000e+00  0.0000000000000000e+00  0.0000000000000000e+00  0.0000000000000000e+00  0.0000000000000000e+00  0.0000000000000000e+00  0.0000000000000000e+00  0.0000000000000000e+00  0.0000000000000000e+00  0.0000000000000000e+00  0.0000000000000000e+00  0.0000000000000000e+00  0.0000000000000000e+00  0.0000000000000000e+00  0.0000000000000000e+00  0.0000000000000000e+00  0.0000000000000000e+00  0.0000000000000000e+00  0.0000000000000000e+00  0.0000000000000000e+00  0.0000000000000000e+00  0.0000000000000000e+00  0.0000000000000000e+00  0.0000000000000000e+00  0.0000000000000000e+00  0.0000000000000000e+00  0.0000000000000000e+00  0.0000000000000000e+00  0.0000000000000000e+00  0.0000000000000000e+00  0.0000000000000000e+00  0.0000000000000000e+00  0.0000000000000000e+00  0.0000000000000000e+00  0.0000000000000000e+00  0.0000000000000000e+00  0.0000000000000000e+00  0.0000000000000000e+00  0.0000000000000000e+00  0.0000000000000000e+00  0.0000000000000000e+00  0.0000000000000000e+00  0.0000000000000000e+00  0.0000000000000000e+00  0.0000000000000000e+00  0.0000000000000000e+00  0.0000000000000000e+00  0.0000000000000000e+00  0.0000000000000000e+00  0.0000000000000000e+00  0.0000000000000000e+00  0.0000000000000000e+00  0.0000000000000000e+00  0.0000000000000000e+00  0.0000000000000000e+00  0.0000000000000000e+00  0.0000000000000000e+00  0.0000000000000000e+00  0.0000000000000000e+00  0.0000000000000000e+00  0.0000000000000000e+00  0.0000000000000000e+00  0.0000000000000000e+00  0.0000000000000000e+00  0.0000000000000000e+00  0.0000000000000000e+00  0.0000000000000000e+00  0.0000000000000000e+00  0.0000000000000000e+00  0.0000000000000000e+00  0.0000000000000000e+00  0.0000000000000000e+00  0.0000000000000000e+00  0.0000000000000000e+00  0.0000000000000000e+00  0.0000000000000000e+00  0.0000000000000000e+00  0.0000000000000000e+00  0.0000000000000000e+00  0.0000000000000000e+00  0.0000000000000000e+00  0.0000000000000000e+00  0.0000000000000000e+00  0.0000000000000000e+00  0.0000000000000000e+00  0.0000000000000000e+00  0.0000000000000000e+00  0.0000000000000000e+00  0.0000000000000000e+00  0.0000000000000000e+00  0.0000000000000000e+00  0.0000000000000000e+00  0.0000000000000000e+00  0.0000000000000000e+00  0.0000000000000000e+00  0.0000000000000000e+00  0.0000000000000000e+00  0.0000000000000000e+00  0.0000000000000000e+00  0.0000000000000000e+00  0.0000000000000000e+00  0.0000000000000000e+00  0.0000000000000000e+00  0.0000000000000000e+00  0.0000000000000000e+00  0.0000000000000000e+00  0.0000000000000000e+00  0.0000000000000000e+00  0.0000000000000000e+00  0.0000000000000000e+00  0.0000000000000000e+00  0.0000000000000000e+00  0.0000000000000000e+00  0.0000000000000000e+00  0.0000000000000000e+00  0.0000000000000000e+00  0.0000000000000000e+00  0.0000000000000000e+00  0.0000000000000000e+00  0.0000000000000000e+00  0.0000000000000000e+00  0.0000000000000000e+00  0.0000000000000000e+00  0.0000000000000000e+00  0.0000000000000000e+00  0.0000000000000000e+00  0.0000000000000000e+00  0.0000000000000000e+00  0.0000000000000000e+00  0.0000000000000000e+00  0.0000000000000000e+00  0.0000000000000000e+00  0.0000000000000000e+00  0.0000000000000000e+00  0.0000000000000000e+00  0.0000000000000000e+00  0.0000000000000000e+00  0.0000000000000000e+00  0.0000000000000000e+00  0.0000000000000000e+00  0.0000000000000000e+00  0.0000000000000000e+00  0.0000000000000000e+00  0.0000000000000000e+00  0.0000000000000000e+00  0.0000000000000000e+00  0.0000000000000000e+00  0.0000000000000000e+00  0.0000000000000000e+00  0.0000000000000000e+00  0.0000000000000000e+00  0.0000000000000000e+00  0.0000000000000000e+00  0.0000000000000000e+00  0.0000000000000000e+00  0.0000000000000000e+00  0.0000000000000000e+00  0.0000000000000000e+00  0.0000000000000000e+00  1.3923478896388300e+01  8.9009472316835616e+00  1.4104494419832060e+01  5.0948324980356068e+00  3.4106511296503363e+00  -1.0514715678965048e+00  -3.2413970776171745e+00  -7.8326432551587812e+00  -1.1684089849768942e+01  -1.4260409578448913e+01  -1.6389287253213130e+01  -1.8138024347606013e+01  -1.9830615674063164e+01  -2.0848249043857198e+01  -2.1349902473155023e+01  -2.1497562347371151e+01  -2.1241304624804126e+01  -2.0421606867705972e+01  -1.9351828058092735e+01  -1.7746931951996899e+01  -1.5688054533535890e+01  -1.3290734101952978e+01  -1.0362701709353862e+01  -8.4040031947951395e+00  -6.4480806330711582e+00  6.5503740226478568e-01  4.1342526979142615e+00  4.0089194875765140e+00  7.7906492197898967e+00  9.0376190605748086e+00  1.0221975635923387e+01  6.2670568776720783e+00  1.3239988130758279e+01  6.9234880317364320e+00  4.2334972753525939e+00  5.5823080055691667e+00  -2.1633778653163422e+00  -4.2906262583138322e+00  -6.8888957631866230e+00  -1.0172157693262323e+01  -1.3104577218271718e+01  -1.5161798543849930e+01  -1.7003638609668762e+01  -1.8561925892934045e+01  -1.9543653283299665e+01  -2.0304311453776137e+01  -2.0459651566890511e+01  -2.0159971281246822e+01  -1.9500420647188434e+01  -1.8279197346582386e+01  -1.6796793608830292e+01  -1.4694920491659603e+01  -1.1926294014441694e+01  -9.2341010947203959e+00  -6.2318360215958126e+00  -3.5464643858567357e+00  1.3882982460994772e-01  5.1292677767040198e+00  6.8049222742827755e+00  8.4819738604485675e+00  1.2874067518640862e+01  1.2363216973833001e+01  -4.0713133353781883e-01  -4.1034843707367374e-01  1.5277383858356702e-01  2.5036168566456646e-01  -3.6889657876847831e-01  -5.0346129215846014e-01  1.4261629470735793e-01  1.3434203683949508e-01  -6.8846923598259002e-01  -6.1679671588896101e-01  3.0423648942152187e-01  4.6754054737520034e-01  3.1273059512281737e-01  3.0644261116807803e-01  -7.4101630421215381e-01  -6.6730557636213406e-01  -9.0119669932720614e-01  -7.6687295546471979e-01  4.6998959800453649e-01  4.7093385635770207e-01  -7.3732772940288249e-01  -9.0472672491665951e-01  5.2945082689727929e-01  5.4926159316795364e-01  -9.3815123635443665e-01  -9.2168557615476676e-01  5.9908165807893632e-01  6.0023781948650090e-01  7.4838137748657907e-01  6.0915036175464221e-01  -1.0383264593925534e+00  -9.5936703369451481e-01  4.1450578658602966e-02  3.7534515240674159e-02  1.4735272329670707e-01  3.1328316497191304e-02  -1.3395462108744421e-01  -2.3417535722897373e-01  -2.4957702545458940e-01  -2.5309663283082401e-01  6.4719661247903615e-01  -9.4007677040570337e-01  -9.5589340812557022e-01  7.1205867403364642e-01  -4.8999476227098653e-02  -1.4010567950008698e-01  -1.2480652732178496e-01  -9.0652158650682130e-03  -4.6695466200728647e-03  7.3269330559968163e-02  -1.4138420066724302e-02  -1.3651764923075591e-01  3.7625513135427585e-02  -7.4196057073693922e-02  -1.1582758600615540e-02  -1.9565570657503556e-02  -7.1427091770877332e-02  -2.5287932821628022e-02  -7.4717365334314070e-02  -2.7287329997122564e-02  5.7574731085428066e-03  -3.3656409064325009e-02  -2.5949898533327926e-02  -2.3523167302437850e-02  1.6691686076356363e-02  -1.8894216972449786e-02  -2.4004525447653864e-02  -3.7219636062905403e-02  6.3867361674556655e-01  -9.8049505766204026e-01  -1.0003422781673594e+00  6.5295105061840042e-01  -1.0146593508799773e+00  3.9234974157649100e-01  5.4587249950489813e-01  5.4687233219403697e-01  3.9493397328136004e-01  -5.9168903865978084e-01  -1.1323832638305855e+00  -8.3918389427058993e-01  -8.0915707047989394e-01  4.2255103849751646e-01  7.0023086249262412e-01  5.5449824491611277e-01  5.5353695573618655e-01  -8.0556200391885902e-01  -1.0006642845071299e+00  -7.4876914811222772e-01  -6.8829703930125896e-01  -5.7469316257815228e-01  2.3498268735599248e-01  2.2617243787320160e-01  -4.9448834704936956e-01  -4.5088029731783830e-01  2.3683436511321876e-01  3.8170904195346778e-01  2.0595165658569162e-01  -3.3392262685017698e-01  -3.5687703766470252e-01  7.5765174603065547e-02  -3.9009817448623224e-01  8.5998477814019453e-02  8.5935206346456544e-02  -1.9597830068295738e-01  -1.1952346520740545e-02  5.5200283085096186e-03  -1.3874118988328727e-02  -1.7931122866234873e-02  7.3954839013182115e-03  -1.4258027252909576e-02  -1.4854910586757780e-02  -1.3446645802972303e-02  6.3796859366822800e-01  -1.0296582469144016e+00  -1.2637047859176702e+00  6.8403819088411788e-01  -5.1645881067307953e-01  2.0212839477522498e-01  3.2697407752724394e-01  -5.3831884722227807e-01  1.8665071089770405e-01  -3.8361421191050288e-01  -5.5589797615984937e-01  1.7799420789291182e-01  1.1291911525238331e-01  -2.1212005351697735e-01  -2.3114622320758360e-01  1.9119198798159584e-02  1.5271451355607441e-02  -1.0700861902476259e-01  -2.0110032265743644e-01  8.7978841880074383e-03  5.3881471812616114e-02  2.5807279584818377e-02  -9.3941074660914656e-02  -5.0026302298636936e-02  -2.5917158674610724e-02  -5.5769568685175264e-04  -1.4325734593386543e-02  -2.0963240584242818e-02  -1.0547646150338583e-01  -6.5213900592192092e-02  -2.0119438710995013e-02  -2.6183236519290859e-02  -2.3420178397350222e-02  -2.7483286640485747e-02  -1.0879721261470260e-01  -5.4552000816429053e-02  -6.0562532089233770e-03  -6.6020606427273200e-03  2.8318167423646216e-03  -7.3901372875678920e-03  6.4404168672049766e-01  1.2792244287163950e+00  1.2641694348893160e+00  1.8991337712118777e+00  1.8722678745660999e+00  2.4976962409550811e+00  2.4571746893046780e+00  3.0690852029243625e+00  3.0113190090622912e+00  3.6070808816577533e+00  3.5294502187259114e+00  4.1059164650610089e+00  4.0060410379550611e+00  4.5598830594215150e+00  4.4355370075710905e+00  4.9634678131494141e+00  4.8120030202402022e+00  5.3111024847678738e+00  5.1319267134202304e+00  5.5973798057069990e+00  5.3889595722351658e+00  5.7844562912620834e+00  5.8185635730353082e+00  5.5787444282663543e+00  5.9701117725463071e+00  5.6985017578192112e+00  6.0480050953376088e+00  5.7437533793520066e+00  6.0486460794014958e+00  5.7118229651595005e+00  5.9696434960354097e+00  5.6006977431429137e+00  6.3182184894370694e+00  5.8086232897766781e+00  5.4087562941001019e+00  5.5661268029667745e+00  5.1358058251583110e+00  5.2423498984552843e+00  4.7815066006015190e+00  4.8360282231536260e+00  4.3476393811075917e+00  4.3492371040598528e+00  3.8349462186442098e+00  4.8561133671837426e+00  3.7840619409806662e+00  3.2459107258003956e+00  3.1432406253988203e+00  2.5832609912758135e+00  2.7151574770016831e+00  2.0333619103705503e+00  1.8517114662479548e+00  1.2856202753576527e+00  1.4926493725754899e+00  7.3670250742451482e-01  9.6739266007367597e-01  2.0897737206582409e-01  -7.6374915266528953e-02  -6.0331225507695163e-01  -2.9252636065916671e-01  -1.1000162645361200e+00  -7.6541567976715241e-01  -1.5638027538682981e+00  -1.9521258555447858e+00  -2.4024327928253686e+00  -1.9924770667316827e+00  -2.8138153642314303e+00  -3.2751084913786688e+00  -3.6648398844730163e+00  -3.1849601320646710e+00  -4.0109996381257886e+00  -4.5390371597695971e+00  -4.8559467142290185e+00  -5.4294676982156087e+00  -3.5150187953889831e+00  -5.7130417543587386e+00  -6.3291049053990420e+00  -6.5753813782625326e+00  -7.2307098773764560e+00  -7.4359798002349802e+00  -8.1269619820104033e+00  -8.2878491874418696e+00  -9.0108294500268737e+00  -7.5881961887889862e+00  -9.1240581458817207e+00  -9.8750712614658482e+00  -9.9378371500567315e+00  -1.0712769572830354e+01  -1.0722668229845022e+01  -1.1517324327678645e+01  -1.1472302073549136e+01  -1.2282412882445346e+01  -1.2180915196056414e+01  -1.3002247527822778e+01  -1.2843085353375422e+01  -1.3671394813324392e+01  -1.1369475530229028e+01  -7.9095743715648359e+00  -3.3547986663246601e+00  -1.3453851133695897e+01  -1.4285083858249978e+01  -1.4008968283990498e+01  -1.4839066576352490e+01  -1.1940564496150314e+01  -1.4504602204841841e+01  -1.5329733341932448e+01  -1.7884502349692561e+01  -1.4937603129380816e+01  -1.5754126319789799e+01  -1.6145979600499700e+01  -1.6558509094319813e+01  -1.6109965769618409e+01  -1.6899178116961043e+01  -1.2322272503911641e+01  -1.4114659839097369e+01  -1.6395661536118425e+01  -1.7166683518585334e+01  -1.7667055214350878e+01  -1.7913243395033895e+01  -1.7360228934424395e+01  -1.8083006929826404e+01  -1.8629282025616948e+01  -1.8772242668877890e+01  -1.8176707692619551e+01  -1.8837058873364253e+01  -1.9421925628669307e+01  -1.9455156464655847e+01  -1.8825171248961841e+01  -1.9410152325134462e+01  -2.0026725753296951e+01  -1.9945455743447887e+01  -1.9289579754705382e+01  -1.9787647451242563e+01  -2.0423196494240887e+01  -2.0227220888669951e+01  -1.9557216489479874e+01  -1.9958475162027636e+01  -2.0602780030104494e+01  -2.0294368115914949e+01  -2.0909044060608078e+01  -2.0559801684903984e+01  -1.9917185695296979e+01  -2.0142555125617221e+01  -2.0749911173159219e+01  -2.0292180995529101e+01  -1.9662602841459407e+01  -1.9773199660391501e+01  -2.0361930199763808e+01  -1.9804173569422908e+01  -2.0348026260680061e+01  -1.9752198913733796e+01  -2.0247258306777827e+01  -1.9614522012803942e+01  -1.9105473939659021e+01  -1.8933631779762237e+01  -1.9389002364537863e+01  -1.8675912641030123e+01  -1.9074157769497170e+01  -1.8331353501385816e+01  -1.8669257799679457e+01  -1.7899746628980886e+01  -1.8174442452645327e+01  -1.7381724184876013e+01  -1.7099097518894446e+01  -1.6561756738677154e+01  -1.6778846175439785e+01  -1.5943996545700314e+01  -1.6093835613818769e+01  -1.5248347684685513e+01  -1.5329750702486171e+01  -1.4478772056855373e+01  -1.4491573877931518e+01  -1.3639990374600549e+01  -1.3584151064756329e+01  -1.2738260940774868e+01  -1.2613732161764091e+01  -1.1779670707861184e+01  -1.1588889202305461e+01  -1.0771961188224354e+01  -1.0518659746587165e+01  -9.7233762730817741e+00  -9.4092575193268484e+00  -8.6422153885368314e+00  -8.2702341052554793e+00  -7.5374725542002867e+00  -7.1137356759133024e+00  -6.4191276336981824e+00  -5.9487907986602515e+00  -6.8192938210433693e+00  -5.7406849615321649e+00  -6.1200952310474017e+00  -5.0835298722116269e+00  -5.4444400454563278e+00  -4.4520314538262102e+00  -4.7970405875060136e+00  -3.8501886127688012e+00  -4.1812643990658866e+00  -3.2813903068962329e+00  -2.9133917361668233e+00  -3.5999116385479213e+00  -1.4392289591360528e+01  -2.3946292909172566e+00  -1.9943052160133283e+00  -1.5282560537907717e+00  -1.