<?xml version="1.0"?>
<VTKFile type="UnstructuredGrid"  version="0.1"  >
<UnstructuredGrid>
<Piece  NumberOfPoints="11902" NumberOfCells="23402">
<Points>
<DataArray  type="Float64"  NumberOfComponents="3"  format="ascii">-5 -5 0  5 -5 0  5 5 0  -5 5 0  1.907984088823227 0.01432030428866366 0  -4.9 -5 0  -4.8 -5 0  -4.7 -5 0  -4.6 -5 0  -4.5 -5 0  -4.4 -5 0  -4.3 -5 0  -4.2 -5 0  -4.1 -5 0  -4 -5 0  -3.9 -5 0  -3.8 -5 0  -3.7 -5 0  -3.6 -5 0  -3.5 -5 0  -3.4 -5 0  -3.3 -5 0  -3.2 -5 0  -3.1 -5 0  -3 -5 0  -2.9 -5 0  -2.8 -5 0  -2.7 -5 0  -2.6 -5 0  -2.5 -5 0  -2.4 -5 0  -2.3 -5 0  -2.2 -5 0  -2.1 -5 0  -2 -5 0  -1.9 -5 0  -1.8 -5 0  -1.7 -5 0  -1.6 -5 0  -1.5 -5 0  -1.4 -5 0  -1.3 -5 0  -1.2 -5 0  -1.1 -5 0  -1 -5 0  -0.9000000000000004 -5 0  -0.7999999999999998 -5 0  -0.7000000000000002 -5 0  -0.5999999999999996 -5 0  -0.5 -5 0  -0.4000000000000004 -5 0  -0.2999999999999998 -5 0  -0.2000000000000002 -5 0  -0.09999999999999964 -5 0  0 -5 0  0.09999999999999964 -5 0  0.2000000000000002 -5 0  0.2999999999999998 -5 0  0.4000000000000004 -5 0  0.5 -5 0  0.5999999999999996 -5 0  0.7000000000000002 -5 0  0.7999999999999998 -5 0  0.9000000000000004 -5 0  1 -5 0  1.1 -5 0  1.2 -5 0  1.3 -5 0  1.4 -5 0  1.5 -5 0  1.6 -5 0  1.7 -5 0  1.8 -5 0  1.9 -5 0  2 -5 0  2.1 -5 0  2.2 -5 0  2.3 -5 0  2.4 -5 0  2.5 -5 0  2.6 -5 0  2.7 -5 0  2.8 -5 0  2.9 -5 0  3 -5 0  3.1 -5 0  3.199999999999999 -5 0  3.300000000000001 -5 0  3.4 -5 0  3.5 -5 0  3.6 -5 0  3.699999999999999 -5 0  3.800000000000001 -5 0  3.9 -5 0  4 -5 0  4.1 -5 0  4.199999999999999 -5 0  4.300000000000001 -5 0  4.4 -5 0  4.5 -5 0  4.6 -5 0  4.699999999999999 -5 0  4.800000000000001 -5 0  4.9 -5 0  5 -4.9 0  5 -4.8 0  5 -4.7 0  5 -4.6 0  5 -4.5 0  5 -4.4 0  5 -4.3 0  5 -4.2 0  5 -4.1 0  5 -4 0  5 -3.9 0  5 -3.8 0  5 -3.7 0  5 -3.6 0  5 -3.5 0  5 -3.4 0  5 -3.3 0  5 -3.2 0  5 -3.1 0  5 -3 0  5 -2.9 0  5 -2.8 0  5 -2.7 0  5 -2.6 0  5 -2.5 0  5 -2.4 0  5 -2.3 0  5 -2.2 0  5 -2.1 0  5 -2 0  5 -1.9 0  5 -1.8 0  5 -1.7 0  5 -1.6 0  5 -1.5 0  5 -1.4 0  5 -1.3 0  5 -1.2 0  5 -1.1 0  5 -1 0  5 -0.9000000000000004 0  5 -0.7999999999999998 0  5 -0.7000000000000002 0  5 -0.5999999999999996 0  5 -0.5 0  5 -0.4000000000000004 0  5 -0.2999999999999998 0  5 -0.2000000000000002 0  5 -0.09999999999999964 0  5 0 0  5 0.09999999999999964 0  5 0.2000000000000002 0  5 0.2999999999999998 0  5 0.4000000000000004 0  5 0.5 0  5 0.5999999999999996 0  5 0.7000000000000002 0  5 0.7999999999999998 0  5 0.9000000000000004 0  5 1 0  5 1.1 0  5 1.2 0  5 1.3 0  5 1.4 0  5 1.5 0  5 1.6 0  5 1.7 0  5 1.8 0  5 1.9 0  5 2 0  5 2.1 0  5 2.2 0  5 2.3 0  5 2.4 0  5 2.5 0  5 2.6 0  5 2.7 0  5 2.8 0  5 2.9 0  5 3 0  5 3.1 0  5 3.199999999999999 0  5 3.300000000000001 0  5 3.4 0  5 3.5 0  5 3.6 0  5 3.699999999999999 0  5 3.800000000000001 0  5 3.9 0  5 4 0  5 4.1 0  5 4.199999999999999 0  5 4.300000000000001 0  5 4.4 0  5 4.5 0  5 4.6 0  5 4.699999999999999 0  5 4.800000000000001 0  5 4.9 0  4.9 5 0  4.8 5 0  4.7 5 0  4.6 5 0  4.5 5 0  4.4 5 0  4.3 5 0  4.2 5 0  4.1 5 0  4 5 0  3.9 5 0  3.8 5 0  3.7 5 0  3.6 5 0  3.5 5 0  3.4 5 0  3.3 5 0  3.2 5 0  3.1 5 0  3 5 0  2.9 5 0  2.8 5 0  2.7 5 0  2.6 5 0  2.5 5 0  2.4 5 0  2.3 5 0  2.2 5 0  2.1 5 0  2 5 0  1.9 5 0  1.8 5 0  1.7 5 0  1.6 5 0  1.5 5 0  1.4 5 0  1.3 5 0  1.2 5 0  1.1 5 0  1 5 0  0.9000000000000004 5 0  0.7999999999999998 5 0  0.7000000000000002 5 0  0.5999999999999996 5 0  0.5 5 0  0.4000000000000004 5 0  0.2999999999999998 5 0  0.2000000000000002 5 0  0.09999999999999964 5 0  0 5 0  -0.09999999999999964 5 0  -0.2000000000000002 5 0  -0.2999999999999998 5 0  -0.4000000000000004 5 0  -0.5 5 0  -0.5999999999999996 5 0  -0.7000000000000002 5 0  -0.7999999999999998 5 0  -0.9000000000000004 5 0  -1 5 0  -1.1 5 0  -1.2 5 0  -1.3 5 0  -1.4 5 0  -1.5 5 0  -1.6 5 0  -1.7 5 0  -1.8 5 0  -1.9 5 0  -2 5 0  -2.1 5 0  -2.2 5 0  -2.3 5 0  -2.4 5 0  -2.5 5 0  -2.6 5 0  -2.7 5 0  -2.8 5 0  -2.9 5 0  -3 5 0  -3.1 5 0  -3.199999999999999 5 0  -3.300000000000001 5 0  -3.4 5 0  -3.5 5 0  -3.6 5 0  -3.699999999999999 5 0  -3.800000000000001 5 0  -3.9 5 0  -4 5 0  -4.1 5 0  -4.199999999999999 5 0  -4.300000000000001 5 0  -4.4 5 0  -4.5 5 0  -4.6 5 0  -4.699999999999999 5 0  -4.800000000000001 5 0  -4.9 5 0  -5 4.9 0  -5 4.8 0  -5 4.7 0  -5 4.6 0  -5 4.5 0  -5 4.4 0  -5 4.3 0  -5 4.2 0  -5 4.1 0  -5 4 0  -5 3.9 0  -5 3.8 0  -5 3.7 0  -5 3.6 0  -5 3.5 0  -5 3.4 0  -5 3.3 0  -5 3.2 0  -5 3.1 0  -5 3 0  -5 2.9 0  -5 2.8 0  -5 2.7 0  -5 2.6 0  -5 2.5 0  -5 2.4 0  -5 2.3 0  -5 2.2 0  -5 2.1 0  -5 2 0  -5 1.9 0  -5 1.8 0  -5 1.7 0  -5 1.6 0  -5 1.5 0  -5 1.4 0  -5 1.3 0  -5 1.2 0  -5 1.1 0  -5 1 0  -5 0.9000000000000004 0  -5 0.7999999999999998 0  -5 0.7000000000000002 0  -5 0.5999999999999996 0  -5 0.5 0  -5 0.4000000000000004 0  -5 0.2999999999999998 0  -5 0.2000000000000002 0  -5 0.09999999999999964 0  -5 0 0  -5 -0.09999999999999964 0  -5 -0.2000000000000002 0  -5 -0.2999999999999998 0  -5 -0.4000000000000004 0  -5 -0.5 0  -5 -0.5999999999999996 0  -5 -0.7000000000000002 0  -5 -0.7999999999999998 0  -5 -0.9000000000000004 0  -5 -1 0  -5 -1.1 0  -5 -1.2 0  -5 -1.3 0  -5 -1.4 0  -5 -1.5 0  -5 -1.6 0  -5 -1.7 0  -5 -1.8 0  -5 -1.9 0  -5 -2 0  -5 -2.1 0  -5 -2.2 0  -5 -2.3 0  -5 -2.4 0  -5 -2.5 0  -5 -2.6 0  -5 -2.7 0  -5 -2.8 0  -5 -2.9 0  -5 -3 0  -5 -3.1 0  -5 -3.199999999999999 0  -5 -3.300000000000001 0  -5 -3.4 0  -5 -3.5 0  -5 -3.6 0  -5 -3.699999999999999 0  -5 -3.800000000000001 0  -5 -3.9 0  -5 -4 0  -5 -4.1 0  -5 -4.199999999999999 0  -5 -4.300000000000001 0  -5 -4.4 0  -5 -4.5 0  -5 -4.6 0  -5 -4.699999999999999 0  -5 -4.800000000000001 0  -5 -4.9 0  2.362244658999716 0.2635821746205021 0  1.936118994790816 0.3628377879997811 0  2.315371535531548 0.7003438244499209 0  1.760862838343395 0.6578181409687642 0  1.813780547250907 0.9168559857016914 0  1.525887514011129 0.9931304255440069 0  1.33757430148621 1.255368843660659 0  1.165533384865123 1.021372780017994 0  1.133988217824826 1.263030659544581 0  0.9479610095791552 1.419271915596274 0  0.7809394815455628 1.426666124242161 0  0.6476511679116821 1.463211272815326 0  0.462095813900119 1.550540623302715 0  0.2943379371886233 1.582003718834185 0  0.1326749486136729 1.611285760735581 0  -0.02468982243155816 1.606359399582527 0  -0.2302132851949095 1.577696246455272 0  -0.391272377529774 1.570895201560129 0  -0.5439219578128194 1.52546891099774 0  -0.7033191798489681 1.450246193906876 0  -0.8736944678764531 1.415104583739605 0  -1.042232132536424 1.301336407535663 0  -1.192219506148936 1.19353578724583 0  -1.367308405010265 1.25951826287105 0  -1.252306031803424 0.8591960611162377 0  -1.560220158508136 1.034564504674987 0  -1.920262033547628 0.9054413448303685 0  -1.815037076562406 0.6561915899676037 0  -2.129846021598193 0.5755444797728948 0  -2.191337665020453 0.3052945675956676 0  -2.285585861573816 0.06687529299951554 0  -1.856161144215248 -0.1238053748760828 0  -2.468202417961466 -0.4629399223617833 0  -1.974725376707244 -0.4248496150210574 0  -1.864312429843816 -0.6480340122314362 0  -1.906519337373206 -0.961736955138349 0  -1.504765936518564 -0.8124045451924742 0  -1.538453545916851 -0.9973818312025412 0  -1.368925681549069 -1.190926433870789 0  -1.156243493831101 -1.183225079499778 0  -1.021774757261772 -1.320742533261624 0  -0.8652942505744281 -1.449126988896826 0  -0.6960200922934391 -1.477154477340902 0  -0.5361989760820121 -1.517260488132611 0  -0.3787008629752406 -1.582382293477688 0  -0.2096810328727263 -1.59088092930748 0  -0.04660297796648686 -1.609462605814964 0  0.1416969473424 -1.606231942086775 0  0.2895756958877995 -1.597749011496662 0  0.4662419920800779 -1.5670098025151 0  0.6284175657948943 -1.502267379482163 0  0.7627249475384534 -1.368155893163968 0  0.9430734308830238 -1.408327155195758 0  1.110971766637306 -1.295558380025592 0  1.295519526994614 -1.246713537701054 0  1.392780654300362 -1.05960867478345 0  1.494217671659505 -0.904645490643207 0  1.798031876373502 -0.927395726668809 0  1.884085898906691 -0.7437805968683446 0  1.892330121653601 -0.5211247577466304 0  2.258201721765731 -0.445773671479491 0  2.207078023140508 -0.1842482297560585 0  -2.449907068579263 4.920197223353191 0  -2.44986354483006 -4.912740104126849 0  4.911174576034279 2.448265741437472 0  4.919199791032993 -2.449588673824421 0  2.447796474255722 -4.89831554847319 0  2.442220751622808 4.902070394005717 0  -4.911217064989586 -2.448286131651214 0  -4.911263049282669 2.448288854974334 0  -1.750190138367305 4.914347731578449 0  -1.745878584892651 -4.917614472442912 0  4.920813081179412 1.743919825716864 0  4.909304281836046 -1.747811211340253 0  -4.909698688531468 -1.74751611723684 0  -4.910558430250022 1.74725750049993 0  1.747615082988307 4.908423442216054 0  1.749175030071163 -4.896919484243123 0  -1.150318051093095 4.913205560188675 0  -1.131028393056229 -4.920592298513275 0  -4.908658683724703 -1.147556336649422 0  -4.90849588812616 1.147345897839979 0  1.145200383554904 -4.916991580715045 0  1.150331293107775 4.913148190273382 0  4.908767790785702 1.145809985664094 0  4.919607683007785 -1.151514447549752 0  -0.5474626149862279 -4.914908494475021 0  -0.5471766851824752 4.923222532547535 0  -4.906600262298102 -0.548379031994065 0  -4.906634304786561 0.5469166133825472 0  4.905756705116007 -0.548711891856615 0  4.91764976546387 0.5453942502008644 0  0.5434162661888243 -4.902464526221754 0  0.5519378023892239 4.920217183658825 0  -4.912725021327549 -3.048814006850795 0  4.919247813509445 3.046764144891878 0  4.912210879666008 -3.048772576626293 0  -4.913600554754421 3.045892861693685 0  3.056262027075952 -4.918796976523864 0  -3.049661015628374 -4.912776825282793 0  3.053218646826549 4.914886290650347 0  -3.049140574628205 4.913723843822284 0  -4.905384491352323 -0.04987773418539667 0  0.04520396791237205 -4.91697452118098 0  0.04963539375671192 4.923687627638106 0  4.912467343724594 -0.0512913272014944 0  3.54624925985297 -4.919939825996492 0  -3.549622766036917 4.912985499909278 0  -3.549586147854151 -4.912997934718795 0  4
[...]
<PointData  Scalars="f_26"> 
<DataArray  type="Float64"  Name="f_26"  format="ascii">0.0000000000000000e+00  0.0000000000000000e+00  0.0000000000000000e+00  0.0000000000000000e+00  7.1351387695556028e+01  0.0000000000000000e+00  0.0000000000000000e+00  0.0000000000000000e+00  0.0000000000000000e+00  0.0000000000000000e+00  0.0000000000000000e+00  0.0000000000000000e+00  0.0000000000000000e+00  0.0000000000000000e+00  0.0000000000000000e+00  0.0000000000000000e+00  0.0000000000000000e+00  0.0000000000000000e+00  0.0000000000000000e+00  0.0000000000000000e+00  0.0000000000000000e+00  0.0000000000000000e+00  0.0000000000000000e+00  0.0000000000000000e+00  0.0000000000000000e+00  0.0000000000000000e+00  0.0000000000000000e+00  0.0000000000000000e+00  0.0000000000000000e+00  0.0000000000000000e+00  0.0000000000000000e+00  0.0000000000000000e+00  0.0000000000000000e+00  0.0000000000000000e+00  0.0000000000000000e+00  0.0000000000000000e+00  0.0000000000000000e+00  0.0000000000000000e+00  0.0000000000000000e+00  0.0000000000000000e+00  0.0000000000000000e+00  0.0000000000000000e+00  0.0000000000000000e+00  0.0000000000000000e+00  0.0000000000000000e+00  0.0000000000000000e+00  0.0000000000000000e+00  0.0000000000000000e+00  0.0000000000000000e+00  0.0000000000000000e+00  0.0000000000000000e+00  0.0000000000000000e+00  0.0000000000000000e+00  0.0000000000000000e+00  0.0000000000000000e+00  0.0000000000000000e+00  0.0000000000000000e+00  0.0000000000000000e+00  0.0000000000000000e+00  0.0000000000000000e+00  0.0000000000000000e+00  0.0000000000000000e+00  0.0000000000000000e+00  0.0000000000000000e+00  0.0000000000000000e+00  0.0000000000000000e+00  0.0000000000000000e+00  0.0000000000000000e+00  0.0000000000000000e+00  0.0000000000000000e+00  0.0000000000000000e+00  0.0000000000000000e+00  0.0000000000000000e+00  0.0000000000000000e+00  0.0000000000000000e+00  0.0000000000000000e+00  0.0000000000000000e+00  0.0000000000000000e+00  0.0000000000000000e+00  0.0000000000000000e+00  0.0000000000000000e+00  0.0000000000000000e+00  0.0000000000000000e+00  0.0000000000000000e+00  0.0000000000000000e+00  0.0000000000000000e+00  0.0000000000000000e+00  0.0000000000000000e+00  0.0000000000000000e+00  0.0000000000000000e+00  0.0000000000000000e+00  0.0000000000000000e+00  0.0000000000000000e+00  0.0000000000000000e+00  0.0000000000000000e+00  0.0000000000000000e+00  0.0000000000000000e+00  0.0000000000000000e+00  0.0000000000000000e+00  0.0000000000000000e+00  0.0000000000000000e+00  0.0000000000000000e+00  0.0000000000000000e+00  0.0000000000000000e+00  0.0000000000000000e+00  0.0000000000000000e+00  0.0000000000000000e+00  0.0000000000000000e+00  0.0000000000000000e+00  0.0000000000000000e+00  0.0000000000000000e+00  0.0000000000000000e+00  0.0000000000000000e+00  0.0000000000000000e+00  0.0000000000000000e+00  0.0000000000000000e+00  0.0000000000000000e+00  0.0000000000000000e+00  0.0000000000000000e+00  0.0000000000000000e+00  0.0000000000000000e+00  0.0000000000000000e+00  0.0000000000000000e+00  0.0000000000000000e+00  0.0000000000000000e+00  0.0000000000000000e+00  0.0000000000000000e+00  0.0000000000000000e+00  0.0000000000000000e+00  0.0000000000000000e+00  0.0000000000000000e+00  0.0000000000000000e+00  0.0000000000000000e+00  0.0000000000000000e+00  0.0000000000000000e+00  0.0000000000000000e+00  0.0000000000000000e+00  0.0000000000000000e+00  0.0000000000000000e+00  0.0000000000000000e+00  0.0000000000000000e+00  0.0000000000000000e+00  0.0000000000000000e+00  0.0000000000000000e+00  0.0000000000000000e+00  0.0000000000000000e+00  0.0000000000000000e+00  0.0000000000000000e+00  0.0000000000000000e+00  0.0000000000000000e+00  0.0000000000000000e+00  0.0000000000000000e+00  0.0000000000000000e+00  0.0000000000000000e+00  0.0000000000000000e+00  0.0000000000000000e+00  0.0000000000000000e+00  0.0000000000000000e+00  0.0000000000000000e+00  0.0000000000000000e+00  0.0000000000000000e+00  0.0000000000000000e+00  0.0000000000000000e+00  0.0000000000000000e+00  0.0000000000000000e+00  0.0000000000000000e+00  0.0000000000000000e+00  0.0000000000000000e+00  0.0000000000000000e+00  0.0000000000000000e+00  0.0000000000000000e+00  0.0000000000000000e+00  0.0000000000000000e+00  0.0000000000000000e+00  0.0000000000000000e+00  0.0000000000000000e+00  0.0000000000000000e+00  0.0000000000000000e+00  0.0000000000000000e+00  0.0000000000000000e+00  0.0000000000000000e+00  0.0000000000000000e+00  0.0000000000000000e+00  0.0000000000000000e+00  0.0000000000000000e+00  0.0000000000000000e+00  0.0000000000000000e+00  0.0000000000000000e+00  0.0000000000000000e+00  0.0000000000000000e+00  0.0000000000000000e+00  0.0000000000000000e+00  0.0000000000000000e+00  0.0000000000000000e+00  0.0000000000000000e+00  0.0000000000000000e+00  0.0000000000000000e+00  0.0000000000000000e+00  0.0000000000000000e+00  0.0000000000000000e+00  0.0000000000000000e+00  0.0000000000000000e+00  0.0000000000000000e+00  0.0000000000000000e+00  0.0000000000000000e+00  0.0000000000000000e+00  0.0000000000000000e+00  0.0000000000000000e+00  0.0000000000000000e+00  0.0000000000000000e+00  0.0000000000000000e+00  0.0000000000000000e+00  0.0000000000000000e+00  0.0000000000000000e+00  0.0000000000000000e+00  0.0000000000000000e+00  0.0000000000000000e+00  0.0000000000000000e+00  0.0000000000000000e+00  0.0000000000000000e+00  0.0000000000000000e+00  0.0000000000000000e+00  0.0000000000000000e+00  0.0000000000000000e+00  0.0000000000000000e+00  0.0000000000000000e+00  0.0000000000000000e+00  0.0000000000000000e+00  0.0000000000000000e+00  0.0000000000000000e+00  0.0000000000000000e+00  0.0000000000000000e+00  0.0000000000000000e+00  0.0000000000000000e+00  0.0000000000000000e+00  0.0000000000000000e+00  0.0000000000000000e+00  0.0000000000000000e+00  0.0000000000000000e+00  0.0000000000000000e+00  0.0000000000000000e+00  0.0000000000000000e+00  0.0000000000000000e+00  0.0000000000000000e+00  0.0000000000000000e+00  0.0000000000000000e+00  0.0000000000000000e+00  0.0000000000000000e+00  0.0000000000000000e+00  0.0000000000000000e+00  0.0000000000000000e+00  0.0000000000000000e+00  0.0000000000000000e+00  0.0000000000000000e+00  0.0000000000000000e+00  0.0000000000000000e+00  0.0000000000000000e+00  0.0000000000000000e+00  0.0000000000000000e+00  0.0000000000000000e+00  0.0000000000000000e+00  0.0000000000000000e+00  0.0000000000000000e+00  0.0000000000000000e+00  0.0000000000000000e+00  0.0000000000000000e+00  0.0000000000000000e+00  0.0000000000000000e+00  0.0000000000000000e+00  0.0000000000000000e+00  0.0000000000000000e+00  0.0000000000000000e+00  0.0000000000000000e+00  0.0000000000000000e+00  0.0000000000000000e+00  0.0000000000000000e+00  0.0000000000000000e+00  0.0000000000000000e+00  0.0000000000000000e+00  0.0000000000000000e+00  0.0000000000000000e+00  0.0000000000000000e+00  0.0000000000000000e+00  0.0000000000000000e+00  0.0000000000000000e+00  0.0000000000000000e+00  0.0000000000000000e+00  0.0000000000000000e+00  0.0000000000000000e+00  0.0000000000000000e+00  0.0000000000000000e+00  0.0000000000000000e+00  0.0000000000000000e+00  0.0000000000000000e+00  0.0000000000000000e+00  0.0000000000000000e+00  0.0000000000000000e+00  0.0000000000000000e+00  0.0000000000000000e+00  0.0000000000000000e+00  0.0000000000000000e+00  0.0000000000000000e+00  0.0000000000000000e+00  0.0000000000000000e+00  0.0000000000000000e+00  0.0000000000000000e+00  0.0000000000000000e+00  0.0000000000000000e+00  0.0000000000000000e+00  0.0000000000000000e+00  0.0000000000000000e+00  0.0000000000000000e+00  0.0000000000000000e+00  0.0000000000000000e+00  0.0000000000000000e+00  0.0000000000000000e+00  0.0000000000000000e+00  0.0000000000000000e+00  0.0000000000000000e+00  0.0000000000000000e+00  0.0000000000000000e+00  0.0000000000000000e+00  0.0000000000000000e+00  0.0000000000000000e+00  0.0000000000000000e+00  0.0000000000000000e+00  0.0000000000000000e+00  0.0000000000000000e+00  0.0000000000000000e+00  0.0000000000000000e+00  0.0000000000000000e+00  0.0000000000000000e+00  0.0000000000000000e+00  0.0000000000000000e+00  0.0000000000000000e+00  0.0000000000000000e+00  0.0000000000000000e+00  0.0000000000000000e+00  0.0000000000000000e+00  0.0000000000000000e+00  0.0000000000000000e+00  0.0000000000000000e+00  0.0000000000000000e+00  0.0000000000000000e+00  0.0000000000000000e+00  0.0000000000000000e+00  0.0000000000000000e+00  0.0000000000000000e+00  0.0000000000000000e+00  0.0000000000000000e+00  0.0000000000000000e+00  0.0000000000000000e+00  0.0000000000000000e+00  0.0000000000000000e+00  0.0000000000000000e+00  0.0000000000000000e+00  0.0000000000000000e+00  0.0000000000000000e+00  0.0000000000000000e+00  0.0000000000000000e+00  0.0000000000000000e+00  0.0000000000000000e+00  0.0000000000000000e+00  0.0000000000000000e+00  0.0000000000000000e+00  0.0000000000000000e+00  0.0000000000000000e+00  0.0000000000000000e+00  0.0000000000000000e+00  0.0000000000000000e+00  0.0000000000000000e+00  0.0000000000000000e+00  0.0000000000000000e+00  0.0000000000000000e+00  0.0000000000000000e+00  0.0000000000000000e+00  0.0000000000000000e+00  0.0000000000000000e+00  0.0000000000000000e+00  0.0000000000000000e+00  0.0000000000000000e+00  0.0000000000000000e+00  0.0000000000000000e+00  0.0000000000000000e+00  0.0000000000000000e+00  0.0000000000000000e+00  0.0000000000000000e+00  0.0000000000000000e+00  0.0000000000000000e+00  0.0000000000000000e+00  0.0000000000000000e+00  0.0000000000000000e+00  0.0000000000000000e+00  0.0000000000000000e+00  0.0000000000000000e+00  0.0000000000000000e+00  0.0000000000000000e+00  0.0000000000000000e+00  0.0000000000000000e+00  0.0000000000000000e+00  0.0000000000000000e+00  7.6976311842381435e+01  7.1972708354446510e+01  7.7288570520093586e+01  6.9002141155404985e+01  6.7963606413934642e+01  6.3795116307680061e+01  6.1443766077461156e+01  5.7127312093697945e+01  5.3148255993074692e+01  5.0947905056790617e+01  4.9433503797888264e+01  4.7896542323623784e+01  4.6269616176957264e+01  4.5439374180202691e+01  4.5045890649857974e+01  4.5025857068392874e+01  4.5269819760926971e+01  4.5737166597066981e+01  4.6547249390460337e+01  4.7927606876222498e+01  4.9518935113069524e+01  5.1530280706915121e+01  5.4091049433775453e+01  5.4177241780829000e+01  5.9166690746514071e+01  6.5197572425952913e+01  6.8849870470130440e+01  6.7725281839159521e+01  7.1563139559625313e+01  7.2387009492341036e+01  7.3554789227788035e+01  6.8669958775335047e+01  7.6308363851981468e+01  7.0178167127156655e+01  6.7215452076610561e+01  6.7896856521615561e+01  6.1964924807386652e+01  5.9101147122813963e+01  5.6304600973121381e+01  5.3156967504904507e+01  4.9690122967572549e+01  4.7890090234982807e+01  4.6417073613071004e+01  4.5000356133878014e+01  4.4058291588856541e+01  4.3479527690328666e+01  4.3352692947277220e+01  4.3605655401320632e+01  4.4045481021369945e+01  4.4942351300148012e+01  4.6206375596802864e+01  4.8576244989686018e+01  5.1012494840916389e+01  5.3330296377986144e+01  5.5739943020945987e+01  5.8181454774074339e+01  6.2414456463840949e+01  6.7743560936640961e+01  6.8835206451352335e+01  7.0397967756735355e+01  7.5609337669724084e+01  7.4872505962868189e+01  7.3632331696488984e-01  7.5540579193091351e-01  1.3259137996097632e+00  1.2239018430667303e+00  9.4768973391479827e-01  9.0623987587941546e-01  1.2670946744498730e+00  1.3105481248391593e+00  8.1466005273571473e-01  7.3062937051875942e-01  1.5292542766860147e+00  1.7697259155728071e+00  1.6733014247055764e+00  1.7011928731387413e+00  8.7200102182620465e-01  9.7599680004877720e-01  8.0998383061715296e-01  6.8878866435171204e-01  1.9817944733968671e+00  2.0207748246595032e+00  7.5748758079574074e-01  8.1084483323531831e-01  2.0526436838411328e+00  1.8216162848259589e+00  7.2165969805429508e-01  6.9751492078256727e-01  2.2307185407487502e+00  2.2496143997072537e+00  2.3338012999938447e+00  2.0320590178973528e+00  8.4949248484392192e-01  7.2488429788209108e-01  9.2435377311909372e-01  8.9879354219751673e-01  9.9271433140826837e-01  9.5408801507432694e-01  6.7944657577095313e-01  6.7894400477149230e-01  7.0341644968650585e-01  7.1101861731098248e-01  2.3311498771368275e+00  7.0504107124148718e-01  6.8611485653563686e-01  2.2226269865033057e+00  5.5626388655888648e-01  5.9111017697743473e-01  5.5951707528526340e-01  6.4769645498677464e-01  6.6879486488497464e-01  6.9831918788877156e-01  6.8737381906774020e-01  5.8006070016072775e-01  4.9571019032674063e-01  4.8223760437574881e-01  4.6519941997534264e-01  4.7386295113255739e-01  4.2184786781872824e-01  4.9920515074622784e-01  4.4795881351572864e-01  4.9005099144459652e-01  3.5156509953728576e-01  2.6994050918704215e-01  2.3562371355822637e-01  3.0463778252301804e-01  3.0554406340818330e-01  2.8478068823084507e-01  2.9545412436953716e-01  3.0569953309115433e-01  2.3210622957168021e+00  7.3188442475642268e-01  7.2662657954238818e-01  2.0871034110821829e+00  8.2614659660328382e-01  1.8325434550426960e+00  2.1603984343094189e+00  2.1406676004132041e+00  1.8924513610969087e+00  7.1417707807685837e-01  9.2061185374183474e-01  7.5843124629555003e-01  8.2291893982996911e-01  1.8351979948333870e+00  2.2320814509276126e+00  1.9718661593442666e+00  1.9430122761683974e+00  8.2163028895684109e-01  8.2131525194895361e-01  7.6521371345294731e-01  9.6724461560812169e-01  8.1303891997016875e-01  1.5018984115235843e+00  1.5229174846355613e+00  6.9372093172512528e-01  8.2296299592259281e-01  1.4421727068026453e+00  1.5891420736896451e+00  1.1672179570855890e+00  7.6483647539129984e-01  7.9542110731097282e-01  1.1249526197353747e+00  8.7418398884153303e-01  1.0953632473389769e+00  1.0974781244059253e+00  6.8609529873880004e-01  1.5344681166616117e-01  1.6210985228117081e-01  1.5551620210252748e-01  1.7104227627790844e-01  1.6597789894388557e-01  1.5894403415099112e-01  1.5978857366908697e-01  1.3251996160541285e-01  2.3118500030641784e+00  8.0546152665859416e-01  9.2607185623938748e-01  2.1220217068001674e+00  8.1882462045963555e-01  1.4458820257851341e+00  1.4674588305792062e+00  8.6031795563665325e-01  1.3840119048464072e+00  8.2481990127294313e-01  8.8136758055252795e-01  1.4123937196427749e+00  8.6744383324276753e-01  7.3294162859709500e-01  7.6720982966967233e-01  8.2279576529909004e-01  8.1576753124088142e-01  7.1384173594276501e-01  6.6374260783323258e-01  8.4803915538090024e-01  6.0251997854346662e-01  4.0208629318550876e-01  5.0468094691926912e-01  3.8584517838794963e-01  4.9619944083237699e-01  3.8948214060975578e-01  5.6994185821356858e-01  3.8026678100247896e-01  5.2661285857579065e-01  4.5189789681259157e-01  5.9998882048066038e-01  4.0103863632481218e-01  5.9629230639314446e-01  3.9385531531466494e-01  5.5254161913945743e-01  3.9069254540498038e-01  7.2563887305660615e-02  6.9396960968852880e-02  7.0859149609187683e-02  7.4936297667659690e-02  2.3240248368686318e+00  4.6353325129387528e+00  4.6058195776274777e+00  6.9254795870479278e+00  6.8736051642933367e+00  9.1871809695783710e+00  9.1112582274380003e+00  1.1413925824229022e+01  1.1305739468453105e+01  1.3597509392039901e+01  1.3451981922251960e+01  1.5731134212647005e+01  1.5543658805935712e+01  1.7807758581669585e+01  1.7573859736771727e+01  1.9820784004390358e+01  1.9533772997731432e+01  2.1762413323761731e+01  2.1422627343716528e+01  2.3623530766846827e+01  2.3227968492867785e+01  2.3984247319356420e+01  2.5406305299620136e+01  2.4944436995515549e+01  2.7099550861046172e+01  2.6570619456860243e+01  2.8691305384917243e+01  2.8095576739892671e+01  3.0182043734503136e+01  2.9515933613378142e+01  3.1563509834434441e+01  3.0827110473170187e+01  3.2261040526680929e+01  3.2830032193241777e+01  3.2024483737279546e+01  3.3986630507517965e+01  3.3106933855219971e+01  3.5028485077070521e+01  3.4069727038296733e+01  3.5944750110209448e+01  3.4914943386121337e+01  3.6738194668604692e+01  3.5637834197044384e+01  3.7813633188254265e+01  3.7408258131267921e+01  3.6239583377314176e+01  3.7955520847127616e+01  3.6718826952225328e+01  3.5046323039902845e+01  3.5467965046112312e+01  3.7080988975572623e+01  3.5779034472772899e+01  3.4218397210303209e+01  3.4478605880713879e+01  3.2973833525465395e+01  3.3184431039610068e+01  3.4627185867543801e+01  3.3290362820812902e+01  3.1898854997263296e+01  3.1966943671573954e+01  3.0624976907675983e+01  3.0659407912503745e+01  3.1939697590189787e+01  3.0602730685928528e+01  2.9369806322238599e+01  2.9287089978350551e+01  3.0459696840856509e+01  2.9122342921217491e+01  2.7993910562593761e+01  2.7810227943973139e+01  2.8880745665036262e+01  2.7553930404921051e+01  2.8568017700692799e+01  2.6724038351124182e+01  2.7230532455165005e+01  2.8189814366911236e+01  2.6845777472660270e+01  2.7752436707253125e+01  2.6405614972016345e+01  2.7262107529353464e+01  2.5916105032608087e+01  2.6724854454568511e+01  2.5091719601300518e+01  2.5383234438777997e+01  2.6147193745977347e+01  2.4813048683172958e+01  2.5535313968034256e+01  2.4211530595824925e+01  2.4895265490654872e+01  2.3584371468226678e+01  2.4232980102124952e+01  2.2937169076472255e+01  2.3553927209639394e+01  2.2275108740978656e+01  2.2863485303000498e+01  2.2309322231727723e+01  2.8643810865859916e+01  5.8431161366438467e+01  2.1603053831771778e+01  2.2166513452850587e+01  2.0925765203084648e+01  2.1467509314870483e+01  4.9951027193738149e+01  2.0247324731823046e+01  2.0770563450064778e+01  4.4718015301830619e+01  1.9571490073279548e+01  2.0079302542451323e+01  2.1291741570797242e+01  2.0586822373328189e+01  1.9396836688136144e+01  1.9893576635634378e+01  2.5567628975933520e+01  1.9061362872462247e+01  1.8725990773230851e+01  1.9214656817468519e+01  2.0394171076627600e+01  1.9708690041998945e+01  1.8551837444421061e+01  1.9041738200971754e+01  2.0210766391701419e+01  1.9541336538965044e+01  1.8394444663135641e+01  1.8893684674021543e+01  2.0053238290791032e+01  1.9406672450244116e+01  1.8268234944010906e+01  1.8783692308468737e+01  1.9937339818832637e+01  1.9317682466650574e+01  1.8184529333594192e+01  1.8722486082348116e+01  1.9870530172619759e+01  1.9281188413963179e+01  1.8151736862880043e+01  1.8716935129537564e+01  1.9862937181641755e+01  1.9305796983887785e+01  2.0470067041900194e+01  1.9920314347962435e+01  1.8771759054757101e+01  1.9393493501923352e+01  2.0562316311565532e+01  2.0042635697482105e+01  1.8887489974655409e+01  1.9543129698534241e+01  2.0720608191977252e+01  2.0226924722998241e+01  2.1428450657788876e+01  2.0939623763563898e+01  2.2166987698413266e+01  2.1681717081799562e+01  2.0466162422209671e+01  2.1210314666643466e+01  2.2453307373988455e+01  2.1982042668740277e+01  2.3253991137332470e+01  2.2780584005205139e+01  2.4082900228566110e+01  2.3604636005896083e+01  2.4938554533994175e+01  2.4452333580576433e+01  2.3131210506063724e+01  2.3968720952686120e+01  2.5321274559499592e+01  2.4824345928860780e+01  2.6207473378172494e+01  2.5693585223244906e+01  2.7108386397742656e+01  2.6572659063168118e+01  2.8021364030361678e+01  2.7456837872682964e+01  2.8936555682474868e+01  2.8341092574420870e+01  2.9847997790787666e+01  2.9218010048455852e+01  3.0751816749389135e+01  3.0081601855286991e+01  3.1645926044745966e+01  3.0925638890087313e+01  3.2511853854695275e+01  3.1740918947865811e+01  3.3337444148095045e+01  3.2517901536013113e+01  3.4127491557407104e+01  3.3251148984145892e+01  3.4869820097968194e+01  3.1680983498725563e+01  3.2357523294222702e+01  3.0826275001334739e+01  3.1445153756005336e+01  2.9952719451231438e+01  3.0513929029902723e+01  2.9059231719163119e+01  2.9562948050778189e+01  2.8145420190395868e+01  2.8591987030775396e+01  3.0003712336769457e+01  2.7211546257675288e+01  2.5172107471928669e+01  2.8973454142891999e+01  3.0375037177202255e+01  2.9284264370428321e+01  3.0670843452039843e+01  2.9517896203859515e+01  3.0885201557046248e+01  2.9668725028552419e+01  3.1012653121088587e+01  2.9732557090133490e+01  2.8435422973428949e+01  3.1048408168251875e+01  2.8437087317571365e+01  2.7186597417461201e+01  2.7127401158883142e+01  2.5923635561233816e