<?xml version="1.0"?>
<VTKFile type="UnstructuredGrid"  version="0.1"  >
<UnstructuredGrid>
<Piece  NumberOfPoints="11902" NumberOfCells="23402">
<Points>
<DataArray  type="Float64"  NumberOfComponents="3"  format="ascii">-5 -5 0  5 -5 0  5 5 0  -5 5 0  1.250128045077056 -0.001246726320250458 0  -4.9 -5 0  -4.8 -5 0  -4.7 -5 0  -4.6 -5 0  -4.5 -5 0  -4.4 -5 0  -4.3 -5 0  -4.2 -5 0  -4.1 -5 0  -4 -5 0  -3.9 -5 0  -3.8 -5 0  -3.7 -5 0  -3.6 -5 0  -3.5 -5 0  -3.4 -5 0  -3.3 -5 0  -3.2 -5 0  -3.1 -5 0  -3 -5 0  -2.9 -5 0  -2.8 -5 0  -2.7 -5 0  -2.6 -5 0  -2.5 -5 0  -2.4 -5 0  -2.3 -5 0  -2.2 -5 0  -2.1 -5 0  -2 -5 0  -1.9 -5 0  -1.8 -5 0  -1.7 -5 0  -1.6 -5 0  -1.5 -5 0  -1.4 -5 0  -1.3 -5 0  -1.2 -5 0  -1.1 -5 0  -1 -5 0  -0.9000000000000004 -5 0  -0.7999999999999998 -5 0  -0.7000000000000002 -5 0  -0.5999999999999996 -5 0  -0.5 -5 0  -0.4000000000000004 -5 0  -0.2999999999999998 -5 0  -0.2000000000000002 -5 0  -0.09999999999999964 -5 0  0 -5 0  0.09999999999999964 -5 0  0.2000000000000002 -5 0  0.2999999999999998 -5 0  0.4000000000000004 -5 0  0.5 -5 0  0.5999999999999996 -5 0  0.7000000000000002 -5 0  0.7999999999999998 -5 0  0.9000000000000004 -5 0  1 -5 0  1.1 -5 0  1.2 -5 0  1.3 -5 0  1.4 -5 0  1.5 -5 0  1.6 -5 0  1.7 -5 0  1.8 -5 0  1.9 -5 0  2 -5 0  2.1 -5 0  2.2 -5 0  2.3 -5 0  2.4 -5 0  2.5 -5 0  2.6 -5 0  2.7 -5 0  2.8 -5 0  2.9 -5 0  3 -5 0  3.1 -5 0  3.199999999999999 -5 0  3.300000000000001 -5 0  3.4 -5 0  3.5 -5 0  3.6 -5 0  3.699999999999999 -5 0  3.800000000000001 -5 0  3.9 -5 0  4 -5 0  4.1 -5 0  4.199999999999999 -5 0  4.300000000000001 -5 0  4.4 -5 0  4.5 -5 0  4.6 -5 0  4.699999999999999 -5 0  4.800000000000001 -5 0  4.9 -5 0  5 -4.9 0  5 -4.8 0  5 -4.7 0  5 -4.6 0  5 -4.5 0  5 -4.4 0  5 -4.3 0  5 -4.2 0  5 -4.1 0  5 -4 0  5 -3.9 0  5 -3.8 0  5 -3.7 0  5 -3.6 0  5 -3.5 0  5 -3.4 0  5 -3.3 0  5 -3.2 0  5 -3.1 0  5 -3 0  5 -2.9 0  5 -2.8 0  5 -2.7 0  5 -2.6 0  5 -2.5 0  5 -2.4 0  5 -2.3 0  5 -2.2 0  5 -2.1 0  5 -2 0  5 -1.9 0  5 -1.8 0  5 -1.7 0  5 -1.6 0  5 -1.5 0  5 -1.4 0  5 -1.3 0  5 -1.2 0  5 -1.1 0  5 -1 0  5 -0.9000000000000004 0  5 -0.7999999999999998 0  5 -0.7000000000000002 0  5 -0.5999999999999996 0  5 -0.5 0  5 -0.4000000000000004 0  5 -0.2999999999999998 0  5 -0.2000000000000002 0  5 -0.09999999999999964 0  5 0 0  5 0.09999999999999964 0  5 0.2000000000000002 0  5 0.2999999999999998 0  5 0.4000000000000004 0  5 0.5 0  5 0.5999999999999996 0  5 0.7000000000000002 0  5 0.7999999999999998 0  5 0.9000000000000004 0  5 1 0  5 1.1 0  5 1.2 0  5 1.3 0  5 1.4 0  5 1.5 0  5 1.6 0  5 1.7 0  5 1.8 0  5 1.9 0  5 2 0  5 2.1 0  5 2.2 0  5 2.3 0  5 2.4 0  5 2.5 0  5 2.6 0  5 2.7 0  5 2.8 0  5 2.9 0  5 3 0  5 3.1 0  5 3.199999999999999 0  5 3.300000000000001 0  5 3.4 0  5 3.5 0  5 3.6 0  5 3.699999999999999 0  5 3.800000000000001 0  5 3.9 0  5 4 0  5 4.1 0  5 4.199999999999999 0  5 4.300000000000001 0  5 4.4 0  5 4.5 0  5 4.6 0  5 4.699999999999999 0  5 4.800000000000001 0  5 4.9 0  4.9 5 0  4.8 5 0  4.7 5 0  4.6 5 0  4.5 5 0  4.4 5 0  4.3 5 0  4.2 5 0  4.1 5 0  4 5 0  3.9 5 0  3.8 5 0  3.7 5 0  3.6 5 0  3.5 5 0  3.4 5 0  3.3 5 0  3.2 5 0  3.1 5 0  3 5 0  2.9 5 0  2.8 5 0  2.7 5 0  2.6 5 0  2.5 5 0  2.4 5 0  2.3 5 0  2.2 5 0  2.1 5 0  2 5 0  1.9 5 0  1.8 5 0  1.7 5 0  1.6 5 0  1.5 5 0  1.4 5 0  1.3 5 0  1.2 5 0  1.1 5 0  1 5 0  0.9000000000000004 5 0  0.7999999999999998 5 0  0.7000000000000002 5 0  0.5999999999999996 5 0  0.5 5 0  0.4000000000000004 5 0  0.2999999999999998 5 0  0.2000000000000002 5 0  0.09999999999999964 5 0  0 5 0  -0.09999999999999964 5 0  -0.2000000000000002 5 0  -0.2999999999999998 5 0  -0.4000000000000004 5 0  -0.5 5 0  -0.5999999999999996 5 0  -0.7000000000000002 5 0  -0.7999999999999998 5 0  -0.9000000000000004 5 0  -1 5 0  -1.1 5 0  -1.2 5 0  -1.3 5 0  -1.4 5 0  -1.5 5 0  -1.6 5 0  -1.7 5 0  -1.8 5 0  -1.9 5 0  -2 5 0  -2.1 5 0  -2.2 5 0  -2.3 5 0  -2.4 5 0  -2.5 5 0  -2.6 5 0  -2.7 5 0  -2.8 5 0  -2.9 5 0  -3 5 0  -3.1 5 0  -3.199999999999999 5 0  -3.300000000000001 5 0  -3.4 5 0  -3.5 5 0  -3.6 5 0  -3.699999999999999 5 0  -3.800000000000001 5 0  -3.9 5 0  -4 5 0  -4.1 5 0  -4.199999999999999 5 0  -4.300000000000001 5 0  -4.4 5 0  -4.5 5 0  -4.6 5 0  -4.699999999999999 5 0  -4.800000000000001 5 0  -4.9 5 0  -5 4.9 0  -5 4.8 0  -5 4.7 0  -5 4.6 0  -5 4.5 0  -5 4.4 0  -5 4.3 0  -5 4.2 0  -5 4.1 0  -5 4 0  -5 3.9 0  -5 3.8 0  -5 3.7 0  -5 3.6 0  -5 3.5 0  -5 3.4 0  -5 3.3 0  -5 3.2 0  -5 3.1 0  -5 3 0  -5 2.9 0  -5 2.8 0  -5 2.7 0  -5 2.6 0  -5 2.5 0  -5 2.4 0  -5 2.3 0  -5 2.2 0  -5 2.1 0  -5 2 0  -5 1.9 0  -5 1.8 0  -5 1.7 0  -5 1.6 0  -5 1.5 0  -5 1.4 0  -5 1.3 0  -5 1.2 0  -5 1.1 0  -5 1 0  -5 0.9000000000000004 0  -5 0.7999999999999998 0  -5 0.7000000000000002 0  -5 0.5999999999999996 0  -5 0.5 0  -5 0.4000000000000004 0  -5 0.2999999999999998 0  -5 0.2000000000000002 0  -5 0.09999999999999964 0  -5 0 0  -5 -0.09999999999999964 0  -5 -0.2000000000000002 0  -5 -0.2999999999999998 0  -5 -0.4000000000000004 0  -5 -0.5 0  -5 -0.5999999999999996 0  -5 -0.7000000000000002 0  -5 -0.7999999999999998 0  -5 -0.9000000000000004 0  -5 -1 0  -5 -1.1 0  -5 -1.2 0  -5 -1.3 0  -5 -1.4 0  -5 -1.5 0  -5 -1.6 0  -5 -1.7 0  -5 -1.8 0  -5 -1.9 0  -5 -2 0  -5 -2.1 0  -5 -2.2 0  -5 -2.3 0  -5 -2.4 0  -5 -2.5 0  -5 -2.6 0  -5 -2.7 0  -5 -2.8 0  -5 -2.9 0  -5 -3 0  -5 -3.1 0  -5 -3.199999999999999 0  -5 -3.300000000000001 0  -5 -3.4 0  -5 -3.5 0  -5 -3.6 0  -5 -3.699999999999999 0  -5 -3.800000000000001 0  -5 -3.9 0  -5 -4 0  -5 -4.1 0  -5 -4.199999999999999 0  -5 -4.300000000000001 0  -5 -4.4 0  -5 -4.5 0  -5 -4.6 0  -5 -4.699999999999999 0  -5 -4.800000000000001 0  -5 -4.9 0  1.244123386950666 0.1200723816370361 0  1.224478554764686 0.2362125126893286 0  1.19327280134141 0.3496875021632496 0  1.147948350437415 0.4577363285364524 0  1.091888141069808 0.5621687758522877 0  1.025005572882233 0.6602854953598873 0  0.943978694971067 0.7574153179913874 0  0.8588301154235142 0.8374634395410983 0  0.7658109882617681 0.9122633773350232 0  0.6663412327840441 0.9775089677366509 0  0.5541825352948966 1.035546647214015 0  0.4473086464346142 1.079474416888732 0  0.3279343536212912 1.117063875472753 0  0.2096089939797926 1.141929300277801 0  0.09051902177036908 1.156527303224797 0  -0.03335720202088609 1.15906196627029 0  -0.1481104022704371 1.150330270121113 0  -0.2670845014964512 1.131509428243132 0  -0.3881091361936819 1.099858135623687 0  -0.5002526629819857 1.059409446304845 0  -0.6106068603478039 1.008671971264394 0  -0.715616464767296 0.946348294977839 0  -0.8112452716274714 0.8776871762701518 0  -0.9046486826608172 0.7966520932022735 0  -0.9847092398349143 0.7076279233573832 0  -1.057094231767567 0.6140719644590488 0  -1.11950908875493 0.5124530765054444 0  -1.170695376004301 0.4022155682727706 0  -1.209157360908147 0.2915067352763775 0  -1.234874793368519 0.1775907481428456 0  -1.248121617584742 0.0588761831717261 0  -1.248197346162171 -0.05790107141234451 0  -1.237264131803454 -0.1741781509197549 0  -1.209678716345806 -0.2941280014827188 0  -1.170289070798862 -0.4040628771124511 0  -1.118863632418896 -0.514123436702286 0  -1.057487041880575 -0.6122981871684062 0  -0.9850471978436437 -0.7089906904241794 0  -0.9019923268823823 -0.7985909570225932 0  -0.8121458905366146 -0.8769021896307085 0  -0.7160680628759211 -0.9466941196838344 0  -0.6111369928059112 -1.009197412547859 0  -0.5000805210856113 -1.060310870464326 0  -0.387088382468833 -1.100309512819601 0  -0.2692451002635775 -1.131448939362454 0  -0.151900100449448 -1.149461658838801 0  -0.03281795816823926 -1.158147386943128 0  0.09420566738120784 -1.155302586470868 0  0.2094647572412504 -1.142124399391244 0  0.3324361302525248 -1.116167052396407 0  0.443987339850953 -1.081393640880031 0  0.5585330199588088 -1.033926324260076 0  0.6615735738532529 -0.9815314396570695 0  0.7661498713663661 -0.9133684932700328 0  0.8602119529316482 -0.8383278427874994 0  0.9463651184577976 -0.7541325088523001 0  1.023340966518371 -0.6627066429239153 0  1.089743744936503 -0.566322636479287 0  1.146603782655278 -0.4604526066751837 0  1.193157296470851 -0.3455846155815308 0  1.224221642807298 -0.2367664360746386 0  1.244039274735244 -0.1165066529569864 0  -2.449999320644065 4.920479930732856 0  -2.44999523070759 -4.913055820999439 0  4.912871835253548 2.449818010401834 0  4.920769982937832 -2.45110328749278 0  2.447997663353457 -4.89874457185393 0  2.44238685949359 4.90238238878805 0  -4.912879392500423 -2.449826099383267 0  -4.912884634099026 2.449829781299072 0  -1.750031257315281 4.914391007505436 0  -1.745753382145611 -4.917687227043739 0  4.923559208948512 1.745748143765064 0  4.912506956669485 -1.749761391881248 0  -4.912767209816387 -1.749468961930913 0  -4.913568819529203 1.749192452354521 0  1.747435691637901 4.908492081226568 0  1.74902696637628 -4.897080686234371 0  -1.150044680132208 4.912902590012267 0  -1.130793299408475 -4.920408124205545 0  -4.913177876341718 -1.149408976817575 0  -4.913012023369003 1.149206061319375 0  1.144955660979965 -4.916805019973985 0  1.15004787551244 4.912876201231573 0  4.913347824712878 1.147693381056591 0  4.923691462928248 -1.153298697055232 0  -0.5473011633234885 -4.91441563225641 0  -0.5470158316254168 4.922708304970564 0  -4.912437876837513 -0.5495090379005927 0  -4.912465746538272 0.5480554691228788 0  4.911827691336907 -0.5498416770743885 0  4.922913530222988 0.5464850348056978 0  0.5431620535348562 -4.901939811407266 0  0.5517580263420371 4.919688631108599 0  -4.913582922825137 -3.049886943394194 0  4.920040311117327 3.047797802633365 0  4.913108013170212 -3.049886437022507 0  -4.914423261547653 3.046966208099803 0  3.056539541301069 -4.919109144056319 0  -3.049975624514105 -4.91318743605671 0  3.053512036142015 4.915221740032771 0  -3.049404877201973 4.914048179022785 0  -4.911739737078725 -0.04998787400666742 0  0.04516109228827973 -4.916405113954801 0  0.04961185957014951 4.923098191072405 0  4.918475307523421 -0.05136423781245276 0  3.546595445173625 -4.920271384066072 0  -3.54996481646022 4.913263729110702 0  -3
[...]
<PointData  Scalars="f_26"> 
<DataArray  type="Float64"  Name="f_26"  format="ascii">0.0000000000000000e+00  0.0000000000000000e+00  0.0000000000000000e+00  0.0000000000000000e+00  5.6720988668423615e+02  0.0000000000000000e+00  0.0000000000000000e+00  0.0000000000000000e+00  0.0000000000000000e+00  0.0000000000000000e+00  0.0000000000000000e+00  0.0000000000000000e+00  0.0000000000000000e+00  0.0000000000000000e+00  0.0000000000000000e+00  0.0000000000000000e+00  0.0000000000000000e+00  0.0000000000000000e+00  0.0000000000000000e+00  0.0000000000000000e+00  0.0000000000000000e+00  0.0000000000000000e+00  0.0000000000000000e+00  0.0000000000000000e+00  0.0000000000000000e+00  0.0000000000000000e+00  0.0000000000000000e+00  0.0000000000000000e+00  0.0000000000000000e+00  0.0000000000000000e+00  0.0000000000000000e+00  0.0000000000000000e+00  0.0000000000000000e+00  0.0000000000000000e+00  0.0000000000000000e+00  0.0000000000000000e+00  0.0000000000000000e+00  0.0000000000000000e+00  0.0000000000000000e+00  0.0000000000000000e+00  0.0000000000000000e+00  0.0000000000000000e+00  0.0000000000000000e+00  0.0000000000000000e+00  0.0000000000000000e+00  0.0000000000000000e+00  0.0000000000000000e+00  0.0000000000000000e+00  0.0000000000000000e+00  0.0000000000000000e+00  0.0000000000000000e+00  0.0000000000000000e+00  0.0000000000000000e+00  0.0000000000000000e+00  0.0000000000000000e+00  0.0000000000000000e+00  0.0000000000000000e+00  0.0000000000000000e+00  0.0000000000000000e+00  0.0000000000000000e+00  0.0000000000000000e+00  0.0000000000000000e+00  0.0000000000000000e+00  0.0000000000000000e+00  0.0000000000000000e+00  0.0000000000000000e+00  0.0000000000000000e+00  0.0000000000000000e+00  0.0000000000000000e+00  0.0000000000000000e+00  0.0000000000000000e+00  0.0000000000000000e+00  0.0000000000000000e+00  0.0000000000000000e+00  0.0000000000000000e+00  0.0000000000000000e+00  0.0000000000000000e+00  0.0000000000000000e+00  0.0000000000000000e+00  0.0000000000000000e+00  0.0000000000000000e+00  0.0000000000000000e+00  0.0000000000000000e+00  0.0000000000000000e+00  0.0000000000000000e+00  0.0000000000000000e+00  0.0000000000000000e+00  0.0000000000000000e+00  0.0000000000000000e+00  0.0000000000000000e+00  0.0000000000000000e+00  0.0000000000000000e+00  0.0000000000000000e+00  0.0000000000000000e+00  0.0000000000000000e+00  0.0000000000000000e+00  0.0000000000000000e+00  0.0000000000000000e+00  0.0000000000000000e+00  0.0000000000000000e+00  0.0000000000000000e+00  0.0000000000000000e+00  0.0000000000000000e+00  0.0000000000000000e+00  0.0000000000000000e+00  0.0000000000000000e+00  0.0000000000000000e+00  0.0000000000000000e+00  0.0000000000000000e+00  0.0000000000000000e+00  0.0000000000000000e+00  0.0000000000000000e+00  0.0000000000000000e+00  0.0000000000000000e+00  0.0000000000000000e+00  0.0000000000000000e+00  0.0000000000000000e+00  0.0000000000000000e+00  0.0000000000000000e+00  0.0000000000000000e+00  0.0000000000000000e+00  0.0000000000000000e+00  0.0000000000000000e+00  0.0000000000000000e+00  0.0000000000000000e+00  0.0000000000000000e+00  0.0000000000000000e+00  0.0000000000000000e+00  0.0000000000000000e+00  0.0000000000000000e+00  0.0000000000000000e+00  0.0000000000000000e+00  0.0000000000000000e+00  0.0000000000000000e+00  0.0000000000000000e+00  0.0000000000000000e+00  0.0000000000000000e+00  0.0000000000000000e+00  0.0000000000000000e+00  0.0000000000000000e+00  0.0000000000000000e+00  0.0000000000000000e+00  0.0000000000000000e+00  0.0000000000000000e+00  0.0000000000000000e+00  0.0000000000000000e+00  0.0000000000000000e+00  0.0000000000000000e+00  0.0000000000000000e+00  0.0000000000000000e+00  0.0000000000000000e+00  0.0000000000000000e+00  0.0000000000000000e+00  0.0000000000000000e+00  0.0000000000000000e+00  0.0000000000000000e+00  0.0000000000000000e+00  0.0000000000000000e+00  0.0000000000000000e+00  0.0000000000000000e+00  0.0000000000000000e+00  0.0000000000000000e+00  0.0000000000000000e+00  0.0000000000000000e+00  0.0000000000000000e+00  0.0000000000000000e+00  0.0000000000000000e+00  0.0000000000000000e+00  0.0000000000000000e+00  0.0000000000000000e+00  0.0000000000000000e+00  0.0000000000000000e+00  0.0000000000000000e+00  0.0000000000000000e+00  0.0000000000000000e+00  0.0000000000000000e+00  0.0000000000000000e+00  0.0000000000000000e+00  0.0000000000000000e+00  0.0000000000000000e+00  0.0000000000000000e+00  0.0000000000000000e+00  0.0000000000000000e+00  0.0000000000000000e+00  0.0000000000000000e+00  0.0000000000000000e+00  0.0000000000000000e+00  0.0000000000000000e+00  0.0000000000000000e+00  0.0000000000000000e+00  0.0000000000000000e+00  0.0000000000000000e+00  0.0000000000000000e+00  0.0000000000000000e+00  0.0000000000000000e+00  0.0000000000000000e+00  0.0000000000000000e+00  0.0000000000000000e+00  0.0000000000000000e+00  0.0000000000000000e+00  0.0000000000000000e+00  0.0000000000000000e+00  0.0000000000000000e+00  0.0000000000000000e+00  0.0000000000000000e+00  0.0000000000000000e+00  0.0000000000000000e+00  0.0000000000000000e+00  0.0000000000000000e+00  0.0000000000000000e+00  0.0000000000000000e+00  0.0000000000000000e+00  0.0000000000000000e+00  0.0000000000000000e+00  0.0000000000000000e+00  0.0000000000000000e+00  0.0000000000000000e+00  0.0000000000000000e+00  0.0000000000000000e+00  0.0000000000000000e+00  0.0000000000000000e+00  0.0000000000000000e+00  0.0000000000000000e+00  0.0000000000000000e+00  0.0000000000000000e+00  0.0000000000000000e+00  0.0000000000000000e+00  0.0000000000000000e+00  0.0000000000000000e+00  0.0000000000000000e+00  0.0000000000000000e+00  0.0000000000000000e+00  0.0000000000000000e+00  0.0000000000000000e+00  0.0000000000000000e+00  0.0000000000000000e+00  0.0000000000000000e+00  0.0000000000000000e+00  0.0000000000000000e+00  0.0000000000000000e+00  0.0000000000000000e+00  0.0000000000000000e+00  0.0000000000000000e+00  0.0000000000000000e+00  0.0000000000000000e+00  0.0000000000000000e+00  0.0000000000000000e+00  0.0000000000000000e+00  0.0000000000000000e+00  0.0000000000000000e+00  0.0000000000000000e+00  0.0000000000000000e+00  0.0000000000000000e+00  0.0000000000000000e+00  0.0000000000000000e+00  0.0000000000000000e+00  0.0000000000000000e+00  0.0000000000000000e+00  0.0000000000000000e+00  0.0000000000000000e+00  0.0000000000000000e+00  0.0000000000000000e+00  0.0000000000000000e+00  0.0000000000000000e+00  0.0000000000000000e+00  0.0000000000000000e+00  0.0000000000000000e+00  0.0000000000000000e+00  0.0000000000000000e+00  0.0000000000000000e+00  0.0000000000000000e+00  0.0000000000000000e+00  0.0000000000000000e+00  0.0000000000000000e+00  0.0000000000000000e+00  0.0000000000000000e+00  0.0000000000000000e+00  0.0000000000000000e+00  0.0000000000000000e+00  0.0000000000000000e+00  0.0000000000000000e+00  0.0000000000000000e+00  0.0000000000000000e+00  0.0000000000000000e+00  0.0000000000000000e+00  0.0000000000000000e+00  0.0000000000000000e+00  0.0000000000000000e+00  0.0000000000000000e+00  0.0000000000000000e+00  0.0000000000000000e+00  0.0000000000000000e+00  0.0000000000000000e+00  0.0000000000000000e+00  0.0000000000000000e+00  0.0000000000000000e+00  0.0000000000000000e+00  0.0000000000000000e+00  0.0000000000000000e+00  0.0000000000000000e+00  0.0000000000000000e+00  0.0000000000000000e+00  0.0000000000000000e+00  0.0000000000000000e+00  0.0000000000000000e+00  0.0000000000000000e+00  0.0000000000000000e+00  0.0000000000000000e+00  0.0000000000000000e+00  0.0000000000000000e+00  0.0000000000000000e+00  0.0000000000000000e+00  0.0000000000000000e+00  0.0000000000000000e+00  0.0000000000000000e+00  0.0000000000000000e+00  0.0000000000000000e+00  0.0000000000000000e+00  0.0000000000000000e+00  0.0000000000000000e+00  0.0000000000000000e+00  0.0000000000000000e+00  0.0000000000000000e+00  0.0000000000000000e+00  0.0000000000000000e+00  0.0000000000000000e+00  0.0000000000000000e+00  0.0000000000000000e+00  0.0000000000000000e+00  0.0000000000000000e+00  0.0000000000000000e+00  0.0000000000000000e+00  0.0000000000000000e+00  0.0000000000000000e+00  0.0000000000000000e+00  0.0000000000000000e+00  0.0000000000000000e+00  0.0000000000000000e+00  0.0000000000000000e+00  0.0000000000000000e+00  0.0000000000000000e+00  0.0000000000000000e+00  0.0000000000000000e+00  0.0000000000000000e+00  0.0000000000000000e+00  0.0000000000000000e+00  0.0000000000000000e+00  0.0000000000000000e+00  0.0000000000000000e+00  0.0000000000000000e+00  0.0000000000000000e+00  0.0000000000000000e+00  0.0000000000000000e+00  0.0000000000000000e+00  0.0000000000000000e+00  0.0000000000000000e+00  0.0000000000000000e+00  0.0000000000000000e+00  0.0000000000000000e+00  0.0000000000000000e+00  0.0000000000000000e+00  0.0000000000000000e+00  0.0000000000000000e+00  0.0000000000000000e+00  0.0000000000000000e+00  0.0000000000000000e+00  0.0000000000000000e+00  0.0000000000000000e+00  0.0000000000000000e+00  0.0000000000000000e+00  0.0000000000000000e+00  0.0000000000000000e+00  0.0000000000000000e+00  0.0000000000000000e+00  0.0000000000000000e+00  0.0000000000000000e+00  0.0000000000000000e+00  0.0000000000000000e+00  0.0000000000000000e+00  0.0000000000000000e+00  0.0000000000000000e+00  0.0000000000000000e+00  0.0000000000000000e+00  0.0000000000000000e+00  0.0000000000000000e+00  0.0000000000000000e+00  0.0000000000000000e+00  0.0000000000000000e+00  0.0000000000000000e+00  0.0000000000000000e+00  0.0000000000000000e+00  0.0000000000000000e+00  0.0000000000000000e+00  0.0000000000000000e+00  0.0000000000000000e+00  0.0000000000000000e+00  0.0000000000000000e+00  0.0000000000000000e+00  0.0000000000000000e+00  0.0000000000000000e+00  0.0000000000000000e+00  5.6685184065459202e+02  5.6594652456154859e+02  5.6438265982860855e+02  5.6246421986430971e+02  5.6011211893307598e+02  5.5746795528942880e+02  5.5447740485554448e+02  5.5170048041532300e+02  5.4884692711599382e+02  5.4616589843868326e+02  5.4363017989206287e+02  5.4160495834744620e+02  5.3982286099384692e+02  5.3863107589187598e+02  5.3795126709828276e+02  5.3783765134855173e+02  5.3816484148666302e+02  5.3892968455577204e+02  5.4030474298238141e+02  5.4206808015355489e+02  5.4422564847586705e+02  5.4673593028575237e+02  5.4931193554656556e+02  5.5219474910433814e+02  5.5507832667078162e+02  5.5769119901067029e+02  5.6015056435572876e+02  5.6233322062397781e+02  5.6400495442512374e+02  5.6518654016332357e+02  5.6581313528856197e+02  5.6580364910697574e+02  5.6516882653619859e+02  5.6419513295246963e+02  5.6239879748048133e+02  5.6014446683631377e+02  5.5776957284732021e+02  5.5504858008889983e+02  5.5216459964884268e+02  5.4936084156974664e+02  5.4671482114603498e+02  5.4438360108142456e+02  5.4208196434746174e+02  5.4025390383229603e+02  5.3879350754848406e+02  5.3792267348226744e+02  5.3757630027600203e+02  5.3780001275749873e+02  5.3848682664221462e+02  5.3980208993060558e+02  5.4146566579312616e+02  5.4360122209286953e+02  5.4591389764205076e+02  5.4873138475119447e+02  5.5165571159592673e+02  5.5463113431452643e+02  5.5747669283869288e+02  5.6009462275402495e+02  5.6248533468912683e+02  5.6454923914441633e+02  5.6596641613200427e+02  5.6692786325353984e+02  9.2844546480615762e+00  1.0142882313193397e+01  1.1267028242127036e+01  1.0241525108619829e+01  1.1860876609786303e+01  1.1444476859023442e+01  1.1217334997005057e+01  1.1213973198591006e+01  1.1735978586648310e+01  1.1295324949688659e+01  1.2189857451646734e+01  1.3936761738448041e+01  1.3835873271077427e+01  1.3708227655969008e+01  1.2578238530857138e+01  1.4142400902999370e+01  1.2994306928664148e+01  1.1891748564096018e+01  1.5543681867827003e+01  1.5571595057669054e+01  1.2434629111123090e+01  1.3014163061829969e+01  1.5588186411182715e+01  1.3715227612750120e+01  1.3371656423415361e+01  1.2075092954111696e+01  1.6836626739270720e+01  1.6832112447994540e+01  1.7031618669298453e+01  1.4895415173066386e+01  1.5333705796073442e+01  1.2553923261777097e+01  8.6524489228274160e+00  8.0475490599154060e+00  8.7353507288321097e+00  8.5780834104502386e+00  7.6247933565286230e+00  8.1948521693518970e+00  8.0113827579043981e+00  8.1021045964108005e+00  1.7333568576211711e+01  1.3235773414383067e+01  1.2174322800669183e+01  1.6086102996066096e+01  5.8214080079612289e+00  6.2978443735694709e+00  6.2937519969487123e+00  6.0184529590063569e+00  6.5138729947251264e+00  6.3705880871379401e+00  6.4058324383739293e+00  6.1775830725980638e+00  4.6278807690187058e+00  5.1896464968702709e+00  4.6694675934970773e+00  4.7328596822387947e+00  4.3190656841122603e+00  4.7503152389168948e+00  4.5798101206443018e+00  4.6715920939983251e+00  3.4290022512782969e+00  2.6874099547937544e+00  2.4679740677149589e+00  2.9477715695716498e+00  2.8997652125267876e+00  2.8957316157074788e+00  2.8623588380939879e+00  3.0416255297158910e+00  1.7255674577222543e+01  1.3763035651917530e+01  1.2821462678633027e+01  1.5153827749508089e+01  1.3833182809513632e+01  1.4740090968943983e+01  1.6363094320021364e+01  1.6431039741238450e+01  1.4889509009494097e+01  1.1037772757327865e+01  1.5420959283812067e+01  1.3117112484020566e+01  1.2540578738096508e+01  1.4260721207390182e+01  1.6510303080109892e+01  1.4672312378629600e+01  1.4931870823360450e+01  1.2517354652791404e+01  1.4769884201338902e+01  1.2521720950241049e+01  1.3141793412192776e+01  1.1812735455286811e+01  1.2784805485296676e+01  1.2586503797991245e+01  9.4263727555931958e+00  1.1178367213597847e+01  1.1813422363011631e+01  1.2841927887353124e+01  1.0017764112511847e+01  9.7114777285649936e+00  9.5144012108005960e+00  9.8737660014670290e+00  1.0440614608925410e+01  9.9788106454463659e+00  9.5796088016277192e+00  8.1084876425221690e+00  1.5729577590184951e+00  1.5618459652746410e+00  1.5161559161058418e+00  1.6810427776184453e+00  1.5862772034603714e+00  1.6422467573390669e+00  1.5593497798656097e+00  1.3021930653655480e+00  1.7255994694643512e+01  1.4839136753236010e+01  1.6271331929864672e+01  1.5376587044912203e+01  1.0716705878703847e+01  1.2066180349575278e+01  1.2068807985071169e+01  1.2035005354444914e+01  1.2014954856559486e+01  1.0743982523040328e+01  1.1527493082336909e+01  1.1876386725050640e+01  7.7503358946848575e+00  8.5708078432374499e+00  8.4712251284633471e+00  7.8323972490203220e+00  7.4200114069187704e+00  7.7723464793779877e+00  7.3426149158579959e+00  7.7419977459232241e+00  5.5640849014117286e+00  3.7880713992637172e+00  5.5464306919424740e+00  4.0939551116899064e+00  5.0783702273621847e+00  3.8477640637198540e+00  5.6260284771347244e+00  3.8359430361052378e+00  5.4883143955958129e+00  4.5540897260518518e+00  5.6467455270987017e+00  3.8518425306128496e+00  5.6241972389680788e+00  3.7882275818962792e+00  5.7502371102134520e+00  3.9268247884907406e+00  7.4682277921562035e-01  6.7898959973651485e-01  6.7985878691243096e-01  7.3390522171842998e-01  1.7307354121909928e+01  3.4563614393640790e+01  3.4434764206408161e+01  5.1739090626283243e+01  5.1507251264957148e+01  6.8806313229301495e+01  6.8470337382852534e+01  8.5741952667480334e+01  8.5252599373747174e+01  1.0251115995212209e+02  1.0184135133275970e+02  1.1908697611377107e+02  1.1821313528354945e+02  1.3544247019523101e+02  1.3433882155243256e+02  1.5154846492251338e+02  1.5017601376125512e+02  1.6737298495868890e+02  1.6573911126265725e+02  1.8286145730876476e+02  1.8095435320233548e+02  1.8459394602895060e+02  1.9806465108014930e+02  1.9580265032293030e+02  2.1290716553662944e+02  2.1028720582047131e+02  2.2729787677952265e+02  2.2433443470136370e+02  2.4127313272040760e+02  2.3793311890041974e+02  2.5476987452186080e+02  2.5105115850880017e+02  2.5823089141255684e+02  2.6775591480270651e+02  2.6366079991143295e+02  2.8027012020708889e+02  2.7574646411406110e+02  2.9226298116178293e+02  2.8726979090448583e+02  3.0365056965810987e+02  2.9823275097801667e+02  3.1443877904906032e+02  3.0858562044941357e+02  3.1999705584500867e+02  3.2460887256656491e+02  3.1832280027850328e+02  3.3414578907138764e+02  3.2741062687891855e+02  3.1162980233044323e+02  3.2033368284815350e+02  3.3586312646002204e+02  3.2843311569410952e+02  3.1307379967584149e+02  3.2075990296912494e+02  3.0563296524156146e+02  3.1287487298617043e+02  3.2777275320716655e+02  3.1947912754888716e+02  3.0477485753848481e+02  3.1098623490515041e+02  2.9648933172362950e+02  3.0231295637532423e+02  3.1658102192051081e+02  3.0752870173616549e+02  2.9347586913123922e+02  2.9831778189667358e+02  3.1213956784867173e+02  3.0256520603372121e+02  2.8896226194535507e+02  2.9285014315981397e+02  3.0622323604709413e+02  2.9615954995598986e+02  3.0929922499831190e+02  2.7947517762156616e+02  2.9889778338772891e+02  3.1180131847151995e+02  3.0107374818947727e+02  3.1374007673783166e+02  3.0269773592588575e+02  3.1512716958099298e+02  3.0378164287043535e+02  3.1597352525361737e+02  2.9154131677364086e+02  3.0433685862814332e+02  3.1629333607853471e+02  3.0437683147595999e+02  3.1610068819012309e+02  3.0391608536742223e+02  3.1541003086287350e+02  3.0296841841411265e+02  3.1423705265054116e+02  3.0154954004813243e+02  3.1259655109714686e+02  2.9967421143623727e+02  3.1050501581835209e+02  2.9042115016576736e+02  3.2635277448344800e+02  5.3538834719717715e+02  2.9735709528430095e+02  3.0797848992353579e+02  2.9461669807080250e+02  3.0503307157653228e+02  5.2560694843303941e+02  2.9146780211631170e+02  3.0168528631004517e+02  5.1191940727633556e+02  2.8792666393986627e+02  2.9795151066311490e+02  3.1179190023935178e+02  3.0786319838316763e+02  2.9384761201870100e+02  3.0357103919858042e+02  3.2681564861019746e+02  2.7780686898264827e+02  2.8939115064758255e+02  2.9893326525765667e+02  3.1316292435736381e+02  3.0834040174379965e+02  2.9396259105748868e+02  3.0319284781535993e+02  3.1759860016042734e+02  3.1227302662352355e+02  2.9773421088501175e+02  3.0664391936615141e+02  3.2118919144012801e+02  3.1538899216201207e+02  3.0072473655234467e+02  3.0930234120324394e+02  3.2397907057015891e+02  3.1771521496604180e+02  3.0294812306839339e+02  3.1118457447519950e+02  3.2591732360759261e+02  3.1922513314328489e+02  3.0441058067514865e+02  3.1229369779249981e+02  3.2705691524160437e+02  3.1996797995517551e+02  3.3466875094592314e+02  3.2742049002555268e+02  3.1264396370908014e+02  3.1993801712222347e+02  3.3463805861127520e+02  3.2699604866537481e+02  3.1223379469521035e+02  3.1913235028430842e+02  3.3380563935169573e+02  3.2577906013241841e+02  3.4035289795526961e+02  3.3216015273243670e+02  3.4662530023782881e+02  3.3826285377100129e+02  3.2375719610014488e+02  3.2968821738903341e+02  3.4407378416750458e+02  3.3532228131254590e+02  3.4957907850617164e+02  3.4064515835792810e+02  3.5476488755233572e+02  3.4564205397936564e+02  3.5961663259762889e+02  3.5029801727205461e+02  3.3631536024516703e+02  3.4077324067283195e+02  3.5459828405437162e+02  3.4487355404697178e+02  3.5852077493616173e+02  3.4858832824720906e+02  3.6205924614710426e+02  3.5190546303704167e+02  3.6521656828716431e+02  3.5480840941130072e+02  3.6793068390989208e+02  3.5728695050600186e+02  3.7018395694076190e+02  3.5930952319506628e+02  3.7199148463729642e+02  3.6086683074814857e+02  3.7338645017613976e+02  3.6195138399447114e+02  3.7423775561131060e+02  3.6252950824545530e+02  3.7449712184964221e+02  3.6256868458992813e+02  3.7427771563336654e+02  3.6208099881560349e+02  3.7352823291897113e+02  3.5046634380961513e+02  3.4971438643211519e+02  3.3822370215993988e+02  3.3720794320768533e+02  3.2586752056199214e+02  3.2459714373057705e+02  3.1342489029355266e+02  3.1190695214328315e+02  3.0092074816716405e+02  2.9916434864305700e+02  3.0983198266640750e+02  2.8838094114197696e+02  3.3845533445866829e+02  2.9685058305372689e+02  3.0718845247682930e+02  2.9397353623158028e+02  3.0396708506331379e+02  2.9051759050713787e+02  3.0015850399225940e+02  2.8647381941503653e+02  2.9575540694637448e+02  2.8184464575101219e+02  2.7280194715353468e+02  2.9075426370130145e+02  2.6795907336510874e+02  2.5916957687165223e+02  2.5412359745518216e+02  2.4560063914668586e