<?xml version="1.0"?>
<VTKFile type="UnstructuredGrid"  version="0.1"  >
<UnstructuredGrid>
<Piece  NumberOfPoints="11902" NumberOfCells="23402">
<Points>
<DataArray  type="Float64"  NumberOfComponents="3"  format="ascii">-5 -5 0  5 -5 0  5 5 0  -5 5 0  1.994613763736586 0.005983155791064809 0  -4.9 -5 0  -4.8 -5 0  -4.7 -5 0  -4.6 -5 0  -4.5 -5 0  -4.4 -5 0  -4.3 -5 0  -4.2 -5 0  -4.1 -5 0  -4 -5 0  -3.9 -5 0  -3.8 -5 0  -3.7 -5 0  -3.6 -5 0  -3.5 -5 0  -3.4 -5 0  -3.3 -5 0  -3.2 -5 0  -3.1 -5 0  -3 -5 0  -2.9 -5 0  -2.8 -5 0  -2.7 -5 0  -2.6 -5 0  -2.5 -5 0  -2.4 -5 0  -2.3 -5 0  -2.2 -5 0  -2.1 -5 0  -2 -5 0  -1.9 -5 0  -1.8 -5 0  -1.7 -5 0  -1.6 -5 0  -1.5 -5 0  -1.4 -5 0  -1.3 -5 0  -1.2 -5 0  -1.1 -5 0  -1 -5 0  -0.9000000000000004 -5 0  -0.7999999999999998 -5 0  -0.7000000000000002 -5 0  -0.5999999999999996 -5 0  -0.5 -5 0  -0.4000000000000004 -5 0  -0.2999999999999998 -5 0  -0.2000000000000002 -5 0  -0.09999999999999964 -5 0  0 -5 0  0.09999999999999964 -5 0  0.2000000000000002 -5 0  0.2999999999999998 -5 0  0.4000000000000004 -5 0  0.5 -5 0  0.5999999999999996 -5 0  0.7000000000000002 -5 0  0.7999999999999998 -5 0  0.9000000000000004 -5 0  1 -5 0  1.1 -5 0  1.2 -5 0  1.3 -5 0  1.4 -5 0  1.5 -5 0  1.6 -5 0  1.7 -5 0  1.8 -5 0  1.9 -5 0  2 -5 0  2.1 -5 0  2.2 -5 0  2.3 -5 0  2.4 -5 0  2.5 -5 0  2.6 -5 0  2.7 -5 0  2.8 -5 0  2.9 -5 0  3 -5 0  3.1 -5 0  3.199999999999999 -5 0  3.300000000000001 -5 0  3.4 -5 0  3.5 -5 0  3.6 -5 0  3.699999999999999 -5 0  3.800000000000001 -5 0  3.9 -5 0  4 -5 0  4.1 -5 0  4.199999999999999 -5 0  4.300000000000001 -5 0  4.4 -5 0  4.5 -5 0  4.6 -5 0  4.699999999999999 -5 0  4.800000000000001 -5 0  4.9 -5 0  5 -4.9 0  5 -4.8 0  5 -4.7 0  5 -4.6 0  5 -4.5 0  5 -4.4 0  5 -4.3 0  5 -4.2 0  5 -4.1 0  5 -4 0  5 -3.9 0  5 -3.8 0  5 -3.7 0  5 -3.6 0  5 -3.5 0  5 -3.4 0  5 -3.3 0  5 -3.2 0  5 -3.1 0  5 -3 0  5 -2.9 0  5 -2.8 0  5 -2.7 0  5 -2.6 0  5 -2.5 0  5 -2.4 0  5 -2.3 0  5 -2.2 0  5 -2.1 0  5 -2 0  5 -1.9 0  5 -1.8 0  5 -1.7 0  5 -1.6 0  5 -1.5 0  5 -1.4 0  5 -1.3 0  5 -1.2 0  5 -1.1 0  5 -1 0  5 -0.9000000000000004 0  5 -0.7999999999999998 0  5 -0.7000000000000002 0  5 -0.5999999999999996 0  5 -0.5 0  5 -0.4000000000000004 0  5 -0.2999999999999998 0  5 -0.2000000000000002 0  5 -0.09999999999999964 0  5 0 0  5 0.09999999999999964 0  5 0.2000000000000002 0  5 0.2999999999999998 0  5 0.4000000000000004 0  5 0.5 0  5 0.5999999999999996 0  5 0.7000000000000002 0  5 0.7999999999999998 0  5 0.9000000000000004 0  5 1 0  5 1.1 0  5 1.2 0  5 1.3 0  5 1.4 0  5 1.5 0  5 1.6 0  5 1.7 0  5 1.8 0  5 1.9 0  5 2 0  5 2.1 0  5 2.2 0  5 2.3 0  5 2.4 0  5 2.5 0  5 2.6 0  5 2.7 0  5 2.8 0  5 2.9 0  5 3 0  5 3.1 0  5 3.199999999999999 0  5 3.300000000000001 0  5 3.4 0  5 3.5 0  5 3.6 0  5 3.699999999999999 0  5 3.800000000000001 0  5 3.9 0  5 4 0  5 4.1 0  5 4.199999999999999 0  5 4.300000000000001 0  5 4.4 0  5 4.5 0  5 4.6 0  5 4.699999999999999 0  5 4.800000000000001 0  5 4.9 0  4.9 5 0  4.8 5 0  4.7 5 0  4.6 5 0  4.5 5 0  4.4 5 0  4.3 5 0  4.2 5 0  4.1 5 0  4 5 0  3.9 5 0  3.8 5 0  3.7 5 0  3.6 5 0  3.5 5 0  3.4 5 0  3.3 5 0  3.2 5 0  3.1 5 0  3 5 0  2.9 5 0  2.8 5 0  2.7 5 0  2.6 5 0  2.5 5 0  2.4 5 0  2.3 5 0  2.2 5 0  2.1 5 0  2 5 0  1.9 5 0  1.8 5 0  1.7 5 0  1.6 5 0  1.5 5 0  1.4 5 0  1.3 5 0  1.2 5 0  1.1 5 0  1 5 0  0.9000000000000004 5 0  0.7999999999999998 5 0  0.7000000000000002 5 0  0.5999999999999996 5 0  0.5 5 0  0.4000000000000004 5 0  0.2999999999999998 5 0  0.2000000000000002 5 0  0.09999999999999964 5 0  0 5 0  -0.09999999999999964 5 0  -0.2000000000000002 5 0  -0.2999999999999998 5 0  -0.4000000000000004 5 0  -0.5 5 0  -0.5999999999999996 5 0  -0.7000000000000002 5 0  -0.7999999999999998 5 0  -0.9000000000000004 5 0  -1 5 0  -1.1 5 0  -1.2 5 0  -1.3 5 0  -1.4 5 0  -1.5 5 0  -1.6 5 0  -1.7 5 0  -1.8 5 0  -1.9 5 0  -2 5 0  -2.1 5 0  -2.2 5 0  -2.3 5 0  -2.4 5 0  -2.5 5 0  -2.6 5 0  -2.7 5 0  -2.8 5 0  -2.9 5 0  -3 5 0  -3.1 5 0  -3.199999999999999 5 0  -3.300000000000001 5 0  -3.4 5 0  -3.5 5 0  -3.6 5 0  -3.699999999999999 5 0  -3.800000000000001 5 0  -3.9 5 0  -4 5 0  -4.1 5 0  -4.199999999999999 5 0  -4.300000000000001 5 0  -4.4 5 0  -4.5 5 0  -4.6 5 0  -4.699999999999999 5 0  -4.800000000000001 5 0  -4.9 5 0  -5 4.9 0  -5 4.8 0  -5 4.7 0  -5 4.6 0  -5 4.5 0  -5 4.4 0  -5 4.3 0  -5 4.2 0  -5 4.1 0  -5 4 0  -5 3.9 0  -5 3.8 0  -5 3.7 0  -5 3.6 0  -5 3.5 0  -5 3.4 0  -5 3.3 0  -5 3.2 0  -5 3.1 0  -5 3 0  -5 2.9 0  -5 2.8 0  -5 2.7 0  -5 2.6 0  -5 2.5 0  -5 2.4 0  -5 2.3 0  -5 2.2 0  -5 2.1 0  -5 2 0  -5 1.9 0  -5 1.8 0  -5 1.7 0  -5 1.6 0  -5 1.5 0  -5 1.4 0  -5 1.3 0  -5 1.2 0  -5 1.1 0  -5 1 0  -5 0.9000000000000004 0  -5 0.7999999999999998 0  -5 0.7000000000000002 0  -5 0.5999999999999996 0  -5 0.5 0  -5 0.4000000000000004 0  -5 0.2999999999999998 0  -5 0.2000000000000002 0  -5 0.09999999999999964 0  -5 0 0  -5 -0.09999999999999964 0  -5 -0.2000000000000002 0  -5 -0.2999999999999998 0  -5 -0.4000000000000004 0  -5 -0.5 0  -5 -0.5999999999999996 0  -5 -0.7000000000000002 0  -5 -0.7999999999999998 0  -5 -0.9000000000000004 0  -5 -1 0  -5 -1.1 0  -5 -1.2 0  -5 -1.3 0  -5 -1.4 0  -5 -1.5 0  -5 -1.6 0  -5 -1.7 0  -5 -1.8 0  -5 -1.9 0  -5 -2 0  -5 -2.1 0  -5 -2.2 0  -5 -2.3 0  -5 -2.4 0  -5 -2.5 0  -5 -2.6 0  -5 -2.7 0  -5 -2.8 0  -5 -2.9 0  -5 -3 0  -5 -3.1 0  -5 -3.199999999999999 0  -5 -3.300000000000001 0  -5 -3.4 0  -5 -3.5 0  -5 -3.6 0  -5 -3.699999999999999 0  -5 -3.800000000000001 0  -5 -3.9 0  -5 -4 0  -5 -4.1 0  -5 -4.199999999999999 0  -5 -4.300000000000001 0  -5 -4.4 0  -5 -4.5 0  -5 -4.6 0  -5 -4.699999999999999 0  -5 -4.800000000000001 0  -5 -4.9 0  2.133231798843825 0.2241742420355432 0  1.940102401048995 0.3763573312556508 0  2.098599694745798 0.6223374890436892 0  1.761109361177157 0.6935315251394972 0  1.695194344436136 0.8934788321600924 0  1.512363907438875 0.9908300076323397 0  1.441042672267856 1.159452814997392 0  1.195309054160628 1.132994717339937 0  1.089733132616102 1.312430803594518 0  0.9364469247938365 1.40944951034623 0  0.7688038604092092 1.427642059266418 0  0.6217741073275411 1.476243702778064 0  0.4455341571286789 1.552245960921874 0  0.285854557365829 1.574001221339605 0  0.1292059999919825 1.620016762874418 0  -0.01937049857963393 1.609643944128638 0  -0.2220005134775416 1.576098414908662 0  -0.3840441842418634 1.577373523713185 0  -0.5274186125108533 1.524479881496493 0  -0.685138557825945 1.450130369499372 0  -0.8592888127936109 1.424891848116294 0  -0.9969811713798261 1.317442905233368 0  -1.15902105215056 1.233647382050281 0  -1.384315592579374 1.229460970568248 0  -1.354280325919978 0.9876172159232922 0  -1.620798267150437 0.9505625146117973 0  -1.796482757156486 0.8388671234654472 0  -1.820625444012297 0.655395479746844 0  -1.981810831543392 0.5032686887231927 0  -2.058323339058892 0.2921744569626056 0  -2.089762918668584 0.09385246738094723 0  -1.943301563537103 -0.1275794979077002 0  -2.212354961050344 -0.3372221536835416 0  -1.923956765397282 -0.4475811673517325 0  -1.813844850121455 -0.6435859831104387 0  -1.819283436027943 -0.8403378106196966 0  -1.524450051646334 -0.8851768688918142 0  -1.47801387874524 -1.073818587943111 0  -1.336501049136059 -1.184347469375539 0  -1.146478771656979 -1.2212934370171 0  -1.00839213175918 -1.3437694773836 0  -0.8497361263647186 -1.435978798792449 0  -0.6916245931020655 -1.481042723911717 0  -0.5210163320096726 -1.517491846223868 0  -0.3737523175178721 -1.590179217091465 0  -0.2088748595864158 -1.581725878587131 0  -0.04557216251968382 -1.609060631607974 0  0.1367051112765469 -1.601452028953398 0  0.2866720625734569 -1.594579377582607 0  0.45618595386587 -1.55995461678617 0  0.606899838342507 -1.506122021604027 0  0.7684129046606779 -1.414533049920489 0  0.9430799286085469 -1.412385732525453 0  1.097881487283142 -1.301947280079357 0  1.25985511673453 -1.245373912255524 0  1.38089855062686 -1.116366034126167 0  1.520132969500365 -0.9864658301189464 0  1.705943488974675 -0.8821118452685081 0  1.808658235880423 -0.7441088880515516 0  1.900519920315808 -0.5604597962860394 0  2.054272800496082 -0.4027069218160391 0  2.061362409288386 -0.2074400966552967 0  -2.449787499608041 4.920144230915619 0  -2.449758966934235 -4.91270687051538 0  4.91170876932111 2.448732189864881 0  4.919725499282339 -2.450060959739306 0  2.447683942718528 -4.898309582587466 0  2.442062815114789 4.902033254307548 0  -4.911739016075573 -2.44874203832346 0  -4.911774772075476 2.448747035601148 0  -1.749959039949049 4.914082092885141 0  -1.745671323774237 -4.917385133603087 0  4.92169215725632 1.744489579729315 0  4.910374118286706 -1.748424732438972 0  -4.910675544580241 -1.748112358453747 0  -4.91152293529059 1.747851625924311 0  1.747324562182933 4.908147299634065 0  1.748903949646975 -4.896677254802905 0  -1.150077723436622 4.912702540226693 0  -1.130814451394562 -4.920224154029863 0  -4.910093130231065 -1.148123739451226 0  -4.909937245609568 1.147916919288519 0  1.144985809315611 -4.916593275742999 0  1.150083648138726 4.912675378822182 0  4.910233186308295 1.14640241676406 0  4.920951578030901 -1.152065836340466 0  -0.547341218062436 -4.914320724269301 0  -0.5470555955447312 4.922640353117185 0  -4.908440254295056 -0.5487235172624502 0  -4.908478472359557 0.547261635207183 0  4.9077166845721 -0.549044041447783 0  4.919327346534208 0.5457447899300324 0  0.5432194469930732 -4.901822964494139 0  0.551807128190591 4.919613761452947 0  -4.912986153454922 -3.049114413248236 0  4.919489469156715 3.047056662319236 0  4.912506709224441 -3.049108484384659 0  -4.913851760065096 3.046193026924743 0  3.056270763009363 -4.918863152162893 0  -3.049648595025073 -4.912823539662806 0  3.053200023121371 4.914926431854304 0  -3.049121716708584 4.913763690326673 0  -4.907383435010144 -0.04991321160178186 0  0.04517113737836312 -4.916350174086294 0  0.04962074267321752 4.923066401092021 0  4.914387441729732 -0.05129581023506193 0  3.546306573662821 -4.920019477181221 0  -3.54965781814188 4.913040763178508 0  -3.549631931115127 -4.913052865869161 0  4
[...]
<PointData  Scalars="f_26"> 
<DataArray  type="Float64"  Name="f_26"  format="ascii">0.0000000000000000e+00  0.0000000000000000e+00  0.0000000000000000e+00  0.0000000000000000e+00  1.2887433877226843e+02  0.0000000000000000e+00  0.0000000000000000e+00  0.0000000000000000e+00  0.0000000000000000e+00  0.0000000000000000e+00  0.0000000000000000e+00  0.0000000000000000e+00  0.0000000000000000e+00  0.0000000000000000e+00  0.0000000000000000e+00  0.0000000000000000e+00  0.0000000000000000e+00  0.0000000000000000e+00  0.0000000000000000e+00  0.0000000000000000e+00  0.0000000000000000e+00  0.0000000000000000e+00  0.0000000000000000e+00  0.0000000000000000e+00  0.0000000000000000e+00  0.0000000000000000e+00  0.0000000000000000e+00  0.0000000000000000e+00  0.0000000000000000e+00  0.0000000000000000e+00  0.0000000000000000e+00  0.0000000000000000e+00  0.0000000000000000e+00  0.0000000000000000e+00  0.0000000000000000e+00  0.0000000000000000e+00  0.0000000000000000e+00  0.0000000000000000e+00  0.0000000000000000e+00  0.0000000000000000e+00  0.0000000000000000e+00  0.0000000000000000e+00  0.0000000000000000e+00  0.0000000000000000e+00  0.0000000000000000e+00  0.0000000000000000e+00  0.0000000000000000e+00  0.0000000000000000e+00  0.0000000000000000e+00  0.0000000000000000e+00  0.0000000000000000e+00  0.0000000000000000e+00  0.0000000000000000e+00  0.0000000000000000e+00  0.0000000000000000e+00  0.0000000000000000e+00  0.0000000000000000e+00  0.0000000000000000e+00  0.0000000000000000e+00  0.0000000000000000e+00  0.0000000000000000e+00  0.0000000000000000e+00  0.0000000000000000e+00  0.0000000000000000e+00  0.0000000000000000e+00  0.0000000000000000e+00  0.0000000000000000e+00  0.0000000000000000e+00  0.0000000000000000e+00  0.0000000000000000e+00  0.0000000000000000e+00  0.0000000000000000e+00  0.0000000000000000e+00  0.0000000000000000e+00  0.0000000000000000e+00  0.0000000000000000e+00  0.0000000000000000e+00  0.0000000000000000e+00  0.0000000000000000e+00  0.0000000000000000e+00  0.0000000000000000e+00  0.0000000000000000e+00  0.0000000000000000e+00  0.0000000000000000e+00  0.0000000000000000e+00  0.0000000000000000e+00  0.0000000000000000e+00  0.0000000000000000e+00  0.0000000000000000e+00  0.0000000000000000e+00  0.0000000000000000e+00  0.0000000000000000e+00  0.0000000000000000e+00  0.0000000000000000e+00  0.0000000000000000e+00  0.0000000000000000e+00  0.0000000000000000e+00  0.0000000000000000e+00  0.0000000000000000e+00  0.0000000000000000e+00  0.0000000000000000e+00  0.0000000000000000e+00  0.0000000000000000e+00  0.0000000000000000e+00  0.0000000000000000e+00  0.0000000000000000e+00  0.0000000000000000e+00  0.0000000000000000e+00  0.0000000000000000e+00  0.0000000000000000e+00  0.0000000000000000e+00  0.0000000000000000e+00  0.0000000000000000e+00  0.0000000000000000e+00  0.0000000000000000e+00  0.0000000000000000e+00  0.0000000000000000e+00  0.0000000000000000e+00  0.0000000000000000e+00  0.0000000000000000e+00  0.0000000000000000e+00  0.0000000000000000e+00  0.0000000000000000e+00  0.0000000000000000e+00  0.0000000000000000e+00  0.0000000000000000e+00  0.0000000000000000e+00  0.0000000000000000e+00  0.0000000000000000e+00  0.0000000000000000e+00  0.0000000000000000e+00  0.0000000000000000e+00  0.0000000000000000e+00  0.0000000000000000e+00  0.0000000000000000e+00  0.0000000000000000e+00  0.0000000000000000e+00  0.0000000000000000e+00  0.0000000000000000e+00  0.0000000000000000e+00  0.0000000000000000e+00  0.0000000000000000e+00  0.0000000000000000e+00  0.0000000000000000e+00  0.0000000000000000e+00  0.0000000000000000e+00  0.0000000000000000e+00  0.0000000000000000e+00  0.0000000000000000e+00  0.0000000000000000e+00  0.0000000000000000e+00  0.0000000000000000e+00  0.0000000000000000e+00  0.0000000000000000e+00  0.0000000000000000e+00  0.0000000000000000e+00  0.0000000000000000e+00  0.0000000000000000e+00  0.0000000000000000e+00  0.0000000000000000e+00  0.0000000000000000e+00  0.0000000000000000e+00  0.0000000000000000e+00  0.0000000000000000e+00  0.0000000000000000e+00  0.0000000000000000e+00  0.0000000000000000e+00  0.0000000000000000e+00  0.0000000000000000e+00  0.0000000000000000e+00  0.0000000000000000e+00  0.0000000000000000e+00  0.0000000000000000e+00  0.0000000000000000e+00  0.0000000000000000e+00  0.0000000000000000e+00  0.0000000000000000e+00  0.0000000000000000e+00  0.0000000000000000e+00  0.0000000000000000e+00  0.0000000000000000e+00  0.0000000000000000e+00  0.0000000000000000e+00  0.0000000000000000e+00  0.0000000000000000e+00  0.0000000000000000e+00  0.0000000000000000e+00  0.0000000000000000e+00  0.0000000000000000e+00  0.0000000000000000e+00  0.0000000000000000e+00  0.0000000000000000e+00  0.0000000000000000e+00  0.0000000000000000e+00  0.0000000000000000e+00  0.0000000000000000e+00  0.0000000000000000e+00  0.0000000000000000e+00  0.0000000000000000e+00  0.0000000000000000e+00  0.0000000000000000e+00  0.0000000000000000e+00  0.0000000000000000e+00  0.0000000000000000e+00  0.0000000000000000e+00  0.0000000000000000e+00  0.0000000000000000e+00  0.0000000000000000e+00  0.0000000000000000e+00  0.0000000000000000e+00  0.0000000000000000e+00  0.0000000000000000e+00  0.0000000000000000e+00  0.0000000000000000e+00  0.0000000000000000e+00  0.0000000000000000e+00  0.0000000000000000e+00  0.0000000000000000e+00  0.0000000000000000e+00  0.0000000000000000e+00  0.0000000000000000e+00  0.0000000000000000e+00  0.0000000000000000e+00  0.0000000000000000e+00  0.0000000000000000e+00  0.0000000000000000e+00  0.0000000000000000e+00  0.0000000000000000e+00  0.0000000000000000e+00  0.0000000000000000e+00  0.0000000000000000e+00  0.0000000000000000e+00  0.0000000000000000e+00  0.0000000000000000e+00  0.0000000000000000e+00  0.0000000000000000e+00  0.0000000000000000e+00  0.0000000000000000e+00  0.0000000000000000e+00  0.0000000000000000e+00  0.0000000000000000e+00  0.0000000000000000e+00  0.0000000000000000e+00  0.0000000000000000e+00  0.0000000000000000e+00  0.0000000000000000e+00  0.0000000000000000e+00  0.0000000000000000e+00  0.0000000000000000e+00  0.0000000000000000e+00  0.0000000000000000e+00  0.0000000000000000e+00  0.0000000000000000e+00  0.0000000000000000e+00  0.0000000000000000e+00  0.0000000000000000e+00  0.0000000000000000e+00  0.0000000000000000e+00  0.0000000000000000e+00  0.0000000000000000e+00  0.0000000000000000e+00  0.0000000000000000e+00  0.0000000000000000e+00  0.0000000000000000e+00  0.0000000000000000e+00  0.0000000000000000e+00  0.0000000000000000e+00  0.0000000000000000e+00  0.0000000000000000e+00  0.0000000000000000e+00  0.0000000000000000e+00  0.0000000000000000e+00  0.0000000000000000e+00  0.0000000000000000e+00  0.0000000000000000e+00  0.0000000000000000e+00  0.0000000000000000e+00  0.0000000000000000e+00  0.0000000000000000e+00  0.0000000000000000e+00  0.0000000000000000e+00  0.0000000000000000e+00  0.0000000000000000e+00  0.0000000000000000e+00  0.0000000000000000e+00  0.0000000000000000e+00  0.0000000000000000e+00  0.0000000000000000e+00  0.0000000000000000e+00  0.0000000000000000e+00  0.0000000000000000e+00  0.0000000000000000e+00  0.0000000000000000e+00  0.0000000000000000e+00  0.0000000000000000e+00  0.0000000000000000e+00  0.0000000000000000e+00  0.0000000000000000e+00  0.0000000000000000e+00  0.0000000000000000e+00  0.0000000000000000e+00  0.0000000000000000e+00  0.0000000000000000e+00  0.0000000000000000e+00  0.0000000000000000e+00  0.0000000000000000e+00  0.0000000000000000e+00  0.0000000000000000e+00  0.0000000000000000e+00  0.0000000000000000e+00  0.0000000000000000e+00  0.0000000000000000e+00  0.0000000000000000e+00  0.0000000000000000e+00  0.0000000000000000e+00  0.0000000000000000e+00  0.0000000000000000e+00  0.0000000000000000e+00  0.0000000000000000e+00  0.0000000000000000e+00  0.0000000000000000e+00  0.0000000000000000e+00  0.0000000000000000e+00  0.0000000000000000e+00  0.0000000000000000e+00  0.0000000000000000e+00  0.0000000000000000e+00  0.0000000000000000e+00  0.0000000000000000e+00  0.0000000000000000e+00  0.0000000000000000e+00  0.0000000000000000e+00  0.0000000000000000e+00  0.0000000000000000e+00  0.0000000000000000e+00  0.0000000000000000e+00  0.0000000000000000e+00  0.0000000000000000e+00  0.0000000000000000e+00  0.0000000000000000e+00  0.0000000000000000e+00  0.0000000000000000e+00  0.0000000000000000e+00  0.0000000000000000e+00  0.0000000000000000e+00  0.0000000000000000e+00  0.0000000000000000e+00  0.0000000000000000e+00  0.0000000000000000e+00  0.0000000000000000e+00  0.0000000000000000e+00  0.0000000000000000e+00  0.0000000000000000e+00  0.0000000000000000e+00  0.0000000000000000e+00  0.0000000000000000e+00  0.0000000000000000e+00  0.0000000000000000e+00  0.0000000000000000e+00  0.0000000000000000e+00  0.0000000000000000e+00  0.0000000000000000e+00  0.0000000000000000e+00  0.0000000000000000e+00  0.0000000000000000e+00  0.0000000000000000e+00  0.0000000000000000e+00  0.0000000000000000e+00  0.0000000000000000e+00  0.0000000000000000e+00  0.0000000000000000e+00  0.0000000000000000e+00  0.0000000000000000e+00  0.0000000000000000e+00  0.0000000000000000e+00  0.0000000000000000e+00  0.0000000000000000e+00  0.0000000000000000e+00  0.0000000000000000e+00  0.0000000000000000e+00  0.0000000000000000e+00  0.0000000000000000e+00  0.0000000000000000e+00  0.0000000000000000e+00  0.0000000000000000e+00  0.0000000000000000e+00  0.0000000000000000e+00  0.0000000000000000e+00  0.0000000000000000e+00  0.0000000000000000e+00  0.0000000000000000e+00  0.0000000000000000e+00  0.0000000000000000e+00  0.0000000000000000e+00  0.0000000000000000e+00  0.0000000000000000e+00  0.0000000000000000e+00  0.0000000000000000e+00  0.0000000000000000e+00  0.0000000000000000e+00  0.0000000000000000e+00  1.3037161825018407e+02  1.2794467760114438e+02  1.2957388231665666e+02  1.2356294863394456e+02  1.1972402329303392e+02  1.1490239492705925e+02  1.1226351752580959e+02  1.0655782849099583e+02  1.0130364795097826e+02  9.8333680190449357e+01  9.5512810679496454e+01  9.2713392510521473e+01  9.0321221651261610e+01  8.8933161488851567e+01  8.8162986576476698e+01  8.8155744635119021e+01  8.8758049061005622e+01  8.9719310511643926e+01  9.1221321674108637e+01  9.3826157792566661e+01  9.6772722699685758e+01  1.0006719888749878e+02  1.0472078020200715e+02  1.0827138485157705e+02  1.1103535126757079e+02  1.1849174880305920e+02  1.2216221220633844e+02  1.2382327230718656e+02  1.2729763756995709e+02  1.2914064686829414e+02  1.2983510179408626e+02  1.2813886503975232e+02  1.3130180798964656e+02  1.2732385527882501e+02  1.2357376481157470e+02  1.2269422192616314e+02  1.1641182602038280e+02  1.1243595028155413e+02  1.0927008251350050e+02  1.0491369560680049e+02  1.0035978589772360e+02  9.7496299949076032e+01  9.4863300538346422e+01  9.2338499604580633e+01  9.0758104896237114e+01  8.9834598717999341e+01  8.9420936001300859e+01  8.9683837695149364e+01  9.0415560417204631e+01  9.1929036460507618e+01  9.3836210840705192e+01  9.7135293794586076e+01  1.0026660024298037e+02  1.0379478270298480e+02  1.0746967129293664e+02  1.1109762871536422e+02  1.1582420584366065e+02  1.2068342369842897e+02  1.2339936786541749e+02  1.2631617220442492e+02  1.2918166993035530e+02  1.2956547832716984e+02  1.6182665464465784e+00  1.8126779494436684e+00  2.6049533127943887e+00  2.4351689090568738e+00  2.1784744140262493e+00  2.0048468932077088e+00  2.5945901786856624e+00  2.5709945978885367e+00  1.8753279820128683e+00  1.8596156062070812e+00  2.9746439713984860e+00  3.4731748936270757e+00  3.3628675133847974e+00  3.3134540056812591e+00  2.0197564146135845e+00  2.3844286690768439e+00  1.9355911283636198e+00  1.8338822881793502e+00  3.9275668075542511e+00  3.9222946664634324e+00  1.9524203446547692e+00  1.9462090901054669e+00  3.9684078710011126e+00  3.5418720420504917e+00  1.9757209819566004e+00  1.7116376549578558e+00  4.3726763410710152e+00  4.3658371733065202e+00  4.5079557335877816e+00  3.9147834481544770e+00  2.2851148480131314e+00  1.7833238390131143e+00  1.9240971013660306e+00  1.7830449883939228e+00  2.0003171799365012e+00  1.8860147661416107e+00  1.4938116937277668e+00  1.5587026373912485e+00  1.5016559035082260e+00  1.5079030652616501e+00  4.5409387063785989e+00  1.9344930736298844e+00  1.6997529835871259e+00  4.2818979821750647e+00  1.1896420363036628e+00  1.2243307427543997e+00  1.2467902413488812e+00  1.2948810763101744e+00  1.4095816270448214e+00  1.4210512704019407e+00  1.3675734520231930e+00  1.2095303562230719e+00  1.0154999628309451e+00  1.0551744568169361e+00  9.7839579032717916e-01  1.0070028838917886e+00  8.6140642976381221e-01  1.0033699050484715e+00  9.2073727714979725e-01  9.7936051606618979e-01  7.3102191643543435e-01  5.4580278089331691e-01  5.0960780939925121e-01  6.1472247832082927e-01  6.2901532374576885e-01  6.0885062973672111e-01  5.9245733713963045e-01  6.2225918349145815e-01  4.5104754399602012e+00  2.0132050879130969e+00  1.7954660450337510e+00  4.0189953464210113e+00  2.0034968878865769e+00  3.6561392219232602e+00  4.1910735739238660e+00  4.2173842439713258e+00  3.6780626994257668e+00  1.7931364210762759e+00  2.2411401777910402e+00  2.0007498995193100e+00  1.9411937472902430e+00  3.5576328924129870e+00  4.3242752823731729e+00  3.8034958869794200e+00  3.7935782676008358e+00  1.9284124451366504e+00  2.2238694048953298e+00  1.9940095524260799e+00  2.1816089333019395e+00  2.0170144129956786e+00  3.0420713256709875e+00  2.9744339163556139e+00  1.5743855726716269e+00  1.9567549049753350e+00  2.8165052707523230e+00  3.1365062742540828e+00  2.3368413039508651e+00  1.7933997001539088e+00  1.7277885089166700e+00  2.2151450726200439e+00  1.8856089828769564e+00  2.2615996552596642e+00  2.1665742034021034e+00  1.5405032212326011e+00  3.2897636352573423e-01  3.3542785734908792e-01  3.1438160856996999e-01  3.4427405646429549e-01  3.4244264848365452e-01  3.4181910461384046e-01  3.2091977841816893e-01  2.6854503950247566e-01  4.5131317735696301e+00  2.1884659939754583e+00  2.2883830978622992e+00  4.0911043532961964e+00  1.8233312650373406e+00  2.8321278451849228e+00  2.9079562499893661e+00  2.0995613711741603e+00  2.8184635174649935e+00  1.9275052435859863e+00  1.9748543760812860e+00  2.7643982330835399e+00  1.7550497009727986e+00  1.6603937958401820e+00  1.6097763380092029e+00  1.7216130008734765e+00  1.6235223552960620e+00  1.5511281047691734e+00  1.4028882110452006e+00  1.6808391986852940e+00  1.2303940329692218e+00  8.2593158296562308e-01  1.1138638875737608e+00  8.3898793326498533e-01  1.0514665735949233e+00  8.1393826556257298e-01  1.2064849026072750e+00  8.1079928964485271e-01  1.0823532857753457e+00  9.1768984647945040e-01  1.2029089973239171e+00  8.0781491472653544e-01  1.1891332885558781e+00  7.8856854654901654e-01  1.1429257848130385e+00  7.9825693733886238e-01  1.5578973349270989e-01  1.4042042494329005e-01  1.4637434736035287e-01  1.5063184523690151e-01  4.5317201731201218e+00  9.0451677126814367e+00  8.9983601844770948e+00  1.3526891480682069e+01  1.3442468228440619e+01  1.7965136778026871e+01  1.7840150963793409e+01  2.2349456772913406e+01  2.2168261908921345e+01  2.6666096487333427e+01  2.6419035164347438e+01  3.0903748653134485e+01  3.0582048337748361e+01  3.5050610402880892e+01  3.4645495555703505e+01  3.9095200583402040e+01  3.8593791128024556e+01  4.3023952483180857e+01  4.2426648162555203e+01  4.6819438479792403e+01  4.6120558574637656e+01  4.7452447177699938e+01  5.0487887676048800e+01  4.9665912714364929e+01  5.4006927518961191e+01  5.3060077750656994e+01  5.7351718456054741e+01  5.6280989307911106e+01  6.0524180878399385e+01  5.9321723893670239e+01  6.3506227363627993e+01  6.2171836394752475e+01  6.4763433423086383e+01  6.6285496457670945e+01  6.4821119274910416e+01  6.8870263811885835e+01  6.7265033112056742e+01  7.1248003466260684e+01  6.9492407781221473e+01  7.3395019719316920e+01  7.1504588975503950e+01  7.5314033371059708e+01  7.3289629225314854e+01  7.7280337005801513e+01  7.7001357430601402e+01  7.4847572996232770e+01  7.8455485092505285e+01  7.6172876380415431e+01  7.2629222102003453e+01  7.3845455915665013e+01  7.7273691583357348e+01  7.4849893744971013e+01  7.1507568012078920e+01  7.2411716229710422e+01  6.9165380882586291e+01  6.9968896507078853e+01  7.3098483642504178e+01  7.0568571824838060e+01  6.7525055749596063e+01  6.8045622622228407e+01  6.5087130538713467e+01  6.5534908661029945e+01  6.8378029921833175e+01  6.5802097212645478e+01  6.3040775972125452e+01  6.3247862174210802e+01  6.5895709586874034e+01  6.3289090220683811e+01  6.0718026655875249e+01  6.0710919403058291e+01  6.3172347416545335e+01  6.0553364851006990e+01  6.2906587998479225e+01  5.8214698785894328e+01  6.0253973060859856e+01  6.2500845903422842e+01  5.9821915667550478e+01  6.1965384760823248e+01  5.9266861821956631e+01  6.1310529063578322e+01  5.8598852835102498e+01  6.0546367488944426e+01  5.6608025162800914e+01  5.7827889271863711e+01  5.9684024678160149e+01  5.6964271806571972e+01  5.8734201534015838e+01  5.6018360393066573e+01  5.7707500028613694e+01  5.5000096939571037e+01  5.6614469449575502e+01  5.3919457740482237e+01  5.5464958625491512e+01  5.2785778080713008e+01  5.4268809119502365e+01  5.2333892968532851e+01  6.4065099565660560e+01  1.1230405916028295e+02  5.1607936018605344e+01  5.3035050972699345e+01  5.0394870375427566e+01  5.1772164562495043e+01  1.0070161828738945e+02  4.9154278317294860e+01  5.0488009505135807e+01  9.2514183085416548e+01  4.7893420302830954e+01  4.9189682731183993e+01  5.1794913454759246e+01  5.0462529764191707e+01  4.7883403114587857e+01  4.9128088836159492e+01  5.9354378868806457e+01  4.6571829301002381e+01  4.6574976733952035e+01  4.7797117045624546e+01  5.0355908358437908e+01  4.9005598429648877e+01  4.6473419279339439e+01  4.7667760952794623e+01  5.0204483024224771e+01  4.8856153177789714e+01  4.6345070146488439e+01  4.7527585298971438e+01  5.0042884152809776e+01  4.8711781848436729e+01  4.6220085423441162e+01  4.7404840643927528e+01  4.9905199335176803e+01  4.8600826140594457e+01  4.6123048571391209e+01  4.7323159137450624e+01  4.9807737498462330e+01  4.8538678203607326e+01  4.6072710156400404e+01  4.7298263730936632e+01  4.9773866330924513e+01  4.8545085645871396e+01  5.1033123746298820e+01  4.9816841910401358e+01  4.7341338169054595e+01  4.8625243111472230e+01  5.1116904985273393e+01  4.9937540238478896e+01  4.7454463771265111e+01  4.8777619589652844e+01  5.1280789431703077e+01  5.0130520877794645e+01  5.2656782785391002e+01  5.1514379359750606e+01  5.4066926125172792e+01  5.2929953002952686e+01  5.0381878124116248e+01  5.1799668024155451e+01  5.4377226167138062e+01  5.3245483214175444e+01  5.5855256945839237e+01  5.4717715246420155e+01  5.7362251271307564e+01  5.6213773224382621e+01  5.8895268676577615e+01  5.7730081773092138e+01  5.5053912507840160e+01  5.6548887019586495e+01  5.9262155694376453e+01  5.8053988618210283e+01  6.0802694609934342e+01  5.9560842392904334e+01  6.2347339065416591e+01  6.1062911964878907e+01  6.3891889986357597e+01  6.2551975592190800e+01  6.5418237599357880e+01  6.4019617838095343e+01  6.6916266232791870e+01  6.5452824871388643e+01  6.8380494252836726e+01  6.6841759819217771e+01  6.9809054672699773e+01  6.8176381553705752e+01  7.1167388314568640e+01  6.9440753310887530e+01  7.2434496476333337e+01  7.0618410009886560e+01  7.3622736609004249e+01  7.1701457886154060e+01  7.4710845184838263e+01  6.8743128024765667e+01  6.9720085554085713e+01  6.6810582982962316e+01  6.7679266036971129e+01  6.4821972126180540e+01  6.5582515652924286e+01  6.2778908911614423e+01  6.3431990284221406e+01  6.0684250937516175e+01  6.1231208040486798e+01  6.3956504233335203e+01  5.8542055201029491e+01  5.8283898429497697e+01  6.1646100965045100e+01  6.4341794585398034e+01  6.1920098590545486e+01  6.4577954799019892e+01  6.2042376774901456e+01  6.4655319140095799e+01  6.2003879059958585e+01  6.4565086025348847e+01  6.1798435500783683e+01  5.9316945382566495e+01  6.4299738952040371e+01  5.9000506207624504e+01  5.6600837255850884e+01  5.6177309384306078e+01  5.3861543125903452e