<?xml version="1.0"?>
<VTKFile type="UnstructuredGrid"  version="0.1"  >
<UnstructuredGrid>
<Piece  NumberOfPoints="11902" NumberOfCells="23402">
<Points>
<DataArray  type="Float64"  NumberOfComponents="3"  format="ascii">-5 -5 0  5 -5 0  5 5 0  -5 5 0  1.94189983730463 0.01743299750025602 0  -4.9 -5 0  -4.8 -5 0  -4.7 -5 0  -4.6 -5 0  -4.5 -5 0  -4.4 -5 0  -4.3 -5 0  -4.2 -5 0  -4.1 -5 0  -4 -5 0  -3.9 -5 0  -3.8 -5 0  -3.7 -5 0  -3.6 -5 0  -3.5 -5 0  -3.4 -5 0  -3.3 -5 0  -3.2 -5 0  -3.1 -5 0  -3 -5 0  -2.9 -5 0  -2.8 -5 0  -2.7 -5 0  -2.6 -5 0  -2.5 -5 0  -2.4 -5 0  -2.3 -5 0  -2.2 -5 0  -2.1 -5 0  -2 -5 0  -1.9 -5 0  -1.8 -5 0  -1.7 -5 0  -1.6 -5 0  -1.5 -5 0  -1.4 -5 0  -1.3 -5 0  -1.2 -5 0  -1.1 -5 0  -1 -5 0  -0.9000000000000004 -5 0  -0.7999999999999998 -5 0  -0.7000000000000002 -5 0  -0.5999999999999996 -5 0  -0.5 -5 0  -0.4000000000000004 -5 0  -0.2999999999999998 -5 0  -0.2000000000000002 -5 0  -0.09999999999999964 -5 0  0 -5 0  0.09999999999999964 -5 0  0.2000000000000002 -5 0  0.2999999999999998 -5 0  0.4000000000000004 -5 0  0.5 -5 0  0.5999999999999996 -5 0  0.7000000000000002 -5 0  0.7999999999999998 -5 0  0.9000000000000004 -5 0  1 -5 0  1.1 -5 0  1.2 -5 0  1.3 -5 0  1.4 -5 0  1.5 -5 0  1.6 -5 0  1.7 -5 0  1.8 -5 0  1.9 -5 0  2 -5 0  2.1 -5 0  2.2 -5 0  2.3 -5 0  2.4 -5 0  2.5 -5 0  2.6 -5 0  2.7 -5 0  2.8 -5 0  2.9 -5 0  3 -5 0  3.1 -5 0  3.199999999999999 -5 0  3.300000000000001 -5 0  3.4 -5 0  3.5 -5 0  3.6 -5 0  3.699999999999999 -5 0  3.800000000000001 -5 0  3.9 -5 0  4 -5 0  4.1 -5 0  4.199999999999999 -5 0  4.300000000000001 -5 0  4.4 -5 0  4.5 -5 0  4.6 -5 0  4.699999999999999 -5 0  4.800000000000001 -5 0  4.9 -5 0  5 -4.9 0  5 -4.8 0  5 -4.7 0  5 -4.6 0  5 -4.5 0  5 -4.4 0  5 -4.3 0  5 -4.2 0  5 -4.1 0  5 -4 0  5 -3.9 0  5 -3.8 0  5 -3.7 0  5 -3.6 0  5 -3.5 0  5 -3.4 0  5 -3.3 0  5 -3.2 0  5 -3.1 0  5 -3 0  5 -2.9 0  5 -2.8 0  5 -2.7 0  5 -2.6 0  5 -2.5 0  5 -2.4 0  5 -2.3 0  5 -2.2 0  5 -2.1 0  5 -2 0  5 -1.9 0  5 -1.8 0  5 -1.7 0  5 -1.6 0  5 -1.5 0  5 -1.4 0  5 -1.3 0  5 -1.2 0  5 -1.1 0  5 -1 0  5 -0.9000000000000004 0  5 -0.7999999999999998 0  5 -0.7000000000000002 0  5 -0.5999999999999996 0  5 -0.5 0  5 -0.4000000000000004 0  5 -0.2999999999999998 0  5 -0.2000000000000002 0  5 -0.09999999999999964 0  5 0 0  5 0.09999999999999964 0  5 0.2000000000000002 0  5 0.2999999999999998 0  5 0.4000000000000004 0  5 0.5 0  5 0.5999999999999996 0  5 0.7000000000000002 0  5 0.7999999999999998 0  5 0.9000000000000004 0  5 1 0  5 1.1 0  5 1.2 0  5 1.3 0  5 1.4 0  5 1.5 0  5 1.6 0  5 1.7 0  5 1.8 0  5 1.9 0  5 2 0  5 2.1 0  5 2.2 0  5 2.3 0  5 2.4 0  5 2.5 0  5 2.6 0  5 2.7 0  5 2.8 0  5 2.9 0  5 3 0  5 3.1 0  5 3.199999999999999 0  5 3.300000000000001 0  5 3.4 0  5 3.5 0  5 3.6 0  5 3.699999999999999 0  5 3.800000000000001 0  5 3.9 0  5 4 0  5 4.1 0  5 4.199999999999999 0  5 4.300000000000001 0  5 4.4 0  5 4.5 0  5 4.6 0  5 4.699999999999999 0  5 4.800000000000001 0  5 4.9 0  4.9 5 0  4.8 5 0  4.7 5 0  4.6 5 0  4.5 5 0  4.4 5 0  4.3 5 0  4.2 5 0  4.1 5 0  4 5 0  3.9 5 0  3.8 5 0  3.7 5 0  3.6 5 0  3.5 5 0  3.4 5 0  3.3 5 0  3.2 5 0  3.1 5 0  3 5 0  2.9 5 0  2.8 5 0  2.7 5 0  2.6 5 0  2.5 5 0  2.4 5 0  2.3 5 0  2.2 5 0  2.1 5 0  2 5 0  1.9 5 0  1.8 5 0  1.7 5 0  1.6 5 0  1.5 5 0  1.4 5 0  1.3 5 0  1.2 5 0  1.1 5 0  1 5 0  0.9000000000000004 5 0  0.7999999999999998 5 0  0.7000000000000002 5 0  0.5999999999999996 5 0  0.5 5 0  0.4000000000000004 5 0  0.2999999999999998 5 0  0.2000000000000002 5 0  0.09999999999999964 5 0  0 5 0  -0.09999999999999964 5 0  -0.2000000000000002 5 0  -0.2999999999999998 5 0  -0.4000000000000004 5 0  -0.5 5 0  -0.5999999999999996 5 0  -0.7000000000000002 5 0  -0.7999999999999998 5 0  -0.9000000000000004 5 0  -1 5 0  -1.1 5 0  -1.2 5 0  -1.3 5 0  -1.4 5 0  -1.5 5 0  -1.6 5 0  -1.7 5 0  -1.8 5 0  -1.9 5 0  -2 5 0  -2.1 5 0  -2.2 5 0  -2.3 5 0  -2.4 5 0  -2.5 5 0  -2.6 5 0  -2.7 5 0  -2.8 5 0  -2.9 5 0  -3 5 0  -3.1 5 0  -3.199999999999999 5 0  -3.300000000000001 5 0  -3.4 5 0  -3.5 5 0  -3.6 5 0  -3.699999999999999 5 0  -3.800000000000001 5 0  -3.9 5 0  -4 5 0  -4.1 5 0  -4.199999999999999 5 0  -4.300000000000001 5 0  -4.4 5 0  -4.5 5 0  -4.6 5 0  -4.699999999999999 5 0  -4.800000000000001 5 0  -4.9 5 0  -5 4.9 0  -5 4.8 0  -5 4.7 0  -5 4.6 0  -5 4.5 0  -5 4.4 0  -5 4.3 0  -5 4.2 0  -5 4.1 0  -5 4 0  -5 3.9 0  -5 3.8 0  -5 3.7 0  -5 3.6 0  -5 3.5 0  -5 3.4 0  -5 3.3 0  -5 3.2 0  -5 3.1 0  -5 3 0  -5 2.9 0  -5 2.8 0  -5 2.7 0  -5 2.6 0  -5 2.5 0  -5 2.4 0  -5 2.3 0  -5 2.2 0  -5 2.1 0  -5 2 0  -5 1.9 0  -5 1.8 0  -5 1.7 0  -5 1.6 0  -5 1.5 0  -5 1.4 0  -5 1.3 0  -5 1.2 0  -5 1.1 0  -5 1 0  -5 0.9000000000000004 0  -5 0.7999999999999998 0  -5 0.7000000000000002 0  -5 0.5999999999999996 0  -5 0.5 0  -5 0.4000000000000004 0  -5 0.2999999999999998 0  -5 0.2000000000000002 0  -5 0.09999999999999964 0  -5 0 0  -5 -0.09999999999999964 0  -5 -0.2000000000000002 0  -5 -0.2999999999999998 0  -5 -0.4000000000000004 0  -5 -0.5 0  -5 -0.5999999999999996 0  -5 -0.7000000000000002 0  -5 -0.7999999999999998 0  -5 -0.9000000000000004 0  -5 -1 0  -5 -1.1 0  -5 -1.2 0  -5 -1.3 0  -5 -1.4 0  -5 -1.5 0  -5 -1.6 0  -5 -1.7 0  -5 -1.8 0  -5 -1.9 0  -5 -2 0  -5 -2.1 0  -5 -2.2 0  -5 -2.3 0  -5 -2.4 0  -5 -2.5 0  -5 -2.6 0  -5 -2.7 0  -5 -2.8 0  -5 -2.9 0  -5 -3 0  -5 -3.1 0  -5 -3.199999999999999 0  -5 -3.300000000000001 0  -5 -3.4 0  -5 -3.5 0  -5 -3.6 0  -5 -3.699999999999999 0  -5 -3.800000000000001 0  -5 -3.9 0  -5 -4 0  -5 -4.1 0  -5 -4.199999999999999 0  -5 -4.300000000000001 0  -5 -4.4 0  -5 -4.5 0  -5 -4.6 0  -5 -4.699999999999999 0  -5 -4.800000000000001 0  -5 -4.9 0  2.333856478824439 0.2509808977719077 0  1.943467784220042 0.3683933742052116 0  2.286264833522782 0.6813753205741033 0  1.76718834342595 0.6712728467017808 0  1.795081410862511 0.9228519542768591 0  1.531522984753209 1.0044298112517 0  1.377280303592309 1.246360344037138 0  1.181462187629659 1.068902119452699 0  1.137062818347429 1.295276588227633 0  0.9523469782491288 1.437689986014918 0  0.782925514576842 1.449552475928763 0  0.6488437182295054 1.489899323524258 0  0.4637571570156671 1.574283725514207 0  0.2964762965939708 1.604870981282902 0  0.1336524197471144 1.636079206690297 0  -0.0246371436033001 1.630253598742358 0  -0.2315660602620589 1.60011630617131 0  -0.3934372471623301 1.595290475654596 0  -0.5474104437900356 1.549104140747252 0  -0.7062210845150673 1.473966898206647 0  -0.8776407627906482 1.438379333232123 0  -1.042613859025221 1.324759087960771 0  -1.191770414221805 1.220215923109886 0  -1.398705979610131 1.275416784306941 0  -1.276223506415892 0.8977281234230627 0  -1.582695487312898 1.025979030825893 0  -1.898830042649562 0.9013380401860485 0  -1.827742325003428 0.6639709630391157 0  -2.106535958234357 0.5646972478379151 0  -2.175755820988677 0.3041772959430361 0  -2.253323769236684 0.06615513933202563 0  -1.885534685337491 -0.1321776833051435 0  -2.43405272465616 -0.4254767651430709 0  -1.970713777783552 -0.4357069776123946 0  -1.864462896022671 -0.6550232328964682 0  -1.907929508228225 -0.9419087804521754 0  -1.508299410571069 -0.8352438665814397 0  -1.542007639193848 -1.037354037457094 0  -1.370825262689291 -1.209494619013275 0  -1.164777428269594 -1.215646329104638 0  -1.030005520587004 -1.34840716348608 0  -0.870409771548291 -1.469132848203428 0  -0.7009415032572969 -1.501910857434031 0  -0.5399865923970544 -1.543911556393254 0  -0.3816373468665599 -1.608547107061345 0  -0.211586647598732 -1.615334527253668 0  -0.0480240696110534 -1.634332966351026 0  0.1419315034027138 -1.630780685703223 0  0.2916589725662037 -1.62190396087348 0  0.4705602751285697 -1.589524244698242 0  0.6321301356375068 -1.526349107764317 0  0.7726172208884707 -1.409755114036334 0  0.9491173852015019 -1.431986241305597 0  1.117988426970347 -1.317437425265289 0  1.296277204161611 -1.264483667746588 0  1.405939652011874 -1.095007829455124 0  1.51638639227882 -0.952027797620126 0  1.782633531080465 -0.9294249855517389 0  1.880326170519524 -0.7575508519960937 0  1.913068939455653 -0.5446749277888395 0  2.226954153082293 -0.442680334480014 0  2.188066627131491 -0.187934678602409 0  -2.449863003898609 4.920174137709563 0  -2.449819570672389 -4.912720318274804 0  4.911293995773985 2.448356494692589 0  4.919317025494129 -2.44968051994009 0  2.447745127674565 -4.898299639102044 0  2.442160234908553 4.902054033101996 0  -4.911331708195706 -2.448372502768919 0  -4.911378095650439 2.4483768850991 0  -1.750119763708196 4.914267550960786 0  -1.745810823763097 -4.917539912193626 0  4.921008393015 1.744032316886009 0  4.909540829361175 -1.747932768825171 0  -4.909913345337389 -1.747632606973793 0  -4.91077349739798 1.74737400743171 0  1.747525058278965 4.908339695132088 0  1.749085089207445 -4.896837059130212 0  -1.150250133232174 4.913063984881556 0  -1.13096389670397 -4.920484451965945 0  -4.908971961451395 -1.147668555192061 0  -4.908813511066037 1.147457867355149 0  1.145136862177569 -4.916871997593624 0  1.150260971106096 4.913015783041231 0  4.909089808098956 1.145927291856267 0  4.919901772693979 -1.151623222986977 0  -0.5474273850451673 -4.914741039072092 0  -0.5471438370806526 4.923064294219537 0  -4.906999569406317 -0.5484478996671466 0  -4.907036269423704 0.5469834183205562 0  4.906180913086803 -0.5487773132071557 0  4.918013722239629 0.5454633123722313 0  0.5433596552795597 -4.902281279661008 0  0.551902181252274 4.920053122213587 0  -4.912781737511811 -3.048868078279857 0  4.919301918342867 3.046818955699748 0  4.912276779430884 -3.048836140718687 0  -4.913656891952966 3.045948168925876 0  3.05625106128792 -4.918809213711259 0  -3.049640852396554 -4.912777369246441 0  3.053200229122726 4.914890537427715 0  -3.049123253547829 4.913728438853284 0  -4.905817670332996 -0.04988604655578111 0  0.04519499045232706 -4.916798126543995 0  0.04963138489571794 4.923520471224554 0  4.912881986619436 -0.05129219183943692 0  3.54625215096692 -4.919953622800991 0  -3.549620257334969 4.912995269498768 0  -3.549583580239629 -4.913007339606292 0  4.91
[...]
<PointData  Vectors="f_6250"> 
<DataArray  type="Float64"  Name="f_6250"  NumberOfComponents="3" format="ascii">-1.5332570716412752e-01 -1.7891230776834005e-01 0.0000000000000000e+00  1.6699470788334581e-01 -1.4127049970159339e-01 0.0000000000000000e+00  9.7459039541130013e-02 1.1384755018489029e-01 0.0000000000000000e+00  -1.6106714863926694e-01 1.8390436625925044e-01 0.0000000000000000e+00  1.0268187208613750e+01 -4.5845324203758926e+00 0.0000000000000000e+00  5.9008420261116988e-02 -1.3550711551137666e+00 0.0000000000000000e+00  4.9703074274207122e-02 -2.1997519812468251e+00 0.0000000000000000e+00  5.2578349537451663e-02 -3.6308444759145271e+00 0.0000000000000000e+00  4.0255221925340708e-02 -4.4881567217652494e+00 0.0000000000000000e+00  -9.8297047735232873e-02 -5.8303644056945974e+00 0.0000000000000000e+00  1.9943401895245867e-02 -7.1611200034071087e+00 0.0000000000000000e+00  3.4901267598768278e-02 -8.1643159694048002e+00 0.0000000000000000e+00  -1.6336104001771056e-02 -9.3896293084371898e+00 0.0000000000000000e+00  6.1186221914112035e-02 -1.0346015934752927e+01 0.0000000000000000e+00  6.1735920987111975e-02 -1.1739821524839478e+01 0.0000000000000000e+00  -9.4070894741604995e-03 -1.2670606073890676e+01 0.0000000000000000e+00  -1.6755384059923627e-02 -1.3892981542658381e+01 0.0000000000000000e+00  7.5551038427876215e-03 -1.5082791119083810e+01 0.0000000000000000e+00  5.1616141547137602e-03 -1.6205875350826627e+01 0.0000000000000000e+00  -6.2701700048025753e-03 -1.7347042792199481e+01 0.0000000000000000e+00  4.0843233266279625e-03 -1.8534217750040895e+01 0.0000000000000000e+00  2.4311928987140696e-02 -1.9679697460814854e+01 0.0000000000000000e+00  -3.2849461577716091e-03 -2.0588272197359249e+01 0.0000000000000000e+00  -7.9261772289427098e-03 -2.1841402146033918e+01 0.0000000000000000e+00  -3.1272864212356845e-02 -2.3093628530995559e+01 0.0000000000000000e+00  8.1693936911124351e-02 -2.3975004050112421e+01 0.0000000000000000e+00  3.6486377195458788e-02 -2.5248467782269934e+01 0.0000000000000000e+00  4.3636266816595687e-02 -2.6075287592631362e+01 0.0000000000000000e+00  7.2212864467185250e-02 -2.7295671189760242e+01 0.0000000000000000e+00  -3.3831579817065707e-02 -2.8151688667192950e+01 0.0000000000000000e+00  -1.1336409882547119e-02 -2.9323796349341769e+01 0.0000000000000000e+00  -4.2007797248362075e-03 -3.0416300503679871e+01 0.0000000000000000e+00  5.2905556988799840e-02 -3.1187414802271267e+01 0.0000000000000000e+00  3.8550914672984965e-02 -3.2359704249168139e+01 0.0000000000000000e+00  3.8314295698077899e-02 -3.3053606816422445e+01 0.0000000000000000e+00  -8.6063390965368539e-02 -3.4111335913967999e+01 0.0000000000000000e+00  3.7406197750630837e-02 -3.5104005165428006e+01 0.0000000000000000e+00  5.8069091616918481e-03 -3.5821868552973605e+01 0.0000000000000000e+00  -1.1989625697769665e-03 -3.6627294931404499e+01 0.0000000000000000e+00  -1.3858715644991745e-03 -3.7399381603904352e+01 0.0000000000000000e+00  6.4172444680017102e-03 -3.8135984736223939e+01 0.0000000000000000e+00  -3.7016502042617430e-02 -3.8899342240809325e+01 0.0000000000000000e+00  4.5073031417747066e-02 -3.9475958546166822e+01 0.0000000000000000e+00  2.4335361553217173e-02 -4.0072902441832170e+01 0.0000000000000000e+00  1.8480938533069424e-02 -4.0682526862579245e+01 0.0000000000000000e+00  -1.0285765474139782e-02 -4.1209301126433679e+01 0.0000000000000000e+00  4.3556065440849376e-02 -4.1568483181357344e+01 0.0000000000000000e+00  -3.2149695285832280e-02 -4.2057078356323181e+01 0.0000000000000000e+00  1.7834418803423898e-02 -4.2459364695806983e+01 0.0000000000000000e+00  -3.8319895895462456e-03 -4.2707149661517555e+01 0.0000000000000000e+00  1.3084495680495789e-03 -4.2969007006715863e+01 0.0000000000000000e+00  -9.2172496338079068e-04 -4.3163879797365183e+01 0.0000000000000000e+00  4.2133370120031393e-04 -4.3303103189470001e+01 0.0000000000000000e+00  2.3571993268124987e-04 -4.3384902198213133e+01 0.0000000000000000e+00  1.8668126103458282e-03 -4.3409951298453635e+01 0.0000000000000000e+00  5.8022124935323946e-04 -4.3389281427467353e+01 0.0000000000000000e+00  8.4695320816699574e-03 -4.3291124492714893e+01 0.0000000000000000e+00  -1.1447772772189486e-02 -4.3111884283404066e+01 0.0000000000000000e+00  -5.7739351857548230e-03 -4.2956978362265517e+01 0.0000000000000000e+00  -2.2024293372778846e-02 -4.2640925791598946e+01 0.0000000000000000e+00  7.2011549095519958e-03 -4.2383953006303599e+01 0.0000000000000000e+00  6.1345451644524681e-03 -4.1996884996236247e+01 0.0000000000000000e+00  -4.4876284407941959e-03 -4.1558153822110810e+01 0.0000000000000000e+00  -9.3385540968171220e-04 -4.1099630920489602e+01 0.0000000000000000e+00  5.5439311410782179e-03 -4.0572556083588331e+01 0.0000000000000000e+00  -1.2459817056752384e-02 -4.0002041011926472e+01 0.0000000000000000e+00  -7.7633970841687501e-03 -3.9365779723397097e+01 0.0000000000000000e+00  8.5478146330480575e-03 -3.8791703071693540e+01 0.0000000000000000e+00  -2.0432150819281292e-02 -3.8029476904145511e+01 0.0000000000000000e+00  2.3693449161630097e-02 -3.7282379266392482e+01 0.0000000000000000e+00  -3.0170506702489948e-02 -3.6513382477964278e+01 0.0000000000000000e+00  5.5054180206762253e-03 -3.5657575097154925e+01 0.0000000000000000e+00  1.4876962173527054e-02 -3.4884456392656794e+01 0.0000000000000000e+00  -2.1707187767261320e-02 -3.3970922004793010e+01 0.0000000000000000e+00  1.5333361029430987e-02 -3.3042419196000672e+01 0.0000000000000000e+00  -1.1527169340878484e-02 -3.2103445857796160e+01 0.0000000000000000e+00  4.9852659989726980e-03 -3.1161222321190628e+01 0.0000000000000000e+00  -2.0857393039018443e-02 -3.0192171585955343e+01 0.0000000000000000e+00  -6.7947780568124857e-03 -2.9137762322995197e+01 0.0000000000000000e+00  9.4771394382691873e-03 -2.8259966731314258e+01 0.0000000000000000e+00  1.7698857687436973e-03 -2.7152188591937765e+01 0.0000000000000000e+00  8.4862788067534625e-03 -2.6076135311050113e+01 0.0000000000000000e+00  -3.0420613303466064e-02 -2.5025793766449297e+01 0.0000000000000000e+00  -1.1229604698305789e-02 -2.3842012096554949e+01 0.0000000000000000e+00  1.9707926420937324e-02 -2.2871516749693722e+01 0.0000000000000000e+00  -2.9914066549090335e-02 -2.1684949199655509e+01 0.0000000000000000e+00  1.5186541858828416e-03 -2.0629361542755543e+01 0.0000000000000000e+00  1.1569731786650460e-02 -1.9548911964024022e+01 0.0000000000000000e+00  1.2620905506451298e-02 -1.8355028355594349e+01 0.0000000000000000e+00  -3.5497367632964405e-02 -1.7266409414178352e+01 0.0000000000000000e+00  6.8777529402319765e-03 -1.6056572226707665e+01 0.0000000000000000e+00  8.0167192756521576e-03 -1.5032608235971988e+01 0.0000000000000000e+00  -2.8253220594080555e-02 -1.3800086215346795e+01 0.0000000000000000e+00  -5.7796200351170612e-04 -1.2708572428745081e+01 0.0000000000000000e+00  1.5543828660337888e-02 -1.1531144344038648e+01 0.0000000000000000e+00  -8.7981593775227150e-04 -1.0364687756223429e+01 0.0000000000000000e+00  -1.5309925516789917e-02 -9.2388767995104022e+00 0.0000000000000000e+00  -1.1799960211594074e-02 -8.0390790393625604e+00 0.0000000000000000e+00  2.2814411294554492e-02 -7.0142935986595685e+00 0.0000000000000000e+00  -3.4703760210027412e-02 -5.7715191067120548e+00 0.0000000000000000e+00  8.3264912345307231e-03 -4.6437278786953353e+00 0.0000000000000000e+00  1.9075956498749568e-02 -3.4575279073226626e+00 0.0000000000000000e+00  -2.9797859776307608e-02 -2.2959823067811866e+00 0.0000000000000000e+00  -3.6644347817696640e-02 -1.3290767222026414e+00 0.0000000000000000e+00  1.3831972397611894e+00 3.3220107643230572e-02 0.0000000000000000e+00  2.2194332034729460e+00 8.4782061689130300e-02 0.0000000000000000e+00  3.5720490143534849e+00 6.2027678444186933e-02 0.0000000000000000e+00  4.5653470340679174e+00 -1.8991826538509924e-02 0.0000000000000000e+00  5.8017470961613240e+00 8.9426178085705681e-03 0.0000000000000000e+00  6.9406500650350287e+00 -6.4309360857836353e-03 0.0000000000000000e+00  8.0956771897516173e+00 1.2537496640755068e-03 0.0000000000000000e+00  9.2559210586834215e+00 -1.9088275047025455e-03 0.0000000000000000e+00  1.0408046191846468e+01 5.4426312157764228e-04 0.0000000000000000e+00  1.1586356039202492e+01 -3.6376602483530006e-04 0.0000000000000000e+00  1.2727852908686854e+01 -3.9718256846020752e-05 0.0000000000000000e+00  1.3899266827391612e+01 3.9150059306529974e-03 0.0000000000000000e+00  1.5021443670651802e+01 1.6327134234147146e-03 0.0000000000000000e+00  1.6221619235121072e+01 -7.8432132740900544e-03 0.0000000000000000e+00  1.7348868344677253e+01 3.9661521905125056e-03 0.0000000000000000e+00  1.8541508424051788e+01 3.3097701388839895e-03 0.0000000000000000e+00  1.9659229679536281e+01 -3.3844163830147153e-03 0.0000000000000000e+00  2.0790370535359788e+01 7.8191284598873988e-03 0.0000000000000000e+00  2.1974096025051480e+01 -7.7385469692487496e-03 0.0000000000000000e+00  2.3077845858281911e+01 -5.1970266878187225e-03 0.0000000000000000e+00  2.4235648009943297e+01 1.0665163078458845e-02 0.0000000000000000e+00  2.5370109531479901e+01 -1.1582509897632036e-02 0.0000000000000000e+00  2.6423279690389865e+01 8.3252651746825689e-03 0.0000000000000000e+00  2.7549165430007466e+01 1.8938920949788621e-03 0.0000000000000000e+00  2.8662212414204969e+01 4.9864650072950047e-03 0.0000000000000000e+00  2.9754926100679413e+01 -3.0419299645711865e-03 0.0000000000000000e+00  3.0810381579175392e+01 -2.1577330207850970e-03 0.0000000000000000e+00  3.1838797907112383e+01 -1.6168078530399770e-03 0.0000000000000000e+00  3.2861321707426640e+01 8.4760579270978524e-05 0.0000000000000000e+00  3.3861838918417604e+01 -4.1366477761242145e-04 0.0000000000000000e+00  3.4838154225402377e+01 2.1734607461582276e-04 0.0000000000000000e+00  3.5786293770869406e+01 -2.4217423416563522e-03 0.0000000000000000e+00  3.6695051382591032e+01 -9.9013264031855308e-04 0.0000000000000000e+00  3.7596460500260967e+01 4.6398730924134858e-03 0.0000000000000000e+00  3.8462209198442260e+01 -7.3932007583651198e-03 0.0000000000000000e+00  3.9236323540524218e+01 7.5440769879094897e-03 0.0000000000000000e+00  4.0021449415114631e+01 -8.0849034278272888e-04 0.0000000000000000e+00  4.0747133959559051e+01 8.6634374208408790e-03 0.0000000000000000e+00  4.1419246885574054e+01 1.1029798609053723e-02 0.0000000000000000e+00  4.2091246967577440e+01 -3.3162936093249024e-02 0.0000000000000000e+00  4.2722795737329292e+01 2.4304363000287415e-02 0.0000000000000000e+00  4.3201606985699982e+01 -1.0495002658569652e-02 0.0000000000000000e+00  4.3696921656852901e+01 1.4171670984052236e-03 0.0000000000000000e+00  4.4118815601495896e+01 -3.3431350813486103e-03 0.0000000000000000e+00  4.4460821917569319e+01 7.2537916296056115e-03 0.0000000000000000e+00  4.4759259188867148e+01 -1.2396456851558749e-03 0.0000000000000000e+00  4.5003366338422417e+01 5.8102249903694138e-04 0.0000000000000000e+00  4.5178856078261738e+01 -8.1449046674580646e-04 0.0000000000000000e+00  4.5288167409606892e+01 -3.0573715368208999e-04 0.0000000000000000e+00  4.5328793700202397e+01 6.5757880747993440e-04 0.0000000000000000e+00  4.5306484822804023e+01 7.3002686252892734e-04 0.0000000000000000e+00  4.5221494107712005e+01 -1.7483979747100859e-03 0.0000000000000000e+00  4.5065202422462534e+01 1.8934507597063812e-03 0.0000000000000000e+00  4.4844967973889375e+01 1.8013567695807409e-04 0.0000000000000000e+00  4.4571845590554865e+01 -3.4108490409958383e-03 0.0000000000000000e+00  4.4223567146100763e+01 3.9928892918860712e-03 0.0000000000000000e+00  4.3812601601820461e+01 -1.6769023228403683e-04 0.0000000000000000e+00  4.3354971956194440e+01 -4.6747412335103973e-03 0.0000000000000000e+00  4.2820027183156107e+01 9.9539180286929707e-04 0.0000000000000000e+00  4.2255982480241663e+01 2.4609143486251329e-03 0.0000000000000000e+00  4.1628966544271989e+01 -3.2068153421689017e-03 0.0000000000000000e+00  4.0976777474194797e+01 1.0392951610932513e-04 0.0000000000000000e+00  4.0237819669464244e+01 2.2516827811973521e-03 0.0000000000000000e+00  3.9475556154222986e+01 -2.0698157889085834e-03 0.0000000000000000e+00  3.8686767429374541e+01 7.4644064658212972e-03 0.0000000000000000e+00  3.7810758884122421e+01 -5.5346658946548079e-03 0.0000000000000000e+00  3.6949733143675047e+01 -7.2817512774265456e-03 0.0000000000000000e+00  3.6021139525776164e+01 9.4479051448120247e-03 0.0000000000000000e+00  3.5050449151226971e+01 -2.5641403805759912e-03 0.0000000000000000e+00  3.4083279130760175e+01 -4.8961229170748398e-03 0.0000000000000000e+00  3.3074566147695052e+01 4.1108231182584287e-03 0.0000000000000000e+00  3.2051659638338080e+01 3.7045995783309420e-03 0.0000000000000000e+00  3.0998792532622602e+01 -8.4462875036729222e-04 0.0000000000000000e+00  2.9940407638508137e+01 4.4694168831981577e-06 0.0000000000000000e+00  2.8861489450874895e+01 2.2555737639454875e-03 0.0000000000000000e+00  2.7761605971264899e+01 -1.3637117782239630e-03 0.0000000000000000e+00  2.6677499490265394e+01 -2.2145685330755057e-03 0.0000000000000000e+00  2.5575956901136220e+01 6.8243547920439195e-03 0.0000000000000000e+00  2.4407236947531263e+01 -9.2604184965830900e-03 0.0000000000000000e+00  2.3268010545144016e+01 -9.5214609553027733e-04 0.0000000000000000e+00  2.2125455133508066e+01 -1.0006737735348032e-03 0.0000000000000000e+00  2.1013622903328649e+01 -3.4145134536670669e-04 0.0000000000000000e+00  1.9859485440571685e+01 9.4879674875756412e-03 0.0000000000000000e+00  1.8658370180816970e+01 -8.2719057092981579e-03 0.0000000000000000e+00  1.7496169721244623e+01 -1.0410312813758265e-03 0.0000000000000000e+00  1.6330252939086428e+01 6.1374371816895826e-04 0.0000000000000000e+00  1.5139446338902506e+01 4.0119631009703999e-03 0.0000000000000000e+00  1.4005317657576420e+01 1.7477764457091136e-03 0.0000000000000000e+00  1.2819319252039275e+01 -2.5475288884665797e-03 0.0000000000000000e+00  1.1663518039644856e+01 1.1307437566233820e-03 0.0000000000000000e+00  1.0496402446779751e+01 3.9715544545472345e-03 0.0000000000000000e+00  9.3525343716680531e+00 -1.4547020055763916e-03 0.0000000000000000e+00  8.1614418169665885e+00 -3.5722591736817360e-03 0.0000000000000000e+00  6.9945290687147361e+00 6.7306361755484915e-03 0.0000000000000000e+00  5.8486710433749369e+00 -1.1615349450848305e-02 0.0000000000000000e+00  4.7107431193174731e+00 -4.9117775910168656e-03 0.0000000000000000e+00  3.5337719670125014e+00 1.6075856351746531e-02 0.0000000000000000e+00  2.3193976736153061e+00 3.1429462401579217e-04 0.0000000000000000e+00  1.2605281397027661e+00 -4.2109310991229144e-02 0.0000000000000000e+00  -6.7747773734015915e-02 1.3015965085957715e+00 0.0000000000000000e+00  1.6978606996537544e-02 2.2602993568562559e+00 0.0000000000000000e+00  -2.8710030639178995e-02 3.4812419841409947e+00 0.0000000000000000e+00  -2.2518054084272734e-02 4.4775671877208518e+00 0.0000000000000000e+00  9.7684210306510894e-02 5.8202996494029557e+00 0.0000000000000000e+00  -2.4093597308941929e-02 7.1790982762134687e+00 0.0000000000000000e+00  -7.0021040368955054e-02 8.0279757530145144e+00 0.0000000000000000e+00  -9.9456631625851263e-02 9.3948581092864263e+00 0.0000000000000000e+00  2.8271816515838134e-02 1.0345593070371237e+01 0.0000000000000000e+00  3.1041016552137601e-02 1.1629508471301474e+01 0.0000000000000000e+00  -2.8773831860566194e-02 1.2794037723680496e+01 0.0000000000000000e+00  2.0713282668470841e-02 1.3909446742512690e+01 0.0000000000000000e+00  5.1225506855451016e-03 1.5168250776057674e+01 0.0000000000000000e+00  -4.1535090748502698e-03 1.6158657031379178e+01 0.0000000000000000e+00  -1.3278673587133966e-02 1.7378351169320648e+01 0.0000000000000000e+00  -5.7141522616730757e-03 1.8475777685483170e+01 0.0000000000000000e+00  1.5751886017126324e-02 1.9650811041674331e+01 0.0000000000000000e+00  -5.1300010043145248e-03 2.0814289654483680e+01 0.0000000000000000e+00  -1.1842024662422200e-02 2.1895164464367017e+01 0.0000000000000000e+00  -2.9179733040679062e-03 2.3069032788838737e+01 0.0000000000000000e+00  -1.1552074778322558e-02 2.3990565146240929e+01 0.0000000000000000e+00  2.5274589636916332e-02 2.5208444209995424e+01 0.0000000000000000e+00  -2.1142285774384630e-02 2.6251108172997018e+01 0.0000000000000000e+00  2.4939360792779131e-02 2.7316989924554047e+01 0.0000000000000000e+00  8.3880546331614320e-03 2.8438939346296756e+01 0.0000000000000000e+00  -5.8021115458211051e-02 2.9263869125475004e+01 0.0000000000000000e+00  -4.8233283503993613e-02 3.0473698891396431e+01 0.0000000000000000e+00  9.8550862882325670e-03 3.1282287068956826e+01 0.0000000000000000e+00  -3.1051391103107093e-02 3.2298274769601534e+01 0.0000000000000000e+00  -1.5474157151546760e-02 3.3105226987650404e+01 0.0000000000000000e+00  7.6133321229290410e-02 3.4142498924844951e+01 0.0000000000000000e+00  -2.6718312092480750e-02 3.5157534075859672e+01 0.0000000000000000e+00  -4.0209515775742756e-02 3.5794373199522468e+01 0.0000000000000000e+00  -4.4190921936071964e-02 3.6767722788133113e+01 0.0000000000000000e+00  5.8393335676264558e-03 3.7372989406851708e+01 0.0000000000000000e+00  1.3646446531320067e-02 3.8205172820629272e+01 0.0000000000000000e+00  -5.6636831008073998e-03 3.8923450011243638e+01 0.0000000000000000e+00  -1.6588298133978008e-03 3.9557547327536980e+01 0.0000000000000000e+00  1.2057926779603936e-03 4.0164687456959065e+01 0.0000000000000000e+00  1.4219082327941270e-03 4.0752330152040926e+01 0.0000000000000000e+00  -1.0497340310033651e-02 4.1276003211394247e+01 0.0000000000000000e+00  6.5250486498887527e-04 4.1653199174318544e+01 0.0000000000000000e+00  -4.9992111759996206e-04 4.2120484931582617e+01 0.0000000000000000e+00  4.5236849968570657e-03 4.2494110105956295e+01 0.0000000000000000e+00  -8.2825031663458244e-03 4.2793561080091344e+01 0.0000000000000000e+00  8.0770045791917523e-03 4.3060429885008119e+01 0.0000000000000000e+00  -2.8906542280262002e-03 4.3240315892030360e+01 0.0000000000000000e+00  -7.1819278119244984e-03 4.3394151907881003e+01 0.0000000000000000e+00  1.6922631616556520e-03 4.3474725037657493e+01 0.0000000000000000e+00  1.7620523963565950e-03 4.3507239054538573e+01 0.0000000000000000e+00  7.4309586937694625e-03 4.3467555851567631e+01 0.0000000000000000e+00  -8.3537378026864902e-03 4.3386473795444211e+01 0.0000000000000000e+00  3.8112741186866737e-03 4.3243262334594952e+01 0.0000000000000000e+00  -6.8081641683723510e-03 4.3035115806917041e+01 0.0000000000000000e+00  9.6611512523288971e-03 4.2778147243807275e+01 0.0000000000000000e+00  -8.5277271614767371e-03 4.2439720733342774e+01 0.0000000000000000e+00  1.8741325833882830e-02 4.2132732982848225e+01 0.0000000000000000e+00  2.1674920458883248e-02 4.1625768801503199e+01 0.0000000000000000e+00  1.2431753161467695e-02 4.1260879569392507e+01 0.0000000000000000e+00  4.4454038387526471e-02 4.0660916468443027e+01 0.0000000000000000e+00  -2.1573921396840300e-02 4.0204101958559150e+01 0.0000000000000000e+00  -7.6858529560953773e-03 3.9520373395120700e+01 0.0000000000000000e+00  8.6687174209984594e-03 3.8831304014730421e+01 0.0000000000000000e+00  -1.9512957356613199e-03 3.8157315429589033e+01 0.0000000000000000e+00  -6.6143947025119724e-04 3.7424237949368226e+01 0.0000000000000000e+00  -2.8499333887193313e-03 3.6631260407661038e+01 0.0000000000000000e+00  3.3383690040405620e-03 3.5830245475406521e+01 0.0000000000000000e+00  -1.6333675660182911e-02 3.4975877495835832e+01 0.0000000000000000e+00  3.0087795657956766e-02 3.4098632290150910e+01 0.0000000000000000e+00  -2.1240820954417997e-02 3.3119327731921615e+01 0.0000000000000000e+00  2.3604477431567589e-02 3.2312850920743756e+01 0.0000000000000000e+00  6.2245176270461847e-03 3.1357405987307107e+01 0.0000000000000000e+00  -2.5757447326215314e-02 3.0327653444654025e+01 0.0000000000000000e+00  1.6995713872747256e-02 2.9309400759817922e+01 0.0000000000000000e+00  -2.1375578116500482e-02 2.8300236126355188e+01 0.0000000000000000e+00  1.0455201276109900e-02 2.7202750308016057e+01 0.0000000000000000e+00  -4.5255374087536833e-03 2.6135855814698761e+01 0.0000000000000000e+00  4.4269889530878542e-02 2.5246185379132644e+01 0.0