<?xml version="1.0"?>
<VTKFile type="UnstructuredGrid"  version="0.1"  >
<UnstructuredGrid>
<Piece  NumberOfPoints="11902" NumberOfCells="23402">
<Points>
<DataArray  type="Float64"  NumberOfComponents="3"  format="ascii">-5 -5 0  5 -5 0  5 5 0  -5 5 0  1 0 0  -4.9 -5 0  -4.8 -5 0  -4.7 -5 0  -4.6 -5 0  -4.5 -5 0  -4.4 -5 0  -4.3 -5 0  -4.2 -5 0  -4.1 -5 0  -4 -5 0  -3.9 -5 0  -3.8 -5 0  -3.7 -5 0  -3.6 -5 0  -3.5 -5 0  -3.4 -5 0  -3.3 -5 0  -3.2 -5 0  -3.1 -5 0  -3 -5 0  -2.9 -5 0  -2.8 -5 0  -2.7 -5 0  -2.6 -5 0  -2.5 -5 0  -2.4 -5 0  -2.3 -5 0  -2.2 -5 0  -2.1 -5 0  -2 -5 0  -1.9 -5 0  -1.8 -5 0  -1.7 -5 0  -1.6 -5 0  -1.5 -5 0  -1.4 -5 0  -1.3 -5 0  -1.2 -5 0  -1.1 -5 0  -1 -5 0  -0.9000000000000004 -5 0  -0.7999999999999998 -5 0  -0.7000000000000002 -5 0  -0.5999999999999996 -5 0  -0.5 -5 0  -0.4000000000000004 -5 0  -0.2999999999999998 -5 0  -0.2000000000000002 -5 0  -0.09999999999999964 -5 0  0 -5 0  0.09999999999999964 -5 0  0.2000000000000002 -5 0  0.2999999999999998 -5 0  0.4000000000000004 -5 0  0.5 -5 0  0.5999999999999996 -5 0  0.7000000000000002 -5 0  0.7999999999999998 -5 0  0.9000000000000004 -5 0  1 -5 0  1.1 -5 0  1.2 -5 0  1.3 -5 0  1.4 -5 0  1.5 -5 0  1.6 -5 0  1.7 -5 0  1.8 -5 0  1.9 -5 0  2 -5 0  2.1 -5 0  2.2 -5 0  2.3 -5 0  2.4 -5 0  2.5 -5 0  2.6 -5 0  2.7 -5 0  2.8 -5 0  2.9 -5 0  3 -5 0  3.1 -5 0  3.199999999999999 -5 0  3.300000000000001 -5 0  3.4 -5 0  3.5 -5 0  3.6 -5 0  3.699999999999999 -5 0  3.800000000000001 -5 0  3.9 -5 0  4 -5 0  4.1 -5 0  4.199999999999999 -5 0  4.300000000000001 -5 0  4.4 -5 0  4.5 -5 0  4.6 -5 0  4.699999999999999 -5 0  4.800000000000001 -5 0  4.9 -5 0  5 -4.9 0  5 -4.8 0  5 -4.7 0  5 -4.6 0  5 -4.5 0  5 -4.4 0  5 -4.3 0  5 -4.2 0  5 -4.1 0  5 -4 0  5 -3.9 0  5 -3.8 0  5 -3.7 0  5 -3.6 0  5 -3.5 0  5 -3.4 0  5 -3.3 0  5 -3.2 0  5 -3.1 0  5 -3 0  5 -2.9 0  5 -2.8 0  5 -2.7 0  5 -2.6 0  5 -2.5 0  5 -2.4 0  5 -2.3 0  5 -2.2 0  5 -2.1 0  5 -2 0  5 -1.9 0  5 -1.8 0  5 -1.7 0  5 -1.6 0  5 -1.5 0  5 -1.4 0  5 -1.3 0  5 -1.2 0  5 -1.1 0  5 -1 0  5 -0.9000000000000004 0  5 -0.7999999999999998 0  5 -0.7000000000000002 0  5 -0.5999999999999996 0  5 -0.5 0  5 -0.4000000000000004 0  5 -0.2999999999999998 0  5 -0.2000000000000002 0  5 -0.09999999999999964 0  5 0 0  5 0.09999999999999964 0  5 0.2000000000000002 0  5 0.2999999999999998 0  5 0.4000000000000004 0  5 0.5 0  5 0.5999999999999996 0  5 0.7000000000000002 0  5 0.7999999999999998 0  5 0.9000000000000004 0  5 1 0  5 1.1 0  5 1.2 0  5 1.3 0  5 1.4 0  5 1.5 0  5 1.6 0  5 1.7 0  5 1.8 0  5 1.9 0  5 2 0  5 2.1 0  5 2.2 0  5 2.3 0  5 2.4 0  5 2.5 0  5 2.6 0  5 2.7 0  5 2.8 0  5 2.9 0  5 3 0  5 3.1 0  5 3.199999999999999 0  5 3.300000000000001 0  5 3.4 0  5 3.5 0  5 3.6 0  5 3.699999999999999 0  5 3.800000000000001 0  5 3.9 0  5 4 0  5 4.1 0  5 4.199999999999999 0  5 4.300000000000001 0  5 4.4 0  5 4.5 0  5 4.6 0  5 4.699999999999999 0  5 4.800000000000001 0  5 4.9 0  4.9 5 0  4.8 5 0  4.7 5 0  4.6 5 0  4.5 5 0  4.4 5 0  4.3 5 0  4.2 5 0  4.1 5 0  4 5 0  3.9 5 0  3.8 5 0  3.7 5 0  3.6 5 0  3.5 5 0  3.4 5 0  3.3 5 0  3.2 5 0  3.1 5 0  3 5 0  2.9 5 0  2.8 5 0  2.7 5 0  2.6 5 0  2.5 5 0  2.4 5 0  2.3 5 0  2.2 5 0  2.1 5 0  2 5 0  1.9 5 0  1.8 5 0  1.7 5 0  1.6 5 0  1.5 5 0  1.4 5 0  1.3 5 0  1.2 5 0  1.1 5 0  1 5 0  0.9000000000000004 5 0  0.7999999999999998 5 0  0.7000000000000002 5 0  0.5999999999999996 5 0  0.5 5 0  0.4000000000000004 5 0  0.2999999999999998 5 0  0.2000000000000002 5 0  0.09999999999999964 5 0  0 5 0  -0.09999999999999964 5 0  -0.2000000000000002 5 0  -0.2999999999999998 5 0  -0.4000000000000004 5 0  -0.5 5 0  -0.5999999999999996 5 0  -0.7000000000000002 5 0  -0.7999999999999998 5 0  -0.9000000000000004 5 0  -1 5 0  -1.1 5 0  -1.2 5 0  -1.3 5 0  -1.4 5 0  -1.5 5 0  -1.6 5 0  -1.7 5 0  -1.8 5 0  -1.9 5 0  -2 5 0  -2.1 5 0  -2.2 5 0  -2.3 5 0  -2.4 5 0  -2.5 5 0  -2.6 5 0  -2.7 5 0  -2.8 5 0  -2.9 5 0  -3 5 0  -3.1 5 0  -3.199999999999999 5 0  -3.300000000000001 5 0  -3.4 5 0  -3.5 5 0  -3.6 5 0  -3.699999999999999 5 0  -3.800000000000001 5 0  -3.9 5 0  -4 5 0  -4.1 5 0  -4.199999999999999 5 0  -4.300000000000001 5 0  -4.4 5 0  -4.5 5 0  -4.6 5 0  -4.699999999999999 5 0  -4.800000000000001 5 0  -4.9 5 0  -5 4.9 0  -5 4.8 0  -5 4.7 0  -5 4.6 0  -5 4.5 0  -5 4.4 0  -5 4.3 0  -5 4.2 0  -5 4.1 0  -5 4 0  -5 3.9 0  -5 3.8 0  -5 3.7 0  -5 3.6 0  -5 3.5 0  -5 3.4 0  -5 3.3 0  -5 3.2 0  -5 3.1 0  -5 3 0  -5 2.9 0  -5 2.8 0  -5 2.7 0  -5 2.6 0  -5 2.5 0  -5 2.4 0  -5 2.3 0  -5 2.2 0  -5 2.1 0  -5 2 0  -5 1.9 0  -5 1.8 0  -5 1.7 0  -5 1.6 0  -5 1.5 0  -5 1.4 0  -5 1.3 0  -5 1.2 0  -5 1.1 0  -5 1 0  -5 0.9000000000000004 0  -5 0.7999999999999998 0  -5 0.7000000000000002 0  -5 0.5999999999999996 0  -5 0.5 0  -5 0.4000000000000004 0  -5 0.2999999999999998 0  -5 0.2000000000000002 0  -5 0.09999999999999964 0  -5 0 0  -5 -0.09999999999999964 0  -5 -0.2000000000000002 0  -5 -0.2999999999999998 0  -5 -0.4000000000000004 0  -5 -0.5 0  -5 -0.5999999999999996 0  -5 -0.7000000000000002 0  -5 -0.7999999999999998 0  -5 -0.9000000000000004 0  -5 -1 0  -5 -1.1 0  -5 -1.2 0  -5 -1.3 0  -5 -1.4 0  -5 -1.5 0  -5 -1.6 0  -5 -1.7 0  -5 -1.8 0  -5 -1.9 0  -5 -2 0  -5 -2.1 0  -5 -2.2 0  -5 -2.3 0  -5 -2.4 0  -5 -2.5 0  -5 -2.6 0  -5 -2.7 0  -5 -2.8 0  -5 -2.9 0  -5 -3 0  -5 -3.1 0  -5 -3.199999999999999 0  -5 -3.300000000000001 0  -5 -3.4 0  -5 -3.5 0  -5 -3.6 0  -5 -3.699999999999999 0  -5 -3.800000000000001 0  -5 -3.9 0  -5 -4 0  -5 -4.1 0  -5 -4.199999999999999 0  -5 -4.300000000000001 0  -5 -4.4 0  -5 -4.5 0  -5 -4.6 0  -5 -4.699999999999999 0  -5 -4.800000000000001 0  -5 -4.9 0  0.9950307753654014 0.09956784659581641 0  0.9801724878485439 0.1981461431993971 0  0.955572805786141 0.2947551744109034 0  0.9214762118704081 0.3884347962746937 0  0.8782215733702291 0.4782539786213171 0  0.8262387743159958 0.5633200580636207 0  0.7660444431189791 0.642787609686538 0  0.6982368180860742 0.7158668492597171 0  0.6234898018587353 0.7818314824680284 0  0.5425462638657613 0.8400259231507702 0  0.4562106573531652 0.8898718088114674 0  0.3653410243663976 0.9308737486442032 0  0.2708404681430079 0.9626242469500113 0  0.1736481776669335 0.9848077530122075 0  0.07473009358642749 0.9972037971811799 0  -0.02493069173806936 0.9996891820008164 0  -0.1243437046474812 0.9922392066001726 0  -0.22252093395631 0.9749279121818246 0  -0.3184866502516801 0.9479273461671333 0  -0.4112871031306069 0.9115058523116752 0  -0.4999999999999956 0.8660254037844412 0  -0.5837436722347853 0.8119380057158597 0  -0.6616858375968552 0.7497812029677379 0  -0.7330518718298221 0.6801727377709239 0  -0.797132507222919 0.6038044103254819 0  -0.8532908816321524 0.5214352033795034 0  -0.9009688679024164 0.4338837391175638 0  -0.9396926207859061 0.3420201433256752 0  -0.9690772862290763 0.2467573976903003 0  -0.9888308262251275 0.1490422661761813 0  -0.998756921218922 0.04984588566070414 0  -0.9987569212189228 -0.0498458856606897 0  -0.9888308262251297 -0.1490422661761666 0  -0.96907728622908 -0.2467573976902858 0  -0.939692620785911 -0.3420201433256616 0  -0.9009688679024225 -0.4338837391175512 0  -0.8532908816321595 -0.5214352033794919 0  -0.7971325072229264 -0.6038044103254722 0  -0.7330518718298308 -0.6801727377709146 0  -0.6616858375968644 -0.7497812029677299 0  -0.5837436722347948 -0.8119380057158528 0  -0.500000000000005 -0.8660254037844357 0  -0.4112871031306164 -0.9115058523116709 0  -0.3184866502516892 -0.9479273461671301 0  -0.2225209339563189 -0.9749279121818226 0  -0.1243437046474902 -0.9922392066001714 0  -0.0249306917380776 -0.9996891820008161 0  0.07473009358641994 -0.9972037971811805 0  0.1736481776669265 -0.9848077530122088 0  0.2708404681430008 -0.9626242469500133 0  0.3653410243663913 -0.9308737486442057 0  0.4562106573531597 -0.8898718088114703 0  0.5425462638657567 -0.8400259231507732 0  0.6234898018587313 -0.7818314824680316 0  0.6982368180860711 -0.7158668492597202 0  0.7660444431189761 -0.6427876096865416 0  0.8262387743159935 -0.5633200580636242 0  0.8782215733702274 -0.4782539786213201 0  0.9214762118704073 -0.3884347962746956 0  0.9555728057861406 -0.2947551744109047 0  0.9801724878485438 -0.1981461431993977 0  0.9950307753654013 -0.09956784659581729 0  -2.449998658864481 4.920778405384746 0  -2.45 -4.913397459621556 0  4.913390249436301 2.449991278872393 0  4.921241841059507 -2.45126281762114 0  2.447985537477937 -4.899136462700148 0  2.442359973780398 4.902787943906695 0  -4.913392775092561 -2.44999478911229 0  -4.913397586235258 2.449998186285153 0  -1.749994680784746 4.914823892370101 0  -1.745716553790987 -4.918111605932221 0  4.924338796512414 1.745961773375498 0  4.913397459621557 -1.75 0  -4.91364481421298 -1.749701929732257 0  -4.914437307054341 1.749424050316321 0  1.747358710327851 4.908964334432811 0  1.7489603545361 -4.89761013719719 0  -1.15 4.913397459621557 0  -1.130738810679978 -4.920918844836693 0  -4.91440710852225 -1.149648021625244 0  -4.914242774271024 1.149445787907757 0  1.144918407670731 -4.9172991945343 0  1.149995831223957 4.913397616312334 0  4.91459027735465 1.147936738890088 0  4.924782858982709 -1.153518912617952 0  -0.5472708428414548 -4.914970810555997 0  -0.5469952110597515 4.923192385067424 0  -4.913977236983863 -0.5496632005068867 0  -4.914004571221953 0.5482101863479627 0  4.913397459621557 -0.5499999999999998 0  4.924285540704135 0.5466266203620586 0  0.5431100502161902 -4.902583880471643 0  0.5517336370721539 4.920194191617333 0  -4.913867247108992 -3.049996536692655 0  4.920306944860013 3.047903402089654 0  4.913397459621556 -3.05 0  -4.914705888637396 3.047074417188615 0  3.056573935894829 -4.919328034625738 0  -3.05 -4.913397459621556 0  3.053538639919232 4.915440634264215 0  -3.049437787257514 4.914271535215389 0  -4.913398616176713 -0.05000305088463643 0  0.04515664357183806 -4.916955698348546 0  0.04960905818453436 4.923598865925187 0  4.920025728373856 -0.05137916622276772 0  3.546630833645985 -4.920391952325502 0  -3.55 4.913397459621557 0  -3.549999282046433 -4.913397406208844 0  4.920363561957139 3.5485076
[...]
<PointData  Vectors="f_180"> 
<DataArray  type="Float64"  Name="f_180"  NumberOfComponents="3" format="ascii">-4.5271706126054329e-02 -5.2825490443295153e-02 0.0000000000000000e+00  4.9596059148213405e-02 -4.1962452633740238e-02 0.0000000000000000e+00  2.8751772869920478e-02 3.3574489922511226e-02 0.0000000000000000e+00  -4.7586264117783918e-02 5.4333533040754091e-02 0.0000000000000000e+00  4.8749363844170254e+01 8.2736730003099210e-02 0.0000000000000000e+00  1.7466857999942777e-02 -3.9973165262613547e-01 0.0000000000000000e+00  1.4569804989298668e-02 -6.4910124084785192e-01 0.0000000000000000e+00  1.5623226027451888e-02 -1.0712321632339905e+00 0.0000000000000000e+00  1.1811091667553050e-02 -1.3243472750258318e+00 0.0000000000000000e+00  -2.9034888734763224e-02 -1.7209189992207206e+00 0.0000000000000000e+00  6.0188871363963141e-03 -2.1140136625520727e+00 0.0000000000000000e+00  1.0307467681089026e-02 -2.4105744068782613e+00 0.0000000000000000e+00  -4.6517495019149369e-03 -2.7728543347944528e+00 0.0000000000000000e+00  1.7687952286362520e-02 -3.0559903103343267e+00 0.0000000000000000e+00  1.8632904797991609e-02 -3.4685805368042240e+00 0.0000000000000000e+00  -2.9698381584349837e-03 -3.7451028249548872e+00 0.0000000000000000e+00  -4.9154255691436239e-03 -4.1078183442055831e+00 0.0000000000000000e+00  2.2337333437197613e-03 -4.4613003113855507e+00 0.0000000000000000e+00  1.5233349384872314e-03 -4.7954332460828253e+00 0.0000000000000000e+00  -1.8542847839112537e-03 -5.1354173236749503e+00 0.0000000000000000e+00  1.1852902064364117e-03 -5.4894295623385458e+00 0.0000000000000000e+00  7.4429526831071777e-03 -5.8312926527483393e+00 0.0000000000000000e+00  -1.2820824652433871e-03 -6.1036265145082247e+00 0.0000000000000000e+00  -2.2124590605827540e-03 -6.4789687837087184e+00 0.0000000000000000e+00  -9.2180271662401485e-03 -6.8547969054890023e+00 0.0000000000000000e+00  2.4021643755923881e-02 -7.1194559680852638e+00 0.0000000000000000e+00  1.1308307124180857e-02 -7.5034622850719703e+00 0.0000000000000000e+00  1.2738433477356247e-02 -7.7527385752269549e+00 0.0000000000000000e+00  2.1896078456076336e-02 -8.1213386551446636e+00 0.0000000000000000e+00  -1.0364564550797204e-02 -8.3810580407675737e+00 0.0000000000000000e+00  -3.3882890797372498e-03 -8.7363505174799716e+00 0.0000000000000000e+00  -1.2280826583818600e-03 -9.0683673181196269e+00 0.0000000000000000e+00  1.5843209203709210e-02 -9.3032242104545180e+00 0.0000000000000000e+00  1.1812180282375413e-02 -9.6612179080099274e+00 0.0000000000000000e+00  1.1516691366510293e-02 -9.8732913723541316e+00 0.0000000000000000e+00  -2.6231730003391854e-02 -1.0197296207250288e+01 0.0000000000000000e+00  1.1419712337984372e-02 -1.0502053354280651e+01 0.0000000000000000e+00  1.7615306346719204e-03 -1.0722891487627054e+01 0.0000000000000000e+00  -3.6774051997398008e-04 -1.0971126068805999e+01 0.0000000000000000e+00  -4.4510408842207726e-04 -1.1209523717375840e+01 0.0000000000000000e+00  1.9959938623908802e-03 -1.1437402790947438e+01 0.0000000000000000e+00  -1.1501288045889541e-02 -1.1674080488796639e+01 0.0000000000000000e+00  1.4014082301962055e-02 -1.1853109234922591e+01 0.0000000000000000e+00  7.4953624706678972e-03 -1.2038658947889333e+01 0.0000000000000000e+00  5.7546969792711808e-03 -1.2228604241434544e+01 0.0000000000000000e+00  -3.2687259081513511e-03 -1.2393223444419947e+01 0.0000000000000000e+00  1.3648324793470610e-02 -1.2505581321967812e+01 0.0000000000000000e+00  -1.0068618320437608e-02 -1.2658713128893561e+01 0.0000000000000000e+00  5.6039416155913308e-03 -1.2785135542514935e+01 0.0000000000000000e+00  -1.2018263593359187e-03 -1.2863277743949610e+01 0.0000000000000000e+00  4.1413552151067741e-04 -1.2946094855600141e+01 0.0000000000000000e+00  -2.8818244521839714e-04 -1.3008059286901920e+01 0.0000000000000000e+00  1.3527004020901767e-04 -1.3052725033529676e+01 0.0000000000000000e+00  6.7986443588504656e-05 -1.3079527310264515e+01 0.0000000000000000e+00  6.0173116612372360e-04 -1.3088617103909364e+01 0.0000000000000000e+00  2.3833971098946984e-04 -1.3083304514013935e+01 0.0000000000000000e+00  2.5115652670412874e-03 -1.3054224735824894e+01 0.0000000000000000e+00  -3.5327983669134122e-03 -1.2999979330171149e+01 0.0000000000000000e+00  -1.6910370643077541e-03 -1.2952680964692687e+01 0.0000000000000000e+00  -6.8057323682387356e-03 -1.2855916840062733e+01 0.0000000000000000e+00  2.2390242846141556e-03 -1.2776890899019508e+01 0.0000000000000000e+00  1.8835865346915374e-03 -1.2657854133969323e+01 0.0000000000000000e+00  -1.3819232883352105e-03 -1.2522774819213369e+01 0.0000000000000000e+00  -2.7500514899865883e-04 -1.2381523355692165e+01 0.0000000000000000e+00  1.7009127151058493e-03 -1.2219127286889579e+01 0.0000000000000000e+00  -3.8050077108203783e-03 -1.2043399358416966e+01 0.0000000000000000e+00  -2.4002647704341917e-03 -1.1847562539396424e+01 0.0000000000000000e+00  2.6558621699706961e-03 -1.1670863652031542e+01 0.0000000000000000e+00  -6.2638898253670550e-03 -1.1436155330533749e+01 0.0000000000000000e+00  7.2152409903250524e-03 -1.1206673249680646e+01 0.0000000000000000e+00  -9.1255411403676056e-03 -1.0970608533614003e+01 0.0000000000000000e+00  1.7171243132428050e-03 -1.0708093922472505e+01 0.0000000000000000e+00  4.5501156137387703e-03 -1.0471086231109064e+01 0.0000000000000000e+00  -6.5975503837713799e-03 -1.0191218428244309e+01 0.0000000000000000e+00  4.6575132639786743e-03 -9.9074849883701326e+00 0.0000000000000000e+00  -3.4393555460521118e-03 -9.6209016388264654e+00 0.0000000000000000e+00  1.5473119289790042e-03 -9.3336103996816213e+00 0.0000000000000000e+00  -6.3396680455784123e-03 -9.0385979375400751e+00 0.0000000000000000e+00  -1.8471888171701987e-03 -8.7177719681916077e+00 0.0000000000000000e+00  2.7966083670978165e-03 -8.4510478739064361e+00 0.0000000000000000e+00  4.4380958011077672e-04 -8.1151870559474908e+00 0.0000000000000000e+00  2.6477383813284286e-03 -7.7895233150110332e+00 0.0000000000000000e+00  -9.1843553674257183e-03 -7.4720311350272377e+00 0.0000000000000000e+00  -3.1101061130423321e-03 -7.1142072271813159e+00 0.0000000000000000e+00  5.6933023664161881e-03 -6.8215478192849659e+00 0.0000000000000000e+00  -8.8710152274566554e-03 -6.4645091393550000e+00 0.0000000000000000e+00  4.8985117600443609e-04 -6.1469088839748451e+00 0.0000000000000000e+00  3.3582053621069668e-03 -5.8226310156967420e+00 0.0000000000000000e+00  3.8126239933530962e-03 -5.4646390130225422e+00 0.0000000000000000e+00  -1.0622082540709721e-02 -5.1385008172544921e+00 0.0000000000000000e+00  2.3053416459010295e-03 -4.7760456379285623e+00 0.0000000000000000e+00  2.1241174345840107e-03 -4.4699005781886223e+00 0.0000000000000000e+00  -8.3533476958953731e-03 -4.1022500009955216e+00 0.0000000000000000e+00  -1.8190493970914390e-04 -3.7764461807964063e+00 0.0000000000000000e+00  4.5701239970962742e-03 -3.4257320217527729e+00 0.0000000000000000e+00  -2.4777638025667972e-04 -3.0784168318146583e+00 0.0000000000000000e+00  -4.6198169790273354e-03 -2.7432982065065796e+00 0.0000000000000000e+00  -3.3527841102953338e-03 -2.3863774944685390e+00 0.0000000000000000e+00  6.6052692918075490e-03 -2.0816994355623049e+00 0.0000000000000000e+00  -1.0264390706174867e-02 -1.7127899383278546e+00 0.0000000000000000e+00  2.4570680391033184e-03 -1.3778168306165703e+00 0.0000000000000000e+00  5.5836354991302449e-03 -1.0258600230580921e+00 0.0000000000000000e+00  -8.8471290573232369e-03 -6.8120658260430389e-01 0.0000000000000000e+00  -1.0927711720761790e-02 -3.9422651372505463e-01 0.0000000000000000e+00  4.1027723245011050e-01 9.9050501200059760e-03 0.0000000000000000e+00  6.5844046817871893e-01 2.5059948074765512e-02 0.0000000000000000e+00  1.0593933821767081e+00 1.8446472035090401e-02 0.0000000000000000e+00  1.3540744059559011e+00 -5.6106763327629094e-03 0.0000000000000000e+00  1.7204853050080757e+00 2.6667521684549953e-03 0.0000000000000000e+00  2.0578914891865656e+00 -1.8805237347490702e-03 0.0000000000000000e+00  2.3999110033054265e+00 3.9909314835007625e-04 0.0000000000000000e+00  2.7432727063853339e+00 -5.3125056886519490e-04 0.0000000000000000e+00  3.0840120625760274e+00 1.8122603664287690e-04 0.0000000000000000e+00  3.4321945655367205e+00 -7.2756060891702074e-05 0.0000000000000000e+00  3.7692190003918191e+00 -1.2504894777633274e-05 0.0000000000000000e+00  4.1147233186011754e+00 1.2348803977009631e-03 0.0000000000000000e+00  4.4453621145028102e+00 4.7403465935141279e-04 0.0000000000000000e+00  4.7985289525526147e+00 -2.2299094452347674e-03 0.0000000000000000e+00  5.1298403721256776e+00 1.1400826989913387e-03 0.0000000000000000e+00  5.4799199981348874e+00 1.0421836276574481e-03 0.0000000000000000e+00  5.8074560366141590e+00 -9.3412784045289259e-04 0.0000000000000000e+00  6.1383900681786043e+00 2.2650620782517232e-03 0.0000000000000000e+00  6.4840999516843114e+00 -2.1472194464028081e-03 0.0000000000000000e+00  6.8059994092036904e+00 -1.5242727600679826e-03 0.0000000000000000e+00  7.1429901950664751e+00 3.1097739078028465e-03 0.0000000000000000e+00  7.4725043445661123e+00 -3.2120179492996733e-03 0.0000000000000000e+00  7.7778464938122047e+00 2.2957661873181565e-03 0.0000000000000000e+00  8.1034788853043445e+00 6.4275572701713167e-04 0.0000000000000000e+00  8.4243486018511344e+00 1.4180908993341975e-03 0.0000000000000000e+00  8.7386079681803235e+00 -7.8793042094894438e-04 0.0000000000000000e+00  9.0414266710671409e+00 -5.7696485793809146e-04 0.0000000000000000e+00  9.3358484894702922e+00 -4.2041492244516380e-04 0.0000000000000000e+00  9.6277810949215841e+00 6.7945935296829651e-05 0.0000000000000000e+00  9.9126009564600199e+00 -8.0880496141582772e-05 0.0000000000000000e+00  1.0189694928513012e+01 9.6426909553904620e-05 0.0000000000000000e+00  1.0458067023306837e+01 -6.2683993665721177e-04 0.0000000000000000e+00  1.0714579353487975e+01 -2.6818955270990497e-04 0.0000000000000000e+00  1.0968095182114936e+01 1.2336000817129429e-03 0.0000000000000000e+00  1.1210784121234285e+01 -1.8794916021955710e-03 0.0000000000000000e+00  1.1427122890894742e+01 1.8762327416898615e-03 0.0000000000000000e+00  1.1645879972919609e+01 -1.0632151150234357e-04 0.0000000000000000e+00  1.1847205352959225e+01 2.1456777924837170e-03 0.0000000000000000e+00  1.2032601340288743e+01 2.9297787709063770e-03 0.0000000000000000e+00  1.2217737608136151e+01 -8.5610307167567536e-03 0.0000000000000000e+00  1.2390750098670239e+01 6.2119093608905915e-03 0.0000000000000000e+00  1.2521702982745110e+01 -2.7002806938147090e-03 0.0000000000000000e+00  1.2656360616072240e+01 3.8920265824308667e-04 0.0000000000000000e+00  1.2770596139105395e+01 -8.5641019514255483e-04 0.0000000000000000e+00  1.2862774604429005e+01 1.7425121547184786e-03 0.0000000000000000e+00  1.2942616724242596e+01 -3.0068736935353973e-04 0.0000000000000000e+00  1.3007146108574394e+01 1.1647064166638122e-04 0.0000000000000000e+00  1.3052730140959996e+01 -1.9139728438541010e-04 0.0000000000000000e+00  1.3080108805262791e+01 -7.8381770308387749e-05 0.0000000000000000e+00  1.3088749829325453e+01 1.5734066516709058e-04 0.0000000000000000e+00  1.3079972220727530e+01 1.8754624684321083e-04 0.0000000000000000e+00  1.3054115492036242e+01 -4.6210444280875453e-04 0.0000000000000000e+00  1.3008694596433514e+01 5.0707042789509174e-04 0.0000000000000000e+00  1.2945648087181105e+01 6.2502846479773854e-05 0.0000000000000000e+00  1.2868211055991720e+01 -8.7507922241587756e-04 0.0000000000000000e+00  1.2770094116319067e+01 1.0371352566916554e-03 0.0000000000000000e+00  1.2654580222379021e+01 3.3928561262166630e-06 0.0000000000000000e+00  1.2526309438359785e+01 -1.2451936618369959e-03 0.0000000000000000e+00  1.2376350545496095e+01 3.4950271087380526e-04 0.0000000000000000e+00  1.2218158652755745e+01 6.1262212978294768e-04 0.0000000000000000e+00  1.2042300563426288e+01 -7.7960513910040811e-04 0.0000000000000000e+00  1.1859448141368464e+01 -6.4320699514576652e-06 0.0000000000000000e+00  1.1652144881027994e+01 5.6077836220783496e-04 0.0000000000000000e+00  1.1437845857140333e+01 -4.8793297953967789e-04 0.0000000000000000e+00  1.1215982463347661e+01 1.8824845700235288e-03 0.0000000000000000e+00  1.0969455756160045e+01 -1.4478130409855462e-03 0.0000000000000000e+00  1.0726598089539779e+01 -2.0125316654022716e-03 0.0000000000000000e+00  1.0464291050810360e+01 2.5207939307309705e-03 0.0000000000000000e+00  1.0189396767638152e+01 -7.2463493736301624e-04 0.0000000000000000e+00  9.9148199221597846e+00 -1.2890639317334159e-03 0.0000000000000000e+00  9.6278702567264585e+00 1.1192263421088791e-03 0.0000000000000000e+00  9.3365690261537964e+00 9.5240753659021102e-04 0.0000000000000000e+00  9.0361308449667881e+00 -2.5867860171184331e-04 0.0000000000000000e+00  8.7333296205861384e+00 -2.9900011625018502e-05 0.0000000000000000e+00  8.4241069614844850e+00 5.6984507154619185e-04 0.0000000000000000e+00  8.1084826348305850e+00 -4.3264187308558868e-04 0.0000000000000000e+00  7.7965623405664388e+00 -6.7048895484261926e-04 0.0000000000000000e+00  7.4791989211611014e+00 1.8443881085839799e-03 0.0000000000000000e+00  7.1419997879659176e+00 -2.6546529417497112e-03 0.0000000000000000e+00  6.8125724823414338e+00 -2.9376526574796240e-04 0.0000000000000000e+00  6.4815447975075680e+00 -3.1591778403489184e-04 0.0000000000000000e+00  6.1589818680737833e+00 -1.5230685136846732e-04 0.0000000000000000e+00  5.8236803205518628e+00 2.6811740738173105e-03 0.0000000000000000e+00  5.4742124734838136e+00 -2.4010246736741649e-03 0.0000000000000000e+00  5.1355298261011644e+00 -3.3514090015149571e-04 0.0000000000000000e+00  4.7953013721996109e+00 1.3135119541599579e-04 0.0000000000000000e+00  4.4473658000624345e+00 1.1614118266455573e-03 0.0000000000000000e+00  4.1156143191973751e+00 4.6266996607931087e-04 0.0000000000000000e+00  3.7683750270942524e+00 -7.6253954717125482e-04 0.0000000000000000e+00  3.4296478432251725e+00 2.9302009497558009e-04 0.0000000000000000e+00  3.0872999742505383e+00 1.1437581545417097e-03 0.0000000000000000e+00  2.7515185124723249e+00 -4.5557008806794592e-04 0.0000000000000000e+00  2.4016793520461617e+00 -1.0685242825522357e-03 0.0000000000000000e+00  2.0587147826590311e+00 1.9415277737510311e-03 0.0000000000000000e+00  1.7217329567375497e+00 -3.4381110515814039e-03 0.0000000000000000e+00  1.3869307739581631e+00 -1.4703237795097857e-03 0.0000000000000000e+00  1.0405186513271070e+00 4.7115618167393051e-03 0.0000000000000000e+00  6.8299392911660006e-01 7.4432402927163499e-05 0.0000000000000000e+00  3.7114839619828316e-01 -1.2440962313994042e-02 0.0000000000000000e+00  -1.9998856267808392e-02 3.8323491375070051e-01 0.0000000000000000e+00  4.9720952771716617e-03 6.6564444544823731e-01 0.0000000000000000e+00  -8.4492878921050302e-03 1.0253697889413778e+00 0.0000000000000000e+00  -6.6521648167346212e-03 1.3188986279514492e+00 0.0000000000000000e+00  2.8873917740066660e-02 1.7147955903867955e+00 0.0000000000000000e+00  -7.2795771374032344e-03 2.1152992435144915e+00 0.0000000000000000e+00  -2.0350899393000801e-02 2.3658683004984056e+00 0.0000000000000000e+00  -2.9578618343886271e-02 2.7690575762869263e+00 0.0000000000000000e+00  8.4743697989242937e-03 3.0504308299672416e+00 0.0000000000000000e+00  9.0579415373237653e-03 3.4297874407292284e+00 0.0000000000000000e+00  -8.4420829857276870e-03 3.7745319852305625e+00 0.0000000000000000e+00  6.0988185170439907e-03 4.1048069551359863e+00 0.0000000000000000e+00  1.2723710265374008e-03 4.4779330900926828e+00 0.0000000000000000e+00  -9.4151367130030489e-04 4.7720185395718264e+00 0.0000000000000000e+00  -4.0390097066385581e-03 5.1348898571481820e+00 0.0000000000000000e+00  -1.6132932815483125e-03 5.4616139993930162e+00 0.0000000000000000e+00  4.6097866246022920e-03 5.8117465468433007e+00 0.0000000000000000e+00  -1.4915334520747689e-03 6.1589216608635997e+00 0.0000000000000000e+00  -3.5051941455439602e-03 6.4819366655171216e+00 0.0000000000000000e+00  -1.0788913572716686e-03 6.8333042649865350e+00 0.0000000000000000e+00  -3.1167949573511159e-03 7.1100060771450018e+00 0.0000000000000000e+00  7.3966691349160105e-03 7.4760785816996647e+00 0.0000000000000000e+00  -6.1707046126904912e-03 7.7898469889859818e+00 0.0000000000000000e+00  7.4075391710052979e-03 8.1111780868496375e+00 0.0000000000000000e+00  2.4717216184231431e-03 8.4501371131713530e+00 0.0000000000000000e+00  -1.7238010601362326e-02 8.6997806033465199e+00 0.0000000000000000e+00  -1.4701829904186614e-02 9.0669821383470453e+00 0.0000000000000000e+00  3.0979803728799437e-03 9.3127406822359973e+00 0.0000000000000000e+00  -9.3199682708728221e-03 9.6221126496738965e+00 0.0000000000000000e+00  -4.6874259191103827e-03 9.8681942466234798e+00 0.0000000000000000e+00  2.3107957785685727e-02 1.0185107025105047e+01 0.0000000000000000e+00  -8.1017820248550747e-03 1.0496280206480282e+01 0.0000000000000000e+00  -1.2347354190838667e-02 1.0691730635597548e+01 0.0000000000000000e+00  -1.3458570627939086e-02 1.0991330761691618e+01 0.0000000000000000e+00  1.8195716969759566e-03 1.1177844479333727e+01 0.0000000000000000e+00  4.1925282113116583e-03 1.1434778860646549e+01 0.0000000000000000e+00  -1.7300954409313492e-03 1.1656921661670765e+01 0.0000000000000000e+00  -5.2070731186329813e-04 1.1853568031872134e+01 0.0000000000000000e+00  3.8014774224381535e-04 1.2042108034190731e+01 0.0000000000000000e+00  4.0519022704142493e-04 1.2224911419571447e+01 0.0000000000000000e+00  -3.2029382761663869e-03 1.2388261662740351e+01 0.0000000000000000e+00  1.8126361931869418e-04 1.2506019596819188e+01 0.0000000000000000e+00  -1.4147808885875811e-04 1.2652096375039426e+01 0.0000000000000000e+00  1.4130745487694039e-03 1.2769184343160815e+01 0.0000000000000000e+00  -2.6060926893392206e-03 1.2863192656545614e+01 0.0000000000000000e+00  2.5273365436386669e-03 1.2947228730167009e+01 0.0000000000000000e+00  -8.8905049997472520e-04 1.3004052100087749e+01 0.0000000000000000e+00  -2.2628101748354583e-03 1.3052801066322193e+01 0.0000000000000000e+00  5.4925297376769979e-04 1.3078711791659106e+01 0.0000000000000000e+00  5.3016964892869532e-04 1.3089588253436407e+01 0.0000000000000000e+00  2.3177839693836241e-03 1.3077938941254647e+01 0.0000000000000000e+00  -2.5978525374379044e-03 1.3053210435710959e+01 0.0000000000000000e+00  1.1678376382681958e-03 1.3009158299926142e+01 0.0000000000000000e+00  -2.1044985758281146e-03 1.2944815139978193e+01 0.0000000000000000e+00  2.9945416659575429e-03 1.2865241682848760e+01 0.0000000000000000e+00  -2.6164961728173857e-03 1.2760357105196757e+01 0.0000000000000000e+00  5.7307467215437667e-03 1.2665174104229440e+01 0.0000000000000000e+00  6.7780688418103384e-03 1.2507977405804541e+01 0.0000000000000000e+00  3.7396898083872114e-03 1.2394821929873919e+01 0.0000000000000000e+00  1.3777875411554161e-02 1.2209138666659671e+01 0.0000000000000000e+00  -6.6792757805863353e-03 1.2067522282348678e+01 0.0000000000000000e+00  -2.3561825071868273e-03 1.1856156119066844e+01 0.0000000000000000e+00  2.6439946150040188e-03 1.1643328754121791e+01 0.0000000000000000e+00  -6.2102204251539479e-04 1.1435428434218144e+01 0.0000000000000000e+00  -2.1060789491746161e-04 1.1209574310621521e+01 0.0000000000000000e+00  -8.7793422616677902e-04 1.0965657571774610e+01 0.0000000000000000e+00  9.9264884903330942e-04 1.0719614106035477e+01 0.0000000000000000e+00  -4.9558284524058010e-03 1.0457728893237185e+01 0.0000000000000000e+00  9.0634831430513336e-03 1.0189199840807984e+01 0.0000000000000000e+00  -6.4976339524716771e-03 9.8899196634393363e+00 0.0000000000000000e+00  7.1170812967886240e-03 9.6436925552950665e+00 0.0000000000000000e+00  1.9023647527615236e-03 9.3525895079029695e+00 0.0000000000000000e+00  -7.7218259567536692e-03 9.0398032755884916e+00 0.0000000000000000e+00  5.0164127625752526e-03 8.7307106168841813e+00 0.0000000000000000e+00  -6.4046518874285576e-03 8.4250395145306687e+00 0.0000000000000000e+00  3.0803225460317844e-03 8.0933306417080768e+00 0.0000000000000000e+00  -1.5442421018600054e-03 7.7711977786748223e+00 0.0000000000000000e+00  1.3608282082976471e-02 7.5030068274718227e+00 0.000