<?xml version="1.0"?>
<VTKFile type="UnstructuredGrid"  version="0.1"  >
<UnstructuredGrid>
<Piece  NumberOfPoints="11902" NumberOfCells="23402">
<Points>
<DataArray  type="Float64"  NumberOfComponents="3"  format="ascii">-5 -5 0  5 -5 0  5 5 0  -5 5 0  1.882920833137651 0.007390564976827139 0  -4.9 -5 0  -4.8 -5 0  -4.7 -5 0  -4.6 -5 0  -4.5 -5 0  -4.4 -5 0  -4.3 -5 0  -4.2 -5 0  -4.1 -5 0  -4 -5 0  -3.9 -5 0  -3.8 -5 0  -3.7 -5 0  -3.6 -5 0  -3.5 -5 0  -3.4 -5 0  -3.3 -5 0  -3.2 -5 0  -3.1 -5 0  -3 -5 0  -2.9 -5 0  -2.8 -5 0  -2.7 -5 0  -2.6 -5 0  -2.5 -5 0  -2.4 -5 0  -2.3 -5 0  -2.2 -5 0  -2.1 -5 0  -2 -5 0  -1.9 -5 0  -1.8 -5 0  -1.7 -5 0  -1.6 -5 0  -1.5 -5 0  -1.4 -5 0  -1.3 -5 0  -1.2 -5 0  -1.1 -5 0  -1 -5 0  -0.9000000000000004 -5 0  -0.7999999999999998 -5 0  -0.7000000000000002 -5 0  -0.5999999999999996 -5 0  -0.5 -5 0  -0.4000000000000004 -5 0  -0.2999999999999998 -5 0  -0.2000000000000002 -5 0  -0.09999999999999964 -5 0  0 -5 0  0.09999999999999964 -5 0  0.2000000000000002 -5 0  0.2999999999999998 -5 0  0.4000000000000004 -5 0  0.5 -5 0  0.5999999999999996 -5 0  0.7000000000000002 -5 0  0.7999999999999998 -5 0  0.9000000000000004 -5 0  1 -5 0  1.1 -5 0  1.2 -5 0  1.3 -5 0  1.4 -5 0  1.5 -5 0  1.6 -5 0  1.7 -5 0  1.8 -5 0  1.9 -5 0  2 -5 0  2.1 -5 0  2.2 -5 0  2.3 -5 0  2.4 -5 0  2.5 -5 0  2.6 -5 0  2.7 -5 0  2.8 -5 0  2.9 -5 0  3 -5 0  3.1 -5 0  3.199999999999999 -5 0  3.300000000000001 -5 0  3.4 -5 0  3.5 -5 0  3.6 -5 0  3.699999999999999 -5 0  3.800000000000001 -5 0  3.9 -5 0  4 -5 0  4.1 -5 0  4.199999999999999 -5 0  4.300000000000001 -5 0  4.4 -5 0  4.5 -5 0  4.6 -5 0  4.699999999999999 -5 0  4.800000000000001 -5 0  4.9 -5 0  5 -4.9 0  5 -4.8 0  5 -4.7 0  5 -4.6 0  5 -4.5 0  5 -4.4 0  5 -4.3 0  5 -4.2 0  5 -4.1 0  5 -4 0  5 -3.9 0  5 -3.8 0  5 -3.7 0  5 -3.6 0  5 -3.5 0  5 -3.4 0  5 -3.3 0  5 -3.2 0  5 -3.1 0  5 -3 0  5 -2.9 0  5 -2.8 0  5 -2.7 0  5 -2.6 0  5 -2.5 0  5 -2.4 0  5 -2.3 0  5 -2.2 0  5 -2.1 0  5 -2 0  5 -1.9 0  5 -1.8 0  5 -1.7 0  5 -1.6 0  5 -1.5 0  5 -1.4 0  5 -1.3 0  5 -1.2 0  5 -1.1 0  5 -1 0  5 -0.9000000000000004 0  5 -0.7999999999999998 0  5 -0.7000000000000002 0  5 -0.5999999999999996 0  5 -0.5 0  5 -0.4000000000000004 0  5 -0.2999999999999998 0  5 -0.2000000000000002 0  5 -0.09999999999999964 0  5 0 0  5 0.09999999999999964 0  5 0.2000000000000002 0  5 0.2999999999999998 0  5 0.4000000000000004 0  5 0.5 0  5 0.5999999999999996 0  5 0.7000000000000002 0  5 0.7999999999999998 0  5 0.9000000000000004 0  5 1 0  5 1.1 0  5 1.2 0  5 1.3 0  5 1.4 0  5 1.5 0  5 1.6 0  5 1.7 0  5 1.8 0  5 1.9 0  5 2 0  5 2.1 0  5 2.2 0  5 2.3 0  5 2.4 0  5 2.5 0  5 2.6 0  5 2.7 0  5 2.8 0  5 2.9 0  5 3 0  5 3.1 0  5 3.199999999999999 0  5 3.300000000000001 0  5 3.4 0  5 3.5 0  5 3.6 0  5 3.699999999999999 0  5 3.800000000000001 0  5 3.9 0  5 4 0  5 4.1 0  5 4.199999999999999 0  5 4.300000000000001 0  5 4.4 0  5 4.5 0  5 4.6 0  5 4.699999999999999 0  5 4.800000000000001 0  5 4.9 0  4.9 5 0  4.8 5 0  4.7 5 0  4.6 5 0  4.5 5 0  4.4 5 0  4.3 5 0  4.2 5 0  4.1 5 0  4 5 0  3.9 5 0  3.8 5 0  3.7 5 0  3.6 5 0  3.5 5 0  3.4 5 0  3.3 5 0  3.2 5 0  3.1 5 0  3 5 0  2.9 5 0  2.8 5 0  2.7 5 0  2.6 5 0  2.5 5 0  2.4 5 0  2.3 5 0  2.2 5 0  2.1 5 0  2 5 0  1.9 5 0  1.8 5 0  1.7 5 0  1.6 5 0  1.5 5 0  1.4 5 0  1.3 5 0  1.2 5 0  1.1 5 0  1 5 0  0.9000000000000004 5 0  0.7999999999999998 5 0  0.7000000000000002 5 0  0.5999999999999996 5 0  0.5 5 0  0.4000000000000004 5 0  0.2999999999999998 5 0  0.2000000000000002 5 0  0.09999999999999964 5 0  0 5 0  -0.09999999999999964 5 0  -0.2000000000000002 5 0  -0.2999999999999998 5 0  -0.4000000000000004 5 0  -0.5 5 0  -0.5999999999999996 5 0  -0.7000000000000002 5 0  -0.7999999999999998 5 0  -0.9000000000000004 5 0  -1 5 0  -1.1 5 0  -1.2 5 0  -1.3 5 0  -1.4 5 0  -1.5 5 0  -1.6 5 0  -1.7 5 0  -1.8 5 0  -1.9 5 0  -2 5 0  -2.1 5 0  -2.2 5 0  -2.3 5 0  -2.4 5 0  -2.5 5 0  -2.6 5 0  -2.7 5 0  -2.8 5 0  -2.9 5 0  -3 5 0  -3.1 5 0  -3.199999999999999 5 0  -3.300000000000001 5 0  -3.4 5 0  -3.5 5 0  -3.6 5 0  -3.699999999999999 5 0  -3.800000000000001 5 0  -3.9 5 0  -4 5 0  -4.1 5 0  -4.199999999999999 5 0  -4.300000000000001 5 0  -4.4 5 0  -4.5 5 0  -4.6 5 0  -4.699999999999999 5 0  -4.800000000000001 5 0  -4.9 5 0  -5 4.9 0  -5 4.8 0  -5 4.7 0  -5 4.6 0  -5 4.5 0  -5 4.4 0  -5 4.3 0  -5 4.2 0  -5 4.1 0  -5 4 0  -5 3.9 0  -5 3.8 0  -5 3.7 0  -5 3.6 0  -5 3.5 0  -5 3.4 0  -5 3.3 0  -5 3.2 0  -5 3.1 0  -5 3 0  -5 2.9 0  -5 2.8 0  -5 2.7 0  -5 2.6 0  -5 2.5 0  -5 2.4 0  -5 2.3 0  -5 2.2 0  -5 2.1 0  -5 2 0  -5 1.9 0  -5 1.8 0  -5 1.7 0  -5 1.6 0  -5 1.5 0  -5 1.4 0  -5 1.3 0  -5 1.2 0  -5 1.1 0  -5 1 0  -5 0.9000000000000004 0  -5 0.7999999999999998 0  -5 0.7000000000000002 0  -5 0.5999999999999996 0  -5 0.5 0  -5 0.4000000000000004 0  -5 0.2999999999999998 0  -5 0.2000000000000002 0  -5 0.09999999999999964 0  -5 0 0  -5 -0.09999999999999964 0  -5 -0.2000000000000002 0  -5 -0.2999999999999998 0  -5 -0.4000000000000004 0  -5 -0.5 0  -5 -0.5999999999999996 0  -5 -0.7000000000000002 0  -5 -0.7999999999999998 0  -5 -0.9000000000000004 0  -5 -1 0  -5 -1.1 0  -5 -1.2 0  -5 -1.3 0  -5 -1.4 0  -5 -1.5 0  -5 -1.6 0  -5 -1.7 0  -5 -1.8 0  -5 -1.9 0  -5 -2 0  -5 -2.1 0  -5 -2.2 0  -5 -2.3 0  -5 -2.4 0  -5 -2.5 0  -5 -2.6 0  -5 -2.7 0  -5 -2.8 0  -5 -2.9 0  -5 -3 0  -5 -3.1 0  -5 -3.199999999999999 0  -5 -3.300000000000001 0  -5 -3.4 0  -5 -3.5 0  -5 -3.6 0  -5 -3.699999999999999 0  -5 -3.800000000000001 0  -5 -3.9 0  -5 -4 0  -5 -4.1 0  -5 -4.199999999999999 0  -5 -4.300000000000001 0  -5 -4.4 0  -5 -4.5 0  -5 -4.6 0  -5 -4.699999999999999 0  -5 -4.800000000000001 0  -5 -4.9 0  2.402132498274062 0.2837518572192274 0  1.938793792265436 0.3584041317545265 0  2.359269372028017 0.7354073382676584 0  1.76416998817742 0.6546769937736366 0  1.852074578748552 0.9203874634197452 0  1.528263223708982 0.9956336452550459 0  1.307715479024607 1.26958898279223 0  1.150736163338465 0.9645584442128512 0  1.138736285148443 1.241289623229798 0  0.9481306945755696 1.401758648390118 0  0.7827579339775962 1.409723664218422 0  0.6502606676787007 1.441325089926542 0  0.4634147611449732 1.532187288950065 0  0.2940708814093809 1.564396066471307 0  0.1323693120556715 1.592508500839159 0  -0.02481084680724731 1.588005428938298 0  -0.2283857373581884 1.559997195323418 0  -0.3902719240930518 1.55132368352357 0  -0.5419463851986949 1.505722040046675 0  -0.7023785251520575 1.42894839084427 0  -0.8718923275911485 1.394793696573631 0  -1.043265668380264 1.281849392410296 0  -1.192334282195973 1.168740604208112 0  -1.331593156687584 1.239779471568348 0  -1.225097831356415 0.8128288557342298 0  -1.546625827684412 1.058463944472305 0  -1.961599056878293 0.9172343036630776 0  -1.807183393550709 0.6532582371442289 0  -2.165519935618165 0.596693689620082 0  -2.219166234455879 0.3097188721604784 0  -2.331076158141388 0.06470746392217172 0  -1.83021486111105 -0.1117889893096885 0  -2.511790675831828 -0.5059675126563383 0  -1.988506635866508 -0.4182865103898481 0  -1.872822677703109 -0.6435537428245595 0  -1.904410962315563 -0.9989445866509938 0  -1.519122575561838 -0.8032407566416432 0  -1.532845024181576 -0.9514323723089713 0  -1.365669854017974 -1.172177985792785 0  -1.147870765391182 -1.151391714168663 0  -1.015773970198331 -1.29226621944266 0  -0.8617363933734662 -1.428905667746925 0  -0.6924588660545192 -1.454773090231761 0  -0.533638845870268 -1.492199459148172 0  -0.3765934064878605 -1.557284336934486 0  -0.2077890728375578 -1.567980056208155 0  -0.04476675353198456 -1.586416465686447 0  0.1426865534741992 -1.583666568851436 0  0.2888324872285822 -1.576172847816428 0  0.4639995189117377 -1.546980533375164 0  0.6275624287065305 -1.48289164659191 0  0.7509753143323368 -1.325608423737798 0  0.9327661207752438 -1.386060479095901 0  1.108724827899381 -1.281685258810346 0  1.298282125849291 -1.229126469862658 0  1.383555651319449 -1.01937703212312 0  1.478783635726717 -0.8612423472738997 0  1.812512176106161 -0.9363543036947827 0  1.896533651906223 -0.7310126924428733 0  1.881240718262258 -0.5053488694349579 0  2.297286277998702 -0.4571092435925768 0  2.240718777520932 -0.1740158735422933 0  -2.449946428415527 4.920210866476544 0  -2.449911069640524 -4.912759569527752 0  4.911013290147562 2.448147484465215 0  4.919051566322307 -2.449474495451512 0  2.447851424734798 -4.898331000616962 0  2.442273742179626 4.90207846192414 0  -4.911069122729802 -2.448179657883268 0  -4.911106969951565 2.44817656783983 0  -1.750258208972155 4.914421721914103 0  -1.745952770972839 -4.917697520627542 0  4.920559949017357 1.743781853579376 0  4.909011508823841 -1.7476634821752 0  -4.909429161217288 -1.747377167247602 0  -4.91027932797121 1.747118394518477 0  1.747701719707399 4.908502255538987 0  1.749273492817951 -4.897012653299833 0  -1.150385058692241 4.913344540594466 0  -1.131098401824722 -4.920715105712241 0  -4.908273015240836 -1.147424741069521 0  -4.908096818319922 1.147218524833737 0  1.145270180741233 -4.917127582362269 0  1.150401104632424 4.913280359684028 0  4.90836271334272 1.145672705095005 0  4.919248947246806 -1.151382958749335 0  -0.5475005589827521 -4.915097626473752 0  -0.5472093012435468 4.923381635264601 0  -4.906114791512675 -0.5482975511716115 0  -4.906140922526263 0.5468447452949771 0  4.905242899078191 -0.5486309323417884 0  4.917202482752669 0.5453178992417667 0  0.5434781451486417 -4.90267247083545 0  0.5519736068349393 4.920383048804794 0  -4.912650006097323 -3.048744890669596 0  4.919171899685189 3.04668801610909 0  4.912126005492709 -3.048691527188994 0  -4.91352094686262 3.045817212252343 0  3.056271987306796 -4.918780450650835 0  -3.049680845550565 -4.912771653935751 0  3.05322924677926 4.914872597237919 0  -3.049150993834989 4.913709355308749 0  -4.904858671840784 -0.04986416183417548 0  0.04521414318424955 -4.917173854289289 0  0.04963965506405828 4.923857087649981 0  4.911964253573315 -0.05128504691654352 0  3.546242829524723 -4.919920691122161 0  -3.549616957138629 4.912967267272934 0  -3.549585623304515 -4.9129838661
[...]
<PointData  Vectors="f_8382"> 
<DataArray  type="Float64"  Name="f_8382"  NumberOfComponents="3" format="ascii">-1.5163045609707598e-01 -1.7693294007631100e-01 0.0000000000000000e+00  1.6576126033931649e-01 -1.4022394939801255e-01 0.0000000000000000e+00  9.5866085879659363e-02 1.1198913952086081e-01 0.0000000000000000e+00  -1.5868999244402565e-01 1.8118762556662435e-01 0.0000000000000000e+00  9.1338424430194962e+00 -8.2739272270362303e+00 0.0000000000000000e+00  5.8342754314007768e-02 -1.3401041259049331e+00 0.0000000000000000e+00  4.9170858585654210e-02 -2.1753975799978233e+00 0.0000000000000000e+00  5.1964899771663450e-02 -3.5905883285030544e+00 0.0000000000000000e+00  3.9826264643318239e-02 -4.4382848008778257e+00 0.0000000000000000e+00  -9.7179950756373076e-02 -5.7652818840604940e+00 0.0000000000000000e+00  1.9690865683353383e-02 -7.0808011978814518e+00 0.0000000000000000e+00  3.4491883728470278e-02 -8.0723629941603718e+00 0.0000000000000000e+00  -1.6182308387926354e-02 -9.2832225299358537e+00 0.0000000000000000e+00  6.0522522950103623e-02 -1.0228183960475873e+01 0.0000000000000000e+00  6.0922308494094718e-02 -1.1604963906821212e+01 0.0000000000000000e+00  -9.2482716979355832e-03 -1.2524076844414246e+01 0.0000000000000000e+00  -1.6531840640744228e-02 -1.3730895847886465e+01 0.0000000000000000e+00  7.4592629462017926e-03 -1.4905207728451163e+01 0.0000000000000000e+00  5.0945160410527683e-03 -1.6013264898974835e+01 0.0000000000000000e+00  -6.1687183314676460e-03 -1.7138773137292596e+01 0.0000000000000000e+00  4.0022654153770518e-03 -1.8309252190307816e+01 0.0000000000000000e+00  2.3995430731336614e-02 -1.9438025197249665e+01 0.0000000000000000e+00  -3.2214726183473945e-03 -2.0333125652417056e+01 0.0000000000000000e+00  -7.7615757346703035e-03 -2.1567118711998429e+01 0.0000000000000000e+00  -3.0769815647854460e-02 -2.2799643564502809e+01 0.0000000000000000e+00  8.0282890185716008e-02 -2.3666644730488734e+01 0.0000000000000000e+00  3.6025302740295452e-02 -2.4918898181526767e+01 0.0000000000000000e+00  4.2688959326183717e-02 -2.5731653008393291e+01 0.0000000000000000e+00  7.1008444069322579e-02 -2.6930137848095438e+01 0.0000000000000000e+00  -3.3234806117209546e-02 -2.7771072830306391e+01 0.0000000000000000e+00  -1.1046535425322249e-02 -2.8921234811571139e+01 0.0000000000000000e+00  -4.0492827076343118e-03 -2.9992873627899314e+01 0.0000000000000000e+00  5.1572355557305521e-02 -3.0748706874338279e+01 0.0000000000000000e+00  3.8015360108454618e-02 -3.1897594743372093e+01 0.0000000000000000e+00  3.7325963273496333e-02 -3.2577132096866855e+01 0.0000000000000000e+00  -8.4111794565911904e-02 -3.3613003757359500e+01 0.0000000000000000e+00  3.6706082703660846e-02 -3.4584196276058002e+01 0.0000000000000000e+00  5.6433371775928762e-03 -3.5286215208498746e+01 0.0000000000000000e+00  -1.1528216061420140e-03 -3.6073654898465115e+01 0.0000000000000000e+00  -1.3395050320350265e-03 -3.6828215341540535e+01 0.0000000000000000e+00  6.2205409983382689e-03 -3.7547985607376290e+01 0.0000000000000000e+00  -3.5891266025536793e-02 -3.8293779068021522e+01 0.0000000000000000e+00  4.3642473839613692e-02 -3.8857019822431930e+01 0.0000000000000000e+00  2.3692061617070766e-02 -3.9440411529979954e+01 0.0000000000000000e+00  1.8065205251224823e-02 -4.0035798491329182e+01 0.0000000000000000e+00  -9.8873550162409223e-03 -4.0550387211099583e+01 0.0000000000000000e+00  4.2241822242932520e-02 -4.0901355682400464e+01 0.0000000000000000e+00  -3.1352664637982877e-02 -4.1379425288343135e+01 0.0000000000000000e+00  1.7467593747843013e-02 -4.1773366719537087e+01 0.0000000000000000e+00  -3.7535580632580331e-03 -4.2016597971537173e+01 0.0000000000000000e+00  1.2875916184668698e-03 -4.2274042941957454e+01 0.0000000000000000e+00  -9.0056382550550342e-04 -4.2466452252206167e+01 0.0000000000000000e+00  4.1030542805076321e-04 -4.2604951097675382e+01 0.0000000000000000e+00  2.0646840501078003e-04 -4.2687828447665957e+01 0.0000000000000000e+00  1.8575483152852134e-03 -4.2715587602672734e+01 0.0000000000000000e+00  6.9820110183908314e-04 -4.2698631515018015e+01 0.0000000000000000e+00  7.8412978557267695e-03 -4.2607584541452148e+01 0.0000000000000000e+00  -1.0908475930135735e-02 -4.2437930310596734e+01 0.0000000000000000e+00  -5.4723616239255755e-03 -4.2290320804671040e+01 0.0000000000000000e+00  -2.1049307058172956e-02 -4.1987675222404633e+01 0.0000000000000000e+00  6.9564962155555998e-03 -4.1740878743661625e+01 0.0000000000000000e+00  5.8438939413203404e-03 -4.1368411489419202e+01 0.0000000000000000e+00  -4.2889063633004942e-03 -4.0945495696250120e+01 0.0000000000000000e+00  -9.1346017718580330e-04 -4.0502565391455789e+01 0.0000000000000000e+00  5.3581694176275396e-03 -3.9992823953309532e+01 0.0000000000000000e+00  -1.2104994289129326e-02 -3.9440450872478188e+01 0.0000000000000000e+00  -7.4074642718937912e-03 -3.8823224113190186e+01 0.0000000000000000e+00  8.2164408073591017e-03 -3.8265665820022633e+01 0.0000000000000000e+00  -1.9683301962015880e-02 -3.7525046012683184e+01 0.0000000000000000e+00  2.2959988087424030e-02 -3.6798046503306061e+01 0.0000000000000000e+00  -2.9417852846875720e-02 -3.6049073463613198e+01 0.0000000000000000e+00  5.3780602734928469e-03 -3.5213961730746497e+01 0.0000000000000000e+00  1.4476826017193212e-02 -3.4459100520859032e+01 0.0000000000000000e+00  -2.1109356602818177e-02 -3.3566712725924205e+01 0.0000000000000000e+00  1.4941341403359487e-02 -3.2658303615002289e+01 0.0000000000000000e+00  -1.1292829766255542e-02 -3.1738933373384224e+01 0.0000000000000000e+00  4.8715899040681987e-03 -3.0815417364114758e+01 0.0000000000000000e+00  -2.0556534461852398e-02 -2.9864824360062734e+01 0.0000000000000000e+00  -6.6113853986006247e-03 -2.8829283709835870e+01 0.0000000000000000e+00  9.2536686182127827e-03 -2.7966735037191054e+01 0.0000000000000000e+00  1.7544851229453588e-03 -2.6877493818162179e+01 0.0000000000000000e+00  8.3522394529439731e-03 -2.5818344560431928e+01 0.0000000000000000e+00  -2.9986212658570082e-02 -2.4783839775473048e+01 0.0000000000000000e+00  -1.1149988263395912e-02 -2.3616855163364352e+01 0.0000000000000000e+00  1.9465861673222611e-02 -2.2659559290550575e+01 0.0000000000000000e+00  -2.9508514222272089e-02 -2.1488629379398734e+01 0.0000000000000000e+00  1.4678297909095381e-03 -2.0446093775514733e+01 0.0000000000000000e+00  1.1437692882125001e-02 -1.9378423830305703e+01 0.0000000000000000e+00  1.2477402947437865e-02 -1.8198060216885448e+01 0.0000000000000000e+00  -3.5140222063930304e-02 -1.7121287358442348e+01 0.0000000000000000e+00  6.7207659100836040e-03 -1.5924042055769503e+01 0.0000000000000000e+00  8.0115766068143308e-03 -1.4910296131149225e+01 0.0000000000000000e+00  -2.7994203930468611e-02 -1.3689595603638045e+01 0.0000000000000000e+00  -5.7739922190605053e-04 -1.2608161683975123e+01 0.0000000000000000e+00  1.5411666800481678e-02 -1.1441157200235077e+01 0.0000000000000000e+00  -8.7922578743039571e-04 -1.0284745575069140e+01 0.0000000000000000e+00  -1.5173936894612879e-02 -9.1683653731877648e+00 0.0000000000000000e+00  -1.1759177993981433e-02 -7.9783449208142727e+00 0.0000000000000000e+00  2.2694685446472851e-02 -6.9617061633584267e+00 0.0000000000000000e+00  -3.4442407638936877e-02 -5.7285419983562740e+00 0.0000000000000000e+00  8.2669565626307395e-03 -4.6093568724170320e+00 0.0000000000000000e+00  1.8957524169381675e-02 -3.4320181926507431e+00 0.0000000000000000e+00  -2.9576964030576750e-02 -2.2790911174702382e+00 0.0000000000000000e+00  -3.6358069463129646e-02 -1.3193452519440503e+00 0.0000000000000000e+00  1.3730828302863765e+00 3.2967395614974082e-02 0.0000000000000000e+00  2.2031823181965247e+00 8.4184489196170040e-02 0.0000000000000000e+00  3.5460469918728110e+00 6.1574462189373957e-02 0.0000000000000000e+00  4.5321879596457917e+00 -1.8868160368086705e-02 0.0000000000000000e+00  5.7598821612034916e+00 8.8755025820301398e-03 0.0000000000000000e+00  6.8909077950786699e+00 -6.3938721399355572e-03 0.0000000000000000e+00  8.0381281501306390e+00 1.2353703665029703e-03 0.0000000000000000e+00  9.1907408911526183e+00 -1.9084843977967038e-03 0.0000000000000000e+00  1.0335524222659709e+01 5.3188741353795712e-04 0.0000000000000000e+00  1.1506606654296428e+01 -3.7426004527525827e-04 0.0000000000000000e+00  1.2641388112571159e+01 -4.1332926143776819e-05 0.0000000000000000e+00  1.3806237960490257e+01 3.8633424714310969e-03 0.0000000000000000e+00  1.4922453519215594e+01 1.6236060382996285e-03 0.0000000000000000e+00  1.6116644687456173e+01 -7.8367007953185300e-03 0.0000000000000000e+00  1.7238624020798554e+01 3.9531941540472022e-03 0.0000000000000000e+00  1.8426098417999942e+01 3.2686894935716861e-03 0.0000000000000000e+00  1.9539392724674656e+01 -3.4001366560549614e-03 0.0000000000000000e+00  2.0666468303572575e+01 7.7970365580168587e-03 0.0000000000000000e+00  2.1846381842873935e+01 -7.7629714409445522e-03 0.0000000000000000e+00  2.2946922394678559e+01 -5.1864989803375745e-03 0.0000000000000000e+00  2.4101803770977398e+01 1.0634540702149762e-02 0.0000000000000000e+00  2.5233817293148448e+01 -1.1629604845184785e-02 0.0000000000000000e+00  2.6285035727348827e+01 8.3571752766580625e-03 0.0000000000000000e+00  2.7409258992222501e+01 1.8449233073619851e-03 0.0000000000000000e+00  2.8521129914130480e+01 4.9874177546443939e-03 0.0000000000000000e+00  2.9612992319061107e+01 -3.0863651017115283e-03 0.0000000000000000e+00  3.0667870116427281e+01 -2.1816590317290472e-03 0.0000000000000000e+00  3.1695875026373351e+01 -1.6400445251772756e-03 0.0000000000000000e+00  3.2718161743242504e+01 6.0514656276731761e-05 0.0000000000000000e+00  3.3718566621523394e+01 -4.3437394164078168e-04 0.0000000000000000e+00  3.4694827990310408e+01 1.9638742840826041e-04 0.0000000000000000e+00  3.5642845616929783e+01 -2.4499936274187716e-03 0.0000000000000000e+00  3.6551353504305439e+01 -9.8889891306638182e-04 0.0000000000000000e+00  3.7452383405342346e+01 4.6666093119220563e-03 0.0000000000000000e+00  3.8317487219024194e+01 -7.4843968273302112e-03 0.0000000000000000e+00  3.9090683096578807e+01 7.6656394952986625e-03 0.0000000000000000e+00  3.9874344100024594e+01 -8.5445752750709029e-04 0.0000000000000000e+00  4.0598247685200995e+01 8.7878798106775756e-03 0.0000000000000000e+00  4.1268292886417377e+01 1.0980308252613447e-02 0.0000000000000000e+00  4.1936953449689035e+01 -3.3226531744166961e-02 0.0000000000000000e+00  4.2564874535995514e+01 2.4326629015475415e-02 0.0000000000000000e+00  4.3039543484178310e+01 -1.0506776363955401e-02 0.0000000000000000e+00  4.3529667778476067e+01 1.4063390227183493e-03 0.0000000000000000e+00  4.3945660336553971e+01 -3.3070342919383892e-03 0.0000000000000000e+00  4.4281442534798565e+01 7.2657775039945832e-03 0.0000000000000000e+00  4.4572511253579925e+01 -1.2098878090035432e-03 0.0000000000000000e+00  4.4808543708261766e+01 5.7781611131475254e-04 0.0000000000000000e+00  4.4975234820912434e+01 -7.9690425642087886e-04 0.0000000000000000e+00  4.5075346743007458e+01 -3.4497022418750038e-04 0.0000000000000000e+00  4.5106357782035261e+01 7.7013366368834733e-04 0.0000000000000000e+00  4.5073588548986010e+01 6.6888126339991101e-04 0.0000000000000000e+00  4.4978249149535259e+01 -1.8642323900889197e-03 0.0000000000000000e+00  4.4810887331471058e+01 2.0433661004784008e-03 0.0000000000000000e+00  4.4579383523630980e+01 1.3434025090899201e-04 0.0000000000000000e+00  4.4295398028573025e+01 -3.5486479021863554e-03 0.0000000000000000e+00  4.3935836233009773e+01 4.1628684875096942e-03 0.0000000000000000e+00  4.3513680798854843e+01 -2.2183976761004255e-04 0.0000000000000000e+00  4.3045445084415768e+01 -4.7875918895679158e-03 0.0000000000000000e+00  4.2499913273529835e+01 1.0231817499171143e-03 0.0000000000000000e+00  4.1926292142376127e+01 2.5327095243441980e-03 0.0000000000000000e+00  4.1290107123549539e+01 -3.3077639541158172e-03 0.0000000000000000e+00  4.0629663409057954e+01 1.1687837449002433e-04 0.0000000000000000e+00  3.9882734375567722e+01 2.3030983062146135e-03 0.0000000000000000e+00  3.9113626386625462e+01 -2.1308307069304181e-03 0.0000000000000000e+00  3.8319000283582625e+01 7.5963137038180199e-03 0.0000000000000000e+00  3.7437682658041837e+01 -5.6393203183641152e-03 0.0000000000000000e+00  3.6572737969318787e+01 -7.3189212382811760e-03 0.0000000000000000e+00  3.5641174182218876e+01 9.5463891326803205e-03 0.0000000000000000e+00  3.4668681628530202e+01 -2.5733069420565162e-03 0.0000000000000000e+00  3.3701018626039080e+01 -4.9362294802882218e-03 0.0000000000000000e+00  3.2692997616954109e+01 4.1487430829593528e-03 0.0000000000000000e+00  3.1671792453262817e+01 3.7464089223503269e-03 0.0000000000000000e+00  3.0621810515447624e+01 -8.3174638362338638e-04 0.0000000000000000e+00  2.9567506437628296e+01 2.2723447160683290e-05 0.0000000000000000e+00  2.8493787280192709e+01 2.2802719546602900e-03 0.0000000000000000e+00  2.7400126471913492e+01 -1.3381165751332562e-03 0.0000000000000000e+00  2.6323208343407803e+01 -2.1832561648952890e-03 0.0000000000000000e+00  2.5229849290582642e+01 6.8111930441179160e-03 0.0000000000000000e+00  2.4070668184036258e+01 -9.1908014966793281e-03 0.0000000000000000e+00  2.2941713047999897e+01 -9.2604118012980284e-04 0.0000000000000000e+00  2.1810311908631824e+01 -9.7250721969850738e-04 0.0000000000000000e+00  2.0710043594372241e+01 -3.1460757832158550e-04 0.0000000000000000e+00  1.9568637321781619e+01 9.4038592465277154e-03 0.0000000000000000e+00  1.8381474893200931e+01 -8.1779121313238830e-03 0.0000000000000000e+00  1.7233477218486769e+01 -1.0077972344217625e-03 0.0000000000000000e+00  1.6082424951792333e+01 6.2878315921315357e-04 0.0000000000000000e+00  1.4907379038499572e+01 3.9690936238674897e-03 0.0000000000000000e+00  1.3788765071693206e+01 1.7395197139259829e-03 0.0000000000000000e+00  1.2619452738779357e+01 -2.5030784387890725e-03 0.0000000000000000e+00  1.1480339857776533e+01 1.1285343953940496e-03 0.0000000000000000e+00  1.0330464635326432e+01 3.9193954337790890e-03 0.0000000000000000e+00  9.2038283058099637e+00 -1.4275076699466864e-03 0.0000000000000000e+00  8.0309797320896124e+00 -3.5101786314171556e-03 0.0000000000000000e+00  6.8822165161442292e+00 6.6353342764917155e-03 0.0000000000000000e+00  5.7544095509257902e+00 -1.1427245217241196e-02 0.0000000000000000e+00  4.6345963056247017e+00 -4.8257654255093076e-03 0.0000000000000000e+00  3.4765175027294739e+00 1.5821451559113981e-02 0.0000000000000000e+00  2.2817530882567145e+00 3.1272796418781976e-04 0.0000000000000000e+00  1.2400656544998576e+00 -4.1417875343133417e-02 0.0000000000000000e+00  -6.6630308947441250e-02 1.2804559677763945e+00 0.0000000000000000e+00  1.6708815660656719e-02 2.2235184259341660e+00 0.0000000000000000e+00  -2.8244686794945333e-02 3.4244824061851347e+00 0.0000000000000000e+00  -2.2147068288416158e-02 4.4044307582583038e+00 0.0000000000000000e+00  9.6049297383937901e-02 5.7248929293678446e+00 0.0000000000000000e+00  -2.3631990156869148e-02 7.0609485887304961e+00 0.0000000000000000e+00  -6.8920297270670977e-02 7.8954238271395543e+00 0.0000000000000000e+00  -9.7677859642371009e-02 9.2389424568826346e+00 0.0000000000000000e+00  2.7739519598152605e-02 1.0172994965166421e+01 0.0000000000000000e+00  3.0501082800617710e-02 1.1434241124008471e+01 0.0000000000000000e+00  -2.8273066200198441e-02 1.2577813035107068e+01 0.0000000000000000e+00  2.0358030226766105e-02 1.3672764306461611e+01 0.0000000000000000e+00  5.0673828762773029e-03 1.4907987529660316e+01 0.0000000000000000e+00  -4.1401130334316272e-03 1.5879445537229650e+01 0.0000000000000000e+00  -1.3036038697107063e-02 1.7075313223182899e+01 0.0000000000000000e+00  -5.6241169413292222e-03 1.8150840181311821e+01 0.0000000000000000e+00  1.5418221806882055e-02 1.9301867679426802e+01 0.0000000000000000e+00  -5.0329429276448545e-03 2.0441069055132822e+01 0.0000000000000000e+00  -1.1549316058841172e-02 2.1498807425174157e+01 0.0000000000000000e+00  -2.8982155041386241e-03 2.2646776225203226e+01 0.0000000000000000e+00  -1.1270519055427907e-02 2.3547706674107250e+01 0.0000000000000000e+00  2.4595294527877454e-02 2.4737622895606609e+01 0.0000000000000000e+00  -2.0623196060771839e-02 2.5755877781590364e+01 0.0000000000000000e+00  2.4299271511256403e-02 2.6796002342993887e+01 0.0000000000000000e+00  8.1208895799025002e-03 2.7890364230029149e+01 0.0000000000000000e+00  -5.6348649913281368e-02 2.8694424718454389e+01 0.0000000000000000e+00  -4.7148319711727220e-02 2.9873155036317005e+01 0.0000000000000000e+00  9.5939487599125579e-03 3.0660509268630459e+01 0.0000000000000000e+00  -3.0181130100518365e-02 3.1649584471561656e+01 0.0000000000000000e+00  -1.5015692882871056e-02 3.2434414552258580e+01 0.0000000000000000e+00  7.3989751613335028e-02 3.3442991138288605e+01 0.0000000000000000e+00  -2.6051197863072167e-02 3.4428822950990572e+01 0.0000000000000000e+00  -3.8718330416483697e-02 3.5047424117542157e+01 0.0000000000000000e+00  -4.3039783526617213e-02 3.5991964376330955e+01 0.0000000000000000e+00  5.7985400999908850e-03 3.6579699597693782e+01 0.0000000000000000e+00  1.3117260010992775e-02 3.7386708949702452e+01 0.0000000000000000e+00  -5.4418228032279249e-03 3.8083002722075612e+01 0.0000000000000000e+00  -1.5981941325000390e-03 3.8697544207554465e+01 0.0000000000000000e+00  1.1780037255778514e-03 3.9285837364162852e+01 0.0000000000000000e+00  1.3583528653033998e-03 3.9854977486974619e+01 0.0000000000000000e+00  -1.0180852133853339e-02 4.0362070474825600e+01 0.0000000000000000e+00  7.4934586325712909e-04 4.0727664725800992e+01 0.0000000000000000e+00  -5.6805218394517234e-04 4.1180119628476554e+01 0.0000000000000000e+00  4.4003300746487664e-03 4.1541779481755945e+01 0.0000000000000000e+00  -7.9918167453620591e-03 4.1831920783802488e+01 0.0000000000000000e+00  7.7382863900870595e-03 4.2090586688218636e+01 0.0000000000000000e+00  -2.7216214454411376e-03 4.2265110781181242e+01 0.0000000000000000e+00  -6.9271167653674817e-03 4.2414605929793488e+01 0.0000000000000000e+00  1.6490420515727696e-03 4.2493284572896016e+01 0.0000000000000000e+00  1.6738598785574564e-03 4.2525600474700681e+01 0.0000000000000000e+00  7.1069330414732434e-03 4.2488283103693526e+01 0.0000000000000000e+00  -7.9886606245429745e-03 4.2410821088821500e+01 0.0000000000000000e+00  3.6051581254264624e-03 4.2273465425054646e+01 0.0000000000000000e+00  -6.4819812126254922e-03 4.2073454575905771e+01 0.0000000000000000e+00  9.2262058357443048e-03 4.1826266217200022e+01 0.0000000000000000e+00  -8.1925413313721288e-03 4.1500271884482792e+01 0.0000000000000000e+00  1.8065053930833623e-02 4.1204425735798907e+01 0.0000000000000000e+00  2.0714757074445162e-02 4.0715517013807002e+01 0.0000000000000000e+00  1.2144186639411608e-02 4.0363614344677757e+01 0.0000000000000000e+00  4.2642766429740589e-02 3.9784064951178991e+01 0.0000000000000000e+00  -2.0796016025598347e-02 3.9342833179355367e+01 0.0000000000000000e+00  -7.3285445029408237e-03 3.8681985896307886e+01 0.0000000000000000e+00  8.3197454375274101e-03 3.8015751760347243e+01 0.0000000000000000e+00  -1.8636636227491339e-03 3.7363361147904968e+01 0.0000000000000000e+00  -6.3366170950389280e-04 3.6653518243304205e+01 0.0000000000000000e+00  -2.7386950252813571e-03 3.5885252717636092e+01 0.0000000000000000e+00  3.2075484559495461e-03 3.5108667062276155e+01 0.0000000000000000e+00  -1.5779927033926878e-02 3.4279796340883230e+01 0.0000000000000000e+00  2.9247337300100925e-02 3.3428220916332471e+01 0.0000000000000000e+00  -2.0633921696905883e-02 3.2476423963201128e+01 0.0000000000000000e+00  2.3001586294752008e-02 3.1692408530399430e+01 0.0000000000000000e+00  6.0168648303556300e-03 3.0763181585409690e+01 0.0000000000000000e+00  -2.5024627387249580e-02 2.9760751828238647e+01 0.0000000000000000e+00  1.6521747048275748e-02 2.8768863563494168e+01 0.0000000000000000e+00  -2.0785935861713491e-02 2.7784970679922679e+01 0.0000000000000000e+00  1.0246199402220064e-02 2.6714372787447100e+01 0.0000000000000000e+00  -4.4267757383514069e-03 2.5672736779498486e+01 0.0000000000000000e+00  4.3313568655946620e-02 2.4803589049126774e+01 0.0