<?xml version="1.0"?>
<VTKFile type="UnstructuredGrid"  version="0.1"  >
<UnstructuredGrid>
<Piece  NumberOfPoints="11902" NumberOfCells="23402">
<Points>
<DataArray  type="Float64"  NumberOfComponents="3"  format="ascii">-5 -5 0  5 -5 0  5 5 0  -5 5 0  1.945255478824307 0.01499110985147486 0  -4.9 -5 0  -4.8 -5 0  -4.7 -5 0  -4.6 -5 0  -4.5 -5 0  -4.4 -5 0  -4.3 -5 0  -4.2 -5 0  -4.1 -5 0  -4 -5 0  -3.9 -5 0  -3.8 -5 0  -3.7 -5 0  -3.6 -5 0  -3.5 -5 0  -3.4 -5 0  -3.3 -5 0  -3.2 -5 0  -3.1 -5 0  -3 -5 0  -2.9 -5 0  -2.8 -5 0  -2.7 -5 0  -2.6 -5 0  -2.5 -5 0  -2.4 -5 0  -2.3 -5 0  -2.2 -5 0  -2.1 -5 0  -2 -5 0  -1.9 -5 0  -1.8 -5 0  -1.7 -5 0  -1.6 -5 0  -1.5 -5 0  -1.4 -5 0  -1.3 -5 0  -1.2 -5 0  -1.1 -5 0  -1 -5 0  -0.9000000000000004 -5 0  -0.7999999999999998 -5 0  -0.7000000000000002 -5 0  -0.5999999999999996 -5 0  -0.5 -5 0  -0.4000000000000004 -5 0  -0.2999999999999998 -5 0  -0.2000000000000002 -5 0  -0.09999999999999964 -5 0  0 -5 0  0.09999999999999964 -5 0  0.2000000000000002 -5 0  0.2999999999999998 -5 0  0.4000000000000004 -5 0  0.5 -5 0  0.5999999999999996 -5 0  0.7000000000000002 -5 0  0.7999999999999998 -5 0  0.9000000000000004 -5 0  1 -5 0  1.1 -5 0  1.2 -5 0  1.3 -5 0  1.4 -5 0  1.5 -5 0  1.6 -5 0  1.7 -5 0  1.8 -5 0  1.9 -5 0  2 -5 0  2.1 -5 0  2.2 -5 0  2.3 -5 0  2.4 -5 0  2.5 -5 0  2.6 -5 0  2.7 -5 0  2.8 -5 0  2.9 -5 0  3 -5 0  3.1 -5 0  3.199999999999999 -5 0  3.300000000000001 -5 0  3.4 -5 0  3.5 -5 0  3.6 -5 0  3.699999999999999 -5 0  3.800000000000001 -5 0  3.9 -5 0  4 -5 0  4.1 -5 0  4.199999999999999 -5 0  4.300000000000001 -5 0  4.4 -5 0  4.5 -5 0  4.6 -5 0  4.699999999999999 -5 0  4.800000000000001 -5 0  4.9 -5 0  5 -4.9 0  5 -4.8 0  5 -4.7 0  5 -4.6 0  5 -4.5 0  5 -4.4 0  5 -4.3 0  5 -4.2 0  5 -4.1 0  5 -4 0  5 -3.9 0  5 -3.8 0  5 -3.7 0  5 -3.6 0  5 -3.5 0  5 -3.4 0  5 -3.3 0  5 -3.2 0  5 -3.1 0  5 -3 0  5 -2.9 0  5 -2.8 0  5 -2.7 0  5 -2.6 0  5 -2.5 0  5 -2.4 0  5 -2.3 0  5 -2.2 0  5 -2.1 0  5 -2 0  5 -1.9 0  5 -1.8 0  5 -1.7 0  5 -1.6 0  5 -1.5 0  5 -1.4 0  5 -1.3 0  5 -1.2 0  5 -1.1 0  5 -1 0  5 -0.9000000000000004 0  5 -0.7999999999999998 0  5 -0.7000000000000002 0  5 -0.5999999999999996 0  5 -0.5 0  5 -0.4000000000000004 0  5 -0.2999999999999998 0  5 -0.2000000000000002 0  5 -0.09999999999999964 0  5 0 0  5 0.09999999999999964 0  5 0.2000000000000002 0  5 0.2999999999999998 0  5 0.4000000000000004 0  5 0.5 0  5 0.5999999999999996 0  5 0.7000000000000002 0  5 0.7999999999999998 0  5 0.9000000000000004 0  5 1 0  5 1.1 0  5 1.2 0  5 1.3 0  5 1.4 0  5 1.5 0  5 1.6 0  5 1.7 0  5 1.8 0  5 1.9 0  5 2 0  5 2.1 0  5 2.2 0  5 2.3 0  5 2.4 0  5 2.5 0  5 2.6 0  5 2.7 0  5 2.8 0  5 2.9 0  5 3 0  5 3.1 0  5 3.199999999999999 0  5 3.300000000000001 0  5 3.4 0  5 3.5 0  5 3.6 0  5 3.699999999999999 0  5 3.800000000000001 0  5 3.9 0  5 4 0  5 4.1 0  5 4.199999999999999 0  5 4.300000000000001 0  5 4.4 0  5 4.5 0  5 4.6 0  5 4.699999999999999 0  5 4.800000000000001 0  5 4.9 0  4.9 5 0  4.8 5 0  4.7 5 0  4.6 5 0  4.5 5 0  4.4 5 0  4.3 5 0  4.2 5 0  4.1 5 0  4 5 0  3.9 5 0  3.8 5 0  3.7 5 0  3.6 5 0  3.5 5 0  3.4 5 0  3.3 5 0  3.2 5 0  3.1 5 0  3 5 0  2.9 5 0  2.8 5 0  2.7 5 0  2.6 5 0  2.5 5 0  2.4 5 0  2.3 5 0  2.2 5 0  2.1 5 0  2 5 0  1.9 5 0  1.8 5 0  1.7 5 0  1.6 5 0  1.5 5 0  1.4 5 0  1.3 5 0  1.2 5 0  1.1 5 0  1 5 0  0.9000000000000004 5 0  0.7999999999999998 5 0  0.7000000000000002 5 0  0.5999999999999996 5 0  0.5 5 0  0.4000000000000004 5 0  0.2999999999999998 5 0  0.2000000000000002 5 0  0.09999999999999964 5 0  0 5 0  -0.09999999999999964 5 0  -0.2000000000000002 5 0  -0.2999999999999998 5 0  -0.4000000000000004 5 0  -0.5 5 0  -0.5999999999999996 5 0  -0.7000000000000002 5 0  -0.7999999999999998 5 0  -0.9000000000000004 5 0  -1 5 0  -1.1 5 0  -1.2 5 0  -1.3 5 0  -1.4 5 0  -1.5 5 0  -1.6 5 0  -1.7 5 0  -1.8 5 0  -1.9 5 0  -2 5 0  -2.1 5 0  -2.2 5 0  -2.3 5 0  -2.4 5 0  -2.5 5 0  -2.6 5 0  -2.7 5 0  -2.8 5 0  -2.9 5 0  -3 5 0  -3.1 5 0  -3.199999999999999 5 0  -3.300000000000001 5 0  -3.4 5 0  -3.5 5 0  -3.6 5 0  -3.699999999999999 5 0  -3.800000000000001 5 0  -3.9 5 0  -4 5 0  -4.1 5 0  -4.199999999999999 5 0  -4.300000000000001 5 0  -4.4 5 0  -4.5 5 0  -4.6 5 0  -4.699999999999999 5 0  -4.800000000000001 5 0  -4.9 5 0  -5 4.9 0  -5 4.8 0  -5 4.7 0  -5 4.6 0  -5 4.5 0  -5 4.4 0  -5 4.3 0  -5 4.2 0  -5 4.1 0  -5 4 0  -5 3.9 0  -5 3.8 0  -5 3.7 0  -5 3.6 0  -5 3.5 0  -5 3.4 0  -5 3.3 0  -5 3.2 0  -5 3.1 0  -5 3 0  -5 2.9 0  -5 2.8 0  -5 2.7 0  -5 2.6 0  -5 2.5 0  -5 2.4 0  -5 2.3 0  -5 2.2 0  -5 2.1 0  -5 2 0  -5 1.9 0  -5 1.8 0  -5 1.7 0  -5 1.6 0  -5 1.5 0  -5 1.4 0  -5 1.3 0  -5 1.2 0  -5 1.1 0  -5 1 0  -5 0.9000000000000004 0  -5 0.7999999999999998 0  -5 0.7000000000000002 0  -5 0.5999999999999996 0  -5 0.5 0  -5 0.4000000000000004 0  -5 0.2999999999999998 0  -5 0.2000000000000002 0  -5 0.09999999999999964 0  -5 0 0  -5 -0.09999999999999964 0  -5 -0.2000000000000002 0  -5 -0.2999999999999998 0  -5 -0.4000000000000004 0  -5 -0.5 0  -5 -0.5999999999999996 0  -5 -0.7000000000000002 0  -5 -0.7999999999999998 0  -5 -0.9000000000000004 0  -5 -1 0  -5 -1.1 0  -5 -1.2 0  -5 -1.3 0  -5 -1.4 0  -5 -1.5 0  -5 -1.6 0  -5 -1.7 0  -5 -1.8 0  -5 -1.9 0  -5 -2 0  -5 -2.1 0  -5 -2.2 0  -5 -2.3 0  -5 -2.4 0  -5 -2.5 0  -5 -2.6 0  -5 -2.7 0  -5 -2.8 0  -5 -2.9 0  -5 -3 0  -5 -3.1 0  -5 -3.199999999999999 0  -5 -3.300000000000001 0  -5 -3.4 0  -5 -3.5 0  -5 -3.6 0  -5 -3.699999999999999 0  -5 -3.800000000000001 0  -5 -3.9 0  -5 -4 0  -5 -4.1 0  -5 -4.199999999999999 0  -5 -4.300000000000001 0  -5 -4.4 0  -5 -4.5 0  -5 -4.6 0  -5 -4.699999999999999 0  -5 -4.800000000000001 0  -5 -4.9 0  2.375942325204972 0.2555180548157848 0  1.960866332198639 0.3688460811525913 0  2.323061017460244 0.7022080932713631 0  1.78175721105993 0.6823893386747004 0  1.82745821044109 0.9371440683393903 0  1.545611040626162 1.023370870470016 0  1.345347886140813 1.280958604362944 0  1.186233889006509 1.050427057393703 0  1.156222321403618 1.284285052729839 0  0.9633597504977461 1.449344025425525 0  0.79159158046277 1.467346390467355 0  0.6591252155166377 1.504808583160848 0  0.4704242605066534 1.58815876250021 0  0.3007298454330496 1.62105942393648 0  0.1350839233716798 1.649567890521149 0  -0.02654123688075574 1.644715864205549 0  -0.2349602339184563 1.615734798174761 0  -0.3970509925639871 1.608577189602064 0  -0.5542649911203105 1.563660315753631 0  -0.7158447589986635 1.490861795541688 0  -0.8876107637218552 1.450425983981017 0  -1.061043000001176 1.334796706288184 0  -1.208693918699819 1.221303551942816 0  -1.401920517256293 1.273787740321025 0  -1.260270485178676 0.8872818449551174 0  -1.565426525826926 1.063838446638161 0  -1.934350324156769 0.9231248865487556 0  -1.842945931517676 0.6758380291643908 0  -2.144346188986933 0.5902699247955219 0  -2.215157463236653 0.3102337933421375 0  -2.297771294064431 0.05153651713926948 0  -1.888172026069751 -0.1280121119269836 0  -2.472928952267367 -0.4461315739659383 0  -1.991287835050968 -0.443325875085938 0  -1.890630237414374 -0.6622255363006136 0  -1.911954130312207 -0.9820431025619115 0  -1.518731837647561 -0.8397536636022094 0  -1.560620770585937 -1.021055062548812 0  -1.382111801112155 -1.222119329452896 0  -1.175657504829201 -1.227948312665138 0  -1.04164007320962 -1.35747648971097 0  -0.8792872390108643 -1.483025681074559 0  -0.7067704889835694 -1.518233307988983 0  -0.5466289460033797 -1.5596808391467 0  -0.3851863075169715 -1.620718706408923 0  -0.213231018987167 -1.631268255062054 0  -0.04921316958191457 -1.648533912107454 0  0.1437775286167724 -1.646099960294869 0  0.2941961038110042 -1.637031353991063 0  0.4767925133035701 -1.604047792515331 0  0.6416923016100776 -1.537983657551687 0  0.7771818115088011 -1.4204415272008 0  0.9516496971166547 -1.444977676766926 0  1.129010302416882 -1.33355153397916 0  1.310571288907237 -1.275470365071841 0  1.421434522968186 -1.097217714742709 0  1.52344204972092 -0.9565019871707807 0  1.803395862571296 -0.9513807958842864 0  1.906678518600891 -0.7657836931470805 0  1.926552769096671 -0.5500183637501299 0  2.267128492268333 -0.4563993672769821 0  2.222600221254086 -0.1757218089495947 0  -2.449873839130927 4.920179146998844 0  -2.449829124466343 -4.912724636979656 0  4.911201975493061 2.448272573384796 0  4.919227179741013 -2.449596159371793 0  2.447753093489548 -4.898298015642113 0  2.442173295234231 4.902060097977921 0  -4.911241885324044 -2.448290100253737 0  -4.911288743335304 2.448293335037393 0  -1.750147232640656 4.91430541469448 0  -1.745835953472488 -4.917574835930416 0  4.920860978933844 1.743933663800808 0  4.909362262469252 -1.747827110715827 0  -4.909749004183169 -1.747528541855917 0  -4.910609457375156 1.747270289528211 0  1.74755830883912 4.908380396736928 0  1.749117077196384 -4.896872541048371 0  -1.15028069467797 4.913137400661822 0  -1.130990872863554 -4.920543505393654 0  -4.908734499152022 -1.147571671922928 0  -4.9085731747639 1.147361062658178 0  1.145165203360963 -4.916932600026668 0  1.150291939325413 4.913087230393789 0  4.908848889196632 1.145827743704739 0  4.919681550487717 -1.151529878985478 0  -0.5474427739901891 -4.914832125251069 0  -0.5471598542538996 4.923150980261322 0  -4.906698100783783 -0.5483895746788194 0  -4.906733057148958 0.5469263621182721 0  4.905863338018642 -0.548721911034933 0  4.9177414325675 0.5454055392242814 0  0.5433859443081193 -4.902380597702495 0  0.5519189185297914 4.920143553593125 0  -4.912735866605612 -3.048811737541126 0  4.919259425120312 3.046764044561052 0  4.912225212825871 -3.048774192375998 0  -4.913611971488625 3.045890881428675 0  3.056244460506523 -4.918797948637088 0  -3.049636275009358 -4.912766751685049 0  3.053196290077371 4.914882296418054 0  -3.04911970532818 4.913719946904695 0  -4.905490881289474 -0.04987932875701198 0  0.04520004870181352 -4.916894469019538 0  0.04963303245712183 4.923613844358323 0  4.912571969722523 -0.05129096347751579 0  3.546238230311774 -4.919938361642221 0  -3.549608733003444 4.912984199404663 0  -3.549570758594744 -4.912997188356002 0  
[...]
<PointData  Vectors="f_6592"> 
<DataArray  type="Float64"  Name="f_6592"  NumberOfComponents="3" format="ascii">-1.5763731258777855e-01 -1.8394368028233932e-01 0.0000000000000000e+00  1.7168064263289118e-01 -1.4523359835170407e-01 0.0000000000000000e+00  9.9880777807556942e-02 1.1667856198926355e-01 0.0000000000000000e+00  -1.6552967533130558e-01 1.8899926209012685e-01 0.0000000000000000e+00  8.9645862695826999e+00 -5.9331904916410352e+00 0.0000000000000000e+00  6.0660916931837103e-02 -1.3932547571188307e+00 0.0000000000000000e+00  5.1119887102904250e-02 -2.2617056272810410e+00 0.0000000000000000e+00  5.4041542945200041e-02 -3.7331365799252727e+00 0.0000000000000000e+00  4.1399994490517553e-02 -4.6145777338710054e+00 0.0000000000000000e+00  -1.0106159895420698e-01 -5.9945169349772893e+00 0.0000000000000000e+00  2.0484340822344134e-02 -7.3627136783365463e+00 0.0000000000000000e+00  3.5884482232348518e-02 -8.3940995070466329e+00 0.0000000000000000e+00  -1.6822422350529845e-02 -9.6538530529328526e+00 0.0000000000000000e+00  6.2970037447980437e-02 -1.0637063426295345e+01 0.0000000000000000e+00  6.3411734695727931e-02 -1.2069982834866163e+01 0.0000000000000000e+00  -9.6419558578007599e-03 -1.3026754044830117e+01 0.0000000000000000e+00  -1.7229772228806655e-02 -1.4283323085560648e+01 0.0000000000000000e+00  7.7686548245547342e-03 -1.5506365668004157e+01 0.0000000000000000e+00  5.3079583867942787e-03 -1.6660763374010447e+01 0.0000000000000000e+00  -6.4439517481283820e-03 -1.7833690305420426e+01 0.0000000000000000e+00  4.2041202528079139e-03 -1.9053861278093539e+01 0.0000000000000000e+00  2.4963876958949235e-02 -2.0231157867551644e+01 0.0000000000000000e+00  -3.3421291157205500e-03 -2.1164844345970788e+01 0.0000000000000000e+00  -8.1534958802277277e-03 -2.2452606890260498e+01 0.0000000000000000e+00  -3.2150771248940883e-02 -2.3739367683549840e+01 0.0000000000000000e+00  8.3986874082940796e-02 -2.4645035324123761e+01 0.0000000000000000e+00  3.7454060713296301e-02 -2.5953424480813553e+01 0.0000000000000000e+00  4.4864105965744333e-02 -2.6802919149222024e+01 0.0000000000000000e+00  7.4170162902037998e-02 -2.8056648980477686e+01 0.0000000000000000e+00  -3.4743939442252722e-02 -2.8936030301391678e+01 0.0000000000000000e+00  -1.1628486872891036e-02 -3.0140027604276163e+01 0.0000000000000000e+00  -4.3150404905256323e-03 -3.1262194917118254e+01 0.0000000000000000e+00  5.4319874107444530e-02 -3.2054187813102722e+01 0.0000000000000000e+00  3.9600967645228642e-02 -3.3258147601137082e+01 0.0000000000000000e+00  3.9329356255704863e-02 -3.3970756292128094e+01 0.0000000000000000e+00  -8.8353483679908598e-02 -3.5056960012294773e+01 0.0000000000000000e+00  3.8424258773846837e-02 -3.6076261659319833e+01 0.0000000000000000e+00  5.9562888119072980e-03 -3.6813322546036531e+01 0.0000000000000000e+00  -1.2255845486776095e-03 -3.7640249229932664e+01 0.0000000000000000e+00  -1.4203642834713169e-03 -3.8432902233060055e+01 0.0000000000000000e+00  6.5789885113791630e-03 -3.9189105189838877e+01 0.0000000000000000e+00  -3.7944288383457085e-02 -3.9972751625494013e+01 0.0000000000000000e+00  4.6191151811420972e-02 -4.0564674025013879e+01 0.0000000000000000e+00  2.4963276125588262e-02 -4.1177482923784645e+01 0.0000000000000000e+00  1.8959883837185706e-02 -4.1803205824554766e+01 0.0000000000000000e+00  -1.0527095727418702e-02 -4.2343889517831975e+01 0.0000000000000000e+00  4.4637148619413140e-02 -4.2712544810276349e+01 0.0000000000000000e+00  -3.2968889390875201e-02 -4.3214078892897184e+01 0.0000000000000000e+00  1.8295311683392785e-02 -4.3627006513389105e+01 0.0000000000000000e+00  -3.9320709901806711e-03 -4.3881375790494211e+01 0.0000000000000000e+00  1.3430046827747934e-03 -4.4150186157886985e+01 0.0000000000000000e+00  -9.4595786537798941e-04 -4.4350259443885122e+01 0.0000000000000000e+00  4.3117670194248484e-04 -4.4493233469921996e+01 0.0000000000000000e+00  2.4029127456157463e-04 -4.4577283093448919e+01 0.0000000000000000e+00  1.9155902991371881e-03 -4.4603092089651220e+01 0.0000000000000000e+00  5.9422685957488664e-04 -4.4581982981662669e+01 0.0000000000000000e+00  8.6718112548770827e-03 -4.4481394722190956e+01 0.0000000000000000e+00  -1.1719611977815424e-02 -4.4297586568385299e+01 0.0000000000000000e+00  -5.9331507637241090e-03 -4.4138712623855383e+01 0.0000000000000000e+00  -2.2555739034153890e-02 -4.3814468381950604e+01 0.0000000000000000e+00  7.3861079194433117e-03 -4.3550813153493259e+01 0.0000000000000000e+00  6.2730006389804718e-03 -4.3153663796751367e+01 0.0000000000000000e+00  -4.5908096647301489e-03 -4.2703486688808681e+01 0.0000000000000000e+00  -9.5895959105917166e-04 -4.2232916154224192e+01 0.0000000000000000e+00  5.6843210516764409e-03 -4.1691992311869207e+01 0.0000000000000000e+00  -1.2791342232535564e-02 -4.1106462059807662e+01 0.0000000000000000e+00  -7.9376619933459736e-03 -4.0453344704601143e+01 0.0000000000000000e+00  8.7494395061648647e-03 -3.9864005600149930e+01 0.0000000000000000e+00  -2.0940624551730617e-02 -3.9081547300494641e+01 0.0000000000000000e+00  2.4296377241043807e-02 -3.8314564280447712e+01 0.0000000000000000e+00  -3.0966836412734348e-02 -3.7525026299437172e+01 0.0000000000000000e+00  5.6538413023796289e-03 -3.6646232929252022e+01 0.0000000000000000e+00  1.5264150407077688e-02 -3.5852324878261321e+01 0.0000000000000000e+00  -2.2277559230500010e-02 -3.4914216008750913e+01 0.0000000000000000e+00  1.5732773960696167e-02 -3.3960653424439862e+01 0.0000000000000000e+00  -1.1841809253853594e-02 -3.2996271619035625e+01 0.0000000000000000e+00  5.1150600669869727e-03 -3.2028469076405003e+01 0.0000000000000000e+00  -2.1433243871017756e-02 -3.1033045978034721e+01 0.0000000000000000e+00  -6.9930833659971551e-03 -2.9949891137595486e+01 0.0000000000000000e+00  9.7407785285038590e-03 -2.9048095085521354e+01 0.0000000000000000e+00  1.8148141806210993e-03 -2.7909989207021923e+01 0.0000000000000000e+00  8.7128074100297562e-03 -2.6804391327641721e+01 0.0000000000000000e+00  -3.1258765681232932e-02 -2.5725120709026402e+01 0.0000000000000000e+00  -1.1575993718964962e-02 -2.4508771749669293e+01 0.0000000000000000e+00  2.0283236109033733e-02 -2.3511463687474198e+01 0.0000000000000000e+00  -3.0760299499005186e-02 -2.2292020400823642e+01 0.0000000000000000e+00  1.5574375201179475e-03 -2.1207207045072330e+01 0.0000000000000000e+00  1.1900186374724019e-02 -2.0096736191288656e+01 0.0000000000000000e+00  1.2966990625862545e-02 -1.8869638927906575e+01 0.0000000000000000e+00  -3.6485497694663811e-02 -1.7750687768395196e+01 0.0000000000000000e+00  7.0281325596506551e-03 -1.6507194151293803e+01 0.0000000000000000e+00  8.2831416828832612e-03 -1.5454648130752421e+01 0.0000000000000000e+00  -2.9057071650880100e-02 -1.4187602087228335e+01 0.0000000000000000e+00  -5.9296748292717992e-04 -1.3065588053263793e+01 0.0000000000000000e+00  1.5988293734441057e-02 -1.1855148912683065e+01 0.0000000000000000e+00  -9.0711896441185587e-04 -1.0655982525448115e+01 0.0000000000000000e+00  -1.5728408530965687e-02 -9.4986038651440623e+00 0.0000000000000000e+00  -1.2158267158486254e-02 -8.2651512365569459e+00 0.0000000000000000e+00  2.3484282587115692e-02 -7.2116011779079878e+00 0.0000000000000000e+00  -3.5687665270022588e-02 -5.9338511735030526e+00 0.0000000000000000e+00  8.5628323877923584e-03 -4.7743784618231082e+00 0.0000000000000000e+00  1.9626341404775351e-02 -3.5547965611122541e+00 0.0000000000000000e+00  -3.0635170283613143e-02 -2.3605719276641550e+00 0.0000000000000000e+00  -3.7664788550315444e-02 -1.3664818627106379e+00 0.0000000000000000e+00  1.4221247381880686e+00 3.4144421764716652e-02 0.0000000000000000e+00  2.2818712289823955e+00 8.7185205318546025e-02 0.0000000000000000e+00  3.6725946272023631e+00 6.3762095058892465e-02 0.0000000000000000e+00  4.6938224454149449e+00 -1.9529130304789255e-02 0.0000000000000000e+00  5.9650472940227512e+00 9.1912152691834784e-03 0.0000000000000000e+00  7.1360351579169832e+00 -6.6168130779995660e-03 0.0000000000000000e+00  8.3236125568878503e+00 1.2838719666452714e-03 0.0000000000000000e+00  9.5165688762069092e+00 -1.9689511716338929e-03 0.0000000000000000e+00  1.0701191775063124e+01 5.5571073472945377e-04 0.0000000000000000e+00  1.1912762573792815e+01 -3.8076651398314190e-04 0.0000000000000000e+00  1.3086498615852360e+01 -4.0791598777978504e-05 0.0000000000000000e+00  1.4291023258168227e+01 4.0097314569509761e-03 0.0000000000000000e+00  1.5444937303010219e+01 1.6797210265507255e-03 0.0000000000000000e+00  1.6679088263926417e+01 -8.0799089448582041e-03 0.0000000000000000e+00  1.7838268860872631e+01 4.0829645802005652e-03 0.0000000000000000e+00  1.9064708047371393e+01 3.3887221987898260e-03 0.0000000000000000e+00  2.0214141959662165e+01 -3.4920956132815347e-03 0.0000000000000000e+00  2.1377398773819031e+01 8.0444361451713076e-03 0.0000000000000000e+00  2.2594756870038029e+01 -7.9811476850060511e-03 0.0000000000000000e+00  2.3729862774752398e+01 -5.3411103969995665e-03 0.0000000000000000e+00  2.4920572261644732e+01 1.0965075633265606e-02 0.0000000000000000e+00  2.6087287913753631e+01 -1.1941531261648018e-02 0.0000000000000000e+00  2.7170395431598084e+01 8.5860939477801247e-03 0.0000000000000000e+00  2.8328284735276206e+01 1.9290155538287084e-03 0.0000000000000000e+00  2.9473017693681204e+01 5.1282276704674827e-03 0.0000000000000000e+00  3.0596801752557088e+01 -3.1473156133690681e-03 0.0000000000000000e+00  3.1682231711788795e+01 -2.2288219377442518e-03 0.0000000000000000e+00  3.2739789774975563e+01 -1.6704939851433457e-03 0.0000000000000000e+00  3.3791233417666334e+01 7.8963842984370320e-05 0.0000000000000000e+00  3.4819980341506479e+01 -4.3200979390471862e-04 0.0000000000000000e+00  3.5823760512161435e+01 2.1686182704935120e-04 0.0000000000000000e+00  3.6798454220590756e+01 -2.4990722181746860e-03 0.0000000000000000e+00  3.7732530818498510e+01 -1.0145052687903513e-03 0.0000000000000000e+00  3.8658928958289721e+01 4.7805068962574115e-03 0.0000000000000000e+00  3.9548510357321334e+01 -7.6318929659265154e-03 0.0000000000000000e+00  4.0343766893740010e+01 7.8008294389323709e-03 0.0000000000000000e+00  4.1150089221251619e+01 -8.4875946255740865e-04 0.0000000000000000e+00  4.1895188601219985e+01 8.9500409992364239e-03 0.0000000000000000e+00  4.2585110614379985e+01 1.1317113189610092e-02 0.0000000000000000e+00  4.3274432011692817e+01 -3.4098052042604111e-02 0.0000000000000000e+00  4.3922107367004806e+01 2.4985825842273105e-02 0.0000000000000000e+00  4.4412638865717639e+01 -1.0787916942328255e-02 0.0000000000000000e+00  4.4919782470152541e+01 1.4533930017261983e-03 0.0000000000000000e+00  4.5351251753535500e+01 -3.4217312292959923e-03 0.0000000000000000e+00  4.5700543939607456e+01 7.4592188162309397e-03 0.0000000000000000e+00  4.6004700280471233e+01 -1.2633938512409328e-03 0.0000000000000000e+00  4.6252820815214577e+01 5.9715189806510219e-04 0.0000000000000000e+00  4.6430220041756264e+01 -8.3080045334856943e-04 0.0000000000000000e+00  4.6539512433835988e+01 -3.2645606253727438e-04 0.0000000000000000e+00  4.6578116800408829e+01 7.1229033236503033e-04 0.0000000000000000e+00  4.6551800419396521e+01 7.3016940375125825e-04 0.0000000000000000e+00  4.6461131932907215e+01 -1.8343099177013519e-03 0.0000000000000000e+00  4.6296981855745379e+01 1.9935714566433425e-03 0.0000000000000000e+00  4.6067076301882089e+01 1.6948414024284164e-04 0.0000000000000000e+00  4.5782960671570059e+01 -3.5504448158852468e-03 0.0000000000000000e+00  4.5421482350259694e+01 4.1574768971075057e-03 0.0000000000000000e+00  4.4995615749276880e+01 -1.9165827849067685e-04 0.0000000000000000e+00  4.4521967639728551e+01 -4.8412697660475245e-03 0.0000000000000000e+00  4.3968859478643516e+01 1.0281713099021027e-03 0.0000000000000000e+00  4.3386141491718099e+01 2.5538140104682749e-03 0.0000000000000000e+00  4.2738810235480123e+01 -3.3327301304258363e-03 0.0000000000000000e+00  4.2065854842668919e+01 1.1197313496118905e-04 0.0000000000000000e+00  4.1303766653401887e+01 2.3306082168486906e-03 0.0000000000000000e+00  4.0518038559155848e+01 -2.1489116457329566e-03 0.0000000000000000e+00  3.9705299404157508e+01 7.7212715041046773e-03 0.0000000000000000e+00  3.8803009013951502e+01 -5.7265169351268762e-03 0.0000000000000000e+00  3.7916505298272000e+01 -7.4986350028675023e-03 0.0000000000000000e+00  3.6960753480924694e+01 9.7481617062017897e-03 0.0000000000000000e+00  3.5962029113253735e+01 -2.6401283504538602e-03 0.0000000000000000e+00  3.4967258996829678e+01 -5.0523249628182361e-03 0.0000000000000000e+00  3.3930060417245954e+01 4.2386187273149318e-03 0.0000000000000000e+00  3.2878498575836943e+01 3.8267407566862015e-03 0.0000000000000000e+00  3.1796413888061249e+01 -8.6553926625992461e-04 0.0000000000000000e+00  3.0708949915505627e+01 1.1801248521835519e-05 0.0000000000000000e+00  2.9600627481072607e+01 2.3306061064560617e-03 0.0000000000000000e+00  2.8470966336793538e+01 -1.3946926103404309e-03 0.0000000000000000e+00  2.7357764228152352e+01 -2.2651955119496383e-03 0.0000000000000000e+00  2.6226836255517181e+01 7.0246640377747468e-03 0.0000000000000000e+00  2.5027124388893061e+01 -9.5084905830773777e-03 0.0000000000000000e+00  2.3857906034408494e+01 -9.7184276012342655e-04 0.0000000000000000e+00  2.2685457321286201e+01 -1.0214145265106541e-03 0.0000000000000000e+00  2.1544673473861664e+01 -3.3971493179977316e-04 0.0000000000000000e+00  2.0360625308439580e+01 9.7451524591329018e-03 0.0000000000000000e+00  1.9128529194655709e+01 -8.4862067406555729e-03 0.0000000000000000e+00  1.7936491695221441e+01 -1.0603731530744378e-03 0.0000000000000000e+00  1.6740759616031294e+01 6.3808262039348777e-04 0.0000000000000000e+00  1.5519612649641894e+01 4.1169131875092232e-03 0.0000000000000000e+00  1.4356681318632432e+01 1.8001085021478274e-03 0.0000000000000000e+00  1.3140642629663725e+01 -2.6086978120339853e-03 0.0000000000000000e+00  1.1955642545915191e+01 1.1659682659043188e-03 0.0000000000000000e+00  1.0759111888084494e+01 4.0751362026478343e-03 0.0000000000000000e+00  9.5864722200586421e+00 -1.4867480206685411e-03 0.0000000000000000e+00  8.3654658613644468e+00 -3.6585910888722460e-03 0.0000000000000000e+00  7.1692947648971250e+00 6.9055330776801767e-03 0.0000000000000000e+00  5.9947480688581516e+00 -1.1902575193049608e-02 0.0000000000000000e+00  4.8283618507724828e+00 -5.0303703523617285e-03 0.0000000000000000e+00  3.6219809863529213e+00 1.6480503564383082e-02 0.0000000000000000e+00  2.3772838440259183e+00 3.2492028452512235e-04 0.0000000000000000e+00  1.2919930372489712e+00 -4.3152924806630980e-02 0.0000000000000000e+00  -6.9429574166372326e-02 1.3340869841892851e+00 0.0000000000000000e+00  1.7406413295215705e-02 2.3166989468674175e+00 0.0000000000000000e+00  -2.9427292019889952e-02 3.5680767944979603e+00 0.0000000000000000e+00  -2.3075638923671194e-02 4.5892394958159155e+00 0.0000000000000000e+00  1.0010019459205159e-01 5.9653825649037522e+00 0.0000000000000000e+00  -2.4663420676458679e-02 7.3580141852949907e+00 0.0000000000000000e+00  -7.1811614353705117e-02 8.2279628992349121e+00 0.0000000000000000e+00  -1.0188611770151043e-01 9.6288128607491039e+00 0.0000000000000000e+00  2.8950721818178964e-02 1.0603022653140869e+01 0.0000000000000000e+00  3.1823956987521412e-02 1.1918724236399873e+01 0.0000000000000000e+00  -2.9493474988231658e-02 1.3111975978736208e+01 0.0000000000000000e+00  2.1225030395476605e-02 1.4254877964864765e+01 0.0000000000000000e+00  5.2839774547423978e-03 1.5544645754222364e+01 0.0000000000000000e+00  -4.2981900303846144e-03 1.6559344894801217e+01 0.0000000000000000e+00  -1.3594250404639232e-02 1.7808841480599071e+01 0.0000000000000000e+00  -5.8638901712588154e-03 1.8933064439628328e+01 0.0000000000000000e+00  1.6138598277828899e-02 2.0136741418237854e+01 0.0000000000000000e+00  -5.2594349919908830e-03 2.1328513050189962e+01 0.0000000000000000e+00  -1.2134944993709004e-02 2.2435614977033630e+01 0.0000000000000000e+00  -2.9710135799371402e-03 2.3637920705709512e+01 0.0000000000000000e+00  -1.1859956490590925e-02 2.4581721975393563e+01 0.0000000000000000e+00  2.5882064465782662e-02 2.5828966056054764e+01 0.0000000000000000e+00  -2.1653936902833352e-02 2.6896773749846918e+01 0.0000000000000000e+00  2.5526291018014881e-02 2.7988329576149606e+01 0.0000000000000000e+00  8.5872553204287775e-03 2.9137277261296177e+01 0.0000000000000000e+00  -5.9406302178924592e-02 2.9982055812175645e+01 0.0000000000000000e+00  -4.9403466602681849e-02 3.1220984100113544e+01 0.0000000000000000e+00  1.0089267116864921e-02 3.2049080206010885e+01 0.0000000000000000e+00  -3.1788751414883736e-02 3.3089589131507786e+01 0.0000000000000000e+00  -1.5844388970779152e-02 3.3916036167406531e+01 0.0000000000000000e+00  7.7965115222486031e-02 3.4978447859721932e+01 0.0000000000000000e+00  -2.7396586912348253e-02 3.6018142495045808e+01 0.0000000000000000e+00  -4.1123943079523224e-02 3.6670571516957210e+01 0.0000000000000000e+00  -4.5317518153595207e-02 3.7667765227489909e+01 0.0000000000000000e+00  6.0285618759563864e-03 3.8288126048475085e+01 0.0000000000000000e+00  1.3956986931125237e-02 3.9141015832870920e+01 0.0000000000000000e+00  -5.7972564664699128e-03 3.9877342516919498e+01 0.0000000000000000e+00  -1.7027097227562339e-03 4.0527591462280711e+01 0.0000000000000000e+00  1.2388704446158263e-03 4.1150390723453221e+01 0.0000000000000000e+00  1.4467173211354968e-03 4.1753395658946182e+01 0.0000000000000000e+00  -1.0795029633207654e-02 4.2291034158527715e+01 0.0000000000000000e+00  7.2563115277908823e-04 4.2678618743774763e+01 0.0000000000000000e+00  -5.2934726808144430e-04 4.3158934049010533e+01 0.0000000000000000e+00  4.6561324059371939e-03 4.3543336076626623e+01 0.0000000000000000e+00  -8.5354362572012902e-03 4.3851844467324526e+01 0.0000000000000000e+00  8.2460209231812170e-03 4.4127341850946074e+01 0.0000000000000000e+00  -2.8859528099047529e-03 4.4313552148103618e+01 0.0000000000000000e+00  -7.4126820624728015e-03 4.4473448632710657e+01 0.0000000000000000e+00  1.8071133391923736e-03 4.4558418063057907e+01 0.0000000000000000e+00  1.7247265294661294e-03 4.4594212792197048e+01 0.0000000000000000e+00  7.5709775375045335e-03 4.4556307242591409e+01 0.0000000000000000e+00  -8.4876442484886176e-03 4.4475595690856800e+01 0.0000000000000000e+00  3.7982336746758883e-03 4.4331654529670381e+01 0.0000000000000000e+00  -6.8753375547776644e-03 4.4121206549309576e+01 0.0000000000000000e+00  9.7976655882205527e-03 4.3860782710585354e+01 0.0000000000000000e+00  -8.6225030984069303e-03 4.3517009509294319e+01 0.0000000000000000e+00  1.9015427153350750e-02 4.3204888774743154e+01 0.0000000000000000e+00  2.2058623506362129e-02 4.2688810642422034e+01 0.0000000000000000e+00  1.2667175723213913e-02 4.2317117842953799e+01 0.0000000000000000e+00  4.5297463916587448e-02 4.1705455072311956e+01 0.0000000000000000e+00  -2.2026117856427808e-02 4.1239470020722010e+01 0.0000000000000000e+00  -7.8236991337212580e-03 4.0541729706185620e+01 0.0000000000000000e+00  8.8433366306838335e-03 3.9838232609595735e+01 0.0000000000000000e+00  -1.9840391665384210e-03 3.9149744867445449e+01 0.0000000000000000e+00  -6.7602481177695122e-04 3.8400657430036169e+01 0.0000000000000000e+00  -2.9073836798516237e-03 3.7590079020832448e+01 0.0000000000000000e+00  3.4067459401691193e-03 3.6771004172245078e+01 0.0000000000000000e+00  -1.6695073687674169e-02 3.5897077490156519e+01 0.0000000000000000e+00  3.0797532704488019e-02 3.4999487008606835e+01 0.0000000000000000e+00  -2.1716716401718222e-02 3.3997081332709463e+01 0.0000000000000000e+00  2.4153853250470557e-02 3.3171421593719785e+01 0.0000000000000000e+00  6.3691931411828584e-03 3.2193024589324907e+01 0.0000000000000000e+00  -2.6382179692050631e-02 3.1138218228490839e+01 0.0000000000000000e+00  1.7409710331334781e-02 3.0094941572321169e+01 0.0000000000000000e+00  -2.1893102484284024e-02 2.9060697572234080e+01 0.0000000000000000e+00  1.0732171270602388e-02 2.7935699117147220e+01 0.0000000000000000e+00  -4.6121526385776261e-03 2.6841807394344546e+01 0.0000000000000000e+00  4.5353014230792695e-02 2.5929435273487268e+01 0.0