<?xml version="1.0"?>
<VTKFile type="UnstructuredGrid"  version="0.1"  >
<UnstructuredGrid>
<Piece  NumberOfPoints="11902" NumberOfCells="23402">
<Points>
<DataArray  type="Float64"  NumberOfComponents="3"  format="ascii">-5 -5 0  5 -5 0  5 5 0  -5 5 0  1.303339564361806 -0.00126843041230682 0  -4.9 -5 0  -4.8 -5 0  -4.7 -5 0  -4.6 -5 0  -4.5 -5 0  -4.4 -5 0  -4.3 -5 0  -4.2 -5 0  -4.1 -5 0  -4 -5 0  -3.9 -5 0  -3.8 -5 0  -3.7 -5 0  -3.6 -5 0  -3.5 -5 0  -3.4 -5 0  -3.3 -5 0  -3.2 -5 0  -3.1 -5 0  -3 -5 0  -2.9 -5 0  -2.8 -5 0  -2.7 -5 0  -2.6 -5 0  -2.5 -5 0  -2.4 -5 0  -2.3 -5 0  -2.2 -5 0  -2.1 -5 0  -2 -5 0  -1.9 -5 0  -1.8 -5 0  -1.7 -5 0  -1.6 -5 0  -1.5 -5 0  -1.4 -5 0  -1.3 -5 0  -1.2 -5 0  -1.1 -5 0  -1 -5 0  -0.9000000000000004 -5 0  -0.7999999999999998 -5 0  -0.7000000000000002 -5 0  -0.5999999999999996 -5 0  -0.5 -5 0  -0.4000000000000004 -5 0  -0.2999999999999998 -5 0  -0.2000000000000002 -5 0  -0.09999999999999964 -5 0  0 -5 0  0.09999999999999964 -5 0  0.2000000000000002 -5 0  0.2999999999999998 -5 0  0.4000000000000004 -5 0  0.5 -5 0  0.5999999999999996 -5 0  0.7000000000000002 -5 0  0.7999999999999998 -5 0  0.9000000000000004 -5 0  1 -5 0  1.1 -5 0  1.2 -5 0  1.3 -5 0  1.4 -5 0  1.5 -5 0  1.6 -5 0  1.7 -5 0  1.8 -5 0  1.9 -5 0  2 -5 0  2.1 -5 0  2.2 -5 0  2.3 -5 0  2.4 -5 0  2.5 -5 0  2.6 -5 0  2.7 -5 0  2.8 -5 0  2.9 -5 0  3 -5 0  3.1 -5 0  3.199999999999999 -5 0  3.300000000000001 -5 0  3.4 -5 0  3.5 -5 0  3.6 -5 0  3.699999999999999 -5 0  3.800000000000001 -5 0  3.9 -5 0  4 -5 0  4.1 -5 0  4.199999999999999 -5 0  4.300000000000001 -5 0  4.4 -5 0  4.5 -5 0  4.6 -5 0  4.699999999999999 -5 0  4.800000000000001 -5 0  4.9 -5 0  5 -4.9 0  5 -4.8 0  5 -4.7 0  5 -4.6 0  5 -4.5 0  5 -4.4 0  5 -4.3 0  5 -4.2 0  5 -4.1 0  5 -4 0  5 -3.9 0  5 -3.8 0  5 -3.7 0  5 -3.6 0  5 -3.5 0  5 -3.4 0  5 -3.3 0  5 -3.2 0  5 -3.1 0  5 -3 0  5 -2.9 0  5 -2.8 0  5 -2.7 0  5 -2.6 0  5 -2.5 0  5 -2.4 0  5 -2.3 0  5 -2.2 0  5 -2.1 0  5 -2 0  5 -1.9 0  5 -1.8 0  5 -1.7 0  5 -1.6 0  5 -1.5 0  5 -1.4 0  5 -1.3 0  5 -1.2 0  5 -1.1 0  5 -1 0  5 -0.9000000000000004 0  5 -0.7999999999999998 0  5 -0.7000000000000002 0  5 -0.5999999999999996 0  5 -0.5 0  5 -0.4000000000000004 0  5 -0.2999999999999998 0  5 -0.2000000000000002 0  5 -0.09999999999999964 0  5 0 0  5 0.09999999999999964 0  5 0.2000000000000002 0  5 0.2999999999999998 0  5 0.4000000000000004 0  5 0.5 0  5 0.5999999999999996 0  5 0.7000000000000002 0  5 0.7999999999999998 0  5 0.9000000000000004 0  5 1 0  5 1.1 0  5 1.2 0  5 1.3 0  5 1.4 0  5 1.5 0  5 1.6 0  5 1.7 0  5 1.8 0  5 1.9 0  5 2 0  5 2.1 0  5 2.2 0  5 2.3 0  5 2.4 0  5 2.5 0  5 2.6 0  5 2.7 0  5 2.8 0  5 2.9 0  5 3 0  5 3.1 0  5 3.199999999999999 0  5 3.300000000000001 0  5 3.4 0  5 3.5 0  5 3.6 0  5 3.699999999999999 0  5 3.800000000000001 0  5 3.9 0  5 4 0  5 4.1 0  5 4.199999999999999 0  5 4.300000000000001 0  5 4.4 0  5 4.5 0  5 4.6 0  5 4.699999999999999 0  5 4.800000000000001 0  5 4.9 0  4.9 5 0  4.8 5 0  4.7 5 0  4.6 5 0  4.5 5 0  4.4 5 0  4.3 5 0  4.2 5 0  4.1 5 0  4 5 0  3.9 5 0  3.8 5 0  3.7 5 0  3.6 5 0  3.5 5 0  3.4 5 0  3.3 5 0  3.2 5 0  3.1 5 0  3 5 0  2.9 5 0  2.8 5 0  2.7 5 0  2.6 5 0  2.5 5 0  2.4 5 0  2.3 5 0  2.2 5 0  2.1 5 0  2 5 0  1.9 5 0  1.8 5 0  1.7 5 0  1.6 5 0  1.5 5 0  1.4 5 0  1.3 5 0  1.2 5 0  1.1 5 0  1 5 0  0.9000000000000004 5 0  0.7999999999999998 5 0  0.7000000000000002 5 0  0.5999999999999996 5 0  0.5 5 0  0.4000000000000004 5 0  0.2999999999999998 5 0  0.2000000000000002 5 0  0.09999999999999964 5 0  0 5 0  -0.09999999999999964 5 0  -0.2000000000000002 5 0  -0.2999999999999998 5 0  -0.4000000000000004 5 0  -0.5 5 0  -0.5999999999999996 5 0  -0.7000000000000002 5 0  -0.7999999999999998 5 0  -0.9000000000000004 5 0  -1 5 0  -1.1 5 0  -1.2 5 0  -1.3 5 0  -1.4 5 0  -1.5 5 0  -1.6 5 0  -1.7 5 0  -1.8 5 0  -1.9 5 0  -2 5 0  -2.1 5 0  -2.2 5 0  -2.3 5 0  -2.4 5 0  -2.5 5 0  -2.6 5 0  -2.7 5 0  -2.8 5 0  -2.9 5 0  -3 5 0  -3.1 5 0  -3.199999999999999 5 0  -3.300000000000001 5 0  -3.4 5 0  -3.5 5 0  -3.6 5 0  -3.699999999999999 5 0  -3.800000000000001 5 0  -3.9 5 0  -4 5 0  -4.1 5 0  -4.199999999999999 5 0  -4.300000000000001 5 0  -4.4 5 0  -4.5 5 0  -4.6 5 0  -4.699999999999999 5 0  -4.800000000000001 5 0  -4.9 5 0  -5 4.9 0  -5 4.8 0  -5 4.7 0  -5 4.6 0  -5 4.5 0  -5 4.4 0  -5 4.3 0  -5 4.2 0  -5 4.1 0  -5 4 0  -5 3.9 0  -5 3.8 0  -5 3.7 0  -5 3.6 0  -5 3.5 0  -5 3.4 0  -5 3.3 0  -5 3.2 0  -5 3.1 0  -5 3 0  -5 2.9 0  -5 2.8 0  -5 2.7 0  -5 2.6 0  -5 2.5 0  -5 2.4 0  -5 2.3 0  -5 2.2 0  -5 2.1 0  -5 2 0  -5 1.9 0  -5 1.8 0  -5 1.7 0  -5 1.6 0  -5 1.5 0  -5 1.4 0  -5 1.3 0  -5 1.2 0  -5 1.1 0  -5 1 0  -5 0.9000000000000004 0  -5 0.7999999999999998 0  -5 0.7000000000000002 0  -5 0.5999999999999996 0  -5 0.5 0  -5 0.4000000000000004 0  -5 0.2999999999999998 0  -5 0.2000000000000002 0  -5 0.09999999999999964 0  -5 0 0  -5 -0.09999999999999964 0  -5 -0.2000000000000002 0  -5 -0.2999999999999998 0  -5 -0.4000000000000004 0  -5 -0.5 0  -5 -0.5999999999999996 0  -5 -0.7000000000000002 0  -5 -0.7999999999999998 0  -5 -0.9000000000000004 0  -5 -1 0  -5 -1.1 0  -5 -1.2 0  -5 -1.3 0  -5 -1.4 0  -5 -1.5 0  -5 -1.6 0  -5 -1.7 0  -5 -1.8 0  -5 -1.9 0  -5 -2 0  -5 -2.1 0  -5 -2.2 0  -5 -2.3 0  -5 -2.4 0  -5 -2.5 0  -5 -2.6 0  -5 -2.7 0  -5 -2.8 0  -5 -2.9 0  -5 -3 0  -5 -3.1 0  -5 -3.199999999999999 0  -5 -3.300000000000001 0  -5 -3.4 0  -5 -3.5 0  -5 -3.6 0  -5 -3.699999999999999 0  -5 -3.800000000000001 0  -5 -3.9 0  -5 -4 0  -5 -4.1 0  -5 -4.199999999999999 0  -5 -4.300000000000001 0  -5 -4.4 0  -5 -4.5 0  -5 -4.6 0  -5 -4.699999999999999 0  -5 -4.800000000000001 0  -5 -4.9 0  1.29790927722924 0.1260848706644601 0  1.276688091124384 0.2467943636946324 0  1.244597637175577 0.3646642614467936 0  1.192837730328638 0.4755724517741783 0  1.131574194561631 0.5821599347963609 0  1.05880818167277 0.6813210882139654 0  0.9729949500884517 0.7792029265775354 0  0.8824297334000525 0.8584539731089453 0  0.7852106509324011 0.9335610452588856 0  0.6818392255611898 0.9980184851644455 0  0.5659327296915999 1.054325893801914 0  0.4559849756858539 1.097631460819701 0  0.333218774456183 1.135430403658238 0  0.2125167127630411 1.160332742811416 0  0.09108632170036356 1.17612922243997 0  -0.03379905783788175 1.179577975312168 0  -0.1507591595708991 1.170433589490776 0  -0.2713895360150755 1.150899041828053 0  -0.3944608155695131 1.11867443224969 0  -0.5097757686523068 1.078054467206601 0  -0.6239414968491911 1.028163079064279 0  -0.7325582539986152 0.9662728445148185 0  -0.833034298261374 0.8982152627388916 0  -0.9319527875237363 0.8187963852157849 0  -1.015506451944749 0.7288231410509288 0  -1.094302652519271 0.6346900830482471 0  -1.16204121633232 0.5315119234822222 0  -1.217223065913066 0.4187060490864673 0  -1.260356741910797 0.3040778267083646 0  -1.288946584543192 0.1852367508592174 0  -1.303026031510593 0.06197745633218367 0  -1.302026640450935 -0.06026514519385578 0  -1.291510859406615 -0.1818631297793946 0  -1.258838484579551 -0.3059636188314875 0  -1.215495947992723 -0.4194537434603492 0  -1.160233769318631 -0.5322999458675916 0  -1.092534836929353 -0.6319866492149236 0  -1.015379933954116 -0.7300089519754689 0  -0.9279059067356759 -0.8197246863985399 0  -0.8332716570613777 -0.8974950933710293 0  -0.733039817067391 -0.9674739738863872 0  -0.6242261798197752 -1.029588827167105 0  -0.5104911285012519 -1.079783901827655 0  -0.3943917624345853 -1.118630969464051 0  -0.2743880749675061 -1.149486965424624 0  -0.1545266645670974 -1.166705084799085 0  -0.03328775663065341 -1.17574187848203 0  0.09588356678027911 -1.173040595157332 0  0.2129879974763077 -1.160071818987752 0  0.3385171309376255 -1.134504981280426 0  0.4523454801525924 -1.100009637029657 0  0.5705387502954751 -1.052851759270955 0  0.6774986610453425 -1.002098586063665 0  0.7866260085136006 -0.9345081127093726 0  0.8849578169458793 -0.8605567990717041 0  0.9753826330349427 -0.7765439210004859 0  1.05733214611664 -0.6842923652447134 0  1.128861555189266 -0.5861920082504767 0  1.189752756252816 -0.4782144818454369 0  1.240763826866124 -0.3595659858581975 0  1.275419200842061 -0.246593976232721 0  1.296868409042771 -0.1216199273882783 0  -2.449953607888292 4.92043522420213 0  -2.449947347464176 -4.913012905116265 0  4.912781801907997 2.449726144501473 0  4.920689950205191 -2.451015171060009 0  2.447934430296077 -4.898689961086351 0  2.442319039633908 4.902342362427417 0  -4.912791112961672 -2.449733828808494 0  -4.912798677030115 2.449737405621454 0  -1.749988817692568 4.91433069327802 0  -1.745711272369549 -4.91763117592683 0  4.923422860250526 1.745649296871372 0  4.912351971962061 -1.749656995543056 0  -4.912614161911407 -1.749361965287617 0  -4.913418919725168 1.749086806045973 0  1.747377828292775 4.908427690268939 0  1.748968556031952 -4.897007728921026 0  -1.150015249742182 4.912831371413897 0  -1.130762985209824 -4.920357399378782 0  -4.912960010614692 -1.149312508334435 0  -4.912794586351542 1.149109505562931 0  1.144929624631271 -4.916740811264037 0  1.15001724583483 4.912811026175135 0  4.913128599632096 1.147597238464038 0  4.923499138017033 -1.153206242359461 0  -0.5472867229819472 -4.914350302255235 0  -0.5470043155174186 4.922646054695595 0  -4.912161387700641 -0.5494516900017783 0  -4.912189860727151 0.5479978827005598 0  4.911544402560305 -0.5497836584306618 0  4.922666121717882 0.5464315150852105 0  0.5431427008525926 -4.901865795119789 0  0.551746178789109 4.919624027877212 0  -4.913534126428677 -3.049816286049065 0  4.919995500778005 3.047730285654554 0  4.913059540344674 -3.049816062283796 0  -4.914376567384472 3.046895097776585 0  3.056500989950203 -4.919085801614135 0  -3.04992746512958 -4.913146324735181 0  3.053465966009831 4.915190491310726 0  -3.04936300792506 4.914018363427782 0  -4.911440202646768 -0.04998228605469758 0  0.04516004602825532 -4.916339823223026 0  0.04961103540481089 4.923037602433152 0  4.918195294837432 -0.05135906626294115 0  3.546560038309642 -4.920245734165008 0  -3.549926111094426 4.913241394187905 0  -3
[...]
<PointData  Vectors="f_2034"> 
<DataArray  type="Float64"  Name="f_2034"  NumberOfComponents="3" format="ascii">-1.4048515168524081e-01 -1.6392473983042233e-01 0.0000000000000000e+00  1.5392918510425294e-01 -1.3023443742574170e-01 0.0000000000000000e+00  8.9203302915879662e-02 1.0416792587308385e-01 0.0000000000000000e+00  -1.4763254506627432e-01 1.6856393085344046e-01 0.0000000000000000e+00  -1.4579099426466240e+00 2.8176995821879149e+00 0.0000000000000000e+00  5.4188212067916935e-02 -1.2401837016951551e+00 0.0000000000000000e+00  4.5202871784263764e-02 -2.0137987786043854e+00 0.0000000000000000e+00  4.8448938938403852e-02 -3.3233503185819080e+00 0.0000000000000000e+00  3.6662415047356824e-02 -4.1085012082812380e+00 0.0000000000000000e+00  -9.0069458505608144e-02 -5.3385535055028841e+00 0.0000000000000000e+00  1.8635409631748992e-02 -6.5576026183312068e+00 0.0000000000000000e+00  3.1961030701513439e-02 -7.4772604950292711e+00 0.0000000000000000e+00  -1.4462009103292397e-02 -8.6003781745098866e+00 0.0000000000000000e+00  5.4903022279374485e-02 -9.4781204635102831e+00 0.0000000000000000e+00  5.7726825841482247e-02 -1.0756785873526194e+01 0.0000000000000000e+00  -9.1658141647202266e-03 -1.1613331768990156e+01 0.0000000000000000e+00  -1.5260340057382773e-02 -1.2736890126091923e+01 0.0000000000000000e+00  6.9251348101311578e-03 -1.3831519794845114e+01 0.0000000000000000e+00  4.7243227348929620e-03 -1.4865820083071199e+01 0.0000000000000000e+00  -5.7467609221752147e-03 -1.5917909250382154e+01 0.0000000000000000e+00  3.6214442293255110e-03 -1.7013216311638232e+01 0.0000000000000000e+00  2.3071960127592349e-02 -1.8070185732033050e+01 0.0000000000000000e+00  -3.8427472933073373e-03 -1.8911614917486030e+01 0.0000000000000000e+00  -6.9620634745657019e-03 -2.0071483095377456e+01 0.0000000000000000e+00  -2.8509180311029086e-02 -2.1232182364822474e+01 0.0000000000000000e+00  7.4379652497766485e-02 -2.2048994922716453e+01 0.0000000000000000e+00  3.5067195589720657e-02 -2.3233423022385569e+01 0.0000000000000000e+00  3.9253644781732308e-02 -2.4002357587464282e+01 0.0000000000000000e+00  6.7800291616854497e-02 -2.5138226859695841e+01 0.0000000000000000e+00  -3.1939872310950780e-02 -2.5937936174375061e+01 0.0000000000000000e+00  -1.0592126983092282e-02 -2.7032007886700494e+01 0.0000000000000000e+00  -3.6787602818553651e-03 -2.8053666686135735e+01 0.0000000000000000e+00  4.8838432842326467e-02 -2.8775560551121231e+01 0.0000000000000000e+00  3.6595021236657053e-02 -2.9875567196349181e+01 0.0000000000000000e+00  3.5530259539131810e-02 -3.0526851009073571e+01 0.0000000000000000e+00  -8.0832774177184541e-02 -3.1521683040125385e+01 0.0000000000000000e+00  3.5180022827049774e-02 -3.2456227274112173e+01 0.0000000000000000e+00  5.4580819507620629e-03 -3.3133213213332574e+01 0.0000000000000000e+00  -1.1579808414561631e-03 -3.3893774352794829e+01 0.0000000000000000e+00  -1.3405726907238390e-03 -3.4623784711608138e+01 0.0000000000000000e+00  6.1088955643583756e-03 -3.5321163997275605e+01 0.0000000000000000e+00  -3.5311493300591218e-02 -3.6044899094436857e+01 0.0000000000000000e+00  4.3042256701684295e-02 -3.6592080421492838e+01 0.0000000000000000e+00  2.3085505311469887e-02 -3.7159211104047351e+01 0.0000000000000000e+00  1.7709784253422269e-02 -3.7739597787419818e+01 0.0000000000000000e+00  -9.9723860513553347e-03 -3.8241972253977444e+01 0.0000000000000000e+00  4.1869057450438972e-02 -3.8584931882058726e+01 0.0000000000000000e+00  -3.0910009716380429e-02 -3.9052138821565045e+01 0.0000000000000000e+00  1.7193835251410942e-02 -3.9437739616452106e+01 0.0000000000000000e+00  -3.6837343672521403e-03 -3.9675969664356401e+01 0.0000000000000000e+00  1.2634558234598050e-03 -3.9928491115174012e+01 0.0000000000000000e+00  -8.8225072959066913e-04 -4.0117444115980291e+01 0.0000000000000000e+00  4.1622162358647059e-04 -4.0253665585416691e+01 0.0000000000000000e+00  2.0824941839705933e-04 -4.0335484947153979e+01 0.0000000000000000e+00  1.8455781988050287e-03 -4.0363380271303406e+01 0.0000000000000000e+00  7.6581112870827421e-04 -4.0347344190998705e+01 0.0000000000000000e+00  7.6759669667805794e-03 -4.0258965937447584e+01 0.0000000000000000e+00  -1.0863840717491550e-02 -4.0093901568622357e+01 0.0000000000000000e+00  -5.1584744722763696e-03 -3.9949940189318333e+01 0.0000000000000000e+00  -2.0892909756194782e-02 -3.9655268169277448e+01 0.0000000000000000e+00  6.8248579981413475e-03 -3.9414756851511278e+01 0.0000000000000000e+00  5.8674693167612970e-03 -3.9051934864829320e+01 0.0000000000000000e+00  -4.2898751213233614e-03 -3.8640003217866052e+01 0.0000000000000000e+00  -8.6380776615287689e-04 -3.8209285956669497e+01 0.0000000000000000e+00  5.2443397705041637e-03 -3.7713691596422059e+01 0.0000000000000000e+00  -1.1684682372531941e-02 -3.7177056921378075e+01 0.0000000000000000e+00  -7.4134070858826381e-03 -3.6578669451002398e+01 0.0000000000000000e+00  8.1640441481769330e-03 -3.6038767957393702e+01 0.0000000000000000e+00  -1.9302995231375356e-02 -3.5321485102548927e+01 0.0000000000000000e+00  2.2354258162641794e-02 -3.4618815491734715e+01 0.0000000000000000e+00  -2.8295623198850324e-02 -3.3895993621765619e+01 0.0000000000000000e+00  5.3133879587001645e-03 -3.3091583540851822e+01 0.0000000000000000e+00  1.3939916389304498e-02 -3.2365242799291359e+01 0.0000000000000000e+00  -2.0340620898071468e-02 -3.1507415394137947e+01 0.0000000000000000e+00  1.4445042973811476e-02 -3.0636040770193524e+01 0.0000000000000000e+00  -1.0669017935294572e-02 -2.9755595790635621e+01 0.0000000000000000e+00  4.7347202190816274e-03 -2.8872724424088908e+01 0.0000000000000000e+00  -1.9551004057996958e-02 -2.7965534475897684e+01 0.0000000000000000e+00  -5.7557096552325378e-03 -2.6978278968066451e+01 0.0000000000000000e+00  8.5260200014655556e-03 -2.6157610442762909e+01 0.0000000000000000e+00  1.5685370833881723e-03 -2.5123010010813260e+01 0.0000000000000000e+00  8.0861881850949578e-03 -2.4118876863039311e+01 0.0000000000000000e+00  -2.8364902630367742e-02 -2.3140026808018014e+01 0.0000000000000000e+00  -9.7195518878371370e-03 -2.2035726680901224e+01 0.0000000000000000e+00  1.7624473460903588e-02 -2.1132386997633798e+01 0.0000000000000000e+00  -2.7425570896074562e-02 -2.0029969605728361e+01 0.0000000000000000e+00  1.4427797106100250e-03 -1.9048439326657288e+01 0.0000000000000000e+00  1.0486935990197418e-02 -1.8045809168943439e+01 0.0000000000000000e+00  1.1788945304085930e-02 -1.6938587791404593e+01 0.0000000000000000e+00  -3.2925369773578551e-02 -1.5929803363581938e+01 0.0000000000000000e+00  7.0893867430135808e-03 -1.4807977989829196e+01 0.0000000000000000e+00  6.6308650478479666e-03 -1.3860207050994669e+01 0.0000000000000000e+00  -2.5890501450423764e-02 -1.2721712055251951e+01 0.0000000000000000e+00  -5.7176822212328879e-04 -1.1712293973588970e+01 0.0000000000000000e+00  1.4191758044152311e-02 -1.0625409741655336e+01 0.0000000000000000e+00  -7.7721034359702981e-04 -9.5489107136779392e+00 0.0000000000000000e+00  -1.4304224591272419e-02 -8.5100485643058708e+00 0.0000000000000000e+00  -1.0440326580635534e-02 -7.4033239269307369e+00 0.0000000000000000e+00  2.0544326854126015e-02 -6.4584526415436292e+00 0.0000000000000000e+00  -3.1841428943019702e-02 -5.3142050779193628e+00 0.0000000000000000e+00  7.6301656680221987e-03 -4.2750118236303933e+00 0.0000000000000000e+00  1.7345234102727512e-02 -3.1830361519908923e+00 0.0000000000000000e+00  -2.7446677467463161e-02 -2.1136911369569820e+00 0.0000000000000000e+00  -3.3902570843946218e-02 -1.2232975310887020e+00 0.0000000000000000e+00  1.2731098066903201e+00 3.0736504517256440e-02 0.0000000000000000e+00  2.0431378982147086e+00 7.7768916513703948e-02 0.0000000000000000e+00  3.2873726771376024e+00 5.7248346076041755e-02 0.0000000000000000e+00  4.2018365662889261e+00 -1.7431344340564363e-02 0.0000000000000000e+00  5.3390929738139770e+00 8.2682653440629885e-03 0.0000000000000000e+00  6.3864209803933942e+00 -5.8479188391501692e-03 0.0000000000000000e+00  7.4482247508353314e+00 1.2265124594549011e-03 0.0000000000000000e+00  8.5143685474954403e+00 -1.6649363162991057e-03 0.0000000000000000e+00  9.5725682518384065e+00 5.5485783694610700e-04 0.0000000000000000e+00  1.0654132830973243e+01 -2.4616330697695718e-04 0.0000000000000000e+00  1.1701275611008256e+01 -3.9090758769253049e-05 0.0000000000000000e+00  1.2775030092865855e+01 3.8145118997309165e-03 0.0000000000000000e+00  1.3802905951506148e+01 1.4750826517572699e-03 0.0000000000000000e+00  1.4901168412116904e+01 -6.9786985507478815e-03 0.0000000000000000e+00  1.5931760513120535e+01 3.5654265272290426e-03 0.0000000000000000e+00  1.7021135938353577e+01 3.2096569798431445e-03 0.0000000000000000e+00  1.8040755595367191e+01 -2.9265503892069470e-03 0.0000000000000000e+00  1.9071375776354810e+01 7.0696204978165315e-03 0.0000000000000000e+00  2.0148461228187276e+01 -6.7550220064224531e-03 0.0000000000000000e+00  2.1151687852700785e+01 -4.7517945939716472e-03 0.0000000000000000e+00  2.2202474608384417e+01 9.6975739072279570e-03 0.0000000000000000e+00  2.3230410218764572e+01 -1.0101498456464750e-02 0.0000000000000000e+00  2.4183308499905394e+01 7.2374484403295580e-03 0.0000000000000000e+00  2.5200150415037157e+01 1.9707220405241655e-03 0.0000000000000000e+00  2.6202742041197453e+01 4.4666643365681522e-03 0.0000000000000000e+00  2.7185215451562740e+01 -2.5333482243126088e-03 0.0000000000000000e+00  2.8132366660852014e+01 -1.8302122581035814e-03 0.0000000000000000e+00  2.9053593904104595e+01 -1.3444146314601857e-03 0.0000000000000000e+00  2.9967521746152606e+01 1.8608591521410286e-04 0.0000000000000000e+00  3.0859677888951659e+01 -2.7739745174814554e-04 0.0000000000000000e+00  3.1728102953753304e+01 2.7717544762103887e-04 0.0000000000000000e+00  3.2569563509110232e+01 -2.0053546541539983e-03 0.0000000000000000e+00  3.3374195675286231e+01 -8.4924263999213464e-04 0.0000000000000000e+00  3.4169952026695775e+01 3.9030482912890867e-03 0.0000000000000000e+00  3.4932089190198148e+01 -6.0262568051763603e-03 0.0000000000000000e+00  3.5611710801001031e+01 6.0505826459611254e-03 0.0000000000000000e+00  3.6299261867278389e+01 -3.8560817413015313e-04 0.0000000000000000e+00  3.6932373567980243e+01 6.9271069573797793e-03 0.0000000000000000e+00  3.7515964631384030e+01 9.2880233361978502e-03 0.0000000000000000e+00  3.8098735361289087e+01 -2.7386446400977326e-02 0.0000000000000000e+00  3.8643562353289646e+01 1.9868742313593857e-02 0.0000000000000000e+00  3.9055978955715922e+01 -8.6379349151263062e-03 0.0000000000000000e+00  3.9480267778444031e+01 1.2235875435680813e-03 0.0000000000000000e+00  3.9840234548672697e+01 -2.7441750533631318e-03 0.0000000000000000e+00  4.0130672716073370e+01 5.6550871756026839e-03 0.0000000000000000e+00  4.0382295608679989e+01 -9.7393882133152052e-04 0.0000000000000000e+00  4.0585774596474451e+01 3.8782079643251486e-04 0.0000000000000000e+00  4.0729509117231245e+01 -6.2476339161498314e-04 0.0000000000000000e+00  4.0815827204180458e+01 -2.5950282029860866e-04 0.0000000000000000e+00  4.0842952700483821e+01 5.3201110755711554e-04 0.0000000000000000e+00  4.0815143093324657e+01 5.8932162767615928e-04 0.0000000000000000e+00  4.0733462631069919e+01 -1.4865074339768926e-03 0.0000000000000000e+00  4.0589995266934878e+01 1.6377671652085990e-03 0.0000000000000000e+00  4.0390991990030130e+01 1.8721256197050046e-04 0.0000000000000000e+00  4.0146629737141005e+01 -2.8207246182370229e-03 0.0000000000000000e+00  3.9837033301363817e+01 3.3459570023700327e-03 0.0000000000000000e+00  3.9472699849251214e+01 -1.6888586539138231e-05 0.0000000000000000e+00  3.9068207297058450e+01 -3.9724526807213088e-03 0.0000000000000000e+00  3.8595603195727271e+01 1.0701858064823141e-03 0.0000000000000000e+00  3.8097379643286082e+01 1.9785565729236810e-03 0.0000000000000000e+00  3.7543686100928021e+01 -2.5185434709798699e-03 0.0000000000000000e+00  3.6968138485557766e+01 -1.5641966145547581e-06 0.0000000000000000e+00  3.6315842357870636e+01 1.8295601266400494e-03 0.0000000000000000e+00  3.5642013186926107e+01 -1.6080063474260911e-03 0.0000000000000000e+00  3.4944681444882427e+01 6.0685941650188476e-03 0.0000000000000000e+00  3.4169975754692800e+01 -4.6133084512910340e-03 0.0000000000000000e+00  3.3407292729134774e+01 -6.3771293182483578e-03 0.0000000000000000e+00  3.2584002820519736e+01 8.0263989642552196e-03 0.0000000000000000e+00  3.1721715851919082e+01 -2.2723457418366943e-03 0.0000000000000000e+00  3.0861085419745773e+01 -4.1038251209671254e-03 0.0000000000000000e+00  2.9962223325865093e+01 3.5461505872760222e-03 0.0000000000000000e+00  2.9050054955633062e+01 3.0419252451018507e-03 0.0000000000000000e+00  2.8109787653371480e+01 -7.9273818348332735e-04 0.0000000000000000e+00  2.7162793635232024e+01 -9.0204023401221383e-05 0.0000000000000000e+00  2.6196212176509086e+01 1.8273663792424571e-03 0.0000000000000000e+00  2.5210000682473574e+01 -1.3167630046268036e-03 0.0000000000000000e+00  2.4236038530809473e+01 -2.1090024246074790e-03 0.0000000000000000e+00  2.3245550410620353e+01 5.8354525910158123e-03 0.0000000000000000e+00  2.2193516312741817e+01 -8.2992916526424647e-03 0.0000000000000000e+00  2.1166359007786696e+01 -9.1568280347684291e-04 0.0000000000000000e+00  2.0134756852447627e+01 -9.6671833959338259e-04 0.0000000000000000e+00  1.9129968753438142e+01 -4.6000668270275988e-04 0.0000000000000000e+00  1.8085928255710307e+01 8.3963808152035004e-03 0.0000000000000000e+00  1.6998159138937677e+01 -7.4767234514518969e-03 0.0000000000000000e+00  1.5944439869400544e+01 -1.0378483211283460e-03 0.0000000000000000e+00  1.4886353998652337e+01 4.3509330626349157e-04 0.0000000000000000e+00  1.3804682179789634e+01 3.6140567367704095e-03 0.0000000000000000e+00  1.2773653268763717e+01 1.4653182657544811e-03 0.0000000000000000e+00  1.1694782240518116e+01 -2.3637755778270621e-03 0.0000000000000000e+00  1.0642655649987466e+01 9.2765682385423528e-04 0.0000000000000000e+00  9.5795467611321428e+00 3.5631282368231237e-03 0.0000000000000000e+00  8.5370523137328824e+00 -1.4026778598369566e-03 0.0000000000000000e+00  7.4511129167283601e+00 -3.3082805543702366e-03 0.0000000000000000e+00  6.3867130419449190e+00 6.0378419266857780e-03 0.0000000000000000e+00  5.3410537314647266e+00 -1.0659497598909877e-02 0.0000000000000000e+00  4.3022916297062146e+00 -4.5527768742935635e-03 0.0000000000000000e+00  3.2276270579266302e+00 1.4627216992313530e-02 0.0000000000000000e+00  2.1185609570228094e+00 2.3918904060311389e-04 0.0000000000000000e+00  1.1512706160868267e+00 -3.8590427755020543e-02 0.0000000000000000e+00  -6.2028941295967151e-02 1.1887538732648819e+00 0.0000000000000000e+00  1.5437240403924345e-02 2.0646715626095284e+00 0.0000000000000000e+00  -2.6211704778247295e-02 3.1803679939611822e+00 0.0000000000000000e+00  -2.0643569672161587e-02 4.0906863251875691e+00 0.0000000000000000e+00  8.9574446768862823e-02 5.3184349990560698e+00 0.0000000000000000e+00  -2.2530259629909736e-02 6.5601905948216119e+00 0.0000000000000000e+00  -6.3167477839372252e-02 7.3369720752177301e+00 0.0000000000000000e+00  -9.1665429238804066e-02 8.5867631324078904e+00 0.0000000000000000e+00  2.6247295916807838e-02 9.4585475486725485e+00 0.0000000000000000e+00  2.8115922775720583e-02 1.0633987235696502e+01 0.0000000000000000e+00  -2.6209312299515088e-02 1.1701852073587780e+01 0.0000000000000000e+00  1.8965864287342166e-02 1.2724627099274223e+01 0.0000000000000000e+00  3.9758408141304857e-03 1.3879670312838089e+01 0.0000000000000000e+00  -2.9977922590308705e-03 1.4789588043252385e+01 0.0000000000000000e+00  -1.2467895031840053e-02 1.5912066975757568e+01 0.0000000000000000e+00  -5.0616965227336689e-03 1.6922270608274601e+01 0.0000000000000000e+00  1.4340365349746597e-02 1.8004537712612112e+01 0.0000000000000000e+00  -4.6604829802702431e-03 1.9077381854430282e+01 0.0000000000000000e+00  -1.0777928898052172e-02 2.0075086256916073e+01 0.0000000000000000e+00  -3.3715639849798765e-03 2.1159444891876969e+01 0.0000000000000000e+00  -9.7440365095744028e-03 2.2012801370875273e+01 0.0000000000000000e+00  2.3007459197824615e-02 2.3141695976763312e+01 0.0000000000000000e+00  -1.9279994534741263e-02 2.4108819559310273e+01 0.0000000000000000e+00  2.3069245555092148e-02 2.5098508828188709e+01 0.0000000000000000e+00  7.5117363237999545e-03 2.6142086042159963e+01 0.0000000000000000e+00  -5.3144800321257124e-02 2.6909933203274008e+01 0.0000000000000000e+00  -4.5527309659002577e-02 2.8038747107375741e+01 0.0000000000000000e+00  9.5682132657657175e-03 2.8793680076677418e+01 0.0000000000000000e+00  -2.8874752403678074e-02 2.9743915496956799e+01 0.0000000000000000e+00  -1.4379821238957303e-02 3.0499194895914897e+01 0.0000000000000000e+00  7.1313351067032182e-02 3.1471719679397356e+01 0.0000000000000000e+00  -2.5092623395154168e-02 3.2424914402758162e+01 0.0000000000000000e+00  -3.7776227163640604e-02 3.3023720444531939e+01 0.0000000000000000e+00  -4.1619569855001329e-02 3.3940667806673048e+01 0.0000000000000000e+00  5.5361780653813584e-03 3.4510974194107995e+01 0.0000000000000000e+00  1.3017474672623241e-02 3.5296733024115298e+01 0.0000000000000000e+00  -5.3874215730291136e-03 3.5975784066395555e+01 0.0000000000000000e+00  -1.5811982075830820e-03 3.6576130578122395e+01 0.0000000000000000e+00  1.1477787642438224e-03 3.7151606326392766e+01 0.0000000000000000e+00  1.3439290668043726e-03 3.7709475734711731e+01 0.0000000000000000e+00  -9.9421663785826710e-03 3.8207328671583149e+01 0.0000000000000000e+00  5.0229226341459547e-04 3.8565881308120140e+01 0.0000000000000000e+00  -3.3989182913507726e-04 3.9011136453747753e+01 0.0000000000000000e+00  4.2830348462448873e-03 3.9367933175827623e+01 0.0000000000000000e+00  -7.9791146269562480e-03 3.9654079563543227e+01 0.0000000000000000e+00  7.7663503030652231e-03 3.9909771600416889e+01 0.0000000000000000e+00  -2.7669964078987056e-03 4.0082605534216214e+01 0.0000000000000000e+00  -6.9441296372982127e-03 4.0230939727283534e+01 0.0000000000000000e+00  1.6980232837752330e-03 4.0309797192600691e+01 0.0000000000000000e+00  1.6074474536646923e-03 4.0342866920369090e+01 0.0000000000000000e+00  7.1463513929449626e-03 4.0307378719511995e+01 0.0000000000000000e+00  -7.9985815630756619e-03 4.0232151348686941e+01 0.0000000000000000e+00  3.6101001261018596e-03 4.0098179932346397e+01 0.0000000000000000e+00  -6.5067449941115943e-03 3.9902282116710261e+01 0.0000000000000000e+00  9.2379036154281724e-03 3.9660030459251807e+01 0.0000000000000000e+00  -8.0376738687336236e-03 3.9340624371218873e+01 0.0000000000000000e+00  1.7632540196335630e-02 3.9050778026839666e+01 0.0000000000000000e+00  2.0757052505108002e-02 3.8571788769728670e+01 0.0000000000000000e+00  1.1513311038180929e-02 3.8226841730920782e+01 0.0000000000000000e+00  4.2318816139287271e-02 3.7660545076737051e+01 0.0000000000000000e+00  -2.0430495015687795e-02 3.7229010308410189e+01 0.0000000000000000e+00  -7.3771158172486325e-03 3.6583675870623715e+01 0.0000000000000000e+00  8.2146898303608242e-03 3.5933508067118716e+01 0.0000000000000000e+00  -1.9029442690455304e-03 3.5298353532358561e+01 0.0000000000000000e+00  -6.4231625138667632e-04 3.4607870160472054e+01 0.0000000000000000e+00  -2.7188762484630911e-03 3.3861604862420400e+01 0.0000000000000000e+00  3.1045112313327896e-03 3.3108461196672437e+01 0.0000000000000000e+00  -1.5370954383850268e-02 3.2306096142282655e+01 0.0000000000000000e+00  2.8097939392148510e-02 3.1483171076012088e+01 0.0000000000000000e+00  -2.0065540078056388e-02 3.0565174542437376e+01 0.0000000000000000e+00  2.2120093059820590e-02 2.9809942217798078e+01 0.0000000000000000e+00  5.7783939456783054e-03 2.8916319186390449e+01 0.0000000000000000e+00  -2.3907067654645644e-02 2.7954731709100422e+01 0.0000000000000000e+00  1.5654329212979535e-02 2.7004634914883805e+01 0.0000000000000000e+00  -1.9885735905243868e-02 2.6064140453905534e+01 0.0000000000000000e+00  9.5927403609544857e-03 2.5042878939197987e+01 0.0000000000000000e+00  -4.7405514267040462e-03 2.4050619846385590e+01 0.0000000000000000e+00  4.2055004249434175e-02 2.3224271506797209e+01 0