<?xml version="1.0"?>
<VTKFile type="UnstructuredGrid"  version="0.1"  >
<UnstructuredGrid>
<Piece  NumberOfPoints="11902" NumberOfCells="23402">
<Points>
<DataArray  type="Float64"  NumberOfComponents="3"  format="ascii">-5 -5 0  5 -5 0  5 5 0  -5 5 0  1.907984088823227 0.01432030428866366 0  -4.9 -5 0  -4.8 -5 0  -4.7 -5 0  -4.6 -5 0  -4.5 -5 0  -4.4 -5 0  -4.3 -5 0  -4.2 -5 0  -4.1 -5 0  -4 -5 0  -3.9 -5 0  -3.8 -5 0  -3.7 -5 0  -3.6 -5 0  -3.5 -5 0  -3.4 -5 0  -3.3 -5 0  -3.2 -5 0  -3.1 -5 0  -3 -5 0  -2.9 -5 0  -2.8 -5 0  -2.7 -5 0  -2.6 -5 0  -2.5 -5 0  -2.4 -5 0  -2.3 -5 0  -2.2 -5 0  -2.1 -5 0  -2 -5 0  -1.9 -5 0  -1.8 -5 0  -1.7 -5 0  -1.6 -5 0  -1.5 -5 0  -1.4 -5 0  -1.3 -5 0  -1.2 -5 0  -1.1 -5 0  -1 -5 0  -0.9000000000000004 -5 0  -0.7999999999999998 -5 0  -0.7000000000000002 -5 0  -0.5999999999999996 -5 0  -0.5 -5 0  -0.4000000000000004 -5 0  -0.2999999999999998 -5 0  -0.2000000000000002 -5 0  -0.09999999999999964 -5 0  0 -5 0  0.09999999999999964 -5 0  0.2000000000000002 -5 0  0.2999999999999998 -5 0  0.4000000000000004 -5 0  0.5 -5 0  0.5999999999999996 -5 0  0.7000000000000002 -5 0  0.7999999999999998 -5 0  0.9000000000000004 -5 0  1 -5 0  1.1 -5 0  1.2 -5 0  1.3 -5 0  1.4 -5 0  1.5 -5 0  1.6 -5 0  1.7 -5 0  1.8 -5 0  1.9 -5 0  2 -5 0  2.1 -5 0  2.2 -5 0  2.3 -5 0  2.4 -5 0  2.5 -5 0  2.6 -5 0  2.7 -5 0  2.8 -5 0  2.9 -5 0  3 -5 0  3.1 -5 0  3.199999999999999 -5 0  3.300000000000001 -5 0  3.4 -5 0  3.5 -5 0  3.6 -5 0  3.699999999999999 -5 0  3.800000000000001 -5 0  3.9 -5 0  4 -5 0  4.1 -5 0  4.199999999999999 -5 0  4.300000000000001 -5 0  4.4 -5 0  4.5 -5 0  4.6 -5 0  4.699999999999999 -5 0  4.800000000000001 -5 0  4.9 -5 0  5 -4.9 0  5 -4.8 0  5 -4.7 0  5 -4.6 0  5 -4.5 0  5 -4.4 0  5 -4.3 0  5 -4.2 0  5 -4.1 0  5 -4 0  5 -3.9 0  5 -3.8 0  5 -3.7 0  5 -3.6 0  5 -3.5 0  5 -3.4 0  5 -3.3 0  5 -3.2 0  5 -3.1 0  5 -3 0  5 -2.9 0  5 -2.8 0  5 -2.7 0  5 -2.6 0  5 -2.5 0  5 -2.4 0  5 -2.3 0  5 -2.2 0  5 -2.1 0  5 -2 0  5 -1.9 0  5 -1.8 0  5 -1.7 0  5 -1.6 0  5 -1.5 0  5 -1.4 0  5 -1.3 0  5 -1.2 0  5 -1.1 0  5 -1 0  5 -0.9000000000000004 0  5 -0.7999999999999998 0  5 -0.7000000000000002 0  5 -0.5999999999999996 0  5 -0.5 0  5 -0.4000000000000004 0  5 -0.2999999999999998 0  5 -0.2000000000000002 0  5 -0.09999999999999964 0  5 0 0  5 0.09999999999999964 0  5 0.2000000000000002 0  5 0.2999999999999998 0  5 0.4000000000000004 0  5 0.5 0  5 0.5999999999999996 0  5 0.7000000000000002 0  5 0.7999999999999998 0  5 0.9000000000000004 0  5 1 0  5 1.1 0  5 1.2 0  5 1.3 0  5 1.4 0  5 1.5 0  5 1.6 0  5 1.7 0  5 1.8 0  5 1.9 0  5 2 0  5 2.1 0  5 2.2 0  5 2.3 0  5 2.4 0  5 2.5 0  5 2.6 0  5 2.7 0  5 2.8 0  5 2.9 0  5 3 0  5 3.1 0  5 3.199999999999999 0  5 3.300000000000001 0  5 3.4 0  5 3.5 0  5 3.6 0  5 3.699999999999999 0  5 3.800000000000001 0  5 3.9 0  5 4 0  5 4.1 0  5 4.199999999999999 0  5 4.300000000000001 0  5 4.4 0  5 4.5 0  5 4.6 0  5 4.699999999999999 0  5 4.800000000000001 0  5 4.9 0  4.9 5 0  4.8 5 0  4.7 5 0  4.6 5 0  4.5 5 0  4.4 5 0  4.3 5 0  4.2 5 0  4.1 5 0  4 5 0  3.9 5 0  3.8 5 0  3.7 5 0  3.6 5 0  3.5 5 0  3.4 5 0  3.3 5 0  3.2 5 0  3.1 5 0  3 5 0  2.9 5 0  2.8 5 0  2.7 5 0  2.6 5 0  2.5 5 0  2.4 5 0  2.3 5 0  2.2 5 0  2.1 5 0  2 5 0  1.9 5 0  1.8 5 0  1.7 5 0  1.6 5 0  1.5 5 0  1.4 5 0  1.3 5 0  1.2 5 0  1.1 5 0  1 5 0  0.9000000000000004 5 0  0.7999999999999998 5 0  0.7000000000000002 5 0  0.5999999999999996 5 0  0.5 5 0  0.4000000000000004 5 0  0.2999999999999998 5 0  0.2000000000000002 5 0  0.09999999999999964 5 0  0 5 0  -0.09999999999999964 5 0  -0.2000000000000002 5 0  -0.2999999999999998 5 0  -0.4000000000000004 5 0  -0.5 5 0  -0.5999999999999996 5 0  -0.7000000000000002 5 0  -0.7999999999999998 5 0  -0.9000000000000004 5 0  -1 5 0  -1.1 5 0  -1.2 5 0  -1.3 5 0  -1.4 5 0  -1.5 5 0  -1.6 5 0  -1.7 5 0  -1.8 5 0  -1.9 5 0  -2 5 0  -2.1 5 0  -2.2 5 0  -2.3 5 0  -2.4 5 0  -2.5 5 0  -2.6 5 0  -2.7 5 0  -2.8 5 0  -2.9 5 0  -3 5 0  -3.1 5 0  -3.199999999999999 5 0  -3.300000000000001 5 0  -3.4 5 0  -3.5 5 0  -3.6 5 0  -3.699999999999999 5 0  -3.800000000000001 5 0  -3.9 5 0  -4 5 0  -4.1 5 0  -4.199999999999999 5 0  -4.300000000000001 5 0  -4.4 5 0  -4.5 5 0  -4.6 5 0  -4.699999999999999 5 0  -4.800000000000001 5 0  -4.9 5 0  -5 4.9 0  -5 4.8 0  -5 4.7 0  -5 4.6 0  -5 4.5 0  -5 4.4 0  -5 4.3 0  -5 4.2 0  -5 4.1 0  -5 4 0  -5 3.9 0  -5 3.8 0  -5 3.7 0  -5 3.6 0  -5 3.5 0  -5 3.4 0  -5 3.3 0  -5 3.2 0  -5 3.1 0  -5 3 0  -5 2.9 0  -5 2.8 0  -5 2.7 0  -5 2.6 0  -5 2.5 0  -5 2.4 0  -5 2.3 0  -5 2.2 0  -5 2.1 0  -5 2 0  -5 1.9 0  -5 1.8 0  -5 1.7 0  -5 1.6 0  -5 1.5 0  -5 1.4 0  -5 1.3 0  -5 1.2 0  -5 1.1 0  -5 1 0  -5 0.9000000000000004 0  -5 0.7999999999999998 0  -5 0.7000000000000002 0  -5 0.5999999999999996 0  -5 0.5 0  -5 0.4000000000000004 0  -5 0.2999999999999998 0  -5 0.2000000000000002 0  -5 0.09999999999999964 0  -5 0 0  -5 -0.09999999999999964 0  -5 -0.2000000000000002 0  -5 -0.2999999999999998 0  -5 -0.4000000000000004 0  -5 -0.5 0  -5 -0.5999999999999996 0  -5 -0.7000000000000002 0  -5 -0.7999999999999998 0  -5 -0.9000000000000004 0  -5 -1 0  -5 -1.1 0  -5 -1.2 0  -5 -1.3 0  -5 -1.4 0  -5 -1.5 0  -5 -1.6 0  -5 -1.7 0  -5 -1.8 0  -5 -1.9 0  -5 -2 0  -5 -2.1 0  -5 -2.2 0  -5 -2.3 0  -5 -2.4 0  -5 -2.5 0  -5 -2.6 0  -5 -2.7 0  -5 -2.8 0  -5 -2.9 0  -5 -3 0  -5 -3.1 0  -5 -3.199999999999999 0  -5 -3.300000000000001 0  -5 -3.4 0  -5 -3.5 0  -5 -3.6 0  -5 -3.699999999999999 0  -5 -3.800000000000001 0  -5 -3.9 0  -5 -4 0  -5 -4.1 0  -5 -4.199999999999999 0  -5 -4.300000000000001 0  -5 -4.4 0  -5 -4.5 0  -5 -4.6 0  -5 -4.699999999999999 0  -5 -4.800000000000001 0  -5 -4.9 0  2.362244658999716 0.2635821746205021 0  1.936118994790816 0.3628377879997811 0  2.315371535531548 0.7003438244499209 0  1.760862838343395 0.6578181409687642 0  1.813780547250907 0.9168559857016914 0  1.525887514011129 0.9931304255440069 0  1.33757430148621 1.255368843660659 0  1.165533384865123 1.021372780017994 0  1.133988217824826 1.263030659544581 0  0.9479610095791552 1.419271915596274 0  0.7809394815455628 1.426666124242161 0  0.6476511679116821 1.463211272815326 0  0.462095813900119 1.550540623302715 0  0.2943379371886233 1.582003718834185 0  0.1326749486136729 1.611285760735581 0  -0.02468982243155816 1.606359399582527 0  -0.2302132851949095 1.577696246455272 0  -0.391272377529774 1.570895201560129 0  -0.5439219578128194 1.52546891099774 0  -0.7033191798489681 1.450246193906876 0  -0.8736944678764531 1.415104583739605 0  -1.042232132536424 1.301336407535663 0  -1.192219506148936 1.19353578724583 0  -1.367308405010265 1.25951826287105 0  -1.252306031803424 0.8591960611162377 0  -1.560220158508136 1.034564504674987 0  -1.920262033547628 0.9054413448303685 0  -1.815037076562406 0.6561915899676037 0  -2.129846021598193 0.5755444797728948 0  -2.191337665020453 0.3052945675956676 0  -2.285585861573816 0.06687529299951554 0  -1.856161144215248 -0.1238053748760828 0  -2.468202417961466 -0.4629399223617833 0  -1.974725376707244 -0.4248496150210574 0  -1.864312429843816 -0.6480340122314362 0  -1.906519337373206 -0.961736955138349 0  -1.504765936518564 -0.8124045451924742 0  -1.538453545916851 -0.9973818312025412 0  -1.368925681549069 -1.190926433870789 0  -1.156243493831101 -1.183225079499778 0  -1.021774757261772 -1.320742533261624 0  -0.8652942505744281 -1.449126988896826 0  -0.6960200922934391 -1.477154477340902 0  -0.5361989760820121 -1.517260488132611 0  -0.3787008629752406 -1.582382293477688 0  -0.2096810328727263 -1.59088092930748 0  -0.04660297796648686 -1.609462605814964 0  0.1416969473424 -1.606231942086775 0  0.2895756958877995 -1.597749011496662 0  0.4662419920800779 -1.5670098025151 0  0.6284175657948943 -1.502267379482163 0  0.7627249475384534 -1.368155893163968 0  0.9430734308830238 -1.408327155195758 0  1.110971766637306 -1.295558380025592 0  1.295519526994614 -1.246713537701054 0  1.392780654300362 -1.05960867478345 0  1.494217671659505 -0.904645490643207 0  1.798031876373502 -0.927395726668809 0  1.884085898906691 -0.7437805968683446 0  1.892330121653601 -0.5211247577466304 0  2.258201721765731 -0.445773671479491 0  2.207078023140508 -0.1842482297560585 0  -2.449907068579263 4.920197223353191 0  -2.44986354483006 -4.912740104126849 0  4.911174576034279 2.448265741437472 0  4.919199791032993 -2.449588673824421 0  2.447796474255722 -4.89831554847319 0  2.442220751622808 4.902070394005717 0  -4.911217064989586 -2.448286131651214 0  -4.911263049282669 2.448288854974334 0  -1.750190138367305 4.914347731578449 0  -1.745878584892651 -4.917614472442912 0  4.920813081179412 1.743919825716864 0  4.909304281836046 -1.747811211340253 0  -4.909698688531468 -1.74751611723684 0  -4.910558430250022 1.74725750049993 0  1.747615082988307 4.908423442216054 0  1.749175030071163 -4.896919484243123 0  -1.150318051093095 4.913205560188675 0  -1.131028393056229 -4.920592298513275 0  -4.908658683724703 -1.147556336649422 0  -4.90849588812616 1.147345897839979 0  1.145200383554904 -4.916991580715045 0  1.150331293107775 4.913148190273382 0  4.908767790785702 1.145809985664094 0  4.919607683007785 -1.151514447549752 0  -0.5474626149862279 -4.914908494475021 0  -0.5471766851824752 4.923222532547535 0  -4.906600262298102 -0.548379031994065 0  -4.906634304786561 0.5469166133825472 0  4.905756705116007 -0.548711891856615 0  4.91764976546387 0.5453942502008644 0  0.5434162661888243 -4.902464526221754 0  0.5519378023892239 4.920217183658825 0  -4.912725021327549 -3.048814006850795 0  4.919247813509445 3.046764144891878 0  4.912210879666008 -3.048772576626293 0  -4.913600554754421 3.045892861693685 0  3.056262027075952 -4.918796976523864 0  -3.049661015628374 -4.912776825282793 0  3.053218646826549 4.914886290650347 0  -3.049140574628205 4.913723843822284 0  -4.905384491352323 -0.04987773418539667 0  0.04520396791237205 -4.91697452118098 0  0.04963539375671192 4.923687627638106 0  4.912467343724594 -0.0512913272014944 0  3.54624925985297 -4.919939825996492 0  -3.549622766036917 4.912985499909278 0  -3.549586147854151 -4.912997934718795 0  4
[...]
<PointData  Vectors="f_6950"> 
<DataArray  type="Float64"  Name="f_6950"  NumberOfComponents="3" format="ascii">-1.5159073924194011e-01 -1.7688713844973958e-01 0.0000000000000000e+00  1.6536877610461537e-01 -1.3989341685113912e-01 0.0000000000000000e+00  9.6099777919866028e-02 1.1226032095090752e-01 0.0000000000000000e+00  -1.5873538023743000e-01 1.8124062788266793e-01 0.0000000000000000e+00  1.0345547069674131e+01 -6.8172815231458088e+00 0.0000000000000000e+00  5.8334758639353446e-02 -1.3397404175187992e+00 0.0000000000000000e+00  4.9147592027843849e-02 -2.1748394065901753e+00 0.0000000000000000e+00  5.1968700399822404e-02 -3.5896905723542440e+00 0.0000000000000000e+00  3.9806437245981603e-02 -4.4372311972510383e+00 0.0000000000000000e+00  -9.7168850880965760e-02 -5.7640635814439722e+00 0.0000000000000000e+00  1.9703694322334812e-02 -7.0794900915854422e+00 0.0000000000000000e+00  3.4493559272481197e-02 -8.0710544291212027e+00 0.0000000000000000e+00  -1.6162349493053504e-02 -9.2820330231986610e+00 0.0000000000000000e+00  6.0492826324297609e-02 -1.0227159465938204e+01 0.0000000000000000e+00  6.0973907377991972e-02 -1.1604355101701152e+01 0.0000000000000000e+00  -9.2751840596423871e-03 -1.2523902282741647e+01 0.0000000000000000e+00  -1.6544908270178914e-02 -1.3731385101778271e+01 0.0000000000000000e+00  7.4621767672212388e-03 -1.4906510178348274e+01 0.0000000000000000e+00  5.0970250690112523e-03 -1.6015522885370167e+01 0.0000000000000000e+00  -6.1828852035337063e-03 -1.7142181871670132e+01 0.0000000000000000e+00  4.0181861732706478e-03 -1.8314039737470431e+01 0.0000000000000000e+00  2.4008911112047292e-02 -1.9444418059463931e+01 0.0000000000000000e+00  -3.2343122282535272e-03 -2.0340891593966795e+01 0.0000000000000000e+00  -7.7958794307768069e-03 -2.1577018270278469e+01 0.0000000000000000e+00  -3.0837724940660505e-02 -2.2811919231306767e+01 0.0000000000000000e+00  8.0498478854944169e-02 -2.3680823758522706e+01 0.0000000000000000e+00  3.6030335978014652e-02 -2.4935996080555523e+01 0.0000000000000000e+00  4.2900643174946206e-02 -2.5750756138304784e+01 0.0000000000000000e+00  7.1157246978236610e-02 -2.6952727893593444e+01 0.0000000000000000e+00  -3.3317247654776803e-02 -2.7795909709886931e+01 0.0000000000000000e+00  -1.1120988317112817e-02 -2.8949747389639541e+01 0.0000000000000000e+00  -4.1065863074092445e-03 -3.0024936422555140e+01 0.0000000000000000e+00  5.1912422518853585e-02 -3.0783509187777227e+01 0.0000000000000000e+00  3.8023323445181181e-02 -3.1936548326684949e+01 0.0000000000000000e+00  3.7579997319149211e-02 -3.2618751353344358e+01 0.0000000000000000e+00  -8.4514247315134863e-02 -3.3658572131781035e+01 0.0000000000000000e+00  3.6797642826952463e-02 -3.4633852395371790e+01 0.0000000000000000e+00  5.6839075188420329e-03 -3.5338907802089494e+01 0.0000000000000000e+00  -1.1690545989657922e-03 -3.6129786392510525e+01 0.0000000000000000e+00  -1.3528807079799673e-03 -3.6887700189804050e+01 0.0000000000000000e+00  6.2712018429708673e-03 -3.7610633291445609e+01 0.0000000000000000e+00  -3.6191211016090435e-02 -3.8359645963472325e+01 0.0000000000000000e+00  4.4036575078481910e-02 -3.8925316773799779e+01 0.0000000000000000e+00  2.3839204233241058e-02 -3.9510966857475907e+01 0.0000000000000000e+00  1.8117604556805222e-02 -4.0108756312291113e+01 0.0000000000000000e+00  -1.0010381300122051e-02 -4.0625242711466335e+01 0.0000000000000000e+00  4.2558109598908787e-02 -4.0977412188493638e+01 0.0000000000000000e+00  -3.1476102126322181e-02 -4.1456628703071786e+01 0.0000000000000000e+00  1.7484455258299461e-02 -4.1851222182144454e+01 0.0000000000000000e+00  -3.7576073079728122e-03 -4.2094429858693104e+01 0.0000000000000000e+00  1.2854331957006086e-03 -4.2351541647465005e+01 0.0000000000000000e+00  -9.0297522614269125e-04 -4.2543117435463294e+01 0.0000000000000000e+00  4.1173650838115114e-04 -4.2680294385474895e+01 0.0000000000000000e+00  2.2317113363105726e-04 -4.2761345478995167e+01 0.0000000000000000e+00  1.8381600093723730e-03 -4.2786887702352978e+01 0.0000000000000000e+00  6.0494897164345787e-04 -4.2767626997339008e+01 0.0000000000000000e+00  8.1597911400761516e-03 -4.2672944760534293e+01 0.0000000000000000e+00  -1.1115040309183298e-02 -4.2498993279665470e+01 0.0000000000000000e+00  -5.6171400975738306e-03 -4.2348367351739704e+01 0.0000000000000000e+00  -2.1409495411918375e-02 -4.2040539644769567e+01 0.0000000000000000e+00  7.0296365378249813e-03 -4.1790032025858935e+01 0.0000000000000000e+00  5.9523892583015370e-03 -4.1412456197224721e+01 0.0000000000000000e+00  -4.3599471054308909e-03 -4.0984238165186234e+01 0.0000000000000000e+00  -9.1718864727149247e-04 -4.0536336598864878e+01 0.0000000000000000e+00  5.4146107178552165e-03 -4.0021257135684117e+01 0.0000000000000000e+00  -1.2200467213317006e-02 -3.9463484628087031e+01 0.0000000000000000e+00  -7.5338553962139244e-03 -3.8840911857620910e+01 0.0000000000000000e+00  8.3230942638331147e-03 -3.8278905056061525e+01 0.0000000000000000e+00  -1.9925522707137166e-02 -3.7532577412654000e+01 0.0000000000000000e+00  2.3169757260625520e-02 -3.6800566336414796e+01 0.0000000000000000e+00  -2.9590422366570352e-02 -3.6046792708531875e+01 0.0000000000000000e+00  5.4045291760108864e-03 -3.5207165830703303e+01 0.0000000000000000e+00  1.4575889430039247e-02 -3.4448453075009489e+01 0.0000000000000000e+00  -2.1261789054960265e-02 -3.3551729851579232e+01 0.0000000000000000e+00  1.5033584238376122e-02 -3.2639613129876423e+01 0.0000000000000000e+00  -1.1331892708762612e-02 -3.1716847242090967e+01 0.0000000000000000e+00  4.8951479794597267e-03 -3.0790394448691437e+01 0.0000000000000000e+00  -2.0565321217134974e-02 -2.9837157152407357e+01 0.0000000000000000e+00  -6.6595889875543492e-03 -2.8799317456471915e+01 0.0000000000000000e+00  9.3046517257467584e-03 -2.7935063997895512e+01 0.0000000000000000e+00  1.7521361152994359e-03 -2.6843990746384431e+01 0.0000000000000000e+00  8.3634073663029721e-03 -2.5783578083040140e+01 0.0000000000000000e+00  -3.0001653518245845e-02 -2.4748139761355368e+01 0.0000000000000000e+00  -1.1117669352219282e-02 -2.3580568886094994e+01 0.0000000000000000e+00  1.9459911852139546e-02 -2.2623046764858813e+01 0.0000000000000000e+00  -2.9513287640453998e-02 -2.1452053549134281e+01 0.0000000000000000e+00  1.4834544330467627e-03 -2.0409839343763327e+01 0.0000000000000000e+00  1.1428978261100165e-02 -1.9342754060800321e+01 0.0000000000000000e+00  1.2469247066268089e-02 -1.8163291949180870e+01 0.0000000000000000e+00  -3.5093350840494426e-02 -1.7087542615375003e+01 0.0000000000000000e+00  6.7553372535781014e-03 -1.5891658339179637e+01 0.0000000000000000e+00  7.9643667929278003e-03 -1.4879258202781513e+01 0.0000000000000000e+00  -2.7944325573115394e-02 -1.3660386467260361e+01 0.0000000000000000e+00  -5.7385159261691345e-04 -1.2580716675269883e+01 0.0000000000000000e+00  1.5379652468723293e-02 -1.1415815017812195e+01 0.0000000000000000e+00  -8.7364956825080882e-04 -1.0261594333825583e+01 0.0000000000000000e+00  -1.5149825315560105e-02 -9.1474275823858289e+00 0.0000000000000000e+00  -1.1705814824958919e-02 -7.9598726088664860e+00 0.0000000000000000e+00  2.2613998096822165e-02 -6.9454217701719960e+00 0.0000000000000000e+00  -3.4359914509117934e-02 -5.7150371722334210e+00 0.0000000000000000e+00  8.2459097236589011e-03 -4.5984037332088823e+00 0.0000000000000000e+00  1.8899601020784858e-02 -3.4238364094931559e+00 0.0000000000000000e+00  -2.9507259127471906e-02 -2.2736406323983767e+00 0.0000000000000000e+00  -3.6280296687852605e-02 -1.3161665007055821e+00 0.0000000000000000e+00  1.3697701168891190e+00 3.2894755346550932e-02 0.0000000000000000e+00  2.1978835672382133e+00 8.3967863788811353e-02 0.0000000000000000e+00  3.5374462518878063e+00 6.1429456889943758e-02 0.0000000000000000e+00  4.5211799836612840e+00 -1.8815747912843791e-02 0.0000000000000000e+00  5.7457823867291671e+00 8.8561964527069589e-03 0.0000000000000000e+00  6.8739079979653681e+00 -6.3727791557860076e-03 0.0000000000000000e+00  8.0181181625877826e+00 1.2379456142015983e-03 0.0000000000000000e+00  9.1676271896127943e+00 -1.8962029848933366e-03 0.0000000000000000e+00  1.0309240516400878e+01 5.3531845118464641e-04 0.0000000000000000e+00  1.1476973136543526e+01 -3.6529126354934121e-04 0.0000000000000000e+00  1.2608404654108584e+01 -4.0455461640371076e-05 0.0000000000000000e+00  1.3769695431095412e+01 3.8686922587406495e-03 0.0000000000000000e+00  1.4882383213622409e+01 1.6186847935437748e-03 0.0000000000000000e+00  1.6072657505878730e+01 -7.7922736981836703e-03 0.0000000000000000e+00  1.7190836989253143e+01 3.9355831016537543e-03 0.0000000000000000e+00  1.8374151971393768e+01 3.2741492312140701e-03 0.0000000000000000e+00  1.9483401088939068e+01 -3.3722896433128666e-03 0.0000000000000000e+00  2.0606244022584487e+01 7.7643168367933476e-03 0.0000000000000000e+00  2.1781584515875721e+01 -7.7036023194738340e-03 0.0000000000000000e+00  2.2877768480471822e+01 -5.1662233550441895e-03 0.0000000000000000e+00  2.4027943348882484e+01 1.0594696613028944e-02 0.0000000000000000e+00  2.5155229789899735e+01 -1.1540838334869331e-02 0.0000000000000000e+00  2.6201984916163905e+01 8.2921479047762692e-03 0.0000000000000000e+00  2.7321324936691195e+01 1.8616187205402284e-03 0.0000000000000000e+00  2.8428227173322593e+01 4.9627646823560863e-03 0.0000000000000000e+00  2.9515171871242696e+01 -3.0442149515243393e-03 0.0000000000000000e+00  3.0565282196819453e+01 -2.1573311808884962e-03 0.0000000000000000e+00  3.1588677214832838e+01 -1.6200045498306513e-03 0.0000000000000000e+00  3.2606402508112950e+01 7.3032010865759438e-05 0.0000000000000000e+00  3.3602393200650774e+01 -4.2162182514023203e-04 0.0000000000000000e+00  3.4574427955511247e+01 2.0656718538752825e-04 0.0000000000000000e+00  3.5518485535427835e+01 -2.4249846591345879e-03 0.0000000000000000e+00  3.6423369815927742e+01 -9.8773824974968507e-04 0.0000000000000000e+00  3.7320971732970719e+01 4.6331821163373855e-03 0.0000000000000000e+00  3.8183024738303168e+01 -7.4056348713074328e-03 0.0000000000000000e+00  3.8953749893073713e+01 7.5671944424482935e-03 0.0000000000000000e+00  3.9735266242605690e+01 -8.2737569434464492e-04 0.0000000000000000e+00  4.0457471524744413e+01 8.6864878256537204e-03 0.0000000000000000e+00  4.1126215558059272e+01 1.0968689380400907e-02 0.0000000000000000e+00  4.1794309036883185e+01 -3.3074451829539969e-02 0.0000000000000000e+00  4.2421979164544247e+01 2.4227829884066538e-02 0.0000000000000000e+00  4.2897228719911098e+01 -1.0463721902030111e-02 0.0000000000000000e+00  4.3388439477577265e+01 1.4067544271694804e-03 0.0000000000000000e+00  4.3806146202035251e+01 -3.3147816777325252e-03 0.0000000000000000e+00  4.4144075366476621e+01 7.2332134210921252e-03 0.0000000000000000e+00  4.4438027015132974e+01 -1.2210796838594293e-03 0.0000000000000000e+00  4.4677475065598145e+01 5.7700953260638149e-04 0.0000000000000000e+00  4.4848166802584309e+01 -8.0311792785331415e-04 0.0000000000000000e+00  4.4952685768171534e+01 -3.2327471404911088e-04 0.0000000000000000e+00  4.4988526914578294e+01 7.0935843178763288e-04 0.0000000000000000e+00  4.4961213950388114e+01 6.9862201502874212e-04 0.0000000000000000e+00  4.4871466403289546e+01 -1.7978518046326576e-03 0.0000000000000000e+00  4.4710294502081190e+01 1.9597528257438634e-03 0.0000000000000000e+00  4.4485290374901062e+01 1.5814650690458814e-04 0.0000000000000000e+00  4.4207776431153277e+01 -3.4641700674383595e-03 0.0000000000000000e+00  4.3855167049776547e+01 4.0611394405479766e-03 0.0000000000000000e+00  4.3440145363709050e+01 -1.9196327218419951e-04 0.0000000000000000e+00  4.2978933572013311e+01 -4.7109499855927141e-03 0.0000000000000000e+00  4.2440718126751250e+01 1.0087958077742338e-03 0.0000000000000000e+00  4.1874036537136242e+01 2.4864471652786893e-03 0.0000000000000000e+00  4.1244856660133216e+01 -3.2405086204854144e-03 0.0000000000000000e+00  4.0591099097047241e+01 1.1003525519561918e-04 0.0000000000000000e+00  3.9851101758479700e+01 2.2671499852822681e-03 0.0000000000000000e+00  3.9088496315995165e+01 -2.0876659449940377e-03 0.0000000000000000e+00  3.8300037801387276e+01 7.4926038298631986e-03 0.0000000000000000e+00  3.7425048149211278e+01 -5.5606239542761110e-03 0.0000000000000000e+00  3.6565733628587886e+01 -7.2656861914533735e-03 0.0000000000000000e+00  3.5639687011632653e+01 9.4521953681644469e-03 0.0000000000000000e+00  3.4672373192512630e+01 -2.5567137807274007e-03 0.0000000000000000e+00  3.3709287895336139e+01 -4.8890359217293507e-03 0.0000000000000000e+00  3.2705512697043339e+01 4.1116051327421254e-03 0.0000000000000000e+00  3.1688193975958640e+01 3.7056397500744168e-03 0.0000000000000000e+00  3.0641720529578869e+01 -8.3391503535063742e-04 0.0000000000000000e+00  2.9590421719862690e+01 1.4000769718231389e-05 0.0000000000000000e+00  2.8519323624257297e+01 2.2549566002753822e-03 0.0000000000000000e+00  2.7427954526534535e+01 -1.3453947146300903e-03 0.0000000000000000e+00  2.6352829991236391e+01 -2.1879747000465625e-03 0.0000000000000000e+00  2.5260930576038582e+01 6.7772507882863367e-03 0.0000000000000000e+00  2.4102944447370259e+01 -9.1773813777590463e-03 0.0000000000000000e+00  2.2974735054164647e+01 -9.3317815142355263e-04 0.0000000000000000e+00  2.1843717711343711e+01 -9.8140303253977388e-04 0.0000000000000000e+00  2.0743530486641323e+01 -3.2779397388444840e-04 0.0000000000000000e+00  1.9601908866135961e+01 9.3910576924110256e-03 0.0000000000000000e+00  1.8414229341541315e+01 -8.1803468576150239e-03 0.0000000000000000e+00  1.7265437000006667e+01 -1.0185964960639656e-03 0.0000000000000000e+00  1.6113331342418309e+01 6.1679004406669635e-04 0.0000000000000000e+00  1.4936969947663171e+01 3.9689022294782305e-03 0.0000000000000000e+00  1.3816896359609249e+01 1.7315824067204648e-03 0.0000000000000000e+00  1.2645872148020024e+01 -2.5113521166797762e-03 0.0000000000000000e+00  1.1504916319197475e+01 1.1218577501079499e-03 0.0000000000000000e+00  1.0353021507092024e+01 3.9219257825183589e-03 0.0000000000000000e+00  9.2242706439308488e+00 -1.4347249587250480e-03 0.0000000000000000e+00  8.0491019843254819e+00 -3.5214927986221508e-03 0.0000000000000000e+00  6.8979530869412180e+00 6.6426005079714794e-03 0.0000000000000000e+00  5.7677087145945443e+00 -1.1455747351320565e-02 0.0000000000000000e+00  4.6453986343204132e+00 -4.8414180140343085e-03 0.0000000000000000e+00  3.4846744599761337e+00 1.5854506206515434e-02 0.0000000000000000e+00  2.2871328752473965e+00 3.1060374447103908e-04 0.0000000000000000e+00  1.2429870505622633e+00 -4.1521545874629417e-02 0.0000000000000000e+00  -6.6797294779913155e-02 1.2834760733453672e+00 0.0000000000000000e+00  1.6743852381531196e-02 2.2287980989930927e+00 0.0000000000000000e+00  -2.8310520159659069e-02 3.4326650235386698e+00 0.0000000000000000e+00  -2.2202625523561698e-02 4.4150060569831098e+00 0.0000000000000000e+00  9.6300510857926971e-02 5.7387832799878220e+00 0.0000000000000000e+00  -2.3725413035691367e-02 7.0782557921380818e+00 0.0000000000000000e+00  -6.9050248936918177e-02 7.9149576779698281e+00 0.0000000000000000e+00  -9.7984666009596363e-02 9.2621029935966011e+00 0.0000000000000000e+00  2.7840917045232717e-02 1.0198890901349500e+01 0.0000000000000000e+00  3.0580571945500998e-02 1.1463833507169614e+01 0.0000000000000000e+00  -2.8347883646935038e-02 1.2610937464210227e+01 0.0000000000000000e+00  2.0412673116023107e-02 1.3709408203447699e+01 0.0000000000000000e+00  5.0583530887186407e-03 1.4948799448159306e+01 0.0000000000000000e+00  -4.1143793913588451e-03 1.5923700794961769e+01 0.0000000000000000e+00  -1.3081571404937794e-02 1.7124016219745720e+01 0.0000000000000000e+00  -5.6315757443146774e-03 1.8203707019620250e+01 0.0000000000000000e+00  1.5483350097152118e-02 1.9359398857309291e+01 0.0000000000000000e+00  -5.0465443089583719e-03 2.0503413234702546e+01 0.0000000000000000e+00  -1.1614190847858653e-02 2.1565845057737985e+01 0.0000000000000000e+00  -2.8930000736998671e-03 2.2719206086251663e+01 0.0000000000000000e+00  -1.1328096932780028e-02 2.3624468457301159e+01 0.0000000000000000e+00  2.4758450178943479e-02 2.4820380346186607e+01 0.0000000000000000e+00  -2.0736917280524764e-02 2.5843919838066416e+01 0.0000000000000000e+00  2.4450584752811564e-02 2.6889742015762312e+01 0.0000000000000000e+00  8.1988964201830904e-03 2.7990256065333657e+01 0.0000000000000000e+00  -5.6776226588332590e-02 2.8799056049026969e+01 0.0000000000000000e+00  -4.7350892898500349e-02 2.9984879967735875e+01 0.0000000000000000e+00  9.6489048223051717e-03 3.0777099214693042e+01 0.0000000000000000e+00  -3.0392332790941692e-02 3.1772338855157489e+01 0.0000000000000000e+00  -1.5131783105785453e-02 3.2562328651628142e+01 0.0000000000000000e+00  7.4493750216589535e-02 3.3577562338969557e+01 0.0000000000000000e+00  -2.6172656334252024e-02 3.4570304099238555e+01 0.0000000000000000e+00  -3.9155388467643125e-02 3.5193126396199915e+01 0.0000000000000000e+00  -4.3256835868319715e-02 3.6144459630057163e+01 0.0000000000000000e+00  5.7639240907225581e-03 3.6736132313300999e+01 0.0000000000000000e+00  1.3268054112411869e-02 3.7548971497342151e+01 0.0000000000000000e+00  -5.5031233049731183e-03 3.8250298689789055e+01 0.0000000000000000e+00  -1.6126793530770597e-03 3.8869233287494168e+01 0.0000000000000000e+00  1.1814816929174364e-03 3.9461679223204001e+01 0.0000000000000000e+00  1.3797811877144478e-03 4.0034834034944360e+01 0.0000000000000000e+00  -1.0234206917911838e-02 4.0545412534962104e+01 0.0000000000000000e+00  6.8299364805901586e-04 4.0913232878596894e+01 0.0000000000000000e+00  -5.3319386484919611e-04 4.1368538777885732e+01 0.0000000000000000e+00  4.4175539972934798e-03 4.1732352685700093e+01 0.0000000000000000e+00  -8.0425619318149726e-03 4.2023921810304749e+01 0.0000000000000000e+00  7.8438751632548490e-03 4.2283570791561154e+01 0.0000000000000000e+00  -2.8070528651216956e-03 4.2458462442154207e+01 0.0000000000000000e+00  -6.9666407001459730e-03 4.2607880442434791e+01 0.0000000000000000e+00  1.6244045612459838e-03 4.2685819377121035e+01 0.0000000000000000e+00  1.7360878544995864e-03 4.2716936832385429e+01 0.0000000000000000e+00  7.2152220286441325e-03 4.2677646249453396e+01 0.0000000000000000e+00  -8.1214534500693610e-03 4.2598096273486014e+01 0.0000000000000000e+00  3.7141905600828907e-03 4.2457885559573775e+01 0.0000000000000000e+00  -6.6198668205216440e-03 4.2254430971190502e+01 0.0000000000000000e+00  9.3934702358872222e-03 4.2003367755017941e+01 0.0000000000000000e+00  -8.3330789528318645e-03 4.1672795942383019e+01 0.0000000000000000e+00  1.8322054798563185e-02 4.1372973427101286e+01 0.0000000000000000e+00  2.1052384658079046e-02 4.0877910111543677e+01 0.0000000000000000e+00  1.2228894305558836e-02 4.0521683836121930e+01 0.0000000000000000e+00  4.3251480571402490e-02 3.9935607077392447e+01 0.0000000000000000e+00  -2.1035416198518536e-02 3.9489489582704088e+01 0.0000000000000000e+00  -7.4528992109347816e-03 3.8821624017243494e+01 0.0000000000000000e+00  8.4327416919037518e-03 3.8148522245177723e+01 0.0000000000000000e+00  -1.8948670251011778e-03 3.7489849040339486e+01 0.0000000000000000e+00  -6.4227739686330244e-04 3.6773360065055954e+01 0.0000000000000000e+00  -2.7741474676049194e-03 3.5998172259689234e+01 0.0000000000000000e+00  3.2493137237813254e-03 3.5214902675154242e+01 0.0000000000000000e+00  -1.5940222337996243e-02 3.4379225423588018e+01 0.0000000000000000e+00  2.9454746594593351e-02 3.3520949704988617e+01 0.0000000000000000e+00  -2.0792526916318648e-02 3.2562266870696874e+01 0.0000000000000000e+00  2.3140749634177258e-02 3.1772699035553686e+01 0.0000000000000000e+00  6.0757079592105223e-03 3.0837119494981224e+01 0.0000000000000000e+00  -2.5204025263216495e-02 2.9828327829235690e+01 0.0000000000000000e+00  1.6634032684465169e-02 2.8830484253962410e+01 0.0000000000000000e+00  -2.0926533125665593e-02 2.7841125599257044e+01 0.0000000000000000e+00  1.0274852026885052e-02 2.6764898632738564e+01 0.0000000000000000e+00  -4.4517369603230281e-03 2.5718225227343332e+01 0.0000000000000000e+00  4.3489854416617686e-02 2.4845152418650262e+01 0.0