<?xml version="1.0"?>
<VTKFile type="UnstructuredGrid"  version="0.1"  >
<UnstructuredGrid>
<Piece  NumberOfPoints="11902" NumberOfCells="23402">
<Points>
<DataArray  type="Float64"  NumberOfComponents="3"  format="ascii">-5 -5 0  5 -5 0  5 5 0  -5 5 0  2.0910821466012 -0.005302142881493272 0  -4.9 -5 0  -4.8 -5 0  -4.7 -5 0  -4.6 -5 0  -4.5 -5 0  -4.4 -5 0  -4.3 -5 0  -4.2 -5 0  -4.1 -5 0  -4 -5 0  -3.9 -5 0  -3.8 -5 0  -3.7 -5 0  -3.6 -5 0  -3.5 -5 0  -3.4 -5 0  -3.3 -5 0  -3.2 -5 0  -3.1 -5 0  -3 -5 0  -2.9 -5 0  -2.8 -5 0  -2.7 -5 0  -2.6 -5 0  -2.5 -5 0  -2.4 -5 0  -2.3 -5 0  -2.2 -5 0  -2.1 -5 0  -2 -5 0  -1.9 -5 0  -1.8 -5 0  -1.7 -5 0  -1.6 -5 0  -1.5 -5 0  -1.4 -5 0  -1.3 -5 0  -1.2 -5 0  -1.1 -5 0  -1 -5 0  -0.9000000000000004 -5 0  -0.7999999999999998 -5 0  -0.7000000000000002 -5 0  -0.5999999999999996 -5 0  -0.5 -5 0  -0.4000000000000004 -5 0  -0.2999999999999998 -5 0  -0.2000000000000002 -5 0  -0.09999999999999964 -5 0  0 -5 0  0.09999999999999964 -5 0  0.2000000000000002 -5 0  0.2999999999999998 -5 0  0.4000000000000004 -5 0  0.5 -5 0  0.5999999999999996 -5 0  0.7000000000000002 -5 0  0.7999999999999998 -5 0  0.9000000000000004 -5 0  1 -5 0  1.1 -5 0  1.2 -5 0  1.3 -5 0  1.4 -5 0  1.5 -5 0  1.6 -5 0  1.7 -5 0  1.8 -5 0  1.9 -5 0  2 -5 0  2.1 -5 0  2.2 -5 0  2.3 -5 0  2.4 -5 0  2.5 -5 0  2.6 -5 0  2.7 -5 0  2.8 -5 0  2.9 -5 0  3 -5 0  3.1 -5 0  3.199999999999999 -5 0  3.300000000000001 -5 0  3.4 -5 0  3.5 -5 0  3.6 -5 0  3.699999999999999 -5 0  3.800000000000001 -5 0  3.9 -5 0  4 -5 0  4.1 -5 0  4.199999999999999 -5 0  4.300000000000001 -5 0  4.4 -5 0  4.5 -5 0  4.6 -5 0  4.699999999999999 -5 0  4.800000000000001 -5 0  4.9 -5 0  5 -4.9 0  5 -4.8 0  5 -4.7 0  5 -4.6 0  5 -4.5 0  5 -4.4 0  5 -4.3 0  5 -4.2 0  5 -4.1 0  5 -4 0  5 -3.9 0  5 -3.8 0  5 -3.7 0  5 -3.6 0  5 -3.5 0  5 -3.4 0  5 -3.3 0  5 -3.2 0  5 -3.1 0  5 -3 0  5 -2.9 0  5 -2.8 0  5 -2.7 0  5 -2.6 0  5 -2.5 0  5 -2.4 0  5 -2.3 0  5 -2.2 0  5 -2.1 0  5 -2 0  5 -1.9 0  5 -1.8 0  5 -1.7 0  5 -1.6 0  5 -1.5 0  5 -1.4 0  5 -1.3 0  5 -1.2 0  5 -1.1 0  5 -1 0  5 -0.9000000000000004 0  5 -0.7999999999999998 0  5 -0.7000000000000002 0  5 -0.5999999999999996 0  5 -0.5 0  5 -0.4000000000000004 0  5 -0.2999999999999998 0  5 -0.2000000000000002 0  5 -0.09999999999999964 0  5 0 0  5 0.09999999999999964 0  5 0.2000000000000002 0  5 0.2999999999999998 0  5 0.4000000000000004 0  5 0.5 0  5 0.5999999999999996 0  5 0.7000000000000002 0  5 0.7999999999999998 0  5 0.9000000000000004 0  5 1 0  5 1.1 0  5 1.2 0  5 1.3 0  5 1.4 0  5 1.5 0  5 1.6 0  5 1.7 0  5 1.8 0  5 1.9 0  5 2 0  5 2.1 0  5 2.2 0  5 2.3 0  5 2.4 0  5 2.5 0  5 2.6 0  5 2.7 0  5 2.8 0  5 2.9 0  5 3 0  5 3.1 0  5 3.199999999999999 0  5 3.300000000000001 0  5 3.4 0  5 3.5 0  5 3.6 0  5 3.699999999999999 0  5 3.800000000000001 0  5 3.9 0  5 4 0  5 4.1 0  5 4.199999999999999 0  5 4.300000000000001 0  5 4.4 0  5 4.5 0  5 4.6 0  5 4.699999999999999 0  5 4.800000000000001 0  5 4.9 0  4.9 5 0  4.8 5 0  4.7 5 0  4.6 5 0  4.5 5 0  4.4 5 0  4.3 5 0  4.2 5 0  4.1 5 0  4 5 0  3.9 5 0  3.8 5 0  3.7 5 0  3.6 5 0  3.5 5 0  3.4 5 0  3.3 5 0  3.2 5 0  3.1 5 0  3 5 0  2.9 5 0  2.8 5 0  2.7 5 0  2.6 5 0  2.5 5 0  2.4 5 0  2.3 5 0  2.2 5 0  2.1 5 0  2 5 0  1.9 5 0  1.8 5 0  1.7 5 0  1.6 5 0  1.5 5 0  1.4 5 0  1.3 5 0  1.2 5 0  1.1 5 0  1 5 0  0.9000000000000004 5 0  0.7999999999999998 5 0  0.7000000000000002 5 0  0.5999999999999996 5 0  0.5 5 0  0.4000000000000004 5 0  0.2999999999999998 5 0  0.2000000000000002 5 0  0.09999999999999964 5 0  0 5 0  -0.09999999999999964 5 0  -0.2000000000000002 5 0  -0.2999999999999998 5 0  -0.4000000000000004 5 0  -0.5 5 0  -0.5999999999999996 5 0  -0.7000000000000002 5 0  -0.7999999999999998 5 0  -0.9000000000000004 5 0  -1 5 0  -1.1 5 0  -1.2 5 0  -1.3 5 0  -1.4 5 0  -1.5 5 0  -1.6 5 0  -1.7 5 0  -1.8 5 0  -1.9 5 0  -2 5 0  -2.1 5 0  -2.2 5 0  -2.3 5 0  -2.4 5 0  -2.5 5 0  -2.6 5 0  -2.7 5 0  -2.8 5 0  -2.9 5 0  -3 5 0  -3.1 5 0  -3.199999999999999 5 0  -3.300000000000001 5 0  -3.4 5 0  -3.5 5 0  -3.6 5 0  -3.699999999999999 5 0  -3.800000000000001 5 0  -3.9 5 0  -4 5 0  -4.1 5 0  -4.199999999999999 5 0  -4.300000000000001 5 0  -4.4 5 0  -4.5 5 0  -4.6 5 0  -4.699999999999999 5 0  -4.800000000000001 5 0  -4.9 5 0  -5 4.9 0  -5 4.8 0  -5 4.7 0  -5 4.6 0  -5 4.5 0  -5 4.4 0  -5 4.3 0  -5 4.2 0  -5 4.1 0  -5 4 0  -5 3.9 0  -5 3.8 0  -5 3.7 0  -5 3.6 0  -5 3.5 0  -5 3.4 0  -5 3.3 0  -5 3.2 0  -5 3.1 0  -5 3 0  -5 2.9 0  -5 2.8 0  -5 2.7 0  -5 2.6 0  -5 2.5 0  -5 2.4 0  -5 2.3 0  -5 2.2 0  -5 2.1 0  -5 2 0  -5 1.9 0  -5 1.8 0  -5 1.7 0  -5 1.6 0  -5 1.5 0  -5 1.4 0  -5 1.3 0  -5 1.2 0  -5 1.1 0  -5 1 0  -5 0.9000000000000004 0  -5 0.7999999999999998 0  -5 0.7000000000000002 0  -5 0.5999999999999996 0  -5 0.5 0  -5 0.4000000000000004 0  -5 0.2999999999999998 0  -5 0.2000000000000002 0  -5 0.09999999999999964 0  -5 0 0  -5 -0.09999999999999964 0  -5 -0.2000000000000002 0  -5 -0.2999999999999998 0  -5 -0.4000000000000004 0  -5 -0.5 0  -5 -0.5999999999999996 0  -5 -0.7000000000000002 0  -5 -0.7999999999999998 0  -5 -0.9000000000000004 0  -5 -1 0  -5 -1.1 0  -5 -1.2 0  -5 -1.3 0  -5 -1.4 0  -5 -1.5 0  -5 -1.6 0  -5 -1.7 0  -5 -1.8 0  -5 -1.9 0  -5 -2 0  -5 -2.1 0  -5 -2.2 0  -5 -2.3 0  -5 -2.4 0  -5 -2.5 0  -5 -2.6 0  -5 -2.7 0  -5 -2.8 0  -5 -2.9 0  -5 -3 0  -5 -3.1 0  -5 -3.199999999999999 0  -5 -3.300000000000001 0  -5 -3.4 0  -5 -3.5 0  -5 -3.6 0  -5 -3.699999999999999 0  -5 -3.800000000000001 0  -5 -3.9 0  -5 -4 0  -5 -4.1 0  -5 -4.199999999999999 0  -5 -4.300000000000001 0  -5 -4.4 0  -5 -4.5 0  -5 -4.6 0  -5 -4.699999999999999 0  -5 -4.800000000000001 0  -5 -4.9 0  2.114536637908258 0.2140451439146941 0  2.043499322287813 0.3993750084165592 0  2.028810884007991 0.6258449472153087 0  1.8449911971019 0.7835477665600625 0  1.721528420658971 0.951221628372305 0  1.577268617393139 1.074365094102773 0  1.446590830283168 1.204207040917651 0  1.260180559032858 1.264624670778987 0  1.109116944017762 1.381191187394365 0  0.9538237216912999 1.465397770168697 0  0.7862637209024311 1.506477603851954 0  0.635589425464518 1.54725015920043 0  0.4536597739452249 1.60840383786399 0  0.2950762454002112 1.634714045098648 0  0.1332797909904754 1.672389438419721 0  -0.02064595558838359 1.664536492518558 0  -0.2286273119717058 1.633314124987596 0  -0.389982789952089 1.629631296258675 0  -0.5392728369129915 1.583904258721437 0  -0.702337919666411 1.525652216654044 0  -0.8743751977286756 1.484811941664968 0  -1.023909736154733 1.402387519364414 0  -1.19161375178029 1.326258455502269 0  -1.371242130895222 1.270569962536476 0  -1.463969181908831 1.114539144393597 0  -1.654962635706981 1.000902815190969 0  -1.805817024680364 0.8681430077949477 0  -1.894945413048043 0.7064185277882943 0  -2.007359151212333 0.5227997326612748 0  -2.0806698634524 0.3051446319814711 0  -2.104668557403271 0.1073968138982117 0  -2.071284098325771 -0.1160811428955981 0  -2.127168180558478 -0.3301970483226379 0  -1.988722299423737 -0.5068018148043985 0  -1.882545618127731 -0.6956472615205065 0  -1.801961368679434 -0.8602378692376832 0  -1.616657491769209 -0.9944519980014792 0  -1.501675551175581 -1.135854643367607 0  -1.360449396001574 -1.243200274975275 0  -1.192098337071293 -1.320186430044229 0  -1.034976541265638 -1.41594136814135 0  -0.8693676625303042 -1.495845740316494 0  -0.7069502091559434 -1.549215916003782 0  -0.5343783000599855 -1.585830187679211 0  -0.3799825025662152 -1.639597559180496 0  -0.2128358463837822 -1.641627859224839 0  -0.04927268561131203 -1.661354423902973 0  0.138968774040523 -1.658071942745841 0  0.2912871943385461 -1.650190369926277 0  0.4666145819360046 -1.617832089498432 0  0.6200302836824795 -1.570129850102764 0  0.7906031701146522 -1.505424793070824 0  0.9579581042674945 -1.473803224041643 0  1.133684413390103 -1.383685352331842 0  1.285690064496404 -1.309562381617901 0  1.429434126307653 -1.197600919177176 0  1.5803716199319 -1.069795167404274 0  1.739464110642067 -0.9309773000168757 0  1.851170246486872 -0.7904239137874405 0  1.96111843795004 -0.6017861636229954 0  2.059033687513229 -0.4147569462950234 0  2.092592304152363 -0.216648980186576 0  -2.449730836597152 4.920135172359085 0  -2.449709482914828 -4.912711290094201 0  4.911909878032464 2.44889575474398 0  4.919912276190368 -2.450220471891752 0  2.447620309951012 -4.898313416164728 0  2.441983800376857 4.902041253926571 0  -4.911939058260852 -2.448905755108808 0  -4.911966936546599 2.448908705935733 0  -1.749854526048149 4.914002529926736 0  -1.745576585186344 -4.917322369393888 0  4.922033059906593 1.744697517548791 0  4.910771197338045 -1.748647316773591 0  -4.911060237946742 -1.748335593613997 0  -4.911895925553096 1.748072590944016 0  1.747188890636612 4.908067918547568 0  1.748777193564739 -4.896601436062477 0  -1.149969954844182 4.912534728351593 0  -1.130713724453244 -4.920120809512076 0  -4.910670871522109 -1.148342324029609 0  -4.91050990095775 1.148138186605882 0  1.144893487627374 -4.916461612006936 0  1.149971764920294 4.912525689163305 0  4.910815115467517 1.146625180133731 0  4.921469477587071 -1.152275681089312 0  -0.5472810794121069 -4.914129760922934 0  -0.5470016689993802 4.922443163230812 0  -4.909192576366086 -0.5488574984182124 0  -4.909227127813141 0.547400618016616 0  4.908494229557877 -0.5491794321402473 0  4.920002291326746 0.5458756613307351 0  0.5431372647806089 -4.90161019542806 0  0.5517487763147948 4.919410542741892 0  -4.913084363891456 -3.049218108196261 0  4.919578961686894 3.047154724645568 0  4.912608488378734 -3.049215617872794 0  -4.913944244856164 3.046293905309208 0  3.056263470398144 -4.918890819727846 0  -3.04963602727868 -4.912845455238442 0  3.053184198317453 4.914947744516788 0  -3.049107227732096 4.913785024837232 0  -4.908202949473653 -0.04992415387936597 0  0.04516350781062384 -4.916141778721388 0  0.04961440547733298 4.922856750113469 0  4.915159669525036 -0.05130451052175895 0  3.546317679629554 -4.920044916767623 0  -3.549663912616889 4.913062599478767 0  -3.549642755068005 -4.913076041643959 0  
[...]
<PointData  Vectors="f_2312"> 
<DataArray  type="Float64"  Name="f_2312"  NumberOfComponents="3" format="ascii">-1.5693965926380632e-01 -1.8313566502352666e-01 0.0000000000000000e+00  1.7191540538715688e-01 -1.4544530688445273e-01 0.0000000000000000e+00  1.0001621340379088e-01 1.1682729503818731e-01 0.0000000000000000e+00  -1.6555826563467599e-01 1.8904126279416725e-01 0.0000000000000000e+00  -8.4926558725547241e-01 -1.4735321446553804e+00 0.0000000000000000e+00  6.0463842986479707e-02 -1.3867027660681208e+00 0.0000000000000000e+00  5.0767452676252024e-02 -2.2513667185331605e+00 0.0000000000000000e+00  5.3978262275103397e-02 -3.7162964805103038e+00 0.0000000000000000e+00  4.1124521976510502e-02 -4.5943299846504653e+00 0.0000000000000000e+00  -1.0076787714963058e-01 -5.9698085542272992e+00 0.0000000000000000e+00  2.0581163337131655e-02 -7.3342751464819393e+00 0.0000000000000000e+00  3.5850214829011587e-02 -8.3637321828781381e+00 0.0000000000000000e+00  -1.6537953330092687e-02 -9.6221752631293658e+00 0.0000000000000000e+00  6.2470568783822344e-02 -1.0605324126549487e+01 0.0000000000000000e+00  6.3999219848639419e-02 -1.2039686274079081e+01 0.0000000000000000e+00  -9.9439423250078027e-03 -1.2999336814418857e+01 0.0000000000000000e+00  -1.7306616193091231e-02 -1.4260628867719783e+01 0.0000000000000000e+00  7.8264446364451276e-03 -1.5490210625911265e+01 0.0000000000000000e+00  5.3567991164115104e-03 -1.6652838427930746e+01 0.0000000000000000e+00  -6.5252195300040160e-03 -1.7836272967492828e+01 0.0000000000000000e+00  4.2878107596879727e-03 -1.9069581750650407e+01 0.0000000000000000e+00  2.5500933740797156e-02 -2.0261992072040215e+01 0.0000000000000000e+00  -3.7539381771792006e-03 -2.1209916953299128e+01 0.0000000000000000e+00  -8.2818306139953671e-03 -2.2519584488213550e+01 0.0000000000000000e+00  -3.2530968725832506e-02 -2.3831701354685009e+01 0.0000000000000000e+00  8.5466146134535778e-02 -2.4757043382819607e+01 0.0000000000000000e+00  3.8644867562388649e-02 -2.6097999868071582e+01 0.0000000000000000e+00  4.5924099914427051e-02 -2.6970296133512093e+01 0.0000000000000000e+00  7.6732432556821661e-02 -2.8261689684039901e+01 0.0000000000000000e+00  -3.6166110055849486e-02 -2.9169432977783750e+01 0.0000000000000000e+00  -1.2229021135883688e-02 -3.0415960683576547e+01 0.0000000000000000e+00  -4.3591036316565895e-03 -3.1581172111512988e+01 0.0000000000000000e+00  5.6734573120676965e-02 -3.2405943617302334e+01 0.0000000000000000e+00  4.1258456537334155e-02 -3.3663072213143131e+01 0.0000000000000000e+00  4.1279107289247538e-02 -3.4409275950424600e+01 0.0000000000000000e+00  -9.3181737880351084e-02 -3.5549176607369873e+01 0.0000000000000000e+00  4.0393630640209365e-02 -3.6623029539611707e+01 0.0000000000000000e+00  6.3989738345113277e-03 -3.7401975329331108e+01 0.0000000000000000e+00  -1.3291890945965883e-03 -3.8277923655215091e+01 0.0000000000000000e+00  -1.5507106087455827e-03 -3.9119901522586751e+01 0.0000000000000000e+00  7.1535890788481660e-03 -3.9925199323047245e+01 0.0000000000000000e+00  -4.1085514921316332e-02 -4.0762164191301139e+01 0.0000000000000000e+00  5.0180857724542782e-02 -4.1395602224582085e+01 0.0000000000000000e+00  2.6817851432921022e-02 -4.2052683910345657e+01 0.0000000000000000e+00  2.0618517771499513e-02 -4.2726391431147668e+01 0.0000000000000000e+00  -1.1680070596426803e-02 -4.3310295094770083e+01 0.0000000000000000e+00  4.8902849274409022e-02 -4.3709032780267982e+01 0.0000000000000000e+00  -3.6102161727557439e-02 -4.4252728651153468e+01 0.0000000000000000e+00  2.0097282682680202e-02 -4.4701926756464644e+01 0.0000000000000000e+00  -4.3042859145498947e-03 -4.4979587395965893e+01 0.0000000000000000e+00  1.4695989695917761e-03 -4.5274049823582374e+01 0.0000000000000000e+00  -1.0327258848176410e-03 -4.5494472808781040e+01 0.0000000000000000e+00  4.8655888787208065e-04 -4.5653392165164917e+01 0.0000000000000000e+00  2.4467677647159057e-04 -4.5748814057105520e+01 0.0000000000000000e+00  2.1588125510377354e-03 -4.5781275464904056e+01 0.0000000000000000e+00  8.9955807868573139e-04 -4.5762420229808846e+01 0.0000000000000000e+00  8.9987072507123136e-03 -4.5659018103543644e+01 0.0000000000000000e+00  -1.2733639700548709e-02 -4.5466127812414292e+01 0.0000000000000000e+00  -6.0104563847149838e-03 -4.5297965204056524e+01 0.0000000000000000e+00  -2.4450308050346897e-02 -4.4954075470095482e+01 0.0000000000000000e+00  7.9543256122204514e-03 -4.4673630720065731e+01 0.0000000000000000e+00  6.8861597671187767e-03 -4.4250781385599112e+01 0.0000000000000000e+00  -5.0246370590888026e-03 -4.3771056227070773e+01 0.0000000000000000e+00  -1.0040680469684130e-03 -4.3270088412268045e+01 0.0000000000000000e+00  6.0944206701706444e-03 -4.2694168629814008e+01 0.0000000000000000e+00  -1.3542999183981667e-02 -4.2071054489812262e+01 0.0000000000000000e+00  -8.7341071982241242e-03 -4.1377531723403223e+01 0.0000000000000000e+00  9.5255412220548435e-03 -4.0752525154088076e+01 0.0000000000000000e+00  -2.2540732674465824e-02 -3.9922823551434398e+01 0.0000000000000000e+00  2.5917916370348938e-02 -3.9111291489767304e+01 0.0000000000000000e+00  -3.2646596056273201e-02 -3.8277139091916709e+01 0.0000000000000000e+00  6.0023657514507609e-03 -3.7351609881508907e+01 0.0000000000000000e+00  1.6123747290219020e-02 -3.6516470952850582e+01 0.0000000000000000e+00  -2.3584073321014903e-02 -3.5530728566027150e+01 0.0000000000000000e+00  1.6628455490135668e-02 -3.4531785192860937e+01 0.0000000000000000e+00  -1.2323746654581072e-02 -3.3523373506118567e+01 0.0000000000000000e+00  5.3743280404499995e-03 -3.2513825331742119e+01 0.0000000000000000e+00  -2.2120699483055416e-02 -3.1477600809838549e+01 0.0000000000000000e+00  -7.1522119034205670e-03 -3.0352973408437286e+01 0.0000000000000000e+00  1.0047200711964573e-02 -2.9418389035240647e+01 0.0000000000000000e+00  1.8082432027748873e-03 -2.8241159868865459e+01 0.0000000000000000e+00  9.0263569094567401e-03 -2.7100627697845145e+01 0.0000000000000000e+00  -3.2127758987806031e-02 -2.5989596444363169e+01 0.0000000000000000e+00  -1.1445706697216522e-02 -2.4740131568878144e+01 0.0000000000000000e+00  2.0455573427875275e-02 -2.3718025142930948e+01 0.0000000000000000e+00  -3.1407698648386072e-02 -2.2470544208089414e+01 0.0000000000000000e+00  1.6612675478914726e-03 -2.1363064446809176e+01 0.0000000000000000e+00  1.2037735122555630e-02 -2.0231796303626187e+01 0.0000000000000000e+00  1.3199746853662981e-02 -1.8983896975379789e+01 0.0000000000000000e+00  -3.6977364647541949e-02 -1.7847875332174528e+01 0.0000000000000000e+00  7.5485613634367144e-03 -1.6587324374394175e+01 0.0000000000000000e+00  7.9503886044022965e-03 -1.5522237250066496e+01 0.0000000000000000e+00  -2.9288577717364175e-02 -1.4242332563312029e+01 0.0000000000000000e+00  -6.0443989861572634e-04 -1.3110126347603499e+01 0.0000000000000000e+00  1.6068841113887077e-02 -1.1890695926881060e+01 0.0000000000000000e+00  -8.9307586091559924e-04 -1.0683825879659878e+01 0.0000000000000000e+00  -1.5854776236395533e-02 -9.5201366562542340e+00 0.0000000000000000e+00  -1.1970224686656676e-02 -8.2811462006527368e+00 0.0000000000000000e+00  2.3295354617970474e-02 -7.2237587724746017e+00 0.0000000000000000e+00  -3.5752942435440395e-02 -5.9425954322622854e+00 0.0000000000000000e+00  8.5635639565874340e-03 -4.7804472815960519e+00 0.0000000000000000e+00  1.9556227586233155e-02 -3.5589264418432278e+00 0.0000000000000000e+00  -3.0673023412261649e-02 -2.3630947609762658e+00 0.0000000000000000e+00  -3.7782215819547632e-02 -1.3677666047065917e+00 0.0000000000000000e+00  1.4233987011896627e+00 3.4216656799598434e-02 0.0000000000000000e+00  2.2839810143709554e+00 8.7165792807794198e-02 0.0000000000000000e+00  3.6752935658567298e+00 6.3810969951348454e-02 0.0000000000000000e+00  4.6968834415996925e+00 -1.9487526077155082e-02 0.0000000000000000e+00  5.9676953496986069e+00 9.1952064071099803e-03 0.0000000000000000e+00  7.1376102004973596e+00 -6.5896901983954473e-03 0.0000000000000000e+00  8.3232395421371521e+00 1.3126457857057870e-03 0.0000000000000000e+00  9.5132231493172057e+00 -1.9262898923390612e-03 0.0000000000000000e+00  1.0693740857445723e+01 5.8285412035640524e-04 0.0000000000000000e+00  1.1899746178328526e+01 -3.4929842070468648e-04 0.0000000000000000e+00  1.3066635798245141e+01 -3.5159555095946998e-05 0.0000000000000000e+00  1.4262454139213425e+01 4.0789005989793365e-03 0.0000000000000000e+00  1.5406322891986990e+01 1.6584009567956763e-03 0.0000000000000000e+00  1.6627668618677834e+01 -7.9044947509918258e-03 0.0000000000000000e+00  1.7772824448822391e+01 4.0253066739883566e-03 0.0000000000000000e+00  1.8982080432620318e+01 3.3960283760617774e-03 0.0000000000000000e+00  2.0113028214701842e+01 -3.3394159448923064e-03 0.0000000000000000e+00  2.1255058792187256e+01 7.8725904621937508e-03 0.0000000000000000e+00  2.2447382787284386e+01 -7.7042498838144104e-03 0.0000000000000000e+00  2.3556573850248181e+01 -5.1751442934272109e-03 0.0000000000000000e+00  2.4717016311379638e+01 1.0666133647677814e-02 0.0000000000000000e+00  2.5850893409992768e+01 -1.1404008250025374e-02 0.0000000000000000e+00  2.6900700698034807e+01 8.2324457672075853e-03 0.0000000000000000e+00  2.8019481405572183e+01 2.0145338115376346e-03 0.0000000000000000e+00  2.9121765876148292e+01 4.8959669621024037e-03 0.0000000000000000e+00  3.0200304217408931e+01 -2.9618140071076475e-03 0.0000000000000000e+00  3.1238652390331431e+01 -2.0915548237062571e-03 0.0000000000000000e+00  3.2246997489622537e+01 -1.5309434223842980e-03 0.0000000000000000e+00  3.3245986799419605e+01 1.4041228850825168e-04 0.0000000000000000e+00  3.4219857347887043e+01 -3.5352283895876010e-04 0.0000000000000000e+00  3.5166559509873203e+01 2.5530458365401334e-04 0.0000000000000000e+00  3.6082510246405391e+01 -2.2607865126401203e-03 0.0000000000000000e+00  3.6957076772077222e+01 -8.8977773843816827e-04 0.0000000000000000e+00  3.7821043781389420e+01 4.3415456437426621e-03 0.0000000000000000e+00  3.8647465144355948e+01 -6.8171321880609505e-03 0.0000000000000000e+00  3.9383547894245517e+01 6.9625755532922249e-03 0.0000000000000000e+00  4.0127155263921672e+01 -5.7859107256514762e-04 0.0000000000000000e+00  4.0811607598490269e+01 7.9107734946590371e-03 0.0000000000000000e+00  4.1442642862105600e+01 1.0128881753587516e-02 0.0000000000000000e+00  4.2071320502425749e+01 -3.0308253804245455e-02 0.0000000000000000e+00  4.2659725678622145e+01 2.2085724182996799e-02 0.0000000000000000e+00  4.3104135225244733e+01 -9.5596156311485870e-03 0.0000000000000000e+00  4.3561936735366281e+01 1.3358330389658967e-03 0.0000000000000000e+00  4.3950313549674192e+01 -3.0135271644437071e-03 0.0000000000000000e+00  4.4263882828700616e+01 6.4337507594532349e-03 0.0000000000000000e+00  4.4536051386365131e+01 -1.0898229958831308e-03 0.0000000000000000e+00  4.4757119694084587e+01 4.8679952502151590e-04 0.0000000000000000e+00  4.4914361194266014e+01 -7.0825420888092001e-04 0.0000000000000000e+00  4.5010316342565218e+01 -2.8182077131017237e-04 0.0000000000000000e+00  4.5042937398943430e+01 5.9961816824903754e-04 0.0000000000000000e+00  4.5017176581645167e+01 6.4506261957257267e-04 0.0000000000000000e+00  4.4933761162486256e+01 -1.6187865470698999e-03 0.0000000000000000e+00  4.4784362890837478e+01 1.7578126257739848e-03 0.0000000000000000e+00  4.4575672014618341e+01 1.7366224438397279e-04 0.0000000000000000e+00  4.4318124012821819e+01 -3.1205815504066598e-03 0.0000000000000000e+00  4.3990535862220334e+01 3.6517094438120183e-03 0.0000000000000000e+00  4.3604154796251123e+01 -1.0196538466145210e-04 0.0000000000000000e+00  4.3173964272848160e+01 -4.3418285041117019e-03 0.0000000000000000e+00  4.2670489922628079e+01 9.8717777776166247e-04 0.0000000000000000e+00  4.2138783955343463e+01 2.2184130638850893e-03 0.0000000000000000e+00  4.1546688662582021e+01 -2.9038737595585202e-03 0.0000000000000000e+00  4.0929722149091653e+01 4.6033961722868807e-05 0.0000000000000000e+00  4.0229037420410513e+01 2.0564497599056077e-03 0.0000000000000000e+00  3.9504204653154538e+01 -1.8874507172928208e-03 0.0000000000000000e+00  3.8752191122629156e+01 6.9070898312603270e-03 0.0000000000000000e+00  3.7914872333527853e+01 -5.1390780807108920e-03 0.0000000000000000e+00  3.7089179579167890e+01 -6.9923082476311717e-03 0.0000000000000000e+00  3.6195905793060767e+01 8.9214653950236283e-03 0.0000000000000000e+00  3.5258991596137790e+01 -2.4754786094965068e-03 0.0000000000000000e+00  3.4322205138530535e+01 -4.6676714332815339e-03 0.0000000000000000e+00  3.3341949579169800e+01 3.8862285075131242e-03 0.0000000000000000e+00  3.2345032955122825e+01 3.4877372178852913e-03 0.0000000000000000e+00  3.1315601634664908e+01 -8.5575437793939887e-04 0.0000000000000000e+00  3.0277278166641068e+01 -5.7829052544935455e-05 0.0000000000000000e+00  2.9215552221362049e+01 2.1292943991398339e-03 0.0000000000000000e+00  2.8130150175231375e+01 -1.3843158053018256e-03 0.0000000000000000e+00  2.7056956176197172e+01 -2.2529732500113442e-03 0.0000000000000000e+00  2.5963504086342400e+01 6.7046563780528970e-03 0.0000000000000000e+00  2.4800340675187055e+01 -9.2048811671241008e-03 0.0000000000000000e+00  2.3663203209102083e+01 -1.0126107203910972e-03 0.0000000000000000e+00  2.2519749824944913e+01 -1.0517685105966323e-03 0.0000000000000000e+00  2.1404470589609645e+01 -4.0686776877685814e-04 0.0000000000000000e+00  2.0244067075395801e+01 9.5084492847642907e-03 0.0000000000000000e+00  1.9033789654489524e+01 -8.3245453689363372e-03 0.0000000000000000e+00  1.7860123886160729e+01 -1.1207843965885974e-03 0.0000000000000000e+00  1.6680386820005634e+01 5.5635209145280494e-04 0.0000000000000000e+00  1.5473244910541025e+01 4.0312806763479038e-03 0.0000000000000000e+00  1.4321597763578165e+01 1.7425715526237047e-03 0.0000000000000000e+00  1.3115442436806925e+01 -2.6169185780900764e-03 0.0000000000000000e+00  1.1938315565354563e+01 1.1139136284941339e-03 0.0000000000000000e+00  1.0748117185056099e+01 4.0373648577808228e-03 0.0000000000000000e+00  9.5802769751714134e+00 -1.4907820815023528e-03 0.0000000000000000e+00  8.3629900928341492e+00 -3.6712168059308777e-03 0.0000000000000000e+00  7.1693059735572717e+00 6.8612957393633569e-03 0.0000000000000000e+00  5.9962415173553438e+00 -1.1901682650719640e-02 0.0000000000000000e+00  4.8305264381823481e+00 -5.0551120448772482e-03 0.0000000000000000e+00  3.6241786989388793e+00 1.6472425932413208e-02 0.0000000000000000e+00  2.3790073745550582e+00 3.1635368396367992e-04 0.0000000000000000e+00  1.2929612504879080e+00 -4.3219210786764058e-02 0.0000000000000000e+00  -6.9560626118567254e-02 1.3351339278297678e+00 0.0000000000000000e+00  1.7402165866645627e-02 2.3187797805627817e+00 0.0000000000000000e+00  -2.9449460758986971e-02 3.5717445049782723e+00 0.0000000000000000e+00  -2.3125057549733041e-02 4.5945085305041244e+00 0.0000000000000000e+00  1.0041468526803775e-01 5.9737333653644509e+00 0.0000000000000000e+00  -2.4998819297272261e-02 7.3702764244582308e+00 0.0000000000000000e+00  -7.1704613556266422e-02 8.2435510961054703e+00 0.0000000000000000e+00  -1.0272347736886317e-01 9.6504202816205460e+00 0.0000000000000000e+00  2.9307714044934832e-02 1.0630743231114728e+01 0.0000000000000000e+00  3.1989357296716321e-02 1.1955315116149112e+01 0.0000000000000000e+00  -2.9694266136704079e-02 1.3158411790254286e+01 0.0000000000000000e+00  2.1345258124208875e-02 1.4312381158108396e+01 0.0000000000000000e+00  5.0469590028078774e-03 1.5616744401519018e+01 0.0000000000000000e+00  -3.9946033319301208e-03 1.6644728339030699e+01 0.0000000000000000e+00  -1.3781911646755218e-02 1.7912968777865039e+01 0.0000000000000000e+00  -5.8695392603284402e-03 1.9056180730681074e+01 0.0000000000000000e+00  1.6448945380028539e-02 2.0282708948419543e+01 0.0000000000000000e+00  -5.3679810788229984e-03 2.1499572912403980e+01 0.0000000000000000e+00  -1.2524721818611856e-02 2.2632661392586975e+01 0.0000000000000000e+00  -3.2101324782500087e-03 2.3866446446139012e+01 0.0000000000000000e+00  -1.1955822466163573e-02 2.4836959371358876e+01 0.0000000000000000e+00  2.6865452517489573e-02 2.6122931288540411e+01 0.0000000000000000e+00  -2.2379157855067829e-02 2.7226388106619545e+01 0.0000000000000000e+00  2.6518311112782335e-02 2.8357987700682028e+01 0.0000000000000000e+00  8.8738246519746034e-03 2.9552048322067197e+01 0.0000000000000000e+00  -6.2036725690063944e-02 3.0432455310362990e+01 0.0000000000000000e+00  -5.1645319067720866e-02 3.1727254088139077e+01 0.0000000000000000e+00  1.0823435054221151e-02 3.2595199557684680e+01 0.0000000000000000e+00  -3.3433379899440653e-02 3.3687850276040841e+01 0.0000000000000000e+00  -1.6718572251966022e-02 3.4558849463161195e+01 0.0000000000000000e+00  8.2477407333223868e-02 3.5681135266976185e+01 0.0000000000000000e+00  -2.9017659243305273e-02 3.6784167761879381e+01 0.0000000000000000e+00  -4.4310919524294078e-02 3.7477400777659859e+01 0.0000000000000000e+00  -4.8192571900073845e-02 3.8540792885845519e+01 0.0000000000000000e+00  6.2822653734685395e-03 3.9202647142076238e+01 0.0000000000000000e+00  1.5280131970692102e-02 4.0116474160000259e+01 0.0000000000000000e+00  -6.3620677039383216e-03 4.0907374528699940e+01 0.0000000000000000e+00  -1.8650719146582747e-03 4.1607407980085625e+01 0.0000000000000000e+00  1.3225339570513762e-03 4.2279186701101239e+01 0.0000000000000000e+00  1.6005066380469001e-03 4.2931300222720047e+01 0.0000000000000000e+00  -1.1686852523483031e-02 4.3513847453678302e+01 0.0000000000000000e+00  5.4436006292503294e-04 4.3933562345885434e+01 0.0000000000000000e+00  -3.2835946128090770e-04 4.4455490412472351e+01 0.0000000000000000e+00  5.0089363592146045e-03 4.4874180824172100e+01 0.0000000000000000e+00  -9.3857487156029200e-03 4.5209989158975354e+01 0.0000000000000000e+00  9.1627259608162408e-03 4.5510252514359699e+01 0.0000000000000000e+00  -3.2811242335527963e-03 4.5713230259917658e+01 0.0000000000000000e+00  -8.1809289886820829e-03 4.5887419129420856e+01 0.0000000000000000e+00  1.9974089599212640e-03 4.5979931557405031e+01 0.0000000000000000e+00  1.9019375754093363e-03 4.6018528046561414e+01 0.0000000000000000e+00  8.4504519500517485e-03 4.5976398558393981e+01 0.0000000000000000e+00  -9.4592572623312891e-03 4.5887570044147580e+01 0.0000000000000000e+00  4.2859557467729700e-03 4.5729602962976145e+01 0.0000000000000000e+00  -7.7059772651414983e-03 4.5498825313699882e+01 0.0000000000000000e+00  1.0910419408809425e-02 4.5213619890871179e+01 0.0000000000000000e+00  -9.4802332414162735e-03 4.4838077292093672e+01 0.0000000000000000e+00  2.0733030485042884e-02 4.4497447429370503e+01 0.0000000000000000e+00  2.4485238004743618e-02 4.3935257404308729e+01 0.0000000000000000e+00  1.3408017526494445e-02 4.3530577523935534e+01 0.0000000000000000e+00  4.9761764162407844e-02 4.2867450524217155e+01 0.0000000000000000e+00  -2.3901961068456670e-02 4.2362629018012662e+01 0.0000000000000000e+00  -8.6923452841378840e-03 4.1608517814334206e+01 0.0000000000000000e+00  9.6472668186724595e-03 4.0849606126048549e+01 0.0000000000000000e+00  -2.2220615444832397e-03 4.0109668960028579e+01 0.0000000000000000e+00  -7.4015214792871420e-04 3.9306223863400071e+01 0.0000000000000000e+00  -3.1738159160829512e-03 3.8439045371655538e+01 0.0000000000000000e+00  3.6978405603743962e-03 3.7565244063702565e+01 0.0000000000000000e+00  -1.7867687544737686e-02 3.6635735243036564e+01 0.0000000000000000e+00  3.2457314179327158e-02 3.5683532827098723e+01 0.0000000000000000e+00  -2.3125929647843251e-02 3.4624653489703036e+01 0.0000000000000000e+00  2.5464245822131078e-02 3.3753967767700601e+01 0.0000000000000000e+00  6.8018804249568134e-03 3.2724768196807887e+01 0.0000000000000000e+00  -2.7680808166002047e-02 3.1619193717368962e+01 0.0000000000000000e+00  1.8238083471554263e-02 3.0528616271677706e+01 0.0000000000000000e+00  -2.2939108784382430e-02 2.9451193633444266e+01 0.0000000000000000e+00  1.0954957355297281e-02 2.8282148286624775e+01 0.0000000000000000e+00  -4.9526965883038478e-03 2.7149054421876233e+01 0.0000000000000000e+00  4.7095159670306107e-02 2.6206361890620787e+01 0