<?xml version="1.0"?>
<VTKFile type="UnstructuredGrid"  version="0.1"  >
<UnstructuredGrid>
<Piece  NumberOfPoints="11902" NumberOfCells="23402">
<Points>
<DataArray  type="Float64"  NumberOfComponents="3"  format="ascii">-5 -5 0  5 -5 0  5 5 0  -5 5 0  1.250128045077056 -0.001246726320250458 0  -4.9 -5 0  -4.8 -5 0  -4.7 -5 0  -4.6 -5 0  -4.5 -5 0  -4.4 -5 0  -4.3 -5 0  -4.2 -5 0  -4.1 -5 0  -4 -5 0  -3.9 -5 0  -3.8 -5 0  -3.7 -5 0  -3.6 -5 0  -3.5 -5 0  -3.4 -5 0  -3.3 -5 0  -3.2 -5 0  -3.1 -5 0  -3 -5 0  -2.9 -5 0  -2.8 -5 0  -2.7 -5 0  -2.6 -5 0  -2.5 -5 0  -2.4 -5 0  -2.3 -5 0  -2.2 -5 0  -2.1 -5 0  -2 -5 0  -1.9 -5 0  -1.8 -5 0  -1.7 -5 0  -1.6 -5 0  -1.5 -5 0  -1.4 -5 0  -1.3 -5 0  -1.2 -5 0  -1.1 -5 0  -1 -5 0  -0.9000000000000004 -5 0  -0.7999999999999998 -5 0  -0.7000000000000002 -5 0  -0.5999999999999996 -5 0  -0.5 -5 0  -0.4000000000000004 -5 0  -0.2999999999999998 -5 0  -0.2000000000000002 -5 0  -0.09999999999999964 -5 0  0 -5 0  0.09999999999999964 -5 0  0.2000000000000002 -5 0  0.2999999999999998 -5 0  0.4000000000000004 -5 0  0.5 -5 0  0.5999999999999996 -5 0  0.7000000000000002 -5 0  0.7999999999999998 -5 0  0.9000000000000004 -5 0  1 -5 0  1.1 -5 0  1.2 -5 0  1.3 -5 0  1.4 -5 0  1.5 -5 0  1.6 -5 0  1.7 -5 0  1.8 -5 0  1.9 -5 0  2 -5 0  2.1 -5 0  2.2 -5 0  2.3 -5 0  2.4 -5 0  2.5 -5 0  2.6 -5 0  2.7 -5 0  2.8 -5 0  2.9 -5 0  3 -5 0  3.1 -5 0  3.199999999999999 -5 0  3.300000000000001 -5 0  3.4 -5 0  3.5 -5 0  3.6 -5 0  3.699999999999999 -5 0  3.800000000000001 -5 0  3.9 -5 0  4 -5 0  4.1 -5 0  4.199999999999999 -5 0  4.300000000000001 -5 0  4.4 -5 0  4.5 -5 0  4.6 -5 0  4.699999999999999 -5 0  4.800000000000001 -5 0  4.9 -5 0  5 -4.9 0  5 -4.8 0  5 -4.7 0  5 -4.6 0  5 -4.5 0  5 -4.4 0  5 -4.3 0  5 -4.2 0  5 -4.1 0  5 -4 0  5 -3.9 0  5 -3.8 0  5 -3.7 0  5 -3.6 0  5 -3.5 0  5 -3.4 0  5 -3.3 0  5 -3.2 0  5 -3.1 0  5 -3 0  5 -2.9 0  5 -2.8 0  5 -2.7 0  5 -2.6 0  5 -2.5 0  5 -2.4 0  5 -2.3 0  5 -2.2 0  5 -2.1 0  5 -2 0  5 -1.9 0  5 -1.8 0  5 -1.7 0  5 -1.6 0  5 -1.5 0  5 -1.4 0  5 -1.3 0  5 -1.2 0  5 -1.1 0  5 -1 0  5 -0.9000000000000004 0  5 -0.7999999999999998 0  5 -0.7000000000000002 0  5 -0.5999999999999996 0  5 -0.5 0  5 -0.4000000000000004 0  5 -0.2999999999999998 0  5 -0.2000000000000002 0  5 -0.09999999999999964 0  5 0 0  5 0.09999999999999964 0  5 0.2000000000000002 0  5 0.2999999999999998 0  5 0.4000000000000004 0  5 0.5 0  5 0.5999999999999996 0  5 0.7000000000000002 0  5 0.7999999999999998 0  5 0.9000000000000004 0  5 1 0  5 1.1 0  5 1.2 0  5 1.3 0  5 1.4 0  5 1.5 0  5 1.6 0  5 1.7 0  5 1.8 0  5 1.9 0  5 2 0  5 2.1 0  5 2.2 0  5 2.3 0  5 2.4 0  5 2.5 0  5 2.6 0  5 2.7 0  5 2.8 0  5 2.9 0  5 3 0  5 3.1 0  5 3.199999999999999 0  5 3.300000000000001 0  5 3.4 0  5 3.5 0  5 3.6 0  5 3.699999999999999 0  5 3.800000000000001 0  5 3.9 0  5 4 0  5 4.1 0  5 4.199999999999999 0  5 4.300000000000001 0  5 4.4 0  5 4.5 0  5 4.6 0  5 4.699999999999999 0  5 4.800000000000001 0  5 4.9 0  4.9 5 0  4.8 5 0  4.7 5 0  4.6 5 0  4.5 5 0  4.4 5 0  4.3 5 0  4.2 5 0  4.1 5 0  4 5 0  3.9 5 0  3.8 5 0  3.7 5 0  3.6 5 0  3.5 5 0  3.4 5 0  3.3 5 0  3.2 5 0  3.1 5 0  3 5 0  2.9 5 0  2.8 5 0  2.7 5 0  2.6 5 0  2.5 5 0  2.4 5 0  2.3 5 0  2.2 5 0  2.1 5 0  2 5 0  1.9 5 0  1.8 5 0  1.7 5 0  1.6 5 0  1.5 5 0  1.4 5 0  1.3 5 0  1.2 5 0  1.1 5 0  1 5 0  0.9000000000000004 5 0  0.7999999999999998 5 0  0.7000000000000002 5 0  0.5999999999999996 5 0  0.5 5 0  0.4000000000000004 5 0  0.2999999999999998 5 0  0.2000000000000002 5 0  0.09999999999999964 5 0  0 5 0  -0.09999999999999964 5 0  -0.2000000000000002 5 0  -0.2999999999999998 5 0  -0.4000000000000004 5 0  -0.5 5 0  -0.5999999999999996 5 0  -0.7000000000000002 5 0  -0.7999999999999998 5 0  -0.9000000000000004 5 0  -1 5 0  -1.1 5 0  -1.2 5 0  -1.3 5 0  -1.4 5 0  -1.5 5 0  -1.6 5 0  -1.7 5 0  -1.8 5 0  -1.9 5 0  -2 5 0  -2.1 5 0  -2.2 5 0  -2.3 5 0  -2.4 5 0  -2.5 5 0  -2.6 5 0  -2.7 5 0  -2.8 5 0  -2.9 5 0  -3 5 0  -3.1 5 0  -3.199999999999999 5 0  -3.300000000000001 5 0  -3.4 5 0  -3.5 5 0  -3.6 5 0  -3.699999999999999 5 0  -3.800000000000001 5 0  -3.9 5 0  -4 5 0  -4.1 5 0  -4.199999999999999 5 0  -4.300000000000001 5 0  -4.4 5 0  -4.5 5 0  -4.6 5 0  -4.699999999999999 5 0  -4.800000000000001 5 0  -4.9 5 0  -5 4.9 0  -5 4.8 0  -5 4.7 0  -5 4.6 0  -5 4.5 0  -5 4.4 0  -5 4.3 0  -5 4.2 0  -5 4.1 0  -5 4 0  -5 3.9 0  -5 3.8 0  -5 3.7 0  -5 3.6 0  -5 3.5 0  -5 3.4 0  -5 3.3 0  -5 3.2 0  -5 3.1 0  -5 3 0  -5 2.9 0  -5 2.8 0  -5 2.7 0  -5 2.6 0  -5 2.5 0  -5 2.4 0  -5 2.3 0  -5 2.2 0  -5 2.1 0  -5 2 0  -5 1.9 0  -5 1.8 0  -5 1.7 0  -5 1.6 0  -5 1.5 0  -5 1.4 0  -5 1.3 0  -5 1.2 0  -5 1.1 0  -5 1 0  -5 0.9000000000000004 0  -5 0.7999999999999998 0  -5 0.7000000000000002 0  -5 0.5999999999999996 0  -5 0.5 0  -5 0.4000000000000004 0  -5 0.2999999999999998 0  -5 0.2000000000000002 0  -5 0.09999999999999964 0  -5 0 0  -5 -0.09999999999999964 0  -5 -0.2000000000000002 0  -5 -0.2999999999999998 0  -5 -0.4000000000000004 0  -5 -0.5 0  -5 -0.5999999999999996 0  -5 -0.7000000000000002 0  -5 -0.7999999999999998 0  -5 -0.9000000000000004 0  -5 -1 0  -5 -1.1 0  -5 -1.2 0  -5 -1.3 0  -5 -1.4 0  -5 -1.5 0  -5 -1.6 0  -5 -1.7 0  -5 -1.8 0  -5 -1.9 0  -5 -2 0  -5 -2.1 0  -5 -2.2 0  -5 -2.3 0  -5 -2.4 0  -5 -2.5 0  -5 -2.6 0  -5 -2.7 0  -5 -2.8 0  -5 -2.9 0  -5 -3 0  -5 -3.1 0  -5 -3.199999999999999 0  -5 -3.300000000000001 0  -5 -3.4 0  -5 -3.5 0  -5 -3.6 0  -5 -3.699999999999999 0  -5 -3.800000000000001 0  -5 -3.9 0  -5 -4 0  -5 -4.1 0  -5 -4.199999999999999 0  -5 -4.300000000000001 0  -5 -4.4 0  -5 -4.5 0  -5 -4.6 0  -5 -4.699999999999999 0  -5 -4.800000000000001 0  -5 -4.9 0  1.244123386950666 0.1200723816370361 0  1.224478554764686 0.2362125126893286 0  1.19327280134141 0.3496875021632496 0  1.147948350437415 0.4577363285364524 0  1.091888141069808 0.5621687758522877 0  1.025005572882233 0.6602854953598873 0  0.943978694971067 0.7574153179913874 0  0.8588301154235142 0.8374634395410983 0  0.7658109882617681 0.9122633773350232 0  0.6663412327840441 0.9775089677366509 0  0.5541825352948966 1.035546647214015 0  0.4473086464346142 1.079474416888732 0  0.3279343536212912 1.117063875472753 0  0.2096089939797926 1.141929300277801 0  0.09051902177036908 1.156527303224797 0  -0.03335720202088609 1.15906196627029 0  -0.1481104022704371 1.150330270121113 0  -0.2670845014964512 1.131509428243132 0  -0.3881091361936819 1.099858135623687 0  -0.5002526629819857 1.059409446304845 0  -0.6106068603478039 1.008671971264394 0  -0.715616464767296 0.946348294977839 0  -0.8112452716274714 0.8776871762701518 0  -0.9046486826608172 0.7966520932022735 0  -0.9847092398349143 0.7076279233573832 0  -1.057094231767567 0.6140719644590488 0  -1.11950908875493 0.5124530765054444 0  -1.170695376004301 0.4022155682727706 0  -1.209157360908147 0.2915067352763775 0  -1.234874793368519 0.1775907481428456 0  -1.248121617584742 0.0588761831717261 0  -1.248197346162171 -0.05790107141234451 0  -1.237264131803454 -0.1741781509197549 0  -1.209678716345806 -0.2941280014827188 0  -1.170289070798862 -0.4040628771124511 0  -1.118863632418896 -0.514123436702286 0  -1.057487041880575 -0.6122981871684062 0  -0.9850471978436437 -0.7089906904241794 0  -0.9019923268823823 -0.7985909570225932 0  -0.8121458905366146 -0.8769021896307085 0  -0.7160680628759211 -0.9466941196838344 0  -0.6111369928059112 -1.009197412547859 0  -0.5000805210856113 -1.060310870464326 0  -0.387088382468833 -1.100309512819601 0  -0.2692451002635775 -1.131448939362454 0  -0.151900100449448 -1.149461658838801 0  -0.03281795816823926 -1.158147386943128 0  0.09420566738120784 -1.155302586470868 0  0.2094647572412504 -1.142124399391244 0  0.3324361302525248 -1.116167052396407 0  0.443987339850953 -1.081393640880031 0  0.5585330199588088 -1.033926324260076 0  0.6615735738532529 -0.9815314396570695 0  0.7661498713663661 -0.9133684932700328 0  0.8602119529316482 -0.8383278427874994 0  0.9463651184577976 -0.7541325088523001 0  1.023340966518371 -0.6627066429239153 0  1.089743744936503 -0.566322636479287 0  1.146603782655278 -0.4604526066751837 0  1.193157296470851 -0.3455846155815308 0  1.224221642807298 -0.2367664360746386 0  1.244039274735244 -0.1165066529569864 0  -2.449999320644065 4.920479930732856 0  -2.44999523070759 -4.913055820999439 0  4.912871835253548 2.449818010401834 0  4.920769982937832 -2.45110328749278 0  2.447997663353457 -4.89874457185393 0  2.44238685949359 4.90238238878805 0  -4.912879392500423 -2.449826099383267 0  -4.912884634099026 2.449829781299072 0  -1.750031257315281 4.914391007505436 0  -1.745753382145611 -4.917687227043739 0  4.923559208948512 1.745748143765064 0  4.912506956669485 -1.749761391881248 0  -4.912767209816387 -1.749468961930913 0  -4.913568819529203 1.749192452354521 0  1.747435691637901 4.908492081226568 0  1.74902696637628 -4.897080686234371 0  -1.150044680132208 4.912902590012267 0  -1.130793299408475 -4.920408124205545 0  -4.913177876341718 -1.149408976817575 0  -4.913012023369003 1.149206061319375 0  1.144955660979965 -4.916805019973985 0  1.15004787551244 4.912876201231573 0  4.913347824712878 1.147693381056591 0  4.923691462928248 -1.153298697055232 0  -0.5473011633234885 -4.91441563225641 0  -0.5470158316254168 4.922708304970564 0  -4.912437876837513 -0.5495090379005927 0  -4.912465746538272 0.5480554691228788 0  4.911827691336907 -0.5498416770743885 0  4.922913530222988 0.5464850348056978 0  0.5431620535348562 -4.901939811407266 0  0.5517580263420371 4.919688631108599 0  -4.913582922825137 -3.049886943394194 0  4.920040311117327 3.047797802633365 0  4.913108013170212 -3.049886437022507 0  -4.914423261547653 3.046966208099803 0  3.056539541301069 -4.919109144056319 0  -3.049975624514105 -4.91318743605671 0  3.053512036142015 4.915221740032771 0  -3.049404877201973 4.914048179022785 0  -4.911739737078725 -0.04998787400666742 0  0.04516109228827973 -4.916405113954801 0  0.04961185957014951 4.923098191072405 0  4.918475307523421 -0.05136423781245276 0  3.546595445173625 -4.920271384066072 0  -3.54996481646022 4.913263729110702 0  -3
[...]
<PointData  Vectors="f_896"> 
<DataArray  type="Float64"  Name="f_896"  NumberOfComponents="3" format="ascii">-1.1188553519224419e-01 -1.3055339789247802e-01 0.0000000000000000e+00  1.2257227935195729e-01 -1.0370600883914644e-01 0.0000000000000000e+00  7.1021378741300198e-02 8.2933171060432576e-02 0.0000000000000000e+00  -1.1755166398266191e-01 1.3421853562788186e-01 0.0000000000000000e+00  2.0481078492503080e+01 1.7392625388987788e+00 0.0000000000000000e+00  4.3167778809041171e-02 -9.8758971632681147e-01 0.0000000000000000e+00  3.5971993047754690e-02 -1.6036867043758611e+00 0.0000000000000000e+00  3.8611732225771495e-02 -2.6465205137847172e+00 0.0000000000000000e+00  2.9180535352428892e-02 -3.2718240055004624e+00 0.0000000000000000e+00  -7.1741675891008216e-02 -4.2515499472613936e+00 0.0000000000000000e+00  1.4874800533666143e-02 -5.2225108288962181e+00 0.0000000000000000e+00  2.5460115296821424e-02 -5.9551023377124954e+00 0.0000000000000000e+00  -1.1471144730204792e-02 -6.8497949723076452e+00 0.0000000000000000e+00  4.3632772548068598e-02 -7.5491520289515073e+00 0.0000000000000000e+00  4.6103901206889002e-02 -8.5679592749215345e+00 0.0000000000000000e+00  -7.3551598751347615e-03 -9.2507225759023850e+00 0.0000000000000000e+00  -1.2151220598763550e-02 -1.0146264991505058e+01 0.0000000000000000e+00  5.5224054660355081e-03 -1.1018915653332762e+01 0.0000000000000000e+00  3.7675330067600070e-03 -1.1843634949791012e+01 0.0000000000000000e+00  -4.5768549138535397e-03 -1.2682720343966173e+01 0.0000000000000000e+00  2.8732226290068023e-03 -1.3556436626416460e+01 0.0000000000000000e+00  1.8493170959876622e-02 -1.4399629370189681e+01 0.0000000000000000e+00  -3.1597686107778162e-03 -1.5071276361670748e+01 0.0000000000000000e+00  -5.5103805109073516e-03 -1.5997105997637801e+01 0.0000000000000000e+00  -2.2692567538453976e-02 -1.6923899268069601e+01 0.0000000000000000e+00  5.9216265829681612e-02 -1.7576106266884707e+01 0.0000000000000000e+00  2.8202659555471854e-02 -1.8522451564338770e+01 0.0000000000000000e+00  3.1155475199307781e-02 -1.9136913234062504e+01 0.0000000000000000e+00  5.4314358609948321e-02 -2.0044599320172377e+01 0.0000000000000000e+00  -2.5610482244109761e-02 -2.0684270138660310e+01 0.0000000000000000e+00  -8.4576762342553242e-03 -2.1559165319696312e+01 0.0000000000000000e+00  -2.8695543588695776e-03 -2.2376521453099993e+01 0.0000000000000000e+00  3.8902297702089125e-02 -2.2954136563272549e+01 0.0000000000000000e+00  2.9445383752786929e-02 -2.3834801505288539e+01 0.0000000000000000e+00  2.8329478279936916e-02 -2.4356235391482453e+01 0.0000000000000000e+00  -6.4720342959448521e-02 -2.5153200137962774e+01 0.0000000000000000e+00  2.8233189313503545e-02 -2.5901905194504199e+01 0.0000000000000000e+00  4.3679621465172770e-03 -2.6444462959971599e+01 0.0000000000000000e+00  -9.2526726945525240e-04 -2.7054173920696623e+01 0.0000000000000000e+00  -1.0728978132587457e-03 -2.7639536884737399e+01 0.0000000000000000e+00  4.8891858410042253e-03 -2.8198911599895808e+01 0.0000000000000000e+00  -2.8272590410483175e-02 -2.8779599711065512e+01 0.0000000000000000e+00  3.4448800667682425e-02 -2.9218682629893348e+01 0.0000000000000000e+00  1.8507073119422224e-02 -2.9673990093327856e+01 0.0000000000000000e+00  1.4236314593698089e-02 -3.0139945522147482e+01 0.0000000000000000e+00  -7.9756100515990073e-03 -3.0543318290445981e+01 0.0000000000000000e+00  3.3562736006324846e-02 -3.0818746839648508e+01 0.0000000000000000e+00  -2.4808069551551289e-02 -3.1194062009281460e+01 0.0000000000000000e+00  1.3807440122268248e-02 -3.1503831231514720e+01 0.0000000000000000e+00  -2.9597641172031878e-03 -3.1695251988282440e+01 0.0000000000000000e+00  1.0139098691713188e-03 -3.1898142144567711e+01 0.0000000000000000e+00  -7.0929067250309814e-04 -3.2049956786435374e+01 0.0000000000000000e+00  3.3312490306428846e-04 -3.2159390999554240e+01 0.0000000000000000e+00  1.6705678774604511e-04 -3.2225092548631324e+01 0.0000000000000000e+00  1.4813769374100311e-03 -3.2247441367799986e+01 0.0000000000000000e+00  6.0971544654575050e-04 -3.2234482607103743e+01 0.0000000000000000e+00  6.1735534256114107e-03 -3.2163346246688967e+01 0.0000000000000000e+00  -8.7186081161565402e-03 -3.2030549835490973e+01 0.0000000000000000e+00  -4.1637440457412602e-03 -3.1914775794579000e+01 0.0000000000000000e+00  -1.6764242727871512e-02 -3.1677804475857659e+01 0.0000000000000000e+00  5.4784104795149256e-03 -3.1484445661827237e+01 0.0000000000000000e+00  4.7042590642080327e-03 -3.1192797447202608e+01 0.0000000000000000e+00  -3.4347616801731809e-03 -3.0861756150045821e+01 0.0000000000000000e+00  -6.9104355126510379e-04 -3.0515665055979838e+01 0.0000000000000000e+00  4.2090288654168017e-03 -3.0117554696167989e+01 0.0000000000000000e+00  -9.3820117460053001e-03 -2.9686593071163990e+01 0.0000000000000000e+00  -5.8962554474019302e-03 -2.9206087733866450e+01 0.0000000000000000e+00  6.5045975562299536e-03 -2.8772670918448796e+01 0.0000000000000000e+00  -1.5456143629946769e-02 -2.8197065814566685e+01 0.0000000000000000e+00  1.7915545679494816e-02 -2.7633364210506659e+01 0.0000000000000000e+00  -2.2675528932150964e-02 -2.7053664925671601e+01 0.0000000000000000e+00  4.3352754284071825e-03 -2.6408571792138748e+01 0.0000000000000000e+00  1.1101819022881562e-02 -2.5826339423820048e+01 0.0000000000000000e+00  -1.6279506462789469e-02 -2.5139052153320339e+01 0.0000000000000000e+00  1.1574017381092150e-02 -2.4441019645723816e+01 0.0000000000000000e+00  -8.5221874957527137e-03 -2.3735973276391498e+01 0.0000000000000000e+00  3.7869766134996305e-03 -2.3029216736848753e+01 0.0000000000000000e+00  -1.5662753466002068e-02 -2.2303228429642733e+01 0.0000000000000000e+00  -4.4899294764789589e-03 -2.1513281382450941e+01 0.0000000000000000e+00  6.7318633309891972e-03 -2.0856944030109137e+01 0.0000000000000000e+00  1.2335402900534940e-03 -2.0029806792889467e+01 0.0000000000000000e+00  6.4794264027244171e-03 -1.9227213608297081e+01 0.0000000000000000e+00  -2.2666385282808774e-02 -1.8445126165286883e+01 0.0000000000000000e+00  -7.6679299105815151e-03 -1.7562829368037153e+01 0.0000000000000000e+00  1.3969887469076146e-02 -1.6841437441874859e+01 0.0000000000000000e+00  -2.1854579839456083e-02 -1.5961447954559979e+01 0.0000000000000000e+00  1.1494505079792418e-03 -1.5177945721535755e+01 0.0000000000000000e+00  8.3364153937210712e-03 -1.4377925250199384e+01 0.0000000000000000e+00  9.4110374284055321e-03 -1.3494632693964814e+01 0.0000000000000000e+00  -2.6263811138708688e-02 -1.2690050388507153e+01 0.0000000000000000e+00  5.7279951883375891e-03 -1.1795377474256187e+01 0.0000000000000000e+00  5.2005736481535256e-03 -1.1039746364431910e+01 0.0000000000000000e+00  -2.0618051349196486e-02 -1.0132370223584568e+01 0.0000000000000000e+00  -4.6136710085834621e-04 -9.3278405474852448e+00 0.0000000000000000e+00  1.1294445510426538e-02 -8.4618197314309906e+00 0.0000000000000000e+00  -6.1705499180539152e-04 -7.6041686600112888e+00 0.0000000000000000e+00  -1.1407974804149084e-02 -6.7765817450506525e+00 0.0000000000000000e+00  -8.2773950361331311e-03 -5.8950352431745676e+00 0.0000000000000000e+00  1.6318700023065381e-02 -5.1424886759070505e+00 0.0000000000000000e+00  -2.5347811613037684e-02 -4.2313182399278837e+00 0.0000000000000000e+00  6.0723950462811616e-03 -3.4037794185391661e+00 0.0000000000000000e+00  1.3793518640656989e-02 -2.5343200341129402e+00 0.0000000000000000e+00  -2.1853636022531153e-02 -1.6828974430454706e+00 0.0000000000000000e+00  -2.7006615990209218e-02 -9.7395407603381123e-01 0.0000000000000000e+00  1.0136089504329566e+00 2.4482113292851299e-02 0.0000000000000000e+00  1.6267001606075844e+00 6.1897523405475274e-02 0.0000000000000000e+00  2.6172387320939841e+00 4.5586356995391458e-02 0.0000000000000000e+00  3.3452766293402267e+00 -1.3872805634303447e-02 0.0000000000000000e+00  4.2505853433966578e+00 6.5835224438168093e-03 0.0000000000000000e+00  5.0842477534971504e+00 -4.6512573262709129e-03 0.0000000000000000e+00  5.9293599182152201e+00 9.8068045906243352e-04 0.0000000000000000e+00  6.7778377797037912e+00 -1.3196922454564808e-03 0.0000000000000000e+00  7.6198948080031013e+00 4.4494212550439088e-04 0.0000000000000000e+00  8.4804239856289154e+00 -1.9198854557396535e-04 0.0000000000000000e+00  9.3134410973309247e+00 -3.1333331299201939e-05 0.0000000000000000e+00  1.0167480537261591e+01 3.0478617931769727e-03 0.0000000000000000e+00  1.0984884971472827e+01 1.1704481028260083e-03 0.0000000000000000e+00  1.1858085258038610e+01 -5.5379888634607246e-03 0.0000000000000000e+00  1.2677308630460477e+01 2.8312002469076288e-03 0.0000000000000000e+00  1.3543066518240465e+01 2.5582545008850928e-03 0.0000000000000000e+00  1.4353179275589076e+01 -2.3159421659397017e-03 0.0000000000000000e+00  1.5171820738222959e+01 5.6109762534063126e-03 0.0000000000000000e+00  1.6027131809498826e+01 -5.3520582078900869e-03 0.0000000000000000e+00  1.6823575936683099e+01 -3.7718124340027455e-03 0.0000000000000000e+00  1.7657524446076046e+01 7.6939571957147946e-03 0.0000000000000000e+00  1.8473069616066503e+01 -7.9948292985156672e-03 0.0000000000000000e+00  1.9228846029367460e+01 5.7273471029911363e-03 0.0000000000000000e+00  2.0035060050068704e+01 1.5770079861294455e-03 0.0000000000000000e+00  2.0829649191653633e+01 3.5360297266250622e-03 0.0000000000000000e+00  2.1608009132807961e+01 -2.0030549681161916e-03 0.0000000000000000e+00  2.2358111633029207e+01 -1.4470837304505558e-03 0.0000000000000000e+00  2.3087413818370226e+01 -1.0604415196197854e-03 0.0000000000000000e+00  2.3810655242586822e+01 1.5164256491649475e-04 0.0000000000000000e+00  2.4516384049042820e+01 -2.1598565104103499e-04 0.0000000000000000e+00  2.5203059838676772e+01 2.2200139948892500e-04 0.0000000000000000e+00  2.5868151450348311e+01 -1.5784289201367233e-03 0.0000000000000000e+00  2.6503883632874011e+01 -6.6768797760861519e-04 0.0000000000000000e+00  2.7132337138779356e+01 3.0719887779479542e-03 0.0000000000000000e+00  2.7733989819641817e+01 -4.7352539117366350e-03 0.0000000000000000e+00  2.8270292488876244e+01 4.7518317793524157e-03 0.0000000000000000e+00  2.8812650951372049e+01 -2.8712885966098849e-04 0.0000000000000000e+00  2.9311854735268106e+01 5.4354280585552630e-03 0.0000000000000000e+00  2.9771801080319605e+01 7.3035410587363025e-03 0.0000000000000000e+00  3.0230979955650263e+01 -2.1516589858308288e-02 0.0000000000000000e+00  3.0660074207572585e+01 1.5599381511079834e-02 0.0000000000000000e+00  3.0984809739959832e+01 -6.7837175719058550e-03 0.0000000000000000e+00  3.1318763795041786e+01 9.6449930001414944e-04 0.0000000000000000e+00  3.1602013755033060e+01 -2.1544342721453382e-03 0.0000000000000000e+00  3.1830494645989059e+01 4.4281406283928305e-03 0.0000000000000000e+00  3.2028381148246311e+01 -7.6279038130085467e-04 0.0000000000000000e+00  3.2188336698994959e+01 3.0124226676272342e-04 0.0000000000000000e+00  3.2301273583571920e+01 -4.8868087707260835e-04 0.0000000000000000e+00  3.2369034558667082e+01 -2.0316836600018287e-04 0.0000000000000000e+00  3.2390242717813692e+01 4.1535884746161543e-04 0.0000000000000000e+00  3.2368229419271714e+01 4.6303716424459467e-04 0.0000000000000000e+00  3.2303845518973304e+01 -1.1663581319139842e-03 0.0000000000000000e+00  3.2190854412194874e+01 1.2852863522649363e-03 0.0000000000000000e+00  3.2034151591312309e+01 1.4930655533196095e-04 0.0000000000000000e+00  3.1841747110955239e+01 -2.2125953741515595e-03 0.0000000000000000e+00  3.1597975082583748e+01 2.6252286974503699e-03 0.0000000000000000e+00  3.1311059804654860e+01 -7.0045802443843570e-06 0.0000000000000000e+00  3.0992476660558729e+01 -3.1234609315271521e-03 0.0000000000000000e+00  3.0620149296750792e+01 8.4765717390623309e-04 0.0000000000000000e+00  3.0227531895385869e+01 1.5502831423587101e-03 0.0000000000000000e+00  2.9791081501897143e+01 -1.9718302085156990e-03 0.0000000000000000e+00  2.9337289149957375e+01 -4.7257971273966664e-06 0.0000000000000000e+00  2.8822819512360269e+01 1.4367361532960814e-03 0.0000000000000000e+00  2.8291168720191148e+01 -1.2596534887949254e-03 0.0000000000000000e+00  2.7740797383121258e+01 4.7701530710092333e-03 0.0000000000000000e+00  2.7129159707212942e+01 -3.6257818797905067e-03 0.0000000000000000e+00  2.6526770440723183e+01 -5.0354566551425997e-03 0.0000000000000000e+00  2.5876270945015399e+01 6.3263870763305185e-03 0.0000000000000000e+00  2.5194674258458789e+01 -1.7943604239297514e-03 0.0000000000000000e+00  2.4514103784473473e+01 -3.2340980333390619e-03 0.0000000000000000e+00  2.3803024622999146e+01 2.7982712015480150e-03 0.0000000000000000e+00  2.3081177721625433e+01 2.3962180961654253e-03 0.0000000000000000e+00  2.2336810120511558e+01 -6.2722255110084647e-04 0.0000000000000000e+00  2.1586819313225305e+01 -7.6447283972456778e-05 0.0000000000000000e+00  2.0821043312454375e+01 1.4398895365052972e-03 0.0000000000000000e+00  2.0039465958981641e+01 -1.0447142681369764e-03 0.0000000000000000e+00  1.9267309147286369e+01 -1.6784746227578179e-03 0.0000000000000000e+00  1.8481814166230414e+01 4.6174396144649616e-03 0.0000000000000000e+00  1.7647257008381402e+01 -6.5800379268224829e-03 0.0000000000000000e+00  1.6832156654389873e+01 -7.3139883058956725e-04 0.0000000000000000e+00  1.6013277772592609e+01 -7.6996077416935024e-04 0.0000000000000000e+00  1.5215481459839598e+01 -3.7308372761212828e-04 0.0000000000000000e+00  1.4386304473383820e+01 6.6616108280442990e-03 0.0000000000000000e+00  1.3522174683629336e+01 -5.9365546793015873e-03 0.0000000000000000e+00  1.2684883810007229e+01 -8.3193128714297156e-04 0.0000000000000000e+00  1.1843937352410144e+01 3.3800927625392350e-04 0.0000000000000000e+00  1.0984063736594658e+01 2.8704661141457015e-03 0.0000000000000000e+00  1.0164290867400053e+01 1.1591064270940203e-03 0.0000000000000000e+00  9.3063346813262822e+00 -1.8826924500639263e-03 0.0000000000000000e+00  8.4695124020600119e+00 7.3150382867750671e-04 0.0000000000000000e+00  7.6238300993415775e+00 2.8318107132391085e-03 0.0000000000000000e+00  6.7944392455592100e+00 -1.1196432387239493e-03 0.0000000000000000e+00  5.9303926680303585e+00 -2.6356354024384228e-03 0.0000000000000000e+00  5.0833953317459741e+00 4.7979868804692259e-03 0.0000000000000000e+00  4.2512343259730487e+00 -8.4866870245128082e-03 0.0000000000000000e+00  3.4245009058233791e+00 -3.6285796395759103e-03 0.0000000000000000e+00  2.5691440684386611e+00 1.1639337428255668e-02 0.0000000000000000e+00  1.6863641654791885e+00 1.8751109807389540e-04 0.0000000000000000e+00  9.1640184255769408e-01 -3.0727635965023543e-02 0.0000000000000000e+00  -4.9388476333624289e-02 9.4623869695403762e-01 0.0000000000000000e+00  1.2283218434383856e-02 1.6434934513641508e+00 0.0000000000000000e+00  -2.0863934253034663e-02 2.5316450333554674e+00 0.0000000000000000e+00  -1.6439560967146626e-02 3.2563112874278044e+00 0.0000000000000000e+00  7.1337963194638601e-02 4.2337823676740989e+00 0.0000000000000000e+00  -1.7985537989527650e-02 5.2223897852748209e+00 0.0000000000000000e+00  -5.0220033791439758e-02 5.8409301063479484e+00 0.0000000000000000e+00  -7.3062201678857089e-02 6.8360733937577676e+00 0.0000000000000000e+00  2.0939345359799726e-02 7.5304983594852324e+00 0.0000000000000000e+00  2.2367379084272720e-02 8.4666996358544750e+00 0.0000000000000000e+00  -2.0868903373840463e-02 9.3174330555042086e+00 0.0000000000000000e+00  1.5106561777493937e-02 1.0132309268109410e+01 0.0000000000000000e+00  3.0887965527175861e-03 1.1052704708261562e+01 0.0000000000000000e+00  -2.3064422045729629e-03 1.1777944476091031e+01 0.0000000000000000e+00  -9.9652246487919819e-03 1.2672860157006895e+01 0.0000000000000000e+00  -4.0188152905975974e-03 1.3478381085109651e+01 0.0000000000000000e+00  1.1415839864523351e-02 1.4341510092016087e+01 0.0000000000000000e+00  -3.7182045123321725e-03 1.5197334281443766e+01 0.0000000000000000e+00  -8.5815444852974324e-03 1.5993403957739794e+01 0.0000000000000000e+00  -2.7991913642926537e-03 1.6858748571674855e+01 0.0000000000000000e+00  -7.6497144279719506e-03 1.7540091890573422e+01 0.0000000000000000e+00  1.8307430637405992e-02 1.8441626194283746e+01 0.0000000000000000e+00  -1.5359809403184025e-02 1.9214149183453085e+01 0.0000000000000000e+00  1.8409215176930650e-02 2.0004863230418806e+01 0.0000000000000000e+00  5.9294472915377826e-03 2.0838955705337430e+01 0.0000000000000000e+00  -4.2293776998852881e-02 2.1452737312572484e+01 0.0000000000000000e+00  -3.6566198355348099e-02 2.2355523793029658e+01 0.0000000000000000e+00  7.7237010989494835e-03 2.2959443966005527e+01 0.0000000000000000e+00  -2.3075593194652508e-02 2.3719914829953819e+01 0.0000000000000000e+00  -1.1481713292361827e-02 2.4324396711512243e+01 0.0000000000000000e+00  5.7101544415978193e-02 2.5103132937480030e+01 0.0000000000000000e+00  -2.0164918898861846e-02 2.5866438239914711e+01 0.0000000000000000e+00  -3.0123833340947356e-02 2.6346241816559932e+01 0.0000000000000000e+00  -3.3450956354570884e-02 2.7081014468155580e+01 0.0000000000000000e+00  4.5066815406249608e-03 2.7538311059271429e+01 0.0000000000000000e+00  1.0423312432925026e-02 2.8168342590128500e+01 0.0000000000000000e+00  -4.3139706838837728e-03 2.8712969239238589e+01 0.0000000000000000e+00  -1.2667048996310411e-03 2.9194620983656897e+01 0.0000000000000000e+00  9.2580845600078940e-04 2.9656442634874502e+01 0.0000000000000000e+00  1.0759067213575073e-03 3.0104226700490692e+01 0.0000000000000000e+00  -7.9923097531717502e-03 3.0503918831612680e+01 0.0000000000000000e+00  4.3342500924703373e-04 3.0791908900658839e+01 0.0000000000000000e+00  -2.8231802644400556e-04 3.1149523999715210e+01 0.0000000000000000e+00  3.4430206052846685e-03 3.1436128836206237e+01 0.0000000000000000e+00  -6.4057513162718276e-03 3.1666059527266501e+01 0.0000000000000000e+00  6.2276639866093329e-03 3.1871552815969327e+01 0.0000000000000000e+00  -2.2106210676163382e-03 3.2010484691083683e+01 0.0000000000000000e+00  -5.5766164193659165e-03 3.2129760103395057e+01 0.0000000000000000e+00  1.3655607436739961e-03 3.2193204710641780e+01 0.0000000000000000e+00  1.2889021674192388e-03 3.2219866972308800e+01 0.0000000000000000e+00  5.7322229208941547e-03 3.2191448129232263e+01 0.0000000000000000e+00  -6.4162734355645290e-03 3.2131084734992960e+01 0.0000000000000000e+00  2.8911881354792756e-03 3.2023532820261352e+01 0.0000000000000000e+00  -5.2157198813725155e-03 3.1866247848353186e+01 0.0000000000000000e+00  7.4042832888204105e-03 3.1671741482835007e+01 0.0000000000000000e+00  -6.4605677338099281e-03 3.1415271529216142e+01 0.0000000000000000e+00  1.4172859941611854e-02 3.1182558746356875e+01 0.0000000000000000e+00  1.6609340020643563e-02 3.0798024643814959e+01 0.0000000000000000e+00  9.2903508566330815e-03 3.0521185662213938e+01 0.0000000000000000e+00  3.3876733738355001e-02 3.0066613863304063e+01 0.0000000000000000e+00  -1.6363672671537224e-02 2.9720382969443921e+01 0.0000000000000000e+00  -5.8966021265799244e-03 2.9202638369516752e+01 0.0000000000000000e+00  6.5651925180704217e-03 2.8681179676398873e+01 0.0000000000000000e+00  -1.5278965644825344e-03 2.8171819871762260e+01 0.0000000000000000e+00  -5.1311116497428013e-04 2.7618252944845676e+01 0.0000000000000000e+00  -2.1764363303168766e-03 2.7020138153673997e+01 0.0000000000000000e+00  2.4770009140064743e-03 2.6416648203306281e+01 0.0000000000000000e+00  -1.2286458838197845e-02 2.5773917268625635e+01 0.0000000000000000e+00  2.2485076272783733e-02 2.5114900921486292e+01 0.0000000000000000e+00  -1.6112041319901304e-02 2.4379824512517008e+01 0.0000000000000000e+00  1.7754944187512851e-02 2.3775300422054929e+01 0.0000000000000000e+00  4.6123808016046994e-03 2.3060309707271877e+01 0.0000000000000000e+00  -1.9080299132136543e-02 2.2291144137145793e+01 0.0000000000000000e+00  1.2487544670369133e-02 2.1531342414067261e+01 0.0000000000000000e+00  -1.5881820164415965e-02 2.0779423702388762e+01 0.0000000000000000e+00  7.6502650655858066e-03 1.9963209138570551e+01 0.0000000000000000e+00  -3.8671288620028919e-03 1.9170325842316583e+01 0.0000000000000000e+00  3.3754511149669236e-02 1.8510190378884761e+01 0.00